Gromacs Runs On Most of All Computer Systems in water
11585
    1C      O5'    1   2.297   1.346   4.607 -0.0992  0.2498  0.2154
    1C      H5T    2   2.238   1.417   4.631  1.4979  1.2696  1.2963
    1C      C5'    3   2.267   1.230   4.682 -0.0736 -0.0028  0.0613
    1C     H5'1    4   2.304   1.239   4.784  0.5963  0.3080 -0.2083
    1C     H5'2    5   2.316   1.145   4.633 -1.4749 -1.1807  0.6537
    1C      C4'    6   2.114   1.207   4.689  0.1654  0.2351  0.1637
    1C      H4'    7   2.097   1.111   4.737 -3.0747  0.5516 -0.2446
    1C      O4'    8   2.057   1.306   4.771 -0.4675  0.6053  0.0951
    1C      C1'    9   1.919   1.316   4.731 -0.0552 -0.0832  0.1801
    1C      H1'   10   1.873   1.222   4.761  0.7375  0.0693  1.9050
    1C       N1   11   1.855   1.446   4.776  0.9269  0.6243 -0.0654
    1C       C6   12   1.925   1.554   4.817  0.4507 -0.6870 -0.5943
    1C       H6   13   2.032   1.549   4.828  0.6059 -0.1018 -1.7912
    1C       C5   14   1.858   1.667   4.856  0.8226  0.6875  0.6745
    1C       H5   15   1.912   1.753   4.894  1.6602  0.1414  0.7495
    1C       C4   16   1.718   1.667   4.850  0.0637 -0.3679  0.0696
    1C       N4   17   1.648   1.767   4.885 -0.0895  0.2710  0.2569
    1C      H41   18   1.698   1.850   4.913 -1.9451  0.7389  2.4012
    1C      H42   19   1.550   1.765   4.863  0.3777 -2.0295 -1.8243
    1C       N3   20   1.648   1.564   4.812  0.0025  0.0628  0.2025
    1C       C2   21   1.714   1.448   4.776  0.1100 -0.0151  0.2787
    1C       O2   22   1.639   1.351   4.751 -0.0212 -0.1099  0.0447
    1C      C3'   23   2.043   1.214   4.548  0.3635 -0.3886 -0.0495
    1C      H3'   24   2.111   1.250   4.472  0.9426 -2.5046 -0.5434
    1C      C2'   25   1.934   1.319   4.575  0.1157 -0.7517 -0.0548
    1C     H2'1   26   1.973   1.416   4.547 -1.4609 -0.5961 -1.7583
    1C      O2'   27   1.810   1.299   4.511  0.5238 -0.1771  0.0527
    1C     HO'2   28   1.778   1.223   4.559 -0.6677 -0.4496 -1.1499
    1C      O3'   29   1.979   1.092   4.517 -0.0720 -0.3124  0.6653
    2G        P   30   2.058   0.971   4.447 -0.2454  0.0409 -0.5497
    2G      O1P   31   2.195   0.965   4.503 -0.1447  0.0658  0.6827
    2G      O2P   32   2.041   0.986   4.299  0.5048  0.1514 -0.3141
    2G      O5'   33   1.972   0.844   4.501 -0.3770  0.3292 -0.3069
    2G      C5'   34   1.830   0.840   4.487  0.0195  0.1838  0.1096
    2G     H5'1   35   1.795   0.840   4.384  0.7738  0.5558 -0.1528
    2G     H5'2   36   1.794   0.927   4.544 -1.3493 -1.0752  1.2157
    2G      C4'   37   1.758   0.734   4.568 -0.0762 -0.1802 -1.0647
    2G      H4'   38   1.650   0.745   4.555 -0.2620  0.3429  0.7566
    2G      O4'   39   1.792   0.606   4.527 -0.0621 -0.0556  0.2516
    2G      C1'   40   1.824   0.526   4.643  0.9258  0.6315  0.1409
    2G      H1'   41   1.773   0.431   4.630  1.1638  0.7048 -1.3695
    2G       N9   42   1.971   0.502   4.660  0.0758 -0.1235  0.0471
    2G       C8   43   2.071   0.597   4.677 -0.8512 -0.0029 -0.3323
    2G       H8   44   2.060   0.704   4.671  0.3240  0.2555  1.7360
    2G       N7   45   2.190   0.547   4.695  0.4705 -0.2869  0.3085
    2G       C5   46   2.171   0.410   4.679 -0.4415 -0.5929 -0.7671
    2G       C6   47   2.268   0.301   4.685  0.0547  0.1391  0.3921
    2G       O6   48   2.388   0.308   4.704  0.2302 -0.0375 -0.1476
    2G       N1   49   2.214   0.181   4.655  0.0706 -0.3343 -0.1986
    2G       H1   50   2.268   0.096   4.649 -0.8660 -0.7909 -2.8846
    2G       C2   51   2.082   0.168   4.619  0.2154  0.3960  0.4208
    2G       N2   52   2.057   0.036   4.606  0.3712  0.0181 -0.5096
    2G      H21   53   2.132  -0.025   4.634  2.5784  2.8301 -0.0091
    2G      H22   54   1.959   0.012   4.599 -0.2821  1.9681  1.4822
    2G       N3   55   1.989   0.258   4.627  0.2805  0.1702  0.0798
    2G       C4   56   2.038   0.381   4.655 -0.8263 -0.6060  0.2276
    2G      C3'   57   1.779   0.752   4.722  0.4829 -0.3483  0.1951
    2G      H3'   58   1.876   0.800   4.734  0.5179  0.3320 -2.5205
    2G      C2'   59   1.772   0.606   4.771 -0.1498  0.3869  0.7785
    2G     H2'1   60   1.840   0.597   4.856  0.2186 -0.3709  0.4173
    2G      O2'   61   1.642   0.558   4.795 -0.6492 -0.4091 -0.1231
    2G     HO'2   62   1.599   0.623   4.851 -0.4097 -0.3335 -0.0277
    2G      O3'   63   1.676   0.828   4.785  0.0746  0.1946  0.1010
    2G      H3T   64   1.685   0.920   4.760 -0.6194  0.2161 -0.0869
    5SOL     OW   65   1.364   3.791   0.671 -0.0995 -0.0264  0.2658
    5SOL    HW2   66   1.359   3.865   0.610 -1.5543  0.3057  0.7648
    5SOL    HW3   67   1.419   3.823   0.743  0.9229 -0.1315 -0.4593
    5SOL    MW4   68   1.371   3.805   0.673 -0.1565  0.0036  0.2360
    6SOL     OW   69   0.883   3.228   1.238  0.2585 -0.3360 -0.0561
    6SOL    HW2   70   0.804   3.183   1.209 -0.4635  0.4387  0.7046
    6SOL    HW3   71   0.876   3.316   1.202  0.8512 -0.3086 -0.1179
    6SOL    MW4   72   0.872   3.233   1.230  0.2415 -0.2298  0.0361
    7SOL     OW   73   1.796   0.638   0.735  0.0852  0.6307 -0.0190
    7SOL    HW2   74   1.848   0.647   0.656  1.7625 -0.5151  0.9203
    7SOL    HW3   75   1.824   0.555   0.773 -1.7080  0.4825  1.0516
    7SOL    MW4   76   1.806   0.629   0.730  0.0699  0.4600  0.2463
    8SOL     OW   77   2.669   4.313   1.119 -0.2367  0.3507  0.3372
    8SOL    HW2   78   2.588   4.340   1.163 -0.6483 -0.2890 -0.0268
    8SOL    HW3   79   2.645   4.302   1.027 -0.3141 -2.1920  0.6273
    8SOL    MW4   80   2.655   4.316   1.113 -0.3011 -0.0696  0.3275
    9SOL     OW   81   1.362   4.262   1.099 -0.1363 -0.1076 -0.5563
    9SOL    HW2   82   1.357   4.292   1.008 -0.1029  1.9393  0.0915
    9SOL    HW3   83   1.288   4.304   1.142 -0.8011 -1.9584  0.1246
    9SOL    MW4   84   1.352   4.272   1.093 -0.2196 -0.0820 -0.3811
   10SOL     OW   85   1.450   1.854   0.482  0.2150 -0.0599 -0.1262
   10SOL    HW2   86   1.505   1.825   0.409 -0.4030  0.7653 -0.9212
   10SOL    HW3   87   1.452   1.949   0.478  2.0969  0.0733  2.3862
   10SOL    MW4   88   1.458   1.863   0.472  0.3817  0.0665  0.1004
   11SOL     OW   89   2.622   1.213   0.882  0.1577  0.8102 -0.8108
   11SOL    HW2   90   2.642   1.119   0.879  0.0023  0.7445  0.0604
   11SOL    HW3   91   2.527   1.217   0.887  0.0675  1.0656 -2.6294
   11SOL    MW4   92   2.612   1.201   0.883  0.1254  0.8352 -0.9358
   12SOL     OW   93   0.254   0.478   1.246 -0.0161  0.7148 -0.6232
   12SOL    HW2   94   0.246   0.475   1.342  0.3170  0.2776 -0.6106
   12SOL    HW3   95   0.265   0.571   1.226  2.4024  0.5807 -0.0462
   12SOL    MW4   96   0.254   0.490   1.256  0.3469  0.6394 -0.5454
   13SOL     OW   97   1.598   3.891   1.146  0.1717 -0.0010  0.5332
   13SOL    HW2   98   1.677   3.926   1.187  1.2184  0.0861 -1.5128
   13SOL    HW3   99   1.530   3.957   1.163  0.6773  0.2196  1.7453
   13SOL    MW4  100   1.599   3.904   1.154  0.3765  0.0396  0.4233
   14SOL     OW  101   0.009   1.647   1.504 -0.3041  0.1230  0.4593
   14SOL    HW2  102   0.007   1.732   1.549 -3.0847  0.8809 -0.9745
   14SOL    HW3  103   0.012   1.669   1.411  0.8757 -1.3890  0.1212
   14SOL    MW4  104   0.009   1.661   1.498 -0.5153  0.0235  0.2255
   15SOL     OW  105   0.675   1.791   0.762  0.1609  0.0026 -0.1921
   15SOL    HW2  106   0.595   1.827   0.800  0.4182  0.8609 -0.4539
   15SOL    HW3  107   0.744   1.852   0.788  0.8779 -1.1996  0.7749
   15SOL    MW4  108   0.673   1.804   0.770  0.2894 -0.0428 -0.0990
   16SOL     OW  109   2.185   2.980   0.482  0.4807  0.1425 -0.4948
   16SOL    HW2  110   2.142   2.898   0.459 -0.0093  0.1489  0.3768
   16SOL    HW3  111   2.114   3.038   0.508  0.9944  0.1759  0.8758
   16SOL    MW4  112   2.170   2.977   0.482  0.4838  0.1478 -0.1990
   17SOL     OW  113   0.368   0.195   0.359  0.1902 -0.1584  0.0393
   17SOL    HW2  114   0.279   0.185   0.393  0.4542  0.3924  0.9150
   17SOL    HW3  115   0.412   0.113   0.380  0.1472 -0.0908  0.3846
   17SOL    MW4  116   0.362   0.183   0.366  0.2194 -0.0768  0.2005
   18SOL     OW  117   3.756   1.236   0.656 -0.1299  0.0298 -0.6812
   18SOL    HW2  118   3.790   1.302   0.717 -0.2612 -1.2430  0.7993
   18SOL    HW3  119   3.829   1.216   0.599  0.5275 -0.0231  0.1673
   18SOL    MW4  120   3.770   1.242   0.657 -0.0606 -0.1451 -0.3740
   19SOL     OW  121   2.648   1.926   0.795  0.0518  0.5814  0.2839
   19SOL    HW2  122   2.569   1.890   0.753  0.5537 -0.2928  0.0872
   19SOL    HW3  123   2.645   2.019   0.774  0.0820  0.2263 -1.3835
   19SOL    MW4  124   2.637   1.933   0.786  0.1223  0.4193  0.0379
   20SOL     OW  125   0.246   0.252   0.716  0.6082  0.1969 -0.1866
   20SOL    HW2  126   0.245   0.168   0.761 -0.4672  0.2258 -0.1571
   20SOL    HW3  127   0.189   0.239   0.640  0.1172  1.0207  0.0400
   20SOL    MW4  128   0.239   0.239   0.712  0.4015  0.3095 -0.1528
   21SOL     OW  129   0.007   3.766   0.778  0.1567  0.0368  0.2568
   21SOL    HW2  130  -0.072   3.818   0.795  0.1901  0.2171 -0.1173
   21SOL    HW3  131   0.079   3.822   0.806  0.1159 -0.4244  1.2958
   21SOL    MW4  132   0.006   3.781   0.784  0.1557  0.0000  0.3445
   22SOL     OW  133   3.538   3.346   0.529  0.0980 -0.0617 -0.3076
   22SOL    HW2  134   3.459   3.335   0.583  0.1849  0.4255 -0.0802
   22SOL    HW3  135   3.515   3.416   0.468  0.3856  0.1327 -0.1894
   22SOL    MW4  136   3.524   3.354   0.528  0.1476  0.0281 -0.2620
   23SOL     OW  137   3.386   3.639   1.189  0.2938 -0.0322 -0.6211
   23SOL    HW2  138   3.368   3.649   1.282 -1.4967 -0.7147 -0.8751
   23SOL    HW3  139   3.465   3.585   1.185  1.0796  1.0003  0.5021
   23SOL    MW4  140   3.394   3.633   1.201  0.1614  0.0141 -0.5064
   24SOL     OW  141   2.036   3.744   0.425 -0.0327  0.2483  0.3584
   24SOL    HW2  142   1.981   3.821   0.439  0.2394  0.6489 -0.6693
   24SOL    HW3  143   1.998   3.676   0.480 -2.5300  0.0495 -1.5066
   24SOL    MW4  144   2.024   3.746   0.434 -0.3264  0.2751 -0.0232
   25SOL     OW  145   1.803   4.253   0.858  0.6105 -0.4361 -0.3964
   25SOL    HW2  146   1.797   4.349   0.855  1.4244 -0.4276 -2.3668
   25SOL    HW3  147   1.895   4.235   0.875  0.5926 -0.8776 -0.7556
   25SOL    MW4  148   1.814   4.263   0.860  0.7156 -0.4935 -0.7038
   26SOL     OW  149   0.207   2.845   1.233 -0.6024  0.0672 -0.2939
   26SOL    HW2  150   0.208   2.849   1.329 -1.2511  1.6686 -0.3254
   26SOL    HW3  151   0.240   2.931   1.206 -1.2740 -0.0483 -1.4888
   26SOL    MW4  152   0.211   2.857   1.242 -0.7766  0.2632 -0.4556
   27SOL     OW  153   2.736   0.811   0.412  0.2252 -0.3557  0.2305
   27SOL    HW2  154   2.708   0.722   0.429  3.3485 -1.0778  1.9116
   27SOL    HW3  155   2.723   0.857   0.495  0.5650  0.2129 -0.0249
   27SOL    MW4  156   2.730   0.806   0.425  0.6819 -0.3759  0.4185
   28SOL     OW  157   1.335   2.483   1.148  0.0189 -0.0879  0.3689
   28SOL    HW2  158   1.259   2.426   1.141 -0.1557  0.0148  1.3190
   28SOL    HW3  159   1.357   2.482   1.241  0.3392  0.9728  0.3116
   28SOL    MW4  160   1.328   2.475   1.159  0.0383  0.0656  0.4869
   29SOL     OW  161   2.673   3.513   1.132  0.0688  0.5039  0.3129
   29SOL    HW2  162   2.682   3.422   1.161 -1.8936  0.1248 -0.1959
   29SOL    HW3  163   2.756   3.554   1.156  0.7786 -1.2877  1.0210
   29SOL    MW4  164   2.685   3.506   1.139 -0.0963  0.2174  0.3392
   30SOL     OW  165   0.690   1.262   1.204 -0.0778  0.0797 -0.9304
   30SOL    HW2  166   0.668   1.351   1.175 -0.7891  0.6267  1.2130
   30SOL    HW3  167   0.622   1.206   1.166 -0.4824  0.6540 -1.0598
   30SOL    MW4  168   0.678   1.267   1.195 -0.2251  0.2277 -0.6648
   31SOL     OW  169   3.502   3.886   0.490  0.5205  0.4203 -0.5244
   31SOL    HW2  170   3.514   3.980   0.474  1.8320  0.2254 -0.7096
   31SOL    HW3  171   3.559   3.866   0.564 -1.8336  0.3078  1.3294
   31SOL    MW4  172   3.511   3.896   0.498  0.3829  0.3796 -0.3043
   32SOL     OW  173   3.620   1.868   1.148  0.0335  0.0305  0.4591
   32SOL    HW2  174   3.628   1.864   1.052  1.7629 -0.5678  0.6114
   32SOL    HW3  175   3.608   1.777   1.175  0.4589  0.0968  0.8776
   32SOL    MW4  176   3.619   1.856   1.139  0.3176 -0.0398  0.5344
   33SOL     OW  177   0.276   0.766   0.911 -0.5582 -0.4087  0.0111
   33SOL    HW2  178   0.198   0.721   0.881 -0.4903 -0.2124 -0.4498
   33SOL    HW3  179   0.348   0.724   0.864 -0.4042 -0.4274  0.2571
   33SOL    MW4  180   0.275   0.754   0.901 -0.5289 -0.3852 -0.0172
   34SOL     OW  181   2.723   3.537   0.848  0.4053 -0.3039 -0.1992
   34SOL    HW2  182   2.710   3.536   0.942  1.0706 -0.4332 -0.1045
   34SOL    HW3  183   2.801   3.482   0.834  0.1594 -0.4968 -0.8413
   34SOL    MW4  184   2.731   3.529   0.858  0.4604 -0.3464 -0.2714
   35SOL     OW  185   1.031   3.129   0.864  0.4270  0.1858  0.1360
   35SOL    HW2  186   1.056   3.120   0.956  3.0054  0.6812 -0.4576
   35SOL    HW3  187   1.022   3.223   0.851 -0.1752  0.1007 -0.0593
   35SOL    MW4  188   1.033   3.140   0.875  0.6877  0.2398  0.0319
   36SOL     OW  189   2.715   2.432   1.199 -0.1172  0.4983  0.1732
   36SOL    HW2  190   2.802   2.412   1.164  0.0366 -0.2940  1.0024
   36SOL    HW3  191   2.723   2.420   1.293 -1.2338  0.0404  0.2192
   36SOL    MW4  192   2.728   2.428   1.207 -0.2444  0.3333  0.2887
   37SOL     OW  193   1.782   3.765   0.751 -0.3313 -0.1566  0.0684
   37SOL    HW2  194   1.857   3.804   0.796 -0.4549  1.8302 -1.3918
   37SOL    HW3  195   1.706   3.807   0.790 -0.5441 -0.0343 -0.4748
   37SOL    MW4  196   1.782   3.776   0.762 -0.3757  0.1216 -0.1959
   38SOL     OW  197   0.682   0.450   1.227 -0.1385  0.1352 -0.1154
   38SOL    HW2  198   0.674   0.546   1.227  0.0535  0.1535 -0.5087
   38SOL    HW3  199   0.766   0.433   1.185 -0.5345 -0.2293 -0.7764
   38SOL    MW4  200   0.692   0.461   1.221 -0.1655  0.0895 -0.2545
   39SOL     OW  201   2.222   0.647   0.428 -0.2849 -0.3455  0.0221
   39SOL    HW2  202   2.255   0.586   0.361  0.8190  0.1043  0.1640
   39SOL    HW3  203   2.287   0.716   0.432 -0.3773 -0.3443  1.5443
   39SOL    MW4  204   2.235   0.648   0.419 -0.1516 -0.2860  0.2417
   40SOL     OW  205   2.461   3.641   1.230 -0.0573 -0.3296 -0.2083
   40SOL    HW2  206   2.542   3.594   1.211  1.2188  1.6748  0.0824
   40SOL    HW3  207   2.465   3.658   1.324 -0.8201 -0.2429 -0.1907
   40SOL    MW4  208   2.472   3.637   1.240  0.0103 -0.0536 -0.1676
   41SOL     OW  209   2.625   4.204   0.850 -0.3010  0.1405  0.2013
   41SOL    HW2  210   2.561   4.133   0.847 -1.2767  1.0096 -0.1522
   41SOL    HW3  211   2.598   4.263   0.779  1.2736  0.2115 -0.3440
   41SOL    MW4  212   2.613   4.203   0.840 -0.2222  0.2642  0.0827
   42SOL     OW  213   2.807   4.408   0.535 -0.1278 -0.3522  0.1516
   42SOL    HW2  214   2.841   4.335   0.586  2.6536  0.6166 -0.2059
   42SOL    HW3  215   2.784   4.475   0.599 -0.7160 -0.7340  0.3483
   42SOL    MW4  216   2.808   4.408   0.550  0.1619 -0.2747  0.1304
   43SOL     OW  217   2.377   0.603   0.668  0.0075 -0.0180  0.2694
   43SOL    HW2  218   2.355   0.655   0.745  0.1002  0.2537  0.1151
   43SOL    HW3  219   2.315   0.631   0.601 -1.1615 -1.4509  0.7265
   43SOL    MW4  220   2.366   0.614   0.669 -0.1347 -0.1712  0.3093
   44SOL     OW  221   1.524   0.024   0.885  0.0943  0.0190 -0.5337
   44SOL    HW2  222   1.544   0.109   0.845 -1.4782  1.4903  1.6802
   44SOL    HW3  223   1.451  -0.010   0.833 -0.6552  1.0015 -0.1352
   44SOL    MW4  224   1.517   0.031   0.873 -0.2121  0.3427 -0.1890
   45SOL     OW  225   2.516   3.114   0.824 -0.2077  0.7187  0.1530
   45SOL    HW2  226   2.521   3.099   0.919 -0.8127  0.9149  0.2148
   45SOL    HW3  227   2.438   3.065   0.796 -0.1330  0.8091 -0.2160
   45SOL    MW4  228   2.506   3.105   0.833 -0.2778  0.7565  0.1124
   46SOL     OW  229   2.215   1.413   0.735 -0.1424  0.0691  0.1304
   46SOL    HW2  230   2.296   1.463   0.741  0.4413 -0.8571  0.1713
   46SOL    HW3  231   2.156   1.455   0.798  1.1264 -0.7402  1.9016
   46SOL    MW4  232   2.218   1.425   0.744  0.1020 -0.1600  0.3695
   47SOL     OW  233   2.227   2.730   1.108  0.0509 -0.2755  0.4949
   47SOL    HW2  234   2.235   2.649   1.158  0.5690 -1.4936 -1.5046
   47SOL    HW3  235   2.303   2.782   1.136  0.6309 -1.1589  0.5990
   47SOL    MW4  236   2.238   2.726   1.119  0.1957 -0.5527  0.2450
   48SOL     OW  237   2.214   4.252   1.119 -0.5896  0.2685  0.5096
   48SOL    HW2  238   2.219   4.171   1.169 -1.1895  0.2460  0.5322
   48SOL    HW3  239   2.128   4.288   1.140 -0.7566  0.3653 -0.3425
   48SOL    MW4  240   2.203   4.246   1.129 -0.6909  0.2780  0.4001
   49SOL     OW  241   2.940   1.293   1.178  0.0837  0.8350  0.2723
   49SOL    HW2  242   2.956   1.273   1.270  0.3833  2.8083  0.6649
   49SOL    HW3  243   3.017   1.259   1.132  0.3277  0.5993  0.8550
   49SOL    MW4  244   2.952   1.286   1.184  0.1554  1.0643  0.4010
   50SOL     OW  245   2.077   0.269   0.814 -0.4003  0.0329  0.1910
   50SOL    HW2  246   2.162   0.302   0.844 -0.0933  0.5813 -1.2328
   50SOL    HW3  247   2.093   0.242   0.724 -1.7394  0.1140 -0.0756
   50SOL    MW4  248   2.090   0.270   0.806 -0.5364  0.1160 -0.0320
   51SOL     OW  249   2.869   4.184   0.712 -0.4099 -0.0300 -0.3196
   51SOL    HW2  250   2.885   4.091   0.694  0.1714 -0.2351  1.1421
   51SOL    HW3  251   2.794   4.184   0.772  0.3278  0.3640  0.6233
   51SOL    MW4  252   2.861   4.172   0.718 -0.2360 -0.0052 -0.0024
   52SOL     OW  253   0.923   2.018   0.495 -0.0085 -0.1948 -0.0224
   52SOL    HW2  254   0.951   2.101   0.456  0.1765  0.3294  1.2115
   52SOL    HW3  255   0.958   1.951   0.435 -0.6458  0.6154 -1.3287
   52SOL    MW4  256   0.931   2.020   0.482 -0.0682 -0.0188 -0.0319
   53SOL     OW  257   1.584   0.795   1.128 -0.2171  0.5015  0.3252
   53SOL    HW2  258   1.592   0.704   1.155  0.2863  0.4875  0.1379
   53SOL    HW3  259   1.587   0.792   1.032  1.7200  0.8841  0.3600
   53SOL    MW4  260   1.585   0.783   1.119  0.1049  0.5501  0.3051
   54SOL     OW  261   2.862   0.158   0.523  0.2736  0.1179  0.0813
   54SOL    HW2  262   2.773   0.181   0.496  0.0763 -0.4253  0.2577
   54SOL    HW3  263   2.851   0.123   0.612  0.8109  1.1484  0.5494
   54SOL    MW4  264   2.849   0.156   0.531  0.3185  0.1822  0.1664
   55SOL     OW  265   3.886   0.373   0.395  0.2127 -0.0427  0.1908
   55SOL    HW2  266   3.810   0.393   0.449 -1.0232 -0.6466 -1.2880
   55SOL    HW3  267   3.879   0.279   0.377  1.3784 -0.1325  0.1541
   55SOL    MW4  268   3.875   0.363   0.400  0.2034 -0.1342 -0.0092
   56SOL     OW  269   0.239   3.930   1.137 -0.4640 -0.1262 -0.0572
   56SOL    HW2  270   0.247   3.840   1.171 -0.9066  0.2404  1.0431
   56SOL    HW3  271   0.145   3.949   1.142 -0.5559 -0.1103 -1.6395
   56SOL    MW4  272   0.228   3.920   1.142 -0.5345 -0.0758 -0.1206
   57SOL     OW  273   1.996   2.045   1.156  0.3196  0.7442 -0.1538
   57SOL    HW2  274   2.084   2.013   1.137 -0.5067 -2.6239  1.2449
   57SOL    HW3  275   1.992   2.049   1.252 -1.4781 -0.6652 -0.1285
   57SOL    MW4  276   2.007   2.041   1.166 -0.0262  0.1140  0.0340
   58SOL     OW  277   2.956   0.620   0.453  0.0950 -0.3763 -0.0894
   58SOL    HW2  278   2.906   0.685   0.402 -0.6116 -1.4271 -0.7566
   58SOL    HW3  279   3.043   0.658   0.461  0.0194  0.1360 -1.4994
   58SOL    MW4  280   2.961   0.634   0.447 -0.0081 -0.4474 -0.3634
   59SOL     OW  281   1.163   2.585   0.809 -0.0677  0.2718 -0.6555
   59SOL    HW2  282   1.239   2.643   0.801  0.5810 -0.4758 -0.0045
   59SOL    HW3  283   1.095   2.640   0.848  1.0770  0.1708  1.6103
   59SOL    MW4  284   1.164   2.600   0.813  0.1688  0.1600 -0.2707
   60SOL     OW  285   1.905   3.575   0.591  0.0118  0.0208  0.0866
   60SOL    HW2  286   1.968   3.529   0.646 -0.2593 -0.2977  0.1322
   60SOL    HW3  287   1.857   3.632   0.652 -0.8085 -0.8971  0.3103
   60SOL    MW4  288   1.907   3.577   0.606 -0.1322 -0.1421  0.1221
   61SOL     OW  289   3.479   0.866   0.563 -0.2618  0.1453  0.3928
   61SOL    HW2  290   3.434   0.944   0.530  1.6321  0.7093 -0.9047
   61SOL    HW3  291   3.483   0.880   0.658 -0.9472  1.0954  0.2869
   61SOL    MW4  292   3.474   0.878   0.571 -0.1023  0.3450  0.2076
   62SOL     OW  293   4.022   2.704   1.119 -0.3628 -0.2904 -0.3545
   62SOL    HW2  294   4.107   2.733   1.153  0.5013 -1.0972 -1.7711
   62SOL    HW3  295   4.014   2.614   1.149  0.7212 -1.2412 -2.7700
   62SOL    MW4  296   4.032   2.696   1.128 -0.1054 -0.5221 -0.8602
   63SOL     OW  297   2.689   0.915   1.515  0.4215  0.4953 -0.0858
   63SOL    HW2  298   2.678   0.889   1.424 -1.3598  0.4592  0.1287
   63SOL    HW3  299   2.610   0.884   1.559  1.4381  0.1569  1.5600
   63SOL    MW4  300   2.678   0.907   1.509  0.3207  0.4458  0.1596
   64SOL     OW  301   2.256   1.180   1.135 -0.1858 -0.3913 -0.2770
   64SOL    HW2  302   2.183   1.204   1.192  0.6021  1.5345 -0.0373
   64SOL    HW3  303   2.268   1.087   1.150 -0.6601 -0.1337  1.9766
   64SOL    MW4  304   2.248   1.171   1.145 -0.1445 -0.1032  0.0520
   65SOL     OW  305   2.742   3.273   0.420  0.6500 -0.2425  0.3691
   65SOL    HW2  306   2.647   3.278   0.425  0.6711  0.0979  0.4306
   65SOL    HW3  307   2.762   3.290   0.328  0.6082 -1.0565  0.1993
   65SOL    MW4  308   2.732   3.276   0.409  0.6475 -0.3049  0.3548
   66SOL     OW  309   0.171   4.181   0.454 -0.2116  0.0377 -0.1562
   66SOL    HW2  310   0.202   4.167   0.543  0.8032  0.9710 -0.3580
   66SOL    HW3  311   0.195   4.271   0.434  1.3729 -0.7825 -2.0871
   66SOL    MW4  312   0.178   4.191   0.463  0.1313  0.0529 -0.4376
   67SOL     OW  313   4.236   3.882   1.097 -0.3659  0.2718  0.0564
   67SOL    HW2  314   4.180   3.945   1.142 -0.7071 -0.7521  1.0960
   67SOL    HW3  315   4.226   3.801   1.147 -0.9469 -0.9832 -2.0327
   67SOL    MW4  316   4.228   3.880   1.110 -0.4873 -0.0291 -0.0820
   68SOL     OW  317   1.564   2.595   0.751 -0.0638 -0.4314  0.2262
   68SOL    HW2  318   1.557   2.501   0.770  0.5860 -0.3886  0.7209
   68SOL    HW3  319   1.485   2.633   0.789  0.8209 -0.4640  2.1601
   68SOL    MW4  320   1.553   2.587   0.759  0.1386 -0.4301  0.5466
   69SOL     OW  321   4.039   2.709   0.840  0.1469  0.0911  0.1171
   69SOL    HW2  322   4.039   2.713   0.936 -0.8572 -0.1064  0.1259
   69SOL    HW3  323   4.013   2.797   0.813  2.4807  0.7914 -0.0217
   69SOL    MW4  324   4.036   2.721   0.849  0.3223  0.1576  0.1000
   70SOL     OW  325   1.262   2.230   0.294  0.1689  0.3832 -0.0413
   70SOL    HW2  326   1.268   2.325   0.307 -0.2425  0.3620  0.3480
   70SOL    HW3  327   1.169   2.210   0.308  0.2146 -0.0480 -0.3279
   70SOL    MW4  328   1.250   2.240   0.298  0.1205  0.3235 -0.0278
   71SOL     OW  329   1.755   1.947   0.841 -0.5589  0.2943  0.9160
   71SOL    HW2  330   1.835   1.898   0.821  0.2774  1.8142  0.5103
   71SOL    HW3  331   1.754   1.950   0.937  0.2326  0.8622  0.9113
   71SOL    MW4  332   1.766   1.941   0.851 -0.3442  0.5697  0.8619
   72SOL     OW  333   4.235   2.550   0.749 -0.4211 -0.2077  0.6591
   72SOL    HW2  334   4.208   2.539   0.657  0.0866  0.7627  0.3893
   72SOL    HW3  335   4.167   2.606   0.787 -1.0145 -1.1914  1.0707
   72SOL    MW4  336   4.222   2.556   0.742 -0.4320 -0.2096  0.6778
   73SOL     OW  337   1.895   4.194   0.482  0.1791 -0.4893 -0.0592
   73SOL    HW2  338   1.987   4.208   0.503  0.0666 -0.7069  0.5927
   73SOL    HW3  339   1.877   4.103   0.509  0.2897 -1.1041 -2.0361
   73SOL    MW4  340   1.905   4.184   0.489  0.1788 -0.5999 -0.2340
   74SOL     OW  341   1.557   2.106   1.225 -0.5816 -0.1336  0.6004
   74SOL    HW2  342   1.541   2.065   1.310  0.9360 -1.2411  0.3807
   74SOL    HW3  343   1.624   2.051   1.184 -2.0085 -0.2053 -1.7413
   74SOL    MW4  344   1.564   2.093   1.231 -0.5696 -0.2892  0.2624
   75SOL     OW  345   4.267   1.525   1.118 -0.4597 -0.2314  0.5573
   75SOL    HW2  346   4.185   1.566   1.146 -0.0608  0.9451  0.0185
   75SOL    HW3  347   4.266   1.439   1.160 -1.9601 -0.2182  0.5750
   75SOL    MW4  348   4.256   1.519   1.127 -0.6051 -0.0745  0.4885
   76SOL     OW  349   1.373   3.484   1.092 -0.0743  0.0596 -0.2526
   76SOL    HW2  350   1.359   3.400   1.135 -0.2399 -1.3689 -2.9685
   76SOL    HW3  351   1.446   3.523   1.139  0.3521 -1.8484  0.7340
   76SOL    MW4  352   1.381   3.478   1.104 -0.0399 -0.3803 -0.4808
   77SOL     OW  353   2.526   0.012   0.818 -0.3265  0.2692  0.2179
   77SOL    HW2  354   2.481  -0.000   0.902 -0.5937 -0.5085 -0.0388
   77SOL    HW3  355   2.549   0.105   0.817 -1.2738  0.5175  0.6795
   77SOL    MW4  356   2.523   0.023   0.829 -0.4871  0.1998  0.2450
   78SOL     OW  357   0.465   2.851   0.498  0.5266  0.2517 -0.4757
   78SOL    HW2  358   0.555   2.885   0.497  0.6157  0.0436  0.4146
   78SOL    HW3  359   0.476   2.758   0.516  0.2009 -0.0215 -1.6200
   78SOL    MW4  360   0.478   2.843   0.500  0.4953  0.1884 -0.5092
   79SOL     OW  361   2.577   0.275   0.488  0.5756 -0.4799 -0.6382
   79SOL    HW2  362   2.487   0.245   0.477  0.3598 -0.7566  1.7285
   79SOL    HW3  363   2.571   0.371   0.483  0.4069 -0.5444 -2.0497
   79SOL    MW4  364   2.565   0.284   0.486  0.5248 -0.5249 -0.5122
   80SOL     OW  365   0.630   2.405   0.856 -0.1941  0.0940 -0.4428
   80SOL    HW2  366   0.640   2.396   0.950  0.1606  0.0380 -0.4854
   80SOL    HW3  367   0.591   2.322   0.828  0.1300 -0.0723 -0.4063
   80SOL    MW4  368   0.626   2.393   0.864 -0.1046  0.0648 -0.4436
   81SOL     OW  369   0.065   0.599   0.821 -0.0268 -0.4053  0.0611
   81SOL    HW2  370   0.047   0.507   0.842 -0.3953 -0.1913  0.6838
   81SOL    HW3  371   0.065   0.601   0.725  0.2744 -1.1131  0.0406
   81SOL    MW4  372   0.062   0.587   0.811 -0.0357 -0.4703  0.1406
   82SOL     OW  373   3.344   1.118   0.525  0.4071  0.0602 -0.2734
   82SOL    HW2  374   3.283   1.124   0.451  0.3691 -0.0227 -0.2475
   82SOL    HW3  375   3.288   1.105   0.602  0.3582  1.4233 -0.0657
   82SOL    MW4  376   3.329   1.117   0.525  0.3958  0.2291 -0.2426
   83SOL     OW  377   1.385   2.783   0.126  0.6756  0.3301 -0.6546
   83SOL    HW2  378   1.357   2.799   0.035  0.9337  1.1327 -0.5961
   83SOL    HW3  379   1.304   2.785   0.177  0.5374 -0.0489 -0.8619
   83SOL    MW4  380   1.370   2.786   0.120  0.6915  0.3858 -0.6742
   84SOL     OW  381   2.333   0.433   0.259 -0.0616 -0.6132  0.1068
   84SOL    HW2  382   2.419   0.414   0.221  0.3759 -0.3018  0.9389
   84SOL    HW3  383   2.306   0.351   0.299  0.1001 -0.5624  0.3245
   84SOL    MW4  384   2.341   0.420   0.259  0.0176 -0.5654  0.2453
   85SOL     OW  385   1.095   2.311   1.133 -0.1484 -0.0363 -0.0085
   85SOL    HW2  386   1.080   2.224   1.172  0.6955 -1.0771 -1.9407
   85SOL    HW3  387   1.075   2.299   1.040 -0.2480  1.9132 -0.2457
   85SOL    MW4  388   1.090   2.298   1.126 -0.0501  0.0837 -0.2948
   86SOL     OW  389   2.339   0.390   0.835  0.2857 -0.0821  0.0447
   86SOL    HW2  390   2.422   0.344   0.818  1.0457  1.3779 -0.3045
   86SOL    HW3  391   2.338   0.461   0.771 -0.5675  0.7640  0.9845
   86SOL    MW4  392   2.350   0.394   0.824  0.2735  0.2221  0.1227
   87SOL     OW  393   2.015   0.002   0.872  0.2904 -0.1513  0.2914
   87SOL    HW2  394   2.008  -0.011   0.966  0.7405 -0.4999  0.2792
   87SOL    HW3  395   2.038   0.094   0.862 -1.9253  0.4560  0.4228
   87SOL    MW4  396   2.017   0.013   0.883  0.0575 -0.1172  0.3071
   88SOL     OW  397   0.463   2.192   0.736  0.0125  0.0698  0.0229
   88SOL    HW2  398   0.398   2.261   0.720 -1.3301 -1.1943 -0.0893
   88SOL    HW3  399   0.492   2.166   0.648 -0.6296 -0.5786  0.0013
   88SOL    MW4  400   0.458   2.197   0.722 -0.2493 -0.1824  0.0052
   89SOL     OW  401   1.125   1.281   1.218  0.3729 -0.0604 -0.2064
   89SOL    HW2  402   1.103   1.283   1.311  0.7322  1.1400 -0.1345
   89SOL    HW3  403   1.052   1.235   1.177  0.5564 -1.2341  0.7462
   89SOL    MW4  404   1.112   1.275   1.225  0.4445 -0.0567 -0.0712
   90SOL     OW  405   0.881   2.455   1.215 -0.0905 -0.2184  0.1370
   90SOL    HW2  406   0.879   2.444   1.310  1.1362  0.5192  0.2660
   90SOL    HW3  407   0.958   2.405   1.187  0.8630  1.4028 -0.1907
   90SOL    MW4  408   0.891   2.447   1.224  0.1971  0.0930  0.1107
   91SOL     OW  409   1.896   0.388   0.482 -0.2620  0.1307 -0.1722
   91SOL    HW2  410   1.803   0.372   0.496 -0.0756  1.3972  2.9259
   91SOL    HW3  411   1.902   0.482   0.466  0.4532 -0.0128 -0.7984
   91SOL    MW4  412   1.885   0.398   0.482 -0.1432  0.2789  0.1539
   92SOL     OW  413   3.805   4.390   1.191  0.2313 -0.0254  0.5261
   92SOL    HW2  414   3.796   4.399   1.286 -1.8036 -1.0044  0.4580
   92SOL    HW3  415   3.782   4.476   1.156  0.7221  0.2604  0.9056
   92SOL    MW4  416   3.801   4.403   1.199  0.0274 -0.1168  0.5671
   93SOL     OW  417   3.309   1.424   0.788  0.0903  0.1645 -0.7775
   93SOL    HW2  418   3.375   1.378   0.736 -0.6975 -0.7228 -1.0103
   93SOL    HW3  419   3.226   1.385   0.761 -0.5893  1.6762 -0.9096
   93SOL    MW4  420   3.307   1.413   0.778 -0.1035  0.2468 -0.8256
   94SOL     OW  421   1.830   3.929   0.508  0.2747  0.0860  0.1965
   94SOL    HW2  422   1.765   3.908   0.442  0.1114  1.1325  0.0204
   94SOL    HW3  423   1.798   3.887   0.588  0.2754 -0.8470 -0.2790
   94SOL    MW4  424   1.817   3.921   0.510  0.2533  0.1011  0.1104
   95SOL     OW  425   2.080   3.526   0.260 -0.1610 -0.7329  0.0362
   95SOL    HW2  426   2.077   3.614   0.299 -0.4631 -0.1817 -1.1816
   95SOL    HW3  427   1.990   3.495   0.266 -0.5680  0.0254 -1.6560
   95SOL    MW4  428   2.067   3.534   0.266 -0.2544 -0.5600 -0.3477
   96SOL     OW  429   3.810   2.349   0.881 -0.4471 -0.2028  0.7659
   96SOL    HW2  430   3.752   2.283   0.843 -0.7363  0.4726  0.0429
   96SOL    HW3  431   3.816   2.325   0.973  1.2867 -2.6389  0.0817
   96SOL    MW4  432   3.803   2.337   0.888 -0.2563 -0.4349  0.5802
   97SOL     OW  433   3.601   2.028   0.524  0.4886 -0.0401  0.4235
   97SOL    HW2  434   3.536   2.029   0.453 -0.6321 -0.7384  1.4281
   97SOL    HW3  435   3.662   2.098   0.501 -0.3319  0.3011 -0.7908
   97SOL    MW4  436   3.600   2.037   0.511  0.2325 -0.0875  0.3959
   98SOL     OW  437   4.488   4.241   1.095  0.3951  0.0312 -0.0729
   98SOL    HW2  438   4.481   4.155   1.135  0.6947 -0.1184 -0.3401
   98SOL    HW3  439   4.569   4.277   1.130  1.4644 -0.7190 -1.7244
   98SOL    MW4  440   4.498   4.235   1.105  0.5756 -0.0877 -0.3260
   99SOL     OW  441   0.638   0.727   1.163 -0.0340 -0.3369  0.3574
   99SOL    HW2  442   0.569   0.790   1.184  0.2576 -0.0978  0.6116
   99SOL    HW3  443   0.716   0.764   1.203  0.3680 -0.2972 -0.4685
   99SOL    MW4  444   0.639   0.740   1.171  0.0576 -0.3001  0.2819
  100SOL     OW  445   4.190   2.470   0.467  0.1761 -0.1728  0.1485
  100SOL    HW2  446   4.283   2.460   0.448 -0.0221  0.4076 -1.1932
  100SOL    HW3  447   4.155   2.381   0.461  0.4833 -0.2690 -0.2556
  100SOL    MW4  448   4.197   2.457   0.464  0.1907 -0.1090 -0.0818
  101SOL     OW  449   3.844   4.156   0.797  0.1895  0.3783 -0.1932
  101SOL    HW2  450   3.835   4.065   0.823  0.2177  0.7278  1.0922
  101SOL    HW3  451   3.771   4.201   0.840  0.9466  1.1774  0.2905
  101SOL    MW4  452   3.833   4.150   0.806  0.2933  0.5298  0.0403
  102SOL     OW  453   2.486   0.552   1.194  0.4470  0.2434  0.1878
  102SOL    HW2  454   2.552   0.487   1.170 -0.9276 -1.1714  0.1665
  102SOL    HW3  455   2.489   0.553   1.290  1.5639  1.3253  0.1592
  102SOL    MW4  456   2.495   0.544   1.204  0.4129  0.1994  0.1812
  103SOL     OW  457   3.289   3.322   0.247  0.2847 -0.4951  0.5156
  103SOL    HW2  458   3.240   3.346   0.169 -0.2618 -0.2095  0.9400
  103SOL    HW3  459   3.322   3.405   0.282  1.2369 -0.7067  0.1253
  103SOL    MW4  460   3.287   3.336   0.241  0.3383 -0.4852  0.5201
  104SOL     OW  461   1.419   4.001   0.472 -0.4416  0.6088 -0.7588
  104SOL    HW2  462   1.466   4.084   0.471 -0.9001  0.9116  0.8106
  104SOL    HW3  463   1.474   3.942   0.421  1.3186  1.1197  0.4865
  104SOL    MW4  464   1.432   4.004   0.465 -0.2698  0.7162 -0.3875
  105SOL     OW  465   1.798   2.935   0.466 -0.5549  0.2943  0.4472
  105SOL    HW2  466   1.717   2.911   0.420 -0.0488 -2.0126  0.7495
  105SOL    HW3  467   1.774   2.933   0.558 -0.7397  1.8852  0.4514
  105SOL    MW4  468   1.784   2.932   0.472 -0.5125  0.1996  0.4876
  106SOL     OW  469   0.829   0.826   0.165  0.2417  0.2788 -0.2463
  106SOL    HW2  470   0.804   0.894   0.102  1.0933 -0.2832 -1.2009
  106SOL    HW3  471   0.770   0.753   0.147  0.4986  0.1104 -0.4044
  106SOL    MW4  472   0.818   0.825   0.155  0.3879  0.1824 -0.3931
  107SOL     OW  473   3.838   0.029   1.166 -0.2799  0.4129 -0.1783
  107SOL    HW2  474   3.915   0.067   1.209  0.6954 -0.7697 -0.8379
  107SOL    HW3  475   3.866   0.013   1.076 -1.5067  0.5388 -0.5932
  107SOL    MW4  476   3.852   0.032   1.160 -0.3130  0.2735 -0.3200
  108SOL     OW  477   4.487   1.939   1.156 -0.5269  0.4303 -0.2713
  108SOL    HW2  478   4.418   1.997   1.189  0.5561  1.7717 -0.2939
  108SOL    HW3  479   4.568   1.976   1.192  0.2144 -0.9064 -0.5396
  108SOL    MW4  480   4.489   1.952   1.165 -0.2862  0.4309 -0.3098
  109SOL     OW  481   0.831   3.543   0.863 -0.2982 -0.4493 -0.1085
  109SOL    HW2  482   0.832   3.536   0.959  0.3734  0.5228 -0.0358
  109SOL    HW3  483   0.764   3.481   0.836  0.1956 -1.4550  0.9280
  109SOL    MW4  484   0.822   3.534   0.872 -0.1445 -0.4537  0.0378
  110SOL     OW  485   0.418   2.691   1.135 -0.1556 -0.4539  0.2600
  110SOL    HW2  486   0.416   2.610   1.187  0.6194 -0.8590 -0.3267
  110SOL    HW3  487   0.350   2.746   1.174 -0.4987 -1.2772  0.8508
  110SOL    MW4  488   0.409   2.687   1.147 -0.0986 -0.6163  0.2606
  111SOL     OW  489   0.029   1.068   1.600 -0.2733 -0.1474  0.5963
  111SOL    HW2  490   0.025   1.093   1.693  2.0645 -1.8611  1.2145
  111SOL    HW3  491   0.100   1.120   1.564 -1.1200  0.4522 -0.2304
  111SOL    MW4  492   0.038   1.078   1.608 -0.0766 -0.2944  0.5689
  112SOL     OW  493   4.232   3.901   0.826 -0.1559  0.3319  0.0578
  112SOL    HW2  494   4.233   3.894   0.921  4.3108 -0.3108  0.0876
  112SOL    HW3  495   4.245   3.995   0.809  1.2509  0.1578  0.1246
  112SOL    MW4  496   4.234   3.913   0.836  0.6189  0.2241  0.0706
  113SOL     OW  497   2.813   3.364   0.186 -0.9325 -0.5113  0.1564
  113SOL    HW2  498   2.803   3.386   0.093  2.0252  0.8439  0.1265
  113SOL    HW3  499   2.810   3.449   0.231  1.0607 -0.8564  0.9572
  113SOL    MW4  500   2.811   3.378   0.179 -0.2794 -0.3781  0.2581
  114SOL     OW  501   0.431   2.608   0.851 -0.3056  0.2040 -0.4020
  114SOL    HW2  502   0.411   2.644   0.938  1.6099  2.3852 -0.8309
  114SOL    HW3  503   0.514   2.561   0.863 -0.2219  0.1996 -0.9771
  114SOL    MW4  504   0.439   2.606   0.864 -0.0419  0.4911 -0.5344
  115SOL     OW  505   0.671   3.904   1.119 -0.5068 -0.0491 -0.1403
  115SOL    HW2  506   0.606   3.969   1.143 -0.2423  0.1159  0.1251
  115SOL    HW3  507   0.670   3.903   1.023 -0.3014  0.5560 -0.1519
  115SOL    MW4  508   0.663   3.912   1.109 -0.4448  0.0525 -0.1067
  116SOL     OW  509   4.365   4.170   0.482 -0.0538  0.3198 -0.2696
  116SOL    HW2  510   4.335   4.081   0.465 -0.9820  0.5662  0.0781
  116SOL    HW3  511   4.457   4.170   0.454  0.0212 -0.8116 -0.0489
  116SOL    MW4  512   4.373   4.158   0.476 -0.1664  0.2031 -0.1946
  117SOL     OW  513   3.356   0.540   1.486  0.2020 -0.1694  0.0449
  117SOL    HW2  514   3.359   0.547   1.390  0.3942 -1.5525 -0.0569
  117SOL    HW3  515   3.285   0.478   1.503  0.4359 -0.2319  0.7835
  117SOL    MW4  516   3.347   0.533   1.476  0.2584 -0.3601  0.1290
  118SOL     OW  517   3.861   2.533   0.466 -0.2240  0.3418  0.3817
  118SOL    HW2  518   3.851   2.543   0.560  0.3587 -0.6140  0.5551
  118SOL    HW3  519   3.956   2.529   0.452 -0.3277 -0.4852 -0.1307
  118SOL    MW4  520   3.873   2.534   0.476 -0.1609  0.1063  0.3370
  119SOL     OW  521   4.272   3.094   1.140 -0.1453 -0.6544 -0.1734
  119SOL    HW2  522   4.190   3.138   1.161 -0.7576 -1.0685 -1.6794
  119SOL    HW3  523   4.276   3.094   1.045  2.0527  0.1856 -0.1165
  119SOL    MW4  524   4.262   3.100   1.131  0.0639 -0.5980 -0.3645
  120SOL     OW  525   1.164   1.582   0.827 -0.0443  0.1544 -0.0010
  120SOL    HW2  526   1.085   1.528   0.817  0.4365 -0.1064 -2.7814
  120SOL    HW3  527   1.134   1.671   0.809 -0.1312  0.3702  1.1607
  120SOL    MW4  528   1.149   1.586   0.823  0.0076  0.1484 -0.2146
  121SOL     OW  529   1.523   3.025   0.825  0.2818  0.0480 -0.2285
  121SOL    HW2  530   1.540   3.068   0.909 -0.6109  0.2641 -0.1543
  121SOL    HW3  531   1.471   3.088   0.775  1.8883  0.4399 -1.4446
  121SOL    MW4  532   1.518   3.039   0.829  0.3761  0.1280 -0.3792
  122SOL     OW  533   0.004   3.510   0.886 -0.1638  0.1917 -0.0757
  122SOL    HW2  534   0.004   3.595   0.841 -2.7276  1.5185  2.2201
  122SOL    HW3  535  -0.074   3.465   0.853 -1.5599  0.8062  2.2097
  122SOL    MW4  536  -0.007   3.516   0.876 -0.6866  0.4480  0.5288
  123SOL     OW  537   0.561   3.358   0.541 -0.3908  0.3709  0.3325
  123SOL    HW2  538   0.593   3.440   0.503  1.2241  0.9432  2.8646
  123SOL    HW3  539   0.466   3.361   0.528 -0.2189  2.0414 -0.6955
  123SOL    MW4  540   0.553   3.369   0.534 -0.1551  0.6669  0.5310
  124SOL     OW  541   1.730   1.922   1.113 -0.3171 -0.0380  0.2090
  124SOL    HW2  542   1.737   1.830   1.138 -0.0852 -0.1384 -0.2098
  124SOL    HW3  543   1.820   1.955   1.117 -0.3226  0.0249 -0.1790
  124SOL    MW4  544   1.743   1.915   1.117 -0.2872 -0.0429  0.1026
  125SOL     OW  545   2.353   1.227   0.884 -0.0618 -0.2249  0.8765
  125SOL    HW2  546   2.316   1.222   0.972 -0.7736 -0.9758  0.5450
  125SOL    HW3  547   2.294   1.285   0.836 -0.0508 -0.3395  0.7215
  125SOL    MW4  548   2.341   1.234   0.889 -0.1543 -0.3392  0.8123
  126SOL     OW  549   1.126   2.853   1.244 -0.4588  0.0867  0.3286
  126SOL    HW2  550   1.041   2.820   1.216  0.2392 -0.8684 -0.7061
  126SOL    HW3  551   1.123   2.849   1.340 -1.2479 -0.7873  0.2772
  126SOL    MW4  552   1.115   2.848   1.253 -0.4706 -0.1545  0.1853
  127SOL     OW  553   4.107   1.114   1.106 -0.1888  0.1106 -0.1069
  127SOL    HW2  554   4.114   1.019   1.115 -1.9984 -0.1444 -1.0691
  127SOL    HW3  555   4.025   1.136   1.151  0.4075  1.2670  0.4320
  127SOL    MW4  556   4.097   1.104   1.113 -0.3486  0.2295 -0.1627
  128SOL     OW  557   4.046   1.656   1.215 -0.0963  0.0950  0.1749
  128SOL    HW2  558   4.059   1.742   1.175  0.6611  0.1266  0.4758
  128SOL    HW3  559   4.070   1.669   1.307  0.9907 -0.6745  0.0131
  128SOL    MW4  560   4.051   1.669   1.222  0.1464 -0.0024  0.1931
  129SOL     OW  561   0.162   3.064   0.839  0.5592 -0.1446 -0.4414
  129SOL    HW2  562   0.194   3.072   0.930  1.3779  1.1467 -0.8317
  129SOL    HW3  563   0.221   3.001   0.799  0.5215 -0.3198 -0.2231
  129SOL    MW4  564   0.174   3.057   0.846  0.6623  0.0029 -0.4641
  130SOL     OW  565   3.660   0.677   0.433  0.1523 -0.0326 -0.2926
  130SOL    HW2  566   3.600   0.745   0.464 -0.2324  0.3570 -1.8032
  130SOL    HW3  567   3.699   0.715   0.354 -0.2857 -1.6761 -1.3223
  130SOL    MW4  568   3.657   0.691   0.426  0.0439 -0.1981 -0.6277
  131SOL     OW  569   3.057   4.618   0.497  0.3751  0.3493 -0.1718
  131SOL    HW2  570   3.007   4.538   0.513  0.1089  0.2636 -1.4238
  131SOL    HW3  571   2.993   4.689   0.505  0.3149  0.3322 -0.5109
  131SOL    MW4  572   3.042   4.617   0.500  0.3321  0.3357 -0.3817
  132SOL     OW  573   0.253   1.011   0.794  0.4270  0.1206 -0.0639
  132SOL    HW2  574   0.268   0.923   0.828 -1.1208  0.1400  0.7371
  132SOL    HW3  575   0.332   1.060   0.817  0.4932 -0.5569  1.2057
  132SOL    MW4  576   0.265   1.006   0.802  0.2315  0.0337  0.2093
  133SOL     OW  577   1.860   3.225   0.779  0.1276 -0.1773  0.0749
  133SOL    HW2  578   1.828   3.135   0.775  1.3457 -0.5805 -0.8225
  133SOL    HW3  579   1.950   3.217   0.811  0.1140  0.7583  0.3693
  133SOL    MW4  580   1.867   3.212   0.783  0.2867 -0.1070 -0.0046
  134SOL     OW  581   0.712   2.374   0.344 -0.4224  0.2065 -0.7307
  134SOL    HW2  582   0.746   2.438   0.407 -0.2247  0.1216 -0.7506
  134SOL    HW3  583   0.623   2.403   0.326 -0.5678  0.0918 -0.2164
  134SOL    MW4  584   0.705   2.386   0.350 -0.4155  0.1805 -0.6655
  135SOL     OW  585   3.400   2.536   0.737  0.1858 -0.1544 -0.6706
  135SOL    HW2  586   3.317   2.581   0.751  0.6355  0.9216 -1.3694
  135SOL    HW3  587   3.466   2.595   0.774  0.8132 -0.1062 -1.8401
  135SOL    MW4  588   3.398   2.550   0.744  0.3278 -0.0060 -0.9171
  136SOL     OW  589   2.791   3.625   0.303 -1.0956  0.1279  0.3041
  136SOL    HW2  590   2.864   3.655   0.358 -1.0506 -1.1588  0.9628
  136SOL    HW3  591   2.713   3.653   0.351 -1.0555 -0.9597  1.0215
  136SOL    MW4  592   2.791   3.633   0.317 -1.0843 -0.1855  0.4857
  137SOL     OW  593   3.195   2.484   0.280  0.6596 -0.6344  0.1405
  137SOL    HW2  594   3.291   2.491   0.277  0.6614 -0.7728 -0.1446
  137SOL    HW3  595   3.175   2.408   0.227  0.3954 -0.6729  0.2947
  137SOL    MW4  596   3.205   2.475   0.273  0.6251 -0.6578  0.1232
  138SOL     OW  597   3.858   1.626   0.488  0.0251 -0.6337  0.4225
  138SOL    HW2  598   3.871   1.672   0.571  0.8355 -0.2543  0.0900
  138SOL    HW3  599   3.940   1.577   0.475 -0.1002 -0.6974 -0.1472
  138SOL    MW4  600   3.871   1.626   0.497  0.1154 -0.5920  0.3034
  139SOL     OW  601   0.495   0.460   0.334  0.2397  0.5341 -0.0124
  139SOL    HW2  602   0.454   0.374   0.333  0.9403  0.1991 -1.0604
  139SOL    HW3  603   0.579   0.447   0.378  0.1466  0.7753  0.2375
  139SOL    MW4  604   0.501   0.447   0.340  0.3198  0.5217 -0.1177
  140SOL     OW  605   2.008   1.299   1.224 -0.1857  0.1215 -0.0380
  140SOL    HW2  606   1.923   1.275   1.186  1.0301 -1.3598 -1.9100
  140SOL    HW3  607   2.017   1.392   1.204  0.0518 -0.4466 -2.7410
  140SOL    MW4  608   1.998   1.308   1.216  0.0063 -0.1490 -0.6416
  141SOL     OW  609   4.350   0.722   0.977 -0.4133 -0.0253  0.2831
  141SOL    HW2  610   4.287   0.779   0.933 -0.4508  0.1565  0.5688
  141SOL    HW3  611   4.396   0.677   0.906 -0.3125  0.4397  0.0554
  141SOL    MW4  612   4.347   0.723   0.962 -0.4053  0.0601  0.2908
  142SOL     OW  613   0.684   0.723   0.884 -0.4356  0.1300 -0.3853
  142SOL    HW2  614   0.672   0.713   0.978 -0.1519  2.0546 -0.1188
  142SOL    HW3  615   0.685   0.818   0.870 -0.8524 -0.1334 -2.3729
  142SOL    MW4  616   0.683   0.735   0.894 -0.4531  0.3492 -0.6124
  143SOL     OW  617   2.622   1.213   0.433 -0.2693  0.1478 -0.0930
  143SOL    HW2  618   2.527   1.207   0.442 -0.6200  0.4784 -3.2247
  143SOL    HW3  619   2.639   1.307   0.421  0.5760  0.1930  1.2762
  143SOL    MW4  620   2.612   1.225   0.433 -0.2041  0.1974 -0.3256
  144SOL     OW  621   2.644   1.954   1.074  0.4505 -0.0522 -0.4354
  144SOL    HW2  622   2.729   1.972   1.114  0.2605  0.6682 -0.3517
  144SOL    HW3  623   2.664   1.942   0.981  0.9067 -1.8500 -0.1337
  144SOL    MW4  624   2.658   1.955   1.067  0.4854 -0.1943 -0.3847
  145SOL     OW  625   0.661   3.908   0.834 -0.0306  0.4666 -0.2489
  145SOL    HW2  626   0.588   3.848   0.818  1.0576 -1.3422  1.5253
  145SOL    HW3  627   0.739   3.860   0.808  0.6864  1.8805 -0.7824
  145SOL    MW4  628   0.662   3.894   0.828  0.2076  0.4146 -0.0852
  146SOL     OW  629   1.162   0.170   0.455 -0.0564 -0.2475  0.2925
  146SOL    HW2  630   1.229   0.232   0.427 -0.9552  1.2177  1.3147
  146SOL    HW3  631   1.205   0.085   0.450  1.5010  0.5487 -0.2335
  146SOL    MW4  632   1.177   0.167   0.451  0.0306  0.0509  0.3580
  147SOL     OW  633   3.742   0.631   0.713  0.5245 -0.1183  0.1913
  147SOL    HW2  634   3.704   0.544   0.729  2.1007 -0.8715  0.0210
  147SOL    HW3  635   3.704   0.659   0.631  0.1512 -0.7506  0.1420
  147SOL    MW4  636   3.732   0.623   0.704  0.6833 -0.3012  0.1623
  148SOL     OW  637   1.342   1.925   1.121 -0.5289  0.0755  0.1930
  148SOL    HW2  638   1.428   1.961   1.142 -0.1863 -0.0497 -0.9466
  148SOL    HW3  639   1.342   1.917   1.026 -0.8691 -2.2741  0.3667
  148SOL    MW4  640   1.353   1.929   1.111 -0.5286 -0.2509  0.0656
  149SOL     OW  641   1.768   4.220   1.136 -1.1864  0.2314 -0.4557
  149SOL    HW2  642   1.683   4.261   1.153 -0.7520  1.7917 -1.9102
  149SOL    HW3  643   1.780   4.227   1.041 -0.6777 -2.4844 -0.6303
  149SOL    MW4  644   1.759   4.226   1.125 -1.0619  0.0787 -0.6706
  150SOL     OW  645   0.577   3.068   0.891  0.0830 -0.1065  0.3090
  150SOL    HW2  646   0.497   3.034   0.851 -1.0076  1.1734  1.3797
  150SOL    HW3  647   0.577   3.161   0.869  1.2454 -0.0843  0.3807
  150SOL    MW4  648   0.566   3.075   0.883  0.0925  0.0653  0.4597
  151SOL     OW  649   2.113   3.196   0.864 -0.2971 -0.1675  0.1953
  151SOL    HW2  650   2.120   3.277   0.815  1.4264  0.6670  1.7866
  151SOL    HW3  651   2.173   3.135   0.820 -0.9052 -0.3135 -0.4420
  151SOL    MW4  652   2.122   3.198   0.852 -0.1500 -0.0765  0.3213
  152SOL     OW  653   4.074   1.927   0.810 -0.1303 -0.3718 -0.1677
  152SOL    HW2  654   4.160   1.918   0.770  0.4141  0.4688  0.8045
  152SOL    HW3  655   4.052   2.019   0.800 -1.4671 -0.8112 -1.5065
  152SOL    MW4  656   4.082   1.938   0.803 -0.2356 -0.3188 -0.2161
  153SOL     OW  657   2.235   2.022   0.841 -0.4552 -0.3934 -0.4888
  153SOL    HW2  658   2.242   2.103   0.790 -1.2310  0.0052  0.0269
  153SOL    HW3  659   2.298   1.963   0.800  0.5947  0.6880 -0.4524
  153SOL    MW4  660   2.244   2.025   0.829 -0.4189 -0.1981 -0.4159
  154SOL     OW  661   4.048   3.728   0.709 -0.4534  0.4039 -0.7981
  154SOL    HW2  662   4.113   3.784   0.752 -0.5144 -0.6050  0.6360
  154SOL    HW3  663   4.055   3.750   0.616  1.9649  0.2992 -0.6700
  154SOL    MW4  664   4.057   3.738   0.702 -0.1421  0.2570 -0.5919
  155SOL     OW  665   0.903   0.070   1.502  0.5327  0.3431 -0.2559
  155SOL    HW2  666   0.910   0.154   1.546 -0.1651  0.3025 -0.0688
  155SOL    HW3  667   0.975   0.018   1.539 -0.3285  0.1564  1.1898
  155SOL    MW4  668   0.914   0.074   1.513  0.3270  0.3131 -0.0405
  156SOL     OW  669   0.081   2.590   0.622 -0.2190 -0.2189  0.5275
  156SOL    HW2  670   0.045   2.635   0.698 -0.3473  1.5811 -0.5774
  156SOL    HW3  671   0.123   2.659   0.570  0.6063 -1.5430 -0.6178
  156SOL    MW4  672   0.082   2.605   0.625 -0.1270 -0.1559  0.2307
  157SOL     OW  673   2.947   2.577   0.706  0.0603 -0.3422  0.1080
  157SOL    HW2  674   2.953   2.568   0.611  0.4759 -0.7055  0.1643
  157SOL    HW3  675   2.942   2.487   0.738 -1.2456 -0.1837  0.3648
  157SOL    MW4  676   2.947   2.564   0.697 -0.0572 -0.3693  0.1493
  158SOL     OW  677   4.045   0.363   1.153  0.2593 -0.4987  0.1679
  158SOL    HW2  678   4.109   0.433   1.166 -1.7528  1.3186  0.6033
  158SOL    HW3  679   4.040   0.352   1.058  0.0002  0.5056  0.0657
  158SOL    MW4  680   4.053   0.371   1.142 -0.0401 -0.1264  0.2118
  159SOL     OW  681   0.906   0.088   1.212  0.1041  0.5945  0.0793
  159SOL    HW2  682   0.911   0.086   1.308 -0.6826  1.5714  0.1436
  159SOL    HW3  683   0.985   0.042   1.183 -0.5193 -1.2604  1.2029
  159SOL    MW4  684   0.917   0.081   1.221 -0.0819  0.4786  0.2360
  160SOL     OW  685   3.885   1.234   1.234  0.3048  0.1881  0.1864
  160SOL    HW2  686   3.877   1.325   1.205  0.9415  0.3032  0.3680
  160SOL    HW3  687   3.869   1.237   1.328 -2.0294 -0.2238 -0.1655
  160SOL    MW4  688   3.882   1.246   1.243  0.0808  0.1489  0.1638
  161SOL     OW  689   0.675   4.638   0.883 -0.5032 -0.4495  0.0389
  161SOL    HW2  690   0.670   4.624   0.978 -0.3337  0.9612  0.2679
  161SOL    HW3  691   0.747   4.581   0.854 -0.0273 -0.2903  0.8851
  161SOL    MW4  692   0.684   4.628   0.892 -0.4181 -0.2422  0.1808
  162SOL     OW  693   1.625   0.297   0.506  0.3419  0.0885  0.1088
  162SOL    HW2  694   1.623   0.283   0.601 -1.2547 -1.0192 -0.0642
  162SOL    HW3  695   1.639   0.210   0.469 -0.4154  0.3085 -0.7119
  162SOL    MW4  696   1.627   0.284   0.514  0.0314 -0.0286 -0.0224
  163SOL     OW  697   1.624   3.823   0.333 -0.1076  0.8085  0.0532
  163SOL    HW2  698   1.656   3.819   0.243 -1.9148 -1.9188 -0.5394
  163SOL    HW3  699   1.638   3.735   0.368  0.3318  1.7578  2.3737
  163SOL    MW4  700   1.630   3.811   0.326 -0.2880  0.5739  0.2811
  164SOL     OW  701   0.034   0.335   0.886 -0.1340 -0.4466 -0.2306
  164SOL    HW2  702  -0.052   0.318   0.848 -0.6657  2.0553 -0.2282
  164SOL    HW3  703   0.095   0.287   0.830 -1.4738 -1.9983 -0.4066
  164SOL    MW4  704   0.031   0.326   0.874 -0.3809 -0.3212 -0.2536
  165SOL     OW  705   3.305   3.334   0.654 -0.2373  0.2104 -0.2605
  165SOL    HW2  706   3.329   3.255   0.702 -2.2246 -0.2966 -0.0390
  165SOL    HW3  707   3.243   3.304   0.588 -1.0350  1.5912 -0.1579
  165SOL    MW4  708   3.300   3.320   0.651 -0.6046  0.3257 -0.2177
  166SOL     OW  709   2.034   2.747   0.433  0.0498 -0.0728 -0.3889
  166SOL    HW2  710   2.022   2.691   0.510 -0.5616 -1.4563 -1.4815
  166SOL    HW3  711   1.955   2.801   0.431 -0.4514 -0.8071 -0.6688
  166SOL    MW4  712   2.022   2.747   0.443 -0.0968 -0.3521 -0.5700
  167SOL     OW  713   2.649   1.432   0.733 -0.0802 -0.1281 -0.1244
  167SOL    HW2  714   2.730   1.469   0.767 -0.2480  0.6255 -0.5404
  167SOL    HW3  715   2.638   1.350   0.781 -0.2298  0.8447  1.5225
  167SOL    MW4  716   2.658   1.426   0.744 -0.1223  0.0998  0.0380
  168SOL     OW  717   0.713   3.843   0.378  0.3422 -0.2140 -0.3518
  168SOL    HW2  718   0.750   3.929   0.398 -0.3645 -0.2435  1.1300
  168SOL    HW3  719   0.661   3.858   0.298  1.3440  0.4103 -0.9059
  168SOL    MW4  720   0.711   3.857   0.370  0.3812 -0.1359 -0.2294
  169SOL     OW  721   1.982   0.015   1.154 -0.5425  0.0640  0.0759
  169SOL    HW2  722   1.911   0.064   1.195 -1.4765 -0.5635 -0.7661
  169SOL    HW3  723   1.975  -0.074   1.189  0.8233  0.3754  1.1998
  169SOL    MW4  724   1.972   0.010   1.164 -0.4857  0.0229  0.1130
  170SOL     OW  725   3.812   2.580   0.745  0.0415  0.0332 -0.2987
  170SOL    HW2  726   3.803   2.501   0.799  0.5480  0.0857 -0.1312
  170SOL    HW3  727   3.891   2.623   0.779 -0.3860  0.7546 -0.2050
  170SOL    MW4  728   3.821   2.575   0.757  0.0520  0.1357 -0.2642
  171SOL     OW  729   0.436   0.892   1.265  0.0026  0.0657  0.0885
  171SOL    HW2  730   0.431   0.888   1.361 -0.7123 -0.2057  0.0373
  171SOL    HW3  731   0.360   0.844   1.234  0.0144  0.4929 -0.6207
  171SOL    MW4  732   0.426   0.885   1.274 -0.0902  0.0863 -0.0118
  172SOL     OW  733   0.886   2.728   1.172  0.2689 -0.4046  0.0103
  172SOL    HW2  734   0.882   2.633   1.183 -0.8621 -0.4142 -0.4679
  172SOL    HW3  735   0.908   2.740   1.079 -1.9953 -0.1886 -0.5314
  172SOL    MW4  736   0.889   2.717   1.161 -0.1791 -0.3774 -0.1242
  173SOL     OW  737   1.949   0.684   0.514 -0.5053  0.1983 -0.4317
  173SOL    HW2  738   1.939   0.779   0.503 -2.3034  0.0617 -0.1362
  173SOL    HW3  739   2.040   0.666   0.489  0.1656  2.1375  0.5143
  173SOL    MW4  740   1.960   0.694   0.509 -0.6540  0.4361 -0.2679
  174SOL     OW  741   2.754   2.977   0.456 -0.5093 -0.5343  0.0847
  174SOL    HW2  742   2.784   3.068   0.446  0.7207 -0.9901 -0.5118
  174SOL    HW3  743   2.667   2.976   0.416 -0.2548  0.2461 -0.5083
  174SOL    MW4  744   2.747   2.989   0.449 -0.3133 -0.4914 -0.0723
  175SOL     OW  745   0.939   2.735   0.906 -0.2071 -0.2191 -0.6121
  175SOL    HW2  746   0.927   2.649   0.866 -1.2872  0.1091 -1.0163
  175SOL    HW3  747   0.879   2.792   0.857 -1.0618  0.3215  1.0385
  175SOL    MW4  748   0.929   2.731   0.894 -0.4624 -0.1042 -0.4477
  176SOL     OW  749   1.559   2.837   0.347 -0.1999 -0.3828  0.1492
  176SOL    HW2  750   1.533   2.827   0.256  1.0055  1.0746 -0.3718
  176SOL    HW3  751   1.483   2.879   0.389 -0.5857 -0.6596 -0.2722
  176SOL    MW4  752   1.545   2.841   0.341 -0.0918 -0.2267  0.0249
  177SOL     OW  753   2.429   0.851   0.382  0.4938  0.0327  0.2336
  177SOL    HW2  754   2.522   0.833   0.372  0.0204 -1.7769 -1.2358
  177SOL    HW3  755   2.421   0.945   0.370  2.0125  0.0631 -0.7074
  177SOL    MW4  756   2.440   0.861   0.379  0.6320 -0.2020 -0.0845
  178SOL     OW  757   0.898   1.991   0.871  0.4261  0.1277  0.0115
  178SOL    HW2  758   0.927   1.978   0.961  2.0816 -0.2263 -0.5414
  178SOL    HW3  759   0.946   1.924   0.821 -0.4344  0.3459 -1.1326
  178SOL    MW4  760   0.908   1.980   0.876  0.5310  0.1099 -0.2124
  179SOL     OW  761   0.231   4.383   1.504 -0.0698  0.2563  0.4261
  179SOL    HW2  762   0.238   4.466   1.551 -0.2841  0.7228 -0.3375
  179SOL    HW3  763   0.158   4.337   1.546  0.8710 -0.0941  1.6647
  179SOL    MW4  764   0.222   4.388   1.516  0.0260  0.2718  0.4888
  180SOL     OW  765   2.891   3.916   1.154  0.5200  0.7989 -0.2599
  180SOL    HW2  766   2.824   3.965   1.201 -0.1029  1.3550 -1.7116
  180SOL    HW3  767   2.972   3.964   1.171  0.4943  0.3781  1.1304
  180SOL    MW4  768   2.893   3.929   1.162  0.4344  0.8168 -0.2681
  181SOL     OW  769   3.086   0.322   0.894 -0.6643  0.2420 -0.0415
  181SOL    HW2  770   3.118   0.350   0.980 -1.6642  1.6674 -0.1108
  181SOL    HW3  771   3.142   0.367   0.831 -1.2630  0.8530 -0.1436
  181SOL    MW4  772   3.097   0.332   0.897 -0.8750  0.5107 -0.0641
  182SOL     OW  773   0.044   2.233   0.804  0.0082  0.1428 -0.2825
  182SOL    HW2  774   0.100   2.279   0.867  0.1817  0.8735 -0.9603
  182SOL    HW3  775   0.053   2.141   0.827  1.6453  0.2361 -0.5184
  182SOL    MW4  776   0.052   2.227   0.816  0.2471  0.2515 -0.4030
  183SOL     OW  777   2.472   1.323   1.238  0.2172  0.4559 -0.0183
  183SOL    HW2  778   2.538   1.261   1.206  0.2367 -0.3261  1.4956
  183SOL    HW3  779   2.389   1.290   1.202  0.2807 -0.2131  0.4389
  183SOL    MW4  780   2.470   1.311   1.229  0.2284  0.2644  0.2416
  184SOL     OW  781   0.046   1.400   0.651  0.0246 -0.1935  0.4133
  184SOL    HW2  782  -0.035   1.450   0.656  0.5661  0.6480  0.8712
  184SOL    HW3  783   0.109   1.451   0.702  0.7273 -1.0597  0.4201
  184SOL    MW4  784   0.044   1.414   0.658  0.1888 -0.1968  0.4746
  185SOL     OW  785   3.784   3.088   1.115 -0.3592 -0.3424 -0.0756
  185SOL    HW2  786   3.783   2.996   1.140  0.4397 -0.0740  0.9707
  185SOL    HW3  787   3.776   3.087   1.019 -0.1766 -1.4928 -0.0810
  185SOL    MW4  788   3.783   3.076   1.106 -0.2298 -0.4590  0.0616
  186SOL     OW  789   4.345   0.981   0.763 -0.1739 -0.0046 -0.0342
  186SOL    HW2  790   4.408   1.053   0.769 -1.5448  1.2850 -0.8263
  186SOL    HW3  791   4.322   0.976   0.670 -1.7960  0.0390  0.3404
  186SOL    MW4  792   4.350   0.990   0.751 -0.5684  0.1712 -0.0892
  187SOL     OW  793   2.177   1.346   0.469 -0.2397 -0.1178  0.2791
  187SOL    HW2  794   2.187   1.370   0.561  0.3767 -0.9219  0.4287
  187SOL    HW3  795   2.087   1.316   0.461  0.1044 -1.3803  0.9438
  187SOL    MW4  796   2.167   1.345   0.480 -0.1128 -0.3905  0.3866
  188SOL     OW  797   1.539   1.025   0.727  0.4618 -0.1088 -0.1376
  188SOL    HW2  798   1.617   1.079   0.740  0.5447  0.3165 -2.2878
  188SOL    HW3  799   1.528   1.020   0.632 -2.8217  0.8287  0.1300
  188SOL    MW4  800   1.548   1.031   0.716  0.0395  0.0710 -0.3860
  189SOL     OW  801   0.224   1.782   0.726  0.4049  0.2677 -0.1743
  189SOL    HW2  802   0.223   1.689   0.746 -0.2188  0.2997 -0.0388
  189SOL    HW3  803   0.202   1.788   0.633  0.0991  0.2938 -0.1026
  189SOL    MW4  804   0.221   1.771   0.717  0.2823  0.2753 -0.1469
  190SOL     OW  805   3.092   0.894   0.756 -0.3212 -0.3433  0.1323
  190SOL    HW2  806   3.051   0.964   0.706  0.7719  1.0986  1.2069
  190SOL    HW3  807   3.124   0.833   0.690 -2.6492 -0.6582 -0.7750
  190SOL    MW4  808   3.091   0.895   0.741 -0.4842 -0.1946  0.1544
  191SOL     OW  809   0.920   4.230   1.150 -0.4073 -0.7206  0.0514
  191SOL    HW2  810   0.931   4.142   1.185  0.7363 -0.5451  0.1275
  191SOL    HW3  811   1.001   4.276   1.172 -0.7566  0.1772 -0.4957
  191SOL    MW4  812   0.932   4.225   1.157 -0.3026 -0.5789 -0.0108
  192SOL     OW  813   4.305   4.414   1.242 -0.0343  0.3746  0.7102
  192SOL    HW2  814   4.356   4.355   1.186  1.0167  0.6094  1.4068
  192SOL    HW3  815   4.323   4.502   1.208  0.0049  0.4524  0.9259
  192SOL    MW4  816   4.314   4.418   1.230  0.1097  0.4153  0.8307
  193SOL     OW  817   1.603   0.022   0.457 -0.2710 -0.5299  0.6337
  193SOL    HW2  818   1.510  -0.000   0.469 -0.4921 -1.5000 -2.5003
  193SOL    HW3  819   1.650  -0.057   0.486 -0.5687 -1.0736 -0.3351
  193SOL    MW4  820   1.597   0.008   0.462 -0.3395 -0.7296  0.0924
  194SOL     OW  821   1.777   2.226   0.724 -0.2375 -0.1300  0.0728
  194SOL    HW2  822   1.771   2.134   0.749  0.2666 -0.0708  0.4196
  194SOL    HW3  823   1.698   2.266   0.759 -0.9520 -0.6258 -0.9401
  194SOL    MW4  824   1.766   2.220   0.732 -0.2654 -0.1874 -0.0151
  195SOL     OW  825   2.239   1.683   1.480 -0.0888 -0.3371  0.3264
  195SOL    HW2  826   2.326   1.652   1.505 -1.1074 -3.0848  0.6763
  195SOL    HW3  827   2.242   1.690   1.385  0.5571 -0.2621  0.3508
  195SOL    MW4  828   2.251   1.680   1.471 -0.1376 -0.6897  0.3757
  196SOL     OW  829   2.902   4.399   1.237  0.0503  0.3854  0.1076
  196SOL    HW2  830   2.818   4.378   1.198  0.2899 -0.6647  0.1312
  196SOL    HW3  831   2.967   4.364   1.175  0.4514  0.5394  0.4361
  196SOL    MW4  832   2.900   4.391   1.224  0.1347  0.2675  0.1540
  197SOL     OW  833   4.027   0.600   0.689 -0.0818  0.1393  0.4220
  197SOL    HW2  834   4.038   0.520   0.740 -0.8786  0.8649  1.7781
  197SOL    HW3  835   3.934   0.619   0.694  0.0146  0.8464 -0.3601
  197SOL    MW4  836   4.016   0.592   0.697 -0.1745  0.3283  0.4977
  198SOL     OW  837   4.280   3.370   0.747 -0.1104 -0.6684 -0.0238
  198SOL    HW2  838   4.293   3.414   0.663  0.9125  1.6839  1.3101
  198SOL    HW3  839   4.195   3.403   0.778 -0.5978 -1.7131 -0.2302
  198SOL    MW4  840   4.270   3.381   0.740 -0.0401 -0.4961  0.1250
  199SOL     OW  841   0.517   4.628   0.478  0.5303  0.2219 -0.0300
  199SOL    HW2  842   0.573   4.703   0.500  1.6682 -0.4853 -0.4742
  199SOL    HW3  843   0.577   4.564   0.439 -0.4592 -0.8679  0.2234
  199SOL    MW4  844   0.532   4.630   0.476  0.5499 -0.0153 -0.0551
  200SOL     OW  845   4.476   0.855   1.171  0.5143  0.4480  0.0777
  200SOL    HW2  846   4.489   0.947   1.148  0.3544  0.6018  0.6059
  200SOL    HW3  847   4.424   0.819   1.098 -1.0492  1.2333  0.7815
  200SOL    MW4  848   4.471   0.862   1.158  0.2871  0.5720  0.2402
  201SOL     OW  849   3.211   3.703   0.789  0.0659  0.1533 -0.5398
  201SOL    HW2  850   3.261   3.776   0.827 -0.7487 -0.1729  1.2307
  201SOL    HW3  851   3.120   3.721   0.815 -0.4876 -0.2077 -2.1878
  201SOL    MW4  852   3.206   3.715   0.798 -0.1147  0.0627 -0.5236
  202SOL     OW  853   1.130   0.783   0.885  0.1818  0.3256  0.3643
  202SOL    HW2  854   1.177   0.769   0.967  0.7034 -1.0323 -0.1508
  202SOL    HW3  855   1.054   0.725   0.891  1.2743 -1.2848 -0.9330
  202SOL    MW4  856   1.126   0.773   0.897  0.3949 -0.0661  0.1252
  203SOL     OW  857   4.228   4.661   0.824  0.1314  0.2785 -0.2788
  203SOL    HW2  858   4.301   4.604   0.798  0.8659  1.1899 -0.2529
  203SOL    HW3  859   4.232   4.664   0.919 -0.6816 -0.6277 -0.2160
  203SOL    MW4  860   4.238   4.654   0.833  0.1211  0.2789 -0.2671
  204SOL     OW  861   0.790   3.220   0.487  0.1517  0.0409  0.2330
  204SOL    HW2  862   0.704   3.262   0.485 -0.8814 -1.7956  2.6187
  204SOL    HW3  863   0.852   3.292   0.481 -1.5214  1.3559 -2.2818
  204SOL    MW4  864   0.787   3.235   0.486 -0.2054 -0.0279  0.2159
  205SOL     OW  865   1.986   0.797   0.853 -0.3928  0.2222 -0.5644
  205SOL    HW2  866   1.975   0.796   0.948 -0.0539  0.6960 -0.5202
  205SOL    HW3  867   1.917   0.738   0.820 -0.8572  0.4852 -0.0670
  205SOL    MW4  868   1.975   0.789   0.861 -0.4094  0.3194 -0.4929
  206SOL     OW  869   4.250   3.616   1.262 -0.6892  0.5575 -0.2666
  206SOL    HW2  870   4.333   3.578   1.233 -1.8083 -2.4647  0.2440
  206SOL    HW3  871   4.183   3.568   1.212 -2.2218  1.2685  1.0371
  206SOL    MW4  872   4.252   3.605   1.251 -1.0390  0.2527 -0.0272
  207SOL     OW  873   3.135   1.963   0.807 -0.1447 -0.2284 -0.4359
  207SOL    HW2  874   3.131   1.953   0.902  1.1885 -0.8133 -0.4276
  207SOL    HW3  875   3.165   1.878   0.776 -1.1427 -0.2197 -1.4339
  207SOL    MW4  876   3.139   1.950   0.816 -0.1004 -0.3043 -0.5665
  208SOL     OW  877   0.153   0.969   0.536 -0.5171 -0.1467  0.1840
  208SOL    HW2  878   0.221   1.000   0.476 -1.5909  0.1228 -0.9222
  208SOL    HW3  879   0.188   0.988   0.623 -0.2387  2.3155 -0.4178
  208SOL    MW4  880   0.167   0.976   0.540 -0.6220  0.2137 -0.0413
  209SOL     OW  881   4.161   2.725   0.346  0.4661 -0.1994 -0.2790
  209SOL    HW2  882   4.169   2.635   0.378  0.4406  0.0248  0.3706
  209SOL    HW3  883   4.238   2.770   0.381  0.4756  0.0287 -0.5953
  209SOL    MW4  884   4.172   2.719   0.355  0.4640 -0.1400 -0.2350
  210SOL     OW  885   2.228   0.158   1.207 -0.5838  0.2967 -0.1901
  210SOL    HW2  886   2.148   0.108   1.194 -1.1079  1.3154 -0.9307
  210SOL    HW3  887   2.208   0.245   1.173  1.1587  0.2767 -1.3395
  210SOL    MW4  888   2.215   0.163   1.201 -0.4232  0.4285 -0.4395
  211SOL     OW  889   1.197   1.738   0.468  0.0643  0.0867 -0.0189
  211SOL    HW2  890   1.282   1.782   0.471  0.2820 -0.3213 -0.1731
  211SOL    HW3  891   1.143   1.794   0.410 -0.0443  0.8099  0.7696
  211SOL    MW4  892   1.201   1.752   0.460  0.0788  0.1284  0.0648
  212SOL     OW  893   0.031   4.599   0.476  0.2396 -0.1627 -0.8538
  212SOL    HW2  894  -0.048   4.597   0.423 -0.2411  2.2701 -0.2928
  212SOL    HW3  895   0.008   4.551   0.556 -0.2940 -0.4650 -1.1905
  212SOL    MW4  896   0.018   4.593   0.480  0.1054  0.1183 -0.8242
  213SOL     OW  897   0.419   3.518   0.868  0.1262  0.1597 -0.0584
  213SOL    HW2  898   0.400   3.594   0.813 -1.2737 -0.1041  0.0314
  213SOL    HW3  899   0.342   3.462   0.858  1.5361 -1.7051 -0.8793
  213SOL    MW4  900   0.406   3.520   0.859  0.1275 -0.1214 -0.1548
  214SOL     OW  901   2.466   2.824   1.213  0.0376  0.1396 -0.3308
  214SOL    HW2  902   2.542   2.780   1.174  1.1582  2.0040 -0.2817
  214SOL    HW3  903   2.478   2.813   1.308  0.7199  1.2298 -0.2948
  214SOL    MW4  904   2.477   2.817   1.221  0.2759  0.5293 -0.3197
  215SOL     OW  905   2.275   1.018   0.702 -0.1219 -0.4529  0.5503
  215SOL    HW2  906   2.309   1.091   0.753  0.5887 -1.4869  1.5873
  215SOL    HW3  907   2.180   1.031   0.701 -0.0697 -0.0020  1.4751
  215SOL    MW4  908   2.267   1.029   0.708 -0.0212 -0.5299  0.8091
  216SOL     OW  909   4.474   3.990   1.199  0.2766  0.0427 -0.8663
  216SOL    HW2  910   4.393   3.957   1.160  0.1519 -0.8957  0.1677
  216SOL    HW3  911   4.456   3.992   1.293  1.3273  0.1692 -0.6659
  216SOL    MW4  912   4.461   3.986   1.206  0.3991 -0.0644 -0.7035
  217SOL     OW  913   3.585   0.402   1.132  0.0845 -0.2970  0.6813
  217SOL    HW2  914   3.666   0.439   1.166  0.0439  0.0888  0.3590
  217SOL    HW3  915   3.597   0.399   1.037 -0.2550 -0.2879  0.6358
  217SOL    MW4  916   3.597   0.406   1.124  0.0343 -0.2449  0.6328
  218SOL     OW  917   2.100   3.399   0.681 -0.1090  0.3254  0.0159
  218SOL    HW2  918   2.135   3.389   0.592 -0.0707  0.0631  0.0595
  218SOL    HW3  919   2.166   3.452   0.726  0.5862 -0.7354  0.2920
  218SOL    MW4  920   2.114   3.404   0.675 -0.0122  0.1507  0.0581
  219SOL     OW  921   0.767   4.128   0.445  0.2310 -0.0930 -0.3788
  219SOL    HW2  922   0.853   4.168   0.449 -0.1304  0.6530  0.0359
  219SOL    HW3  923   0.730   4.139   0.533 -0.3832 -0.1888 -0.6173
  219SOL    MW4  924   0.773   4.135   0.457  0.1022 -0.0076 -0.3555
  220SOL     OW  925   1.800   3.264   1.190  0.0344 -0.3902 -0.1557
  220SOL    HW2  926   1.789   3.243   1.283  0.9621  1.5410  0.4276
  220SOL    HW3  927   1.887   3.230   1.169  0.2325  0.0370 -0.0420
  220SOL    MW4  928   1.810   3.257   1.200  0.1830 -0.0792 -0.0638
  221SOL     OW  929   3.833   0.745   1.143  0.5145 -0.3320  0.0164
  221SOL    HW2  930   3.914   0.782   1.177  1.6439 -2.1128 -0.6877
  221SOL    HW3  931   3.830   0.775   1.051  0.2378 -0.0668  0.1094
  221SOL    MW4  932   3.843   0.754   1.135  0.6268 -0.5320 -0.0644
  222SOL     OW  933   2.690   2.178   0.719  0.3857  0.5254  0.9080
  222SOL    HW2  934   2.620   2.234   0.753 -0.1972  0.8328 -0.7485
  222SOL    HW3  935   2.676   2.177   0.624  0.4522 -2.3544  0.8888
  222SOL    MW4  936   2.679   2.185   0.711  0.3176  0.1862  0.6869
  223SOL     OW  937   2.948   2.810   0.353  0.3391  0.0849  0.1125
  223SOL    HW2  938   2.933   2.730   0.403  1.2239 -0.2324 -0.1076
  223SOL    HW3  939   2.883   2.871   0.385  0.4549 -0.3363  1.1788
  223SOL    MW4  940   2.938   2.807   0.364  0.4711 -0.0124  0.2241
  224SOL     OW  941   4.080   0.841   1.224  0.0204 -0.1964 -0.4366
  224SOL    HW2  942   4.143   0.771   1.211 -0.0055 -0.0556 -1.3908
  224SOL    HW3  943   4.088   0.864   1.317 -0.0695 -1.5374 -0.0980
  224SOL    MW4  944   4.090   0.835   1.235  0.0052 -0.3548 -0.5178
  225SOL     OW  945   1.136   4.154   0.707  0.6781 -0.3926 -0.4874
  225SOL    HW2  946   1.077   4.188   0.774  1.0373  1.1790 -0.9219
  225SOL    HW3  947   1.161   4.067   0.737  1.7259  0.7361  2.0140
  225SOL    MW4  948   1.132   4.147   0.720  0.8637 -0.0367 -0.2147
  226SOL     OW  949   1.744   1.190   1.124  0.5153 -0.2171 -0.2571
  226SOL    HW2  950   1.656   1.208   1.157 -0.2489 -1.5460 -1.4743
  226SOL    HW3  951   1.771   1.109   1.169  1.8074  1.0640  1.3388
  226SOL    MW4  952   1.736   1.181   1.134  0.5851 -0.2233 -0.2072
  227SOL     OW  953   3.607   1.596   1.190  0.0185  0.2144  0.4702
  227SOL    HW2  954   3.686   1.547   1.165  0.2965  0.5602  0.6663
  227SOL    HW3  955   3.536   1.551   1.145  0.5420  0.9534 -1.1512
  227SOL    MW4  956   3.608   1.584   1.180  0.1242  0.3575  0.2822
  228SOL     OW  957   3.594   2.399   1.235 -0.1408  0.3041 -0.5592
  228SOL    HW2  958   3.594   2.401   1.331 -0.6572 -0.8413 -0.5310
  228SOL    HW3  959   3.678   2.361   1.212 -0.0888  0.4176 -0.5574
  228SOL    MW4  960   3.605   2.394   1.245 -0.2019  0.1678 -0.5553
  229SOL     OW  961   1.332   4.538   0.743  0.6828 -0.1146  0.1028
  229SOL    HW2  962   1.335   4.446   0.769  1.5729  0.0570  0.6375
  229SOL    HW3  963   1.250   4.571   0.781 -0.1584 -0.9310 -0.9623
  229SOL    MW4  964   1.321   4.530   0.752  0.6894 -0.1998  0.0328
  230SOL     OW  965   1.575   0.559   1.244 -0.3092  0.2172  0.3329
  230SOL    HW2  966   1.511   0.501   1.204 -0.9649  0.9581  0.3031
  230SOL    HW3  967   1.568   0.541   1.338  1.3569 -1.6528  0.1576
  230SOL    MW4  968   1.566   0.549   1.251 -0.1758  0.0682  0.3058
  231SOL     OW  969   0.274   3.411   0.526  0.5948  0.1053  0.0947
  231SOL    HW2  970   0.268   3.501   0.495 -0.1367  0.8847  2.3965
  231SOL    HW3  971   0.254   3.416   0.619 -0.8687 -2.6271 -0.0182
  231SOL    MW4  972   0.271   3.423   0.534  0.3052 -0.1526  0.3835
  232SOL     OW  973   1.967   0.962   0.445  0.1316 -0.2275  0.2549
  232SOL    HW2  974   1.908   0.994   0.376  1.1405 -1.0138 -0.9843
  232SOL    HW3  975   2.051   0.949   0.401  0.4609 -1.9601  1.3446
  232SOL    MW4  976   1.970   0.964   0.430  0.3080 -0.5598  0.2352
  233SOL     OW  977   1.958   2.173   0.311 -0.0825  1.1861  0.2885
  233SOL    HW2  978   1.874   2.211   0.336 -0.7201  0.2002 -0.3306
  233SOL    HW3  979   1.942   2.133   0.226  0.5427 -0.5618  0.9621
  233SOL    MW4  980   1.945   2.173   0.303 -0.0840  0.8254  0.2957
  234SOL     OW  981   1.552   0.762   0.850 -0.1465  0.5431  0.1871
  234SOL    HW2  982   1.629   0.719   0.812  0.9378  1.0045  1.8055
  234SOL    HW3  983   1.548   0.847   0.805 -0.4903 -0.0149 -0.8409
  234SOL    MW4  984   1.562   0.768   0.839 -0.0488  0.5304  0.2649
  235SOL     OW  985   2.267   3.809   0.744 -0.2220  0.1144 -0.0223
  235SOL    HW2  986   2.294   3.719   0.762  1.2312  0.2796 -1.3104
  235SOL    HW3  987   2.263   3.815   0.649 -1.2723  1.1450  0.0726
  235SOL    MW4  988   2.270   3.798   0.734 -0.1690  0.2720 -0.1797
  236SOL     OW  989   1.110   3.096   1.133  0.1277 -0.4127 -0.3741
  236SOL    HW2  990   1.114   3.011   1.178 -0.4829 -2.0093 -3.1842
  236SOL    HW3  991   1.035   3.141   1.172  0.0841 -1.4156  0.7312
  236SOL    MW4  992   1.101   3.090   1.144  0.0414 -0.7555 -0.5990
  237SOL     OW  993   0.666   4.352   1.223  0.2061 -0.3265  0.1826
  237SOL    HW2  994   0.749   4.307   1.208  0.4376 -0.4724  1.8701
  237SOL    HW3  995   0.657   4.357   1.318 -1.9476 -0.7297  0.0373
  237SOL    MW4  996   0.675   4.347   1.234 -0.0476 -0.3996  0.3862
  238SOL     OW  997   3.601   4.283   0.870 -0.0052 -0.0670 -0.1053
  238SOL    HW2  998   3.585   4.254   0.960 -1.3408  2.9216  0.6793
  238SOL    HW3  999   3.523   4.255   0.822  0.0321 -0.3691  0.0100
  238SOL    MW4 1000   3.588   4.276   0.876 -0.1764  0.2880  0.0134
  239SOL     OW 1001   1.160   2.919   0.713 -0.0114 -0.2369 -0.6997
  239SOL    HW2 1002   1.115   2.988   0.762  0.8262 -0.1442 -0.0472
  239SOL    HW3 1003   1.224   2.883   0.775  2.3906  1.1532 -2.2804
  239SOL    MW4 1004   1.162   2.923   0.728  0.4160 -0.0415 -0.8222
  240SOL     OW 1005   1.585   3.633   1.221 -0.0391  0.2203 -0.0926
  240SOL    HW2 1006   1.667   3.607   1.180  0.4510 -0.4938  1.2963
  240SOL    HW3 1007   1.581   3.728   1.209  0.9288  0.2386 -0.2857
  240SOL    MW4 1008   1.595   3.642   1.214  0.1533  0.1285  0.0652
  241SOL     OW 1009   1.577   4.408   1.225 -0.4699 -0.2461 -0.0029
  241SOL    HW2 1010   1.561   4.410   1.319 -0.1951  0.1388  0.0383
  241SOL    HW3 1011   1.496   4.374   1.187 -0.0334 -1.9148  0.4960
  241SOL    MW4 1012   1.564   4.404   1.233 -0.3761 -0.4158  0.0683
  242SOL     OW 1013   0.617   0.627   0.123 -0.3771  0.2828  0.1097
  242SOL    HW2 1014   0.608   0.593   0.034 -0.1620  1.8550 -0.5284
  242SOL    HW3 1015   0.588   0.555   0.180  1.3295 -1.4383 -1.1356
  242SOL    MW4 1016   0.612   0.613   0.119 -0.1236  0.2633 -0.1388
  243SOL     OW 1017   0.650   3.087   1.156 -0.1495 -0.2467  0.3237
  243SOL    HW2 1018   0.639   2.999   1.192 -3.4663 -0.0231 -0.0437
  243SOL    HW3 1019   0.642   3.074   1.061  2.6441  0.0266  0.0033
  243SOL    MW4 1020   0.648   3.074   1.148 -0.2185 -0.1812  0.2328
  244SOL     OW 1021   1.294   3.217   0.408 -0.2580 -0.0880 -0.2839
  244SOL    HW2 1022   1.336   3.231   0.492  0.6568 -0.9324 -0.5943
  244SOL    HW3 1023   1.337   3.278   0.348  1.0091 -1.4026 -0.7481
  244SOL    MW4 1024   1.305   3.227   0.411  0.0299 -0.3726 -0.3861
  245SOL     OW 1025   3.580   4.231   1.155  0.0428  0.3406 -0.1632
  245SOL    HW2 1026   3.650   4.295   1.170 -0.6652  1.1220 -0.0912
  245SOL    HW3 1027   3.607   4.154   1.204 -0.2646  1.4537  1.8315
  245SOL    MW4 1028   3.593   4.229   1.164 -0.0913  0.5908  0.1094
  246SOL     OW 1029   1.702   1.704   0.370  0.4737  0.3776 -0.0937
  246SOL    HW2 1030   1.768   1.756   0.415  0.9572 -0.8172  0.6187
  246SOL    HW3 1031   1.753   1.639   0.320 -0.1377 -0.1335 -0.0596
  246SOL    MW4 1032   1.718   1.702   0.369  0.4568  0.1525  0.0048
  247SOL     OW 1033   0.641   2.071   1.188 -0.6287 -0.2682 -0.0986
  247SOL    HW2 1034   0.636   2.070   1.284  0.5041 -1.8432 -0.0354
  247SOL    HW3 1035   0.582   2.000   1.161 -0.4975 -0.2116 -0.5317
  247SOL    MW4 1036   0.632   2.061   1.197 -0.4619 -0.4683 -0.1475
  248SOL     OW 1037   3.430   3.532   0.359  0.2172 -0.4711  0.2957
  248SOL    HW2 1038   3.386   3.589   0.423  3.0874  0.0294  1.8814
  248SOL    HW3 1039   3.495   3.588   0.318  1.4558 -1.9750  0.1661
  248SOL    MW4 1040   3.433   3.547   0.362  0.7591 -0.6034  0.4879
  249SOL     OW 1041   1.050   1.106   0.412 -0.4018  0.0189  0.2779
  249SOL    HW2 1042   0.988   1.035   0.431  0.3084  0.0537  2.8631
  249SOL    HW3 1043   1.136   1.067   0.429  0.2343  0.4065 -1.9067
  249SOL    MW4 1044   1.053   1.091   0.417 -0.2241  0.0746  0.3307
  250SOL     OW 1045   2.651   1.735   0.400 -0.1146 -0.1960  0.2896
  250SOL    HW2 1046   2.688   1.741   0.488  0.2281  0.5176  0.0980
  250SOL    HW3 1047   2.698   1.801   0.349 -0.9729  0.0528 -0.1916
  250SOL    MW4 1048   2.662   1.744   0.405 -0.1824 -0.0690  0.2009
  251SOL     OW 1049   1.578   2.551   0.469 -0.1352  0.0776 -0.5682
  251SOL    HW2 1050   1.618   2.628   0.428 -0.8272  0.6494 -0.1622
  251SOL    HW3 1051   1.582   2.569   0.563  1.1114 -1.0728 -0.3884
  251SOL    MW4 1052   1.584   2.564   0.476 -0.0620  0.0012 -0.4909
  252SOL     OW 1053   1.277   4.353   0.350 -0.1730  0.0094  0.3636
  252SOL    HW2 1054   1.195   4.316   0.382 -0.0727 -1.5930 -1.1792
  252SOL    HW3 1055   1.303   4.296   0.278  1.5926  1.3008 -0.0594
  252SOL    MW4 1056   1.269   4.341   0.345  0.0733 -0.0310  0.1042
  253SOL     OW 1057   2.038   1.568   0.879  0.0982  0.0773  0.4430
  253SOL    HW2 1058   1.955   1.526   0.855 -0.0120 -0.8442  2.2825
  253SOL    HW3 1059   2.030   1.658   0.848 -1.1808 -0.2821 -0.2942
  253SOL    MW4 1060   2.026   1.574   0.872 -0.0851 -0.0917  0.5884
  254SOL     OW 1061   2.006   0.799   1.128  0.0086 -0.5683  0.3105
  254SOL    HW2 1062   1.925   0.848   1.141 -0.4284 -0.5440 -2.1828
  254SOL    HW3 1063   1.992   0.715   1.171 -1.6007 -0.7994 -0.6192
  254SOL    MW4 1064   1.994   0.795   1.135 -0.2614 -0.5956 -0.1411
  255SOL     OW 1065   0.425   1.904   1.140  0.0694 -0.4802 -0.0586
  255SOL    HW2 1066   0.441   1.813   1.164  1.7702  0.1919  1.4948
  255SOL    HW3 1067   0.427   1.904   1.044  1.4644 -1.8435 -0.0515
  255SOL    MW4 1068   0.428   1.892   1.130  0.4779 -0.5714  0.1473
  256SOL     OW 1069   1.605   3.537   0.403 -0.4423 -0.1650 -0.6145
  256SOL    HW2 1070   1.559   3.520   0.484  1.0787  0.6785  0.4522
  256SOL    HW3 1071   1.673   3.469   0.399 -0.4508 -0.1457 -1.1337
  256SOL    MW4 1072   1.608   3.526   0.413 -0.2427 -0.0515 -0.5423
  257SOL     OW 1073   0.766   1.354   0.218  0.2663  0.4590  0.0407
  257SOL    HW2 1074   0.714   1.394   0.148 -0.5675  0.1420  0.4636
  257SOL    HW3 1075   0.776   1.424   0.283 -2.3515 -0.3580  1.4032
  257SOL    MW4 1076   0.760   1.369   0.218 -0.1891  0.3092  0.2763
  258SOL     OW 1077   0.698   0.186   0.496  0.4242  0.3130  0.3751
  258SOL    HW2 1078   0.711   0.271   0.454  2.6850  0.1628  0.6901
  258SOL    HW3 1079   0.691   0.207   0.589  0.5507  0.2043  0.4095
  258SOL    MW4 1080   0.699   0.200   0.503  0.7393  0.2788  0.4211
  259SOL     OW 1081   0.948   1.803   0.322  0.2126 -0.1917 -0.5419
  259SOL    HW2 1082   0.881   1.834   0.261  0.0173  0.2925 -0.0836
  259SOL    HW3 1083   0.921   1.713   0.343 -1.1038  0.4884  0.7671
  259SOL    MW4 1084   0.936   1.795   0.317  0.0132 -0.0381 -0.3087
  260SOL     OW 1085   1.355   0.884   1.536 -0.3088 -0.0343 -0.5265
  260SOL    HW2 1086   1.352   0.849   1.448 -0.1125 -0.4494 -0.3672
  260SOL    HW3 1087   1.443   0.864   1.568 -0.9950 -1.5959  0.4597
  260SOL    MW4 1088   1.366   0.877   1.529 -0.3736 -0.2952 -0.3754
  261SOL     OW 1089   2.355   2.333   0.227  0.3775 -0.1946  0.0597
  261SOL    HW2 1090   2.302   2.408   0.255  0.9837 -0.2367  1.3272
  261SOL    HW3 1091   2.438   2.371   0.199  0.4254 -0.3274  0.0184
  261SOL    MW4 1092   2.359   2.348   0.227  0.4640 -0.2177  0.2215
  262SOL     OW 1093   1.284   1.942   0.858  0.1847  0.7917 -0.0912
  262SOL    HW2 1094   1.364   1.907   0.820 -0.0042 -0.3369  0.5017
  262SOL    HW3 1095   1.283   2.035   0.834  1.8621  0.8973  0.2471
  262SOL    MW4 1096   1.294   1.950   0.850  0.3811  0.6568  0.0317
  263SOL     OW 1097   4.246   0.477   1.459 -0.1158  0.1097  0.1042
  263SOL    HW2 1098   4.153   0.463   1.481 -0.0790  0.8546  0.7454
  263SOL    HW3 1099   4.244   0.541   1.387 -0.0904  0.2513  0.2299
  263SOL    MW4 1100   4.233   0.483   1.452 -0.1078  0.2267  0.2054
  264SOL     OW 1101   0.858   4.503   0.483 -0.5971  0.0142 -0.0640
  264SOL    HW2 1102   0.888   4.429   0.431  0.8458  0.4186  0.1752
  264SOL    HW3 1103   0.894   4.580   0.439 -0.2611  0.4225  0.9159
  264SOL    MW4 1104   0.867   4.503   0.471 -0.3623  0.1216  0.0968
  265SOL     OW 1105   3.422   3.917   0.849 -0.4177 -0.1314  0.1639
  265SOL    HW2 1106   3.432   3.913   0.944  0.4672  0.1860  0.0928
  265SOL    HW3 1107   3.490   3.858   0.816 -0.1889  0.3813 -0.2899
  265SOL    MW4 1108   3.432   3.909   0.857 -0.2708 -0.0219  0.0946
  266SOL     OW 1109   4.026   3.775   0.420  0.4682  0.3112 -0.0183
  266SOL    HW2 1110   3.957   3.833   0.389  0.3239  0.0964 -0.1029
  266SOL    HW3 1111   3.993   3.687   0.400  1.4579  0.2623 -1.4777
  266SOL    MW4 1112   4.012   3.771   0.413  0.5803  0.2766 -0.2220
  267SOL     OW 1113   1.092   2.054   1.225  0.0476  0.3783  0.2760
  267SOL    HW2 1114   1.175   2.016   1.196 -0.1580 -0.4448  0.7634
  267SOL    HW3 1115   1.105   2.072   1.319 -0.0692  0.9501  0.1889
  267SOL    MW4 1116   1.105   2.052   1.234  0.0051  0.3452  0.3289
  268SOL     OW 1117   0.339   2.200   0.396 -0.3391 -0.0543  0.3232
  268SOL    HW2 1118   0.260   2.197   0.451 -0.3560 -0.3515  0.2825
  268SOL    HW3 1119   0.339   2.116   0.349  0.3091 -0.3016  0.7583
  268SOL    MW4 1120   0.329   2.188   0.397 -0.2558 -0.1259  0.3752
  269SOL     OW 1121   4.142   0.499   0.450 -0.2493  0.2028 -0.1952
  269SOL    HW2 1122   4.064   0.485   0.397 -0.7262 -0.2296  0.6209
  269SOL    HW3 1123   4.111   0.547   0.527  0.3028  0.1196  0.0840
  269SOL    MW4 1124   4.128   0.504   0.453 -0.2389  0.1348 -0.0507
  270SOL     OW 1125   4.077   0.129   1.271  0.1624 -0.0961 -0.3383
  270SOL    HW2 1126   4.048   0.134   1.362 -0.8695  1.5551 -0.7341
  270SOL    HW3 1127   4.060   0.216   1.235 -1.9162 -1.4320 -2.8279
  270SOL    MW4 1128   4.071   0.141   1.278 -0.2480 -0.0545 -0.7190
  271SOL     OW 1129   0.457   3.539   1.154  0.0810 -0.1235 -0.0744
  271SOL    HW2 1130   0.460   3.543   1.058  1.0874 -0.9938 -0.0784
  271SOL    HW3 1131   0.530   3.594   1.182  1.0719 -1.5460  0.1582
  271SOL    MW4 1132   0.467   3.547   1.145  0.3445 -0.4261 -0.0443
  272SOL     OW 1133   0.076   0.701   0.559 -0.0664 -0.0511  0.0778
  272SOL    HW2 1134   0.096   0.792   0.539  0.1358 -0.4630 -1.6903
  272SOL    HW3 1135   0.151   0.651   0.526 -0.1319 -0.8410  1.1131
  272SOL    MW4 1136   0.088   0.706   0.552 -0.0484 -0.2097 -0.0188
  273SOL     OW 1137   3.797   2.819   1.199 -0.1803 -0.4793 -0.7079
  273SOL    HW2 1138   3.881   2.779   1.176 -0.5669 -1.7222 -0.0255
  273SOL    HW3 1139   3.806   2.842   1.291 -0.3057  0.1379 -0.8481
  273SOL    MW4 1140   3.809   2.817   1.208 -0.2480 -0.5620 -0.6363
  274SOL     OW 1141   3.366   2.021   1.258 -0.2014 -0.4908 -0.3279
  274SOL    HW2 1142   3.372   2.109   1.222  0.4352  0.1348  1.2355
  274SOL    HW3 1143   3.448   1.978   1.231  0.5296  0.1570  0.8199
  274SOL    MW4 1144   3.378   2.027   1.250 -0.0210 -0.3228  0.0300
  275SOL     OW 1145   4.026   3.475   0.825  0.7383 -0.3725 -0.0385
  275SOL    HW2 1146   4.019   3.558   0.778  0.9741 -0.2819  0.0850
  275SOL    HW3 1147   4.045   3.500   0.915 -0.6897 -0.5190  0.3061
  275SOL    MW4 1148   4.028   3.489   0.831  0.5808 -0.3800  0.0233
  276SOL     OW 1149   2.819   0.396   0.888  0.2646 -0.5755  0.1540
  276SOL    HW2 1150   2.818   0.473   0.831 -1.1466 -1.3147 -0.8399
  276SOL    HW3 1151   2.912   0.370   0.892  0.2841 -1.0626 -2.5752
  276SOL    MW4 1152   2.831   0.402   0.881  0.0811 -0.7373 -0.3373
  277SOL     OW 1153   1.053   4.217   0.460  0.0528  0.1510  0.6460
  277SOL    HW2 1154   1.083   4.201   0.550  1.0264  1.0125  0.4829
  277SOL    HW3 1155   1.076   4.137   0.413 -1.1545 -0.6160  1.3258
  277SOL    MW4 1156   1.060   4.204   0.466  0.0219  0.1636  0.7142
  278SOL     OW 1157   2.196   3.310   0.429  0.1713 -0.2683 -0.0923
  278SOL    HW2 1158   2.165   3.374   0.365 -0.5557  1.1156  1.6118
  278SOL    HW3 1159   2.120   3.254   0.445 -0.6264  1.3194  1.8791
  278SOL    MW4 1160   2.182   3.311   0.423 -0.0298  0.1235  0.3926
  279SOL     OW 1161   2.014   2.334   1.097  0.2877  0.1303 -0.2201
  279SOL    HW2 1162   2.022   2.240   1.110  0.5925  0.0349 -1.0669
  279SOL    HW3 1163   2.000   2.344   1.003  2.2269  1.0653 -0.4350
  279SOL    MW4 1164   2.013   2.323   1.086  0.5836  0.2415 -0.3604
  280SOL     OW 1165   1.351   4.271   0.814 -0.2788 -0.2293  0.1718
  280SOL    HW2 1166   1.429   4.224   0.785 -0.0371 -1.1845  2.3095
  280SOL    HW3 1167   1.278   4.220   0.781 -0.0097 -1.2591  1.1571
  280SOL    MW4 1168   1.352   4.258   0.806 -0.2114 -0.4911  0.5838
  281SOL     OW 1169   0.225   2.056   1.252 -0.5242 -0.0881 -0.1886
  281SOL    HW2 1170   0.289   2.005   1.202  0.9108 -0.9975  2.4992
  281SOL    HW3 1171   0.221   2.140   1.206  2.6066 -0.0354 -0.4732
  281SOL    MW4 1172   0.233   2.061   1.239  0.0782 -0.2010  0.1284
  282SOL     OW 1173   4.051   1.191   0.585 -0.1992  0.0665 -0.1317
  282SOL    HW2 1174   4.101   1.126   0.536  0.4206  0.4274  0.0087
  282SOL    HW3 1175   4.093   1.194   0.671 -0.5267  0.2979  0.0222
  282SOL    MW4 1176   4.063   1.183   0.590 -0.1612  0.1447 -0.0928
  283SOL     OW 1177   1.602   0.247   0.762 -0.2392  0.0125  0.1708
  283SOL    HW2 1178   1.521   0.292   0.785 -0.2640  0.4319 -0.7094
  283SOL    HW3 1179   1.670   0.298   0.806 -0.5142 -0.7880  1.5296
  283SOL    MW4 1180   1.600   0.260   0.771 -0.2786 -0.0378  0.2339
  284SOL     OW 1181   2.905   3.635   1.211  0.2790 -0.0663 -0.3983
  284SOL    HW2 1182   2.976   3.581   1.177  0.7741  0.5081 -0.2898
  284SOL    HW3 1183   2.921   3.722   1.174  0.1568  0.2854  0.3666
  284SOL    MW4 1184   2.917   3.639   1.202  0.3283  0.0560 -0.2831
  285SOL     OW 1185   3.837   3.937   0.301 -0.1413  0.2150  0.3313
  285SOL    HW2 1186   3.854   4.006   0.365 -0.1022 -0.1077  0.6761
  285SOL    HW3 1187   3.890   3.961   0.225  0.9233 -0.1331  0.9389
  285SOL    MW4 1188   3.846   3.949   0.299  0.0045  0.1264  0.4570
  286SOL     OW 1189   2.144   4.285   0.597 -0.0118 -0.0539  0.0105
  286SOL    HW2 1190   2.102   4.258   0.679 -0.9242 -0.7510 -0.6715
  286SOL    HW3 1191   2.214   4.221   0.584 -0.6994 -0.7351 -0.4121
  286SOL    MW4 1192   2.148   4.273   0.606 -0.2229 -0.2360 -0.1352
  287SOL     OW 1193   3.859   4.401   0.442  0.5799 -0.0877 -0.0595
  287SOL    HW2 1194   3.839   4.313   0.473  1.4340 -0.4968 -0.6304
  287SOL    HW3 1195   3.953   4.399   0.425  0.2578  0.3342 -1.9825
  287SOL    MW4 1196   3.869   4.389   0.444  0.6504 -0.0858 -0.3885
  288SOL     OW 1197   3.644   3.728   0.311 -0.2631  0.1408 -0.0830
  288SOL    HW2 1198   3.586   3.769   0.375 -1.4895  0.8151 -1.5843
  288SOL    HW3 1199   3.709   3.796   0.291  0.8095 -0.4619  1.2682
  288SOL    MW4 1200   3.645   3.743   0.317 -0.2832  0.1502 -0.1028
  289SOL     OW 1201   2.885   3.913   0.671  0.1826 -0.2155  0.3790
  289SOL    HW2 1202   2.903   3.860   0.594  1.4420  1.9386 -0.8760
  289SOL    HW3 1203   2.799   3.885   0.701  1.3134 -3.7692  0.4965
  289SOL    MW4 1204   2.876   3.903   0.665  0.4978 -0.4001  0.2288
  290SOL     OW 1205   3.547   2.954   0.699 -0.1697  0.0365 -0.4076
  290SOL    HW2 1206   3.473   3.004   0.732 -0.7439 -0.9933 -0.1366
  290SOL    HW3 1207   3.553   2.878   0.756  1.9692  0.8125  0.4363
  290SOL    MW4 1208   3.538   2.951   0.711  0.0367  0.0031 -0.2605
  291SOL     OW 1209   0.807   2.952   0.788  0.2814 -0.2712  0.4892
  291SOL    HW2 1210   0.875   3.008   0.826  0.7377  1.1812 -2.3175
  291SOL    HW3 1211   0.725   2.997   0.809  0.5156  0.4667 -0.1900
  291SOL    MW4 1212   0.805   2.965   0.796  0.3725  0.0181  0.0293
  292SOL     OW 1213   3.020   1.434   0.423 -0.5132  0.0489  0.0329
  292SOL    HW2 1214   2.927   1.450   0.436 -0.4313  1.9951 -1.5354
  292SOL    HW3 1215   3.058   1.522   0.412  1.4315 -0.7400  0.2341
  292SOL    MW4 1216   3.013   1.448   0.423 -0.2460  0.2016 -0.1475
  293SOL     OW 1217   1.540   2.329   1.084  0.0273 -0.0940  0.1121
  293SOL    HW2 1218   1.543   2.249   1.136 -1.4902 -0.4870 -0.3864
  293SOL    HW3 1219   1.467   2.379   1.121  0.7624  0.9226  0.2112
  293SOL    MW4 1220   1.531   2.325   1.096 -0.0758 -0.0117  0.0595
  294SOL     OW 1221   2.636   2.623   0.316 -0.5262  0.0534 -0.2431
  294SOL    HW2 1222   2.627   2.702   0.263  1.0498  0.3007 -0.1656
  294SOL    HW3 1223   2.566   2.628   0.380  0.5313  2.1880  0.7677
  294SOL    MW4 1224   2.626   2.634   0.317 -0.1788  0.3679 -0.0995
  295SOL     OW 1225   3.377   4.656   1.137 -0.3236 -0.3208  0.0191
  295SOL    HW2 1226   3.298   4.691   1.178 -0.4822 -1.1906  0.4768
  295SOL    HW3 1227   3.449   4.700   1.181 -0.5404  0.1334 -0.0763
  295SOL    MW4 1228   3.376   4.666   1.148 -0.3731 -0.3756  0.0670
  296SOL     OW 1229   1.358   0.361   0.863 -0.0599  0.3454 -0.1310
  296SOL    HW2 1230   1.355   0.451   0.830 -0.4481  1.0058  1.6633
  296SOL    HW3 1231   1.289   0.316   0.815 -0.8932  1.3984  0.0563
  296SOL    MW4 1232   1.349   0.367   0.852 -0.2211  0.5715  0.1305
  297SOL     OW 1233   0.641   0.962   0.480 -0.2461 -0.3320 -0.4241
  297SOL    HW2 1234   0.638   1.054   0.456 -1.5814 -0.5205 -0.9918
  297SOL    HW3 1235   0.584   0.918   0.417 -0.4305 -1.4044  0.4627
  297SOL    MW4 1236   0.633   0.968   0.469 -0.4466 -0.4984 -0.3820
  298SOL     OW 1237   4.093   1.469   0.494 -0.0570  0.1194 -0.2126
  298SOL    HW2 1238   4.173   1.498   0.538 -0.8954 -0.1213  1.5214
  298SOL    HW3 1239   4.074   1.384   0.534 -1.8048  0.6997  0.1978
  298SOL    MW4 1240   4.101   1.461   0.505 -0.3982  0.1642  0.0703
  299SOL     OW 1241   0.514   2.581   0.542  0.6895 -0.2469  0.0456
  299SOL    HW2 1242   0.479   2.566   0.630 -0.2057  0.8903 -0.0912
  299SOL    HW3 1243   0.609   2.570   0.551  0.8040  1.7773  1.5850
  299SOL    MW4 1244   0.522   2.578   0.555  0.5865  0.1700  0.2307
  300SOL     OW 1245   4.029   3.224   1.213  0.3023 -0.0017 -0.2052
  300SOL    HW2 1246   4.012   3.239   1.306  0.4148 -1.2264  0.0244
  300SOL    HW3 1247   3.947   3.188   1.179  0.6813 -0.8347 -0.2709
  300SOL    MW4 1248   4.016   3.221   1.221  0.3672 -0.2732 -0.1837
  301SOL     OW 1249   0.216   0.011   0.846 -0.0611 -0.3274  0.3120
  301SOL    HW2 1250   0.285  -0.043   0.807 -0.3142 -0.2008 -0.3252
  301SOL    HW3 1251   0.231   0.005   0.940  0.1430 -1.2171  0.2331
  301SOL    MW4 1252   0.227   0.003   0.853 -0.0675 -0.4277  0.2174
  302SOL     OW 1253   2.453   2.971   0.399 -0.2215 -0.5697 -0.2272
  302SOL    HW2 1254   2.447   3.056   0.443 -0.4942 -1.2676  1.0799
  302SOL    HW3 1255   2.365   2.955   0.365 -0.4803 -0.9046  0.5975
  302SOL    MW4 1256   2.441   2.980   0.400 -0.2916 -0.7060  0.0540
  303SOL     OW 1257   3.572   2.651   1.132 -0.3208  0.1305 -0.2240
  303SOL    HW2 1258   3.581   2.562   1.167  0.5300 -0.3795 -1.7083
  303SOL    HW3 1259   3.638   2.701   1.178  0.5143 -0.4441 -0.7914
  303SOL    MW4 1260   3.582   2.646   1.143 -0.0982 -0.0126 -0.4947
  304SOL     OW 1261   1.790   1.462   0.805  0.0851  0.1276  0.0829
  304SOL    HW2 1262   1.797   1.366   0.813 -0.7783 -0.0335 -0.9556
  304SOL    HW3 1263   1.776   1.476   0.711  1.5227  1.3589  0.0381
  304SOL    MW4 1264   1.789   1.451   0.793  0.1609  0.2687 -0.0600
  305SOL     OW 1265   0.017   1.112   1.105  0.0262 -0.1038  0.0143
  305SOL    HW2 1266   0.023   1.144   1.015  1.3704 -0.7238 -0.1264
  305SOL    HW3 1267  -0.052   1.166   1.145 -0.6769  0.0686 -1.4172
  305SOL    MW4 1268   0.009   1.123   1.098  0.1106 -0.1627 -0.1931
  306SOL     OW 1269   0.912   0.081   0.368 -0.0399  0.1786 -0.1100
  306SOL    HW2 1270   0.849   0.102   0.436 -0.7634  0.4637 -0.8561
  306SOL    HW3 1271   0.989   0.133   0.389 -0.6442  1.0680 -0.1082
  306SOL    MW4 1272   0.914   0.090   0.380 -0.2150  0.3336 -0.2082
  307SOL     OW 1273   0.195   1.256   1.239  1.0526 -0.0826 -0.0683
  307SOL    HW2 1274   0.128   1.204   1.194 -1.3475  1.2362  1.8742
  307SOL    HW3 1275   0.200   1.338   1.189 -1.2618  1.1847  1.7098
  307SOL    MW4 1276   0.187   1.260   1.226  0.4306  0.2586  0.4226
  308SOL     OW 1277   4.230   2.315   1.145 -0.0066  0.5082  0.7111
  308SOL    HW2 1278   4.316   2.354   1.162  0.5634 -0.7042  0.7066
  308SOL    HW3 1279   4.237   2.282   1.056 -0.0849 -0.5814  1.1014
  308SOL    MW4 1280   4.242   2.316   1.136  0.0582  0.2046  0.7621
  309SOL     OW 1281   4.441   1.174   0.482  0.1594 -0.1534 -0.6563
  309SOL    HW2 1282   4.519   1.119   0.490 -0.2295 -0.7016 -0.6145
  309SOL    HW3 1283   4.461   1.252   0.534  0.3302 -0.6871  0.0911
  309SOL    MW4 1284   4.454   1.177   0.490  0.1311 -0.2961 -0.5521
  310SOL     OW 1285   1.921   1.820   0.510  0.0472  0.3867 -0.6447
  310SOL    HW2 1286   1.982   1.894   0.506 -0.0808  0.4785 -0.9010
  310SOL    HW3 1287   1.970   1.747   0.475 -0.1755  0.5870 -1.3863
  310SOL    MW4 1288   1.935   1.820   0.505  0.0008  0.4252 -0.7765
  311SOL     OW 1289   1.994   1.817   0.767 -0.0031  0.3576 -0.0798
  311SOL    HW2 1290   1.965   1.808   0.676 -0.9588  0.0679  0.2402
  311SOL    HW3 1291   2.052   1.893   0.766  0.2831  0.1404 -0.9956
  311SOL    MW4 1292   1.998   1.826   0.755 -0.0913  0.2906 -0.1584
  312SOL     OW 1293   2.583   0.941   0.876 -0.2705  0.1985 -0.6296
  312SOL    HW2 1294   2.515   0.890   0.920  1.2467  0.1791  1.7574
  312SOL    HW3 1295   2.663   0.890   0.887  0.6575  1.5369 -1.0294
  312SOL    MW4 1296   2.584   0.928   0.883  0.0520  0.3725 -0.3674
  313SOL     OW 1297   2.932   3.116   1.128 -0.1290  0.0092 -0.1663
  313SOL    HW2 1298   2.929   3.095   1.034  1.0857 -0.1171 -0.1855
  313SOL    HW3 1299   2.921   3.031   1.171 -0.5456  0.0485 -0.1913
  313SOL    MW4 1300   2.930   3.102   1.121 -0.0236 -0.0024 -0.1720
  314SOL     OW 1301   1.732   4.432   0.540  0.0257  0.1041  0.5093
  314SOL    HW2 1302   1.801   4.368   0.520 -0.1818 -0.0476  0.2665
  314SOL    HW3 1303   1.759   4.472   0.623  0.8785  0.7083 -0.0548
  314SOL    MW4 1304   1.745   4.428   0.548  0.1109  0.1640  0.4028
  315SOL     OW 1305   4.035   4.567   0.647  0.3597 -0.3062  0.4193
  315SOL    HW2 1306   4.108   4.590   0.704  1.4175 -1.7200 -0.3228
  315SOL    HW3 1307   4.033   4.471   0.649 -1.0909 -0.2909 -0.0409
  315SOL    MW4 1308   4.044   4.557   0.655  0.3080 -0.4911  0.2607
  316SOL     OW 1309   2.520   3.919   1.119  0.5404  0.1145  0.4939
  316SOL    HW2 1310   2.500   3.826   1.123  0.5906 -0.0342 -1.8717
  316SOL    HW3 1311   2.521   3.939   1.025  0.6976  2.4525  0.9673
  316SOL    MW4 1312   2.518   3.910   1.107  0.5677  0.4034  0.2444
  317SOL     OW 1313   0.133   1.274   0.231  0.1072 -0.0480 -0.3266
  317SOL    HW2 1314   0.053   1.254   0.280 -0.1869  1.7018 -0.0741
  317SOL    HW3 1315   0.182   1.192   0.231 -0.5856 -0.4732  1.5819
  317SOL    MW4 1316   0.129   1.261   0.237 -0.0230  0.1267 -0.0415
  318SOL     OW 1317   3.485   2.525   0.254  0.0515  0.2684  0.1240
  318SOL    HW2 1318   3.481   2.493   0.344 -0.8712  1.1814  0.4266
  318SOL    HW3 1319   3.512   2.450   0.203 -0.4243 -0.5426  1.0438
  318SOL    MW4 1320   3.488   2.511   0.259 -0.1330  0.2820  0.2853
  319SOL     OW 1321   2.421   4.410   1.219  0.4261 -0.4351  0.4101
  319SOL    HW2 1322   2.353   4.358   1.176  1.1499  0.0102 -1.2995
  319SOL    HW3 1323   2.402   4.501   1.193  1.3825 -0.2563  0.3212
  319SOL    MW4 1324   2.410   4.415   1.210  0.6475 -0.3524  0.1727
  320SOL     OW 1325   1.306   2.503   0.369  0.1382 -0.7816 -0.0247
  320SOL    HW2 1326   1.398   2.523   0.387 -0.3898 -0.7329  2.8612
  320SOL    HW3 1327   1.267   2.589   0.350  0.7063 -0.8309 -1.4918
  320SOL    MW4 1328   1.313   2.517   0.369  0.1435 -0.7818  0.1624
  321SOL     OW 1329   2.489   2.799   1.484  0.0690 -0.1015 -0.3823
  321SOL    HW2 1330   2.494   2.890   1.516  0.1164 -0.1598 -0.2257
  321SOL    HW3 1331   2.405   2.767   1.518  0.4093 -0.3631  0.1984
  321SOL    MW4 1332   2.478   2.807   1.493  0.1202 -0.1438 -0.2848
  322SOL     OW 1333   1.390   3.531   0.591 -0.2080 -0.1408 -0.0369
  322SOL    HW2 1334   1.387   3.491   0.678  0.0060  1.4084  0.6925
  322SOL    HW3 1335   1.390   3.625   0.607  0.7126  0.1680 -1.6878
  322SOL    MW4 1336   1.390   3.538   0.604 -0.0584  0.1047 -0.1584
  323SOL     OW 1337   3.144   2.230   0.195  0.5560 -0.1536  0.2163
  323SOL    HW2 1338   3.206   2.188   0.136  1.0187  1.1445 -0.2264
  323SOL    HW3 1339   3.160   2.189   0.280  0.2294 -1.6640 -0.4368
  323SOL    MW4 1340   3.154   2.219   0.199  0.5739 -0.1817  0.0718
  324SOL     OW 1341   0.463   0.640   0.741  0.1982 -0.3910 -0.2738
  324SOL    HW2 1342   0.440   0.552   0.770  1.1986 -1.3867 -2.4171
  324SOL    HW3 1343   0.546   0.658   0.786  0.6385 -1.0567 -0.8084
  324SOL    MW4 1344   0.471   0.631   0.751  0.3883 -0.6102 -0.6272
  325SOL     OW 1345   0.917   0.334   0.826  0.1937 -0.4287 -0.1916
  325SOL    HW2 1346   0.926   0.427   0.806 -0.7419 -0.2211  0.3006
  325SOL    HW3 1347   0.834   0.308   0.786 -0.4085 -0.6247  1.1512
  325SOL    MW4 1348   0.907   0.343   0.818 -0.0092 -0.4272  0.0505
  326SOL     OW 1349   1.464   2.126   0.463  0.0015 -0.4891  0.0559
  326SOL    HW2 1350   1.545   2.177   0.461  0.2753 -0.9239 -0.1650
  326SOL    HW3 1351   1.414   2.157   0.388  0.0098 -0.2866  0.1353
  326SOL    MW4 1352   1.468   2.137   0.453  0.0387 -0.5195  0.0372
  327SOL     OW 1353   3.002   1.864   0.447  0.0013  0.1961 -0.2241
  327SOL    HW2 1354   2.930   1.838   0.505  0.7427 -0.5227  0.3957
  327SOL    HW3 1355   3.054   1.784   0.437  1.4733  1.0428  0.4437
  327SOL    MW4 1356   3.000   1.850   0.453  0.2935  0.2130 -0.0542
  328SOL     OW 1357   0.789   2.552   0.562  0.0990  0.4515 -0.3587
  328SOL    HW2 1358   0.837   2.627   0.527 -0.6693  1.3448  0.4898
  328SOL    HW3 1359   0.838   2.527   0.641  0.3402  0.0551 -0.6260
  328SOL    MW4 1360   0.802   2.558   0.568  0.0294  0.5167 -0.2820
  329SOL     OW 1361   4.440   1.955   0.448 -0.4666  0.2988 -0.2530
  329SOL    HW2 1362   4.356   1.973   0.406 -0.1658  0.4365 -0.8018
  329SOL    HW3 1363   4.473   2.040   0.475 -1.4995  0.0328  1.8958
  329SOL    MW4 1364   4.433   1.968   0.446 -0.5631  0.2817 -0.0418
  330SOL     OW 1365   1.371   4.019   1.249  0.0613 -0.2203  0.0602
  330SOL    HW2 1366   1.367   4.102   1.201  0.5559 -0.4148 -0.3238
  330SOL    HW3 1367   1.315   3.959   1.198 -1.2809  0.2018  1.0042
  330SOL    MW4 1368   1.363   4.022   1.236 -0.0505 -0.1903  0.1340
  331SOL     OW 1369   0.455   1.642   1.199  0.2065  0.1625  0.0972
  331SOL    HW2 1370   0.460   1.630   1.294  1.4942 -0.5084 -0.0407
  331SOL    HW3 1371   0.530   1.593   1.165  0.8319  1.9237 -1.1374
  331SOL    MW4 1372   0.466   1.634   1.207  0.4589  0.3062 -0.0837
  332SOL     OW 1373   3.103   4.039   1.475 -0.4157  0.6278 -0.0948
  332SOL    HW2 1374   3.022   4.003   1.511  0.1021 -0.7234 -0.2314
  332SOL    HW3 1375   3.118   4.120   1.524 -0.5152 -0.4196  1.7141
  332SOL    MW4 1376   3.094   4.045   1.487 -0.3607  0.3119  0.1258
  333SOL     OW 1377   2.916   3.354   0.803  0.2818  0.0243 -0.0124
  333SOL    HW2 1378   2.914   3.264   0.834  0.4203 -0.1307 -0.4580
  333SOL    HW3 1379   3.001   3.388   0.830  0.2212  0.0275  0.1729
  333SOL    MW4 1380   2.927   3.347   0.811  0.2921  0.0041 -0.0468
  334SOL     OW 1381   1.064   1.821   0.746  0.3558 -0.7899 -0.1819
  334SOL    HW2 1382   1.147   1.862   0.769 -0.6078  2.1180 -1.6950
  334SOL    HW3 1383   1.074   1.797   0.654 -0.3034 -0.9212 -0.2248
  334SOL    MW4 1384   1.076   1.823   0.737  0.1415 -0.4236 -0.3871
  335SOL     OW 1385   3.636   3.777   0.722 -0.0646  0.1821 -0.1783
  335SOL    HW2 1386   3.717   3.806   0.764 -0.1468  0.6776 -0.3668
  335SOL    HW3 1387   3.651   3.685   0.702  0.1840  0.0840  0.4449
  335SOL    MW4 1388   3.649   3.769   0.725 -0.0427  0.2344 -0.1209
  336SOL     OW 1389   3.090   1.159   0.383 -0.1691  0.2037 -0.4241
  336SOL    HW2 1390   3.073   1.253   0.394 -0.9641  0.1964 -1.5142
  336SOL    HW3 1391   3.040   1.135   0.305 -0.6057 -1.2950  0.3118
  336SOL    MW4 1392   3.081   1.169   0.374 -0.3319  0.0051 -0.4708
  337SOL     OW 1393   4.041   0.371   0.863 -0.5061 -0.7330 -0.1917
  337SOL    HW2 1394   4.121   0.323   0.839 -0.6388 -0.8347 -0.4359
  337SOL    HW3 1395   3.970   0.311   0.840 -0.6833 -0.3110 -0.7341
  337SOL    MW4 1396   4.042   0.357   0.857 -0.5469 -0.6908 -0.2955
  338SOL     OW 1397   3.855   4.592   0.904  0.3822 -0.0195 -0.1261
  338SOL    HW2 1398   3.920   4.568   0.838  0.8763 -1.0562  0.7174
  338SOL    HW3 1399   3.771   4.572   0.862  0.6612 -0.0875 -0.6643
  338SOL    MW4 1400   3.852   4.586   0.889  0.4840 -0.1655 -0.0858
  339SOL     OW 1401   2.272   4.022   1.552  0.2298  0.3752 -0.0339
  339SOL    HW2 1402   2.335   3.956   1.582  0.4302  1.2154  1.4567
  339SOL    HW3 1403   2.276   4.017   1.457  4.0251  1.7365 -0.0602
  339SOL    MW4 1404   2.281   4.013   1.544  0.7567  0.6661  0.1594
  340SOL     OW 1405   3.281   3.710   0.507 -0.3839 -0.4185  0.0214
  340SOL    HW2 1406   3.270   3.704   0.602  1.9921 -1.0403  0.2929
  340SOL    HW3 1407   3.349   3.777   0.494 -0.6521 -0.3664 -1.2332
  340SOL    MW4 1408   3.289   3.718   0.518 -0.1061 -0.4940 -0.1083
  341SOL     OW 1409   0.913   1.118   1.118 -0.2839 -0.0088  0.0777
  341SOL    HW2 1410   0.899   1.099   1.026  0.8363 -0.6755  0.0420
  341SOL    HW3 1411   0.839   1.173   1.143 -1.2864 -0.9054 -0.8885
  341SOL    MW4 1412   0.901   1.123   1.109 -0.2683 -0.2153 -0.0545
  342SOL     OW 1413   4.333   0.312   0.543 -0.2739  0.0173  0.9656
  342SOL    HW2 1414   4.278   0.238   0.520 -0.1540  0.3994 -0.5658
  342SOL    HW3 1415   4.297   0.386   0.493  1.2623  0.3983  0.4144
  342SOL    MW4 1416   4.321   0.312   0.533 -0.0558  0.1180  0.6908
  343SOL     OW 1417   3.160   2.975   0.461  0.4772  1.0001 -0.1643
  343SOL    HW2 1418   3.100   2.919   0.412  0.0060  0.4015  1.0721
  343SOL    HW3 1419   3.129   3.064   0.445 -0.5191  0.7140  0.1704
  343SOL    MW4 1420   3.148   2.979   0.453  0.2837  0.8833  0.0431
  344SOL     OW 1421   1.711   2.283   0.462 -0.0539 -0.2698 -0.7307
  344SOL    HW2 1422   1.702   2.378   0.456 -0.1917 -0.2423 -0.1482
  344SOL    HW3 1423   1.738   2.268   0.553 -0.7746 -0.8482 -0.6127
  344SOL    MW4 1424   1.714   2.294   0.473 -0.1673 -0.3426 -0.6383
  345SOL     OW 1425   1.310   3.428   0.834 -0.2569 -0.4037  0.1461
  345SOL    HW2 1426   1.326   3.434   0.928  0.6975 -3.2427  0.2175
  345SOL    HW3 1427   1.215   3.424   0.825 -0.3650  0.2536  0.9302
  345SOL    MW4 1428   1.300   3.429   0.845 -0.1453 -0.6917  0.2590
  346SOL     OW 1429   0.481   1.911   0.354 -0.2804 -0.0289  0.0246
  346SOL    HW2 1430   0.516   1.978   0.412  0.4272  0.7384 -1.2510
  346SOL    HW3 1431   0.402   1.880   0.397  0.1103  0.6747  1.2786
  346SOL    MW4 1432   0.475   1.915   0.367 -0.1355  0.1651  0.0217
  347SOL     OW 1433   2.175   4.570   0.659  0.5851  0.0933  0.0821
  347SOL    HW2 1434   2.127   4.592   0.739 -0.0235  1.8071 -0.7316
  347SOL    HW3 1435   2.143   4.483   0.635 -2.0966  1.1588 -0.4021
  347SOL    MW4 1436   2.165   4.561   0.667  0.1509  0.4601 -0.0892
  348SOL     OW 1437   2.247   2.258   0.719  0.1774 -0.1876 -0.2366
  348SOL    HW2 1438   2.219   2.277   0.630 -1.2021 -1.8373 -0.1669
  348SOL    HW3 1439   2.178   2.295   0.774  0.3352 -0.3935  0.1003
  348SOL    MW4 1440   2.234   2.266   0.715  0.0162 -0.4325 -0.1830
  349SOL     OW 1441   1.334   1.690   1.252  0.0574 -0.6224  0.3602
  349SOL    HW2 1442   1.351   1.759   1.188 -0.9632 -0.7955 -0.1177
  349SOL    HW3 1443   1.259   1.642   1.216  1.1459 -2.3801  0.3638
  349SOL    MW4 1444   1.326   1.693   1.239  0.0664 -0.8770  0.2977
  350SOL     OW 1445   3.713   1.087   0.867 -0.0798  0.1433 -0.1782
  350SOL    HW2 1446   3.716   1.129   0.781  1.4310  1.9779  0.7412
  350SOL    HW3 1447   3.761   1.006   0.856 -2.1820 -0.9472 -1.7338
  350SOL    MW4 1448   3.719   1.082   0.854 -0.1576  0.2414 -0.2621
  351SOL     OW 1449   1.513   1.826   0.765  0.0553  0.3546  0.2483
  351SOL    HW2 1450   1.590   1.883   0.767  0.2925  0.1116 -1.5295
  351SOL    HW3 1451   1.488   1.823   0.673 -1.0454 -0.9702  0.5824
  351SOL    MW4 1452   1.520   1.833   0.753 -0.0587  0.1477  0.0578
  352SOL     OW 1453   2.939   2.279   1.075  0.0868  0.2888 -0.0982
  352SOL    HW2 1454   2.916   2.199   1.121 -1.8258  0.6752 -0.3398
  352SOL    HW3 1455   3.016   2.312   1.120  0.2263 -1.1088  0.6926
  352SOL    MW4 1456   2.946   2.273   1.087 -0.1471  0.1554 -0.0259
  353SOL     OW 1457   0.896   1.655   1.196  0.0642 -0.0562 -0.3929
  353SOL    HW2 1458   0.978   1.616   1.164 -0.3636 -0.3115 -1.1908
  353SOL    HW3 1459   0.907   1.749   1.182  1.8097  0.3291  3.1455
  353SOL    MW4 1460   0.908   1.662   1.190  0.2380 -0.0391 -0.0312
  354SOL     OW 1461   3.239   0.709   0.590  0.1121  0.4251 -0.0356
  354SOL    HW2 1462   3.330   0.729   0.568  0.1610  1.6094  1.2133
  354SOL    HW3 1463   3.244   0.627   0.639  0.4241  0.0778 -0.6403
  354SOL    MW4 1464   3.251   0.700   0.594  0.1597  0.5355  0.0494
  355SOL     OW 1465   0.292   3.715   0.461 -0.3653 -0.3074  0.0354
  355SOL    HW2 1466   0.339   3.774   0.402 -0.0673  0.3332  0.8945
  355SOL    HW3 1467   0.201   3.744   0.456 -0.3438 -0.2740 -0.1421
  355SOL    MW4 1468   0.286   3.727   0.453 -0.3231 -0.2186  0.1253
  356SOL     OW 1469   3.851   1.479   1.129 -0.3214  0.1572  0.3386
  356SOL    HW2 1470   3.902   1.557   1.152 -0.0640  0.0538  0.1204
  356SOL    HW3 1471   3.870   1.465   1.036 -1.2007  0.4615  0.1068
  356SOL    MW4 1472   3.860   1.488   1.119 -0.4032  0.1837  0.2791
  357SOL     OW 1473   1.850   3.409   0.380  0.0990 -0.0379 -0.4124
  357SOL    HW2 1474   1.860   3.464   0.458 -1.2518  0.7159 -0.7553
  357SOL    HW3 1475   1.864   3.320   0.412  0.9621  0.3790  0.4124
  357SOL    MW4 1476   1.854   3.404   0.395  0.0347  0.1168 -0.3488
  358SOL     OW 1477   4.254   4.638   0.351  0.4746 -0.1072  0.0705
  358SOL    HW2 1478   4.202   4.690   0.411  0.0602 -0.6342  0.1727
  358SOL    HW3 1479   4.260   4.691   0.272  0.2899  0.2149  0.2729
  358SOL    MW4 1480   4.248   4.652   0.348  0.3953 -0.1345  0.1107
  359SOL     OW 1481   0.204   3.348   0.800  0.0353 -0.1760 -0.0252
  359SOL    HW2 1482   0.128   3.387   0.845  0.1551 -0.6113  0.5670
  359SOL    HW3 1483   0.180   3.256   0.788  1.0245 -0.6493  1.4404
  359SOL    MW4 1484   0.191   3.341   0.805  0.1817 -0.2959  0.2463
  360SOL     OW 1485   2.929   2.310   0.792 -0.3225 -0.4217 -0.7260
  360SOL    HW2 1486   2.921   2.311   0.887 -1.3814 -0.0191 -0.8060
  360SOL    HW3 1487   2.856   2.255   0.762  0.2056 -0.8230 -1.2862
  360SOL    MW4 1488   2.918   2.303   0.800 -0.3927 -0.4215 -0.8105
  361SOL     OW 1489   3.157   1.653   1.138  0.2450 -0.4012 -0.2752
  361SOL    HW2 1490   3.233   1.600   1.117  1.1716  0.6718  0.3328
  361SOL    HW3 1491   3.157   1.660   1.233 -0.5622 -0.3200 -0.2703
  361SOL    MW4 1492   3.167   1.647   1.148  0.2606 -0.2489 -0.1943
  362SOL     OW 1493   3.169   2.754   0.207 -0.0250  0.6026  0.1126
  362SOL    HW2 1494   3.177   2.660   0.219 -0.1701  0.2752 -2.1886
  362SOL    HW3 1495   3.082   2.776   0.242  0.0704 -0.0737  0.7786
  362SOL    MW4 1496   3.159   2.745   0.213 -0.0315  0.4702 -0.1031
  363SOL     OW 1497   3.418   3.907   1.119  0.4096 -0.0031  0.4802
  363SOL    HW2 1498   3.393   3.816   1.135 -1.9627  0.3849 -0.7852
  363SOL    HW3 1499   3.342   3.958   1.147  2.0731  1.6829  2.0552
  363SOL    MW4 1500   3.405   3.902   1.125  0.3161  0.2706  0.5209
  364SOL     OW 1501   3.181   1.664   0.461 -0.1942  0.1002 -0.1970
  364SOL    HW2 1502   3.262   1.685   0.414  0.7022 -1.0867  0.7879
  364SOL    HW3 1503   3.204   1.672   0.554 -1.1685 -0.3487  0.0905
  364SOL    MW4 1504   3.195   1.667   0.467 -0.2046 -0.1156 -0.0291
  365SOL     OW 1505   0.312   1.075   0.321  0.2941  0.6587  0.2639
  365SOL    HW2 1506   0.344   0.988   0.300 -0.3995  0.5472 -0.3236
  365SOL    HW3 1507   0.392   1.128   0.329  0.6601  0.2280 -0.4973
  365SOL    MW4 1508   0.327   1.071   0.319  0.2509  0.5873  0.0860
  366SOL     OW 1509   1.566   3.140   1.088 -0.0472  0.7410  0.0726
  366SOL    HW2 1510   1.499   3.176   1.147  0.0590 -0.8928  1.2530
  366SOL    HW3 1511   1.646   3.187   1.111  0.1474 -0.3502  1.7623
  366SOL    MW4 1512   1.568   3.151   1.099 -0.0075  0.3815  0.4512
  367SOL     OW 1513   3.987   2.448   1.224  0.0232 -0.0404 -0.1615
  367SOL    HW2 1514   4.071   2.409   1.198 -0.3543 -0.6499 -0.4790
  367SOL    HW3 1515   3.989   2.447   1.320 -0.0126 -0.9113 -0.1672
  367SOL    MW4 1516   3.998   2.443   1.234 -0.0312 -0.2356 -0.2040
  368SOL     OW 1517   1.045   3.388   0.768  0.1421 -0.4703  0.0145
  368SOL    HW2 1518   1.035   3.382   0.673  0.2004  0.5451 -0.0598
  368SOL    HW3 1519   0.975   3.448   0.796 -0.3086 -1.2994  0.6992
  368SOL    MW4 1520   1.034   3.395   0.759  0.0904 -0.4458  0.0951
  369SOL     OW 1521   3.287   1.068   0.820 -0.2257  0.5464 -0.3091
  369SOL    HW2 1522   3.368   1.017   0.819 -0.2370  0.5211 -0.0648
  369SOL    HW3 1523   3.218   1.004   0.804 -0.1997  0.5614 -0.4775
  369SOL    MW4 1524   3.289   1.053   0.818 -0.2239  0.5450 -0.2992
  370SOL     OW 1525   1.748   1.090   0.293  0.3856 -0.3333  0.0147
  370SOL    HW2 1526   1.705   1.115   0.211  0.2547  0.3427  0.2883
  370SOL    HW3 1527   1.677   1.085   0.356  0.6958  0.7493  0.4603
  370SOL    MW4 1528   1.733   1.093   0.290  0.4094 -0.1013  0.1096
  371SOL     OW 1529   1.794   2.699   1.086  0.1530 -0.5732 -0.3187
  371SOL    HW2 1530   1.720   2.742   1.129  0.8864  0.6127 -0.2357
  371SOL    HW3 1531   1.798   2.613   1.128 -0.3976 -0.1807  0.5648
  371SOL    MW4 1532   1.785   2.693   1.097  0.1771 -0.3653 -0.1912
  372SOL     OW 1533   3.822   4.132   0.484  0.6492 -0.0634  0.0865
  372SOL    HW2 1534   3.727   4.137   0.474  0.6820 -0.0436 -0.2439
  372SOL    HW3 1535   3.838   4.147   0.577  0.3125 -0.2928  0.1799
  372SOL    MW4 1536   3.812   4.135   0.495  0.6092 -0.0916  0.0552
  373SOL     OW 1537   1.782   2.433   1.208  0.0127  0.1899 -0.0052
  373SOL    HW2 1538   1.705   2.400   1.162  0.5844 -0.4402 -0.5247
  373SOL    HW3 1539   1.854   2.377   1.177  0.6608  0.7249  0.5263
  373SOL    MW4 1540   1.781   2.421   1.198  0.1736  0.1774 -0.0036
  374SOL     OW 1541   0.289   2.410   0.714  0.1605 -0.0007  0.2177
  374SOL    HW2 1542   0.332   2.473   0.772  0.6411 -0.3802  0.2693
  374SOL    HW3 1543   0.218   2.460   0.674  1.0111  0.7975 -0.3178
  374SOL    MW4 1544   0.285   2.425   0.716  0.3362  0.0544  0.1538
  375SOL     OW 1545   1.176   4.001   0.339  0.2133 -0.3057  0.0635
  375SOL    HW2 1546   1.116   3.934   0.370 -0.8384 -0.2521 -1.8204
  375SOL    HW3 1547   1.257   3.985   0.388 -0.1563 -2.6589 -0.0439
  375SOL    MW4 1548   1.179   3.990   0.350  0.0257 -0.6092 -0.1993
  376SOL     OW 1549   3.119   2.937   0.742 -0.6600  0.4062 -0.1731
  376SOL    HW2 1550   3.129   2.938   0.647  0.7878  0.9982 -0.0217
  376SOL    HW3 1551   3.134   2.846   0.767 -1.4033  0.1789 -0.5401
  376SOL    MW4 1552   3.122   2.925   0.733 -0.5670  0.4542 -0.2016
  377SOL     OW 1553   2.244   0.925   1.228  0.1283  0.0762 -0.4937
  377SOL    HW2 1554   2.160   0.891   1.195  0.1641 -1.1643  0.6085
  377SOL    HW3 1555   2.310   0.888   1.169 -0.0582  0.5201 -0.9757
  377SOL    MW4 1556   2.241   0.915   1.216  0.1082 -0.0289 -0.4119
  378SOL     OW 1557   3.823   2.868   1.464  0.1885  0.2233 -0.1917
  378SOL    HW2 1558   3.900   2.815   1.482 -0.3236 -0.7655 -0.8802
  378SOL    HW3 1559   3.751   2.825   1.511  0.2292  1.7207  1.3056
  378SOL    MW4 1560   3.823   2.855   1.472  0.1261  0.2904 -0.0851
  379SOL     OW 1561   1.996   2.339   0.818  0.3548 -0.2671 -0.9783
  379SOL    HW2 1562   1.991   2.427   0.780  0.3772  0.0483 -0.2784
  379SOL    HW3 1563   1.913   2.298   0.794 -0.3482  0.5161  0.0224
  379SOL    MW4 1564   1.984   2.345   0.810  0.2650 -0.1221 -0.7539
  380SOL     OW 1565   0.892   0.345   1.097 -0.0150 -0.1375  0.2901
  380SOL    HW2 1566   0.896   0.344   1.002 -1.1745 -1.4769  0.2415
  380SOL    HW3 1567   0.887   0.253   1.122 -2.3626  0.2873  1.5181
  380SOL    MW4 1568   0.892   0.333   1.088 -0.4778 -0.2582  0.4457
  381SOL     OW 1569   0.232   0.734   1.169  0.3025  0.1190  0.0520
  381SOL    HW2 1570   0.143   0.765   1.182  0.6481  1.4716 -0.7428
  381SOL    HW3 1571   0.253   0.756   1.078  2.4531  2.4606  1.0463
  381SOL    MW4 1572   0.223   0.741   1.158  0.6319  0.6064  0.0783
  382SOL     OW 1573   3.652   0.412   0.847 -0.4278 -0.0447  0.2796
  382SOL    HW2 1574   3.578   0.374   0.799 -1.4607  0.8500  1.1317
  382SOL    HW3 1575   3.723   0.350   0.833 -0.9948 -0.3364 -1.5349
  382SOL    MW4 1576   3.651   0.399   0.839 -0.6392  0.0349  0.1525
  383SOL     OW 1577   2.349   1.128   0.447  0.1290  0.3381  0.5478
  383SOL    HW2 1578   2.285   1.194   0.423 -0.8217 -0.4254  0.9584
  383SOL    HW3 1579   2.309   1.082   0.521  0.9644 -0.4148  0.5363
  383SOL    MW4 1580   2.335   1.131   0.454  0.1140  0.1380  0.6005
  384SOL     OW 1581   0.963   1.404   0.815  0.3251 -0.3515 -0.6797
  384SOL    HW2 1582   0.885   1.459   0.806  0.6284  0.0642 -0.8023
  384SOL    HW3 1583   0.982   1.376   0.725  0.4438 -0.2767 -0.6773
  384SOL    MW4 1584   0.955   1.407   0.802  0.3808 -0.2869 -0.6956
  385SOL     OW 1585   0.670   1.518   1.101 -0.3330 -0.0309  0.6944
  385SOL    HW2 1586   0.735   1.581   1.130 -0.9028 -0.3042  2.6383
  385SOL    HW3 1587   0.674   1.522   1.006  2.7547 -0.2755  0.7526
  385SOL    MW4 1588   0.679   1.527   1.092 -0.0008 -0.0992  0.9586
  386SOL     OW 1589   3.770   0.135   0.525 -0.4923  0.9303  0.0441
  386SOL    HW2 1590   3.734   0.046   0.523  0.8293  0.3801 -0.2245
  386SOL    HW3 1591   3.698   0.191   0.498 -0.6941 -0.2900 -2.0445
  386SOL    MW4 1592   3.756   0.130   0.521 -0.3448  0.6967 -0.2669
  387SOL     OW 1593   2.915   0.507   1.256  0.1490  0.2554 -0.4552
  387SOL    HW2 1594   2.997   0.464   1.233  1.2759  0.5609  2.7650
  387SOL    HW3 1595   2.917   0.590   1.209  1.5926  0.1431 -0.6172
  387SOL    MW4 1596   2.926   0.512   1.247  0.4880  0.2809 -0.0516
  388SOL     OW 1597   2.478   3.973   0.825 -0.1095  0.1000 -0.4881
  388SOL    HW2 1598   2.393   3.929   0.824  0.1240 -0.4342  1.3988
  388SOL    HW3 1599   2.541   3.905   0.803  0.0473 -0.0069  0.2975
  388SOL    MW4 1600   2.475   3.959   0.822 -0.0584  0.0153 -0.1355
  389SOL     OW 1601   3.780   2.251   0.434  0.1266  0.2659 -0.5703
  389SOL    HW2 1602   3.775   2.345   0.451  0.3360  0.0268  0.8101
  389SOL    HW3 1603   3.870   2.227   0.456  0.1959 -0.1862 -1.3211
  389SOL    MW4 1604   3.792   2.260   0.439  0.1636  0.1750 -0.4873
  390SOL     OW 1605   3.246   0.150   0.374  0.4447 -0.2832  0.2956
  390SOL    HW2 1606   3.193   0.220   0.413  2.3541  0.4543  1.6585
  390SOL    HW3 1607   3.197   0.070   0.391 -0.5642  0.4512  0.9114
  390SOL    MW4 1608   3.233   0.149   0.382  0.5636 -0.0890  0.5567
  391SOL     OW 1609   2.284   4.007   1.272  0.1997 -0.3927  0.1501
  391SOL    HW2 1610   2.223   3.941   1.239 -1.6812  0.6715  1.4398
  391SOL    HW3 1611   2.367   3.986   1.228 -0.7068 -2.7232 -0.5505
  391SOL    MW4 1612   2.287   3.995   1.262 -0.1681 -0.5605  0.2278
  392SOL     OW 1613   1.366   2.798   0.854  0.6194 -0.4610  0.1788
  392SOL    HW2 1614   1.415   2.876   0.826 -0.6119 -0.5572 -2.4520
  392SOL    HW3 1615   1.367   2.801   0.949 -0.2539  3.3469  0.1456
  392SOL    MW4 1616   1.373   2.809   0.863  0.3419  0.0284 -0.1726
  393SOL     OW 1617   0.677   0.239   0.764 -0.3311  0.0857  0.0898
  393SOL    HW2 1618   0.598   0.285   0.791 -0.9314 -1.0725  0.3639
  393SOL    HW3 1619   0.671   0.154   0.807  0.3949 -0.5152 -0.9721
  393SOL    MW4 1620   0.666   0.234   0.773 -0.3145 -0.1464 -0.0142
  394SOL     OW 1621   0.081   2.193   0.535  0.3115 -0.5958 -0.6107
  394SOL    HW2 1622   0.063   2.281   0.500  2.3116 -0.4624 -1.3676
  394SOL    HW3 1623   0.075   2.204   0.629  2.1110  0.7684 -0.6103
  394SOL    MW4 1624   0.078   2.206   0.542  0.8128 -0.3982 -0.7105
  395SOL     OW 1625   2.454   1.554   1.104  0.1388  0.3188 -0.5601
  395SOL    HW2 1626   2.529   1.608   1.126 -0.0728  0.1210  0.6548
  395SOL    HW3 1627   2.468   1.473   1.152 -0.8446  0.2733 -0.3455
  395SOL    MW4 1628   2.466   1.550   1.113 -0.0188  0.2867 -0.3716
  396SOL     OW 1629   3.843   3.565   1.228 -0.5467 -0.1953 -0.2668
  396SOL    HW2 1630   3.778   3.506   1.189 -0.8866  0.3123 -0.4773
  396SOL    HW3 1631   3.824   3.562   1.322 -0.2879 -0.7500 -0.2332
  396SOL    MW4 1632   3.832   3.557   1.236 -0.5572 -0.2015 -0.2900
  397SOL     OW 1633   2.087   3.869   1.151  0.1835 -0.1271  0.3987
  397SOL    HW2 1634   2.006   3.898   1.195 -0.4621 -1.4245  0.0765
  397SOL    HW3 1635   2.099   3.779   1.181  0.9944 -0.2519 -0.3062
  397SOL    MW4 1636   2.078   3.861   1.161  0.2053 -0.3150  0.2631
  398SOL     OW 1637   0.467   4.280   0.798 -0.0198 -0.6907  0.0292
  398SOL    HW2 1638   0.452   4.279   0.892 -0.1046 -0.2737  0.0206
  398SOL    HW3 1639   0.452   4.371   0.772 -1.9835 -1.2002 -0.7060
  398SOL    MW4 1640   0.463   4.292   0.807 -0.2901 -0.7029 -0.0690
  399SOL     OW 1641   3.653   3.115   0.473 -0.0616 -0.0888  0.0356
  399SOL    HW2 1642   3.621   3.053   0.539 -0.4507  1.1318  1.0107
  399SOL    HW3 1643   3.610   3.197   0.494  1.8331  0.9791 -0.1152
  399SOL    MW4 1644   3.643   3.117   0.485  0.1369  0.2134  0.1444
  400SOL     OW 1645   0.404   2.408   1.230 -0.8462 -0.3838  0.1235
  400SOL    HW2 1646   0.420   2.426   1.322 -0.3360 -0.0978 -0.0143
  400SOL    HW3 1647   0.486   2.370   1.199 -1.3539 -1.3936  0.0185
  400SOL    MW4 1648   0.417   2.405   1.238 -0.8458 -0.4795  0.0914
  401SOL     OW 1649   1.599   3.556   0.835 -0.0271 -0.0712  0.1155
  401SOL    HW2 1650   1.516   3.571   0.880 -0.0963  0.4867 -0.1881
  401SOL    HW3 1651   1.634   3.644   0.821 -0.3037 -0.2013 -1.4740
  401SOL    MW4 1652   1.593   3.570   0.839 -0.0727 -0.0148 -0.1342
  402SOL     OW 1653   3.850   2.012   1.223 -0.2888 -0.1962 -0.6522
  402SOL    HW2 1654   3.774   1.958   1.201  0.0184 -0.4738 -1.0570
  402SOL    HW3 1655   3.857   2.006   1.319 -0.8772 -0.0250 -0.5992
  402SOL    MW4 1656   3.841   2.004   1.233 -0.3259 -0.2103 -0.6986
  403SOL     OW 1657   3.632   0.904   1.227  0.0536 -0.2133 -0.1718
  403SOL    HW2 1658   3.649   0.994   1.199 -0.5832  0.2954  1.0170
  403SOL    HW3 1659   3.710   0.855   1.201  0.3397  0.6578 -0.9553
  403SOL    MW4 1660   3.645   0.909   1.220  0.0074 -0.0312 -0.1184
  404SOL     OW 1661   3.337   3.106   0.788  0.3984 -0.3784  0.2667
  404SOL    HW2 1662   3.345   3.111   0.883  1.7662  0.7246  0.1016
  404SOL    HW3 1663   3.256   3.056   0.773  0.5586 -1.1805  1.9918
  404SOL    MW4 1664   3.327   3.100   0.798  0.6001 -0.3390  0.4726
  405SOL     OW 1665   2.346   1.830   0.422  0.0364 -0.3103 -0.0430
  405SOL    HW2 1666   2.340   1.924   0.408 -1.3110 -0.5361 -1.0148
  405SOL    HW3 1667   2.429   1.805   0.380  0.1002  0.3400 -0.3084
  405SOL    MW4 1668   2.356   1.839   0.414 -0.1330 -0.2543 -0.2062
  406SOL     OW 1669   0.020   4.264   0.830 -0.1200 -0.1847  0.0992
  406SOL    HW2 1670   0.020   4.254   0.925 -2.8023  1.4429  0.3179
  406SOL    HW3 1671  -0.059   4.219   0.801  0.0975  0.2691 -1.2419
  406SOL    MW4 1672   0.010   4.257   0.839 -0.4452  0.0901 -0.0489
  407SOL     OW 1673   4.013   2.952   0.258 -0.6491 -0.4067  0.2185
  407SOL    HW2 1674   4.061   2.874   0.284  1.3774  0.1294 -1.7716
  407SOL    HW3 1675   3.943   2.919   0.201  0.7270 -0.7125 -1.3147
  407SOL    MW4 1676   4.010   2.937   0.254 -0.1998 -0.3762 -0.2463
  408SOL     OW 1677   3.397   1.269   1.175  0.6945  0.0596  0.1324
  408SOL    HW2 1678   3.404   1.271   1.271 -1.0152 -2.0267  0.3282
  408SOL    HW3 1679   3.479   1.228   1.146  0.5901 -0.6246  0.7926
  408SOL    MW4 1680   3.409   1.264   1.184  0.4549 -0.3058  0.2452
  409SOL     OW 1681   4.294   0.025   1.099  0.0154 -0.0902  0.1440
  409SOL    HW2 1682   4.376   0.060   1.132  0.9567 -0.8323 -1.3476
  409SOL    HW3 1683   4.228   0.058   1.160  1.3287  1.0184  1.0097
  409SOL    MW4 1684   4.296   0.034   1.112  0.3123 -0.0420  0.0615
  410SOL     OW 1685   1.647   3.352   0.660  0.5244  0.3442  0.0892
  410SOL    HW2 1686   1.623   3.419   0.724 -1.7451 -2.2751  2.1150
  410SOL    HW3 1687   1.715   3.300   0.704 -0.3360 -0.8624  0.0392
  410SOL    MW4 1688   1.653   3.354   0.674  0.1115 -0.1609  0.3499
  411SOL     OW 1689   1.578   0.010   1.150 -0.1647 -0.1581 -0.4663
  411SOL    HW2 1690   1.551   0.017   1.058 -2.2836 -0.6223  0.0852
  411SOL    HW3 1691   1.593  -0.084   1.164  1.3045  0.0390 -0.6272
  411SOL    MW4 1692   1.576  -0.002   1.140 -0.2505 -0.1936 -0.4147
  412SOL     OW 1693   0.638   3.646   0.543  0.0670 -0.0693 -0.1128
  412SOL    HW2 1694   0.576   3.684   0.604  0.4916 -2.2308  1.7504
  412SOL    HW3 1695   0.662   3.718   0.484 -1.3504  1.7099  1.4352
  412SOL    MW4 1696   0.633   3.660   0.543 -0.0640 -0.1197  0.3372
  413SOL     OW 1697   0.855   1.552   0.398  0.6295  0.2497  0.5060
  413SOL    HW2 1698   0.912   1.500   0.454  2.1193  0.6608 -0.6132
  413SOL    HW3 1699   0.787   1.586   0.458  0.4310 -1.8199  1.4802
  413SOL    MW4 1700   0.853   1.550   0.414  0.7999  0.0309  0.4869
  414SOL     OW 1701   3.931   3.126   0.483 -0.0140  0.0799  0.3095
  414SOL    HW2 1702   3.940   3.079   0.400 -1.0165 -0.3659  0.4564
  414SOL    HW3 1703   3.839   3.152   0.486  0.2705  1.0809  0.7596
  414SOL    MW4 1704   3.920   3.123   0.472 -0.1087  0.1531  0.3883
  415SOL     OW 1705   2.296   3.224   1.238 -0.0925  0.6605 -0.2684
  415SOL    HW2 1706   2.207   3.188   1.233 -0.6490  1.7114  1.3844
  415SOL    HW3 1707   2.291   3.306   1.189  0.2081  0.2531 -0.9724
  415SOL    MW4 1708   2.283   3.230   1.231 -0.1264  0.7451 -0.1433
  416SOL     OW 1709   2.720   2.685   0.820 -0.2653 -0.4017  0.6632
  416SOL    HW2 1710   2.716   2.776   0.790  0.4011 -0.4506  0.4296
  416SOL    HW3 1711   2.798   2.649   0.779  0.4010 -0.5985  2.0617
  416SOL    MW4 1712   2.730   2.692   0.811 -0.0894 -0.4339  0.8168
  417SOL     OW 1713   2.780   2.363   0.377  0.1760 -0.3953 -0.0607
  417SOL    HW2 1714   2.740   2.445   0.347 -0.9816 -0.7147  0.5957
  417SOL    HW3 1715   2.807   2.319   0.296  0.2940  0.3683 -0.4419
  417SOL    MW4 1716   2.778   2.368   0.362  0.0386 -0.3369 -0.0244
  418SOL     OW 1717   4.234   0.990   0.518  0.0589 -0.2350  0.3145
  418SOL    HW2 1718   4.261   0.904   0.485  1.4519  0.3036 -0.0099
  418SOL    HW3 1719   4.293   1.052   0.475  0.1908  0.7262  1.8201
  418SOL    MW4 1720   4.246   0.987   0.508  0.2599 -0.0371  0.4703
  419SOL     OW 1721   0.215   1.817   0.446  0.0374  0.2616  0.6150
  419SOL    HW2 1722   0.130   1.846   0.413  0.2600  1.3421  0.9707
  419SOL    HW3 1723   0.225   1.728   0.411 -0.8912  0.4088 -0.0563
  419SOL    MW4 1724   0.205   1.809   0.437 -0.0558  0.4237  0.5734
  420SOL     OW 1725   0.104   0.194   0.484 -0.2739 -0.0673 -0.3848
  420SOL    HW2 1726   0.076   0.103   0.478 -0.3678 -0.0986  0.4768
  420SOL    HW3 1727   0.023   0.245   0.482 -0.1844  0.0461 -1.6212
  420SOL    MW4 1728   0.090   0.189   0.483 -0.2745 -0.0565 -0.4343
  421SOL     OW 1729   0.444   1.904   0.865 -0.0420 -0.1055 -0.0960
  421SOL    HW2 1730   0.371   1.874   0.811 -0.6581  0.1114  0.6064
  421SOL    HW3 1731   0.454   1.997   0.844 -0.6347  0.1080  0.5605
  421SOL    MW4 1732   0.436   1.912   0.855 -0.2015 -0.0488  0.0833
  422SOL     OW 1733   1.278   0.952   0.471  0.3165  0.1236  0.1238
  422SOL    HW2 1734   1.237   0.973   0.555  3.0860 -1.1057  1.8344
  422SOL    HW3 1735   1.245   0.864   0.450 -2.3295  1.4109 -1.3811
  422SOL    MW4 1736   1.268   0.943   0.479  0.3327  0.1312  0.1509
  423SOL     OW 1737   0.469   1.433   0.450  0.0610  0.1132 -0.2353
  423SOL    HW2 1738   0.376   1.453   0.446  0.2032  1.2988  1.7142
  423SOL    HW3 1739   0.512   1.519   0.452  1.1008 -0.4199  0.7716
  423SOL    MW4 1740   0.462   1.447   0.449  0.2170  0.1993  0.1548
  424SOL     OW 1741   1.380   0.393   1.135  0.3340 -0.6490 -0.0466
  424SOL    HW2 1742   1.294   0.402   1.177  0.4225 -0.8794  0.1839
  424SOL    HW3 1743   1.360   0.363   1.046  0.1510 -0.2179 -0.1544
  424SOL    MW4 1744   1.366   0.390   1.129  0.3216 -0.6225 -0.0305
  425SOL     OW 1745   1.969   3.158   0.518 -0.0214 -0.1189 -0.2845
  425SOL    HW2 1746   1.896   3.097   0.504  0.6132 -0.8734 -0.2760
  425SOL    HW3 1747   1.956   3.190   0.607  0.2423 -1.0308  0.0846
  425SOL    MW4 1748   1.957   3.155   0.528  0.0973 -0.3390 -0.2347
  426SOL     OW 1749   1.186   1.463   0.396 -0.2773 -0.0598 -0.5047
  426SOL    HW2 1750   1.183   1.557   0.381  2.5478  0.0491 -0.6255
  426SOL    HW3 1751   1.158   1.425   0.313 -1.2559  0.6766 -0.5144
  426SOL    MW4 1752   1.182   1.470   0.383 -0.0336  0.0517 -0.5219
  427SOL     OW 1753   1.153   2.412   0.593 -0.1882  0.0247  0.1169
  427SOL    HW2 1754   1.155   2.486   0.654 -1.0103  0.8230 -0.8226
  427SOL    HW3 1755   1.201   2.442   0.516  2.2672 -1.5619  0.9847
  427SOL    MW4 1756   1.159   2.426   0.591  0.0272 -0.0794  0.1075
  428SOL     OW 1757   0.442   0.095   1.245  0.0462 -0.1546 -0.5048
  428SOL    HW2 1758   0.440   0.173   1.189  1.4065  0.2368 -0.0191
  428SOL    HW3 1759   0.519   0.047   1.216 -1.5682 -2.0519 -1.7539
  428SOL    MW4 1760   0.452   0.099   1.234  0.0127 -0.3533 -0.6056
  429SOL     OW 1761   2.880   0.534   1.537  0.2576 -0.6247  0.0109
  429SOL    HW2 1762   2.885   0.515   1.443 -1.6658  0.3702 -0.3254
  429SOL    HW3 1763   2.907   0.626   1.543 -1.0487 -0.2529  0.2403
  429SOL    MW4 1764   2.885   0.544   1.525 -0.1686 -0.4444 -0.0031
  430SOL     OW 1765   0.944   0.608   0.778  0.0741 -0.3040  0.2339
  430SOL    HW2 1766   0.864   0.659   0.790  0.7099  0.7987 -0.1539
  430SOL    HW3 1767   0.966   0.618   0.686  0.6982 -0.5460  0.3494
  430SOL    MW4 1768   0.936   0.616   0.768  0.2403 -0.1905  0.1979
  431SOL     OW 1769   4.081   0.144   0.503 -0.1009  0.0192  0.1784
  431SOL    HW2 1770   4.060   0.062   0.547 -0.1285  0.5824  1.2196
  431SOL    HW3 1771   4.001   0.197   0.509 -0.0137  0.2123 -0.2941
  431SOL    MW4 1772   4.068   0.140   0.510 -0.0930  0.1190  0.2535
  432SOL     OW 1773   1.779   4.531   0.788  0.0983 -0.2733  0.3308
  432SOL    HW2 1774   1.863   4.569   0.814  0.6518 -1.7754  0.7946
  432SOL    HW3 1775   1.715   4.600   0.805  1.4653  1.6416 -1.9365
  432SOL    MW4 1776   1.782   4.545   0.794  0.3518 -0.2184  0.0929
  433SOL     OW 1777   2.254   1.939   1.105 -0.3997  0.3984  0.1687
  433SOL    HW2 1778   2.252   1.974   1.016 -1.8495 -1.3169 -0.4875
  433SOL    HW3 1779   2.324   1.988   1.148 -0.2946  1.8761 -1.6456
  433SOL    MW4 1780   2.263   1.950   1.099 -0.5772  0.3670 -0.1574
  434SOL     OW 1781   0.653   3.662   1.281  0.0955 -0.2660  0.5086
  434SOL    HW2 1782   0.654   3.658   1.376 -2.1065  1.0323  0.5995
  434SOL    HW3 1783   0.641   3.754   1.260  1.4121 -0.4190 -1.0504
  434SOL    MW4 1784   0.652   3.673   1.291 -0.0213 -0.1149  0.3151
  435SOL     OW 1785   4.157   1.174   0.845  0.3165  0.2848 -0.5553
  435SOL    HW2 1786   4.142   1.150   0.936 -2.9975  0.9717 -0.8783
  435SOL    HW3 1787   4.224   1.113   0.815  0.6852 -0.6262  2.0262
  435SOL    MW4 1788   4.164   1.163   0.853 -0.0720  0.2552 -0.2573
  436SOL     OW 1789   1.037   2.245   0.856 -0.1333  0.0826  0.4444
  436SOL    HW2 1790   1.115   2.227   0.803 -0.5487 -0.7434  0.0971
  436SOL    HW3 1791   0.985   2.165   0.849 -0.3197  0.0753  1.8953
  436SOL    MW4 1792   1.040   2.232   0.848 -0.2127 -0.0274  0.5900
  437SOL     OW 1793   2.215   2.559   0.348  0.3754  0.1739 -0.0103
  437SOL    HW2 1794   2.144   2.623   0.353 -0.4872 -0.7152 -0.6151
  437SOL    HW3 1795   2.286   2.598   0.399  0.3074  2.1612 -1.3945
  437SOL    MW4 1796   2.215   2.573   0.356  0.2527  0.3188 -0.2727
  438SOL     OW 1797   0.052   1.966   0.870  0.0751  0.4037 -0.3684
  438SOL    HW2 1798   0.052   1.953   0.965 -0.4155 -0.2854 -0.4559
  438SOL    HW3 1799   0.130   1.920   0.840 -0.6795 -0.8520 -0.4747
  438SOL    MW4 1800   0.062   1.958   0.879 -0.0892  0.1470 -0.3940
  439SOL     OW 1801   2.313   3.816   0.465 -0.7046  0.0155 -0.3610
  439SOL    HW2 1802   2.334   3.909   0.475  0.6352 -0.0557 -2.1942
  439SOL    HW3 1803   2.219   3.814   0.448 -0.8014  1.0055  0.0256
  439SOL    MW4 1804   2.304   3.828   0.464 -0.5405  0.1366 -0.5519
  440SOL     OW 1805   3.762   3.384   0.890  0.1745 -0.6008  0.7638
  440SOL    HW2 1806   3.856   3.402   0.899  0.0448  0.6427 -0.3042
  440SOL    HW3 1807   3.759   3.294   0.857  1.0727 -0.0092 -1.0179
  440SOL    MW4 1808   3.774   3.374   0.886  0.2759 -0.3586  0.3878
  441SOL     OW 1809   3.400   4.166   0.724  0.2342 -0.3087 -0.5558
  441SOL    HW2 1810   3.314   4.203   0.744  0.3225  0.1029 -0.9421
  441SOL    HW3 1811   3.402   4.083   0.772  0.3394  0.5454  0.9397
  441SOL    MW4 1812   3.389   4.160   0.733  0.2599 -0.1411 -0.4095
  442SOL     OW 1813   3.146   0.877   1.143  0.2655 -0.2363 -0.0257
  442SOL    HW2 1814   3.143   0.967   1.110  0.0948 -0.0054  0.6218
  442SOL    HW3 1815   3.161   0.886   1.237  1.2515 -0.9148 -0.1147
  442SOL    MW4 1816   3.148   0.890   1.151  0.3731 -0.2954  0.0479
  443SOL     OW 1817   0.045   3.321   0.405 -0.1585  0.3639 -0.2853
  443SOL    HW2 1818   0.137   3.345   0.418 -0.6301  1.9374  0.3055
  443SOL    HW3 1819   0.039   3.230   0.432  1.5518 -0.2384 -1.8363
  443SOL    MW4 1820   0.056   3.312   0.410  0.0050  0.4921 -0.4120
  444SOL     OW 1821   2.541   4.325   0.615 -0.2048  0.2350 -0.2087
  444SOL    HW2 1822   2.629   4.349   0.586 -0.3873  0.6839 -0.3902
  444SOL    HW3 1823   2.488   4.403   0.599 -0.2218  0.6379  1.7627
  444SOL    MW4 1824   2.546   4.338   0.609 -0.2308  0.3476  0.0274
  445SOL     OW 1825   4.479   3.495   1.163  0.1209 -0.3158  0.0178
  445SOL    HW2 1826   4.477   3.508   1.068  0.1990  0.9957  0.1807
  445SOL    HW3 1827   4.562   3.533   1.191 -0.6146  0.7755  0.7944
  445SOL    MW4 1828   4.490   3.502   1.154  0.0342  0.0010  0.1417
  446SOL     OW 1829   4.272   2.291   0.873 -0.5975  0.1837  0.1325
  446SOL    HW2 1830   4.264   2.373   0.825 -0.2791  0.5946  0.7805
  446SOL    HW3 1831   4.364   2.266   0.861 -0.5985  0.1200  0.2588
  446SOL    MW4 1832   4.283   2.298   0.865 -0.5555  0.2296  0.2346
  447SOL     OW 1833   1.368   0.353   0.402 -0.1549 -0.1554 -0.3424
  447SOL    HW2 1834   1.455   0.340   0.438 -0.5078 -0.2667  0.4982
  447SOL    HW3 1835   1.378   0.342   0.308  0.1087 -3.7448  0.0254
  447SOL    MW4 1836   1.381   0.349   0.394 -0.1667 -0.6436 -0.1829
  448SOL     OW 1837   2.322   0.175   0.408  0.5053 -0.2165 -0.1913
  448SOL    HW2 1838   2.347   0.082   0.414  0.7179 -0.0625  1.4673
  448SOL    HW3 1839   2.239   0.180   0.455  1.5964  0.8282  1.6821
  448SOL    MW4 1840   2.314   0.163   0.415  0.6771 -0.0583  0.2747
  449SOL     OW 1841   4.333   1.887   0.695  0.4097 -0.0378 -0.0170
  449SOL    HW2 1842   4.369   1.920   0.613  0.7791  0.2076  0.2412
  449SOL    HW3 1843   4.399   1.910   0.761  1.5625 -2.8682 -0.0838
  449SOL    MW4 1844   4.347   1.894   0.693  0.6108 -0.3790  0.0083
  450SOL     OW 1845   3.146   4.287   0.807 -0.4460 -0.2260 -0.0612
  450SOL    HW2 1846   3.162   4.375   0.772  0.6746 -0.3175  0.2014
  450SOL    HW3 1847   3.055   4.268   0.783 -0.4110  0.6333 -0.9261
  450SOL    MW4 1848   3.136   4.296   0.799 -0.2937 -0.1249 -0.1407
  451SOL     OW 1849   3.628   4.533   0.780  0.2862  0.0797  0.1651
  451SOL    HW2 1850   3.550   4.582   0.805  0.8014  0.4212  1.1191
  451SOL    HW3 1851   3.614   4.446   0.815 -0.3782 -0.3198 -1.0509
  451SOL    MW4 1852   3.616   4.528   0.788  0.2668  0.0720  0.1306
  452SOL     OW 1853   3.652   3.986   1.255 -0.1621 -0.1490  0.4482
  452SOL    HW2 1854   3.583   3.942   1.206 -1.2452  0.3947  1.4544
  452SOL    HW3 1855   3.624   3.982   1.346  1.4590 -0.4874  0.9519
  452SOL    MW4 1856   3.639   3.980   1.260 -0.0911 -0.1221  0.6474
  453SOL     OW 1857   2.429   1.570   0.828 -0.5790  0.0585  0.0138
  453SOL    HW2 1858   2.514   1.534   0.804 -0.4941  0.7721 -0.7571
  453SOL    HW3 1859   2.426   1.562   0.923  0.3491  0.0338  0.0443
  453SOL    MW4 1860   2.439   1.564   0.837 -0.4454  0.1494 -0.0840
  454SOL     OW 1861   2.424   2.683   0.480 -0.6326 -0.3286  0.1423
  454SOL    HW2 1862   2.421   2.778   0.484 -1.3301 -0.3611  0.5066
  454SOL    HW3 1863   2.439   2.655   0.571  0.6664 -0.5340 -0.1258
  454SOL    MW4 1864   2.426   2.692   0.493 -0.5531 -0.3600  0.1549
  455SOL     OW 1865   1.255   0.611   0.478  0.1048 -0.0254  0.4822
  455SOL    HW2 1866   1.304   0.541   0.435  0.2317  0.7266 -0.6080
  455SOL    HW3 1867   1.291   0.614   0.567  1.7602  0.2453 -0.1744
  455SOL    MW4 1868   1.266   0.602   0.484  0.3399  0.1096  0.2518
  456SOL     OW 1869   2.249   0.408   1.109 -0.3046 -0.0433  0.0466
  456SOL    HW2 1870   2.277   0.404   1.018 -0.2226 -0.6859  0.0959
  456SOL    HW3 1871   2.323   0.448   1.155 -0.5338  0.7202 -0.2380
  456SOL    MW4 1872   2.263   0.413   1.103 -0.3242 -0.0273  0.0154
  457SOL     OW 1873   3.544   4.020   1.506  0.0686  0.0994  0.1036
  457SOL    HW2 1874   3.466   3.979   1.541  0.3478 -0.1669  0.4153
  457SOL    HW3 1875   3.538   4.112   1.532  0.3049 -0.1085  0.9048
  457SOL    MW4 1876   3.533   4.026   1.514  0.1366  0.0372  0.2505
  458SOL     OW 1877   2.349   4.069   0.564 -0.1063 -0.5596 -0.1093
  458SOL    HW2 1878   2.426   4.111   0.527 -0.1236 -0.2798  0.1671
  458SOL    HW3 1879   2.378   4.036   0.650 -0.3236 -0.3471  0.0467
  458SOL    MW4 1880   2.363   4.070   0.571 -0.1373 -0.4945 -0.0523
  459SOL     OW 1881   0.988   2.261   0.423 -0.0731 -0.1016 -0.4556
  459SOL    HW2 1882   0.933   2.321   0.372  0.3106  0.9829  0.3794
  459SOL    HW3 1883   1.025   2.316   0.493  1.4313 -0.9920 -0.5311
  459SOL    MW4 1884   0.986   2.276   0.426  0.1760 -0.0763 -0.3555
  460SOL     OW 1885   4.470   2.688   1.132 -0.2613  0.1973 -0.2901
  460SOL    HW2 1886   4.473   2.684   1.036  0.4579  1.3334 -0.3308
  460SOL    HW3 1887   4.543   2.745   1.155  0.5062 -1.2702  1.0273
  460SOL    MW4 1888   4.480   2.695   1.122 -0.0652  0.1535 -0.1217
  461SOL     OW 1889   2.686   1.172   1.150 -0.0536  0.5282 -0.2420
  461SOL    HW2 1890   2.672   1.170   1.055  1.4328 -0.9349 -0.4466
  461SOL    HW3 1891   2.768   1.219   1.160 -1.2770  2.5799  0.4857
  461SOL    MW4 1892   2.695   1.178   1.139 -0.0188  0.6059 -0.1730
  462SOL     OW 1893   2.918   2.843   1.224  0.2824  0.4133  0.0066
  462SOL    HW2 1894   2.838   2.798   1.195  0.3759  0.2496  0.0040
  462SOL    HW3 1895   2.915   2.838   1.320  0.2536  0.4701  0.0088
  462SOL    MW4 1896   2.907   2.837   1.233  0.2909  0.3994  0.0066
  463SOL     OW 1897   2.448   0.030   1.084  0.0544 -0.2990 -0.4715
  463SOL    HW2 1898   2.515   0.068   1.141 -0.6837  0.3649 -0.0367
  463SOL    HW3 1899   2.368   0.078   1.105 -0.3236 -0.3415 -1.7773
  463SOL    MW4 1900   2.446   0.041   1.094 -0.0930 -0.2170 -0.5864
  464SOL     OW 1901   0.930   3.960   1.217 -0.0586  0.8350  0.1240
  464SOL    HW2 1902   0.914   3.969   1.311 -0.4871 -0.6869  0.2077
  464SOL    HW3 1903   0.847   3.930   1.180  0.1142  1.3954 -0.7336
  464SOL    MW4 1904   0.917   3.957   1.224 -0.0924  0.7081  0.0218
  465SOL     OW 1905   0.449   4.542   0.736  0.4133  0.1427 -0.0069
  465SOL    HW2 1906   0.528   4.561   0.786  0.7874  0.2159 -0.6229
  465SOL    HW3 1907   0.472   4.563   0.646 -0.7680  1.5769  0.0122
  465SOL    MW4 1908   0.462   4.547   0.731  0.3068  0.3409 -0.0857
  466SOL     OW 1909   0.867   3.526   1.152  0.9597  0.2950  0.0670
  466SOL    HW2 1910   0.957   3.537   1.183  1.1169 -0.7074  0.0081
  466SOL    HW3 1911   0.814   3.574   1.215  1.4741  0.1899  0.5895
  466SOL    MW4 1912   0.872   3.534   1.165  1.0483  0.1490  0.1283
  467SOL     OW 1913   1.834   3.973   1.248 -0.0004 -0.4338 -0.0826
  467SOL    HW2 1914   1.817   4.060   1.212  0.4452 -0.7447 -1.0593
  467SOL    HW3 1915   1.823   3.984   1.342  0.2923  0.7411 -0.1722
  467SOL    MW4 1916   1.831   3.986   1.256  0.0970 -0.3200 -0.2233
  468SOL     OW 1917   3.581   1.573   0.458 -0.2197 -0.1053 -0.4637
  468SOL    HW2 1918   3.558   1.485   0.487 -0.6135  0.8442  2.3119
  468SOL    HW3 1919   3.677   1.573   0.455 -0.1273 -0.0737  1.5599
  468SOL    MW4 1920   3.591   1.561   0.461 -0.2594  0.0242  0.1695
  469SOL     OW 1921   3.114   4.296   1.086  0.1008  0.1346 -0.0475
  469SOL    HW2 1922   3.184   4.336   1.138 -1.2076  0.5475  1.4179
  469SOL    HW3 1923   3.138   4.315   0.995  0.8532  1.9936  0.5254
  469SOL    MW4 1924   3.126   4.304   1.081  0.0279  0.4344  0.2214
  470SOL     OW 1925   2.994   3.694   0.491  0.2699 -0.4344 -0.1020
  470SOL    HW2 1926   2.971   3.604   0.516  0.9632 -0.2773  1.1333
  470SOL    HW3 1927   3.089   3.699   0.503 -0.1709  1.4192  2.9662
  470SOL    MW4 1928   3.004   3.683   0.496  0.3035 -0.1690  0.4658
  471SOL     OW 1929   4.269   2.069   1.249  0.0430 -0.0073  0.0119
  471SOL    HW2 1930   4.197   2.017   1.212  0.7233  1.0059 -2.8762
  471SOL    HW3 1931   4.257   2.157   1.212  1.5875  0.7180  1.1431
  471SOL    MW4 1932   4.258   2.074   1.239  0.3366  0.2222 -0.2199
  472SOL     OW 1933   4.250   2.817   1.234  0.2226  0.2138  0.3954
  472SOL    HW2 1934   4.328   2.774   1.199  1.0197  0.2184  2.0894
  472SOL    HW3 1935   4.256   2.907   1.202 -1.1854 -0.7620 -2.7369
  472SOL    MW4 1936   4.261   2.824   1.225  0.1421  0.0858  0.2055
  473SOL     OW 1937   2.472   2.597   0.734  0.5550  0.1035  0.3610
  473SOL    HW2 1938   2.456   2.506   0.761 -0.2179  0.8079  2.3584
  473SOL    HW3 1939   2.560   2.616   0.768  0.5751  0.2148  0.2447
  473SOL    MW4 1940   2.482   2.588   0.742  0.4556  0.2112  0.6092
  474SOL     OW 1941   2.298   3.546   0.814  0.1914 -0.1673  0.0774
  474SOL    HW2 1942   2.299   3.534   0.909  0.1101  0.2046  0.1270
  474SOL    HW3 1943   2.377   3.503   0.783 -0.3881 -1.3193  0.1892
  474SOL    MW4 1944   2.308   3.539   0.822  0.1042 -0.2699  0.0987
  475SOL     OW 1945   2.233   1.693   1.217 -0.1080 -0.8430  0.4931
  475SOL    HW2 1946   2.230   1.779   1.176  0.9604  0.3994  2.9016
  475SOL    HW3 1947   2.312   1.652   1.180 -0.5039 -0.7269 -0.5002
  475SOL    MW4 1948   2.243   1.699   1.207 -0.0193 -0.6636  0.6799
  476SOL     OW 1949   2.638   3.770   0.753  0.1090 -0.5990 -0.2752
  476SOL    HW2 1950   2.673   3.688   0.788  1.5612 -0.0778 -0.4480
  476SOL    HW3 1951   2.603   3.746   0.667  1.0096 -0.9526 -0.5584
  476SOL    MW4 1952   2.638   3.756   0.746  0.4196 -0.5770 -0.3353
  477SOL     OW 1953   0.439   0.814   0.295 -0.3926 -0.0223  0.2118
  477SOL    HW2 1954   0.496   0.760   0.240 -0.7816 -0.1013 -0.1185
  477SOL    HW3 1955   0.408   0.754   0.364  1.5776  0.5414  1.6254
  477SOL    MW4 1956   0.442   0.799   0.297 -0.1841  0.0417  0.3548
  478SOL     OW 1957   4.071   4.324   0.800 -0.2279 -0.4738  0.1568
  478SOL    HW2 1958   3.990   4.273   0.796 -0.2928 -0.3029 -0.8938
  478SOL    HW3 1959   4.082   4.344   0.893 -1.0857 -0.9847  0.3780
  478SOL    MW4 1960   4.062   4.320   0.812 -0.3500 -0.5193  0.0474
  479SOL     OW 1961   0.237   4.642   1.124 -0.0902  0.3435 -0.1139
  479SOL    HW2 1962   0.314   4.684   1.162  0.1487  1.1614 -1.4541
  479SOL    HW3 1963   0.164   4.700   1.148 -0.0064  0.6125 -0.5090
  479SOL    MW4 1964   0.238   4.655   1.132 -0.0476  0.4869 -0.3428
  480SOL     OW 1965   1.596   2.881   1.184 -0.1397 -0.4347 -0.0008
  480SOL    HW2 1966   1.591   2.968   1.145  1.0689 -1.2457 -2.0648
  480SOL    HW3 1967   1.516   2.837   1.157  0.6994 -0.9972 -1.6166
  480SOL    MW4 1968   1.585   2.887   1.175  0.1304 -0.6158 -0.4864
  481SOL     OW 1969   3.513   0.893   0.840  0.3658  0.3319  0.2680
  481SOL    HW2 1970   3.565   0.967   0.870 -0.0843  0.4454  0.8036
  481SOL    HW3 1971   3.489   0.847   0.921 -1.1451  0.8224  0.1117
  481SOL    MW4 1972   3.516   0.896   0.855  0.1070  0.4116  0.3181
  482SOL     OW 1973   1.325   0.838   1.274  0.4681 -0.1355 -0.1405
  482SOL    HW2 1974   1.414   0.812   1.251  1.1081  1.6137  0.3058
  482SOL    HW3 1975   1.318   0.929   1.246 -0.9768 -0.0668  0.3900
  482SOL    MW4 1976   1.336   0.846   1.268  0.3619  0.1044 -0.0116
  483SOL     OW 1977   0.230   3.934   0.286  0.3932 -0.1019 -0.1257
  483SOL    HW2 1978   0.149   3.937   0.235 -0.2974 -0.9611  0.8991
  483SOL    HW3 1979   0.229   4.014   0.338 -0.5198 -0.7889  0.9425
  483SOL    MW4 1980   0.219   3.945   0.286  0.1816 -0.3057  0.1505
  484SOL     OW 1981   3.405   2.035   0.339 -0.1075  0.2579 -0.8293
  484SOL    HW2 1982   3.396   1.946   0.304 -0.2105 -0.0881  0.0543
  484SOL    HW3 1983   3.323   2.050   0.386  1.4837 -0.6871  2.3702
  484SOL    MW4 1984   3.393   2.025   0.340  0.0887  0.0875 -0.2906
  485SOL     OW 1985   1.145   4.625   1.150  0.1521 -0.0780 -0.4755
  485SOL    HW2 1986   1.210   4.687   1.185 -0.3042  0.2562 -0.2194
  485SOL    HW3 1987   1.129   4.654   1.061 -1.1273  1.0374  0.1028
  485SOL    MW4 1988   1.152   4.637   1.143 -0.0769  0.1130 -0.3654
  486SOL     OW 1989   4.477   0.412   1.158 -0.0209 -0.1747 -0.9110
  486SOL    HW2 1990   4.493   0.405   1.064  0.9216  1.2123 -0.8719
  486SOL    HW3 1991   4.561   0.439   1.195 -0.7101  0.5690  0.1676
  486SOL    MW4 1992   4.490   0.415   1.151  0.0124  0.1064 -0.7635
  487SOL     OW 1993   2.989   0.067   0.895  0.4745 -0.0500  0.0338
  487SOL    HW2 1994   3.015   0.158   0.907 -1.6157  0.5404  0.2870
  487SOL    HW3 1995   2.991   0.031   0.984  0.4845 -0.0247  0.0441
  487SOL    MW4 1996   2.993   0.074   0.909  0.2000  0.0313  0.0685
  488SOL     OW 1997   0.199   0.730   1.576 -0.1605  0.5125  0.3557
  488SOL    HW2 1998   0.273   0.786   1.553  0.8510 -0.0335  2.2046
  488SOL    HW3 1999   0.126   0.766   1.525  0.8722  2.4002  0.1362
  488SOL    MW4 2000   0.199   0.742   1.567  0.1092  0.6896  0.5708
  489SOL     OW 2001   1.776   2.978   0.732 -0.1876  0.2312 -0.0106
  489SOL    HW2 2002   1.687   3.009   0.747  0.4441  1.4101  1.4100
  489SOL    HW3 2003   1.773   2.885   0.757 -1.1770  0.0763 -0.6613
  489SOL    MW4 2004   1.764   2.969   0.738 -0.2348  0.3662  0.0910
  490SOL     OW 2005   1.162   1.011   0.719  0.2928 -0.3836 -0.5475
  490SOL    HW2 2006   1.148   0.933   0.773 -1.3026  0.9917  1.1117
  490SOL    HW3 2007   1.226   1.063   0.767 -1.1834  0.8788  0.1113
  490SOL    MW4 2008   1.168   1.007   0.733 -0.1125 -0.0355 -0.2416
  491SOL     OW 2009   1.825   3.528   1.069  0.2938 -0.1425  0.0109
  491SOL    HW2 2010   1.827   3.439   1.104 -0.5401 -0.1829 -0.0488
  491SOL    HW3 2011   1.785   3.520   0.983  0.1525  0.3004  0.0332
  491SOL    MW4 2012   1.820   3.515   1.063  0.1652 -0.0892  0.0060
  492SOL     OW 2013   4.027   2.199   0.777  0.2511 -0.0162 -0.4472
  492SOL    HW2 2014   4.110   2.232   0.812 -0.0480  1.8719 -1.4668
  492SOL    HW3 2015   3.959   2.248   0.824 -0.2590 -0.5896 -0.5757
  492SOL    MW4 2016   4.029   2.210   0.788  0.1440  0.1574 -0.5986
  493SOL     OW 2017   3.839   0.844   0.867  0.1786  0.0733  0.6551
  493SOL    HW2 2018   3.807   0.771   0.814  0.1224 -0.3224  1.2264
  493SOL    HW3 2019   3.934   0.834   0.867  0.2194  0.4028  0.1702
  493SOL    MW4 2020   3.847   0.833   0.860  0.1767  0.0646  0.6665
  494SOL     OW 2021   3.348   3.112   1.072  0.4818  0.1287  0.1564
  494SOL    HW2 2022   3.364   3.021   1.097 -0.1254 -0.5040 -1.7060
  494SOL    HW3 2023   3.272   3.138   1.125 -0.7988 -1.2042 -0.9756
  494SOL    MW4 2024   3.340   3.103   1.082  0.2329 -0.1307 -0.2388
  495SOL     OW 2025   2.083   0.171   0.542 -0.2081 -0.2775 -0.3165
  495SOL    HW2 2026   2.046   0.083   0.544 -1.2356  0.1613  2.5450
  495SOL    HW3 2027   2.013   0.226   0.506 -1.2235  0.0201  2.0016
  495SOL    MW4 2028   2.068   0.167   0.538 -0.4776 -0.1803  0.3669
  496SOL     OW 2029   4.415   2.958   0.751 -0.2251  0.0674  0.2498
  496SOL    HW2 2030   4.427   2.980   0.659  1.4351 -0.8940  0.2204
  496SOL    HW3 2031   4.493   2.992   0.795  0.0191 -1.3628  0.9608
  496SOL    MW4 2032   4.427   2.965   0.745  0.0267 -0.2482  0.3397
  497SOL     OW 2033   3.747   3.089   0.840  0.2718 -0.0123  0.1961
  497SOL    HW2 2034   3.827   3.058   0.797  0.0747 -0.8355  0.4198
  497SOL    HW3 2035   3.677   3.039   0.798  0.0067 -0.2942  0.9659
  497SOL    MW4 2036   3.748   3.079   0.828  0.2110 -0.1581  0.3272
  498SOL     OW 2037   3.149   2.454   1.196 -0.0397 -0.3896  0.2171
  498SOL    HW2 2038   3.231   2.409   1.174  0.7072  0.8090  0.5188
  498SOL    HW3 2039   3.153   2.466   1.291 -0.3973 -0.0169  0.1864
  498SOL    MW4 2040   3.160   2.450   1.206  0.0117 -0.1824  0.2528
  499SOL     OW 2041   4.141   4.371   0.384 -0.1672 -0.0406  0.4384
  499SOL    HW2 2042   4.200   4.445   0.369 -0.1542  0.1686  1.5081
  499SOL    HW3 2043   4.200   4.296   0.396 -0.1169  0.1656  1.4899
  499SOL    MW4 2044   4.157   4.371   0.383 -0.1588  0.0138  0.7182
  500SOL     OW 2045   0.010   3.006   0.488  0.6115  0.0846 -0.4308
  500SOL    HW2 2046   0.082   2.958   0.448  0.5055 -0.0209 -0.4955
  500SOL    HW3 2047  -0.053   3.019   0.417 -0.3723 -1.6247  0.1110
  500SOL    MW4 2048   0.011   3.002   0.473  0.4678 -0.1547 -0.3679
  501SOL     OW 2049   0.224   3.109   1.117  0.0128 -0.6099  0.2329
  501SOL    HW2 2050   0.288   3.179   1.129  0.0411 -0.5134 -0.4578
  501SOL    HW3 2051   0.147   3.139   1.166  0.2648 -0.4109  0.5032
  501SOL    MW4 2052   0.222   3.122   1.125  0.0498 -0.5710  0.1775
  502SOL     OW 2053   1.796   0.948   1.228  0.4318  0.1924 -0.0957
  502SOL    HW2 2054   1.788   0.937   1.323  0.3293  0.8648 -0.0281
  502SOL    HW3 2055   1.722   0.897   1.192  0.5683 -0.1995  0.1729
  502SOL    MW4 2056   1.785   0.940   1.236  0.4363  0.2294 -0.0514
  503SOL     OW 2057   4.278   0.260   0.808  0.3538  0.2192 -0.1620
  503SOL    HW2 2058   4.273   0.165   0.814 -0.9542  0.2341 -0.7930
  503SOL    HW3 2059   4.291   0.278   0.715  2.2469  0.6068  0.1665
  503SOL    MW4 2060   4.279   0.250   0.797  0.4315  0.2723 -0.2019
  504SOL     OW 2061   0.213   3.666   1.227 -0.0306  0.5376 -0.4394
  504SOL    HW2 2062   0.299   3.629   1.205 -0.3175 -0.3263 -0.1587
  504SOL    HW3 2063   0.209   3.661   1.323 -1.6442 -2.3773 -0.5989
  504SOL    MW4 2064   0.224   3.660   1.237 -0.2813  0.0391 -0.4234
  505SOL     OW 2065   0.595   1.682   0.492  0.2271 -0.0607 -0.3012
  505SOL    HW2 2066   0.600   1.712   0.583  0.3202 -0.9305 -0.0095
  505SOL    HW3 2067   0.579   1.761   0.441 -0.7817  0.3178  0.5684
  505SOL    MW4 2068   0.593   1.696   0.497  0.1063 -0.1255 -0.1481
  506SOL     OW 2069   3.828   0.499   1.252 -0.4847  0.1247  0.0994
  506SOL    HW2 2070   3.840   0.584   1.210 -0.8919 -0.2654 -0.8111
  506SOL    HW3 2071   3.904   0.447   1.224  1.1896  1.0267  2.8006
  506SOL    MW4 2072   3.840   0.503   1.243 -0.3178  0.1922  0.3357
  507SOL     OW 2073   1.794   2.736   0.819  0.3516  0.1495 -0.1865
  507SOL    HW2 2074   1.723   2.677   0.795  1.7636 -1.8837  0.4799
  507SOL    HW3 2075   1.779   2.754   0.912  1.2154 -1.0267  0.1875
  507SOL    MW4 2076   1.783   2.731   0.828  0.6517 -0.2737 -0.0492
  508SOL     OW 2077   3.637   4.564   0.499 -0.0184 -0.1496  0.1014
  508SOL    HW2 2078   3.712   4.516   0.463 -0.1545  0.4241 -0.9507
  508SOL    HW3 2079   3.622   4.523   0.585  1.4478 -0.3151  0.2976
  508SOL    MW4 2080   3.645   4.552   0.506  0.1571 -0.0954 -0.0115
  509SOL     OW 2081   1.084   0.723   1.202  0.5332  0.4088 -0.2916
  509SOL    HW2 2082   1.088   0.630   1.223  1.6092  0.2762 -1.0439
  509SOL    HW3 2083   1.167   0.759   1.232  0.1123  1.1372  0.0256
  509SOL    MW4 2084   1.095   0.716   1.209  0.6196  0.4874 -0.3492
  510SOL     OW 2085   1.504   1.512   1.161  0.0329  0.6683  0.1247
  510SOL    HW2 2086   1.442   1.577   1.192 -2.3097 -0.8541 -1.2262
  510SOL    HW3 2087   1.507   1.524   1.066  0.3473 -0.5378 -0.0316
  510SOL    MW4 2088   1.496   1.522   1.153 -0.2347  0.3083 -0.0743
  511SOL     OW 2089   3.443   3.090   0.287  0.1171  0.0369  0.2967
  511SOL    HW2 2090   3.514   3.085   0.352 -2.1265  0.2309  2.8913
  511SOL    HW3 2091   3.405   3.177   0.299 -0.2377  0.1275 -1.4092
  511SOL    MW4 2092   3.447   3.101   0.297 -0.2258  0.0744  0.4139
  512SOL     OW 2093   0.174   2.578   0.269  0.2856 -0.5026  0.0842
  512SOL    HW2 2094   0.255   2.535   0.298 -0.1976 -0.6478  1.2514
  512SOL    HW3 2095   0.178   2.576   0.173  1.2731 -1.2507  0.1400
  512SOL    MW4 2096   0.185   2.572   0.260  0.3521 -0.6204  0.2456
  513SOL     OW 2097   2.686   2.703   1.094 -0.0996  0.7374 -0.1141
  513SOL    HW2 2098   2.694   2.615   1.131 -0.7885  1.8553  2.8869
  513SOL    HW3 2099   2.708   2.693   1.001  1.2044 -2.3242  0.4711
  513SOL    MW4 2100   2.690   2.690   1.087 -0.0186  0.4811  0.3591
  514SOL     OW 2101   2.851   2.211   0.159  0.1093  0.0962 -1.0864
  514SOL    HW2 2102   2.947   2.214   0.158  0.1174 -0.0208 -0.8091
  514SOL    HW3 2103   2.831   2.125   0.195 -0.1017  0.5192 -0.1890
  514SOL    MW4 2104   2.861   2.200   0.163  0.0827  0.1366 -0.9314
  515SOL     OW 2105   2.464   2.101   1.215  0.7336 -0.0739  0.3484
  515SOL    HW2 2106   2.444   2.173   1.155 -1.6374 -0.9127  0.0623
  515SOL    HW3 2107   2.530   2.049   1.171  0.7037  0.6108 -0.5058
  515SOL    MW4 2108   2.470   2.104   1.201  0.4170 -0.0942  0.1980
  516SOL     OW 2109   0.232   1.496   0.806 -0.0390 -0.6695 -0.3536
  516SOL    HW2 2110   0.324   1.471   0.796 -0.0379 -0.7338 -0.1785
  516SOL    HW3 2111   0.216   1.495   0.900 -0.1665 -0.4675 -0.3708
  516SOL    MW4 2112   0.242   1.493   0.817 -0.0556 -0.6512 -0.3328
  517SOL     OW 2113   3.147   1.913   1.084 -0.4011 -0.3365 -0.0255
  517SOL    HW2 2114   3.146   1.817   1.085  2.3714 -0.4765 -2.7621
  517SOL    HW3 2115   3.208   1.937   1.154  0.1233 -0.6032 -0.3966
  517SOL    MW4 2116   3.155   1.903   1.094  0.0339 -0.3902 -0.4355
  518SOL     OW 2117   4.298   1.585   0.681 -0.1507  0.2238  0.3150
  518SOL    HW2 2118   4.249   1.552   0.757 -1.1410  0.9573 -0.0003
  518SOL    HW3 2119   4.314   1.677   0.701 -0.4668  0.4368 -0.3911
  518SOL    MW4 2120   4.293   1.593   0.694 -0.3228  0.3487  0.1802
  519SOL     OW 2121   3.506   1.763   0.650  0.3700 -0.2075  0.2225
  519SOL    HW2 2122   3.556   1.830   0.603 -0.3303  0.0601 -0.1415
  519SOL    HW3 2123   3.518   1.684   0.598  1.4651 -0.4474  0.8274
  519SOL    MW4 2124   3.514   1.762   0.637  0.4220 -0.2038  0.2542
  520SOL     OW 2125   3.647   1.880   0.869 -0.2733  0.3220  0.1002
  520SOL    HW2 2126   3.584   1.849   0.804 -1.1853  1.3708  0.4596
  520SOL    HW3 2127   3.633   1.975   0.872 -0.3498  0.2796  1.9137
  520SOL    MW4 2128   3.637   1.889   0.861 -0.4036  0.4549  0.3870
  521SOL     OW 2129   2.904   2.018   1.177  0.2371  0.1986 -0.1817
  521SOL    HW2 2130   2.926   2.020   1.270 -0.5710  0.6991  0.0064
  521SOL    HW3 2131   2.985   1.993   1.133  1.3858  2.7248  0.4199
  521SOL    MW4 2132   2.917   2.015   1.183  0.2823  0.5982 -0.0776
  522SOL     OW 2133   1.146   3.883   0.840 -0.3195  0.4052  0.5924
  522SOL    HW2 2134   1.056   3.855   0.824  0.5885 -2.6619  0.6181
  522SOL    HW3 2135   1.199   3.828   0.783  1.6111  1.7943  1.0024
  522SOL    MW4 2136   1.141   3.872   0.830  0.0550  0.1838  0.6499
  523SOL     OW 2137   2.796   0.603   0.704  0.0065 -0.2138  0.1512
  523SOL    HW2 2138   2.857   0.626   0.634 -0.8697 -0.8834 -0.8616
  523SOL    HW3 2139   2.800   0.676   0.765  0.4333  0.6016 -0.8409
  523SOL    MW4 2140   2.805   0.615   0.703 -0.0525 -0.1945 -0.1134
  524SOL     OW 2141   0.626   2.830   1.226 -0.0798  0.0670 -0.7551
  524SOL    HW2 2142   0.711   2.794   1.200  0.2986  0.5820 -0.2422
  524SOL    HW3 2143   0.562   2.768   1.190  0.5431 -0.8085 -0.3852
  524SOL    MW4 2144   0.629   2.817   1.218  0.0523  0.0196 -0.6386
  525SOL     OW 2145   1.026   3.364   0.490  0.6179  0.2226 -0.4015
  525SOL    HW2 2146   1.050   3.442   0.439  1.0705  0.5349  0.2804
  525SOL    HW3 2147   1.102   3.306   0.482  0.7377  0.3196  0.0007
  525SOL    MW4 2148   1.039   3.367   0.482  0.6933  0.2766 -0.2585
  526SOL     OW 2149   0.434   3.256   1.214  0.2536  0.0743  0.3449
  526SOL    HW2 2150   0.453   3.344   1.184 -0.6422  0.0122 -0.4262
  526SOL    HW3 2151   0.509   3.204   1.184  0.2484  0.3613 -0.1760
  526SOL    MW4 2152   0.446   3.260   1.206  0.1347  0.1040  0.1744
  527SOL     OW 2153   2.674   0.905   1.225 -0.4315  0.0996  0.2569
  527SOL    HW2 2154   2.630   0.882   1.143  0.1803  0.5615 -0.2016
  527SOL    HW3 2155   2.676   1.000   1.226  1.3259  0.0899 -0.1559
  527SOL    MW4 2156   2.668   0.914   1.215 -0.1187  0.1593  0.1417
  528SOL     OW 2157   1.144   4.377   1.245  0.0190  0.3784  0.2718
  528SOL    HW2 2158   1.113   4.378   1.336 -0.5527  0.2400  0.0786
  528SOL    HW3 2159   1.127   4.465   1.212  0.8988  0.6489  0.5202
  528SOL    MW4 2160   1.138   4.389   1.253  0.0597  0.3958  0.2792
  529SOL     OW 2161   3.564   3.198   1.246  0.1248 -0.2401  0.0985
  529SOL    HW2 2162   3.634   3.152   1.200  0.1802 -0.1134  0.0537
  529SOL    HW3 2163   3.483   3.166   1.206  0.1187 -0.9355  0.6522
  529SOL    MW4 2164   3.562   3.188   1.235  0.1314 -0.3150  0.1656
  530SOL     OW 2165   1.894   1.540   0.265  0.0373  0.4184 -0.0223
  530SOL    HW2 2166   1.911   1.447   0.285 -0.8960  0.4124  0.7699
  530SOL    HW3 2167   1.978   1.583   0.284  0.2942 -0.1733  0.2212
  530SOL    MW4 2168   1.908   1.533   0.270 -0.0520  0.3395  0.1144
  531SOL     OW 2169   0.442   4.287   1.064 -0.0539  0.2466 -0.3288
  531SOL    HW2 2170   0.517   4.316   1.116 -0.0959  0.2475 -0.2677
  531SOL    HW3 2171   0.366   4.303   1.121 -0.0224 -0.5485 -0.0489
  531SOL    MW4 2172   0.442   4.293   1.079 -0.0553  0.1421 -0.2838
  532SOL     OW 2173   0.896   3.777   0.739  0.5954  0.5430  0.2418
  532SOL    HW2 2174   0.921   3.768   0.647  0.7596 -0.8846  0.4126
  532SOL    HW3 2175   0.874   3.688   0.767 -2.6721  1.4211  0.6717
  532SOL    MW4 2176   0.897   3.764   0.731  0.1860  0.4704  0.3210
  533SOL     OW 2177   4.162   1.449   0.875 -0.6769 -0.4605 -0.5436
  533SOL    HW2 2178   4.171   1.355   0.860  0.4133 -0.3306 -0.7765
  533SOL    HW3 2179   4.208   1.465   0.957 -0.1685 -0.0154 -0.9090
  533SOL    MW4 2180   4.169   1.439   0.884 -0.4659 -0.3847 -0.6226
  534SOL     OW 2181   2.014   3.884   0.870 -0.0787 -0.0720  0.2166
  534SOL    HW2 2182   2.094   3.851   0.828 -0.0824 -0.5516  0.5876
  534SOL    HW3 2183   2.029   3.872   0.964 -0.1081  0.9170  0.3608
  534SOL    MW4 2184   2.027   3.878   0.877 -0.0832 -0.0048  0.2846
  535SOL     OW 2185   0.204   4.369   1.208 -0.4787  0.4459 -0.0805
  535SOL    HW2 2186   0.228   4.458   1.184 -1.0467  0.4985 -0.4637
  535SOL    HW3 2187   0.207   4.367   1.303 -0.6172  0.9140 -0.0682
  535SOL    MW4 2188   0.207   4.380   1.217 -0.5720  0.5150 -0.1293
  536SOL     OW 2189   1.173   3.861   1.120  0.4668 -0.0403 -0.0776
  536SOL    HW2 2190   1.090   3.896   1.152  0.3597  0.7225 -1.1310
  536SOL    HW3 2191   1.167   3.870   1.025  0.6842 -2.4294 -0.3339
  536SOL    MW4 2192   1.162   3.867   1.111  0.4815 -0.2549 -0.2505
  537SOL     OW 2193   0.858   0.870   1.229 -0.0122 -0.1717 -0.0525
  537SOL    HW2 2194   0.937   0.818   1.211 -0.7456 -0.7451 -1.7020
  537SOL    HW3 2195   0.873   0.953   1.185  0.2991  0.2601  0.8744
  537SOL    MW4 2196   0.870   0.874   1.221 -0.0679 -0.1904 -0.1478
  538SOL     OW 2197   0.905   1.185   1.912 -0.2877  0.4832  0.6175
  538SOL    HW2 2198   0.819   1.219   1.939 -0.9697 -0.7115 -0.0338
  538SOL    HW3 2199   0.897   1.169   1.818  0.6290  0.2888  0.5659
  538SOL    MW4 2200   0.893   1.187   1.903 -0.2568  0.3000  0.5248
  539SOL     OW 2201   0.896   0.873   0.425  0.0078  0.5774 -0.4070
  539SOL    HW2 2202   0.868   0.866   0.334 -0.0498 -0.4511 -0.3109
  539SOL    HW3 2203   0.816   0.898   0.472 -0.1120  0.4505 -0.5427
  539SOL    MW4 2204   0.882   0.876   0.419 -0.0156  0.4249 -0.4122
  540SOL     OW 2205   2.881   1.553   0.791 -0.0592  0.4323  0.2630
  540SOL    HW2 2206   2.954   1.499   0.760 -0.6461 -1.1455  1.5678
  540SOL    HW3 2207   2.886   1.547   0.887 -2.3500 -0.3257  0.3583
  540SOL    MW4 2208   2.891   1.545   0.800 -0.4389  0.1241  0.4478
  541SOL     OW 2209   0.571   1.213   0.342  0.4849 -0.0346 -0.3266
  541SOL    HW2 2210   0.641   1.239   0.283  0.9619  1.2422  0.7747
  541SOL    HW3 2211   0.545   1.294   0.387 -1.9654 -0.4072 -0.9912
  541SOL    MW4 2212   0.577   1.227   0.340  0.2245  0.0848 -0.2690
  542SOL     OW 2213   2.721   1.482   0.462 -0.1778 -0.1257 -0.0105
  542SOL    HW2 2214   2.679   1.563   0.433  3.5907  1.9331 -0.1017
  542SOL    HW3 2215   2.697   1.473   0.554 -1.8670  0.2464 -0.4128
  542SOL    MW4 2216   2.713   1.491   0.470  0.0966  0.1949 -0.0756
  543SOL     OW 2217   1.304   1.087   1.151 -0.0089  0.2684  0.4150
  543SOL    HW2 2218   1.309   1.108   1.058  1.1708  1.1159  0.6631
  543SOL    HW3 2219   1.240   1.148   1.186 -1.5173 -0.9807 -0.0780
  543SOL    MW4 2220   1.296   1.098   1.143 -0.0521  0.2153  0.3827
  544SOL     OW 2221   0.192   1.497   0.410 -0.6251  0.3501 -0.3626
  544SOL    HW2 2222   0.149   1.471   0.492  0.6775 -0.6886 -0.0019
  544SOL    HW3 2223   0.179   1.422   0.352 -0.7535  0.7231 -0.8174
  544SOL    MW4 2224   0.184   1.484   0.413 -0.4702  0.2624 -0.3750
  545SOL     OW 2225   2.424   4.581   0.563 -0.1279 -0.0626 -0.1228
  545SOL    HW2 2226   2.467   4.626   0.635  0.6443 -1.1288  0.0988
  545SOL    HW3 2227   2.333   4.571   0.592 -0.6505  2.5259 -0.7507
  545SOL    MW4 2228   2.417   4.585   0.576 -0.0947  0.1383 -0.1764
  546SOL     OW 2229   3.516   2.864   0.125 -0.2006  0.3297  0.3300
  546SOL    HW2 2230   3.548   2.954   0.131  1.8094 -0.2954 -0.5129
  546SOL    HW3 2231   3.595   2.810   0.130 -1.4479 -1.4252  1.4979
  546SOL    MW4 2232   3.530   2.868   0.126 -0.0999  0.0155  0.3729
  547SOL     OW 2233   0.450   0.337   1.120  0.3716 -0.3295 -0.0809
  547SOL    HW2 2234   0.384   0.383   1.171  1.2991 -1.2294  1.9994
  547SOL    HW3 2235   0.534   0.371   1.151  0.9405  0.5246 -2.4182
  547SOL    MW4 2236   0.453   0.347   1.131  0.5690 -0.3355 -0.1148
  548SOL     OW 2237   0.474   4.054   1.217  0.6948 -0.2146  0.3284
  548SOL    HW2 2238   0.469   4.140   1.175  0.8793  0.7277  2.1824
  548SOL    HW3 2239   0.390   4.012   1.195  0.1684  0.8484  0.2655
  548SOL    MW4 2240   0.462   4.060   1.208  0.6497  0.0496  0.5646
  549SOL     OW 2241   0.711   1.532   0.811 -0.6273 -0.5426 -0.3307
  549SOL    HW2 2242   0.635   1.491   0.770 -1.8219  1.9649 -0.7284
  549SOL    HW3 2243   0.698   1.626   0.797  1.5449  0.0528  1.3367
  549SOL    MW4 2244   0.699   1.539   0.804 -0.4984 -0.1333 -0.1631
  550SOL     OW 2245   3.373   2.256   1.140 -0.2123 -0.2632  0.4797
  550SOL    HW2 2246   3.382   2.260   1.045 -0.4427  0.9920  0.5027
  550SOL    HW3 2247   3.454   2.293   1.173 -0.3896 -0.1247  0.7614
  550SOL    MW4 2248   3.385   2.262   1.132 -0.2661 -0.0794  0.5199
  551SOL     OW 2249   0.871   1.926   1.133 -0.1859 -0.0542  0.3771
  551SOL    HW2 2250   0.949   1.968   1.168 -0.4879  2.0627 -1.3922
  551SOL    HW3 2251   0.801   1.989   1.148 -1.3203 -1.3558  0.7042
  551SOL    MW4 2252   0.872   1.940   1.140 -0.3754  0.0533  0.1868
  552SOL     OW 2253   0.018   1.657   1.227 -0.0154  0.0288  0.0214
  552SOL    HW2 2254   0.008   1.749   1.204 -1.2781  0.3066  1.5618
  552SOL    HW3 2255  -0.063   1.616   1.196  0.6308 -0.6129 -0.8434
  552SOL    MW4 2256   0.006   1.664   1.220 -0.0968 -0.0193  0.1105
  553SOL     OW 2257   3.712   3.522   0.655  0.3059  0.1114  0.2837
  553SOL    HW2 2258   3.638   3.472   0.620 -0.2314  0.3923  1.0085
  553SOL    HW3 2259   3.751   3.465   0.722  1.2473 -0.3706 -0.6601
  553SOL    MW4 2260   3.708   3.508   0.659  0.3593  0.0846  0.2547
  554SOL     OW 2261   1.034   1.328   0.567 -0.7514 -0.0189  0.1214
  554SOL    HW2 2262   1.039   1.250   0.512  1.3618 -0.8424  1.4524
  554SOL    HW3 2263   1.088   1.393   0.521  1.7817 -0.9938  1.6195
  554SOL    MW4 2264   1.042   1.326   0.554 -0.1384 -0.2561  0.4946
  555SOL     OW 2265   0.341   0.628   0.492 -0.0978  0.6124  0.4001
  555SOL    HW2 2266   0.379   0.641   0.579 -0.8486  0.2419  0.7833
  555SOL    HW3 2267   0.387   0.551   0.458 -1.7759 -0.9607  1.6012
  555SOL    MW4 2268   0.352   0.619   0.499 -0.4183  0.3559  0.6091
  556SOL     OW 2269   3.125   3.255   0.463  0.4693  0.2010  0.0865
  556SOL    HW2 2270   3.171   3.302   0.392  0.8788  0.6642  0.6537
  556SOL    HW3 2271   3.058   3.317   0.492  0.1990 -0.0518 -0.0048
  556SOL    MW4 2272   3.122   3.270   0.457  0.4878  0.2286  0.1493
  557SOL     OW 2273   0.622   3.348   0.803  0.4373 -0.3671  0.1028
  557SOL    HW2 2274   0.615   3.340   0.708  0.1125  1.0494 -0.0134
  557SOL    HW3 2275   0.551   3.408   0.827  1.2285  0.1923  1.0848
  557SOL    MW4 2276   0.612   3.355   0.793  0.4988 -0.1063  0.2170
  558SOL     OW 2277   1.495   1.242   1.239 -0.3491 -0.3121  0.4412
  558SOL    HW2 2278   1.424   1.192   1.200 -0.8081 -0.2843  1.2345
  558SOL    HW3 2279   1.495   1.325   1.192 -1.2849 -0.0520  0.8893
  558SOL    MW4 2280   1.486   1.247   1.228 -0.5331 -0.2741  0.6050
  559SOL     OW 2281   2.132   1.623   0.399  0.2492  0.1404  0.3468
  559SOL    HW2 2282   2.203   1.687   0.392  0.4834  0.3347  3.7935
  559SOL    HW3 2283   2.175   1.544   0.431 -0.6837 -0.5971 -0.1952
  559SOL    MW4 2284   2.147   1.621   0.402  0.1569  0.0688  0.7300
  560SOL     OW 2285   0.208   2.796   0.442 -0.0258  0.3183  0.1032
  560SOL    HW2 2286   0.297   2.831   0.449  0.0213  0.1098  0.5482
  560SOL    HW3 2287   0.215   2.724   0.380 -0.0070  0.7182 -0.3574
  560SOL    MW4 2288   0.221   2.792   0.435 -0.0171  0.3438  0.1012
  561SOL     OW 2289   0.647   2.344   1.127  0.3472 -0.2166 -0.0228
  561SOL    HW2 2290   0.654   2.248   1.130 -1.8020 -0.5123 -2.1193
  561SOL    HW3 2291   0.726   2.376   1.169  0.2977 -2.9195  2.2836
  561SOL    MW4 2292   0.658   2.335   1.133  0.0571 -0.6120  0.0049
  562SOL     OW 2293   4.121   0.822   0.853 -0.3732  0.3608  0.2791
  562SOL    HW2 2294   4.115   0.748   0.793 -0.5807  0.7836 -0.2298
  562SOL    HW3 2295   4.149   0.895   0.798  1.4323  0.2942  1.0850
  562SOL    MW4 2296   4.124   0.822   0.838 -0.1621  0.4078  0.3183
  563SOL     OW 2297   0.019   3.228   1.247 -0.1094 -0.4572 -0.1813
  563SOL    HW2 2298   0.000   3.320   1.230  0.5742 -0.0096  1.3916
  563SOL    HW3 2299  -0.063   3.183   1.226 -0.8213  0.6552  0.1539
  563SOL    MW4 2300   0.005   3.234   1.242 -0.1130 -0.2515  0.0706
  564SOL     OW 2301   2.020   0.536   1.231 -0.6498 -0.3065  0.5496
  564SOL    HW2 2302   2.045   0.501   1.317 -0.8670 -2.2978 -0.1573
  564SOL    HW3 2303   2.093   0.514   1.174 -0.5523  0.9257  0.2031
  564SOL    MW4 2304   2.033   0.528   1.235 -0.6657 -0.4067  0.4107
  565SOL     OW 2305   2.909   1.548   1.054  0.1981 -0.0437 -0.1073
  565SOL    HW2 2306   2.907   1.462   1.096  0.9160 -0.2379 -0.4460
  565SOL    HW3 2307   2.998   1.580   1.070  0.3895  0.0018 -1.2291
  565SOL    MW4 2308   2.921   1.541   1.062  0.3183 -0.0633 -0.3000
  566SOL     OW 2309   1.409   3.209   0.673 -0.6796 -0.0712 -0.0390
  566SOL    HW2 2310   1.346   3.257   0.727 -2.3265 -1.0653 -1.0299
  566SOL    HW3 2311   1.483   3.269   0.663 -1.1246  0.8384  1.7667
  566SOL    MW4 2312   1.410   3.223   0.679 -0.9556 -0.0823  0.0685
  567SOL     OW 2313   1.439   1.364   0.515  0.2806 -0.1783 -0.1421
  567SOL    HW2 2314   1.426   1.401   0.603  0.3155  1.0134 -0.6258
  567SOL    HW3 2315   1.357   1.380   0.469 -0.1271 -1.7683 -0.0035
  567SOL    MW4 2316   1.426   1.371   0.521  0.2314 -0.2309 -0.1876
  568SOL     OW 2317   2.629   2.133   0.437  0.4238 -0.2579  0.1748
  568SOL    HW2 2318   2.534   2.141   0.436  0.4205 -0.2961  0.1855
  568SOL    HW3 2319   2.660   2.213   0.396  0.3720 -0.4918 -0.3201
  568SOL    MW4 2320   2.621   2.145   0.432  0.4165 -0.2937  0.1109
  569SOL     OW 2321   1.339   1.157   0.876 -0.1062  0.1271 -0.0961
  569SOL    HW2 2322   1.414   1.107   0.843 -0.1180  0.0075  0.0521
  569SOL    HW3 2323   1.355   1.247   0.847  0.2104  0.1455  0.1268
  569SOL    MW4 2324   1.351   1.162   0.868 -0.0659  0.1138 -0.0471
  570SOL     OW 2325   4.292   3.094   0.313 -0.2104 -0.1634 -0.3220
  570SOL    HW2 2326   4.259   3.181   0.335 -0.9860 -0.1250 -1.5973
  570SOL    HW3 2327   4.215   3.047   0.282  0.2360 -1.2667  0.1994
  570SOL    MW4 2328   4.277   3.099   0.312 -0.2542 -0.3040 -0.4214
  571SOL     OW 2329   1.362   2.757   1.129  0.5604 -0.5832 -0.4092
  571SOL    HW2 2330   1.351   2.662   1.127 -0.2186 -0.5941  2.2073
  571SOL    HW3 2331   1.277   2.790   1.157  0.8918  0.8815 -1.0971
  571SOL    MW4 2332   1.349   2.749   1.133  0.5014 -0.3912 -0.1546
  572SOL     OW 2333   4.466   2.416   1.212  0.1735  0.3102  0.1593
  572SOL    HW2 2334   4.479   2.505   1.180  0.2704  0.4037  0.4547
  572SOL    HW3 2335   4.455   2.427   1.307 -0.4621  0.0768  0.1144
  572SOL    MW4 2336   4.466   2.430   1.221  0.1025  0.2918  0.1923
  573SOL     OW 2337   2.234   2.744   0.826 -0.2795 -0.3683  0.1438
  573SOL    HW2 2338   2.313   2.692   0.812  0.7998  1.7931 -2.1605
  573SOL    HW3 2339   2.225   2.749   0.921  1.7791 -1.5013  0.4297
  573SOL    MW4 2340   2.243   2.738   0.836  0.1345 -0.2325 -0.1225
  574SOL     OW 2341   1.336   3.253   1.220  0.0660 -0.3551  0.5074
  574SOL    HW2 2342   1.355   3.243   1.314  0.6684 -1.1549  0.3043
  574SOL    HW3 2343   1.266   3.191   1.203 -0.1898 -0.0561  0.4744
  574SOL    MW4 2344   1.330   3.244   1.230  0.1118 -0.4210  0.4761
  575SOL     OW 2345   1.564   3.875   0.848  0.0226  0.5391 -0.6575
  575SOL    HW2 2346   1.576   3.967   0.827  0.7404  0.5246 -0.3361
  575SOL    HW3 2347   1.557   3.873   0.943 -1.0574  0.3704 -0.7258
  575SOL    MW4 2348   1.564   3.887   0.858 -0.0252  0.5150 -0.6241
  576SOL     OW 2349   3.858   3.879   0.861 -0.2351  0.2151 -0.1804
  576SOL    HW2 2350   3.849   3.847   0.950 -0.5934  0.2336 -0.2112
  576SOL    HW3 2351   3.923   3.821   0.821  0.0917  0.3488  0.1587
  576SOL    MW4 2352   3.866   3.867   0.867 -0.2396  0.2351 -0.1398
  577SOL     OW 2353   1.306   2.205   0.696 -0.5159  0.8572  0.4969
  577SOL    HW2 2354   1.259   2.282   0.662  1.0452  1.3303 -0.6490
  577SOL    HW3 2355   1.360   2.176   0.622 -1.4519 -1.6449  0.7648
  577SOL    MW4 2356   1.307   2.211   0.681 -0.4334  0.5898  0.3811
  578SOL     OW 2357   2.028   3.125   1.151  0.3127  0.4494  0.4348
  578SOL    HW2 2358   2.048   3.134   1.058  0.4778 -0.3665  0.3941
  578SOL    HW3 2359   2.009   3.032   1.163 -0.7247  0.7340  1.0206
  578SOL    MW4 2360   2.028   3.114   1.140  0.1976  0.3796  0.5066
  579SOL     OW 2361   3.182   4.555   0.729  0.3350 -0.2887  0.2437
  579SOL    HW2 2362   3.138   4.624   0.779 -0.3575 -0.3102 -0.3251
  579SOL    HW3 2363   3.168   4.579   0.637  0.9472 -0.6558  0.0490
  579SOL    MW4 2364   3.174   4.568   0.723  0.3245 -0.3400  0.1429
  580SOL     OW 2365   2.934   3.433   0.538 -0.5226  0.1962  0.4531
  580SOL    HW2 2366   2.923   3.414   0.631 -0.6681  0.4243  0.4834
  580SOL    HW3 2367   2.865   3.383   0.494 -1.3154  1.1515  0.5897
  580SOL    MW4 2368   2.924   3.424   0.544 -0.6461  0.3524  0.4752
  581SOL     OW 2369   1.774   0.126   1.289 -0.2649  0.1106 -0.3852
  581SOL    HW2 2370   1.701   0.095   1.235  0.2263  0.7329 -1.4404
  581SOL    HW3 2371   1.785   0.218   1.263  0.4535  0.2105  0.2640
  581SOL    MW4 2372   1.766   0.134   1.278 -0.1053  0.2059 -0.4388
  582SOL     OW 2373   1.554   1.574   0.902  0.1467 -0.3953 -0.2437
  582SOL    HW2 2374   1.560   1.656   0.853  0.3422 -0.4323 -0.2808
  582SOL    HW3 2375   1.628   1.522   0.871  0.5245 -0.2479  0.4164
  582SOL    MW4 2376   1.565   1.578   0.891  0.2222 -0.3808 -0.1615
  583SOL     OW 2377   2.907   3.059   0.856 -0.4232  0.2942 -0.3406
  583SOL    HW2 2378   2.986   3.013   0.827 -0.1325  1.0144 -0.6959
  583SOL    HW3 2379   2.835   3.011   0.815 -0.4257 -2.3413  2.5032
  583SOL    MW4 2380   2.908   3.046   0.847 -0.3853  0.0415 -0.0122
  584SOL     OW 2381   3.892   1.469   0.827  0.0531  0.2072 -0.0737
  584SOL    HW2 2382   3.884   1.558   0.793  0.4785  0.5859  0.7945
  584SOL    HW3 2383   3.986   1.456   0.839  0.0868 -0.8366 -1.4153
  584SOL    MW4 2384   3.903   1.479   0.824  0.1135  0.1196 -0.1361
  585SOL     OW 2385   4.203   3.118   0.850 -0.5176  0.4236  0.0705
  585SOL    HW2 2386   4.270   3.061   0.810 -0.9447  1.1896 -1.7845
  585SOL    HW3 2387   4.224   3.205   0.817 -2.0578  0.7659  0.0004
  585SOL    MW4 2388   4.215   3.122   0.840 -0.7772  0.5698 -0.1835
  586SOL     OW 2389   0.422   3.760   0.731 -0.0531  0.0219 -0.0342
  586SOL    HW2 2390   0.366   3.766   0.653  0.4682 -0.8527 -0.4901
  586SOL    HW3 2391   0.374   3.807   0.799 -0.6573  0.5370 -0.8079
  586SOL    MW4 2392   0.409   3.767   0.729 -0.0641 -0.0260 -0.1965
  587SOL     OW 2393   3.253   1.695   0.720 -0.2592 -0.3280  0.2287
  587SOL    HW2 2394   3.339   1.733   0.702 -0.3879  0.3960  1.1055
  587SOL    HW3 2395   3.272   1.605   0.746  0.3176  0.0848  1.2715
  587SOL    MW4 2396   3.267   1.688   0.721 -0.2003 -0.1780  0.4820
  588SOL     OW 2397   1.192   3.567   0.372  0.1723 -0.4882 -0.0258
  588SOL    HW2 2398   1.250   3.536   0.441  0.9773 -2.3562 -1.4805
  588SOL    HW3 2399   1.229   3.531   0.291 -0.9587  1.3202 -1.3997
  588SOL    MW4 2400   1.205   3.558   0.370  0.1293 -0.4961 -0.3990
  589SOL     OW 2401   2.786   4.623   0.742  0.0527  0.2031 -0.3408
  589SOL    HW2 2402   2.697   4.635   0.775 -0.1147 -1.2692 -0.2080
  589SOL    HW3 2403   2.843   4.659   0.810 -0.4010 -0.0468  0.1725
  589SOL    MW4 2404   2.782   4.629   0.755 -0.0296 -0.0243 -0.2555
  590SOL     OW 2405   2.268   0.786   0.839 -0.0701 -0.1684 -0.0637
  590SOL    HW2 2406   2.280   0.862   0.782  0.3028 -0.0661  0.1539
  590SOL    HW3 2407   2.173   0.777   0.845 -0.1415  0.9855  0.8367
  590SOL    MW4 2408   2.257   0.795   0.832 -0.0305 -0.0027  0.0838
  591SOL     OW 2409   0.189   2.279   1.094 -0.2473 -0.4622 -0.0084
  591SOL    HW2 2410   0.253   2.345   1.120  0.7967 -1.7383  0.7129
  591SOL    HW3 2411   0.105   2.315   1.122  0.3691  0.2963  0.8860
  591SOL    MW4 2412   0.186   2.293   1.101 -0.0283 -0.5305  0.2048
  592SOL     OW 2413   3.077   1.355   0.691  0.5951 -0.3798 -0.4040
  592SOL    HW2 2414   3.059   1.378   0.600  0.9659  0.1323 -0.3456
  592SOL    HW3 2415   3.026   1.275   0.706  1.4768 -1.1434 -1.4181
  592SOL    MW4 2416   3.068   1.347   0.681  0.7603 -0.4129 -0.5301
  593SOL     OW 2417   3.964   3.000   0.723 -0.6265  0.2033 -0.2557
  593SOL    HW2 2418   3.964   3.034   0.633 -1.3345  1.1031  0.0784
  593SOL    HW3 2419   4.039   3.042   0.764 -0.2001 -0.3408 -0.4709
  593SOL    MW4 2420   3.974   3.010   0.716 -0.6635  0.2503 -0.2400
  594SOL     OW 2421   2.071   4.184   0.869  0.0975  0.0121 -0.4317
  594SOL    HW2 2422   2.058   4.089   0.867  1.1747 -0.1551  0.2747
  594SOL    HW3 2423   2.124   4.200   0.947 -1.9387  1.4452  0.7336
  594SOL    MW4 2424   2.076   4.174   0.879 -0.0288  0.1798 -0.1848
  595SOL     OW 2425   2.843   0.817   0.863 -0.2688  0.2994 -0.1981
  595SOL    HW2 2426   2.865   0.796   0.954  0.7893 -1.4857 -0.8361
  595SOL    HW3 2427   2.922   0.858   0.827 -0.0445 -0.6527 -0.8123
  595SOL    MW4 2428   2.856   0.820   0.870 -0.0997 -0.0618 -0.3633
  596SOL     OW 2429   3.164   1.142   1.064 -0.3190 -0.8055  0.5614
  596SOL    HW2 2430   3.245   1.178   1.101 -1.0010  0.4571  0.8325
  596SOL    HW3 2431   3.183   1.133   0.971  0.3116 -0.9940  0.7041
  596SOL    MW4 2432   3.177   1.145   1.057 -0.3257 -0.6639  0.6160
  597SOL     OW 2433   1.193   2.763   0.318  0.2715 -0.0747 -0.2240
  597SOL    HW2 2434   1.222   2.839   0.367  0.6028 -1.3957  1.6803
  597SOL    HW3 2435   1.112   2.735   0.361 -1.6366  1.0922 -2.9167
  597SOL    MW4 2436   1.186   2.769   0.330  0.0634 -0.0951 -0.3279
  598SOL     OW 2437   3.370   2.282   0.845  0.0729 -0.0156 -0.1759
  598SOL    HW2 2438   3.296   2.250   0.794  1.0575 -1.4011 -0.7637
  598SOL    HW3 2439   3.384   2.372   0.813 -3.1636  1.3585  2.0172
  598SOL    MW4 2440   3.362   2.290   0.834 -0.2244 -0.0169  0.0358
  599SOL     OW 2441   3.857   1.738   0.748 -0.0153 -0.0593 -0.0983
  599SOL    HW2 2442   3.932   1.796   0.764  0.0013 -0.5097  1.4608
  599SOL    HW3 2443   3.784   1.780   0.794 -0.2449 -0.7455  0.1588
  599SOL    MW4 2444   3.857   1.751   0.756 -0.0434 -0.2091  0.1413
  600SOL     OW 2445   2.284   3.466   1.109  0.0920 -0.8517 -0.4189
  600SOL    HW2 2446   2.203   3.496   1.151 -0.3843 -1.4318 -0.9159
  600SOL    HW3 2447   2.352   3.519   1.149 -0.6026  0.0575 -0.4210
  600SOL    MW4 2448   2.282   3.477   1.120 -0.0622 -0.8085 -0.4847
  601SOL     OW 2449   2.052   3.585   1.207  0.4329  0.1131 -0.2096
  601SOL    HW2 2450   1.967   3.586   1.162  0.2476  0.3511  0.1414
  601SOL    HW3 2451   2.032   3.618   1.295  0.5734 -1.5460  0.4483
  601SOL    MW4 2452   2.038   3.590   1.213  0.4268 -0.0744 -0.0764
  602SOL     OW 2453   3.548   2.256   0.207  0.4449  0.1171  0.6168
  602SOL    HW2 2454   3.480   2.199   0.244 -0.1412 -0.3655 -1.1396
  602SOL    HW3 2455   3.626   2.236   0.257 -0.3294 -0.5123  1.5966
  602SOL    MW4 2456   3.549   2.246   0.218  0.2651 -0.0296  0.5144
  603SOL     OW 2457   0.232   1.505   1.097 -0.5696 -0.1329  0.2205
  603SOL    HW2 2458   0.165   1.559   1.139  0.2101  0.2255  1.0273
  603SOL    HW3 2459   0.315   1.541   1.128 -0.0047 -0.8460 -0.4243
  603SOL    MW4 2460   0.234   1.517   1.106 -0.3922 -0.1799  0.2418
  604SOL     OW 2461   1.806   0.381   0.887 -0.2705 -0.5459  0.2903
  604SOL    HW2 2462   1.803   0.388   0.982  4.3454  1.5866  0.4274
  604SOL    HW3 2463   1.887   0.333   0.869  0.4330  1.5690 -2.5790
  604SOL    MW4 2464   1.816   0.375   0.897  0.4312  0.0145 -0.0702
  605SOL     OW 2465   4.056   3.484   1.104 -0.3801  0.5928  0.4310
  605SOL    HW2 2466   3.983   3.526   1.148 -1.8433 -0.0552 -1.3304
  605SOL    HW3 2467   4.059   3.395   1.140 -1.7215 -0.0119 -0.9189
  605SOL    MW4 2468   4.047   3.478   1.114 -0.7505  0.4275  0.0204
  606SOL     OW 2469   1.524   4.267   0.484  0.4128  0.0999  0.2134
  606SOL    HW2 2470   1.589   4.335   0.501  0.1913  0.1783  0.7265
  606SOL    HW3 2471   1.447   4.314   0.454  0.5324  0.0170 -0.2354
  606SOL    MW4 2472   1.523   4.282   0.482  0.3994  0.0992  0.2219
  607SOL     OW 2473   2.490   2.341   0.828  0.4970  0.1013  0.7574
  607SOL    HW2 2474   2.479   2.356   0.922  0.9617 -1.5438  1.0890
  607SOL    HW3 2475   2.401   2.333   0.795  0.3436  0.3366  1.1028
  607SOL    MW4 2476   2.477   2.342   0.836  0.5381 -0.0846  0.8467
  608SOL     OW 2477   3.400   2.034   1.540 -0.0938  0.4022 -0.1651
  608SOL    HW2 2478   3.313   2.019   1.577 -0.1301  1.1297  0.0467
  608SOL    HW3 2479   3.386   2.037   1.446 -0.2527  0.2180 -0.1472
  608SOL    MW4 2480   3.387   2.033   1.533 -0.1197  0.4737 -0.1348
  609SOL     OW 2481   1.753   1.182   0.821 -0.4143 -0.1367  0.1342
  609SOL    HW2 2482   1.751   1.158   0.914 -0.4931  0.6520  0.3412
  609SOL    HW3 2483   1.835   1.146   0.789 -1.0927 -1.7261  0.1436
  609SOL    MW4 2484   1.763   1.174   0.829 -0.5140 -0.2422  0.1628
  610SOL     OW 2485   1.401   3.446   0.239 -0.1116  0.1538  0.2401
  610SOL    HW2 2486   1.455   3.427   0.162  0.1230 -0.6636  0.6061
  610SOL    HW3 2487   1.462   3.476   0.305 -0.0653 -0.9762  0.7240
  610SOL    MW4 2488   1.416   3.447   0.237 -0.0744 -0.1032  0.3523
  611SOL     OW 2489   1.321   4.599   0.483  0.2101  0.5920  0.0067
  611SOL    HW2 2490   1.324   4.577   0.577  0.0448  0.3437 -0.0465
  611SOL    HW3 2491   1.293   4.519   0.441 -1.3215  1.1761 -0.0974
  611SOL    MW4 2492   1.318   4.586   0.490 -0.0137  0.6356 -0.0140
  612SOL     OW 2493   3.429   1.717   0.281 -0.2908 -0.1293 -0.1141
  612SOL    HW2 2494   3.481   1.659   0.337  1.6362  1.2104 -0.4359
  612SOL    HW3 2495   3.447   1.687   0.192 -0.1770  0.2270 -0.2147
  612SOL    MW4 2496   3.438   1.706   0.277 -0.0217  0.0945 -0.1698
  613SOL     OW 2497   0.695   4.153   0.715 -0.2864 -0.5046  0.6055
  613SOL    HW2 2498   0.685   4.068   0.756  0.7934 -0.0075  1.9316
  613SOL    HW3 2499   0.619   4.203   0.744 -0.9483 -1.0166 -0.2175
  613SOL    MW4 2500   0.684   4.149   0.724 -0.2313 -0.5059  0.6719
  614SOL     OW 2501   0.888   2.467   0.836  0.1406 -0.0888 -0.4723
  614SOL    HW2 2502   0.798   2.437   0.852  0.1054  1.0410  1.6845
  614SOL    HW3 2503   0.938   2.387   0.822 -0.8666 -0.8596  0.2500
  614SOL    MW4 2504   0.882   2.452   0.836  0.0030 -0.0410 -0.0924
  615SOL     OW 2505   2.613   0.559   0.508  0.3817 -0.1895  0.0608
  615SOL    HW2 2506   2.528   0.585   0.545 -0.5917 -0.6744 -1.7673
  615SOL    HW3 2507   2.672   0.554   0.584 -1.2350  0.0916  1.3662
  615SOL    MW4 2508   2.609   0.562   0.523  0.0401 -0.2165 -0.0081
  616SOL     OW 2509   3.155   0.395   1.142  0.2874 -0.1620  0.2007
  616SOL    HW2 2510   3.169   0.310   1.185  0.9980  0.0410  0.3788
  616SOL    HW3 2511   3.224   0.451   1.177 -1.0599  0.9191  1.2250
  616SOL    MW4 2512   3.166   0.391   1.153  0.2034  0.0074  0.3594
  617SOL     OW 2513   0.670   4.624   1.156 -0.0885 -0.0176  0.2193
  617SOL    HW2 2514   0.758   4.657   1.177 -0.9200  1.3155  1.6627
  617SOL    HW3 2515   0.674   4.532   1.178  1.1335 -0.1149 -0.3172
  617SOL    MW4 2516   0.682   4.617   1.161 -0.0370  0.1454  0.3389
  618SOL     OW 2517   2.244   2.481   1.229 -0.5284  0.2395 -0.6906
  618SOL    HW2 2518   2.232   2.469   1.323 -1.2508  1.0763 -0.6701
  618SOL    HW3 2519   2.166   2.442   1.189  0.1366 -0.8149 -1.0048
  618SOL    MW4 2520   2.232   2.474   1.236 -0.5360  0.2108 -0.7294
  619SOL     OW 2521   1.879   1.306   0.417 -0.0024  0.2713 -0.2392
  619SOL    HW2 2522   1.837   1.225   0.387 -0.1435  0.4744 -0.5992
  619SOL    HW3 2523   1.811   1.352   0.466  0.6233 -0.6817  1.5606
  619SOL    MW4 2524   1.864   1.301   0.419  0.0615  0.1723 -0.0492
  620SOL     OW 2525   1.339   0.631   0.746 -0.0720 -0.1173  0.0617
  620SOL    HW2 2526   1.266   0.662   0.800  0.3231 -0.2107  0.6588
  620SOL    HW3 2527   1.415   0.678   0.780 -0.0213  0.7924 -1.2679
  620SOL    MW4 2528   1.339   0.642   0.758 -0.0134 -0.0096 -0.0349
  621SOL     OW 2529   2.697   3.239   1.228 -0.1854 -0.2257 -0.1567
  621SOL    HW2 2530   2.775   3.198   1.192 -0.5701  0.2245 -1.5162
  621SOL    HW3 2531   2.625   3.186   1.195 -0.5021 -0.1793  0.4570
  621SOL    MW4 2532   2.698   3.227   1.219 -0.2782 -0.1600 -0.2551
  622SOL     OW 2533   3.177   2.684   0.809  0.1878 -0.3828  0.0615
  622SOL    HW2 2534   3.098   2.647   0.770  0.2768  0.4296 -0.8919
  622SOL    HW3 2535   3.159   2.685   0.903 -0.4559 -1.3244 -0.0459
  622SOL    MW4 2536   3.164   2.679   0.816  0.1144 -0.3996 -0.0786
  623SOL     OW 2537   2.954   1.106   0.624 -0.5039  0.5648  0.3931
  623SOL    HW2 2538   2.968   1.111   0.530  0.6526  0.0837  0.5396
  623SOL    HW3 2539   2.865   1.071   0.633  0.1222 -1.3013 -0.5047
  623SOL    MW4 2540   2.944   1.102   0.613 -0.2687  0.2552  0.2940
  624SOL     OW 2541   0.978   2.762   0.505 -0.2871  0.4969  0.5140
  624SOL    HW2 2542   0.911   2.824   0.475 -0.9177  0.5738  2.0552
  624SOL    HW3 2543   1.022   2.807   0.577  0.1454 -0.3221  0.7643
  624SOL    MW4 2544   0.975   2.776   0.510 -0.3132  0.3991  0.7504
  625SOL     OW 2545   3.514   4.157   0.480  0.3400 -0.3678  0.0348
  625SOL    HW2 2546   3.474   4.213   0.414  0.4231 -0.6128 -0.2258
  625SOL    HW3 2547   3.465   4.175   0.560 -2.1836 -2.7365 -0.8971
  625SOL    MW4 2548   3.503   4.167   0.482  0.0181 -0.7129 -0.1225
  626SOL     OW 2549   0.483   1.404   0.742  0.1362 -0.4519 -0.1153
  626SOL    HW2 2550   0.470   1.406   0.648  1.5563  0.0315 -0.3063
  626SOL    HW3 2551   0.486   1.310   0.764  0.6900 -0.5644 -0.6730
  626SOL    MW4 2552   0.482   1.392   0.733  0.3967 -0.4029 -0.2141
  627SOL     OW 2553   0.497   1.151   0.858  0.4110 -0.1143 -0.0576
  627SOL    HW2 2554   0.495   1.155   0.954 -0.8584 -1.0147 -0.0422
  627SOL    HW3 2555   0.572   1.095   0.838  1.9666  1.7694  0.3381
  627SOL    MW4 2556   0.507   1.144   0.868  0.4488  0.0155 -0.0033
  628SOL     OW 2557   1.981   4.388   1.208 -0.2492  0.2342  0.3494
  628SOL    HW2 2558   1.897   4.346   1.189 -1.6165  2.8202  0.3307
  628SOL    HW3 2559   2.002   4.362   1.298 -1.2236 -0.2176  0.4482
  628SOL    MW4 2560   1.973   4.379   1.217 -0.5580  0.5159  0.3599
  629SOL     OW 2561   2.931   4.666   1.154 -0.3130 -0.0686 -0.1434
  629SOL    HW2 2562   2.841   4.697   1.165 -0.5593 -0.0705 -2.0048
  629SOL    HW3 2563   2.932   4.579   1.194 -1.5512 -0.7075 -1.4448
  629SOL    MW4 2564   2.919   4.659   1.161 -0.5088 -0.1531 -0.5608
  630SOL     OW 2565   2.686   0.099   1.218  0.1649  0.2742 -0.4280
  630SOL    HW2 2566   2.665   0.091   1.311 -0.4093 -0.1687 -0.5965
  630SOL    HW3 2567   2.703   0.193   1.206 -0.6602  0.4814 -0.0602
  630SOL    MW4 2568   2.685   0.111   1.229 -0.0196  0.2431 -0.4017
  631SOL     OW 2569   4.288   0.725   0.496  0.1133 -0.3500 -0.1437
  631SOL    HW2 2570   4.250   0.644   0.461 -0.0512 -0.1212 -0.5028
  631SOL    HW3 2571   4.378   0.702   0.517  0.5433 -0.2253 -1.7306
  631SOL    MW4 2572   4.295   0.711   0.494  0.1483 -0.3033 -0.4004
  632SOL     OW 2573   3.159   2.089   0.432  0.1543 -0.3179 -0.4472
  632SOL    HW2 2574   3.114   2.006   0.421  0.8796 -0.8851  0.7970
  632SOL    HW3 2575   3.139   2.116   0.522  2.4200 -0.6596  0.1766
  632SOL    MW4 2576   3.150   2.082   0.442  0.5486 -0.4377 -0.2007
  633SOL     OW 2577   2.365   2.139   0.415  0.6331  0.0785 -0.0143
  633SOL    HW2 2578   2.286   2.175   0.456  1.5058  1.1026  0.7901
  633SOL    HW3 2579   2.371   2.185   0.331  2.1048  2.3535  1.2869
  633SOL    MW4 2580   2.355   2.150   0.409  0.9425  0.5138  0.2635
  634SOL     OW 2581   0.412   2.458   0.310 -0.2019 -0.1336 -0.6026
  634SOL    HW2 2582   0.444   2.486   0.396  2.0845 -0.8436 -1.1986
  634SOL    HW3 2583   0.401   2.364   0.317 -0.3110 -0.1528 -0.9925
  634SOL    MW4 2584   0.415   2.450   0.322  0.0854 -0.2298 -0.7327
  635SOL     OW 2585   0.447   1.146   1.130 -0.1133 -0.2556 -0.1052
  635SOL    HW2 2586   0.450   1.067   1.184  0.0865 -0.1028  0.1094
  635SOL    HW3 2587   0.361   1.184   1.148  0.0462 -0.0801  0.2877
  635SOL    MW4 2588   0.436   1.140   1.140 -0.0659 -0.2123 -0.0250
  636SOL     OW 2589   2.692   0.988   0.615  0.2060  0.2093  0.0410
  636SOL    HW2 2590   2.661   1.070   0.576  0.5018  0.0846 -0.4551
  636SOL    HW3 2591   2.631   0.972   0.687 -0.7807  0.0649 -0.8139
  636SOL    MW4 2592   2.680   0.997   0.619  0.1149  0.1737 -0.1373
  637SOL     OW 2593   3.372   0.548   1.209  0.5101  0.6096  0.3380
  637SOL    HW2 2594   3.355   0.632   1.166  0.4230  0.2406 -0.3471
  637SOL    HW3 2595   3.452   0.516   1.169  0.4475  0.2779  0.4748
  637SOL    MW4 2596   3.380   0.555   1.198  0.4900  0.5171  0.2656
  638SOL     OW 2597   3.517   0.188   0.425  0.0610  0.0789  0.0197
  638SOL    HW2 2598   3.546   0.097   0.420  1.5656  0.5999 -1.5479
  638SOL    HW3 2599   3.428   0.187   0.390 -0.2289 -0.9152  0.7882
  638SOL    MW4 2600   3.509   0.176   0.420  0.2210  0.0165 -0.0857
  639SOL     OW 2601   4.195   2.021   0.321  0.6891 -0.0210 -0.0819
  639SOL    HW2 2602   4.212   2.021   0.227 -0.5373  1.8100 -0.3259
  639SOL    HW3 2603   4.111   1.975   0.330 -0.1772  1.5239 -0.1005
  639SOL    MW4 2604   4.186   2.015   0.310  0.4129  0.4241 -0.1166
  640SOL     OW 2605   4.226   0.573   1.179  0.7783  0.0452 -0.1491
  640SOL    HW2 2606   4.247   0.629   1.104 -0.9484 -1.0487 -1.4881
  640SOL    HW3 2607   4.300   0.512   1.184  1.5392  0.9547 -0.1325
  640SOL    MW4 2608   4.239   0.572   1.170  0.6509  0.0209 -0.3237
  641SOL     OW 2609   4.301   3.918   0.413  0.1424 -0.3783  0.2285
  641SOL    HW2 2610   4.358   3.843   0.428 -1.5554 -1.5720  0.8654
  641SOL    HW3 2611   4.214   3.880   0.405 -0.8808  1.5919  1.5967
  641SOL    MW4 2612   4.297   3.903   0.414 -0.2170 -0.2759  0.4931
  642SOL     OW 2613   1.983   2.858   1.202 -0.2813 -0.2436  0.0951
  642SOL    HW2 2614   1.905   2.818   1.163 -0.9999  1.6644 -0.4538
  642SOL    HW3 2615   2.055   2.801   1.174 -1.2051 -0.7687 -1.2596
  642SOL    MW4 2616   1.982   2.845   1.193 -0.4981 -0.0613 -0.1559
  643SOL     OW 2617   3.961   1.896   0.376  0.5400 -0.4804 -0.0590
  643SOL    HW2 2618   3.873   1.916   0.344 -0.4617  0.0454  2.8780
  643SOL    HW3 2619   3.955   1.806   0.408  1.0381 -0.4138  0.2288
  643SOL    MW4 2620   3.949   1.887   0.376  0.4733 -0.4022  0.3664
  644SOL     OW 2621   3.636   0.413   0.518 -0.3173 -0.6277  0.0219
  644SOL    HW2 2622   3.578   0.362   0.461 -0.8476 -0.0663  0.0571
  644SOL    HW3 2623   3.636   0.501   0.480 -0.5426 -0.2887  0.7842
  644SOL    MW4 2624   3.628   0.418   0.505 -0.4172 -0.5089  0.1272
  645SOL     OW 2625   1.993   1.055   0.735  0.7448  0.1268 -0.1413
  645SOL    HW2 2626   1.982   1.037   0.641 -1.0818 -0.1128  0.0986
  645SOL    HW3 2627   1.977   0.971   0.777 -2.0515  0.9791  0.6035
  645SOL    MW4 2628   1.989   1.042   0.728  0.1351  0.2075 -0.0114
  646SOL     OW 2629   1.549   2.317   0.819 -0.2583  0.3356  0.3524
  646SOL    HW2 2630   1.545   2.321   0.914 -0.0619  0.9468  0.3384
  646SOL    HW3 2631   1.461   2.291   0.792  0.2791 -1.9938  0.8019
  646SOL    MW4 2632   1.537   2.314   0.828 -0.1614  0.1090  0.4098
  647SOL     OW 2633   2.477   3.084   1.099  0.4107 -0.1512  0.6253
  647SOL    HW2 2634   2.399   3.123   1.139 -0.7027 -2.2182  0.5239
  647SOL    HW3 2635   2.478   2.994   1.131  2.2544 -0.4209 -0.1217
  647SOL    MW4 2636   2.467   3.077   1.109  0.5069 -0.4594  0.5132
  648SOL     OW 2637   2.825   1.063   0.303  0.0392 -0.6448 -0.3970
  648SOL    HW2 2638   2.781   0.980   0.320  0.5960 -0.9800 -0.5931
  648SOL    HW3 2639   2.765   1.129   0.337 -0.0509 -1.1734  0.4869
  648SOL    MW4 2640   2.811   1.061   0.310  0.1009 -0.7586 -0.3062
  649SOL     OW 2641   0.919   1.123   0.843  0.3759 -0.5366 -0.0350
  649SOL    HW2 2642   1.005   1.100   0.807  0.3374 -0.6893 -0.0284
  649SOL    HW3 2643   0.917   1.219   0.840  0.5014 -0.5366 -0.1400
  649SOL    MW4 2644   0.930   1.133   0.838  0.3873 -0.5567 -0.0480
  650SOL     OW 2645   2.694   4.068   1.263  0.3227 -0.1676  0.2729
  650SOL    HW2 2646   2.709   4.149   1.214  1.2429 -0.8066 -0.5420
  650SOL    HW3 2647   2.623   4.024   1.216 -0.2882  0.2333  0.8107
  650SOL    MW4 2648   2.687   4.073   1.250  0.3636 -0.1993  0.2364
  651SOL     OW 2649   2.604   0.269   0.761  0.2963  0.3154 -0.0589
  651SOL    HW2 2650   2.688   0.294   0.799  1.1131 -2.3954 -0.0102
  651SOL    HW3 2651   2.619   0.271   0.667 -0.0878  1.4286 -0.1096
  651SOL    MW4 2652   2.617   0.273   0.754  0.3536  0.1046 -0.0591
  652SOL     OW 2653   3.148   3.226   1.230  0.0374  0.1420  0.1953
  652SOL    HW2 2654   3.125   3.316   1.205 -2.0661  0.0813  1.8059
  652SOL    HW3 2655   3.082   3.172   1.186  1.1463 -0.6228 -0.5636
  652SOL    MW4 2656   3.137   3.231   1.221 -0.0937  0.0331  0.3077
  653SOL     OW 2657   4.481   3.711   0.486  0.9364 -0.3239 -0.0920
  653SOL    HW2 2658   4.471   3.731   0.579  0.9943  1.5139 -0.4585
  653SOL    HW3 2659   4.425   3.635   0.471  0.0158  0.0839  1.2009
  653SOL    MW4 2660   4.472   3.704   0.496  0.8230 -0.0277  0.0302
  654SOL     OW 2661   2.802   1.766   0.637 -0.0061  0.1230 -0.5402
  654SOL    HW2 2662   2.753   1.820   0.698  1.0284  1.2452 -0.6903
  654SOL    HW3 2663   2.837   1.695   0.692 -0.8904 -0.0877 -0.2413
  654SOL    MW4 2664   2.800   1.763   0.653  0.0136  0.2432 -0.5206
  655SOL     OW 2665   3.149   2.725   1.106 -0.1115 -0.5307 -0.2759
  655SOL    HW2 2666   3.142   2.637   1.142 -1.0151  0.1965  1.4188
  655SOL    HW3 2667   3.079   2.774   1.149  0.7512  1.1712 -0.7414
  655SOL    MW4 2668   3.139   2.720   1.116 -0.1171 -0.2100 -0.1137
  656SOL     OW 2669   3.587   0.415   1.636  0.7660  0.2604 -0.0225
  656SOL    HW2 2670   3.508   0.455   1.601  1.6839 -0.2491 -2.7714
  656SOL    HW3 2671   3.584   0.325   1.605  2.0335  0.0133  0.5395
  656SOL    MW4 2672   3.576   0.408   1.627  1.0545  0.1606 -0.3110
  657SOL     OW 2673   2.706   1.690   1.175  0.2233 -0.2684 -0.1483
  657SOL    HW2 2674   2.779   1.651   1.127  0.6256 -1.0511  1.0550
  657SOL    HW3 2675   2.692   1.775   1.134  1.6222 -0.2389 -0.5779
  657SOL    MW4 2676   2.714   1.696   1.163  0.4609 -0.3679 -0.0463
  658SOL     OW 2677   3.719   2.692   0.261  0.3230 -0.1165 -0.2600
  658SOL    HW2 2678   3.650   2.627   0.246 -0.4211  0.2074  1.6099
  658SOL    HW3 2679   3.786   2.645   0.310 -0.4785  0.6604  1.6063
  658SOL    MW4 2680   3.719   2.677   0.265  0.1190  0.0288  0.2329
  659SOL     OW 2681   2.429   1.802   0.697 -0.4648  0.2291  0.3145
  659SOL    HW2 2682   2.392   1.781   0.611  0.2157 -1.2873  0.3798
  659SOL    HW3 2683   2.430   1.718   0.744  0.3619  0.8060  1.3406
  659SOL    MW4 2684   2.424   1.788   0.692 -0.2661  0.1051  0.4586
  660SOL     OW 2685   2.950   1.292   1.467  0.0290  0.3744  0.6975
  660SOL    HW2 2686   3.019   1.242   1.510 -0.9950 -1.7912 -0.1126
  660SOL    HW3 2687   2.868   1.249   1.493 -0.7813  0.7072 -1.1507
  660SOL    MW4 2688   2.948   1.280   1.476 -0.2131  0.1326  0.3469
  661SOL     OW 2689   4.477   4.531   0.749  0.0411 -0.0966  0.1986
  661SOL    HW2 2690   4.495   4.440   0.771  0.8962  0.0040 -0.0852
  661SOL    HW3 2691   4.553   4.579   0.780  0.0930  0.3758 -0.6507
  661SOL    MW4 2692   4.489   4.525   0.756  0.1602 -0.0205  0.0491
  662SOL     OW 2693   2.470   3.245   0.495  0.6150  0.0600  0.3730
  662SOL    HW2 2694   2.477   3.292   0.578 -1.2228 -0.1711  0.6824
  662SOL    HW3 2695   2.380   3.260   0.467  0.9298 -0.7020 -1.0731
  662SOL    MW4 2696   2.459   3.253   0.503  0.4141 -0.0710  0.2230
  663SOL     OW 2697   4.269   4.154   0.757 -0.2171  0.0224 -0.3154
  663SOL    HW2 2698   4.292   4.155   0.664  0.3807 -0.0496 -0.1701
  663SOL    HW3 2699   4.190   4.208   0.763 -0.0782  0.2861 -0.8195
  663SOL    MW4 2700   4.262   4.162   0.746 -0.1192  0.0477 -0.3627
  664SOL     OW 2701   2.705   2.955   0.738 -0.3535 -0.5314  0.1226
  664SOL    HW2 2702   2.710   2.969   0.643  0.7292 -0.0708  0.2320
  664SOL    HW3 2703   2.638   3.016   0.768 -1.6683 -1.6523 -0.5245
  664SOL    MW4 2704   2.697   2.965   0.730 -0.3841 -0.6189  0.0517
  665SOL     OW 2705   1.039   1.310   0.199 -0.4789  0.1247  0.1542
  665SOL    HW2 2706   0.946   1.331   0.187 -0.5109  0.4053  0.8539
  665SOL    HW3 2707   1.038   1.233   0.256 -0.2532  1.0142  1.3799
  665SOL    MW4 2708   1.026   1.302   0.205 -0.4535  0.2792  0.4082
  666SOL     OW 2709   0.914   4.236   0.857  0.4059  0.3162  0.4117
  666SOL    HW2 2710   0.834   4.200   0.817  0.3438  0.9253 -0.0188
  666SOL    HW3 2711   0.900   4.226   0.951  0.2483 -0.4919  0.3090
  666SOL    MW4 2712   0.901   4.230   0.864  0.3769  0.2899  0.3414
  667SOL     OW 2713   0.401   2.899   0.758  0.0271 -0.1530 -0.1665
  667SOL    HW2 2714   0.436   2.815   0.790  0.6190 -0.0985 -0.6611
  667SOL    HW3 2715   0.429   2.903   0.667  0.2335  0.7154 -0.0668
  667SOL    MW4 2716   0.409   2.888   0.750  0.1324 -0.0310 -0.2186
  668SOL     OW 2717   3.405   0.018   0.841 -0.1019  0.1509 -0.6052
  668SOL    HW2 2718   3.388   0.015   0.935 -0.8995  1.4587 -0.6954
  668SOL    HW3 2719   3.336  -0.036   0.802  0.5457 -0.8286 -0.4066
  668SOL    MW4 2720   3.394   0.010   0.848 -0.1218  0.1942 -0.5910
  669SOL     OW 2721   1.529   1.091   0.460  0.1097  0.0465 -0.3683
  669SOL    HW2 2722   1.490   1.171   0.494  1.2660  1.1027 -1.5073
  669SOL    HW3 2723   1.454   1.036   0.436 -0.6800  0.8707  0.1790
  669SOL    MW4 2724   1.514   1.094   0.462  0.1581  0.2946 -0.4464
  670SOL     OW 2725   1.092   4.640   0.873  0.0401  0.0740  0.5574
  670SOL    HW2 2726   1.109   4.720   0.823 -0.3276 -0.2980 -0.1763
  670SOL    HW3 2727   1.014   4.602   0.831  0.4311 -0.8617  0.6578
  670SOL    MW4 2728   1.084   4.645   0.861  0.0433 -0.0987  0.4738
  671SOL     OW 2729   3.599   2.154   0.782  0.7030  0.4526  0.1925
  671SOL    HW2 2730   3.515   2.190   0.809 -0.3058 -2.2050  0.7842
  671SOL    HW3 2731   3.585   2.123   0.693  0.6513 -1.1614  0.7453
  671SOL    MW4 2732   3.586   2.154   0.774  0.5631 -0.1111  0.3436
  672SOL     OW 2733   4.099   1.904   1.095  0.2689 -0.3222  0.3409
  672SOL    HW2 2734   4.010   1.938   1.108  0.9163  1.6488 -0.2482
  672SOL    HW3 2735   4.111   1.903   1.000  1.0188 -0.2555  0.4340
  672SOL    MW4 2736   4.089   1.908   1.084  0.4530 -0.0534  0.2755
  673SOL     OW 2737   4.333   3.478   0.484 -0.9091 -0.1256 -0.0055
  673SOL    HW2 2738   4.414   3.434   0.457 -1.2861 -1.3482  0.8466
  673SOL    HW3 2739   4.263   3.420   0.456 -1.4706  0.5273  0.0198
  673SOL    MW4 2740   4.335   3.465   0.476 -1.0328 -0.2010  0.1102
  674SOL     OW 2741   1.006   3.788   0.437 -0.4639 -0.0534  0.7337
  674SOL    HW2 2742   1.047   3.710   0.398  0.9149  1.7007 -1.4655
  674SOL    HW3 2743   0.919   3.791   0.399  0.3746  0.8464 -1.1909
  674SOL    MW4 2744   1.000   3.778   0.427 -0.1713  0.2966  0.1896
  675SOL     OW 2745   1.376   1.404   0.777  0.1124  0.2663  0.1329
  675SOL    HW2 2746   1.443   1.459   0.817  0.6997  0.7651 -1.4580
  675SOL    HW3 2747   1.295   1.454   0.787  0.3874  0.7413  0.0265
  675SOL    MW4 2748   1.374   1.418   0.783  0.2263  0.3948 -0.0910
  676SOL     OW 2749   2.697   0.391   1.140  0.5085  0.3627 -0.0711
  676SOL    HW2 2750   2.769   0.437   1.184  0.6359 -0.0026  0.1040
  676SOL    HW3 2751   2.717   0.397   1.047  1.0661 -0.2380  0.0081
  676SOL    MW4 2752   2.709   0.398   1.134  0.5989  0.2352 -0.0374
  677SOL     OW 2753   4.066   4.310   1.085 -0.2184  0.0212 -0.1193
  677SOL    HW2 2754   4.123   4.369   1.134  0.7860 -0.3763 -0.7992
  677SOL    HW3 2755   3.979   4.325   1.122  0.2917  0.7577  0.8052
  677SOL    MW4 2756   4.062   4.320   1.096 -0.0186  0.0658 -0.0870
  678SOL     OW 2757   2.908   0.737   1.111  0.1406  0.1377 -0.4199
  678SOL    HW2 2758   2.997   0.772   1.123  1.0143 -2.6164  1.5452
  678SOL    HW3 2759   2.851   0.800   1.156  1.4317  0.1904  1.1612
  678SOL    MW4 2760   2.912   0.750   1.118  0.4261 -0.2187  0.0479
  679SOL     OW 2761   3.369   0.035   1.635 -0.5492  0.4307  0.4315
  679SOL    HW2 2762   3.442   0.081   1.595 -0.2885  1.0094  1.5610
  679SOL    HW3 2763   3.362  -0.046   1.585  1.3242  0.0368  0.7791
  679SOL    MW4 2764   3.378   0.030   1.623 -0.2677  0.4554  0.6263
  680SOL     OW 2765   1.762   1.683   1.240  0.2612  0.0981  0.4796
  680SOL    HW2 2766   1.700   1.611   1.225 -0.8995  0.9422  1.0766
  680SOL    HW3 2767   1.844   1.652   1.204 -0.7409 -0.6884 -1.1967
  680SOL    MW4 2768   1.764   1.669   1.233 -0.0240  0.1059  0.3371
  681SOL     OW 2769   0.248   4.443   0.399 -0.0048  0.1427 -0.0690
  681SOL    HW2 2770   0.323   4.501   0.411 -0.5275  1.0338 -0.9554
  681SOL    HW3 2771   0.172   4.499   0.416 -0.4529 -0.9333  1.5332
  681SOL    MW4 2772   0.248   4.458   0.403 -0.1329  0.1187  0.0255
  682SOL     OW 2773   3.866   3.854   1.137  0.0725 -0.3168 -0.0300
  682SOL    HW2 2774   3.863   3.768   1.179 -0.7420 -0.9126 -1.3047
  682SOL    HW3 2775   3.793   3.903   1.176  0.0028 -0.4916  0.0574
  682SOL    MW4 2776   3.856   3.849   1.148 -0.0443 -0.4182 -0.1866
  683SOL     OW 2777   0.790   0.449   0.407 -0.3300  0.3498 -0.5846
  683SOL    HW2 2778   0.858   0.510   0.433  0.7192 -0.2322 -1.8929
  683SOL    HW3 2779   0.817   0.418   0.320 -1.3302 -1.2326 -0.3601
  683SOL    MW4 2780   0.803   0.453   0.399 -0.3235  0.0642 -0.7276
  684SOL     OW 2781   0.740   2.930   0.521  0.5710 -0.0302 -0.9207
  684SOL    HW2 2782   0.766   2.927   0.613 -0.7097  0.9371 -0.5099
  684SOL    HW3 2783   0.747   3.022   0.497 -0.9335  0.0050 -1.2399
  684SOL    MW4 2784   0.744   2.942   0.530  0.2035  0.1020 -0.9086
  685SOL     OW 2785   1.169   0.211   0.741  0.0457 -0.3748  0.2705
  685SOL    HW2 2786   1.079   0.246   0.742  0.6337  1.2251 -0.4921
  685SOL    HW3 2787   1.189   0.202   0.648  1.3492  1.0850  0.3960
  685SOL    MW4 2788   1.159   0.215   0.729  0.2953  0.0289  0.1864
  686SOL     OW 2789   1.586   4.131   0.721 -0.1614  0.4460  0.0660
  686SOL    HW2 2790   1.596   4.172   0.634 -0.9637  1.7215  0.5519
  686SOL    HW3 2791   1.655   4.171   0.774 -0.6000  0.7646  0.4004
  686SOL    MW4 2792   1.596   4.142   0.716 -0.3252  0.6566  0.1742
  687SOL     OW 2793   0.236   4.142   0.723  0.4004  0.1811 -0.0675
  687SOL    HW2 2794   0.163   4.194   0.755  0.0742  0.6764 -1.6127
  687SOL    HW3 2795   0.312   4.198   0.734  0.1603  0.6883 -1.0116
  687SOL    MW4 2796   0.236   4.156   0.729  0.3256  0.3133 -0.3959
  688SOL     OW 2797   2.968   2.535   0.442 -0.6534 -0.0319  0.1146
  688SOL    HW2 2798   2.903   2.470   0.414 -0.4929 -0.6558  1.1612
  688SOL    HW3 2799   3.049   2.507   0.401 -0.6869 -0.2222  0.1782
  688SOL    MW4 2800   2.970   2.523   0.433 -0.6366 -0.1395  0.2610
  689SOL     OW 2801   3.643   1.899   1.576  0.0369  0.0065  0.1751
  689SOL    HW2 2802   3.561   1.949   1.577 -1.0868 -1.8010 -0.3691
  689SOL    HW3 2803   3.621   1.818   1.530  2.1935 -0.4039 -0.1660
  689SOL    MW4 2804   3.629   1.895   1.570  0.1733 -0.2861  0.0583
  690SOL     OW 2805   3.456   0.259   0.734 -0.3895 -0.0350 -0.0415
  690SOL    HW2 2806   3.479   0.235   0.645 -0.6741  0.1893 -0.1746
  690SOL    HW3 2807   3.443   0.175   0.779 -0.7439 -0.1391 -0.3398
  690SOL    MW4 2808   3.457   0.245   0.728 -0.4740 -0.0191 -0.0985
  691SOL     OW 2809   4.049   2.202   0.501 -0.0179  0.0411 -0.1110
  691SOL    HW2 2810   4.105   2.144   0.448  0.5715  1.3533 -0.9617
  691SOL    HW3 2811   4.048   2.161   0.588  1.3231 -0.6395 -0.3933
  691SOL    MW4 2812   4.057   2.189   0.505  0.2370  0.1245 -0.2605
  692SOL     OW 2813   3.582   2.717   0.849  0.0019  0.4621 -0.4816
  692SOL    HW2 2814   3.584   2.684   0.939 -1.5231  0.5837 -0.3991
  692SOL    HW3 2815   3.664   2.685   0.811  0.5551  0.2020  0.8704
  692SOL    MW4 2816   3.593   2.709   0.856 -0.1266  0.4437 -0.2924
  693SOL     OW 2817   3.506   1.339   0.598  0.4280 -0.3788 -0.0170
  693SOL    HW2 2818   3.462   1.263   0.560  1.4356 -0.9571 -0.0695
  693SOL    HW3 2819   3.591   1.305   0.627  1.3604  0.9422 -1.0692
  693SOL    MW4 2820   3.512   1.325   0.597  0.6843 -0.2809 -0.1627
  694SOL     OW 2821   2.454   2.358   1.098  0.1902  0.1857 -0.2359
  694SOL    HW2 2822   2.385   2.407   1.142  0.0739 -0.9798  0.9093
  694SOL    HW3 2823   2.535   2.404   1.120 -0.1479  1.1635 -1.0287
  694SOL    MW4 2824   2.456   2.370   1.106  0.1302  0.1609 -0.1894
  695SOL     OW 2825   2.005   2.617   0.682  0.3862  0.6544 -0.4149
  695SOL    HW2 2826   1.926   2.648   0.728  2.1356  0.8099  2.6005
  695SOL    HW3 2827   2.077   2.662   0.725  2.1518  0.6520 -3.2760
  695SOL    MW4 2828   2.004   2.627   0.694  0.8500  0.6747 -0.3946
  696SOL     OW 2829   3.874   3.546   0.420  0.1717 -0.1009 -0.4105
  696SOL    HW2 2830   3.810   3.590   0.364  0.1177 -1.0278 -1.1035
  696SOL    HW3 2831   3.835   3.546   0.507  0.6840  2.2080 -0.1594
  696SOL    MW4 2832   3.861   3.552   0.424  0.2320  0.0815 -0.4688
  697SOL     OW 2833   1.134   1.544   1.134  0.2478 -0.0546 -0.0092
  697SOL    HW2 2834   1.142   1.456   1.170 -1.5004 -0.3747 -0.3638
  697SOL    HW3 2835   1.141   1.533   1.040  2.1128  0.4558  0.0532
  697SOL    MW4 2836   1.136   1.531   1.127  0.2632 -0.0296 -0.0478
  698SOL     OW 2837   1.146   3.600   1.246 -0.0413  0.2827 -0.2578
  698SOL    HW2 2838   1.146   3.688   1.209  1.4369 -0.0519 -1.0970
  698SOL    HW3 2839   1.223   3.558   1.208  0.4760 -0.6823  1.8283
  698SOL    MW4 2840   1.156   3.606   1.236  0.2220  0.1113 -0.0933
  699SOL     OW 2841   2.087   2.053   0.544  1.1434 -0.4020 -0.3719
  699SOL    HW2 2842   2.064   2.125   0.602  2.4456 -0.7935  0.6653
  699SOL    HW3 2843   2.059   2.081   0.457  0.9205  1.0111  0.1494
  699SOL    MW4 2844   2.080   2.066   0.540  1.2856 -0.2675 -0.1664
  700SOL     OW 2845   4.458   2.717   0.853  0.0596  0.2733  0.4464
  700SOL    HW2 2846   4.385   2.667   0.817  0.6833 -0.4110  0.1364
  700SOL    HW3 2847   4.447   2.805   0.815  0.1135 -0.1599 -0.6083
  700SOL    MW4 2848   4.447   2.722   0.843  0.1493  0.1259  0.2664
  701SOL     OW 2849   3.606   3.447   1.116  0.4694  0.1629  0.5574
  701SOL    HW2 2850   3.636   3.433   1.026  0.8607  0.2865  0.6641
  701SOL    HW3 2851   3.585   3.360   1.148  1.1827  0.0164  0.6359
  701SOL    MW4 2852   3.607   3.434   1.108  0.6154  0.1600  0.5819
  702SOL     OW 2853   2.962   3.790   0.921 -0.3831  0.5519  0.2470
  702SOL    HW2 2854   2.937   3.840   0.843  0.0567 -0.6483 -0.6752
  702SOL    HW3 2855   2.932   3.844   0.995 -0.9222  1.6319 -0.7488
  702SOL    MW4 2856   2.954   3.804   0.921 -0.3960  0.5360 -0.0061
  703SOL     OW 2857   3.397   2.866   1.179 -0.1175  0.4174 -0.1581
  703SOL    HW2 2858   3.318   2.818   1.155  0.2696 -0.5301  0.4177
  703SOL    HW3 2859   3.469   2.807   1.157  0.4799  1.5957 -1.4273
  703SOL    MW4 2860   3.396   2.852   1.173  0.0124  0.4478 -0.2496
  704SOL     OW 2861   3.813   2.275   1.135 -0.4991  0.5260  0.0045
  704SOL    HW2 2862   3.821   2.185   1.167  0.5965  0.2020 -1.1345
  704SOL    HW3 2863   3.887   2.322   1.175  0.1216  0.4229 -0.9945
  704SOL    MW4 2864   3.824   2.270   1.145 -0.2728  0.4699 -0.2776
  705SOL     OW 2865   1.323   2.952   0.472 -0.2529  0.3920 -0.4513
  705SOL    HW2 2866   1.308   3.038   0.431 -1.6900  0.0370 -0.7303
  705SOL    HW3 2867   1.275   2.957   0.555 -0.0401 -0.0197 -0.3053
  705SOL    MW4 2868   1.314   2.964   0.477 -0.4145  0.2911 -0.4688
  706SOL     OW 2869   3.177   3.442   0.871  0.0533  0.5075 -0.6542
  706SOL    HW2 2870   3.189   3.535   0.853  0.5853  0.6744  0.5526
  706SOL    HW3 2871   3.210   3.398   0.793  3.7131  1.1525  0.4704
  706SOL    MW4 2872   3.183   3.449   0.859  0.6063  0.6146 -0.3466
  707SOL     OW 2873   2.794   1.953   0.271  0.5420 -0.1577  0.4020
  707SOL    HW2 2874   2.732   1.987   0.337  0.4718 -1.5137  1.0406
  707SOL    HW3 2875   2.865   1.916   0.322  0.3892 -1.4041 -0.2792
  707SOL    MW4 2876   2.795   1.953   0.287  0.5128 -0.5008  0.3963
  708SOL     OW 2877   0.695   0.986   0.783 -0.1779  0.0686 -0.4661
  708SOL    HW2 2878   0.672   0.981   0.690  0.6398 -0.2807 -0.6493
  708SOL    HW3 2879   0.771   1.043   0.786 -0.0169 -0.1669 -0.0431
  708SOL    MW4 2880   0.702   0.993   0.771 -0.0488 -0.0085 -0.4346
  709SOL     OW 2881   0.644   2.111   0.491  0.3160 -0.0787 -0.0860
  709SOL    HW2 2882   0.724   2.061   0.503  0.4987 -0.0206 -1.0374
  709SOL    HW3 2883   0.671   2.188   0.441 -0.1759  0.3813  0.3493
  709SOL    MW4 2884   0.658   2.115   0.486  0.2752 -0.0105 -0.1541
  710SOL     OW 2885   0.038   1.183   0.801 -0.1526  0.2274 -0.1028
  710SOL    HW2 2886   0.056   1.258   0.744  0.8850  1.2801  1.5657
  710SOL    HW3 2887   0.122   1.137   0.808 -0.2472  0.1613  0.6515
  710SOL    MW4 2888   0.052   1.187   0.794 -0.0282  0.3575  0.2169
  711SOL     OW 2889   2.141   2.332   0.478 -0.1287 -0.0941 -0.2047
  711SOL    HW2 2890   2.079   2.296   0.414 -0.0888  0.1965 -0.4101
  711SOL    HW3 2891   2.172   2.413   0.437  0.4535 -0.2822 -0.1451
  711SOL    MW4 2892   2.137   2.338   0.464 -0.0465 -0.0808 -0.2240
  712SOL     OW 2893   3.863   2.030   1.489  0.0778  0.2182 -0.2968
  712SOL    HW2 2894   3.843   2.116   1.526 -1.0811  0.2560 -0.9933
  712SOL    HW3 2895   3.793   1.973   1.519 -0.2613 -0.0108 -1.4823
  712SOL    MW4 2896   3.851   2.034   1.498 -0.1197  0.1931 -0.5451
  713SOL     OW 2897   3.499   2.802   0.447  0.2528 -0.0618 -0.1762
  713SOL    HW2 2898   3.516   2.826   0.538  1.1901 -0.6348 -0.1975
  713SOL    HW3 2899   3.586   2.795   0.407 -0.0532 -2.0813 -0.5346
  713SOL    MW4 2900   3.512   2.804   0.454  0.3359 -0.4039 -0.2263
  714SOL     OW 2901   0.973   0.633   0.502  0.1280  0.2450  0.3046
  714SOL    HW2 2902   0.958   0.720   0.464  0.2554  0.6059  1.0664
  714SOL    HW3 2903   1.067   0.620   0.495  0.2752  0.6919  1.2775
  714SOL    MW4 2904   0.983   0.643   0.496  0.1643  0.3515  0.5334
  715SOL     OW 2905   3.849   0.197   0.792 -0.2721 -0.3122  0.0839
  715SOL    HW2 2906   3.831   0.183   0.699 -0.0597 -0.1330  0.0153
  715SOL    HW3 2907   3.855   0.109   0.829  1.6784 -0.4275 -0.4675
  715SOL    MW4 2908   3.847   0.184   0.785  0.0131 -0.3038  0.0021
  716SOL     OW 2909   3.127   3.503   1.158 -0.5457 -0.4410  0.0242
  716SOL    HW2 2910   3.129   3.474   1.067 -0.4175  0.1715 -0.1691
  716SOL    HW3 2911   3.206   3.555   1.168 -1.6380  1.3142 -0.1262
  716SOL    MW4 2912   3.137   3.506   1.147 -0.6728 -0.1285 -0.0211
  717SOL     OW 2913   3.153   2.208   0.677 -0.1381  0.0304  0.2251
  717SOL    HW2 2914   3.075   2.253   0.708 -0.1900 -0.3609  0.6839
  717SOL    HW3 2915   3.146   2.120   0.715  0.8777  0.2194  0.8636
  717SOL    MW4 2916   3.142   2.202   0.686 -0.0112  0.0036  0.3699
  718SOL     OW 2917   2.292   2.997   0.727 -0.5138  0.0430  0.3319
  718SOL    HW2 2918   2.288   2.989   0.632  2.0940 -1.9287  0.3274
  718SOL    HW3 2919   2.259   2.913   0.759  0.7940 -0.1981  1.0853
  718SOL    MW4 2920   2.287   2.985   0.719  0.0026 -0.2489  0.4308
  719SOL     OW 2921   3.071   0.349   0.494  0.0407 -0.4709 -0.0455
  719SOL    HW2 2922   2.996   0.293   0.514 -2.0724  2.4907  0.6294
  719SOL    HW3 2923   3.032   0.433   0.471  3.1877  1.2069  0.5410
  719SOL    MW4 2924   3.056   0.353   0.493  0.1771  0.1412  0.1209
  720SOL     OW 2925   0.854   0.292   0.175 -0.2764  0.5713  0.4616
  720SOL    HW2 2926   0.867   0.269   0.083  0.5409 -0.0595  0.7280
  720SOL    HW3 2927   0.851   0.208   0.220  2.5006  0.9595  1.4246
  720SOL    MW4 2928   0.855   0.278   0.168  0.1978  0.5392  0.6238
  721SOL     OW 2929   4.469   2.448   0.420  0.2910 -0.0573 -0.1735
  721SOL    HW2 2930   4.494   2.497   0.498  1.4199 -0.9010  0.0050
  721SOL    HW3 2931   4.527   2.480   0.352  0.2291 -0.2952 -0.3384
  721SOL    MW4 2932   4.480   2.458   0.422  0.4320 -0.2000 -0.1717
  722SOL     OW 2933   3.440   2.402   0.492 -0.6098  0.3027  0.5562
  722SOL    HW2 2934   3.456   2.457   0.568 -1.2706 -0.7297  1.4517
  722SOL    HW3 2935   3.348   2.377   0.499 -0.4302 -0.5747 -0.0742
  722SOL    MW4 2936   3.430   2.406   0.503 -0.6735  0.0508  0.5911
  723SOL     OW 2937   3.428   0.777   1.070  0.2309 -0.3696  0.0357
  723SOL    HW2 2938   3.489   0.819   1.131 -0.0648 -3.2445  2.4383
  723SOL    HW3 2939   3.349   0.832   1.074  0.4135 -0.2035  1.8682
  723SOL    MW4 2940   3.425   0.790   1.079  0.2162 -0.7270  0.5944
  724SOL     OW 2941   4.051   4.043   1.219  0.3779 -0.0162 -0.5733
  724SOL    HW2 2942   3.993   3.985   1.170 -0.1670 -0.3761  0.4743
  724SOL    HW3 2943   4.046   4.127   1.172 -2.9842  0.6945  0.9017
  724SOL    MW4 2944   4.042   4.047   1.206 -0.1373  0.0305 -0.2406
  725SOL     OW 2945   0.264   0.005   1.905  0.6579 -0.2726  0.2664
  725SOL    HW2 2946   0.318   0.077   1.935 -0.3136  0.7825 -0.4636
  725SOL    HW3 2947   0.269   0.009   1.809  0.4031 -1.0280  0.2128
  725SOL    MW4 2948   0.272   0.015   1.896  0.4961 -0.2331  0.1630
  726SOL     OW 2949   4.122   3.313   0.402 -0.0979 -0.3246 -0.5560
  726SOL    HW2 2950   4.072   3.244   0.445  0.7469  0.1703  1.2762
  726SOL    HW3 2951   4.061   3.387   0.399 -0.6892 -0.8347 -1.6820
  726SOL    MW4 2952   4.107   3.314   0.407 -0.0644 -0.3266 -0.4628
  727SOL     OW 2953   0.024   0.107   1.508 -0.1698 -0.4632  0.1508
  727SOL    HW2 2954   0.006   0.200   1.523  0.0726 -0.5131  0.7815
  727SOL    HW3 2955  -0.057   0.063   1.533 -0.0438 -0.4773  0.5436
  727SOL    MW4 2956   0.011   0.114   1.513 -0.1212 -0.4716  0.2857
  728SOL     OW 2957   0.245   0.466   1.519  0.5315 -0.4551  0.2155
  728SOL    HW2 2958   0.241   0.561   1.534 -0.6162 -0.0121 -2.6236
  728SOL    HW3 2959   0.157   0.435   1.537  0.4470 -0.6998 -0.6147
  728SOL    MW4 2960   0.233   0.475   1.523  0.3689 -0.4289 -0.2686
  729SOL     OW 2961   0.484   0.110   1.510 -0.0766  0.4022  0.2864
  729SOL    HW2 2962   0.465   0.132   1.418  0.5441  1.0119  0.2936
  729SOL    HW3 2963   0.484   0.195   1.555 -1.5336 -0.0049  1.0789
  729SOL    MW4 2964   0.482   0.124   1.504 -0.1869  0.4290  0.3918
  730SOL     OW 2965   4.453   0.831   1.450 -0.2172  0.3042  0.2558
  730SOL    HW2 2966   4.451   0.851   1.357  0.4963  0.8022  0.3480
  730SOL    HW3 2967   4.480   0.912   1.492 -0.0260 -0.0613  0.8523
  730SOL    MW4 2968   4.456   0.844   1.443 -0.0973  0.3216  0.3467
  731SOL     OW 2969   4.301   1.235   1.484 -0.5199  0.3608  0.3153
  731SOL    HW2 2970   4.223   1.208   1.533 -0.5162 -0.6131 -0.1941
  731SOL    HW3 2971   4.374   1.195   1.531 -0.4032  0.5209  0.2730
  731SOL    MW4 2972   4.300   1.226   1.496 -0.5035  0.2536  0.2427
  732SOL     OW 2973   0.227   1.246   1.506  0.0815 -0.7384  0.4665
  732SOL    HW2 2974   0.209   1.332   1.544 -0.7186 -0.2202 -1.0242
  732SOL    HW3 2975   0.216   1.259   1.412  2.7348 -1.8071 -0.0374
  732SOL    MW4 2976   0.223   1.259   1.498  0.3260 -0.8110  0.2034
  733SOL     OW 2977   0.215   1.503   1.588  0.2192 -0.0170  0.2881
  733SOL    HW2 2978   0.220   1.539   1.676  0.8307 -1.2476  0.7619
  733SOL    HW3 2979   0.137   1.544   1.549  0.2267  0.8872  1.2292
  733SOL    MW4 2980   0.205   1.513   1.594  0.3009 -0.0600  0.4748
  734SOL     OW 2981   4.289   1.484   1.605 -0.1752 -0.4183 -0.1874
  734SOL    HW2 2982   4.358   1.526   1.553 -0.9124 -0.2591 -1.0479
  734SOL    HW3 2983   4.295   1.391   1.582  0.9967 -0.7113  1.1906
  734SOL    MW4 2984   4.299   1.477   1.595 -0.1178 -0.4358 -0.1192
  735SOL     OW 2985   0.035   1.927   1.618  0.0408 -0.1393  0.1309
  735SOL    HW2 2986   0.006   1.925   1.709  0.4257 -1.8396  0.2356
  735SOL    HW3 2987  -0.039   1.964   1.570 -0.9738 -1.1773  0.8573
  735SOL    MW4 2988   0.022   1.932   1.624 -0.0423 -0.5006  0.2406
  736SOL     OW 2989   0.233   2.086   1.519  0.2625  0.4532  0.1281
  736SOL    HW2 2990   0.152   2.042   1.546 -0.2240  0.5053 -1.1909
  736SOL    HW3 2991   0.239   2.069   1.425  2.2894 -0.3320  0.3831
  736SOL    MW4 2992   0.223   2.078   1.510  0.4657  0.3564 -0.0123
  737SOL     OW 2993   0.184   2.347   1.628  0.5800 -0.2963 -0.3053
  737SOL    HW2 2994   0.179   2.343   1.723 -0.6386 -1.9649 -0.4229
  737SOL    HW3 2995   0.216   2.262   1.601  0.9716  0.1813 -1.3944
  737SOL    MW4 2996   0.187   2.336   1.637  0.4709 -0.4535 -0.4644
  738SOL     OW 2997   4.442   2.422   1.483  0.0636 -0.2718 -0.1128
  738SOL    HW2 2998   4.361   2.404   1.530 -0.5056  0.0924 -0.9446
  738SOL    HW3 2999   4.511   2.386   1.539 -0.5271  0.9192  1.4174
  738SOL    MW4 3000   4.440   2.415   1.497 -0.0896 -0.0665 -0.0206
  739SOL     OW 3001   0.001   2.684   1.595  0.3275 -0.3686 -0.1180
  739SOL    HW2 3002  -0.028   2.597   1.569 -0.4342 -0.0125 -0.4781
  739SOL    HW3 3003  -0.063   2.743   1.556  0.6018  0.3266  0.4712
  739SOL    MW4 3004  -0.011   2.680   1.587  0.2637 -0.2298 -0.0879
  740SOL     OW 3005   0.212   2.853   1.534  0.0456  0.2145 -0.4372
  740SOL    HW2 3006   0.282   2.800   1.573 -0.0639  0.0998 -0.3975
  740SOL    HW3 3007   0.136   2.795   1.531  0.2091  0.0516 -1.3471
  740SOL    MW4 3008   0.211   2.838   1.539  0.0527  0.1779 -0.5521
  741SOL     OW 3009   0.206   3.110   1.683  0.0478 -0.1472 -0.5050
  741SOL    HW2 3010   0.146   3.166   1.633  0.0403  0.2664 -0.0280
  741SOL    HW3 3011   0.204   3.026   1.637 -1.5826 -0.4091  0.0349
  741SOL    MW4 3012   0.198   3.107   1.670 -0.1683 -0.1273 -0.3706
  742SOL     OW 3013   0.012   3.239   1.528 -0.1356 -0.1782 -0.0367
  742SOL    HW2 3014  -0.001   3.333   1.535 -2.3954 -0.3881 -1.0065
  742SOL    HW3 3015   0.035   3.225   1.436  3.6088 -0.2483  0.8199
  742SOL    MW4 3016   0.013   3.249   1.517  0.0603 -0.2153 -0.0517
  743SOL     OW 3017   4.480   3.500   1.594  0.0320  0.3054 -0.2767
  743SOL    HW2 3018   4.487   3.496   1.690 -0.1632  1.7989 -0.1847
  743SOL    HW3 3019   4.403   3.555   1.578 -0.6286 -0.8831 -1.3059
  743SOL    MW4 3020   4.470   3.507   1.605 -0.0811  0.3457 -0.4004
  744SOL     OW 3021   0.211   3.631   1.507  0.2216 -0.4364  0.1909
  744SOL    HW2 3022   0.215   3.721   1.540 -0.2222 -0.2425 -0.2834
  744SOL    HW3 3023   0.131   3.596   1.546 -0.6804  0.0137 -1.2286
  744SOL    MW4 3024   0.201   3.638   1.517  0.0440 -0.3514 -0.0590
  745SOL     OW 3025   0.206   3.888   1.609  0.0201 -0.0707  0.2143
  745SOL    HW2 3026   0.210   3.901   1.704  1.2429 -1.0997  0.3136
  745SOL    HW3 3027   0.288   3.924   1.576 -0.5821  0.6588 -0.5112
  745SOL    MW4 3028   0.218   3.895   1.617  0.1020 -0.1104  0.1317
  746SOL     OW 3029   4.216   3.927   1.625  0.0818  0.3526 -0.5140
  746SOL    HW2 3030   4.138   3.964   1.584 -0.9405 -0.2845  0.8213
  746SOL    HW3 3031   4.289   3.958   1.570 -0.8698  3.0118 -0.3322
  746SOL    MW4 3032   4.215   3.936   1.612 -0.1783  0.6194 -0.3138
  747SOL     OW 3033   4.483   4.308   1.887  0.2279  0.2203 -0.0567
  747SOL    HW2 3034   4.403   4.355   1.910 -0.1045 -0.6693  0.6319
  747SOL    HW3 3035   4.554   4.363   1.921  0.0087  1.8531 -2.1516
  747SOL    MW4 3036   4.482   4.321   1.895  0.1554  0.3185 -0.2421
  748SOL     OW 3037   0.250   4.633   1.603  0.0957 -0.2084 -0.4657
  748SOL    HW2 3038   0.178   4.668   1.549 -0.8763 -3.0255 -1.0711
  748SOL    HW3 3039   0.328   4.677   1.570 -0.5907 -1.2319 -3.6461
  748SOL    MW4 3040   0.251   4.644   1.591 -0.1231 -0.7153 -0.9651
  749SOL     OW 3041   0.673   4.611   1.605  0.2483  0.0223  0.1202
  749SOL    HW2 3042   0.750   4.652   1.567 -0.4294 -1.1137 -2.6329
  749SOL    HW3 3043   0.599   4.662   1.570 -0.4433 -1.5807 -0.7675
  749SOL    MW4 3044   0.673   4.623   1.595  0.0677 -0.3390 -0.3601
  750SOL     OW 3045   0.889   4.494   0.760 -0.0835  0.2041  0.2845
  750SOL    HW2 3046   0.898   4.493   0.664 -1.2942  0.4883  0.1683
  750SOL    HW3 3047   0.904   4.403   0.786  0.2098  0.1184 -0.1771
  750SOL    MW4 3048   0.892   4.482   0.751 -0.2045  0.2303  0.2083
  751SOL     OW 3049   0.024   0.130   1.211  0.0052  0.0909  0.1288
  751SOL    HW2 3050   0.032   0.146   1.305  0.6144  0.6553 -0.0181
  751SOL    HW3 3051  -0.006   0.213   1.175  2.8515  0.8424 -0.5960
  751SOL    MW4 3052   0.021   0.143   1.218  0.4611  0.2645  0.0138
  752SOL     OW 3053   3.237   0.448   0.704 -0.7318  0.1964 -0.1822
  752SOL    HW2 3054   3.191   0.413   0.628  1.0883 -0.5577 -0.9623
  752SOL    HW3 3055   3.310   0.388   0.718  1.1716  2.4378 -0.1993
  752SOL    MW4 3056   3.240   0.436   0.696 -0.2408  0.3926 -0.2874
  753SOL     OW 3057   0.670   0.450   1.508 -0.0122 -0.4247 -0.0714
  753SOL    HW2 3058   0.676   0.538   1.545 -1.2196 -0.4454  0.2037
  753SOL    HW3 3059   0.686   0.462   1.414  1.1811 -0.1081  0.1698
  753SOL    MW4 3060   0.673   0.464   1.500 -0.0140 -0.3857 -0.0035
  754SOL     OW 3061   0.439   0.874   1.541  0.1729  0.1121  0.1817
  754SOL    HW2 3062   0.514   0.832   1.584 -0.0867 -0.4389  0.0901
  754SOL    HW3 3063   0.447   0.967   1.565  1.8854  0.3695 -1.2603
  754SOL    MW4 3064   0.450   0.881   1.550  0.3646  0.0734 -0.0207
  755SOL     OW 3065   0.454   1.138   1.624  0.5072  0.0529  0.0180
  755SOL    HW2 3066   0.524   1.197   1.594  0.4136  0.0682 -0.1771
  755SOL    HW3 3067   0.374   1.180   1.593  0.4361 -0.1491 -0.0728
  755SOL    MW4 3068   0.453   1.152   1.616  0.4855  0.0284 -0.0197
  756SOL     OW 3069   0.677   1.244   1.488 -0.1348  0.5296 -0.0204
  756SOL    HW2 3070   0.701   1.332   1.518  0.0532  0.8598 -1.1147
  756SOL    HW3 3071   0.696   1.245   1.394 -0.3611 -0.6047 -0.0824
  756SOL    MW4 3072   0.683   1.256   1.479 -0.1399  0.4237 -0.1731
  757SOL     OW 3073   0.701   1.527   1.603 -0.2885 -0.0350  0.2161
  757SOL    HW2 3074   0.769   1.579   1.560 -0.1391 -0.5651 -0.1971
  757SOL    HW3 3075   0.619   1.570   1.578 -0.0124  1.8516  2.4229
  757SOL    MW4 3076   0.699   1.540   1.594 -0.2324  0.1440  0.4526
  758SOL     OW 3077   0.456   1.641   1.494  0.6598 -0.6615 -0.2422
  758SOL    HW2 3078   0.439   1.732   1.517 -0.9662 -0.9286 -0.2654
  758SOL    HW3 3079   0.377   1.594   1.523  1.2409 -1.9611 -0.7194
  758SOL    MW4 3080   0.443   1.647   1.501  0.5220 -0.8683 -0.3079
  759SOL     OW 3081   0.460   1.903   1.583  0.4393 -0.3607 -0.2752
  759SOL    HW2 3082   0.453   1.911   1.678  0.9323 -2.1466 -0.0698
  759SOL    HW3 3083   0.387   1.956   1.549 -0.2791 -0.4283  1.1296
  759SOL    MW4 3084   0.449   1.911   1.591  0.4096 -0.6052 -0.0627
  760SOL     OW 3085   0.672   2.045   1.475 -0.3554 -0.1652  0.2430
  760SOL    HW2 3086   0.751   2.008   1.513 -0.4088 -0.9256 -0.3609
  760SOL    HW3 3087   0.600   2.001   1.520 -0.4214 -0.6360 -0.3167
  760SOL    MW4 3088   0.673   2.034   1.486 -0.3712 -0.3278  0.0894
  761SOL     OW 3089   0.650   2.302   1.599 -0.2836  0.0084 -0.0172
  761SOL    HW2 3090   0.579   2.351   1.556 -1.4943 -2.0300 -0.3847
  761SOL    HW3 3091   0.642   2.213   1.564  1.1698 -0.7323  1.5090
  761SOL    MW4 3092   0.640   2.297   1.589 -0.2516 -0.3581  0.1355
  762SOL     OW 3093   0.411   2.462   1.509 -0.1162  0.0076 -0.0437
  762SOL    HW2 3094   0.421   2.540   1.563  1.3568 -0.4812  0.4286
  762SOL    HW3 3095   0.332   2.419   1.542 -0.0148  0.4554  0.7784
  762SOL    MW4 3096   0.402   2.466   1.521  0.0915  0.0021  0.1271
  763SOL     OW 3097   0.436   2.704   1.642 -0.0793  0.0713  0.5490
  763SOL    HW2 3098   0.439   2.701   1.738  1.3135 -0.8204  0.5068
  763SOL    HW3 3099   0.508   2.761   1.617  0.3570 -0.6963  0.0090
  763SOL    MW4 3100   0.446   2.711   1.651  0.1621 -0.1478  0.4722
  764SOL     OW 3101   0.657   2.829   1.506  0.4122 -0.1478  0.2935
  764SOL    HW2 3102   0.666   2.920   1.534  0.1489 -0.5995  1.8879
  764SOL    HW3 3103   0.637   2.835   1.413  2.8928  1.3422 -0.1952
  764SOL    MW4 3104   0.655   2.842   1.498  0.7048 -0.0110  0.4393
  765SOL     OW 3105   0.642   3.090   1.599 -0.0685 -0.0592  0.4144
  765SOL    HW2 3106   0.716   3.151   1.593 -1.3141  1.5072  0.7093
  765SOL    HW3 3107   0.570   3.135   1.554 -1.0002 -1.3299  0.6153
  765SOL    MW4 3108   0.643   3.104   1.592 -0.3557 -0.0205  0.4798
  766SOL     OW 3109   0.424   3.235   1.502  0.5250  0.4361  0.0681
  766SOL    HW2 3110   0.363   3.183   1.554 -1.6092  3.0890  0.3437
  766SOL    HW3 3111   0.387   3.233   1.413  0.9370  0.6961 -0.1105
  766SOL    MW4 3112   0.411   3.228   1.497  0.2977  0.8204  0.0809
  767SOL     OW 3113   0.438   3.506   1.616 -0.4186  0.3217  0.3304
  767SOL    HW2 3114   0.445   3.419   1.577 -0.1014  0.5395 -0.1006
  767SOL    HW3 3115   0.361   3.545   1.575 -0.1938  0.4802  0.0577
  767SOL    MW4 3116   0.429   3.500   1.606 -0.3471  0.3715  0.2376
  768SOL     OW 3117   0.658   3.648   1.550  0.4853  0.1194 -0.0726
  768SOL    HW2 3118   0.726   3.600   1.596  0.8181  1.2935  0.6891
  768SOL    HW3 3119   0.577   3.600   1.569  0.5671  0.7849  2.0572
  768SOL    MW4 3120   0.656   3.635   1.559  0.5400  0.3624  0.3089
  769SOL     OW 3121   0.663   3.904   1.641  0.8064  0.2716 -0.0745
  769SOL    HW2 3122   0.741   3.935   1.596  0.6411  1.0629  0.1625
  769SOL    HW3 3123   0.660   3.810   1.625  1.9643  0.1943  0.1738
  769SOL    MW4 3124   0.673   3.896   1.633  0.9373  0.3655 -0.0105
  770SOL     OW 3125   0.435   4.009   1.506  0.0661  0.6233  0.3079
  770SOL    HW2 3126   0.464   4.020   1.416 -0.1709 -0.3241  0.1186
  770SOL    HW3 3127   0.513   3.976   1.552 -0.0465  0.3256  0.2833
  770SOL    MW4 3128   0.449   4.006   1.500  0.0199  0.4592  0.2795
  771SOL     OW 3129   0.438   4.259   1.620 -0.2444 -0.3081  0.1647
  771SOL    HW2 3130   0.422   4.182   1.567  1.3445 -0.3378 -0.2994
  771SOL    HW3 3131   0.361   4.315   1.607 -0.7660 -1.1983 -0.5727
  771SOL    MW4 3132   0.426   4.257   1.612 -0.1036 -0.4296  0.0063
  772SOL     OW 3133   0.651   4.357   1.501 -0.0013 -0.0041 -0.0340
  772SOL    HW2 3134   0.578   4.318   1.549 -0.0786  0.5964  0.3437
  772SOL    HW3 3135   0.667   4.440   1.545  0.5150  0.1461 -0.4966
  772SOL    MW4 3136   0.644   4.363   1.513  0.0566  0.0944 -0.0453
  773SOL     OW 3137   1.282   0.135   1.532 -0.0529 -0.2184  0.3709
  773SOL    HW2 3138   1.307   0.221   1.565  0.7776 -0.6864  0.9717
  773SOL    HW3 3139   1.303   0.138   1.439  1.1780 -0.2083  0.6389
  773SOL    MW4 3140   1.288   0.147   1.524  0.2191 -0.2788  0.4854
  774SOL     OW 3141   0.908   0.321   1.596  0.3818 -0.0103 -0.1371
  774SOL    HW2 3142   0.828   0.361   1.562  1.0152  0.5318 -1.0305
  774SOL    HW3 3143   0.912   0.348   1.688  0.3721  1.2921 -0.5166
  774SOL    MW4 3144   0.898   0.330   1.604  0.4641  0.2331 -0.3051
  775SOL     OW 3145   1.093   4.608   1.648 -0.0291  0.7875 -0.2627
  775SOL    HW2 3146   1.170   4.656   1.619  0.5406  0.1771  0.2124
  775SOL    HW3 3147   1.079   4.636   1.738  1.3709 -1.2136  0.6216
  775SOL    MW4 3148   1.101   4.618   1.656  0.2308  0.4430 -0.0833
  776SOL     OW 3149   1.074   0.511   1.485 -0.0328  1.1225 -0.8771
  776SOL    HW2 3150   1.022   0.448   1.535  0.5751  0.7471 -0.7153
  776SOL    HW3 3151   1.061   0.594   1.530 -0.0569  0.9220 -0.5116
  776SOL    MW4 3152   1.065   0.513   1.497  0.0442  1.0465 -0.8076
  777SOL     OW 3153   0.906   0.908   1.498 -0.3793  0.1277 -0.4772
  777SOL    HW2 3154   0.979   0.851   1.521 -0.6965 -0.2135 -0.3118
  777SOL    HW3 3155   0.912   0.916   1.403  1.0632  1.7186 -0.2770
  777SOL    MW4 3156   0.917   0.902   1.488 -0.2307  0.2927 -0.4290
  778SOL     OW 3157   0.682   0.736   1.602 -0.1251 -0.4588 -0.2176
  778SOL    HW2 3158   0.712   0.749   1.692 -0.8490 -0.1459 -0.0145
  778SOL    HW3 3159   0.722   0.808   1.553 -1.5568  0.7231  0.2964
  778SOL    MW4 3160   0.691   0.747   1.608 -0.4095 -0.2615 -0.1229
  779SOL     OW 3161   0.894   1.154   1.626  0.2335 -0.4461  0.1168
  779SOL    HW2 3162   0.815   1.190   1.587 -1.4686 -2.2076  1.8004
  779SOL    HW3 3163   0.901   1.066   1.589  0.8721 -0.6317  0.6670
  779SOL    MW4 3164   0.885   1.147   1.616  0.0933 -0.7030  0.4115
  780SOL     OW 3165   1.090   1.288   1.491 -0.0518 -0.0467  0.8609
  780SOL    HW2 3166   1.021   1.248   1.543  0.5794 -0.9293  1.0342
  780SOL    HW3 3167   1.171   1.247   1.523  0.2410 -1.5084 -1.6488
  780SOL    MW4 3168   1.092   1.277   1.502  0.0701 -0.3560  0.5525
  781SOL     OW 3169   1.125   1.536   1.628 -0.1006  0.0362  0.4358
  781SOL    HW2 3170   1.201   1.587   1.601  0.7733 -0.5722  1.7205
  781SOL    HW3 3171   1.129   1.456   1.576  0.0057  0.1045  0.3391
  781SOL    MW4 3172   1.135   1.533   1.618  0.0286 -0.0350  0.5926
  782SOL     OW 3173   0.905   1.665   1.471 -0.0406 -0.4500  0.2340
  782SOL    HW2 3174   0.975   1.606   1.500 -0.7016 -1.9944 -1.2109
  782SOL    HW3 3175   0.904   1.656   1.376 -0.2137  1.8645 -0.0170
  782SOL    MW4 3176   0.914   1.656   1.462 -0.1507 -0.3483  0.0103
  783SOL     OW 3177   0.883   1.917   1.624  0.2431 -0.1614  0.2315
  783SOL    HW2 3178   0.955   1.971   1.591  0.3611 -0.3321  0.2123
  783SOL    HW3 3179   0.876   1.845   1.560 -1.3558  1.0206 -0.9761
  783SOL    MW4 3180   0.891   1.915   1.611  0.0477 -0.0279  0.0697
  784SOL     OW 3181   1.099   2.073   1.515  0.1747  0.2619 -0.5392
  784SOL    HW2 3182   1.175   2.023   1.544 -0.0718 -0.5020 -1.1860
  784SOL    HW3 3183   1.115   2.162   1.547  0.6633 -0.1992  0.5404
  784SOL    MW4 3184   1.111   2.078   1.523  0.2066  0.1001 -0.4821
  785SOL     OW 3185   1.150   2.345   1.592 -0.2470  0.3699 -0.1486
  785SOL    HW2 3186   1.154   2.334   1.687 -0.2188 -0.5242 -0.2531
  785SOL    HW3 3187   1.061   2.374   1.575 -0.1530  0.8657  0.1829
  785SOL    MW4 3188   1.139   2.348   1.603 -0.2309  0.3173 -0.1186
  786SOL     OW 3189   0.891   2.402   1.508  0.2906  0.2308 -0.1332
  786SOL    HW2 3190   0.871   2.496   1.513 -1.0826  0.0775 -2.1269
  786SOL    HW3 3191   0.815   2.359   1.547  0.3874 -0.1040 -0.3121
  786SOL    MW4 3192   0.878   2.409   1.514  0.1222  0.1664 -0.4200
  787SOL     OW 3193   0.865   2.684   1.590 -0.2275 -0.1488 -0.0721
  787SOL    HW2 3194   0.862   2.699   1.684 -0.1152 -2.3288  0.3042
  787SOL    HW3 3195   0.803   2.747   1.553 -1.1891 -0.1251  1.5602
  787SOL    MW4 3196   0.857   2.695   1.598 -0.3396 -0.4332  0.1929
  788SOL     OW 3197   1.096   2.843   1.519 -0.0611  0.5785 -0.2105
  788SOL    HW2 3198   1.013   2.794   1.516  0.5334 -0.3604 -1.8618
  788SOL    HW3 3199   1.072   2.927   1.558 -1.3133 -0.5885  1.6384
  788SOL    MW4 3200   1.082   2.848   1.524 -0.1477  0.3006 -0.1845
  789SOL     OW 3201   1.087   3.112   1.594 -0.0909  0.1683  0.0077
  789SOL    HW2 3202   1.108   3.108   1.688  0.9377 -0.7682 -0.2513
  789SOL    HW3 3203   1.170   3.132   1.552 -0.5794  0.7135 -0.6969
  789SOL    MW4 3204   1.101   3.114   1.601 -0.0197  0.1168 -0.1194
  790SOL     OW 3205   0.869   3.263   1.510 -0.1152  0.3678 -0.1825
  790SOL    HW2 3206   0.951   3.228   1.547 -1.1876 -1.1917  0.7595
  790SOL    HW3 3207   0.878   3.249   1.415 -0.2911 -2.0747  0.1146
  790SOL    MW4 3208   0.881   3.256   1.502 -0.2799 -0.1602 -0.0190
  791SOL     OW 3209   0.879   3.505   1.646 -0.3410 -0.2291  0.2195
  791SOL    HW2 3210   0.957   3.543   1.605  0.9938 -0.9384  2.0539
  791SOL    HW3 3211   0.879   3.414   1.616  1.1877 -1.0212  2.4874
  791SOL    MW4 3212   0.889   3.498   1.637  0.0368 -0.4268  0.7608
  792SOL     OW 3213   1.108   3.602   1.522  0.2945  0.3304  0.0961
  792SOL    HW2 3214   1.188   3.566   1.559 -0.8108 -2.0649  0.2033
  792SOL    HW3 3215   1.123   3.604   1.428 -0.6182 -3.0173 -0.1778
  792SOL    MW4 3216   1.120   3.598   1.515  0.0281 -0.4272  0.0741
  793SOL     OW 3217   1.109   3.868   1.628  0.2471 -0.6047  0.0387
  793SOL    HW2 3218   1.195   3.896   1.597 -0.4731 -0.8658 -2.3062
  793SOL    HW3 3219   1.101   3.777   1.599 -0.5914 -0.7604  0.7263
  793SOL    MW4 3220   1.119   3.859   1.620  0.0415 -0.6597 -0.1800
  794SOL     OW 3221   0.889   3.987   1.489  0.1101 -0.3242  0.0580
  794SOL    HW2 3222   0.892   4.077   1.520 -2.0754 -0.8316  1.9052
  794SOL    HW3 3223   0.961   3.944   1.534 -0.8499 -0.2239  1.7265
  794SOL    MW4 3224   0.899   3.993   1.499 -0.3049 -0.3777  0.5219
  795SOL     OW 3225   0.878   4.240   1.595 -0.0498 -0.1858  0.7327
  795SOL    HW2 3226   0.878   4.259   1.688 -0.0441 -1.1552  0.9398
  795SOL    HW3 3227   0.786   4.252   1.568 -0.0518  0.0848  0.8677
  795SOL    MW4 3228   0.866   4.244   1.603 -0.0492 -0.2780  0.7780
  796SOL     OW 3229   1.089   4.385   1.510 -0.1853  1.0036  0.1415
  796SOL    HW2 3230   1.012   4.332   1.530 -0.9961  2.0800 -0.1300
  796SOL    HW3 3231   1.088   4.456   1.575  1.8332 -0.2170  1.5991
  796SOL    MW4 3232   1.079   4.387   1.521 -0.0260  0.9847  0.2981
  797SOL     OW 3233   1.523   4.651   1.631  0.2122 -0.0393 -0.3588
  797SOL    HW2 3234   1.510   4.664   1.725  1.8952  1.9324 -0.3589
  797SOL    HW3 3235   1.450   4.697   1.590  0.2131  0.2682 -0.0228
  797SOL    MW4 3236   1.512   4.659   1.638  0.4344  0.2613 -0.3145
  798SOL     OW 3237   1.116   0.439   1.229  0.4312  0.1380 -0.0057
  798SOL    HW2 3238   1.039   0.402   1.186  0.1805  0.6745 -0.0258
  798SOL    HW3 3239   1.091   0.448   1.320  0.0795  1.3340 -0.2141
  798SOL    MW4 3240   1.103   0.435   1.235  0.3518  0.3666 -0.0359
  799SOL     OW 3241   1.350   0.147   1.257  0.0767  0.1548  0.0053
  799SOL    HW2 3242   1.356   0.239   1.230  1.1213  0.4423  1.1539
  799SOL    HW3 3243   1.427   0.106   1.218 -0.7333 -0.3952 -1.0489
  799SOL    MW4 3244   1.361   0.154   1.248  0.1078  0.1202  0.0176
  800SOL     OW 3245   1.794   0.382   1.169  0.1664  0.4662 -0.5552
  800SOL    HW2 3246   1.720   0.436   1.197 -0.0842 -0.3547  0.3838
  800SOL    HW3 3247   1.871   0.432   1.196 -0.0604  0.6116 -0.1690
  800SOL    MW4 3248   1.794   0.396   1.176  0.1034  0.3770 -0.3804
  801SOL     OW 3249   1.591   0.772   1.605  0.2564  0.2297  0.6085
  801SOL    HW2 3250   1.583   0.772   1.700 -2.4139  1.5724  0.4540
  801SOL    HW3 3251   1.575   0.681   1.579 -1.5713  0.3350  1.3079
  801SOL    MW4 3252   1.588   0.760   1.614 -0.3370  0.4207  0.6803
  802SOL     OW 3253   1.125   0.749   1.613  0.5370 -0.2441 -0.0133
  802SOL    HW2 3254   1.117   0.758   1.708 -0.5830  0.6057 -0.1768
  802SOL    HW3 3255   1.212   0.782   1.593  1.2368 -1.5191  0.8445
  802SOL    MW4 3256   1.135   0.754   1.623  0.4814 -0.3002  0.0783
  803SOL     OW 3257   1.330   1.157   1.618  0.0934 -0.9701 -0.1460
  803SOL    HW2 3258   1.329   1.164   1.713 -0.9926 -0.0355 -0.2155
  803SOL    HW3 3259   1.339   1.063   1.601 -0.0168 -1.1705  0.8791
  803SOL    MW4 3260   1.331   1.145   1.628 -0.0645 -0.8731 -0.0199
  804SOL     OW 3261   1.566   1.271   1.504  0.0001 -0.2199  0.4055
  804SOL    HW2 3262   1.485   1.237   1.542 -1.4012  0.3507 -1.9739
  804SOL    HW3 3263   1.550   1.272   1.410  1.9738  1.9145  0.0359
  804SOL    MW4 3264   1.553   1.267   1.497  0.0757  0.1369  0.0428
  805SOL     OW 3265   1.577   1.532   1.593 -0.1001  0.3151  0.0687
  805SOL    HW2 3266   1.572   1.534   1.689  0.0620 -0.2403  0.0919
  805SOL    HW3 3267   1.575   1.439   1.571  2.1751  0.3302 -0.3288
  805SOL    MW4 3268   1.576   1.520   1.603  0.2215  0.2438  0.0194
  806SOL     OW 3269   1.342   1.667   1.529  0.1651  0.1586  0.3203
  806SOL    HW2 3270   1.418   1.622   1.565  0.1059  1.1651  1.7965
  806SOL    HW3 3271   1.359   1.673   1.435 -0.0023 -3.1976  0.0163
  806SOL    MW4 3272   1.354   1.662   1.522  0.1352 -0.1515  0.4749
  807SOL     OW 3273   1.306   1.938   1.629 -0.6473  0.0930  0.3182
  807SOL    HW2 3274   1.320   1.929   1.723 -1.3485 -0.1381  0.4021
  807SOL    HW3 3275   1.297   1.848   1.598 -0.8959  0.1917  0.1033
  807SOL    MW4 3276   1.307   1.925   1.637 -0.7727  0.0755  0.3009
  808SOL     OW 3277   1.538   2.029   1.487 -0.1095  0.1659  0.2677
  808SOL    HW2 3278   1.550   2.123   1.504 -1.6708  0.5603 -0.6447
  808SOL    HW3 3279   1.461   2.005   1.538  0.7124 -0.7857  1.0515
  808SOL    MW4 3280   1.529   2.038   1.496 -0.2071  0.0925  0.2509
  809SOL     OW 3281   1.555   2.320   1.553 -0.0810 -0.0996  0.5279
  809SOL    HW2 3282   1.471   2.358   1.529  0.1227  0.3541  0.5191
  809SOL    HW3 3283   1.620   2.377   1.513  0.2282 -0.7352  0.1112
  809SOL    MW4 3284   1.553   2.332   1.545 -0.0131 -0.1233  0.4717
  810SOL     OW 3285   1.331   2.476   1.446 -0.3169  0.3011  0.5301
  810SOL    HW2 3286   1.334   2.567   1.477  0.0415  0.8626 -1.1198
  810SOL    HW3 3287   1.258   2.437   1.494 -0.3194  1.3913  1.4411
  810SOL    MW4 3288   1.322   2.483   1.456 -0.2701  0.5188  0.4327
  811SOL     OW 3289   1.337   2.723   1.564  0.3791  0.0078 -0.2471
  811SOL    HW2 3290   1.255   2.765   1.539  0.0982 -0.7533 -0.6288
  811SOL    HW3 3291   1.406   2.783   1.534 -0.0213  0.4058 -0.3666
  811SOL    MW4 3292   1.336   2.736   1.557  0.2891 -0.0403 -0.3132
  812SOL     OW 3293   1.561   2.878   1.466 -0.3736  0.4144 -0.1685
  812SOL    HW2 3294   1.635   2.833   1.507 -0.0906  0.0653 -1.0262
  812SOL    HW3 3295   1.591   2.894   1.376 -2.2838 -2.1042 -1.3386
  812SOL    MW4 3296   1.575   2.874   1.459 -0.5882  0.0360 -0.4361
  813SOL     OW 3297   1.576   3.123   1.605  0.2171 -0.3268 -0.1769
  813SOL    HW2 3298   1.656   3.153   1.563  0.6507 -1.7648 -0.4181
  813SOL    HW3 3299   1.563   3.034   1.571 -2.3160  0.4286 -1.3353
  813SOL    MW4 3300   1.585   3.115   1.595 -0.0598 -0.4168 -0.3617
  814SOL     OW 3301   1.339   3.238   1.488 -0.2450  0.1315 -0.2091
  814SOL    HW2 3302   1.321   3.320   1.535 -0.4097 -0.0658  0.0667
  814SOL    HW3 3303   1.417   3.203   1.530 -0.9766 -0.5598  0.5815
  814SOL    MW4 3304   1.347   3.245   1.499 -0.3632  0.0141 -0.0683
  815SOL     OW 3305   1.322   3.484   1.610 -0.3067  0.2447  0.2982
  815SOL    HW2 3306   1.325   3.479   1.706 -1.5082  1.0122  0.3907
  815SOL    HW3 3307   1.406   3.522   1.585 -0.3309  0.8504  1.1121
  815SOL    MW4 3308   1.334   3.488   1.620 -0.4684  0.4261  0.4177
  816SOL     OW 3309   1.546   3.612   1.500 -0.5639  0.0879 -0.2030
  816SOL    HW2 3310   1.547   3.621   1.405  2.1390  1.4804 -0.0981
  816SOL    HW3 3311   1.560   3.701   1.532 -2.4210 -0.2173  1.5394
  816SOL    MW4 3312   1.548   3.625   1.492 -0.4523  0.2313  0.0408
  817SOL     OW 3313   1.572   3.895   1.858  0.3282  0.1953  0.1024
  817SOL    HW2 3314   1.651   3.931   1.899  1.3577 -0.2431 -1.4396
  817SOL    HW3 3315   1.567   3.805   1.891 -0.7574  0.8814  1.8817
  817SOL    MW4 3316   1.582   3.888   1.868  0.3207  0.2279  0.1338
  818SOL     OW 3317   1.325   4.001   1.530 -0.0899 -0.0662  0.3898
  818SOL    HW2 3318   1.314   4.092   1.556  1.1006 -0.2597  1.6462
  818SOL    HW3 3319   1.334   4.003   1.435  0.1170  1.1337  0.4317
  818SOL    MW4 3320   1.324   4.013   1.521  0.0944  0.0668  0.5611
  819SOL     OW 3321   1.553   4.395   1.490  0.1260 -0.0611  0.0870
  819SOL    HW2 3322   1.625   4.346   1.530  0.8290 -0.3475 -1.5103
  819SOL    HW3 3323   1.553   4.479   1.536  1.5951  0.0091 -0.0060
  819SOL    MW4 3324   1.563   4.399   1.501  0.4126 -0.0901 -0.1359
  820SOL     OW 3325   1.340   4.271   1.630 -0.0304 -0.0990  0.3572
  820SOL    HW2 3326   1.266   4.322   1.596 -0.3510 -1.8366 -1.6697
  820SOL    HW3 3327   1.416   4.305   1.583  0.0292 -0.2710  0.3305
  820SOL    MW4 3328   1.340   4.282   1.619 -0.0648 -0.3514  0.0862
  821SOL     OW 3329   2.008   4.616   1.584 -0.0753 -0.1041  0.1091
  821SOL    HW2 3330   2.024   4.631   1.677  0.6768  3.4025 -0.5129
  821SOL    HW3 3331   1.923   4.658   1.567  1.2883  2.1485 -1.3948
  821SOL    MW4 3332   1.999   4.624   1.594  0.2037  0.6561 -0.1714
  822SOL     OW 3333   1.781   0.081   1.545  0.4081  0.4038 -0.0770
  822SOL    HW2 3334   1.696   0.047   1.575  0.3522 -0.7920 -1.5562
  822SOL    HW3 3335   1.773   0.085   1.450  1.8778  0.6683 -0.1988
  822SOL    MW4 3336   1.768   0.077   1.536  0.5945  0.2809 -0.2881
  823SOL     OW 3337   1.776   0.347   1.569 -0.3686  0.1064 -0.7155
  823SOL    HW2 3338   1.864   0.381   1.551 -0.4993  1.9361  1.8663
  823SOL    HW3 3339   1.786   0.252   1.564  1.7426  0.2905 -0.5825
  823SOL    MW4 3340   1.789   0.339   1.566 -0.1072  0.3721 -0.3573
  824SOL     OW 3341   2.033   0.456   1.504 -0.2235  0.1843 -0.4479
  824SOL    HW2 3342   2.046   0.543   1.542  0.3082 -0.4559  0.8503
  824SOL    HW3 3343   2.101   0.402   1.543 -1.3245 -1.1155 -0.3016
  824SOL    MW4 3344   2.044   0.461   1.514 -0.2985 -0.0716 -0.2574
  825SOL     OW 3345   2.007   0.801   1.865  0.1053 -0.8337 -0.1009
  825SOL    HW2 3346   2.088   0.845   1.892 -0.1221  0.0355 -0.8077
  825SOL    HW3 3347   2.015   0.793   1.770 -1.6574  1.3860 -0.4779
  825SOL    MW4 3348   2.019   0.806   1.856 -0.1576 -0.4262 -0.2439
  826SOL     OW 3349   2.039   0.730   1.590 -0.0089 -0.0052 -0.4036
  826SOL    HW2 3350   2.120   0.779   1.581  0.0582 -0.0904 -0.2743
  826SOL    HW3 3351   1.972   0.786   1.551 -0.0516  0.5131  0.4005
  826SOL    MW4 3352   2.041   0.744   1.584 -0.0055  0.0519 -0.2805
  827SOL     OW 3353   1.830   0.868   1.505  0.5188  0.2739 -0.1059
  827SOL    HW2 3354   1.805   0.948   1.551  0.0532 -0.4262  0.8726
  827SOL    HW3 3355   1.764   0.804   1.530  1.5487 -0.7457  0.0530
  827SOL    MW4 3356   1.818   0.871   1.514  0.5933  0.0470  0.0441
  828SOL     OW 3357   1.985   1.268   1.500 -0.1707 -0.1047  0.0607
  828SOL    HW2 3358   2.005   1.355   1.534 -0.0498  0.6647 -1.8855
  828SOL    HW3 3359   2.003   1.275   1.406  0.6450 -2.4701  0.0039
  828SOL    MW4 3360   1.990   1.281   1.492 -0.0472 -0.3153 -0.2036
  829SOL     OW 3361   1.817   1.657   1.518  0.1865  0.1285  0.3965
  829SOL    HW2 3362   1.791   1.667   1.426  1.3152  0.3274  0.0842
  829SOL    HW3 3363   1.742   1.615   1.560 -0.2942 -0.0769 -0.6449
  829SOL    MW4 3364   1.804   1.653   1.511  0.2719  0.1276  0.2180
  830SOL     OW 3365   2.566   3.641   0.516  0.3862 -0.1109  0.6257
  830SOL    HW2 3366   2.562   3.547   0.534 -0.6628 -0.0252  0.8575
  830SOL    HW3 3367   2.488   3.659   0.465  0.0262  0.8276  1.4879
  830SOL    MW4 3368   2.555   3.631   0.512  0.2003  0.0243  0.7700
  831SOL     OW 3369   1.794   1.931   1.593  0.2283  0.9504 -0.2937
  831SOL    HW2 3370   1.801   1.842   1.560  0.3894  1.1052 -0.6782
  831SOL    HW3 3371   1.710   1.962   1.558 -0.4384  0.5278  0.8673
  831SOL    MW4 3372   1.784   1.923   1.584  0.1616  0.9152 -0.1913
  832SOL     OW 3373   1.990   2.041   1.439 -0.6222 -0.3347 -0.2312
  832SOL    HW2 3374   1.912   2.015   1.488 -0.5405  1.4293  0.8764
  832SOL    HW3 3375   2.063   2.005   1.490 -0.5395  1.4605  0.9565
  832SOL    MW4 3376   1.990   2.033   1.452 -0.6003  0.1349  0.0718
  833SOL     OW 3377   2.024   2.299   1.539  0.6833  0.4207  0.0716
  833SOL    HW2 3378   2.029   2.279   1.633  1.2450  0.2798  0.0117
  833SOL    HW3 3379   2.013   2.214   1.497  2.0811  0.3263 -0.1110
  833SOL    MW4 3380   2.023   2.285   1.546  0.9418  0.3893  0.0397
  834SOL     OW 3381   1.786   2.449   1.464 -0.5460 -0.1974 -0.0110
  834SOL    HW2 3382   1.872   2.416   1.489 -0.6334  0.2910  0.9477
  834SOL    HW3 3383   1.788   2.450   1.368  1.4851  2.2839 -0.0149
  834SOL    MW4 3384   1.798   2.445   1.454 -0.2894  0.1943  0.1149
  835SOL     OW 3385   1.786   2.715   1.549 -0.5638  0.2173  0.4360
  835SOL    HW2 3386   1.878   2.733   1.532 -0.5514  0.0639  0.3373
  835SOL    HW3 3387   1.775   2.624   1.523 -0.7536  0.2492  0.4087
  835SOL    MW4 3388   1.797   2.705   1.543 -0.5871  0.2015  0.4195
  836SOL     OW 3389   2.029   2.847   1.479  0.4553 -0.1479  0.0997
  836SOL    HW2 3390   2.014   2.937   1.507  1.7148 -0.2108  0.9916
  836SOL    HW3 3391   2.026   2.851   1.383 -0.3215  0.6891  0.1553
  836SOL    MW4 3392   2.026   2.859   1.470  0.5188 -0.0455  0.2248
  837SOL     OW 3393   2.024   3.127   1.571  0.4417  0.1157  0.4647
  837SOL    HW2 3394   2.017   3.124   1.666 -0.7458  0.5378  0.4043
  837SOL    HW3 3395   2.113   3.157   1.554  0.3819  0.8633  1.4555
  837SOL    MW4 3396   2.035   3.131   1.581  0.2770  0.2701  0.5876
  838SOL     OW 3397   1.792   3.228   1.467  0.7051 -0.3800  0.2475
  838SOL    HW2 3398   1.793   3.317   1.501  1.4091 -0.2955  0.0083
  838SOL    HW3 3399   1.870   3.187   1.505  0.2874 -0.9447  0.4978
  838SOL    MW4 3400   1.803   3.234   1.476  0.7429 -0.4435  0.2490
  839SOL     OW 3401   1.812   3.523   1.532 -0.4084 -0.0773 -0.5531
  839SOL    HW2 3402   1.806   3.525   1.628  0.2100  0.0577 -0.5110
  839SOL    HW3 3403   1.722   3.533   1.502 -0.6161 -0.1788  0.0156
  839SOL    MW4 3404   1.800   3.524   1.541 -0.3542 -0.0730 -0.4724
  840SOL     OW 3405   2.031   3.671   1.466 -0.0041 -0.2017  0.0907
  840SOL    HW2 3406   1.946   3.635   1.492 -0.2675 -0.4879 -1.1448
  840SOL    HW3 3407   2.094   3.614   1.510 -0.4396  0.2330  1.3122
  840SOL    MW4 3408   2.028   3.659   1.476 -0.0961 -0.1819  0.0890
  841SOL     OW 3409   1.564   3.876   1.579 -0.0905  0.1031 -0.6901
  841SOL    HW2 3410   1.561   3.879   1.674 -0.3189  0.2760 -0.7019
  841SOL    HW3 3411   1.484   3.920   1.551  0.4972  0.9901 -0.9764
  841SOL    MW4 3412   1.553   3.882   1.587 -0.0432  0.2429 -0.7294
  842SOL     OW 3413   1.794   4.020   1.516 -0.3100 -0.1763 -0.2714
  842SOL    HW2 3414   1.868   3.990   1.569  0.4070  1.6952 -0.1574
  842SOL    HW3 3415   1.723   3.959   1.535  0.8754 -1.3128  0.4976
  842SOL    MW4 3416   1.794   4.008   1.525 -0.0591 -0.0792 -0.1550
  843SOL     OW 3417   1.765   4.280   1.608  0.6191 -0.1395  0.2617
  843SOL    HW2 3418   1.847   4.315   1.573 -0.2695  0.8954 -0.8607
  843SOL    HW3 3419   1.768   4.187   1.588  1.4371 -0.0748  0.0588
  843SOL    MW4 3420   1.776   4.273   1.600  0.6098  0.0057  0.0867
  844SOL     OW 3421   2.017   4.353   1.519 -0.0539 -0.0331  0.2710
  844SOL    HW2 3422   2.111   4.355   1.535  0.2603  0.6036 -1.5538
  844SOL    HW3 3423   1.989   4.444   1.529 -0.0975  0.1330 -1.2041
  844SOL    MW4 3424   2.026   4.365   1.523 -0.0184  0.0730 -0.1643
  845SOL     OW 3425   2.490   0.000   1.606 -0.0920 -0.7485  0.4104
  845SOL    HW2 3426   2.411   0.049   1.584 -0.6095 -1.4943  0.5859
  845SOL    HW3 3427   2.483  -0.015   1.701  0.6388 -0.1538  0.5617
  845SOL    MW4 3428   2.479   0.005   1.616 -0.0634 -0.7685  0.4535
  846SOL     OW 3429   2.257   0.109   1.485 -0.0816 -0.1885  0.1215
  846SOL    HW2 3430   2.179   0.054   1.491  0.6862 -1.2478  0.5043
  846SOL    HW3 3431   2.273   0.117   1.391 -0.4324 -0.2702  0.0534
  846SOL    MW4 3432   2.249   0.103   1.473 -0.0267 -0.3390  0.1631
  847SOL     OW 3433   2.290   0.353   1.590  0.0145 -0.0439 -0.1672
  847SOL    HW2 3434   2.269   0.347   1.683 -0.6600  1.3229 -0.2143
  847SOL    HW3 3435   2.272   0.266   1.555  0.7692 -0.7034  1.0789
  847SOL    MW4 3436   2.285   0.341   1.598  0.0253  0.0494 -0.0091
  848SOL     OW 3437   2.470   0.747   1.596 -0.1997 -0.3039 -0.5537
  848SOL    HW2 3438   2.474   0.658   1.562  0.8540 -1.0921  1.5838
  848SOL    HW3 3439   2.398   0.787   1.548 -1.0622 -2.4842 -1.1435
  848SOL    MW4 3440   2.461   0.741   1.585 -0.1745 -0.6955 -0.3494
  849SOL     OW 3441   2.432   0.803   1.065  0.6138 -0.1221 -0.1500
  849SOL    HW2 3442   2.365   0.782   0.999 -0.9970  0.2251  1.3440
  849SOL    HW3 3443   2.447   0.721   1.112  0.7844 -0.0479 -0.0722
  849SOL    MW4 3444   2.425   0.790   1.062  0.4239 -0.0666  0.0573
  850SOL     OW 3445   2.248   0.910   1.523 -0.0225 -0.3840  0.0764
  850SOL    HW2 3446   2.227   1.001   1.540 -2.6964 -1.0690  0.6477
  850SOL    HW3 3447   2.250   0.903   1.427  1.2261  0.4697  0.0304
  850SOL    MW4 3448   2.246   0.921   1.513 -0.2108 -0.3617  0.1459
  851SOL     OW 3449   2.257   1.177   1.556 -0.1593  0.5684 -0.2471
  851SOL    HW2 3450   2.265   1.160   1.650  0.5007  0.8070 -0.2613
  851SOL    HW3 3451   2.165   1.204   1.545 -0.0989  1.0583  0.4033
  851SOL    MW4 3452   2.246   1.178   1.567 -0.0644  0.6645 -0.1632
  852SOL     OW 3453   2.465   1.588   1.582  0.2758  0.3803  0.6780
  852SOL    HW2 3454   2.553   1.610   1.552 -0.0761  1.0119  0.0761
  852SOL    HW3 3455   2.456   1.495   1.564  0.3394  0.5940 -0.5151
  852SOL    MW4 3456   2.475   1.579   1.576  0.2377  0.4920  0.4411
  853SOL     OW 3457   2.476   1.543   1.861 -0.4180 -0.2157 -0.0054
  853SOL    HW2 3458   2.465   1.571   1.770 -0.9203 -0.6328 -0.0701
  853SOL    HW3 3459   2.408   1.589   1.910 -0.6813 -0.6315  0.0267
  853SOL    MW4 3460   2.466   1.553   1.856 -0.5193 -0.3254 -0.0098
  854SOL     OW 3461   2.038   1.511   1.600 -0.2995 -0.1731 -0.2082
  854SOL    HW2 3462   1.968   1.560   1.558 -0.7956  0.3759  1.2403
  854SOL    HW3 3463   2.117   1.564   1.585 -0.6956  0.6716  0.6691
  854SOL    MW4 3464   2.039   1.524   1.592 -0.4172  0.0108  0.0986
  855SOL     OW 3465   2.208   1.943   1.583  0.2798  0.0557 -0.0620
  855SOL    HW2 3466   2.251   1.939   1.669 -0.8398 -0.7301  0.4807
  855SOL    HW3 3467   2.213   1.854   1.550 -0.8152 -0.0173 -0.0439
  855SOL    MW4 3468   2.214   1.931   1.590 -0.0124 -0.0576  0.0120
  856SOL     OW 3469   2.460   2.047   1.486 -0.2577  0.0016 -0.0359
  856SOL    HW2 3470   2.379   2.000   1.506 -0.3892 -0.5112 -1.6734
  856SOL    HW3 3471   2.454   2.066   1.393  1.4856 -0.0087 -0.1700
  856SOL    MW4 3472   2.449   2.043   1.476 -0.0453 -0.0672 -0.2695
  857SOL     OW 3473   2.446   2.323   1.567  0.1651 -0.2114 -0.2727
  857SOL    HW2 3474   2.463   2.325   1.661  0.3547 -2.3392 -0.2347
  857SOL    HW3 3475   2.453   2.230   1.543  1.1297  0.4104 -2.5720
  857SOL    MW4 3476   2.449   2.311   1.576  0.3173 -0.4101 -0.5710
  858SOL     OW 3477   2.228   2.457   1.486  0.3296  0.1331  0.0427
  858SOL    HW2 3478   2.305   2.412   1.521  0.6835 -0.7077 -1.7967
  858SOL    HW3 3479   2.154   2.402   1.512  0.5254 -0.0906  0.1279
  858SOL    MW4 3480   2.228   2.444   1.494  0.4022 -0.0074 -0.1887
  859SOL     OW 3481   2.250   2.719   1.590  0.0009  0.0477 -0.1385
  859SOL    HW2 3482   2.245   2.627   1.566  1.4442 -0.4538  1.4401
  859SOL    HW3 3483   2.180   2.761   1.539 -1.0772 -2.0038 -0.3787
  859SOL    MW4 3484   2.240   2.712   1.580  0.0491 -0.2890  0.0380
  860SOL     OW 3485   2.725   2.680   1.584 -0.1147  0.1985 -0.5128
  860SOL    HW2 3486   2.793   2.744   1.564 -0.3331  0.7108  0.3438
  860SOL    HW3 3487   2.643   2.723   1.562 -0.2593  0.1979  0.0137
  860SOL    MW4 3488   2.723   2.694   1.579 -0.1626  0.2661 -0.3303
  861SOL     OW 3489   2.487   3.053   1.578  0.1954 -0.3139 -0.2355
  861SOL    HW2 3490   2.567   3.104   1.565  0.1170 -0.1619 -0.1293
  861SOL    HW3 3491   2.417   3.111   1.546  0.0487 -0.1277  0.4108
  861SOL    MW4 3492   2.488   3.068   1.572  0.1657 -0.2694 -0.1361
  862SOL     OW 3493   2.282   3.253   1.510  0.3901  0.1030  0.0099
  862SOL    HW2 3494   2.293   3.255   1.415  1.4975 -0.1967  0.1154
  862SOL    HW3 3495   2.247   3.339   1.533 -0.5710 -0.0830 -0.7403
  862SOL    MW4 3496   2.279   3.264   1.501  0.4091  0.0391 -0.0752
  863SOL     OW 3497   2.189   3.488   1.601  0.2984  0.5157  0.1019
  863SOL    HW2 3498   2.187   3.471   1.695  0.5765 -1.2091 -0.1727
  863SOL    HW3 3499   2.279   3.514   1.582 -0.0896  2.2142  0.5091
  863SOL    MW4 3500   2.201   3.489   1.611  0.2837  0.5121  0.1193
  864SOL     OW 3501   2.438   3.606   1.516  0.2161 -0.4480 -0.3371
  864SOL    HW2 3502   2.438   3.696   1.550 -0.9794 -0.5306 -0.1077
  864SOL    HW3 3503   2.529   3.577   1.525  0.8698  1.1462 -1.4925
  864SOL    MW4 3504   2.450   3.614   1.521  0.1450 -0.2484 -0.4593
  865SOL     OW 3505   2.460   3.862   1.625 -0.1028  0.0762 -0.6293
  865SOL    HW2 3506   2.492   3.872   1.715 -2.1406 -0.1452  0.1484
  865SOL    HW3 3507   2.530   3.899   1.571  1.0520  0.4458  1.0552
  865SOL    MW4 3508   2.474   3.869   1.630 -0.2193  0.0958 -0.3043
  866SOL     OW 3509   2.021   3.912   1.633 -0.0689 -0.5184 -0.2591
  866SOL    HW2 3510   2.004   3.846   1.566 -0.1732 -2.3789  1.5625
  866SOL    HW3 3511   2.108   3.945   1.613 -0.5476 -0.2253 -1.9701
  866SOL    MW4 3512   2.030   3.908   1.622 -0.1459 -0.7250 -0.2445
  867SOL     OW 3513   2.301   4.291   1.629 -0.4327  0.4773 -0.2874
  867SOL    HW2 3514   2.386   4.311   1.589 -0.0837  1.3977  0.8705
  867SOL    HW3 3515   2.279   4.203   1.598  1.6349 -0.3552  0.5516
  867SOL    MW4 3516   2.309   4.282   1.619 -0.1140  0.4888 -0.0241
  868SOL     OW 3517   2.513   4.396   1.504  0.1059 -0.2327  0.2889
  868SOL    HW2 3518   2.491   4.479   1.546  0.1654 -0.1258  0.1091
  868SOL    HW3 3519   2.497   4.411   1.411 -2.0696 -1.1538  0.5065
  868SOL    MW4 3520   2.508   4.409   1.497 -0.1733 -0.3400  0.2939
  869SOL     OW 3521   2.931   4.666   1.588  0.0203 -0.3370 -0.1090
  869SOL    HW2 3522   2.919   4.650   1.682 -0.6984 -0.9406 -0.3040
  869SOL    HW3 3523   2.854   4.718   1.563 -0.7094 -1.7126 -0.7436
  869SOL    MW4 3524   2.919   4.671   1.597 -0.1707 -0.5981 -0.2184
  870SOL     OW 3525   0.445   0.394   0.843 -0.0978  0.2540  0.2260
  870SOL    HW2 3526   0.379   0.347   0.793  0.7538  0.1189 -0.7859
  870SOL    HW3 3527   0.425   0.373   0.934 -1.8684  0.7828 -0.0200
  870SOL    MW4 3528   0.434   0.385   0.848 -0.2190  0.3060  0.0600
  871SOL     OW 3529   2.475   0.514   1.475 -0.0945 -0.0933  0.5723
  871SOL    HW2 3530   2.398   0.464   1.501  1.1222 -1.5555  1.3901
  871SOL    HW3 3531   2.546   0.480   1.529  1.2865  0.7328 -0.6763
  871SOL    MW4 3532   2.474   0.503   1.485  0.2480 -0.1773  0.5156
  872SOL     OW 3533   2.698   0.115   1.492 -0.0967 -0.0511 -0.1938
  872SOL    HW2 3534   2.625   0.073   1.539  0.4598  0.0535  0.7855
  872SOL    HW3 3535   2.702   0.203   1.529 -0.2647  0.3507 -1.1325
  872SOL    MW4 3536   2.689   0.121   1.503 -0.0455  0.0157 -0.1885
  873SOL     OW 3537   2.954   0.814   1.559  0.1169  0.0817 -0.2173
  873SOL    HW2 3538   2.955   0.804   1.654 -0.0781 -0.1870 -0.2405
  873SOL    HW3 3539   2.875   0.866   1.542 -0.3810 -0.6931 -0.3029
  873SOL    MW4 3540   2.943   0.819   1.569  0.0257 -0.0560 -0.2316
  874SOL     OW 3541   2.715   1.181   1.598 -0.4560  0.2203  0.1206
  874SOL    HW2 3542   2.638   1.225   1.563 -0.3642  0.5439  0.3210
  874SOL    HW3 3543   2.707   1.091   1.569 -0.4753  0.4435 -0.5750
  874SOL    MW4 3544   2.704   1.175   1.590 -0.4466  0.2925  0.0552
  875SOL     OW 3545   2.475   1.316   1.511  0.1508 -0.2352  0.0179
  875SOL    HW2 3546   2.394   1.267   1.528  0.8060 -2.0121 -1.7909
  875SOL    HW3 3547   2.475   1.331   1.417  1.7522  0.0900  0.0581
  875SOL    MW4 3548   2.464   1.311   1.501  0.4482 -0.4267 -0.2155
  876SOL     OW 3549   2.959   1.542   1.572 -0.2122 -0.1952 -0.0846
  876SOL    HW2 3550   2.963   1.449   1.550 -2.2911 -0.6927  1.4623
  876SOL    HW3 3551   2.882   1.574   1.526  0.6769  0.8689 -0.8629
  876SOL    MW4 3552   2.949   1.534   1.563 -0.3691 -0.1204  0.0168
  877SOL     OW 3553   3.170   1.656   1.423  0.2871  0.5452  0.0052
  877SOL    HW2 3554   3.238   1.615   1.477 -0.1066  0.4799  0.4545
  877SOL    HW3 3555   3.088   1.630   1.465 -0.0279  0.3715 -0.7121
  877SOL    MW4 3556   3.168   1.647   1.436  0.1936  0.5138 -0.0302
  878SOL     OW 3557   2.729   1.667   1.458  0.1698  0.3220 -0.2233
  878SOL    HW2 3558   2.702   1.753   1.492 -0.1302  0.3222 -0.4602
  878SOL    HW3 3559   2.714   1.672   1.364  2.4289  0.8441 -0.5823
  878SOL    MW4 3560   2.723   1.679   1.450  0.4284  0.3909 -0.3018
  879SOL     OW 3561   2.701   1.932   1.544 -0.3513  0.2007  0.2125
  879SOL    HW2 3562   2.691   1.934   1.639 -1.6162 -0.2644  0.0979
  879SOL    HW3 3563   2.623   1.976   1.510  0.3811  0.9090 -0.6047
  879SOL    MW4 3564   2.689   1.938   1.552 -0.4218  0.2328  0.0896
  880SOL     OW 3565   2.951   2.044   1.451 -0.6583  0.4777 -0.2068
  880SOL    HW2 3566   2.959   2.126   1.499  0.2818  0.2053  0.1140
  880SOL    HW3 3567   2.867   2.008   1.479  0.0430  0.1441  1.5193
  880SOL    MW4 3568   2.941   2.050   1.461 -0.4418  0.3979  0.0634
  881SOL     OW 3569   2.934   2.287   1.583 -0.4032 -0.3057 -0.3804
  881SOL    HW2 3570   2.940   2.284   1.679 -0.2053  1.5072 -0.3231
  881SOL    HW3 3571   2.846   2.321   1.567 -0.2066 -0.0105 -0.8261
  881SOL    MW4 3572   2.923   2.291   1.594 -0.3514 -0.0274 -0.4318
  882SOL     OW 3573   2.016   1.549   1.146  0.0464 -0.0609  0.6995
  882SOL    HW2 3574   2.017   1.553   1.051 -0.6289  1.4303  0.7378
  882SOL    HW3 3575   2.096   1.595   1.173  0.7854 -1.4170  0.8320
  882SOL    MW4 3576   2.027   1.556   1.137  0.0551 -0.0430  0.7221
  883SOL     OW 3577   2.702   2.420   1.475  0.0605  0.5798 -0.1107
  883SOL    HW2 3578   2.726   2.496   1.528  0.4624  0.5895 -0.3021
  883SOL    HW3 3579   2.615   2.395   1.506  0.4341  0.3693  0.7944
  883SOL    MW4 3580   2.694   2.427   1.486  0.1628  0.5534 -0.0165
  884SOL     OW 3581   2.909   2.853   1.499 -0.1514 -0.2131  0.3328
  884SOL    HW2 3582   2.988   2.806   1.525 -0.0005  0.6608  1.4941
  884SOL    HW3 3583   2.930   2.945   1.512 -0.9632  0.0979 -0.4825
  884SOL    MW4 3584   2.922   2.859   1.504 -0.2389 -0.0570  0.3786
  885SOL     OW 3585   2.959   3.129   1.583  0.2109 -0.4880 -0.3691
  885SOL    HW2 3586   2.951   3.121   1.678 -1.0264 -0.5567 -0.4679
  885SOL    HW3 3587   3.042   3.175   1.569 -0.6558  1.5240  0.8406
  885SOL    MW4 3588   2.969   3.134   1.593 -0.0668 -0.2317 -0.2226
  886SOL     OW 3589   2.705   3.227   1.512 -0.2935  0.9770 -0.0010
  886SOL    HW2 3590   2.791   3.201   1.546 -0.7284 -0.0638  0.3439
  886SOL    HW3 3591   2.707   3.201   1.419 -0.4046  0.5256  0.1229
  886SOL    MW4 3592   2.717   3.220   1.504 -0.3655  0.7801  0.0608
  887SOL     OW 3593   2.688   3.503   1.556 -0.0057  0.0794 -0.3298
  887SOL    HW2 3594   2.666   3.510   1.649 -2.8066 -0.0653 -0.9629
  887SOL    HW3 3595   2.695   3.409   1.540  0.7577  0.1129 -0.2177
  887SOL    MW4 3596   2.686   3.491   1.567 -0.2747  0.0646 -0.3986
  888SOL     OW 3597   2.918   3.650   1.477 -0.3095  0.2683 -0.6729
  888SOL    HW2 3598   2.836   3.605   1.498 -0.9900  1.7092 -0.1889
  888SOL    HW3 3599   2.924   3.645   1.382  0.4215 -2.1946 -0.5375
  888SOL    MW4 3600   2.908   3.643   1.467 -0.3028  0.1335 -0.5912
  889SOL     OW 3601   2.688   4.011   1.532  0.2463  0.1908  0.5335
  889SOL    HW2 3602   2.689   4.094   1.580 -0.3552  0.4286  0.1403
  889SOL    HW3 3603   2.701   4.037   1.441 -1.2178 -0.0342  0.2524
  889SOL    MW4 3604   2.690   4.026   1.526 -0.0262  0.1926  0.4445
  890SOL     OW 3605   3.163   4.027   1.176  1.2444  0.1161  0.1668
  890SOL    HW2 3606   3.166   4.039   1.271  0.5698  0.0904  0.1930
  890SOL    HW3 3607   3.139   4.113   1.142 -0.6613 -0.3880  0.1642
  890SOL    MW4 3608   3.160   4.040   1.184  0.9041  0.0463  0.1698
  891SOL     OW 3609   2.701   4.249   1.653 -0.3243 -0.0388 -0.3069
  891SOL    HW2 3610   2.787   4.277   1.621  0.3002  0.4154  1.6991
  891SOL    HW3 3611   2.639   4.306   1.608  0.3770 -0.6433 -2.0803
  891SOL    MW4 3612   2.704   4.260   1.642 -0.1493 -0.0587 -0.2762
  892SOL     OW 3613   2.911   4.392   1.512  0.4317 -0.2198  0.8689
  892SOL    HW2 3614   2.896   4.485   1.527 -0.2128 -0.1535 -0.1682
  892SOL    HW3 3615   2.915   4.382   1.417  1.7593 -1.0649  0.9838
  892SOL    MW4 3616   2.910   4.403   1.502  0.5217 -0.3223  0.7472
  893SOL     OW 3617   3.563   4.288   1.595  0.2014  0.2900 -0.5109
  893SOL    HW2 3618   3.496   4.352   1.571 -0.4410 -0.0706  0.2968
  893SOL    HW3 3619   3.565   4.291   1.691  0.9965 -0.0597 -0.5169
  893SOL    MW4 3620   3.555   4.297   1.605  0.2217  0.1965 -0.4052
  894SOL     OW 3621   3.157   0.134   1.247  0.2790  0.3387  0.5425
  894SOL    HW2 3622   3.069   0.103   1.228  0.1707  1.4716 -0.9032
  894SOL    HW3 3623   3.166   0.125   1.342 -1.5698  0.6843  0.7597
  894SOL    MW4 3624   3.147   0.129   1.257  0.0207  0.5338  0.3804
  895SOL     OW 3625   3.146   0.162   1.536 -0.4351  0.1791 -0.5902
  895SOL    HW2 3626   3.222   0.118   1.574 -0.0862 -0.0926 -1.5873
  895SOL    HW3 3627   3.076   0.098   1.542 -0.6193  0.4630  0.4156
  895SOL    MW4 3628   3.147   0.148   1.542 -0.4132  0.1807 -0.5889
  896SOL     OW 3629   3.585   0.155   1.528  0.3957  0.1434 -0.0573
  896SOL    HW2 3630   3.646   0.089   1.563  0.5115 -0.4558 -1.3574
  896SOL    HW3 3631   3.597   0.150   1.434 -0.6451  1.0387 -0.2395
  896SOL    MW4 3632   3.595   0.145   1.521  0.2737  0.1825 -0.2528
  897SOL     OW 3633   3.370   0.799   1.584  0.0316 -0.0945 -0.0278
  897SOL    HW2 3634   3.362   0.804   1.679 -0.1032 -1.0116  0.0171
  897SOL    HW3 3635   3.371   0.705   1.565 -0.1565  0.0828 -0.9473
  897SOL    MW4 3636   3.369   0.787   1.594 -0.0110 -0.1920 -0.1431
  898SOL     OW 3637   3.167   0.905   1.432  0.0976  0.2873  0.5010
  898SOL    HW2 3638   3.238   0.876   1.488  0.2820 -0.0955  0.0740
  898SOL    HW3 3639   3.088   0.871   1.473  0.1825  0.4805  0.8280
  898SOL    MW4 3640   3.166   0.897   1.445  0.1333  0.2623  0.4879
  899SOL     OW 3641   3.178   1.166   1.555  0.2737  0.5303 -0.7415
  899SOL    HW2 3642   3.192   1.163   1.650 -0.9156  0.7501 -0.5473
  899SOL    HW3 3643   3.170   1.074   1.530  1.6822  0.4171 -0.8099
  899SOL    MW4 3644   3.179   1.153   1.564  0.3026  0.5443 -0.7249
  900SOL     OW 3645   3.423   1.289   1.458 -0.0686 -0.5856 -0.1134
  900SOL    HW2 3646   3.495   1.254   1.510 -0.4893  1.2377  1.8004
  900SOL    HW3 3647   3.346   1.242   1.490  0.0486 -1.3678 -0.9892
  900SOL    MW4 3648   3.422   1.278   1.469 -0.1085 -0.4482  0.0235
  901SOL     OW 3649   3.375   1.561   1.570 -0.2722 -0.2608 -0.5907
  901SOL    HW2 3650   3.370   1.539   1.663  0.5725  0.0910 -0.4598
  901SOL    HW3 3651   3.390   1.476   1.527  1.0843 -0.2135 -0.2469
  901SOL    MW4 3652   3.377   1.547   1.576  0.0179 -0.2083 -0.5282
  902SOL     OW 3653   1.678   1.496   0.548  0.2099 -0.1616 -0.3527
  902SOL    HW2 3654   1.674   1.576   0.496  1.0341 -0.3178 -0.6692
  902SOL    HW3 3655   1.591   1.456   0.538 -0.9933  1.8372  1.6767
  902SOL    MW4 3656   1.666   1.501   0.540  0.1599  0.0815 -0.1267
  903SOL     OW 3657   3.132   1.891   1.608  0.3839  0.5888  0.3667
  903SOL    HW2 3658   3.166   1.824   1.549 -0.8990 -0.9621  1.3717
  903SOL    HW3 3659   3.072   1.942   1.554 -2.1788 -1.9401  0.7162
  903SOL    MW4 3660   3.129   1.889   1.593 -0.1235  0.0507  0.5455
  904SOL     OW 3661   3.361   2.311   1.591 -0.7405 -0.1774 -0.3086
  904SOL    HW2 3662   3.391   2.227   1.554  0.0372  0.2994 -0.7654
  904SOL    HW3 3663   3.426   2.375   1.562 -1.1127  0.5218  0.3794
  904SOL    MW4 3664   3.374   2.308   1.582 -0.6866 -0.0222 -0.2780
  905SOL     OW 3665   3.599   2.460   1.496 -0.4638  0.4675  0.6484
  905SOL    HW2 3666   3.600   2.555   1.513  1.4274  0.7824 -0.9923
  905SOL    HW3 3667   3.669   2.425   1.552 -1.0654  0.0555  1.1455
  905SOL    MW4 3668   3.608   2.468   1.506 -0.2935  0.4549  0.4977
  906SOL     OW 3669   3.154   2.451   1.476  0.0248  0.1351  0.1388
  906SOL    HW2 3670   3.235   2.407   1.501  0.1079  0.7692  1.0202
  906SOL    HW3 3671   3.086   2.408   1.528 -0.5177 -1.7208 -2.0306
  906SOL    MW4 3672   3.155   2.440   1.486 -0.0355 -0.0260 -0.0312
  907SOL     OW 3673   3.155   2.714   1.576  0.3530 -0.0939  0.5201
  907SOL    HW2 3674   3.223   2.765   1.532  0.4264 -0.8136 -0.1962
  907SOL    HW3 3675   3.158   2.628   1.534 -0.1010 -0.5421  1.3916
  907SOL    MW4 3676   3.165   2.709   1.565  0.3030 -0.2480  0.5405
  908SOL     OW 3677   3.409   2.808   1.463 -0.0406  0.1557 -0.3366
  908SOL    HW2 3678   3.413   2.896   1.501 -0.6802  0.4651 -0.9806
  908SOL    HW3 3679   3.404   2.822   1.369  0.4851 -0.5926 -0.4801
  908SOL    MW4 3680   3.408   2.822   1.456 -0.0558  0.0978 -0.4406
  909SOL     OW 3681   3.366   3.064   1.589  0.0990 -0.2067 -0.0285
  909SOL    HW2 3682   3.364   3.076   1.684  0.2169 -1.7332  0.1849
  909SOL    HW3 3683   3.436   3.121   1.559  0.1231  0.2143  0.8056
  909SOL    MW4 3684   3.375   3.073   1.598  0.1180 -0.3526  0.1097
  910SOL     OW 3685   3.193   3.250   1.504 -0.0167  0.1039  0.0160
  910SOL    HW2 3686   3.259   3.187   1.532  1.1105  1.2268 -0.0746
  910SOL    HW3 3687   3.185   3.236   1.409  1.4935  1.2703 -0.2872
  910SOL    MW4 3688   3.200   3.240   1.495  0.3314  0.4060 -0.0359
  911SOL     OW 3689   3.159   3.488   1.623  0.1340 -0.0967  0.0682
  911SOL    HW2 3690   3.164   3.405   1.575  0.8706  0.4119 -0.7656
  911SOL    HW3 3691   3.087   3.536   1.581  1.2200  0.6280 -1.0117
  911SOL    MW4 3692   3.150   3.484   1.611  0.3746  0.0660 -0.1844
  912SOL     OW 3693   3.335   3.647   1.474  0.4312  0.3352 -0.0605
  912SOL    HW2 3694   3.403   3.585   1.500 -0.1257  0.1435  0.9402
  912SOL    HW3 3695   3.255   3.614   1.515  0.0867  1.5689  0.2803
  912SOL    MW4 3696   3.333   3.635   1.483  0.3121  0.4728  0.1165
  913SOL     OW 3697   3.312   3.891   1.590  0.3281 -0.0833 -0.5116
  913SOL    HW2 3698   3.235   3.926   1.546  0.8408  0.4945 -0.9471
  913SOL    HW3 3699   3.331   3.809   1.544  0.2183 -0.0264 -0.6597
  913SOL    MW4 3700   3.304   3.885   1.578  0.3808  0.0005 -0.5887
  914SOL     OW 3701   2.931   3.883   1.626 -0.0820  0.1807  0.1212
  914SOL    HW2 3702   2.842   3.917   1.617  0.4749  1.2836 -1.2172
  914SOL    HW3 3703   2.929   3.799   1.580 -0.1656  0.6736 -0.7816
  914SOL    MW4 3704   2.919   3.876   1.619 -0.0193  0.3910 -0.1744
  915SOL     OW 3705   3.135   4.265   1.617 -0.0770 -0.3464 -0.0805
  915SOL    HW2 3706   3.122   4.259   1.712  0.6649  0.9533  0.1255
  915SOL    HW3 3707   3.065   4.323   1.587  0.4366  0.2509 -0.1371
  915SOL    MW4 3708   3.124   4.272   1.626  0.0887 -0.0958 -0.0609
  916SOL     OW 3709   3.354   4.379   1.214  0.3475 -0.3482  0.0739
  916SOL    HW2 3710   3.394   4.463   1.193  0.7950  0.0319  2.2983
  916SOL    HW3 3711   3.423   4.314   1.199  1.0588  0.0509  1.5535
  916SOL    MW4 3712   3.368   4.381   1.209  0.5004 -0.2451  0.5625
  917SOL     OW 3713   3.800   4.659   1.621 -0.2661  0.6044  0.6478
  917SOL    HW2 3714   3.808   4.646   1.715  1.8074 -0.2558  0.3588
  917SOL    HW3 3715   3.883   4.699   1.594 -1.3535  2.1309 -0.6144
  917SOL    MW4 3716   3.812   4.663   1.629 -0.1359  0.6924  0.4431
  918SOL     OW 3717   3.407   4.630   1.917  0.0746  0.0714  0.1246
  918SOL    HW2 3718   3.393   4.649   1.824  1.3385  2.5260  0.3786
  918SOL    HW3 3719   3.391   4.536   1.926 -0.2576 -0.1501 -2.5325
  918SOL    MW4 3720   3.403   4.620   1.906  0.1974  0.3657 -0.1924
  919SOL     OW 3721   3.594   0.135   1.252  0.0099 -0.1894  0.0772
  919SOL    HW2 3722   3.679   0.101   1.224 -0.3587 -1.6524  0.7086
  919SOL    HW3 3723   3.594   0.226   1.221  0.5114 -1.0886 -2.7871
  919SOL    MW4 3724   3.605   0.143   1.244  0.0274 -0.5010 -0.2173
  920SOL     OW 3725   3.802   0.534   1.523  0.4496 -0.0493  0.1029
  920SOL    HW2 3726   3.725   0.489   1.559 -0.9489  1.0425 -1.4858
  920SOL    HW3 3727   3.800   0.514   1.429  1.5685  0.7930 -0.1095
  920SOL    MW4 3728   3.791   0.525   1.515  0.4127  0.2058 -0.1346
  921SOL     OW 3729   3.616   0.917   1.502 -0.0042 -0.5034 -0.3612
  921SOL    HW2 3730   3.535   0.874   1.530 -0.5880  1.2170  0.6756
  921SOL    HW3 3731   3.618   0.906   1.407 -0.5409 -2.1104 -0.2004
  921SOL    MW4 3732   3.606   0.910   1.493 -0.1521 -0.4885 -0.2033
  922SOL     OW 3733   3.649   1.173   1.124 -0.1720  0.1339  0.5268
  922SOL    HW2 3734   3.679   1.153   1.035  0.2153 -0.5323  0.7995
  922SOL    HW3 3735   3.728   1.201   1.170 -0.6344  1.9370  0.2640
  922SOL    MW4 3736   3.663   1.174   1.119 -0.1819  0.2840  0.5281
  923SOL     OW 3737   3.614   1.176   1.621 -0.0450 -0.0014  0.1765
  923SOL    HW2 3738   3.692   1.211   1.579  0.0920 -0.7469 -0.2063
  923SOL    HW3 3739   3.611   1.084   1.594 -1.4837  0.2045 -0.4289
  923SOL    MW4 3740   3.624   1.168   1.612 -0.2167 -0.0725  0.0463
  924SOL     OW 3741   3.853   1.295   1.527 -0.0640  0.0022  0.4376
  924SOL    HW2 3742   3.929   1.251   1.564 -0.0785  0.2758  0.8005
  924SOL    HW3 3743   3.864   1.387   1.552 -0.3988  0.0805  0.3022
  924SOL    MW4 3744   3.865   1.302   1.535 -0.1101  0.0488  0.4677
  925SOL     OW 3745   3.852   1.585   1.585  0.2905  0.4763  0.5194
  925SOL    HW2 3746   3.833   1.556   1.674  1.7745  1.5501  1.2219
  925SOL    HW3 3747   3.767   1.608   1.548 -0.2844  0.5103  1.8376
  925SOL    MW4 3748   3.838   1.584   1.592  0.4103  0.6225  0.7859
  926SOL     OW 3749   3.379   1.505   1.046 -0.0418  0.1796 -0.2753
  926SOL    HW2 3750   3.378   1.422   1.093 -0.4097  0.3583  0.0342
  926SOL    HW3 3751   3.345   1.484   0.959 -0.3214  0.0451 -0.1334
  926SOL    MW4 3752   3.375   1.491   1.041 -0.1268  0.1854 -0.2158
  927SOL     OW 3753   3.614   1.647   1.452 -0.2638 -0.0247  0.1301
  927SOL    HW2 3754   3.532   1.608   1.481 -0.7401  0.3286 -0.7438
  927SOL    HW3 3755   3.614   1.637   1.357  0.3523  0.6611  0.0510
  927SOL    MW4 3756   3.603   1.640   1.443 -0.2456  0.1123  0.0042
  928SOL     OW 3757   3.800   2.298   1.600 -0.0359  0.0588 -0.3441
  928SOL    HW2 3758   3.871   2.354   1.568  1.6598 -2.0877 -0.4162
  928SOL    HW3 3759   3.798   2.314   1.694 -0.2704  1.0360 -0.5109
  928SOL    MW4 3760   3.809   2.308   1.608  0.1566 -0.0954 -0.3754
  929SOL     OW 3761   3.846   2.361   1.856  0.0669  0.0287 -0.4165
  929SOL    HW2 3762   3.771   2.396   1.902  0.2416  1.2093 -1.0083
  929SOL    HW3 3763   3.922   2.390   1.907  0.1746 -0.3702 -0.3411
  929SOL    MW4 3764   3.846   2.369   1.869  0.1044  0.1316 -0.4846
  930SOL     OW 3765   0.226   3.911   0.861  0.2719  0.0560  0.8329
  930SOL    HW2 3766   0.218   3.992   0.811  0.0693 -0.6249 -0.2532
  930SOL    HW3 3767   0.223   3.939   0.953  0.0993  1.2610  0.4671
  930SOL    MW4 3768   0.224   3.925   0.867  0.2224  0.1252  0.6414
  931SOL     OW 3769   3.627   2.740   1.594  0.0106 -0.2796  0.1751
  931SOL    HW2 3770   3.613   2.727   1.688  0.6978 -0.1440  0.2996
  931SOL    HW3 3771   3.543   2.772   1.562  0.9230  3.6323  1.4644
  931SOL    MW4 3772   3.614   2.743   1.602  0.2215  0.2544  0.3617
  932SOL     OW 3773   3.817   3.130   1.608  0.3537  0.3280 -0.3285
  932SOL    HW2 3774   3.835   3.048   1.562 -0.1438 -0.5987  1.1101
  932SOL    HW3 3775   3.879   3.193   1.570  2.6031 -1.3641  0.4302
  932SOL    MW4 3776   3.828   3.128   1.597  0.5851 -0.0176 -0.0387
  933SOL     OW 3777   4.011   3.275   1.481  0.2182  0.2997 -0.2120
  933SOL    HW2 3778   4.018   3.359   1.526  0.5878 -0.5919  1.4447
  933SOL    HW3 3779   4.091   3.228   1.505 -0.3608 -0.8368 -0.4557
  933SOL    MW4 3780   4.022   3.280   1.490  0.1903  0.0322 -0.0255
  934SOL     OW 3781   3.577   3.231   1.530 -0.0662 -0.3411  0.7487
  934SOL    HW2 3782   3.664   3.200   1.556 -0.6985 -2.3229  0.5894
  934SOL    HW3 3783   3.580   3.232   1.434 -0.6386 -1.7426  0.7003
  934SOL    MW4 3784   3.589   3.227   1.521 -0.2253 -0.7875  0.7213
  935SOL     OW 3785   3.560   3.481   1.641 -0.4581  0.3225  0.1461
  935SOL    HW2 3786   3.625   3.527   1.587  0.0758 -0.6116 -0.0096
  935SOL    HW3 3787   3.560   3.392   1.608 -0.9943  0.0339  0.9095
  935SOL    MW4 3788   3.569   3.475   1.630 -0.4587  0.1612  0.2263
  936SOL     OW 3789   3.759   3.617   1.506  0.0429 -0.1381 -0.5702
  936SOL    HW2 3790   3.832   3.570   1.546 -0.3835  0.2403  0.6824
  936SOL    HW3 3791   3.767   3.706   1.539  0.6228  0.6033 -2.6259
  936SOL    MW4 3792   3.769   3.623   1.515  0.0634  0.0098 -0.6760
  937SOL     OW 3793   3.767   3.882   1.587  0.4340 -0.0818 -0.4086
  937SOL    HW2 3794   3.828   3.939   1.540  0.5261  0.5402  0.4487
  937SOL    HW3 3795   3.682   3.924   1.576  0.2745 -0.5469 -0.9709
  937SOL    MW4 3796   3.764   3.895   1.579  0.4253 -0.0610 -0.3697
  938SOL     OW 3797   3.347   4.442   1.503  0.3636 -0.6225 -0.1700
  938SOL    HW2 3798   3.267   4.399   1.534 -1.3873  1.5997 -1.4131
  938SOL    HW3 3799   3.352   4.417   1.410  1.0446 -0.6485 -0.1253
  938SOL    MW4 3800   3.337   4.433   1.495  0.2224 -0.3324 -0.3281
  939SOL     OW 3801   3.795   4.404   1.470 -0.1350 -0.5439  0.7977
  939SOL    HW2 3802   3.723   4.357   1.511 -1.6462  0.0987 -1.0517
  939SOL    HW3 3803   3.789   4.493   1.503 -0.1183 -0.5217  0.7437
  939SOL    MW4 3804   3.785   4.410   1.479 -0.3324 -0.4559  0.5467
  940SOL     OW 3805   4.264   4.379   1.507 -0.0698  0.2836 -0.2966
  940SOL    HW2 3806   4.182   4.331   1.513 -0.0571  0.3541  0.6327
  940SOL    HW3 3807   4.281   4.388   1.413 -0.6445 -0.5350 -0.4797
  940SOL    MW4 3808   4.255   4.374   1.496 -0.1435  0.1850 -0.1982
  941SOL     OW 3809   4.260   4.646   1.564  0.3596  0.2414 -0.7499
  941SOL    HW2 3810   4.238   4.655   1.656 -0.7658  2.1640 -1.1872
  941SOL    HW3 3811   4.270   4.551   1.551 -2.2186 -0.2732  0.7094
  941SOL    MW4 3812   4.259   4.635   1.574 -0.1287  0.4272 -0.6150
  942SOL     OW 3813   4.023   0.127   1.541 -0.0697  0.2351 -0.2385
  942SOL    HW2 3814   4.042   0.211   1.581  0.1514 -0.0393  0.2330
  942SOL    HW3 3815   4.109   0.087   1.525 -0.2076 -0.8623  1.6011
  942SOL    MW4 3816   4.037   0.133   1.544 -0.0587  0.0542  0.0664
  943SOL     OW 3817   4.012   0.395   1.608  0.2266  0.1957  0.1037
  943SOL    HW2 3818   4.010   0.404   1.703  1.8949  2.0317 -0.0175
  943SOL    HW3 3819   3.929   0.432   1.578  0.0102  0.2578  0.7787
  943SOL    MW4 3820   4.001   0.401   1.617  0.4182  0.4461  0.1767
  944SOL     OW 3821   4.479   0.363   1.555 -0.3902 -0.1746 -0.0541
  944SOL    HW2 3822   4.395   0.393   1.519 -0.1771  1.0798  0.4852
  944SOL    HW3 3823   4.462   0.353   1.649  0.1440  0.3796  0.1035
  944SOL    MW4 3824   4.465   0.366   1.563 -0.2923  0.0640  0.0378
  945SOL     OW 3825   4.260   0.704   1.623 -0.0159  0.1896 -0.0832
  945SOL    HW2 3826   4.251   0.616   1.588  1.9057 -0.2282  0.4307
  945SOL    HW3 3827   4.320   0.748   1.563  0.2459  0.6762  0.5298
  945SOL    MW4 3828   4.266   0.698   1.611  0.2723  0.1987  0.0657
  946SOL     OW 3829   4.081   0.891   1.521 -0.0620 -0.2107 -0.3178
  946SOL    HW2 3830   3.993   0.863   1.546 -0.0535  0.1335  0.0958
  946SOL    HW3 3831   4.140   0.827   1.560 -0.1933 -1.2014 -1.6869
  946SOL    MW4 3832   4.077   0.879   1.529 -0.0787 -0.2960 -0.4438
  947SOL     OW 3833   4.075   1.163   1.630  0.1018  0.4564 -0.2744
  947SOL    HW2 3834   4.076   1.161   1.726 -0.5744 -0.1407 -0.2766
  947SOL    HW3 3835   4.078   1.072   1.603 -1.9347  0.5119 -0.7797
  947SOL    MW4 3836   4.075   1.151   1.639 -0.2561  0.3850 -0.3413
  948SOL     OW 3837   4.308   1.263   1.222  0.1723  0.0116  0.3306
  948SOL    HW2 3838   4.227   1.216   1.201 -0.2503  0.8944 -0.0154
  948SOL    HW3 3839   4.317   1.254   1.317 -0.8720  0.7910  0.5010
  948SOL    MW4 3840   4.299   1.255   1.231 -0.0215  0.2308  0.3074
  949SOL     OW 3841   4.314   1.527   1.874 -0.1117 -0.2330  0.2877
  949SOL    HW2 3842   4.322   1.433   1.893  0.6782 -0.6353 -1.8604
  949SOL    HW3 3843   4.326   1.533   1.779  2.1912  2.2695  0.6775
  949SOL    MW4 3844   4.317   1.515   1.864  0.2961  0.0441  0.0559
  950SOL     OW 3845   4.097   1.668   1.511 -0.1162 -0.0614 -0.1114
  950SOL    HW2 3846   4.161   1.619   1.562 -1.0121 -0.5150  0.5804
  950SOL    HW3 3847   4.012   1.639   1.543 -0.7100 -0.5080 -1.9952
  950SOL    MW4 3848   4.094   1.658   1.522 -0.3133 -0.1801 -0.2686
  951SOL     OW 3849   4.093   1.931   1.605 -0.0617  0.4408  0.3059
  951SOL    HW2 3850   4.095   1.842   1.568  1.2685  0.6706 -0.1910
  951SOL    HW3 3851   4.020   1.973   1.559 -0.3838 -0.2393  0.1801
  951SOL    MW4 3852   4.083   1.925   1.594  0.0715  0.3814  0.2236
  952SOL     OW 3853   4.313   2.057   1.518  0.0153 -0.0466 -0.1844
  952SOL    HW2 3854   4.228   2.020   1.540  0.2569 -0.5687 -0.1204
  952SOL    HW3 3855   4.306   2.081   1.426  0.1544 -1.0801 -0.4660
  952SOL    MW4 3856   4.301   2.055   1.509  0.0658 -0.2520 -0.2130
  953SOL     OW 3857   4.223   2.316   1.614 -0.1216 -0.2920 -0.3928
  953SOL    HW2 3858   4.199   2.320   1.707  0.6145 -0.4984 -0.1965
  953SOL    HW3 3859   4.271   2.234   1.605 -1.4886 -1.0108 -1.2633
  953SOL    MW4 3860   4.226   2.306   1.625 -0.2055 -0.4141 -0.4818
  954SOL     OW 3861   2.514   3.373   0.749  0.3228  0.6966  0.0012
  954SOL    HW2 3862   2.518   3.281   0.776  0.6388  0.8746  0.5740
  954SOL    HW3 3863   2.591   3.414   0.789  0.9938  0.9079 -1.4492
  954SOL    MW4 3864   2.525   3.367   0.758  0.4530  0.7479 -0.1146
  955SOL     OW 3865   4.010   2.460   1.500 -0.4694 -0.5389  0.0581
  955SOL    HW2 3866   4.023   2.551   1.528  1.4746  0.2197 -3.1378
  955SOL    HW3 3867   4.084   2.413   1.538  0.4596 -0.0938 -1.1688
  955SOL    MW4 3868   4.022   2.466   1.509 -0.0901 -0.3800 -0.5255
  956SOL     OW 3869   4.039   2.724   1.551 -0.3552 -0.0697 -0.0626
  956SOL    HW2 3870   4.022   2.717   1.645 -0.8132  1.6207  0.0077
  956SOL    HW3 3871   4.121   2.773   1.545 -0.2232 -0.3555 -0.5277
  956SOL    MW4 3872   4.047   2.730   1.563 -0.3977  0.1156 -0.1148
  957SOL     OW 3873   4.283   2.846   1.502  0.4847  0.5245 -0.3958
  957SOL    HW2 3874   4.257   2.932   1.533  1.2058  0.7956 -0.5172
  957SOL    HW3 3875   4.276   2.851   1.407  1.2754  0.7106 -0.4525
  957SOL    MW4 3876   4.279   2.858   1.493  0.6843  0.5848 -0.4193
  958SOL     OW 3877   4.240   3.136   1.577 -0.3676 -0.0001  0.3693
  958SOL    HW2 3878   4.323   3.179   1.556  0.7620 -1.8980  0.8286
  958SOL    HW3 3879   4.237   3.133   1.672  0.0143 -1.7245  0.3474
  958SOL    MW4 3880   4.251   3.141   1.587 -0.1678 -0.4783  0.4271
  959SOL     OW 3881   3.996   3.514   1.609  0.0536 -0.3593  0.0273
  959SOL    HW2 3882   3.998   3.487   1.700 -1.9704  0.2682  0.2805
  959SOL    HW3 3883   4.077   3.563   1.596 -0.8132  1.7594  2.2080
  959SOL    MW4 3884   4.007   3.517   1.619 -0.3281  0.0029  0.3484
  960SOL     OW 3885   4.244   3.639   1.541 -0.0757 -0.3406 -0.3778
  960SOL    HW2 3886   4.229   3.733   1.551 -1.5168 -0.4637 -1.2424
  960SOL    HW3 3887   4.243   3.624   1.447 -0.8734 -1.3745 -0.2198
  960SOL    MW4 3888   4.242   3.649   1.530 -0.3710 -0.4933 -0.4709
  961SOL     OW 3889   4.456   4.013   1.509 -0.0457  0.3178 -0.3707
  961SOL    HW2 3890   4.528   3.951   1.519 -0.4362 -0.1048 -0.1368
  961SOL    HW3 3891   4.487   4.093   1.549  0.9265  0.6511 -1.7473
  961SOL    MW4 3892   4.470   4.015   1.515  0.0305  0.3057 -0.5214
  962SOL     OW 3893   3.987   4.024   1.495  0.8818 -0.2842 -0.1042
  962SOL    HW2 3894   4.013   4.033   1.403  1.1110 -0.4501 -0.0556
  962SOL    HW3 3895   4.000   4.111   1.532  0.2644 -0.0839 -0.3665
  962SOL    MW4 3896   3.992   4.036   1.488  0.8307 -0.2799 -0.1323
  963SOL     OW 3897   4.008   4.287   1.590 -0.2416  0.0508  0.0288
  963SOL    HW2 3898   4.000   4.297   1.685  1.4541  1.5172  0.0433
  963SOL    HW3 3899   3.932   4.333   1.555 -1.5033 -1.4666  0.6845
  963SOL    MW4 3900   3.997   4.294   1.598 -0.1843  0.0443  0.1172
  964SOL     OW 3901   0.004   4.261   1.620  0.2947  0.4056  0.3437
  964SOL    HW2 3902  -0.022   4.279   1.710  0.6625  1.4792  0.2444
  964SOL    HW3 3903  -0.066   4.300   1.567  0.6143  0.7135  0.1462
  964SOL    MW4 3904  -0.009   4.269   1.625  0.3858  0.5879  0.3046
  965SOL     OW 3905   4.481   0.118   1.995 -0.4833 -0.5860  0.0020
  965SOL    HW2 3906   4.555   0.062   1.971  0.0402  0.6600 -1.4089
  965SOL    HW3 3907   4.485   0.190   1.932 -1.5711  0.6617  1.3291
  965SOL    MW4 3908   4.491   0.120   1.983 -0.5578 -0.2570 -0.0092
  966SOL     OW 3909   4.474   0.099   2.268  0.0034  0.3704 -1.2039
  966SOL    HW2 3910   4.480   0.104   2.173  0.5619  2.0671 -1.0989
  966SOL    HW3 3911   4.560   0.066   2.296 -0.2176 -0.2853 -1.2928
  966SOL    MW4 3912   4.486   0.095   2.259  0.0480  0.5078 -1.2021
  967SOL     OW 3913   4.462   0.363   1.832  0.0399 -0.2406  0.2387
  967SOL    HW2 3914   4.388   0.398   1.882 -0.9843 -1.3451 -0.4988
  967SOL    HW3 3915   4.539   0.392   1.881 -0.7695  2.8565 -0.2158
  967SOL    MW4 3916   4.462   0.372   1.845 -0.2022  0.0223  0.0813
  968SOL     OW 3917   0.446   0.351   1.643  0.0542 -0.3250  0.0603
  968SOL    HW2 3918   0.368   0.387   1.602 -0.0411 -1.2558 -0.5716
  968SOL    HW3 3919   0.519   0.394   1.597 -0.0380 -1.8890 -1.5900
  968SOL    MW4 3920   0.446   0.362   1.631  0.0294 -0.6542 -0.2409
  969SOL     OW 3921   0.211   0.740   1.845  0.3676 -0.0470 -0.2506
  969SOL    HW2 3922   0.278   0.804   1.868  0.3891 -0.1856  0.0766
  969SOL    HW3 3923   0.216   0.733   1.749  0.5109  0.2781 -0.2666
  969SOL    MW4 3924   0.221   0.748   1.835  0.3894 -0.0224 -0.2096
  970SOL     OW 3925   4.473   0.885   2.239  0.3413 -0.4376  0.1555
  970SOL    HW2 3926   4.481   0.880   2.144 -0.6832 -1.1810  0.1046
  970SOL    HW3 3927   4.550   0.838   2.272  0.3157 -0.8065 -0.3083
  970SOL    MW4 3928   4.485   0.878   2.231  0.2031 -0.5844  0.0875
  971SOL     OW 3929   0.040   1.146   1.868  0.0929  0.0850  0.6888
  971SOL    HW2 3930  -0.029   1.198   1.909 -1.6637 -1.5459 -0.1140
  971SOL    HW3 3931   0.032   1.059   1.908  0.5911 -0.5680 -0.5867
  971SOL    MW4 3932   0.030   1.141   1.878 -0.0731 -0.2162  0.4145
  972SOL     OW 3933   0.214   1.325   2.019 -0.0832 -0.7082 -0.2299
  972SOL    HW2 3934   0.218   1.406   1.968  1.2882 -0.4724  0.2259
  972SOL    HW3 3935   0.140   1.277   1.983 -0.5825  0.5177 -0.8592
  972SOL    MW4 3936   0.205   1.330   2.007  0.0319 -0.5153 -0.2525
  973SOL     OW 3937   0.242   1.553   1.872  0.6376  0.4008 -0.0768
  973SOL    HW2 3938   0.328   1.591   1.889  0.6697  0.4005 -0.2412
  973SOL    HW3 3939   0.182   1.606   1.925  1.0760 -1.3946  2.3196
  973SOL    MW4 3940   0.245   1.565   1.881  0.6997  0.1639  0.2177
  974SOL     OW 3941   0.046   1.674   2.002 -0.0297  0.0950  0.1157
  974SOL    HW2 3942   0.054   1.676   2.097  0.0359 -2.0655  0.1674
  974SOL    HW3 3943  -0.035   1.626   1.986 -0.9187  1.8807 -0.9000
  974SOL    MW4 3944   0.036   1.668   2.012 -0.1383  0.0457 -0.0114
  975SOL     OW 3945   4.463   1.922   1.893 -0.0962  0.3391 -0.1128
  975SOL    HW2 3946   4.482   1.838   1.934 -0.7446 -0.5243 -1.5603
  975SOL    HW3 3947   4.400   1.964   1.952  0.6643  0.0773  0.9063
  975SOL    MW4 3948   4.457   1.916   1.906 -0.0815  0.1909 -0.1693
  976SOL     OW 3949   0.208   2.048   1.985 -0.0954  0.3266 -0.5429
  976SOL    HW2 3950   0.195   2.137   1.954  0.9828  0.7037  0.0277
  976SOL    HW3 3951   0.138   1.997   1.945 -0.8939  1.4862 -0.6368
  976SOL    MW4 3952   0.197   2.053   1.976 -0.0585  0.5293 -0.4801
  977SOL     OW 3953   0.166   2.304   1.906 -0.1264 -0.1554 -0.0286
  977SOL    HW2 3954   0.244   2.348   1.941 -0.3836  0.7370 -0.5610
  977SOL    HW3 3955   0.094   2.334   1.961 -0.2145 -0.3572 -0.0326
  977SOL    MW4 3956   0.167   2.313   1.918 -0.1720 -0.0641 -0.0994
  978SOL     OW 3957   4.423   2.436   2.022  0.0456 -0.0916  0.4094
  978SOL    HW2 3958   4.458   2.426   2.111  0.8831 -0.8730  0.0022
  978SOL    HW3 3959   4.465   2.515   1.989 -0.6520  0.4825  0.8855
  978SOL    MW4 3960   4.433   2.445   2.030  0.0644 -0.1187  0.4187
  979SOL     OW 3961   4.483   2.699   1.887  0.5695  0.3421 -0.5890
  979SOL    HW2 3962   4.406   2.747   1.916 -0.4368 -1.8246  0.4899
  979SOL    HW3 3963   4.484   2.711   1.792 -0.8766  0.7348 -0.5771
  979SOL    MW4 3964   4.473   2.707   1.879  0.2460  0.1080 -0.4449
  980SOL     OW 3965   0.195   2.846   1.998 -0.0031 -0.2500 -0.0330
  980SOL    HW2 3966   0.177   2.940   1.990  0.1890 -0.2081  0.0089
  980SOL    HW3 3967   0.125   2.803   1.950 -0.8053 -0.1290  1.0027
  980SOL    MW4 3968   0.184   2.853   1.991 -0.0836 -0.2282  0.1092
  981SOL     OW 3969   0.166   3.126   1.963  0.6097  0.2002 -0.3802
  981SOL    HW2 3970   0.244   3.162   2.006  0.9482  1.5006 -2.0139
  981SOL    HW3 3971   0.192   3.117   1.871 -0.6307 -0.9462 -0.6309
  981SOL    MW4 3972   0.180   3.129   1.956  0.4907  0.2203 -0.6288
  982SOL     OW 3973   4.438   3.273   2.001 -0.1502  0.1140 -0.3233
  982SOL    HW2 3974   4.370   3.228   1.953 -1.6782  1.8171  0.1911
  982SOL    HW3 3975   4.515   3.217   1.992 -1.3685 -1.3874 -1.6509
  982SOL    MW4 3976   4.440   3.260   1.994 -0.5121  0.1402 -0.4305
  983SOL     OW 3977   0.000   3.527   1.866  0.4178 -0.2128  0.3608
  983SOL    HW2 3978   0.001   3.440   1.906 -0.9982  0.4325  1.8508
  983SOL    HW3 3979   0.078   3.570   1.902  0.3713 -0.3976  0.6880
  983SOL    MW4 3980   0.010   3.521   1.876  0.2251 -0.1523  0.6006
  984SOL     OW 3981   0.243   3.647   1.980 -0.1845  0.5308 -0.4038
  984SOL    HW2 3982   0.246   3.652   2.075 -1.0626  0.4799 -0.3699
  984SOL    HW3 3983   0.312   3.586   1.956  1.6821  2.4283  0.0513
  984SOL    MW4 3984   0.252   3.640   1.989 -0.0541  0.7746 -0.3393
  985SOL     OW 3985   0.202   3.897   1.880 -0.1647 -0.0284 -0.2606
  985SOL    HW2 3986   0.222   3.811   1.917  0.7397 -0.2413 -1.2128
  985SOL    HW3 3987   0.276   3.952   1.905  0.9797 -0.4462 -2.5874
  985SOL    MW4 3988   0.214   3.893   1.888  0.1056 -0.1116 -0.6932
  986SOL     OW 3989   4.476   4.043   1.970  0.3062 -0.4165  0.0527
  986SOL    HW2 3990   4.497   4.135   1.954  1.2018 -0.3927  1.2632
  986SOL    HW3 3991   4.554   3.995   1.942 -0.4308 -0.8877 -1.2561
  986SOL    MW4 3992   4.489   4.049   1.964  0.3276 -0.4749  0.0397
  987SOL     OW 3993   0.235   4.402   2.003 -0.2941  0.0873 -0.0416
  987SOL    HW2 3994   0.264   4.402   2.094 -1.4193  0.3801  0.3205
  987SOL    HW3 3995   0.244   4.494   1.975 -0.1735  0.0412 -0.1598
  987SOL    MW4 3996   0.240   4.414   2.011 -0.4266  0.1202 -0.0095
  988SOL     OW 3997   0.233   4.379   2.271  0.5607 -0.0114 -0.0919
  988SOL    HW2 3998   0.312   4.338   2.304  0.1444 -0.2982  0.5508
  988SOL    HW3 3999   0.232   4.467   2.310  2.0903  1.0952 -2.4345
  988SOL    MW4 4000   0.243   4.386   2.280  0.7076  0.0968 -0.3164
  989SOL     OW 4001   0.661   0.002   1.880  0.8436  0.0074  0.1172
  989SOL    HW2 4002   0.675  -0.080   1.928 -0.5051  0.4919  1.3664
  989SOL    HW3 4003   0.670  -0.023   1.788 -0.1673 -1.6845  0.4493
  989SOL    MW4 4004   0.664  -0.012   1.874  0.5323 -0.1516  0.3258
  990SOL     OW 4005   0.484   0.150   2.018 -0.6746  0.0936  0.1479
  990SOL    HW2 4006   0.481   0.235   1.975  0.1380  0.7534  1.3668
  990SOL    HW3 4007   0.549   0.100   1.969  0.5113  0.9636  0.8143
  990SOL    MW4 4008   0.492   0.155   2.006 -0.4109  0.2955  0.3970
  991SOL     OW 4009   0.430   0.392   1.905 -0.0010  0.1743 -0.2396
  991SOL    HW2 4010   0.508   0.446   1.922  0.3991 -0.1053 -1.1431
  991SOL    HW3 4011   0.429   0.382   1.810 -1.5356  0.7468 -0.2969
  991SOL    MW4 4012   0.440   0.398   1.894 -0.1507  0.2130 -0.3664
  992SOL     OW 4013   0.884   0.405   1.863 -0.4863 -0.3706  0.1986
  992SOL    HW2 4014   0.961   0.441   1.906  0.8865 -0.5164 -2.0552
  992SOL    HW3 4015   0.868   0.321   1.906  1.5229 -1.0315 -0.3273
  992SOL    MW4 4016   0.892   0.399   1.874 -0.0401 -0.4770 -0.1682
  993SOL     OW 4017   0.668   0.514   1.984  0.0630 -0.4221  0.2071
  993SOL    HW2 4018   0.681   0.507   2.079  0.2951 -1.4279  0.1122
  993SOL    HW3 4019   0.745   0.471   1.947  0.5209  0.9625 -0.4482
  993SOL    MW4 4020   0.680   0.507   1.992  0.1541 -0.3721  0.1082
  994SOL     OW 4021   0.415   0.902   1.926 -0.0422  0.3044  0.4390
  994SOL    HW2 4022   0.426   0.997   1.928 -0.3659  0.3269  1.7903
  994SOL    HW3 4023   0.499   0.869   1.894 -0.1122  1.0685 -0.5683
  994SOL    MW4 4024   0.428   0.910   1.922 -0.0941  0.4082  0.4843
  995SOL     OW 4025   0.412   1.179   1.916  0.2908 -0.3774 -0.0421
  995SOL    HW2 4026   0.327   1.223   1.923  0.8316  0.7645 -0.4517
  995SOL    HW3 4027   0.427   1.171   1.822  0.8647 -0.1031  0.0226
  995SOL    MW4 4028   0.403   1.184   1.905  0.4379 -0.1905 -0.0875
  996SOL     OW 4029   0.653   1.274   2.011 -0.1677 -0.1634  0.3075
  996SOL    HW2 4030   0.645   1.369   2.002 -0.2019 -0.3287 -1.7703
  996SOL    HW3 4031   0.566   1.241   1.992 -0.1962 -0.5998  1.2107
  996SOL    MW4 4032   0.641   1.282   2.007 -0.1760 -0.2428  0.1528
  997SOL     OW 4033   0.670   1.539   1.889  0.0444  0.2294  0.2144
  997SOL    HW2 4034   0.747   1.582   1.926  0.5189 -1.1780  0.8951
  997SOL    HW3 4035   0.693   1.524   1.797  0.4023  0.2010  0.3099
  997SOL    MW4 4036   0.683   1.543   1.882  0.1542  0.0399  0.3167
  998SOL     OW 4037   0.454   1.700   2.001  0.2009  0.5253  0.8179
  998SOL    HW2 4038   0.466   1.693   2.095  1.5736 -0.0484  0.6134
  998SOL    HW3 4039   0.538   1.673   1.964 -0.4166  0.4624 -0.5779
  998SOL    MW4 4040   0.466   1.696   2.008  0.3005  0.4416  0.6065
  999SOL     OW 4041   0.413   1.931   1.845  0.0836 -0.0846  0.3830
  999SOL    HW2 4042   0.337   1.981   1.876 -1.4412 -1.4721 -1.0410
  999SOL    HW3 4043   0.404   1.846   1.886  0.4205 -0.5119 -0.4140
  999SOL    MW4 4044   0.402   1.926   1.854 -0.0732 -0.3241  0.0900
 1000SOL     OW 4045   0.634   2.070   1.962 -0.2128 -0.2679  0.4229
 1000SOL    HW2 4046   0.610   2.091   2.052  0.7586 -1.0189  0.8605
 1000SOL    HW3 4047   0.553   2.037   1.923 -0.3212 -1.1915  1.3967
 1000SOL    MW4 4048   0.620   2.068   1.969 -0.0989 -0.4888  0.6090
 1001SOL     OW 4049   0.645   2.337   1.890 -0.0218  0.4415 -0.1256
 1001SOL    HW2 4050   0.653   2.245   1.915  0.8758  1.1515  2.4324
 1001SOL    HW3 4051   0.630   2.336   1.796  0.4079 -2.2946 -0.1966
 1001SOL    MW4 4052   0.644   2.324   1.881  0.1533  0.1743  0.2025
 1002SOL     OW 4053   0.390   2.428   1.999  0.1249  0.4757  0.0975
 1002SOL    HW2 4054   0.396   2.440   2.094 -0.5843  0.0138  0.2032
 1002SOL    HW3 4055   0.480   2.408   1.971  0.3188  0.5358  0.6770
 1002SOL    MW4 4056   0.403   2.427   2.008  0.0569  0.4230  0.1879
 1003SOL     OW 4057   0.417   2.695   1.925 -0.1184 -0.1433 -0.5481
 1003SOL    HW2 4058   0.396   2.605   1.950 -1.3911  0.2411 -0.1429
 1003SOL    HW3 4059   0.334   2.742   1.937  0.5009  1.0457 -0.8863
 1003SOL    MW4 4060   0.403   2.689   1.930 -0.2046  0.0644 -0.5393
 1004SOL     OW 4061   0.643   2.849   1.972  0.3338  0.3679  0.0335
 1004SOL    HW2 4062   0.655   2.857   2.067  0.4087  1.4705 -0.0641
 1004SOL    HW3 4063   0.565   2.794   1.963  1.7829 -1.8981  0.7041
 1004SOL    MW4 4064   0.634   2.842   1.983  0.5349  0.2143  0.1091
 1005SOL     OW 4065   0.651   3.109   1.892 -0.1208 -0.5083  0.2216
 1005SOL    HW2 4066   0.646   3.017   1.920  0.8101 -0.9300 -0.9954
 1005SOL    HW3 4067   0.656   3.105   1.797  3.6462  0.6516  0.3168
 1005SOL    MW4 4068   0.651   3.096   1.883  0.4991 -0.4108  0.0737
 1006SOL     OW 4069   0.429   3.228   2.018  0.3186 -0.0534  0.4396
 1006SOL    HW2 4070   0.423   3.307   1.965  0.0126  0.6730  1.5405
 1006SOL    HW3 4071   0.510   3.186   1.989  0.2416  0.4182 -0.4786
 1006SOL    MW4 4072   0.439   3.233   2.007  0.2681  0.1047  0.4640
 1007SOL     OW 4073   0.437   3.474   1.892 -0.0005  0.2477 -0.4766
 1007SOL    HW2 4074   0.436   3.492   1.798  1.2266 -1.0130 -0.7624
 1007SOL    HW3 4075   0.513   3.523   1.925  1.2210 -1.4459 -0.6520
 1007SOL    MW4 4076   0.447   3.483   1.884  0.3225 -0.1419 -0.5375
 1008SOL     OW 4077   0.644   3.622   1.991 -0.2507  0.0699 -0.0340
 1008SOL    HW2 4078   0.727   3.583   1.962 -0.7580 -0.9268 -0.1898
 1008SOL    HW3 4079   0.646   3.711   1.958  1.0346  0.2475  0.4918
 1008SOL    MW4 4080   0.655   3.629   1.983 -0.1480 -0.0381  0.0148
 1009SOL     OW 4081   0.662   3.881   1.920  0.1635 -0.0739  0.0420
 1009SOL    HW2 4082   0.752   3.916   1.925 -0.2905  0.9665  1.1478
 1009SOL    HW3 4083   0.639   3.890   1.828  0.6561  1.0489  0.0196
 1009SOL    MW4 4084   0.671   3.887   1.908  0.1686  0.2115  0.1848
 1010SOL     OW 4085   0.421   4.002   2.005 -0.3884 -1.0215  0.1400
 1010SOL    HW2 4086   0.432   4.094   1.980 -1.0842 -1.0010 -0.1022
 1010SOL    HW3 4087   0.504   3.960   1.980 -0.2705 -0.5681 -0.2434
 1010SOL    MW4 4088   0.434   4.009   1.998 -0.4646 -0.9594  0.0573
 1011SOL     OW 4089   0.460   4.255   1.915  0.3822 -0.0008 -0.2958
 1011SOL    HW2 4090   0.384   4.303   1.948 -0.3798 -1.5678  0.2685
 1011SOL    HW3 4091   0.453   4.263   1.820 -1.5836 -1.7227 -0.3353
 1011SOL    MW4 4092   0.449   4.262   1.907  0.0223 -0.4349 -0.2265
 1012SOL     OW 4093   0.678   4.404   1.991 -0.3289  0.2455  0.1521
 1012SOL    HW2 4094   0.753   4.354   1.960 -0.5346 -0.1054  0.2154
 1012SOL    HW3 4095   0.604   4.371   1.940 -0.3811  0.8476 -0.1706
 1012SOL    MW4 4096   0.678   4.393   1.980 -0.3629  0.2785  0.1179
 1013SOL     OW 4097   1.109   0.005   1.922  0.3774 -0.3215 -0.5053
 1013SOL    HW2 4098   1.190   0.051   1.945  0.8161 -1.1269 -0.4188
 1013SOL    HW3 4099   1.117  -0.080   1.965 -0.5913 -0.3468 -0.3669
 1013SOL    MW4 4100   1.121  -0.000   1.931  0.3076 -0.4311 -0.4756
 1014SOL     OW 4101   0.881   0.153   1.986 -0.2421 -0.0650 -0.5829
 1014SOL    HW2 4102   0.960   0.103   1.964  0.1341 -0.6333  1.9729
 1014SOL    HW3 4103   0.809   0.102   1.950  0.4379 -0.1660 -1.8526
 1014SOL    MW4 4104   0.882   0.140   1.978 -0.1027 -0.1533 -0.4133
 1015SOL     OW 4105   1.100   0.523   1.981 -0.3837  0.5834 -0.1339
 1015SOL    HW2 4106   1.093   0.615   1.955 -0.2992  0.6227 -0.0178
 1015SOL    HW3 4107   1.182   0.493   1.942  0.0638  0.8174  0.6180
 1015SOL    MW4 4108   1.110   0.532   1.973 -0.3134  0.6195 -0.0193
 1016SOL     OW 4109   1.324   0.416   1.873  0.1926 -0.3566 -0.3544
 1016SOL    HW2 4110   1.321   0.338   1.929 -1.6670 -0.6642 -0.8650
 1016SOL    HW3 4111   1.412   0.451   1.887  0.2694 -1.2396  1.6632
 1016SOL    MW4 4112   1.336   0.410   1.882 -0.0426 -0.5136 -0.1556
 1017SOL     OW 4113   1.119   0.778   1.877  0.7280 -0.1097 -0.3687
 1017SOL    HW2 4114   1.196   0.811   1.923  0.5613  0.3896 -0.4477
 1017SOL    HW3 4115   1.046   0.827   1.915  0.5754  0.2154 -1.0770
 1017SOL    MW4 4116   1.119   0.789   1.888  0.6858 -0.0010 -0.4727
 1018SOL     OW 4117   0.682   0.769   1.886  0.2002  0.0683  0.1539
 1018SOL    HW2 4118   0.673   0.684   1.928  0.2395  0.9630  2.0420
 1018SOL    HW3 4119   0.770   0.798   1.908  0.6844  0.0321 -1.6246
 1018SOL    MW4 4120   0.692   0.762   1.894  0.2693  0.1816  0.1682
 1019SOL     OW 4121   0.912   0.904   1.990 -0.0942 -0.0063 -0.2054
 1019SOL    HW2 4122   0.910   0.918   2.085 -0.4686  0.1987 -0.2462
 1019SOL    HW3 4123   0.906   0.992   1.952  0.0473 -0.0889 -0.4214
 1019SOL    MW4 4124   0.911   0.917   1.998 -0.1249  0.0099 -0.2393
 1020SOL     OW 4125   1.138   1.291   2.006 -0.1602  0.2268 -0.0098
 1020SOL    HW2 4126   1.124   1.380   1.974 -0.4483 -0.0875 -0.7609
 1020SOL    HW3 4127   1.057   1.245   1.984  1.2282 -1.0666 -2.5330
 1020SOL    MW4 4128   1.125   1.297   1.999 -0.0150  0.0147 -0.4419
 1021SOL     OW 4129   1.102   1.548   1.903 -0.5697  0.2409 -0.0684
 1021SOL    HW2 4130   1.187   1.588   1.926 -1.4184  1.3981  1.1804
 1021SOL    HW3 4131   1.108   1.532   1.809  1.2242 -0.1516  0.0843
 1021SOL    MW4 4132   1.114   1.551   1.894 -0.4450  0.3418  0.1166
 1022SOL     OW 4133   0.875   1.690   2.003 -0.0099  0.1901  0.1461
 1022SOL    HW2 4134   0.950   1.644   1.966  1.0410  1.0013  1.2395
 1022SOL    HW3 4135   0.877   1.777   1.963 -0.8173 -0.0352 -0.3971
 1022SOL    MW4 4136   0.885   1.696   1.993  0.0222  0.2674  0.2186
 1023SOL     OW 4137   0.890   1.955   1.903 -0.0029 -0.3249 -0.7198
 1023SOL    HW2 4138   0.809   1.990   1.942  0.2042 -0.9512  0.3224
 1023SOL    HW3 4139   0.874   1.957   1.809  0.0867  2.7059 -0.7173
 1023SOL    MW4 4140   0.877   1.960   1.896  0.0362 -0.0076 -0.5820
 1024SOL     OW 4141   1.121   2.043   1.998 -0.5975  0.2421  0.1571
 1024SOL    HW2 4142   1.114   2.062   2.092 -0.7132  0.6210  0.0716
 1024SOL    HW3 4143   1.033   2.017   1.972 -0.7545  0.9165 -0.0138
 1024SOL    MW4 4144   1.108   2.042   2.007 -0.6334  0.3810  0.1230
 1025SOL     OW 4145   1.116   2.284   1.864 -0.1894  0.5744  0.4318
 1025SOL    HW2 4146   1.110   2.195   1.901 -0.2279  1.0789  1.6665
 1025SOL    HW3 4147   1.196   2.320   1.902  0.7528  0.4795 -1.4004
 1025SOL    MW4 4148   1.126   2.277   1.874 -0.0702  0.6285  0.3531
 1026SOL     OW 4149   0.891   2.435   1.944 -0.1701  0.0901  0.1961
 1026SOL    HW2 4150   0.968   2.384   1.918 -0.3878 -0.1612  0.0516
 1026SOL    HW3 4151   0.816   2.386   1.911 -0.4291  0.0072  0.8860
 1026SOL    MW4 4152   0.891   2.422   1.936 -0.2329  0.0458  0.2680
 1027SOL     OW 4153   0.861   2.701   1.862  0.1443  0.0970  0.1929
 1027SOL    HW2 4154   0.791   2.742   1.914 -0.5724  0.0363 -0.7288
 1027SOL    HW3 4155   0.863   2.611   1.893 -0.0600  0.1427  0.3476
 1027SOL    MW4 4156   0.852   2.695   1.873  0.0228  0.0951  0.0917
 1028SOL     OW 4157   1.103   2.850   1.927  0.6416 -0.3016  0.2831
 1028SOL    HW2 4158   1.108   2.859   2.022  1.4816  0.7123  0.1538
 1028SOL    HW3 4159   1.029   2.791   1.912 -0.1209  0.3235  1.5188
 1028SOL    MW4 4160   1.094   2.843   1.937  0.6518 -0.0854  0.4292
 1029SOL     OW 4161   1.127   3.110   1.863 -0.0018  0.1860 -0.0870
 1029SOL    HW2 4162   1.048   3.152   1.896  0.2557  0.0576  0.7034
 1029SOL    HW3 4163   1.121   3.019   1.894  1.3897  0.6575  1.6420
 1029SOL    MW4 4164   1.116   3.103   1.871  0.2158  0.2310  0.2455
 1030SOL     OW 4165   0.889   3.233   1.986  1.1609  0.0448  0.0971
 1030SOL    HW2 4166   0.810   3.180   1.973  0.4295  1.0737  0.3155
 1030SOL    HW3 4167   0.908   3.226   2.080  0.7646  0.5983  0.2162
 1030SOL    MW4 4168   0.881   3.225   1.997  1.0121  0.2534  0.1417
 1031SOL     OW 4169   0.884   3.495   1.910  0.1184  0.0408  0.3034
 1031SOL    HW2 4170   0.878   3.403   1.936 -2.8207  0.1521  0.1618
 1031SOL    HW3 4171   0.894   3.492   1.815  1.4449 -0.1449  0.4384
 1031SOL    MW4 4172   0.884   3.482   1.901 -0.0944  0.0310  0.3026
 1032SOL     OW 4173   1.132   3.618   2.006 -0.2073  0.1520  0.1042
 1032SOL    HW2 4174   1.041   3.590   1.995 -0.0150 -0.5216  0.2093
 1032SOL    HW3 4175   1.148   3.611   2.100 -0.3102  1.0931  0.1911
 1032SOL    MW4 4176   1.122   3.613   2.017 -0.1955  0.1872  0.1295
 1033SOL     OW 4177   1.119   3.862   1.903  0.0004  0.2457 -0.3197
 1033SOL    HW2 4178   1.128   3.773   1.937 -1.2664 -0.0699 -0.7812
 1033SOL    HW3 4179   1.113   3.851   1.808 -0.3768  0.8121 -0.3666
 1033SOL    MW4 4180   1.119   3.849   1.895 -0.2164  0.2789 -0.3867
 1034SOL     OW 4181   0.904   4.002   1.957 -0.2801  0.0047 -0.2306
 1034SOL    HW2 4182   0.918   4.027   2.049 -0.7915 -0.8229  0.0758
 1034SOL    HW3 4183   0.981   3.951   1.934  0.2605  0.9552 -0.5290
 1034SOL    MW4 4184   0.916   3.999   1.966 -0.2763  0.0210 -0.2297
 1035SOL     OW 4185   0.887   4.264   1.879  0.2747 -0.2029  0.0625
 1035SOL    HW2 4186   0.967   4.308   1.907  1.0642 -0.6593 -1.4441
 1035SOL    HW3 4187   0.900   4.172   1.905  0.0698 -0.2035  0.1645
 1035SOL    MW4 4188   0.899   4.258   1.886  0.3518 -0.2632 -0.1228
 1036SOL     OW 4189   1.137   4.397   1.987  0.9129  0.6441  0.2942
 1036SOL    HW2 4190   1.129   4.391   2.082  0.9585  1.0043  0.3214
 1036SOL    HW3 4191   1.223   4.359   1.967  1.5835  2.0034  0.5479
 1036SOL    MW4 4192   1.147   4.391   1.997  1.0073  0.8707  0.3313
 1037SOL     OW 4193   1.543   0.000   1.928 -0.2109  0.3294 -0.4610
 1037SOL    HW2 4194   1.623   0.045   1.955 -0.3491  0.5174 -0.3676
 1037SOL    HW3 4195   1.557  -0.091   1.955 -0.0541  0.3721 -0.3946
 1037SOL    MW4 4196   1.556  -0.006   1.935 -0.2085  0.3595 -0.4398
 1038SOL     OW 4197   1.308   0.150   2.012 -0.1677 -0.7298  0.1622
 1038SOL    HW2 4198   1.316   0.129   2.105  1.3542  1.6344  0.6039
 1038SOL    HW3 4199   1.394   0.133   1.975 -0.0679  0.7352 -0.2975
 1038SOL    MW4 4200   1.320   0.145   2.019  0.0463 -0.2246  0.1600
 1039SOL     OW 4201   1.555   0.517   1.526  0.9470  0.4556  0.0012
 1039SOL    HW2 4202   1.477   0.475   1.561  0.1777  1.2353 -0.7532
 1039SOL    HW3 4203   1.627   0.458   1.549  0.1020 -0.4162  0.4294
 1039SOL    MW4 4204   1.554   0.504   1.534  0.7341  0.4434 -0.0418
 1040SOL     OW 4205   1.321   0.406   1.598 -0.0234  0.1450  0.3282
 1040SOL    HW2 4206   1.302   0.411   1.692  0.9331  0.0116  0.5339
 1040SOL    HW3 4207   1.238   0.426   1.556 -0.2583  1.0891  1.2068
 1040SOL    MW4 4208   1.308   0.410   1.605  0.0719  0.2520  0.4714
 1041SOL     OW 4209   1.552   0.780   1.875 -0.5872  0.0739 -0.1455
 1041SOL    HW2 4210   1.624   0.830   1.915  0.5214 -0.2125 -1.7648
 1041SOL    HW3 4211   1.571   0.689   1.895 -0.3835 -0.0191 -0.7505
 1041SOL    MW4 4212   1.564   0.775   1.883 -0.4140  0.0239 -0.4390
 1042SOL     OW 4213   1.329   0.877   1.999 -0.7702  0.5659  0.2644
 1042SOL    HW2 4214   1.355   0.872   2.091  0.4538 -1.0398 -0.1449
 1042SOL    HW3 4215   1.406   0.847   1.951 -1.5979  0.8384 -1.2654
 1042SOL    MW4 4216   1.343   0.872   2.004 -0.7180  0.3899  0.0083
 1043SOL     OW 4217   1.352   1.159   1.904 -0.2402 -0.5934  0.1804
 1043SOL    HW2 4218   1.349   1.076   1.952  0.1807 -0.0660  1.1491
 1043SOL    HW3 4219   1.280   1.210   1.941 -0.1340 -0.3102 -0.0034
 1043SOL    MW4 4220   1.342   1.155   1.915 -0.1706 -0.4865  0.2838
 1044SOL     OW 4221   1.535   1.321   2.010 -0.8598  0.1654  0.1519
 1044SOL    HW2 4222   1.541   1.398   1.954  0.6438 -0.7337 -0.9578
 1044SOL    HW3 4223   1.475   1.262   1.964 -0.7862  0.0389  0.2161
 1044SOL    MW4 4224   1.528   1.323   1.997 -0.6516  0.0302  0.0139
 1045SOL     OW 4225   1.561   1.549   1.864  0.2353 -0.2110 -0.3812
 1045SOL    HW2 4226   1.636   1.595   1.902 -0.5739  1.4122 -0.7196
 1045SOL    HW3 4227   1.485   1.599   1.891 -0.7089 -1.5365 -0.5063
 1045SOL    MW4 4228   1.561   1.561   1.872  0.0038 -0.1717 -0.4424
 1046SOL     OW 4229   1.331   1.701   1.962 -0.6664  0.1803 -0.4250
 1046SOL    HW2 4230   1.364   1.683   2.050  0.3337  0.6514 -0.7052
 1046SOL    HW3 4231   1.340   1.796   1.952 -1.2104  0.1884 -0.8663
 1046SOL    MW4 4232   1.336   1.711   1.973 -0.6063  0.2437 -0.5202
 1047SOL     OW 4233   1.365   1.960   1.884  0.0304 -0.3948 -0.4414
 1047SOL    HW2 4234   1.436   2.002   1.934 -0.8582 -0.3175  0.7790
 1047SOL    HW3 4235   1.286   2.005   1.913 -0.8035 -2.1124 -0.0292
 1047SOL    MW4 4236   1.364   1.972   1.894 -0.1967 -0.6112 -0.2260
 1048SOL     OW 4237   1.604   2.080   1.994 -0.1120 -0.0254 -0.4775
 1048SOL    HW2 4238   1.587   2.161   1.946 -0.8994  0.1052  0.0132
 1048SOL    HW3 4239   1.683   2.044   1.953  0.7080  1.3891 -0.1574
 1048SOL    MW4 4240   1.612   2.086   1.982 -0.1078  0.1783 -0.3705
 1049SOL     OW 4241   1.572   2.315   1.838 -0.1703  0.0011 -0.5960
 1049SOL    HW2 4242   1.589   2.314   1.744  1.1344  1.3165 -0.3958
 1049SOL    HW3 4243   1.646   2.363   1.875 -1.2150  0.4280  0.9963
 1049SOL    MW4 4244   1.584   2.321   1.831 -0.1360  0.2310 -0.3594
 1050SOL     OW 4245   1.347   2.431   1.982 -0.0507  0.1776  0.2003
 1050SOL    HW2 4246   1.344   2.513   1.933 -0.2650  1.0278  1.6052
 1050SOL    HW3 4247   1.418   2.381   1.941 -0.5922  0.6244 -1.3214
 1050SOL    MW4 4248   1.356   2.435   1.970 -0.1504  0.3488  0.1848
 1051SOL     OW 4249   1.345   2.694   1.844  0.1478 -0.1776  0.1103
 1051SOL    HW2 4250   1.263   2.737   1.867  0.1699  0.0400 -0.1995
 1051SOL    HW3 4251   1.347   2.697   1.748  0.4528 -0.2999  0.1113
 1051SOL    MW4 4252   1.334   2.700   1.834  0.1910 -0.1652  0.0696
 1052SOL     OW 4253   1.566   2.844   1.955  0.2070 -0.1595  0.0572
 1052SOL    HW2 4254   1.556   2.826   2.048  1.1857  0.1611  0.2285
 1052SOL    HW3 4255   1.504   2.785   1.912  1.6514 -2.2203  0.7330
 1052SOL    MW4 4256   1.556   2.834   1.962  0.5265 -0.3891  0.1689
 1053SOL     OW 4257   1.582   3.124   1.877  0.3039 -0.0232  0.5164
 1053SOL    HW2 4258   1.566   3.035   1.907 -0.3534  0.2166  0.9141
 1053SOL    HW3 4259   1.575   3.120   1.782 -0.6931 -0.2117  0.5967
 1053SOL    MW4 4260   1.579   3.112   1.869  0.0857 -0.0167  0.5795
 1054SOL     OW 4261   1.332   3.220   1.992 -0.0368 -0.0634 -0.2231
 1054SOL    HW2 4262   1.253   3.180   1.958 -0.3138  2.8062 -3.1151
 1054SOL    HW3 4263   1.403   3.166   1.957 -0.5391 -0.0756 -1.2415
 1054SOL    MW4 4264   1.331   3.207   1.983 -0.1396  0.3133 -0.7390
 1055SOL     OW 4265   1.343   3.480   1.891 -0.2326 -0.5875  0.2394
 1055SOL    HW2 4266   1.358   3.402   1.944  1.5188 -0.0969  0.5050
 1055SOL    HW3 4267   1.259   3.514   1.921 -0.8278 -2.1434  0.3892
 1055SOL    MW4 4268   1.334   3.474   1.902 -0.0802 -0.7281  0.2941
 1056SOL     OW 4269   1.568   3.631   1.952  0.1585  0.1476 -0.3687
 1056SOL    HW2 4270   1.557   3.645   2.046  0.8516 -1.4795 -0.0252
 1056SOL    HW3 4271   1.496   3.574   1.928 -0.0987  0.6799 -0.8482
 1056SOL    MW4 4272   1.557   3.625   1.961  0.2160  0.0031 -0.3867
 1057SOL     OW 4273   1.557   3.618   2.245 -0.0757  0.5960  0.1969
 1057SOL    HW2 4274   1.565   3.703   2.288  0.1587  0.3288  0.6879
 1057SOL    HW3 4275   1.490   3.572   2.295 -1.6186  1.2090 -1.2592
 1057SOL    MW4 4276   1.549   3.623   2.257 -0.2483  0.6416  0.0696
 1058SOL     OW 4277   1.354   4.002   2.006  0.2675 -0.1716  0.1316
 1058SOL    HW2 4278   1.421   3.971   1.945 -0.9929 -0.4094 -1.1600
 1058SOL    HW3 4279   1.272   3.966   1.972 -0.6388  0.8190  1.2066
 1058SOL    MW4 4280   1.352   3.993   1.993 -0.0185 -0.0725  0.1031
 1059SOL     OW 4281   1.366   4.253   1.901  0.5747 -0.3297 -0.2994
 1059SOL    HW2 4282   1.354   4.162   1.928 -0.2669  0.0872  0.7728
 1059SOL    HW3 4283   1.349   4.252   1.807 -2.8080 -0.7363  0.2266
 1059SOL    MW4 4284   1.362   4.241   1.892  0.0173 -0.3276 -0.0886
 1060SOL     OW 4285   1.590   4.381   2.021  0.4439  0.0675  0.0402
 1060SOL    HW2 4286   1.607   4.374   2.115 -1.2918  2.1556  0.5513
 1060SOL    HW3 4287   1.507   4.337   2.009  1.3396 -1.4270 -0.7767
 1060SOL    MW4 4288   1.582   4.374   2.032  0.3330  0.1454 -0.0002
 1061SOL     OW 4289   2.024   4.664   1.878  0.0304 -0.5071 -0.2929
 1061SOL    HW2 4290   2.087   4.724   1.917 -0.6621  0.3843 -0.5347
 1061SOL    HW3 4291   2.039   4.581   1.923  1.3294 -0.2924 -0.3053
 1061SOL    MW4 4292   2.034   4.661   1.889  0.1106 -0.3610 -0.3264
 1062SOL     OW 4293   1.790   0.158   1.972  0.1379  0.0781  0.3539
 1062SOL    HW2 4294   1.817   0.151   2.063  1.2762 -0.3236 -0.0065
 1062SOL    HW3 4295   1.851   0.102   1.924  0.2326  1.1355 -0.7867
 1062SOL    MW4 4296   1.802   0.150   1.978  0.3006  0.1646  0.1558
 1063SOL     OW 4297   1.579   0.504   1.922 -0.0638  0.4120 -0.1108
 1063SOL    HW2 4298   1.573   0.492   2.016 -1.2083 -1.5797 -0.4022
 1063SOL    HW3 4299   1.661   0.461   1.897 -0.6007 -0.5731 -0.2204
 1063SOL    MW4 4300   1.589   0.497   1.931 -0.2855  0.0193 -0.1638
 1064SOL     OW 4301   1.823   0.405   1.843 -0.2884 -0.1243 -0.3202
 1064SOL    HW2 4302   1.806   0.381   1.752 -2.4919  0.6208 -0.1328
 1064SOL    HW3 4303   1.791   0.330   1.894 -0.4271  0.0863 -0.0968
 1064SOL    MW4 4304   1.816   0.392   1.838 -0.5975  0.0017 -0.2661
 1065SOL     OW 4305   2.048   0.546   1.958  0.2422 -0.2881  0.0154
 1065SOL    HW2 4306   2.023   0.635   1.931  0.1113 -0.4924 -0.5521
 1065SOL    HW3 4307   1.974   0.492   1.931 -0.0011 -0.4622  1.0359
 1065SOL    MW4 4308   2.035   0.551   1.951  0.1929 -0.3380  0.0752
 1066SOL     OW 4309   1.771   0.894   1.993  0.3050  0.2388 -0.0796
 1066SOL    HW2 4310   1.847   0.856   1.949 -1.2661 -0.2894 -2.4546
 1066SOL    HW3 4311   1.764   0.982   1.956 -0.6503  0.0290 -0.4120
 1066SOL    MW4 4312   1.780   0.901   1.982 -0.0281  0.1414 -0.4369
 1067SOL     OW 4313   1.776   1.132   1.627  0.1606 -0.8115  0.1642
 1067SOL    HW2 4314   1.705   1.172   1.576 -0.0760 -1.0962  0.2697
 1067SOL    HW3 4315   1.856   1.168   1.589 -0.0184 -0.9422 -0.3375
 1067SOL    MW4 4316   1.777   1.142   1.615  0.1059 -0.8663  0.1118
 1068SOL     OW 4317   1.799   1.179   1.904  0.4189 -0.0468 -0.3733
 1068SOL    HW2 4318   1.798   1.160   1.810  0.1982  0.9138 -0.5684
 1068SOL    HW3 4319   1.714   1.219   1.921  0.1525 -0.9200  0.3930
 1068SOL    MW4 4320   1.788   1.181   1.894  0.3545 -0.0352 -0.2979
 1069SOL     OW 4321   2.051   1.300   1.983 -0.3100 -0.0264  0.0974
 1069SOL    HW2 4322   1.972   1.255   1.955 -0.0328 -0.4109 -0.0599
 1069SOL    HW3 4323   2.123   1.255   1.938 -0.1573  1.5257 -1.2515
 1069SOL    MW4 4324   2.050   1.288   1.973 -0.2532  0.1277 -0.1013
 1070SOL     OW 4325   1.794   1.669   1.952  0.4981 -0.0807  0.6424
 1070SOL    HW2 4326   1.807   1.762   1.934  0.5285 -0.1150  0.4912
 1070SOL    HW3 4327   1.876   1.627   1.924  0.5986 -0.1159  0.9796
 1070SOL    MW4 4328   1.807   1.676   1.946  0.5155 -0.0899  0.6671
 1071SOL     OW 4329   1.807   1.928   1.876  0.2685  0.0969  0.0535
 1071SOL    HW2 4330   1.896   1.957   1.899  0.7645 -0.3576 -1.2140
 1071SOL    HW3 4331   1.806   1.930   1.780 -0.4075 -1.9344  0.0012
 1071SOL    MW4 4332   1.819   1.932   1.866  0.2447 -0.2310 -0.1206
 1072SOL     OW 4333   2.067   2.021   1.927 -0.3725  0.2309 -0.0253
 1072SOL    HW2 4334   2.156   1.990   1.908 -0.6004 -0.3334 -0.1864
 1072SOL    HW3 4335   2.061   2.105   1.883  1.3626  2.0730  3.0592
 1072SOL    MW4 4336   2.078   2.028   1.919 -0.1736  0.3991  0.3604
 1073SOL     OW 4337   2.020   2.269   1.827 -0.1191 -0.2375 -0.4221
 1073SOL    HW2 4338   1.937   2.301   1.863 -0.2324 -1.7904  0.7571
 1073SOL    HW3 4339   2.087   2.324   1.866 -0.4188 -0.5326  0.5075
 1073SOL    MW4 4340   2.018   2.280   1.837 -0.1736 -0.4814 -0.1438
 1074SOL     OW 4341   1.816   2.437   1.946 -0.1260  0.2812 -0.2774
 1074SOL    HW2 4342   1.803   2.529   1.923 -0.9393  0.4393  0.7236
 1074SOL    HW3 4343   1.821   2.438   2.042  1.4402 -0.5377 -0.3431
 1074SOL    MW4 4344   1.815   2.450   1.956 -0.0267  0.1941 -0.1540
 1075SOL     OW 4345   1.784   2.714   1.862  0.0417 -0.1835 -0.1192
 1075SOL    HW2 4346   1.706   2.758   1.896  0.6384 -0.6058  1.8736
 1075SOL    HW3 4347   1.776   2.720   1.767 -1.8713  0.7250  0.0829
 1075SOL    MW4 4348   1.772   2.721   1.854 -0.1321 -0.1194  0.1702
 1076SOL     OW 4349   1.994   2.856   1.996 -0.6215 -0.1389  0.0882
 1076SOL    HW2 4350   1.989   2.862   2.092 -1.0489  0.0159  0.0583
 1076SOL    HW3 4351   1.920   2.801   1.972 -1.7862  1.5563 -0.3206
 1076SOL    MW4 4352   1.983   2.850   2.006 -0.8316  0.1051  0.0305
 1077SOL     OW 4353   2.035   3.114   1.856  0.1765  0.3128  0.6871
 1077SOL    HW2 4354   1.948   3.154   1.865 -0.1176 -0.5909  1.9472
 1077SOL    HW3 4355   2.023   3.023   1.884  1.0654 -0.4004 -1.1885
 1077SOL    MW4 4356   2.022   3.107   1.861  0.2549  0.0997  0.6059
 1078SOL     OW 4357   1.804   3.268   1.946 -0.2574  0.0453 -0.3088
 1078SOL    HW2 4358   1.821   3.256   2.039 -2.5074 -0.3781  0.0758
 1078SOL    HW3 4359   1.717   3.232   1.933  0.5710 -1.1075 -2.8517
 1078SOL    MW4 4360   1.795   3.262   1.956 -0.4449 -0.1628 -0.5937
 1079SOL     OW 4361   1.794   3.514   1.814  0.0481  0.1981  0.2988
 1079SOL    HW2 4362   1.811   3.431   1.859  1.2584  0.8094  0.9688
 1079SOL    HW3 4363   1.715   3.548   1.856  0.6841  0.3542  1.3782
 1079SOL    MW4 4364   1.786   3.507   1.825  0.2917  0.2992  0.5296
 1080SOL     OW 4365   2.020   3.868   1.912 -0.0014  0.0490 -0.2320
 1080SOL    HW2 4366   2.081   3.934   1.944  0.2132 -0.3006  0.0775
 1080SOL    HW3 4367   2.017   3.881   1.817  1.0492 -0.3575 -0.3240
 1080SOL    MW4 4368   2.027   3.878   1.904  0.1655 -0.0508 -0.2033
 1081SOL     OW 4369   1.984   3.622   2.006  0.0447  0.5295  0.3304
 1081SOL    HW2 4370   2.009   3.710   1.978 -1.6872  1.5580  1.8952
 1081SOL    HW3 4371   1.909   3.599   1.951 -0.0629  0.4088  0.5258
 1081SOL    MW4 4372   1.977   3.631   1.995 -0.1979  0.6492  0.5627
 1082SOL     OW 4373   1.803   3.995   2.018 -0.5389 -0.0840  0.0076
 1082SOL    HW2 4374   1.792   4.071   1.960  0.7221 -0.4410 -0.7177
 1082SOL    HW3 4375   1.876   3.947   1.980 -0.7985 -1.2257  0.9470
 1082SOL    MW4 4376   1.811   3.999   2.005 -0.4066 -0.2813  0.0360
 1083SOL     OW 4377   1.785   4.243   1.882  0.1060  0.0083  0.5012
 1083SOL    HW2 4378   1.712   4.293   1.918  0.7065  1.7688 -0.6454
 1083SOL    HW3 4379   1.777   4.254   1.787  2.1002  0.6078  0.3788
 1083SOL    MW4 4380   1.774   4.251   1.874  0.4483  0.3200  0.3337
 1084SOL     OW 4381   2.008   4.384   1.998 -0.3288 -0.0853 -0.4155
 1084SOL    HW2 4382   2.091   4.350   1.966 -1.0407 -0.3458 -2.0524
 1084SOL    HW3 4383   1.942   4.330   1.954 -1.3477 -1.2148  2.3668
 1084SOL    MW4 4384   2.010   4.373   1.988 -0.5569 -0.2685 -0.2643
 1085SOL     OW 4385   2.709   0.125   2.238  0.0678  0.5798 -0.1015
 1085SOL    HW2 4386   2.704   0.216   2.264  0.5559  0.4574  0.4307
 1085SOL    HW3 4387   2.786   0.091   2.284  0.4593  0.1558 -1.0593
 1085SOL    MW4 4388   2.718   0.132   2.247  0.1838  0.5078 -0.1574
 1086SOL     OW 4389   2.475   0.028   1.879 -0.4765 -0.0367 -0.7095
 1086SOL    HW2 4390   2.554   0.078   1.900 -0.9593  1.2065 -1.7391
 1086SOL    HW3 4391   2.481  -0.050   1.933  1.7827 -0.2887 -1.2668
 1086SOL    MW4 4392   2.486   0.025   1.889 -0.2420  0.0940 -0.9187
 1087SOL     OW 4393   2.254   0.383   1.865 -0.2040  0.0408 -0.4500
 1087SOL    HW2 4394   2.233   0.300   1.908  1.7139  0.1638  0.7840
 1087SOL    HW3 4395   2.187   0.444   1.897 -0.5023 -0.5763  0.1054
 1087SOL    MW4 4396   2.242   0.380   1.875  0.0095 -0.0243 -0.2139
 1088SOL     OW 4397   2.697   0.412   1.897  0.0179  0.3253 -0.2534
 1088SOL    HW2 4398   2.772   0.451   1.942  0.2757 -0.2185 -0.2071
 1088SOL    HW3 4399   2.698   0.321   1.925 -0.5177  0.2605 -0.4465
 1088SOL    MW4 4400   2.707   0.405   1.907 -0.0188  0.2450 -0.2728
 1089SOL     OW 4401   2.479   0.782   1.868  0.3061  0.2058 -0.1040
 1089SOL    HW2 4402   2.467   0.691   1.896 -0.2039 -0.0302 -1.0709
 1089SOL    HW3 4403   2.492   0.776   1.773  0.6025  1.1103 -0.1190
 1089SOL    MW4 4404   2.479   0.769   1.859  0.2778  0.2940 -0.2335
 1090SOL     OW 4405   2.258   0.922   1.947  0.4722 -0.4494 -0.9118
 1090SOL    HW2 4406   2.263   0.920   2.042  1.7379 -1.1360 -0.9751
 1090SOL    HW3 4407   2.331   0.866   1.918 -0.1563 -0.5942 -2.2685
 1090SOL    MW4 4408   2.268   0.914   1.955  0.5565 -0.5591 -1.0991
 1091SOL     OW 4409   2.252   1.166   1.842 -0.0277 -0.0698  0.0614
 1091SOL    HW2 4410   2.331   1.209   1.876 -0.9871  1.4344  0.4413
 1091SOL    HW3 4411   2.248   1.083   1.889  1.7209 -0.4817 -0.4809
 1091SOL    MW4 4412   2.262   1.161   1.853  0.0763  0.0744  0.0399
 1092SOL     OW 4413   2.721   1.179   1.871  0.2352 -0.3329 -0.4429
 1092SOL    HW2 4414   2.642   1.220   1.905 -0.1547 -0.0623 -1.6770
 1092SOL    HW3 4415   2.717   1.192   1.776  0.9554 -1.7103 -0.6792
 1092SOL    MW4 4416   2.710   1.186   1.863  0.2789 -0.4789 -0.6369
 1093SOL     OW 4417   2.466   1.261   1.956  0.2105  0.5291 -0.1673
 1093SOL    HW2 4418   2.481   1.256   2.050 -0.4255 -0.1499 -0.0943
 1093SOL    HW3 4419   2.452   1.354   1.938 -1.6658  0.4405  0.7404
 1093SOL    MW4 4420   2.466   1.273   1.966 -0.1209  0.4280 -0.0379
 1094SOL     OW 4421   2.040   1.560   1.878 -0.0920 -0.1395 -0.4101
 1094SOL    HW2 4422   2.045   1.471   1.911 -0.7323 -0.1066 -0.2270
 1094SOL    HW3 4423   2.023   1.550   1.784 -0.5998 -0.2064 -0.3122
 1094SOL    MW4 4424   2.039   1.547   1.870 -0.2437 -0.1440 -0.3730
 1095SOL     OW 4425   2.315   1.922   1.846 -0.0532  0.4212 -0.1645
 1095SOL    HW2 4426   2.388   1.965   1.890  1.3072 -0.4502 -1.5229
 1095SOL    HW3 4427   2.309   1.836   1.888  0.8280 -0.1657 -1.2379
 1095SOL    MW4 4428   2.324   1.916   1.857  0.2422  0.2288 -0.4854
 1096SOL     OW 4429   2.516   2.071   1.985  0.0517 -0.1362  0.0855
 1096SOL    HW2 4430   2.594   2.029   1.949 -0.9070 -1.6160 -0.2769
 1096SOL    HW3 4431   2.511   2.155   1.939  0.7031 -0.5886 -0.8116
 1096SOL    MW4 4432   2.526   2.077   1.974  0.0112 -0.3910 -0.0808
 1097SOL     OW 4433   2.473   2.333   1.861 -0.1771  0.1516  0.2164
 1097SOL    HW2 4434   2.536   2.384   1.911 -0.8302  0.1505  1.0331
 1097SOL    HW3 4435   2.387   2.361   1.892 -0.5878  0.0600 -0.8028
 1097SOL    MW4 4436   2.470   2.343   1.872 -0.3171  0.1395  0.1898
 1098SOL     OW 4437   2.239   2.415   1.955  0.5369 -0.1946  0.4061
 1098SOL    HW2 4438   2.240   2.417   2.051  1.3910 -0.4286  0.4039
 1098SOL    HW3 4439   2.234   2.508   1.930 -4.0914 -0.2312  0.6827
 1098SOL    MW4 4440   2.238   2.428   1.965  0.0386 -0.2303  0.4424
 1099SOL     OW 4441   2.227   2.695   1.894  0.3711 -0.0778  0.1269
 1099SOL    HW2 4442   2.159   2.746   1.938 -0.8175 -0.6738 -1.0235
 1099SOL    HW3 4443   2.215   2.714   1.801  2.6819  0.9258 -0.0093
 1099SOL    MW4 4444   2.217   2.704   1.888  0.5195 -0.0241 -0.0429
 1100SOL     OW 4445   2.491   2.787   1.969 -0.4071  0.7470 -0.0200
 1100SOL    HW2 4446   2.403   2.765   1.940 -0.3375  1.7279 -1.0076
 1100SOL    HW3 4447   2.507   2.875   1.935  0.3471  1.2419  1.5216
 1100SOL    MW4 4448   2.482   2.795   1.961 -0.2983  0.9415  0.0530
 1101SOL     OW 4449   2.445   3.059   1.857 -0.2035 -0.1832 -0.1162
 1101SOL    HW2 4450   2.371   3.119   1.873 -0.5735  0.0647 -2.5420
 1101SOL    HW3 4451   2.462   3.067   1.763  1.1854 -2.2607 -0.0663
 1101SOL    MW4 4452   2.437   3.068   1.846 -0.0687 -0.4249 -0.4297
 1102SOL     OW 4453   2.257   3.241   1.957 -0.4859 -0.4710 -0.6711
 1102SOL    HW2 4454   2.253   3.243   2.053  0.4392  2.3229 -0.6340
 1102SOL    HW3 4455   2.175   3.199   1.930 -0.8293 -1.1289  1.3268
 1102SOL    MW4 4456   2.245   3.236   1.966 -0.4091 -0.1891 -0.4026
 1103SOL     OW 4457   2.197   3.502   1.876  0.2479  0.1731  0.2033
 1103SOL    HW2 4458   2.213   3.416   1.915 -0.7980 -0.4196 -0.6777
 1103SOL    HW3 4459   2.116   3.532   1.916 -0.1317  0.1421 -0.5482
 1103SOL    MW4 4460   2.189   3.495   1.887  0.0601  0.0908 -0.0122
 1104SOL     OW 4461   2.443   3.624   1.969  0.0133 -0.2839 -0.0024
 1104SOL    HW2 4462   2.429   3.606   2.062 -0.8020  0.1522 -0.0407
 1104SOL    HW3 4463   2.355   3.621   1.930  0.1936  0.8686 -0.5196
 1104SOL    MW4 4464   2.429   3.621   1.976 -0.0708 -0.0744 -0.0757
 1105SOL     OW 4465   2.466   3.905   1.914  0.0111  0.0564 -0.0317
 1105SOL    HW2 4466   2.383   3.941   1.946 -0.6762  0.1262 -1.8224
 1105SOL    HW3 4467   2.463   3.813   1.940 -0.9117 -0.0875 -0.6155
 1105SOL    MW4 4468   2.455   3.898   1.922 -0.2015  0.0467 -0.3451
 1106SOL     OW 4469   2.228   4.017   2.004 -0.7688 -0.0669 -0.1258
 1106SOL    HW2 4470   2.232   4.010   2.100  0.3568  1.8793  0.0040
 1106SOL    HW3 4471   2.227   4.111   1.988  1.7615 -0.3571 -2.1413
 1106SOL    MW4 4472   2.228   4.029   2.015 -0.2866  0.1516 -0.3746
 1107SOL     OW 4473   2.253   4.294   1.920 -0.0089  0.1859  0.1969
 1107SOL    HW2 4474   2.329   4.346   1.947  0.8530 -1.0997  0.2711
 1107SOL    HW3 4475   2.258   4.292   1.824 -1.1900  1.9198  0.0633
 1107SOL    MW4 4476   2.264   4.301   1.911 -0.0513  0.2446  0.1891
 1108SOL     OW 4477   2.715   0.146   1.960 -0.4972  0.5063 -0.3518
 1108SOL    HW2 4478   2.711   0.138   2.055 -1.0436  0.0316 -0.4124
 1108SOL    HW3 4479   2.793   0.097   1.934 -1.2032 -0.6582 -0.2913
 1108SOL    MW4 4480   2.725   0.139   1.969 -0.6623  0.2901 -0.3518
 1109SOL     OW 4481   2.939   4.667   1.865 -0.3281 -0.8478 -0.1807
 1109SOL    HW2 4482   3.015   4.715   1.898 -1.6883  2.2747 -1.5002
 1109SOL    HW3 4483   2.943   4.583   1.912  1.9487  0.5796  2.3531
 1109SOL    MW4 4484   2.950   4.662   1.876 -0.2072 -0.2474 -0.0205
 1110SOL     OW 4485   2.491   4.640   2.355  0.2705  0.1657  0.0493
 1110SOL    HW2 4486   2.561   4.681   2.303  0.6567 -0.1433  0.3229
 1110SOL    HW3 4487   2.503   4.546   2.342  0.6545  0.0637  1.0564
 1110SOL    MW4 4488   2.502   4.633   2.347  0.3719  0.1121  0.2182
 1111SOL     OW 4489   2.670   0.377   1.610  0.1527 -1.1526  0.1984
 1111SOL    HW2 4490   2.746   0.430   1.586  0.1566 -1.3552 -0.2488
 1111SOL    HW3 4491   2.663   0.386   1.705  0.2780 -0.5217  0.1462
 1111SOL    MW4 4492   2.679   0.385   1.619  0.1700 -1.0961  0.1327
 1112SOL     OW 4493   2.951   0.534   1.939  0.1653  0.6592  0.2858
 1112SOL    HW2 4494   3.020   0.482   1.898  1.7258  2.4496  0.5550
 1112SOL    HW3 4495   2.951   0.616   1.889 -1.4618  0.8514  0.5874
 1112SOL    MW4 4496   2.960   0.538   1.927  0.1564  0.9208  0.3611
 1113SOL     OW 4497   2.954   0.780   1.840  0.3784  0.1138 -0.6380
 1113SOL    HW2 4498   3.025   0.828   1.882 -1.1070  2.0290 -0.2227
 1113SOL    HW3 4499   2.874   0.819   1.876 -0.8848 -2.8650 -0.1036
 1113SOL    MW4 4500   2.953   0.792   1.850  0.0157 -0.0265 -0.5125
 1114SOL     OW 4501   2.731   0.906   1.962  0.2861 -0.0278 -0.3260
 1114SOL    HW2 4502   2.733   1.000   1.948 -1.4749 -0.0130 -0.5319
 1114SOL    HW3 4503   2.647   0.877   1.926  0.7757 -1.6719 -0.2284
 1114SOL    MW4 4504   2.721   0.914   1.955  0.1185 -0.2428 -0.3402
 1115SOL     OW 4505   2.923   1.328   1.998 -0.0523 -0.0421 -0.4788
 1115SOL    HW2 4506   2.850   1.288   1.950  0.4618 -0.6993 -0.7301
 1115SOL    HW3 4507   2.932   1.415   1.961  0.1181 -0.4215 -1.3345
 1115SOL    MW4 4508   2.914   1.334   1.987  0.0381 -0.1788 -0.6249
 1116SOL     OW 4509   3.128   1.191   1.845  0.2720 -0.5550 -0.1641
 1116SOL    HW2 4510   3.211   1.217   1.887  0.4557 -1.0209 -0.2383
 1116SOL    HW3 4511   3.062   1.246   1.887  0.2025 -2.1728  1.9457
 1116SOL    MW4 4512   3.131   1.202   1.856  0.2871 -0.8299  0.1045
 1117SOL     OW 4513   2.954   1.570   1.860 -0.3138  0.2405 -0.1629
 1117SOL    HW2 4514   3.044   1.586   1.886 -0.0327  0.0176 -0.9873
 1117SOL    HW3 4515   2.957   1.559   1.765 -1.0623 -0.6935 -0.0953
 1117SOL    MW4 4516   2.966   1.570   1.851 -0.3755  0.0880 -0.2626
 1118SOL     OW 4517   2.718   1.680   1.963  0.2830 -0.8183  0.1240
 1118SOL    HW2 4518   2.797   1.640   1.926  0.0926 -1.6505  0.5948
 1118SOL    HW3 4519   2.647   1.622   1.933 -0.2000  0.1879 -0.6949
 1118SOL    MW4 4520   2.719   1.667   1.954  0.1943 -0.7955  0.0780
 1119SOL     OW 4521   2.679   1.925   1.827 -0.6688  0.1800  0.1966
 1119SOL    HW2 4522   2.769   1.956   1.815 -0.2329 -0.4536  1.6895
 1119SOL    HW3 4523   2.688   1.839   1.866 -1.9326  0.1571  0.4694
 1119SOL    MW4 4524   2.692   1.918   1.830 -0.7782  0.0933  0.4295
 1120SOL     OW 4525   2.907   2.052   1.950 -0.1121  0.1747  0.4029
 1120SOL    HW2 4526   2.895   2.045   2.045 -0.5398  0.0681  0.3387
 1120SOL    HW3 4527   2.994   2.015   1.934  0.0792  0.4471  0.7871
 1120SOL    MW4 4528   2.917   2.046   1.961 -0.1433  0.1962  0.4452
 1121SOL     OW 4529   2.890   2.311   1.856  0.0665  0.8364  0.1803
 1121SOL    HW2 4530   2.965   2.349   1.902  1.0126 -0.0488 -0.6199
 1121SOL    HW3 4531   2.885   2.221   1.888  0.3408  0.4040 -0.9706
 1121SOL    MW4 4532   2.899   2.304   1.866  0.2275  0.6626 -0.0772
 1122SOL     OW 4533   2.677   2.453   1.992 -0.3494  0.0763  0.1519
 1122SOL    HW2 4534   2.694   2.539   1.954 -0.6069  0.2684  0.4681
 1122SOL    HW3 4535   2.743   2.396   1.953 -0.6014  0.2747 -0.5729
 1122SOL    MW4 4536   2.688   2.457   1.982 -0.4165  0.1280  0.0981
 1123SOL     OW 4537   2.742   2.697   1.845 -0.9274  0.7068  0.4068
 1123SOL    HW2 4538   2.662   2.738   1.878 -0.7907  0.2316  1.3453
 1123SOL    HW3 4539   2.726   2.684   1.752 -2.6109 -0.9313  0.8919
 1123SOL    MW4 4540   2.729   2.701   1.837 -1.1315  0.4282  0.5946
 1124SOL     OW 4541   2.926   2.867   1.962 -0.5413 -0.2093 -0.1670
 1124SOL    HW2 4542   2.913   2.952   1.921  0.4400  0.0127 -0.0398
 1124SOL    HW3 4543   2.861   2.810   1.921 -0.4519  0.3298 -1.0694
 1124SOL    MW4 4544   2.916   2.871   1.951 -0.4001 -0.1090 -0.2693
 1125SOL     OW 4545   2.893   3.126   1.855  0.2208  0.1216 -0.7743
 1125SOL    HW2 4546   2.955   3.176   1.908  0.0227  1.2313 -1.5818
 1125SOL    HW3 4547   2.807   3.157   1.884 -0.0014 -1.7468  0.6752
 1125SOL    MW4 4548   2.890   3.137   1.866  0.1655  0.0215 -0.6895
 1126SOL     OW 4549   2.640   3.221   1.949  0.3329 -0.0167 -0.3444
 1126SOL    HW2 4550   2.650   3.301   1.897  1.4369  0.2598  0.2814
 1126SOL    HW3 4551   2.565   3.176   1.910 -0.5547  1.5304 -0.4371
 1126SOL    MW4 4552   2.631   3.225   1.937  0.3614  0.2239 -0.2741
 1127SOL     OW 4553   2.673   3.479   1.842 -0.0886 -0.0925  0.8042
 1127SOL    HW2 4554   2.737   3.532   1.888  0.3078 -0.1525  0.3145
 1127SOL    HW3 4555   2.588   3.514   1.870  0.1627  0.3750  0.9724
 1127SOL    MW4 4556   2.670   3.490   1.852 -0.0031 -0.0386  0.7617
 1128SOL     OW 4557   2.907   3.631   2.239  0.3423  0.1827  0.1357
 1128SOL    HW2 4558   2.920   3.723   2.264  2.3087  0.2497 -1.0680
 1128SOL    HW3 4559   2.972   3.583   2.292 -0.9261 -0.5782  1.0369
 1128SOL    MW4 4560   2.918   3.637   2.250  0.4342  0.0911  0.0961
 1129SOL     OW 4561   2.898   3.647   1.953  0.3446  0.3115 -0.0564
 1129SOL    HW2 4562   2.907   3.646   2.048  1.2170 -1.0292 -0.1307
 1129SOL    HW3 4563   2.978   3.605   1.921 -0.6608 -0.6893 -1.3051
 1129SOL    MW4 4564   2.910   3.641   1.961  0.3271  0.0026 -0.2309
 1130SOL     OW 4565   2.887   3.915   1.889 -0.0136  0.2372 -0.0799
 1130SOL    HW2 4566   2.892   3.820   1.897  1.6577  0.3564  0.4007
 1130SOL    HW3 4567   2.909   3.932   1.798  0.4874  0.2204  0.0387
 1130SOL    MW4 4568   2.890   3.905   1.878  0.2728  0.2508 -0.0007
 1131SOL     OW 4569   2.693   4.279   1.923  0.7470 -0.3319 -0.0092
 1131SOL    HW2 4570   2.683   4.194   1.966 -0.0899 -1.0219 -1.5050
 1131SOL    HW3 4571   2.671   4.261   1.832  0.5326  1.5077 -0.3246
 1131SOL    MW4 4572   2.688   4.265   1.917  0.6084 -0.1807 -0.2483
 1132SOL     OW 4573   2.931   4.409   1.982  0.2747 -0.0906 -0.0639
 1132SOL    HW2 4574   2.926   4.418   2.077  0.9769  1.0912 -0.1253
 1132SOL    HW3 4575   2.846   4.372   1.957  0.1692 -0.6137  1.0362
 1132SOL    MW4 4576   2.919   4.406   1.991  0.3536 -0.0038  0.0731
 1133SOL     OW 4577   3.355   4.351   1.988 -0.4634 -0.2141  0.1140
 1133SOL    HW2 4578   3.423   4.293   1.951 -1.3421 -2.5172  1.9768
 1133SOL    HW3 4579   3.275   4.326   1.941 -0.3991  1.2263 -0.7891
 1133SOL    MW4 4580   3.354   4.340   1.977 -0.5710 -0.3276  0.2408
 1134SOL     OW 4581   3.175   0.145   1.937  0.0769 -0.1122 -0.6299
 1134SOL    HW2 4582   3.248   0.085   1.918  1.2090  0.8037  0.6844
 1134SOL    HW3 4583   3.166   0.141   2.032 -1.1807  0.2711 -0.7341
 1134SOL    MW4 4584   3.184   0.137   1.947  0.0603  0.0593 -0.4702
 1135SOL     OW 4585   3.123   0.430   1.622 -0.1375 -0.0706  0.1386
 1135SOL    HW2 4586   3.131   0.343   1.584 -0.8106 -0.3140  0.5539
 1135SOL    HW3 4587   3.043   0.466   1.585 -1.0960 -0.5167  1.7146
 1135SOL    MW4 4588   3.113   0.424   1.612 -0.3526 -0.1616  0.4013
 1136SOL     OW 4589   3.210   0.417   1.893 -0.0374 -0.2721 -0.2716
 1136SOL    HW2 4590   3.199   0.322   1.903 -2.1289 -0.1329 -0.9502
 1136SOL    HW3 4591   3.204   0.432   1.798  0.5719  0.5125 -0.1900
 1136SOL    MW4 4592   3.208   0.406   1.882 -0.2329 -0.1502 -0.3504
 1137SOL     OW 4593   3.412   0.782   1.858 -0.0626 -0.1826  0.0070
 1137SOL    HW2 4594   3.332   0.831   1.874  0.7152  0.6264  1.5491
 1137SOL    HW3 4595   3.405   0.705   1.915 -0.0439 -0.4626 -0.3655
 1137SOL    MW4 4596   3.401   0.778   1.867  0.0422 -0.1128  0.1614
 1138SOL     OW 4597   3.180   0.914   1.923 -0.4181 -0.5987  0.0839
 1138SOL    HW2 4598   3.173   0.899   2.017 -1.6680 -0.7740 -0.0320
 1138SOL    HW3 4599   3.155   1.005   1.911 -0.0083 -0.5020 -0.0566
 1138SOL    MW4 4600   3.176   0.924   1.934 -0.5288 -0.6091  0.0501
 1139SOL     OW 4601   3.347   1.286   1.979 -0.1501 -0.1626  0.0698
 1139SOL    HW2 4602   3.379   1.292   2.069 -0.0505  0.0034  0.0243
 1139SOL    HW3 4603   3.375   1.368   1.938  0.6384 -0.6446 -0.3758
 1139SOL    MW4 4604   3.355   1.297   1.985 -0.0331 -0.2043  0.0051
 1140SOL     OW 4605   3.582   1.148   1.893  0.3554 -0.0404  0.1638
 1140SOL    HW2 4606   3.501   1.189   1.923  1.0999  1.3843  0.2544
 1140SOL    HW3 4607   3.587   1.168   1.800  0.1009 -0.9865 -0.0575
 1140SOL    MW4 4608   3.572   1.156   1.885  0.4201  0.0226  0.1465
 1141SOL     OW 4609   3.409   1.517   1.851 -0.0835 -0.4885 -0.3594
 1141SOL    HW2 4610   3.488   1.569   1.865 -0.3383 -0.0191 -0.6689
 1141SOL    HW3 4611   3.338   1.571   1.887 -0.3653 -0.5705 -0.7950
 1141SOL    MW4 4612   3.410   1.531   1.858 -0.1543 -0.4375 -0.4578
 1142SOL     OW 4613   3.205   1.654   1.964  0.2415  0.3708 -0.2215
 1142SOL    HW2 4614   3.193   1.666   2.059 -2.8623  0.2683 -0.5590
 1142SOL    HW3 4615   3.211   1.743   1.929 -0.5888  0.4420 -0.1716
 1142SOL    MW4 4616   3.205   1.668   1.972 -0.2775  0.3666 -0.2593
 1143SOL     OW 4617   3.152   1.916   1.887  0.1547 -0.2371 -0.4627
 1143SOL    HW2 4618   3.227   1.967   1.915 -1.8544  2.4112  0.3484
 1143SOL    HW3 4619   3.150   1.926   1.792  0.3462  0.4082 -0.4021
 1143SOL    MW4 4620   3.161   1.924   1.878 -0.0854  0.1975 -0.3476
 1144SOL     OW 4621   3.393   2.040   1.962  0.1050 -0.4010 -0.2512
 1144SOL    HW2 4622   3.471   1.995   1.932  1.0666  0.6780  0.5811
 1144SOL    HW3 4623   3.407   2.132   1.937 -0.3581  0.0076  0.9432
 1144SOL    MW4 4624   3.405   2.046   1.955  0.1707 -0.2048  0.0162
 1145SOL     OW 4625   3.387   2.302   1.888  0.0721  0.8153 -0.2634
 1145SOL    HW2 4626   3.294   2.325   1.896  0.0953  1.5963 -1.8203
 1145SOL    HW3 4627   3.403   2.303   1.793  1.2088 -1.2397 -0.1120
 1145SOL    MW4 4628   3.377   2.305   1.876  0.2251  0.6473 -0.4488
 1146SOL     OW 4629   3.117   2.440   1.945 -0.0548  0.3518  0.3412
 1146SOL    HW2 4630   3.120   2.433   2.041 -1.0264 -0.1061  0.3444
 1146SOL    HW3 4631   3.123   2.534   1.928 -0.2796  0.4663  0.8708
 1146SOL    MW4 4632   3.119   2.451   1.956 -0.2127  0.3064  0.4115
 1147SOL     OW 4633   3.144   2.705   1.856 -0.2283 -0.1777 -0.1278
 1147SOL    HW2 4634   3.071   2.765   1.873  1.2724  1.7810 -0.3799
 1147SOL    HW3 4635   3.152   2.704   1.760  0.0217 -0.4610 -0.1048
 1147SOL    MW4 4636   3.136   2.713   1.845  0.0029  0.0432 -0.1581
 1148SOL     OW 4637   3.366   2.819   1.966  0.2204  0.3023 -0.1772
 1148SOL    HW2 4638   3.378   2.818   2.061  0.6567 -0.3153 -0.2369
 1148SOL    HW3 4639   3.297   2.756   1.949 -0.7314  1.3316 -0.1589
 1148SOL    MW4 4640   3.359   2.811   1.976  0.1523  0.3567 -0.1827
 1149SOL     OW 4641   3.342   3.086   1.858 -0.1372  0.4014 -0.2934
 1149SOL    HW2 4642   3.431   3.111   1.879  0.2587 -1.0463 -0.2138
 1149SOL    HW3 4643   3.333   2.996   1.890 -0.7433 -0.4587 -2.7569
 1149SOL    MW4 4644   3.352   3.078   1.865 -0.1652  0.0970 -0.6080
 1150SOL     OW 4645   3.155   3.220   1.996 -0.2999 -0.1190  0.1929
 1150SOL    HW2 4646   3.166   3.311   1.967  0.1032 -0.1834  0.1382
 1150SOL    HW3 4647   3.226   3.172   1.954 -0.5765 -0.4828  0.1342
 1150SOL    MW4 4648   3.166   3.226   1.987 -0.2835 -0.1755  0.1780
 1151SOL     OW 4649   3.122   3.482   1.899  0.1226  0.0041  0.0387
 1151SOL    HW2 4650   3.201   3.523   1.932  0.0776  1.3939 -1.4866
 1151SOL    HW3 4651   3.128   3.493   1.804 -1.3998 -0.7904 -0.1630
 1151SOL    MW4 4652   3.133   3.489   1.890 -0.0842  0.0825 -0.1891
 1152SOL     OW 4653   3.343   3.602   2.010 -0.0446  0.3282  0.3030
 1152SOL    HW2 4654   3.344   3.687   1.966  2.3981  0.8039  1.2278
 1152SOL    HW3 4655   3.422   3.558   1.979 -1.3272 -1.6521 -0.2125
 1152SOL    MW4 4656   3.353   3.608   2.000  0.1085  0.1299  0.3568
 1153SOL     OW 4657   3.343   3.878   1.893 -0.0530 -0.1941 -0.2720
 1153SOL    HW2 4658   3.270   3.925   1.934 -0.4300  0.2001 -1.3735
 1153SOL    HW3 4659   3.332   3.893   1.799  0.3383 -1.7354 -0.5905
 1153SOL    MW4 4660   3.332   3.886   1.886 -0.0510 -0.3455 -0.4594
 1154SOL     OW 4661   3.131   4.014   2.026  0.0638 -0.1998 -0.1165
 1154SOL    HW2 4662   3.139   4.025   2.121 -0.7348 -2.7401  0.2738
 1154SOL    HW3 4663   3.040   3.990   2.012 -0.2058  1.6304 -1.7237
 1154SOL    MW4 4664   3.120   4.013   2.037 -0.0770 -0.2937 -0.2770
 1155SOL     OW 4665   3.130   4.251   1.878  0.2253 -0.1243  0.0738
 1155SOL    HW2 4666   3.141   4.168   1.924  0.6879 -0.3496 -0.4387
 1155SOL    HW3 4667   3.058   4.294   1.923  0.6161 -0.3823  0.9515
 1155SOL    MW4 4668   3.122   4.246   1.890  0.3378 -0.1879  0.1220
 1156SOL     OW 4669   3.393   4.378   2.260 -0.0857 -0.4858 -0.2036
 1156SOL    HW2 4670   3.390   4.472   2.280 -0.4809 -0.3760 -0.7829
 1156SOL    HW3 4671   3.374   4.372   2.167  0.6001 -1.0955 -0.3091
 1156SOL    MW4 4672   3.390   4.389   2.251 -0.0474 -0.5517 -0.2940
 1157SOL     OW 4673   3.822   4.659   1.898 -0.0838  0.1489  0.3569
 1157SOL    HW2 4674   3.821   4.581   1.954  0.6573  0.3840  0.7035
 1157SOL    HW3 4675   3.736   4.698   1.911 -0.1992 -0.2205  0.7421
 1157SOL    MW4 4676   3.811   4.654   1.907 -0.0010  0.1311  0.4535
 1158SOL     OW 4677   3.594   0.137   1.986  0.0172  0.0373  0.0643
 1158SOL    HW2 4678   3.609   0.134   2.080  1.9849 -0.0497 -0.2307
 1158SOL    HW3 4679   3.515   0.084   1.972  0.3003 -0.7897  1.5421
 1158SOL    MW4 4680   3.586   0.129   1.997  0.3142 -0.0833  0.2203
 1159SOL     OW 4681   3.394   0.563   2.037 -0.2382  0.1195 -0.0626
 1159SOL    HW2 4682   3.478   0.530   2.006 -0.2624  1.4308 -1.6131
 1159SOL    HW3 4683   3.329   0.502   2.001  0.0456 -1.0120  1.3103
 1159SOL    MW4 4684   3.396   0.551   2.028 -0.2041  0.1432 -0.0861
 1160SOL     OW 4685   3.603   0.417   1.910 -0.5408  0.1646 -0.3594
 1160SOL    HW2 4686   3.590   0.427   1.816  1.4420  0.6660 -0.5932
 1160SOL    HW3 4687   3.598   0.322   1.925  1.6492 -0.1426 -1.3819
 1160SOL    MW4 4688   3.601   0.406   1.900  0.0098  0.1902 -0.5251
 1161SOL     OW 4689   3.838   0.794   1.584 -0.0174 -0.0941 -0.3834
 1161SOL    HW2 4690   3.756   0.837   1.560 -0.0600 -0.7191 -1.4225
 1161SOL    HW3 4691   3.820   0.701   1.574  0.4490 -0.2987  0.6072
 1161SOL    MW4 4692   3.825   0.787   1.579  0.0386 -0.2035 -0.3897
 1162SOL     OW 4693   3.636   0.903   1.992  0.0904  0.2210  0.2128
 1162SOL    HW2 4694   3.615   0.988   1.954  0.2114 -0.1664 -0.7329
 1162SOL    HW3 4695   3.567   0.845   1.960  1.1796 -0.5028 -0.8801
 1162SOL    MW4 4696   3.624   0.906   1.983  0.2499  0.0744 -0.0561
 1163SOL     OW 4697   3.842   1.262   1.962 -0.4091 -0.0568 -0.1321
 1163SOL    HW2 4698   3.830   1.289   2.053 -0.6834  0.3328 -0.2819
 1163SOL    HW3 4699   3.763   1.213   1.941  0.2308 -1.2689  0.2380
 1163SOL    MW4 4700   3.830   1.259   1.971 -0.3610 -0.1652 -0.1031
 1164SOL     OW 4701   4.078   0.880   2.020  0.0200 -0.0475 -0.5045
 1164SOL    HW2 4702   4.013   0.845   1.960  0.6514 -0.2911 -1.0574
 1164SOL    HW3 4703   4.160   0.838   1.994  0.5910  1.0064 -0.4801
 1164SOL    MW4 4704   4.080   0.870   2.009  0.1793  0.0594 -0.5744
 1165SOL     OW 4705   3.850   1.527   1.870  0.0271 -0.3629 -0.0945
 1165SOL    HW2 4706   3.915   1.586   1.908  1.4270  0.3195 -3.3883
 1165SOL    HW3 4707   3.876   1.440   1.899  1.0823  0.1093  0.4025
 1165SOL    MW4 4708   3.862   1.523   1.879  0.3510 -0.2105 -0.4636
 1166SOL     OW 4709   3.624   1.652   1.963  0.0275  0.3081  0.0426
 1166SOL    HW2 4710   3.645   1.741   1.936 -0.2043 -0.2992 -2.2422
 1166SOL    HW3 4711   3.695   1.599   1.927 -0.3620 -0.5468  0.5212
 1166SOL    MW4 4712   3.636   1.657   1.954 -0.0546  0.1152 -0.1957
 1167SOL     OW 4713   3.620   1.905   1.863 -0.0231  0.2607  0.1735
 1167SOL    HW2 4714   3.685   1.970   1.889  0.5528 -0.6425  1.0688
 1167SOL    HW3 4715   3.636   1.890   1.770 -0.3091  1.5511 -0.0874
 1167SOL    MW4 4716   3.631   1.911   1.854  0.0153  0.3117  0.2574
 1168SOL     OW 4717   3.820   2.076   1.944  0.6580 -0.4914 -0.0836
 1168SOL    HW2 4718   3.898   2.030   1.912  1.4917  0.4409  0.5500
 1168SOL    HW3 4719   3.838   2.169   1.927 -0.6299 -0.3250 -0.5731
 1168SOL    MW4 4720   3.833   2.083   1.938  0.5980 -0.3464 -0.0644
 1169SOL     OW 4721   3.583   2.467   1.991  0.2397 -0.2338 -0.3659
 1169SOL    HW2 4722   3.505   2.425   1.956  0.2074 -1.0084  0.6132
 1169SOL    HW3 4723   3.585   2.553   1.950 -1.5211  0.0642  0.1527
 1169SOL    MW4 4724   3.573   2.473   1.981  0.0029 -0.2966 -0.1683
 1170SOL     OW 4725   3.623   2.447   2.271  0.0462 -0.4155 -0.5265
 1170SOL    HW2 4726   3.621   2.463   2.176 -0.2409  0.3072 -0.4016
 1170SOL    HW3 4727   3.534   2.419   2.292 -0.0325 -0.0599 -0.3837
 1170SOL    MW4 4728   3.611   2.446   2.261 -0.0021 -0.2730 -0.4914
 1171SOL     OW 4729   3.591   2.710   1.873  0.6019 -0.2436 -0.1012
 1171SOL    HW2 4730   3.662   2.759   1.914  1.0635 -0.6349 -0.4363
 1171SOL    HW3 4731   3.511   2.753   1.904  0.9690 -0.0963  0.6479
 1171SOL    MW4 4732   3.590   2.722   1.882  0.7112 -0.2761 -0.0466
 1172SOL     OW 4733   3.802   2.839   1.986  0.3203 -0.1639 -0.6928
 1172SOL    HW2 4734   3.814   2.832   2.081 -0.9370 -0.8594 -0.5753
 1172SOL    HW3 4735   3.812   2.932   1.968 -0.9835  0.2023  0.3645
 1172SOL    MW4 4736   3.805   2.850   1.996 -0.0176 -0.2072 -0.5379
 1173SOL     OW 4737   3.847   3.100   1.880  0.1517  0.2424 -0.3363
 1173SOL    HW2 4738   3.850   3.089   1.785 -0.4561 -1.3116 -0.1942
 1173SOL    HW3 4739   3.761   3.140   1.897 -0.3495 -0.8138 -0.3352
 1173SOL    MW4 4740   3.836   3.104   1.870  0.0057 -0.1020 -0.3175
 1174SOL     OW 4741   3.592   3.183   1.947 -0.1806  0.1938  0.7163
 1174SOL    HW2 4742   3.571   3.165   2.039 -1.0181  0.3184  0.5542
 1174SOL    HW3 4743   3.591   3.279   1.941 -1.4206  0.1649  0.2930
 1174SOL    MW4 4744   3.589   3.193   1.959 -0.4547  0.2065  0.6390
 1175SOL     OW 4745   3.565   3.454   1.911  0.1143 -0.0484 -0.0977
 1175SOL    HW2 4746   3.651   3.493   1.924  0.5043 -0.3991 -1.5183
 1175SOL    HW3 4747   3.554   3.452   1.816 -2.0661  1.3369  0.0892
 1175SOL    MW4 4748   3.575   3.459   1.900 -0.1218  0.0880 -0.2606
 1176SOL     OW 4749   3.809   3.584   1.957 -0.4145 -1.0101 -0.2642
 1176SOL    HW2 4750   3.894   3.548   1.935  0.4755  0.1453  1.1790
 1176SOL    HW3 4751   3.816   3.677   1.934 -0.9701 -0.7287  0.6839
 1176SOL    MW4 4752   3.821   3.592   1.951 -0.3703 -0.8204  0.0513
 1177SOL     OW 4753   3.807   3.856   1.855 -0.1370  0.3511  0.5555
 1177SOL    HW2 4754   3.725   3.884   1.896  0.1042  3.0258 -0.6544
 1177SOL    HW3 4755   3.788   3.853   1.761  1.0168  0.6156  0.2936
 1177SOL    MW4 4756   3.794   3.859   1.848  0.0470  0.7391  0.3613
 1178SOL     OW 4757   3.594   3.974   2.017  0.1750 -1.0200  0.0556
 1178SOL    HW2 4758   3.569   3.989   2.108  0.1864  0.4384 -0.1717
 1178SOL    HW3 4759   3.514   3.943   1.975  0.3499 -2.3811  0.7112
 1178SOL    MW4 4760   3.580   3.972   2.024  0.1998 -1.0071  0.1123
 1179SOL     OW 4761   3.584   4.216   1.903  0.2963 -0.3623  0.2982
 1179SOL    HW2 4762   3.649   4.276   1.940  0.9750 -0.8187 -0.1419
 1179SOL    HW3 4763   3.595   4.135   1.952  0.4364 -0.6141 -0.1450
 1179SOL    MW4 4764   3.594   4.213   1.915  0.4041 -0.4559  0.1816
 1180SOL     OW 4765   3.780   4.401   2.000  0.0745 -0.1547 -0.2354
 1180SOL    HW2 4766   3.801   4.382   2.092 -0.0927 -0.8673 -0.3444
 1180SOL    HW3 4767   3.857   4.372   1.952 -0.4514 -1.1832 -0.4671
 1180SOL    MW4 4768   3.793   4.395   2.006 -0.0169 -0.3848 -0.2804
 1181SOL     OW 4769   4.246   0.026   1.851 -0.4295 -0.1329  0.0388
 1181SOL    HW2 4770   4.189   0.098   1.879  0.3780  0.4851  0.1121
 1181SOL    HW3 4771   4.328   0.040   1.898  0.0286 -0.5996 -0.6065
 1181SOL    MW4 4772   4.249   0.037   1.861 -0.2627 -0.1129 -0.0367
 1182SOL     OW 4773   4.016   0.177   1.972 -0.1829  0.2819  0.0457
 1182SOL    HW2 4774   4.018   0.162   2.067 -0.7846  0.4785  0.0894
 1182SOL    HW3 4775   3.954   0.111   1.939 -0.8638  0.9802 -0.0744
 1182SOL    MW4 4776   4.008   0.166   1.980 -0.3514  0.4000  0.0355
 1183SOL     OW 4777   4.025   0.443   1.882  0.0198 -0.7231 -0.4347
 1183SOL    HW2 4778   4.016   0.355   1.921 -1.6101 -0.8880 -1.1547
 1183SOL    HW3 4779   3.959   0.496   1.927 -1.4178 -0.7423 -2.4388
 1183SOL    MW4 4780   4.015   0.438   1.893 -0.3853 -0.7474 -0.7942
 1184SOL     OW 4781   4.266   0.471   2.003 -0.0661  0.3915 -0.2815
 1184SOL    HW2 4782   4.252   0.481   2.097  0.3135 -0.6780 -0.1097
 1184SOL    HW3 4783   4.185   0.431   1.971 -0.0582  0.4308 -0.3504
 1184SOL    MW4 4784   4.253   0.467   2.011 -0.0148  0.2556 -0.2680
 1185SOL     OW 4785   0.008   0.882   1.968 -0.0174 -0.3345  0.5359
 1185SOL    HW2 4786  -0.063   0.822   1.944  1.0069 -1.2158 -0.3219
 1185SOL    HW3 4787   0.082   0.855   1.913  0.9701  0.6066  1.3884
 1185SOL    MW4 4788   0.009   0.871   1.957  0.2484 -0.3267  0.5351
 1186SOL     OW 4789   3.853   0.826   1.870  0.2344  0.3374  0.1293
 1186SOL    HW2 4790   3.831   0.830   1.777  0.1237  1.9118  0.2050
 1186SOL    HW3 4791   3.773   0.853   1.915  0.3990 -0.0650  0.6619
 1186SOL    MW4 4792   3.840   0.830   1.864  0.2415  0.4920  0.2095
 1187SOL     OW 4793   4.283   0.727   1.901 -0.5669 -0.3221 -0.1001
 1187SOL    HW2 4794   4.274   0.715   1.806 -0.4105 -0.9779 -0.0328
 1187SOL    HW3 4795   4.282   0.638   1.937 -2.4124 -0.0012  0.6774
 1187SOL    MW4 4796   4.282   0.713   1.893 -0.7892 -0.3663  0.0112
 1188SOL     OW 4797   4.072   1.135   1.901  0.1969 -0.1431 -0.6150
 1188SOL    HW2 4798   3.990   1.176   1.931  1.5834  2.8096 -0.6500
 1188SOL    HW3 4799   4.070   1.048   1.940 -1.8893  0.6999  1.3326
 1188SOL    MW4 4800   4.061   1.129   1.910  0.1044  0.3576 -0.3625
 1189SOL     OW 4801   4.317   1.272   1.962 -0.3648 -0.3743  0.1187
 1189SOL    HW2 4802   4.245   1.212   1.941 -0.4750 -0.1429 -0.1543
 1189SOL    HW3 4803   4.318   1.275   2.058 -0.0330 -1.2163  0.1448
 1189SOL    MW4 4804   4.308   1.264   1.972 -0.3357 -0.4548  0.0861
 1190SOL     OW 4805   4.090   1.684   1.954 -0.3219 -0.0993 -0.3220
 1190SOL    HW2 4806   4.079   1.678   2.049 -0.4125  0.3604 -0.2994
 1190SOL    HW3 4807   4.165   1.629   1.934  0.1365  0.3709  0.1045
 1190SOL    MW4 4808   4.098   1.676   1.964 -0.2737  0.0236 -0.2627
 1191SOL     OW 4809   4.049   1.951   1.866  0.1892 -0.0195 -0.0690
 1191SOL    HW2 4810   4.060   1.857   1.875 -1.1397 -0.2049 -0.1643
 1191SOL    HW3 4811   4.068   1.969   1.774 -1.7334 -0.5539 -0.5973
 1191SOL    MW4 4812   4.053   1.941   1.855 -0.2394 -0.1144 -0.1510
 1192SOL     OW 4813   4.260   2.051   2.019  0.2112  0.0570  0.0438
 1192SOL    HW2 4814   4.256   2.023   2.110  1.2579 -0.2590 -0.0090
 1192SOL    HW3 4815   4.180   2.014   1.980 -0.1458  0.0361  0.7792
 1192SOL    MW4 4816   4.249   2.042   2.026  0.3023  0.0124  0.1340
 1193SOL     OW 4817   4.211   2.291   1.904  0.0739 -0.1151  0.4317
 1193SOL    HW2 4818   4.209   2.209   1.954 -1.6306 -0.1605  0.3064
 1193SOL    HW3 4819   4.295   2.331   1.927 -0.4914 -0.3486  2.9649
 1193SOL    MW4 4820   4.222   2.285   1.913 -0.2260 -0.1519  0.7492
 1194SOL     OW 4821   4.043   2.468   2.007 -0.2602  0.6891  0.3559
 1194SOL    HW2 4822   4.049   2.482   2.102 -0.1804  1.7677  0.1961
 1194SOL    HW3 4823   4.115   2.408   1.987  0.1002  0.9446  0.8806
 1194SOL    MW4 4824   4.053   2.462   2.017 -0.2027  0.8650  0.4044
 1195SOL     OW 4825   4.043   2.711   1.875  0.1575  0.2865  0.6830
 1195SOL    HW2 4826   4.061   2.627   1.917 -1.1077 -0.6418 -0.6119
 1195SOL    HW3 4827   3.965   2.744   1.920 -0.1883  0.0908  0.2310
 1195SOL    MW4 4828   4.035   2.704   1.887 -0.0553  0.1383  0.4524
 1196SOL     OW 4829   4.275   2.857   1.958 -0.0007  0.4846  0.1252
 1196SOL    HW2 4830   4.265   2.857   2.053  1.7948 -1.3797  0.3356
 1196SOL    HW3 4831   4.192   2.822   1.926 -0.7945  1.5497  0.9679
 1196SOL    MW4 4832   4.262   2.852   1.966  0.1316  0.3788  0.2642
 1197SOL     OW 4833   4.250   3.119   1.863 -0.1712  0.0486 -0.1756
 1197SOL    HW2 4834   4.182   3.159   1.917  0.3292 -0.0425  0.5388
 1197SOL    HW3 4835   4.254   3.028   1.892  0.5750  0.1686  0.1322
 1197SOL    MW4 4836   4.242   3.112   1.874 -0.0067  0.0525 -0.0407
 1198SOL     OW 4837   4.048   3.247   2.023  0.1450  0.3219 -0.9910
 1198SOL    HW2 4838   4.058   3.236   2.118  0.8730  1.7550 -0.8916
 1198SOL    HW3 4839   3.963   3.207   2.003  0.9835 -2.0053 -0.0952
 1198SOL    MW4 4840   4.038   3.240   2.033  0.3514  0.2041 -0.8595
 1199SOL     OW 4841   4.056   3.471   1.884  0.4544 -0.3685 -0.5402
 1199SOL    HW2 4842   4.134   3.517   1.915 -0.6521  1.3336 -0.1909
 1199SOL    HW3 4843   4.052   3.390   1.935  0.6924  0.6635  1.1232
 1199SOL    MW4 4844   4.065   3.466   1.895  0.3400 -0.0076 -0.2745
 1200SOL     OW 4845   4.259   3.614   2.001  0.0055  0.2558  0.3150
 1200SOL    HW2 4846   4.263   3.709   1.990  0.6692  0.5400  2.6177
 1200SOL    HW3 4847   4.324   3.580   1.941 -0.3145  1.2522 -0.6161
 1200SOL    MW4 4848   4.268   3.622   1.992  0.0510  0.4249  0.4959
 1201SOL     OW 4849   4.266   3.877   1.905  0.1225  0.1398  0.0791
 1201SOL    HW2 4850   4.330   3.943   1.929  0.6322 -0.5355  0.5878
 1201SOL    HW3 4851   4.264   3.879   1.809  0.2069  0.8110  0.0885
 1201SOL    MW4 4852   4.274   3.886   1.895  0.2007  0.1392  0.1476
 1202SOL     OW 4853   4.022   4.038   1.949  0.1635 -0.2190  0.3840
 1202SOL    HW2 4854   4.102   3.986   1.936  0.1780 -0.7130  2.2561
 1202SOL    HW3 4855   3.957   3.995   1.895  0.3084 -1.9322  1.5164
 1202SOL    MW4 4856   4.024   4.026   1.940  0.1850 -0.5097  0.7805
 1203SOL     OW 4857   4.012   4.319   1.877 -0.1004  0.1476 -0.1566
 1203SOL    HW2 4858   4.099   4.351   1.900 -1.0501  2.6018  0.1989
 1203SOL    HW3 4859   4.011   4.229   1.908  1.9519  0.4170  0.7896
 1203SOL    MW4 4860   4.023   4.311   1.884  0.0448  0.5069  0.0153
 1204SOL     OW 4861   4.258   4.447   1.965  0.1700  0.7267 -0.2067
 1204SOL    HW2 4862   4.252   4.434   2.060  0.1780 -1.4766 -0.4896
 1204SOL    HW3 4863   4.228   4.538   1.952 -1.5746  0.4820  1.7208
 1204SOL    MW4 4864   4.253   4.458   1.976 -0.0591  0.4034  0.0104
 1205SOL     OW 4865   0.459   0.132   2.287 -0.3610  0.0362 -0.5482
 1205SOL    HW2 4866   0.524   0.070   2.318 -0.8269  0.6468  1.7023
 1205SOL    HW3 4867   0.473   0.136   2.192  0.2605 -2.8086 -0.6112
 1205SOL    MW4 4868   0.469   0.124   2.278 -0.3405 -0.2586 -0.2596
 1206SOL     OW 4869   0.212   4.650   2.350 -0.1918  0.5770 -0.5518
 1206SOL    HW2 4870   0.211   4.655   2.445 -1.6878 -0.4628 -0.4876
 1206SOL    HW3 4871   0.289   4.701   2.324 -0.1472  1.4336  1.1657
 1206SOL    MW4 4872   0.222   4.657   2.359 -0.3833  0.5527 -0.3169
 1207SOL     OW 4873   0.003   0.361   2.377 -0.2904  0.6203 -0.1653
 1207SOL    HW2 4874   0.080   0.394   2.331  0.3415  0.7320  0.9630
 1207SOL    HW3 4875   0.001   0.268   2.354  0.9636  0.3222  0.8638
 1207SOL    MW4 4876   0.013   0.353   2.368 -0.0415  0.5957  0.1192
 1208SOL     OW 4877   0.194   0.486   1.965 -0.0828 -0.7309  0.0346
 1208SOL    HW2 4878   0.281   0.451   1.944  0.1779  0.3152 -0.6204
 1208SOL    HW3 4879   0.195   0.576   1.933 -2.3325 -1.5159 -2.4820
 1208SOL    MW4 4880   0.205   0.493   1.958 -0.3452 -0.6965 -0.3839
 1209SOL     OW 4881   0.208   0.761   2.340 -0.5460 -0.3211  0.2273
 1209SOL    HW2 4882   0.215   0.755   2.435  0.5269  0.3729  0.2005
 1209SOL    HW3 4883   0.212   0.670   2.310  0.3297 -0.4670  0.7735
 1209SOL    MW4 4884   0.209   0.748   2.348 -0.2889 -0.2488  0.2961
 1210SOL     OW 4885   4.253   0.497   2.304  0.7123 -0.3487  0.2780
 1210SOL    HW2 4886   4.331   0.443   2.319  0.6824 -0.0631  1.4941
 1210SOL    HW3 4887   4.273   0.580   2.347 -0.4829 -0.4640  1.0837
 1210SOL    MW4 4888   4.266   0.501   2.311  0.5512 -0.3262  0.5445
 1211SOL     OW 4889   0.016   1.141   2.366  0.4019  0.3991 -0.2408
 1211SOL    HW2 4890  -0.012   1.130   2.457 -1.0198  0.0096 -0.7106
 1211SOL    HW3 4891   0.005   1.054   2.326  0.0215  0.8015 -1.0400
 1211SOL    MW4 4892   0.011   1.128   2.372  0.1645  0.4007 -0.4084
 1212SOL     OW 4893   0.247   1.294   2.317  0.4340  0.4555 -0.1276
 1212SOL    HW2 4894   0.173   1.237   2.339  0.6021 -0.0387 -0.8289
 1212SOL    HW3 4895   0.245   1.300   2.222  3.3591 -2.3910 -0.4669
 1212SOL    MW4 4896   0.237   1.287   2.307  0.8421  0.0148 -0.2649
 1213SOL     OW 4897   0.266   1.547   2.408  0.2387  0.0261  0.0477
 1213SOL    HW2 4898   0.258   1.533   2.503  1.5891  0.0903  0.1884
 1213SOL    HW3 4899   0.261   1.459   2.371 -1.1117  0.0756  0.1097
 1213SOL    MW4 4900   0.265   1.533   2.416  0.2387  0.0412  0.0749
 1214SOL     OW 4901   0.080   1.694   2.263 -0.4159 -0.7463  0.2169
 1214SOL    HW2 4902   0.078   1.782   2.301 -0.5380 -0.1923 -1.0379
 1214SOL    HW3 4903   0.143   1.647   2.316  0.3587  0.3803  0.3242
 1214SOL    MW4 4904   0.088   1.700   2.275 -0.3298 -0.5245  0.0656
 1215SOL     OW 4905   0.026   1.920   2.420 -0.2655 -0.3436  0.0407
 1215SOL    HW2 4906  -0.049   1.959   2.374 -0.9302  1.4157  2.5004
 1215SOL    HW3 4907   0.099   1.978   2.399 -0.1505 -0.6232 -0.3295
 1215SOL    MW4 4908   0.026   1.933   2.411 -0.3376 -0.1484  0.3164
 1216SOL     OW 4909   0.253   2.029   2.298  0.0839  0.3871  0.2904
 1216SOL    HW2 4910   0.338   1.999   2.333  0.9135  1.6318 -0.6150
 1216SOL    HW3 4911   0.256   2.005   2.206 -0.9328 -0.3383  0.4402
 1216SOL    MW4 4912   0.265   2.022   2.291  0.0592  0.4556  0.1907
 1217SOL     OW 4913   0.249   2.294   2.374  0.5318  0.6281  0.1380
 1217SOL    HW2 4914   0.249   2.283   2.469 -0.3064 -0.4345  0.0165
 1217SOL    HW3 4915   0.261   2.206   2.339  0.0648  0.9129 -0.7587
 1217SOL    MW4 4916   0.251   2.281   2.382  0.3596  0.5255  0.0038
 1218SOL     OW 4917   0.009   2.397   2.298  0.5391 -0.4562 -0.2438
 1218SOL    HW2 4918   0.009   2.485   2.334 -0.5265 -0.2836 -0.6498
 1218SOL    HW3 4919   0.092   2.359   2.326  0.8733  0.5788  0.1653
 1218SOL    MW4 4920   0.020   2.403   2.306  0.4420 -0.2968 -0.2434
 1219SOL     OW 4921   4.469   2.660   2.380 -0.4377  0.4083  0.1095
 1219SOL    HW2 4922   4.452   2.658   2.474  0.2463  0.0475  0.2246
 1219SOL    HW3 4923   4.557   2.695   2.373 -0.6017  0.7204 -0.4155
 1219SOL    MW4 4924   4.478   2.665   2.391 -0.3691  0.4017  0.0553
 1220SOL     OW 4925   0.209   2.832   2.297 -0.1097 -0.3188  0.5599
 1220SOL    HW2 4926   0.301   2.826   2.322  0.0054  0.5981  0.3699
 1220SOL    HW3 4927   0.211   2.837   2.201 -0.3508 -0.1664  0.5626
 1220SOL    MW4 4928   0.222   2.832   2.287 -0.1263 -0.1776  0.5352
 1221SOL     OW 4929   0.183   3.099   2.373 -0.1450 -0.2922  0.1822
 1221SOL    HW2 4930   0.103   3.138   2.336  0.1445 -0.3981 -0.5800
 1221SOL    HW3 4931   0.176   3.006   2.351 -0.3642 -0.5040  1.1352
 1221SOL    MW4 4932   0.171   3.092   2.365 -0.1357 -0.3340  0.2072
 1222SOL     OW 4933   4.442   3.224   2.276 -0.1657 -0.0181 -0.5893
 1222SOL    HW2 4934   4.421   3.220   2.182  0.6685  0.0197 -0.7795
 1222SOL    HW3 4935   4.486   3.308   2.288  0.6057 -0.4490 -0.3484
 1222SOL    MW4 4936   4.445   3.234   2.265  0.0458 -0.0699 -0.5827
 1223SOL     OW 4937   4.488   3.499   2.357 -0.1023  0.1109 -0.0523
 1223SOL    HW2 4938   4.479   3.520   2.450  0.7393 -1.2140  0.3352
 1223SOL    HW3 4939   4.408   3.533   2.318  0.2048  2.0121  0.9115
 1223SOL    MW4 4940   4.476   3.506   2.364  0.0496  0.1869  0.1259
 1224SOL     OW 4941   0.227   3.597   2.247 -0.4584 -0.4796 -0.1121
 1224SOL    HW2 4942   0.301   3.560   2.296 -1.0736 -0.6951  0.6711
 1224SOL    HW3 4943   0.151   3.551   2.281 -0.7775 -1.4402 -2.1328
 1224SOL    MW4 4944   0.227   3.586   2.258 -0.5817 -0.6347 -0.2756
 1225SOL     OW 4945   0.190   3.889   2.366 -0.2900  0.4969  0.4527
 1225SOL    HW2 4946   0.102   3.917   2.341 -0.5030  0.1840  0.8592
 1225SOL    HW3 4947   0.205   3.809   2.316 -0.0134  0.8608 -0.0522
 1225SOL    MW4 4948   0.181   3.882   2.356 -0.2816  0.5035  0.4394
 1226SOL     OW 4949   4.446   4.016   2.253  0.0497  0.2595 -0.1063
 1226SOL    HW2 4950   4.466   4.106   2.278 -2.3712  1.0414 -0.8804
 1226SOL    HW3 4951   4.450   4.016   2.157 -2.8992  0.3229 -0.2812
 1226SOL    MW4 4952   4.449   4.028   2.244 -0.6585  0.3705 -0.2315
 1227SOL     OW 4953   0.004   4.268   2.366  0.1184 -0.0104  0.1641
 1227SOL    HW2 4954   0.021   4.284   2.459 -0.0869 -0.6001  0.3031
 1227SOL    HW3 4955   0.079   4.306   2.321 -0.8317  2.2614  0.4279
 1227SOL    MW4 4956   0.016   4.275   2.372 -0.0339  0.2117  0.2172
 1228SOL     OW 4957   0.461   4.261   2.399  0.1590  0.2015 -0.5261
 1228SOL    HW2 4958   0.448   4.184   2.344 -1.6709  1.0975 -1.4136
 1228SOL    HW3 4959   0.542   4.300   2.367 -0.4293  0.2272 -2.0081
 1228SOL    MW4 4960   0.470   4.256   2.387 -0.1600  0.3233 -0.8388
 1229SOL     OW 4961   0.669   4.638   2.374  0.2947 -0.4500  0.3582
 1229SOL    HW2 4962   0.676   4.610   2.466 -1.2132 -1.4930  0.1561
 1229SOL    HW3 4963   0.738   4.704   2.365 -0.1495  0.3693  2.5160
 1229SOL    MW4 4964   0.679   4.643   2.385  0.0372 -0.4792  0.6161
 1230SOL     OW 4965   0.468   0.397   2.343 -0.1399  0.0241 -0.4286
 1230SOL    HW2 4966   0.454   0.408   2.437  0.8597  0.4960 -0.3193
 1230SOL    HW3 4967   0.484   0.304   2.332  0.8361  0.1230  0.0405
 1230SOL    MW4 4968   0.468   0.386   2.354  0.1208  0.0994 -0.3521
 1231SOL     OW 4969   0.209   0.485   2.244  0.0719  0.0656  0.0784
 1231SOL    HW2 4970   0.294   0.451   2.272 -1.1266 -3.2880 -0.1834
 1231SOL    HW3 4971   0.213   0.485   2.149 -0.6065 -1.2238  0.0350
 1231SOL    MW4 4972   0.221   0.480   2.235 -0.1757 -0.5470  0.0384
 1232SOL     OW 4973   0.692   0.529   2.252  0.1645 -0.3543 -0.2474
 1232SOL    HW2 4974   0.690   0.613   2.296  0.2287 -0.2088 -0.5202
 1232SOL    HW3 4975   0.617   0.481   2.289  0.4291 -0.3670  0.2713
 1232SOL    MW4 4976   0.682   0.534   2.262  0.2079 -0.3368 -0.2151
 1233SOL     OW 4977   0.663   0.797   2.367  0.1758  0.3988 -0.0745
 1233SOL    HW2 4978   0.643   0.778   2.458 -2.2770 -3.3925 -1.2969
 1233SOL    HW3 4979   0.587   0.847   2.336 -0.0637 -0.2780 -0.6006
 1233SOL    MW4 4980   0.650   0.801   2.375 -0.1794 -0.1907 -0.3054
 1234SOL     OW 4981   0.410   0.905   2.211  0.4005  0.0653  0.1011
 1234SOL    HW2 4982   0.337   0.850   2.238  0.6936  0.4194  1.6895
 1234SOL    HW3 4983   0.417   0.893   2.117  0.1029 -2.1574  0.3490
 1234SOL    MW4 4984   0.402   0.896   2.202  0.3999 -0.1811  0.3433
 1235SOL     OW 4985   0.464   1.131   2.357  0.8896  0.1292 -0.0435
 1235SOL    HW2 4986   0.435   1.057   2.303  1.5144  0.2138 -0.4975
 1235SOL    HW3 4987   0.394   1.196   2.349 -0.5509 -1.1190  1.8163
 1235SOL    MW4 4988   0.451   1.130   2.349  0.7820 -0.0243  0.1423
 1236SOL     OW 4989   0.693   1.284   2.308 -0.1320 -0.0641 -0.4061
 1236SOL    HW2 4990   0.685   1.281   2.213 -1.0559  1.2018 -0.3849
 1236SOL    HW3 4991   0.617   1.236   2.341 -1.3057  1.8218 -0.2998
 1236SOL    MW4 4992   0.682   1.277   2.300 -0.4088  0.3517 -0.3893
 1237SOL     OW 4993   0.693   1.567   2.375 -0.3283 -0.1501  0.5438
 1237SOL    HW2 4994   0.704   1.571   2.470  0.0121 -2.0480  0.6086
 1237SOL    HW3 4995   0.705   1.474   2.354  1.5145  0.5462 -1.5913
 1237SOL    MW4 4996   0.696   1.555   2.385 -0.0402 -0.3086  0.2706
 1238SOL     OW 4997   0.464   1.681   2.273  0.0481 -0.1055 -0.7478
 1238SOL    HW2 4998   0.544   1.643   2.311 -0.4825  0.8711  1.4133
 1238SOL    HW3 4999   0.393   1.640   2.321 -0.6352  1.3088 -0.5253
 1238SOL    MW4 5000   0.465   1.671   2.284 -0.1121  0.2100 -0.4332
 1239SOL     OW 5001   0.501   1.933   2.387  0.5539 -0.0245  0.3066
 1239SOL    HW2 5002   0.557   1.996   2.341  0.4438  0.5650  0.9847
 1239SOL    HW3 5003   0.509   1.852   2.335  0.8167  0.4970 -0.4701
 1239SOL    MW4 5004   0.510   1.930   2.374  0.5740  0.1220  0.2937
 1240SOL     OW 5005   0.646   2.113   2.232 -0.1091 -0.0267 -0.5918
 1240SOL    HW2 5006   0.740   2.096   2.237 -0.3750 -1.1050  0.9255
 1240SOL    HW3 5007   0.632   2.190   2.287  0.0631  0.9845 -1.9203
 1240SOL    MW4 5008   0.657   2.121   2.240 -0.1215 -0.0355 -0.5670
 1241SOL     OW 5009   0.902   2.490   2.763 -0.8302  0.6126  0.0726
 1241SOL    HW2 5010   0.967   2.442   2.711  0.4302 -0.2911  2.4026
 1241SOL    HW3 5011   0.907   2.580   2.729  0.3529  0.1677 -1.0019
 1241SOL    MW4 5012   0.911   2.496   2.752 -0.5078  0.4346  0.2384
 1242SOL     OW 5013   0.432   2.480   2.270  0.1878  0.2971 -0.0211
 1242SOL    HW2 5014   0.517   2.440   2.289 -0.2722 -0.8008 -0.2117
 1242SOL    HW3 5015   0.368   2.421   2.311 -0.4715  1.1870  0.2414
 1242SOL    MW4 5016   0.434   2.467   2.278  0.0401  0.2694 -0.0119
 1243SOL     OW 5017   0.458   2.718   2.389  0.0040 -0.2463 -0.3655
 1243SOL    HW2 5018   0.451   2.706   2.484  0.8652  0.5564 -0.1921
 1243SOL    HW3 5019   0.421   2.638   2.352 -1.5679  0.0036  0.6228
 1243SOL    MW4 5020   0.453   2.705   2.397 -0.0898 -0.1070 -0.2122
 1244SOL     OW 5021   0.681   2.850   2.252 -0.1028  0.2732  0.0589
 1244SOL    HW2 5022   0.752   2.800   2.292  0.9130  0.5374 -1.3792
 1244SOL    HW3 5023   0.601   2.807   2.283  0.7003 -0.5962  0.9523
 1244SOL    MW4 5024   0.680   2.838   2.261  0.1372  0.1934 -0.0131
 1245SOL     OW 5025   0.685   3.117   2.336 -0.4408  0.1081 -0.0271
 1245SOL    HW2 5026   0.599   3.143   2.304  0.0231  0.5387 -0.9585
 1245SOL    HW3 5027   0.697   3.027   2.304 -1.3149 -0.6373  1.6984
 1245SOL    MW4 5028   0.675   3.109   2.327 -0.4950  0.0663  0.0777
 1246SOL     OW 5029   0.417   3.247   2.296  0.0254  0.4608 -0.2834
 1246SOL    HW2 5030   0.334   3.209   2.324  0.5168 -0.4173  0.0067
 1246SOL    HW3 5031   0.419   3.233   2.201  0.5850 -1.0378 -0.0700
 1246SOL    MW4 5032   0.406   3.240   2.287  0.1640  0.1471 -0.2172
 1247SOL     OW 5033   0.431   3.500   2.393 -0.1681 -0.3402  0.3047
 1247SOL    HW2 5034   0.517   3.538   2.374 -0.0177 -0.1921  1.2486
 1247SOL    HW3 5035   0.436   3.411   2.360  0.0370 -0.0446 -0.4632
 1247SOL    MW4 5036   0.443   3.493   2.386 -0.1212 -0.2818  0.3281
 1248SOL     OW 5037   0.665   3.637   2.279 -0.2269  0.4281 -0.0999
 1248SOL    HW2 5038   0.674   3.731   2.287 -0.7682  0.3897  1.1547
 1248SOL    HW3 5039   0.660   3.621   2.185  1.7227  1.4520 -0.4107
 1248SOL    MW4 5040   0.665   3.647   2.268 -0.0412  0.5584  0.0246
 1249SOL     OW 5041   0.676   3.928   2.315  0.0852 -0.4271 -0.0304
 1249SOL    HW2 5042   0.691   3.916   2.409  0.2922 -0.7320 -0.0992
 1249SOL    HW3 5043   0.583   3.948   2.308  0.0164 -0.6530  0.2183
 1249SOL    MW4 5044   0.666   3.929   2.327  0.1035 -0.4971 -0.0069
 1250SOL     OW 5045   0.413   4.018   2.277  0.1097 -0.0305 -0.2529
 1250SOL    HW2 5046   0.334   3.973   2.308 -0.4342  0.8774 -0.2739
 1250SOL    HW3 5047   0.408   4.012   2.182 -1.1989  2.0644 -0.3585
 1250SOL    MW4 5048   0.402   4.011   2.269 -0.1347  0.3657 -0.2697
 1251SOL     OW 5049   0.409   4.280   2.676 -0.5292  0.1445 -0.3805
 1251SOL    HW2 5050   0.499   4.302   2.701 -0.6862  0.0670  0.2576
 1251SOL    HW3 5051   0.413   4.269   2.581 -0.1368  1.4294 -0.5180
 1251SOL    MW4 5052   0.421   4.281   2.667 -0.4981  0.3033 -0.3145
 1252SOL     OW 5053   0.684   4.379   2.272  0.2662  0.2900 -0.1718
 1252SOL    HW2 5054   0.686   4.473   2.290  0.2328  0.3247 -0.3516
 1252SOL    HW3 5055   0.692   4.373   2.177 -2.2556  0.2053 -0.4082
 1252SOL    MW4 5056   0.685   4.391   2.262 -0.0709  0.2828 -0.2267
 1253SOL     OW 5057   1.088   0.003   2.338 -0.1971  0.0141 -0.3217
 1253SOL    HW2 5058   1.100  -0.013   2.431  1.4672  1.5649 -0.2691
 1253SOL    HW3 5059   1.007   0.054   2.333 -0.3926 -0.2301  0.2317
 1253SOL    MW4 5060   1.079   0.007   2.350 -0.0032  0.1865 -0.2415
 1254SOL     OW 5061   0.866   0.151   2.283  0.5751 -0.7823  0.1705
 1254SOL    HW2 5062   0.895   0.234   2.322 -2.1195  0.1258  0.3599
 1254SOL    HW3 5063   0.862   0.169   2.189  0.6066 -0.8923  0.1487
 1254SOL    MW4 5064   0.869   0.165   2.276  0.2238 -0.6770  0.1926
 1255SOL     OW 5065   0.910   0.412   2.378  0.6779 -0.3018  0.3616
 1255SOL    HW2 5066   0.989   0.456   2.347 -0.1554  0.5878 -0.5663
 1255SOL    HW3 5067   0.838   0.465   2.342 -0.3656 -2.7033 -1.1965
 1255SOL    MW4 5068   0.911   0.425   2.369  0.4302 -0.5013  0.0334
 1256SOL     OW 5069   1.143   0.512   2.255 -0.3920  0.2109 -0.1074
 1256SOL    HW2 5070   1.218   0.455   2.272 -0.0830  0.6196 -0.1067
 1256SOL    HW3 5071   1.136   0.515   2.159 -0.1524  0.5033 -0.1172
 1256SOL    MW4 5072   1.152   0.505   2.244 -0.3197  0.3034 -0.1090
 1257SOL     OW 5073   1.126   0.779   2.382  0.1764 -0.5157  0.2696
 1257SOL    HW2 5074   1.051   0.817   2.336 -1.1336 -0.9734  1.9626
 1257SOL    HW3 5075   1.134   0.691   2.344 -0.5809 -0.7140  0.5486
 1257SOL    MW4 5076   1.117   0.772   2.371 -0.0963 -0.6022  0.5300
 1258SOL     OW 5077   0.901   0.895   2.267 -0.5236 -0.2621  0.3559
 1258SOL    HW2 5078   0.899   0.981   2.309 -2.1694  0.2962 -0.8164
 1258SOL    HW3 5079   0.823   0.850   2.300 -0.6804 -0.6064 -0.4668
 1258SOL    MW4 5080   0.891   0.900   2.277 -0.7613 -0.2338  0.0927
 1259SOL     OW 5081   0.923   1.134   2.385 -0.1366  0.0754  0.2779
 1259SOL    HW2 5082   0.986   1.198   2.351 -1.3516  0.4049 -1.4264
 1259SOL    HW3 5083   0.838   1.167   2.357 -1.0369 -0.6264  2.1313
 1259SOL    MW4 5084   0.920   1.147   2.376 -0.4157  0.0263  0.2975
 1260SOL     OW 5085   1.143   1.265   2.306 -0.3991  0.1473  0.0916
 1260SOL    HW2 5086   1.145   1.355   2.337 -2.1487  0.2984 -0.1571
 1260SOL    HW3 5087   1.156   1.272   2.211  0.4068  0.0521  0.1905
 1260SOL    MW4 5088   1.145   1.278   2.298 -0.5236  0.1546  0.0718
 1261SOL     OW 5089   1.123   1.531   2.371  0.3408 -0.1794  0.2232
 1261SOL    HW2 5090   1.059   1.591   2.331  0.7502 -0.4173 -0.8016
 1261SOL    HW3 5091   1.108   1.540   2.465  0.3945  1.5472  0.0851
 1261SOL    MW4 5092   1.112   1.540   2.378  0.4020  0.0170  0.0696
 1262SOL     OW 5093   0.910   1.706   2.283  0.1810  0.0282 -0.2317
 1262SOL    HW2 5094   0.841   1.644   2.306 -0.9351  1.1292 -0.5314
 1262SOL    HW3 5095   0.903   1.715   2.188  0.4942  0.4392 -0.2158
 1262SOL    MW4 5096   0.900   1.699   2.274  0.0750  0.2276 -0.2689
 1263SOL     OW 5097   0.931   1.972   2.389 -0.1097  0.4320 -0.1887
 1263SOL    HW2 5098   0.931   1.952   2.482 -0.4467 -0.9300 -0.4663
 1263SOL    HW3 5099   0.910   1.889   2.346 -0.7978  1.2204 -1.4378
 1263SOL    MW4 5100   0.928   1.959   2.395 -0.2450  0.3562 -0.3903
 1264SOL     OW 5101   1.162   2.070   2.285 -0.1149  0.5669 -0.5393
 1264SOL    HW2 5102   1.081   2.040   2.328 -0.4973  0.3126 -1.4172
 1264SOL    HW3 5103   1.231   2.016   2.324 -0.5286 -0.0333 -0.6245
 1264SOL    MW4 5104   1.160   2.059   2.296 -0.2201  0.4542 -0.6664
 1265SOL     OW 5105   1.377   2.466   2.255 -0.0378 -0.1778  0.2049
 1265SOL    HW2 5106   1.455   2.414   2.271 -0.4303 -0.7691  0.1883
 1265SOL    HW3 5107   1.364   2.461   2.160  0.0306  0.1058  0.1794
 1265SOL    MW4 5108   1.386   2.459   2.244 -0.0806 -0.2182  0.1993
 1266SOL     OW 5109   0.670   2.364   2.362  0.0634  0.1587  0.3761
 1266SOL    HW2 5110   0.674   2.368   2.458  1.6557 -0.2692  0.3296
 1266SOL    HW3 5111   0.739   2.423   2.333 -1.1556  1.1690 -0.5311
 1266SOL    MW4 5112   0.679   2.373   2.371  0.1127  0.2356  0.2503
 1267SOL     OW 5113   0.913   2.750   2.346 -0.1453  0.0805 -0.1910
 1267SOL    HW2 5114   0.916   2.748   2.442 -0.1139  0.1022 -0.1912
 1267SOL    HW3 5115   0.907   2.659   2.320 -1.6462  0.1532 -0.1292
 1267SOL    MW4 5116   0.913   2.738   2.355 -0.3392  0.0930 -0.1831
 1268SOL     OW 5117   1.137   2.858   2.194  0.4977  0.0665 -0.7092
 1268SOL    HW2 5118   1.213   2.819   2.237  0.4820  0.4122 -0.3572
 1268SOL    HW3 5119   1.061   2.821   2.240  0.4764  0.3107 -0.5456
 1268SOL    MW4 5120   1.137   2.848   2.206  0.4927  0.1445 -0.6413
 1269SOL     OW 5121   1.132   3.114   2.362 -0.2991 -0.0654  0.4509
 1269SOL    HW2 5122   1.063   3.169   2.326  0.4427  0.9266  0.5269
 1269SOL    HW3 5123   1.107   3.025   2.338 -1.8789  0.2294  0.9284
 1269SOL    MW4 5124   1.120   3.110   2.354 -0.4096  0.1042  0.5238
 1270SOL     OW 5125   0.934   3.257   2.256 -0.0813 -0.1367 -0.2928
 1270SOL    HW2 5126   0.949   3.345   2.292  0.3247  0.0649 -0.9469
 1270SOL    HW3 5127   0.850   3.230   2.293  0.8430 -0.3745  1.6799
 1270SOL    MW4 5128   0.925   3.265   2.266  0.0943 -0.1419 -0.1187
 1271SOL     OW 5129   0.893   3.519   2.359 -0.4349 -0.3372 -0.3588
 1271SOL    HW2 5130   0.884   3.511   2.454  0.9068  1.0730 -0.0889
 1271SOL    HW3 5131   0.808   3.554   2.331 -0.4416  0.3579  0.4832
 1271SOL    MW4 5132   0.880   3.523   2.368 -0.2587 -0.0596 -0.2122
 1272SOL     OW 5133   1.144   3.630   2.279 -0.6041 -0.2457 -0.1420
 1272SOL    HW2 5134   1.219   3.585   2.319  0.2376  0.2685 -1.1382
 1272SOL    HW3 5135   1.068   3.591   2.323  0.2181 -0.9994  0.6558
 1272SOL    MW4 5136   1.144   3.619   2.290 -0.3846 -0.2773 -0.1681
 1273SOL     OW 5137   1.082   3.886   2.332 -0.2364  0.1168 -0.0919
 1273SOL    HW2 5138   1.163   3.936   2.327 -0.5715  0.6366 -0.3928
 1273SOL    HW3 5139   1.106   3.798   2.303 -0.3674  0.9711 -2.9437
 1273SOL    MW4 5140   1.096   3.881   2.327 -0.2979  0.2980 -0.5078
 1274SOL     OW 5141   0.902   4.059   2.220  0.0386  0.0669 -0.4790
 1274SOL    HW2 5142   0.963   3.989   2.244  0.7089  0.7020 -0.3010
 1274SOL    HW3 5143   0.820   4.035   2.263  0.5847 -0.0224  0.5219
 1274SOL    MW4 5144   0.899   4.047   2.229  0.1991  0.1392 -0.3233
 1275SOL     OW 5145   0.907   4.280   2.379  0.1096  0.0081 -0.5782
 1275SOL    HW2 5146   0.921   4.205   2.322 -0.9181 -0.9578  0.4268
 1275SOL    HW3 5147   0.825   4.318   2.349 -0.1232 -0.1453 -0.1395
 1275SOL    MW4 5148   0.898   4.275   2.368 -0.0566 -0.1392 -0.3877
 1276SOL     OW 5149   1.111   4.415   2.259  0.1363 -0.2838  0.1307
 1276SOL    HW2 5150   1.037   4.373   2.303  0.3038  0.2450  0.9491
 1276SOL    HW3 5151   1.109   4.505   2.292  1.4026 -0.3817  0.5084
 1276SOL    MW4 5152   1.101   4.421   2.269  0.3256 -0.2270  0.2887
 1277SOL     OW 5153   1.571   4.648   2.379 -0.0656 -0.3123  0.2427
 1277SOL    HW2 5154   1.645   4.700   2.348  0.9190 -1.0700  1.2966
 1277SOL    HW3 5155   1.494   4.694   2.346  0.8573  0.7247 -0.4923
 1277SOL    MW4 5156   1.571   4.661   2.371  0.1861 -0.2756  0.2849
 1278SOL     OW 5157   1.341   0.091   2.274  0.0509  0.2148 -0.0227
 1278SOL    HW2 5158   1.335   0.179   2.312 -0.0038  0.1458  0.1292
 1278SOL    HW3 5159   1.254   0.053   2.287 -0.3912  0.6944 -1.4578
 1278SOL    MW4 5160   1.328   0.098   2.281 -0.0148  0.2690 -0.1919
 1279SOL     OW 5161   1.367   0.367   2.352 -0.3177  0.8150  0.3828
 1279SOL    HW2 5162   1.376   0.390   2.444  0.0357  0.3604  0.4634
 1279SOL    HW3 5163   1.440   0.412   2.309  0.1013  0.2319  0.4732
 1279SOL    MW4 5164   1.378   0.376   2.358 -0.2160  0.6781  0.4055
 1280SOL     OW 5165   1.571   0.507   2.196  0.1539 -0.3146  0.0217
 1280SOL    HW2 5166   1.647   0.459   2.228  0.0826 -0.0474  0.5900
 1280SOL    HW3 5167   1.580   0.594   2.233  1.2299  0.6703 -2.4689
 1280SOL    MW4 5168   1.582   0.512   2.205  0.2866 -0.1494 -0.2322
 1281SOL     OW 5169   1.577   0.742   2.355 -0.0138  0.3120  0.6138
 1281SOL    HW2 5170   1.659   0.786   2.332  0.3549  0.1178  1.5815
 1281SOL    HW3 5171   1.510   0.794   2.310  0.6400  0.3888 -0.2967
 1281SOL    MW4 5172   1.579   0.755   2.346  0.1211  0.2965  0.6216
 1282SOL     OW 5173   1.354   0.880   2.266  0.1073 -0.0230  0.4038
 1282SOL    HW2 5174   1.282   0.833   2.308  1.4688 -0.8924  1.8314
 1282SOL    HW3 5175   1.363   0.961   2.316  0.6248 -0.2781  0.7311
 1282SOL    MW4 5176   1.346   0.884   2.278  0.3552 -0.1713  0.6354
 1283SOL     OW 5177   1.368   1.123   2.389  0.7498  0.1679 -0.3143
 1283SOL    HW2 5178   1.388   1.144   2.480  0.8057  0.9370 -0.5023
 1283SOL    HW3 5179   1.290   1.175   2.369  0.4781 -0.3348 -0.5728
 1283SOL    MW4 5180   1.360   1.133   2.398  0.7212  0.2031 -0.3731
 1284SOL     OW 5181   1.602   1.273   2.271  0.3536 -0.0770  0.2909
 1284SOL    HW2 5182   1.527   1.219   2.296  0.5570 -0.3299  0.3578
 1284SOL    HW3 5183   1.588   1.292   2.179  0.7249 -0.9705  0.0451
 1284SOL    MW4 5184   1.591   1.269   2.262  0.4295 -0.2282  0.2673
 1285SOL     OW 5185   1.570   1.532   2.379  0.0232 -0.1338 -0.5311
 1285SOL    HW2 5186   1.579   1.442   2.350 -0.4368 -0.3821  0.0905
 1285SOL    HW3 5187   1.638   1.580   2.331  2.4652 -1.3872  1.5740
 1285SOL    MW4 5188   1.580   1.527   2.369  0.2847 -0.3319 -0.1714
 1286SOL     OW 5189   1.355   1.660   2.253 -0.1347 -0.0546  0.4814
 1286SOL    HW2 5190   1.442   1.628   2.279  0.0441 -0.5897 -0.7342
 1286SOL    HW3 5191   1.294   1.593   2.283  0.1180 -0.9228 -0.8911
 1286SOL    MW4 5192   1.359   1.647   2.260 -0.0778 -0.2397  0.1400
 1287SOL     OW 5193   1.365   1.910   2.375  0.2073  0.5872  0.2932
 1287SOL    HW2 5194   1.436   1.956   2.331  0.9299 -0.4688  0.3456
 1287SOL    HW3 5195   1.360   1.825   2.331 -1.3026  0.7964  0.0127
 1287SOL    MW4 5196   1.373   1.905   2.363  0.1034  0.4754  0.2632
 1288SOL     OW 5197   1.788   1.975   2.646 -0.6103 -0.1870  0.1461
 1288SOL    HW2 5198   1.792   1.887   2.683  1.0376 -0.4353 -0.5607
 1288SOL    HW3 5199   1.874   2.013   2.665 -0.1799  0.1253 -2.2802
 1288SOL    MW4 5200   1.800   1.968   2.653 -0.3359 -0.1787 -0.2673
 1289SOL     OW 5201   1.819   1.895   2.351 -0.0888  0.6055  0.3820
 1289SOL    HW2 5202   1.833   1.932   2.438  1.6868  2.3549 -0.6167
 1289SOL    HW3 5203   1.888   1.933   2.297 -2.0194  0.6950 -2.1241
 1289SOL    MW4 5204   1.830   1.905   2.355 -0.1092  0.8482 -0.0806
 1290SOL     OW 5205   1.621   2.294   2.325  0.3205  0.0518  0.2204
 1290SOL    HW2 5206   1.615   2.288   2.420  0.5229  0.4565  0.2614
 1290SOL    HW3 5207   1.603   2.206   2.293  0.4712 -0.1291  0.6437
 1290SOL    MW4 5208   1.618   2.282   2.333  0.3670  0.0813  0.2816
 1291SOL     OW 5209   1.342   2.725   2.351 -0.1903  0.1463  0.1377
 1291SOL    HW2 5210   1.337   2.721   2.446  0.0286 -0.3161  0.1323
 1291SOL    HW3 5211   1.353   2.634   2.323  0.1346  0.3149 -0.3046
 1291SOL    MW4 5212   1.343   2.712   2.360 -0.1184  0.1075  0.0787
 1292SOL     OW 5213   1.582   2.834   2.243 -0.1651  0.1243 -0.1752
 1292SOL    HW2 5214   1.583   2.929   2.254 -0.7750  0.3914 -2.1008
 1292SOL    HW3 5215   1.505   2.805   2.293  0.4645  0.5421  1.0481
 1292SOL    MW4 5216   1.572   2.843   2.251 -0.1626  0.2151 -0.2677
 1293SOL     OW 5217   1.595   3.100   2.336  0.3450  0.4429  0.1059
 1293SOL    HW2 5218   1.511   3.141   2.318 -0.2125 -0.9194 -0.4209
 1293SOL    HW3 5219   1.603   3.103   2.432 -1.6504 -1.9859  0.4082
 1293SOL    MW4 5220   1.585   3.106   2.346  0.0082 -0.0572  0.0761
 1294SOL     OW 5221   1.367   3.209   2.249  0.1428  0.2055  0.0158
 1294SOL    HW2 5222   1.293   3.165   2.291  0.2022 -1.5719 -1.6528
 1294SOL    HW3 5223   1.346   3.208   2.155  1.9551  0.2578 -0.4159
 1294SOL    MW4 5224   1.354   3.203   2.242  0.3898 -0.0224 -0.2613
 1295SOL     OW 5225   1.355   3.469   2.383 -0.3951 -0.3382 -0.1852
 1295SOL    HW2 5226   1.346   3.469   2.478 -1.5388 -1.8671 -0.2846
 1295SOL    HW3 5227   1.342   3.378   2.357  0.3997 -0.0288 -1.7703
 1295SOL    MW4 5228   1.352   3.457   2.392 -0.4412 -0.4990 -0.4077
 1296SOL     OW 5229   1.576   3.874   2.360  0.0337 -0.6130 -0.5731
 1296SOL    HW2 5230   1.660   3.919   2.352 -1.3300  2.1920 -0.0251
 1296SOL    HW3 5231   1.567   3.856   2.453 -0.2663 -0.2652 -0.5315
 1296SOL    MW4 5232   1.586   3.878   2.371 -0.1858 -0.1974 -0.4954
 1297SOL     OW 5233   1.827   3.989   2.291  0.1565  0.3279 -0.8647
 1297SOL    HW2 5234   1.904   3.957   2.339 -1.2201 -1.8349 -0.0559
 1297SOL    HW3 5235   1.850   3.979   2.199 -0.9456 -4.9289 -0.6786
 1297SOL    MW4 5236   1.840   3.984   2.285 -0.1705 -0.6511 -0.7336
 1298SOL     OW 5237   1.343   3.987   2.272  0.0154 -0.0411  0.4049
 1298SOL    HW2 5238   1.429   3.952   2.296  0.2320  1.2046  1.4723
 1298SOL    HW3 5239   1.339   3.979   2.177  1.3069 -0.1146  0.3553
 1298SOL    MW4 5240   1.354   3.981   2.263  0.2142  0.1137  0.5391
 1299SOL     OW 5241   1.341   4.254   2.343 -0.0252 -0.2000 -0.2598
 1299SOL    HW2 5242   1.334   4.170   2.297  0.8797  1.4395 -3.4911
 1299SOL    HW3 5243   1.259   4.299   2.324  1.0428  1.1718 -1.7272
 1299SOL    MW4 5244   1.329   4.249   2.335  0.2350  0.1969 -0.8798
 1300SOL     OW 5245   1.609   4.370   2.312  0.3201 -0.3961 -0.3015
 1300SOL    HW2 5246   1.524   4.332   2.331  0.0968  0.3907  0.3179
 1300SOL    HW3 5247   1.595   4.465   2.317  0.8723 -0.2325 -1.7585
 1300SOL    MW4 5248   1.596   4.378   2.315  0.3635 -0.2708 -0.4117
 1301SOL     OW 5249   2.031   0.012   2.318  0.0465  0.1845  0.0276
 1301SOL    HW2 5250   2.114   0.057   2.299  0.1431 -0.2139 -0.4951
 1301SOL    HW3 5251   2.045  -0.077   2.286 -0.5687  0.1055 -0.0116
 1301SOL    MW4 5252   2.044   0.007   2.312 -0.0219  0.1216 -0.0467
 1302SOL     OW 5253   1.797   0.123   2.252 -0.2183 -0.0493 -0.3897
 1302SOL    HW2 5254   1.874   0.073   2.278 -0.4342  0.1690  0.7018
 1302SOL    HW3 5255   1.815   0.212   2.281 -0.6723  0.1033 -0.5699
 1302SOL    MW4 5256   1.809   0.128   2.259 -0.3067 -0.0004 -0.2697
 1303SOL     OW 5257   2.261   0.383   2.346  0.0760  0.2236 -0.1444
 1303SOL    HW2 5258   2.195   0.443   2.310 -0.8093 -0.3451  0.5116
 1303SOL    HW3 5259   2.342   0.410   2.304 -0.6343  0.6938 -1.2585
 1303SOL    MW4 5260   2.263   0.395   2.335 -0.1347  0.2106 -0.2048
 1304SOL     OW 5261   2.068   0.549   2.238  0.1703 -0.0006  0.3930
 1304SOL    HW2 5262   2.051   0.625   2.292 -2.9206  0.1829 -0.7372
 1304SOL    HW3 5263   2.074   0.583   2.149  0.1326 -0.9009  0.0327
 1304SOL    MW4 5264   2.067   0.563   2.233 -0.2425 -0.0952  0.1962
 1305SOL     OW 5265   2.029   0.790   2.364  0.1073  0.4752 -0.1343
 1305SOL    HW2 5266   2.102   0.833   2.319  0.7921  0.3518  0.8321
 1305SOL    HW3 5267   1.952   0.842   2.340  0.6381  1.1055 -0.4972
 1305SOL    MW4 5268   2.028   0.802   2.355  0.2673  0.5422 -0.0548
 1306SOL     OW 5269   1.793   0.890   2.273  0.4419  0.1428 -0.1752
 1306SOL    HW2 5270   1.799   0.983   2.293 -2.3949  0.6245 -1.3976
 1306SOL    HW3 5271   1.801   0.885   2.178 -1.0706 -0.6999 -0.2694
 1306SOL    MW4 5272   1.795   0.901   2.263 -0.1320  0.0951 -0.3488
 1307SOL     OW 5273   1.853   1.164   2.365  0.0934 -0.3776  0.3186
 1307SOL    HW2 5274   1.929   1.190   2.313  0.5614  1.7822  2.0309
 1307SOL    HW3 5275   1.778   1.199   2.318  0.4484  0.7860  0.6166
 1307SOL    MW4 5276   1.854   1.172   2.352  0.2019  0.0608  0.5839
 1308SOL     OW 5277   2.065   1.292   2.251 -0.5041  0.0789 -0.1450
 1308SOL    HW2 5278   2.068   1.386   2.267  1.1314  0.1506 -0.7436
 1308SOL    HW3 5279   2.057   1.284   2.155  0.4338 -0.3913 -0.1898
 1308SOL    MW4 5280   2.064   1.303   2.240 -0.1645  0.0263 -0.2301
 1309SOL     OW 5281   2.254   1.685   2.256  0.1814  0.4191  0.4925
 1309SOL    HW2 5282   2.322   1.631   2.294 -0.1274 -0.3985 -0.1055
 1309SOL    HW3 5283   2.172   1.642   2.281 -0.0712  0.6979  0.1494
 1309SOL    MW4 5284   2.252   1.672   2.264  0.1073  0.3479  0.3684
 1310SOL     OW 5285   2.017   1.540   2.349  0.3766 -0.0010  0.0672
 1310SOL    HW2 5286   1.995   1.521   2.440  0.4999  0.6356  0.2365
 1310SOL    HW3 5287   1.933   1.565   2.310  0.0186 -1.9351 -0.4368
 1310SOL    MW4 5288   2.003   1.541   2.356  0.3457 -0.1721  0.0229
 1311SOL     OW 5289   1.782   1.652   2.241  0.3685  0.3220  0.3117
 1311SOL    HW2 5290   1.799   1.739   2.277  0.9286  0.1626  0.4354
 1311SOL    HW3 5291   1.789   1.664   2.146  1.8805  0.1133  0.3882
 1311SOL    MW4 5292   1.785   1.665   2.233  0.6419  0.2735  0.3381
 1312SOL     OW 5293   2.026   2.033   2.228  0.0387 -0.0930  0.2441
 1312SOL    HW2 5294   2.109   2.019   2.273  1.0202  1.0209 -1.2075
 1312SOL    HW3 5295   2.049   2.037   2.135 -1.8338 -1.3319 -0.2939
 1312SOL    MW4 5296   2.040   2.031   2.222 -0.0789 -0.1094 -0.0184
 1313SOL     OW 5297   2.017   2.343   2.627 -0.5460 -0.0282 -0.1566
 1313SOL    HW2 5298   2.093   2.389   2.663 -0.7529  1.1590 -1.2049
 1313SOL    HW3 5299   2.043   2.319   2.538 -0.9661 -0.6620 -0.1130
 1313SOL    MW4 5300   2.030   2.346   2.620 -0.6289  0.0448 -0.2892
 1314SOL     OW 5301   1.835   2.434   2.251 -0.3677 -0.2243 -0.3868
 1314SOL    HW2 5302   1.905   2.375   2.279 -0.5677 -0.8212 -1.1171
 1314SOL    HW3 5303   1.756   2.397   2.289 -0.3452  0.1911  0.0602
 1314SOL    MW4 5304   1.834   2.421   2.259 -0.3910 -0.2482 -0.4241
 1315SOL     OW 5305   1.794   2.688   2.386 -0.4411  0.2280  0.2115
 1315SOL    HW2 5306   1.806   2.608   2.335  1.2577  1.1039 -0.8014
 1315SOL    HW3 5307   1.737   2.742   2.333  0.4342  0.6940 -0.2585
 1315SOL    MW4 5308   1.788   2.684   2.373 -0.1014  0.4051  0.0160
 1316SOL     OW 5309   2.003   2.854   2.279 -0.9381 -0.3376 -0.0736
 1316SOL    HW2 5310   2.078   2.796   2.292 -1.2649 -0.7700 -0.1094
 1316SOL    HW3 5311   1.930   2.810   2.324 -1.1932  0.0250 -0.1307
 1316SOL    MW4 5312   2.003   2.840   2.287 -1.0149 -0.3471 -0.0858
 1317SOL     OW 5313   2.033   3.123   2.370  0.1072  0.2662 -0.3451
 1317SOL    HW2 5314   2.105   3.170   2.328  0.6522  0.2149  0.5159
 1317SOL    HW3 5315   2.035   3.036   2.331  0.9836  0.0364  0.2062
 1317SOL    MW4 5316   2.043   3.118   2.360  0.2944  0.2291 -0.1588
 1318SOL     OW 5317   1.818   3.252   2.234 -0.4802  0.1303 -0.0986
 1318SOL    HW2 5318   1.894   3.214   2.278  0.0128  0.7539 -0.4123
 1318SOL    HW3 5319   1.745   3.194   2.258  0.7427 -2.6564 -2.7407
 1318SOL    MW4 5320   1.818   3.239   2.243 -0.2539 -0.1550 -0.4885
 1319SOL     OW 5321   1.805   3.478   2.384 -0.3587 -0.0016  0.1157
 1319SOL    HW2 5322   1.804   3.404   2.323  0.1825 -1.2844  1.6202
 1319SOL    HW3 5323   1.731   3.533   2.357 -1.9430 -2.0603  0.1204
 1319SOL    MW4 5324   1.795   3.476   2.373 -0.4964 -0.4425  0.3147
 1320SOL     OW 5325   1.970   3.667   2.284 -0.3852  0.0217  0.0623
 1320SOL    HW2 5326   1.912   3.598   2.315 -0.6385  0.2256  0.0422
 1320SOL    HW3 5327   1.961   3.664   2.189 -0.5592  0.2251  0.0731
 1320SOL    MW4 5328   1.961   3.657   2.276 -0.4414  0.0753  0.0610
 1321SOL     OW 5329   2.033   3.885   2.421  0.2449  0.0334 -0.2582
 1321SOL    HW2 5330   2.023   3.869   2.514 -0.9105  1.1592 -0.1779
 1321SOL    HW3 5331   2.011   3.801   2.380 -0.0921 -0.2199  0.4371
 1321SOL    MW4 5332   2.029   3.872   2.428  0.0482  0.1485 -0.1562
 1322SOL     OW 5333   1.859   4.255   2.370  0.7379  0.1800  0.0897
 1322SOL    HW2 5334   1.845   4.166   2.338  1.0389  1.0031 -2.4341
 1322SOL    HW3 5335   1.780   4.302   2.342  1.5917  1.2234 -0.5726
 1322SOL    MW4 5336   1.847   4.249   2.362  0.8903  0.4263 -0.3307
 1323SOL     OW 5337   1.803   4.203   2.667  0.1310  0.4369  0.1577
 1323SOL    HW2 5338   1.818   4.197   2.572 -1.1234 -0.1226 -0.0184
 1323SOL    HW3 5339   1.726   4.259   2.675  0.1499  0.3674  0.8468
 1323SOL    MW4 5340   1.795   4.210   2.655 -0.0319  0.3538  0.2255
 1324SOL     OW 5341   2.068   4.382   2.258 -0.3945 -0.0662  0.2315
 1324SOL    HW2 5342   2.009   4.324   2.307 -2.8255  1.3256 -0.9746
 1324SOL    HW3 5343   2.035   4.379   2.168 -0.2922  2.8215  0.0653
 1324SOL    MW4 5344   2.056   4.374   2.253 -0.7017  0.4983  0.0503
 1325SOL     OW 5345   2.241   0.133   1.972 -0.5781  0.4976  0.3476
 1325SOL    HW2 5346   2.257   0.145   2.066 -0.2933  0.9339  0.2482
 1325SOL    HW3 5347   2.327   0.112   1.936 -0.8959 -0.8764  0.3594
 1325SOL    MW4 5348   2.254   0.132   1.980 -0.5825  0.3739  0.3359
 1326SOL     OW 5349   2.275   0.133   2.253 -0.3462  0.0010 -0.6158
 1326SOL    HW2 5350   2.274   0.217   2.299  1.9127 -0.4846  0.4102
 1326SOL    HW3 5351   2.349   0.086   2.291 -0.3108 -1.6501 -2.6312
 1326SOL    MW4 5352   2.285   0.138   2.264 -0.0436 -0.2809 -0.7465
 1327SOL     OW 5353   2.499   0.515   2.268  0.5343  0.2941 -0.4391
 1327SOL    HW2 5354   2.587   0.482   2.282  0.4825 -0.1230 -1.0865
 1327SOL    HW3 5355   2.492   0.528   2.173 -0.2767 -0.1759 -0.4503
 1327SOL    MW4 5356   2.509   0.513   2.258  0.4206  0.1770 -0.5260
 1328SOL     OW 5357   2.471   0.531   1.984 -0.1020  0.6309 -0.6425
 1328SOL    HW2 5358   2.402   0.473   1.951  0.8243 -0.4975 -0.6216
 1328SOL    HW3 5359   2.553   0.490   1.956  0.6045  1.2609  0.4517
 1328SOL    MW4 5360   2.473   0.518   1.976  0.1132  0.5652 -0.4953
 1329SOL     OW 5361   2.481   0.785   2.364  0.0724  0.2044 -0.2037
 1329SOL    HW2 5362   2.566   0.804   2.324  1.5604 -2.2309  1.6808
 1329SOL    HW3 5363   2.469   0.691   2.352 -1.8680  0.3452  0.4895
 1329SOL    MW4 5364   2.491   0.775   2.357  0.0126 -0.0983  0.1366
 1330SOL     OW 5365   2.261   0.917   2.217  0.0123  0.5261  0.2986
 1330SOL    HW2 5366   2.336   0.867   2.249  1.4383  1.1306 -1.9975
 1330SOL    HW3 5367   2.260   0.997   2.269  2.9248  1.9678 -1.7583
 1330SOL    MW4 5368   2.270   0.921   2.228  0.5848  0.7961 -0.2754
 1331SOL     OW 5369   2.256   1.139   2.373  0.4972 -0.5744 -0.2619
 1331SOL    HW2 5370   2.336   1.178   2.337  0.4478  1.9660  2.1829
 1331SOL    HW3 5371   2.186   1.195   2.339  0.1747 -0.1056  1.1572
 1331SOL    MW4 5372   2.257   1.152   2.364  0.4478 -0.1774  0.2477
 1332SOL     OW 5373   2.472   1.255   2.226 -0.1663  0.0481 -0.5932
 1332SOL    HW2 5374   2.549   1.220   2.271 -0.2426 -0.2011 -0.6549
 1332SOL    HW3 5375   2.461   1.343   2.262 -0.8893 -0.5660  0.6948
 1332SOL    MW4 5376   2.481   1.262   2.237 -0.2718 -0.0658 -0.4315
 1333SOL     OW 5377   2.482   1.512   2.332  0.0266  0.0666  0.4752
 1333SOL    HW2 5378   2.479   1.525   2.426  0.4752 -0.7476  0.6112
 1333SOL    HW3 5379   2.556   1.564   2.302  0.3374 -0.2598  0.6760
 1333SOL    MW4 5380   2.491   1.520   2.340  0.1266 -0.0838  0.5195
 1334SOL     OW 5381   2.283   1.691   1.984 -0.3662 -0.1882 -0.4905
 1334SOL    HW2 5382   2.274   1.698   2.079 -0.3683 -0.1288 -0.4955
 1334SOL    HW3 5383   2.196   1.663   1.954 -0.7689  1.1992 -0.6246
 1334SOL    MW4 5384   2.270   1.688   1.992 -0.4196  0.0027 -0.5089
 1335SOL     OW 5385   2.255   1.954   2.355 -1.0181 -0.1311  0.0976
 1335SOL    HW2 5386   2.335   1.990   2.316 -1.0889  0.5988  0.5995
 1335SOL    HW3 5387   2.251   1.864   2.323  0.6477 -0.5605  1.0110
 1335SOL    MW4 5388   2.265   1.947   2.346 -0.8075 -0.0914  0.2840
 1336SOL     OW 5389   2.485   2.069   2.268 -0.4153 -0.3313 -0.4242
 1336SOL    HW2 5390   2.561   2.023   2.304 -0.5674  0.0973  0.4476
 1336SOL    HW3 5391   2.500   2.069   2.173  0.9448  0.2476 -0.2167
 1336SOL    MW4 5392   2.497   2.063   2.260 -0.2563 -0.1981 -0.2820
 1337SOL     OW 5393   2.278   2.425   2.251 -0.1370  0.1837  0.5367
 1337SOL    HW2 5394   2.258   2.512   2.287 -0.2060  0.9995 -1.4444
 1337SOL    HW3 5395   2.355   2.396   2.300  0.8134  2.0206  0.1796
 1337SOL    MW4 5396   2.286   2.433   2.262 -0.0205  0.5338  0.2282
 1338SOL     OW 5397   2.059   2.281   2.345 -0.2163  0.2192  0.6359
 1338SOL    HW2 5398   2.137   2.320   2.305 -1.1852  2.7973  1.1304
 1338SOL    HW3 5399   2.047   2.198   2.299  1.2747  1.0306 -1.2854
 1338SOL    MW4 5400   2.068   2.275   2.334 -0.1476  0.6666  0.4475
 1339SOL     OW 5401   2.228   2.686   2.347  0.1686 -0.3786 -0.0130
 1339SOL    HW2 5402   2.225   2.695   2.443 -0.0961  1.1454 -0.1553
 1339SOL    HW3 5403   2.307   2.734   2.321  0.8664 -1.7330 -0.4789
 1339SOL    MW4 5404   2.238   2.693   2.357  0.2255 -0.3564 -0.0932
 1340SOL     OW 5405   2.457   2.812   2.248  0.1960 -0.1697 -0.2658
 1340SOL    HW2 5406   2.541   2.795   2.289  0.6304  1.0150 -0.6554
 1340SOL    HW3 5407   2.476   2.816   2.154 -0.8004 -2.9781 -0.6435
 1340SOL    MW4 5408   2.470   2.810   2.241  0.1221 -0.3841 -0.3672
 1341SOL     OW 5409   2.447   3.103   2.339 -0.0037 -0.2274 -0.3933
 1341SOL    HW2 5410   2.528   3.143   2.307 -0.2519  0.2246 -0.4719
 1341SOL    HW3 5411   2.456   3.010   2.320  0.6704 -0.2365 -0.0262
 1341SOL    MW4 5412   2.459   3.096   2.332  0.0525 -0.1688 -0.3552
 1342SOL     OW 5413   2.237   3.250   2.231 -0.2168  0.0998 -0.2213
 1342SOL    HW2 5414   2.233   3.332   2.280 -1.4016 -1.9148  3.2161
 1342SOL    HW3 5415   2.310   3.202   2.271  0.0992 -0.7851 -1.8273
 1342SOL    MW4 5416   2.246   3.255   2.243 -0.3314 -0.2825  0.0200
 1343SOL     OW 5417   2.196   3.505   2.352 -0.4606 -0.3030 -0.3553
 1343SOL    HW2 5418   2.200   3.506   2.448  0.8747 -1.3836 -0.3871
 1343SOL    HW3 5419   2.110   3.540   2.332 -0.1832  1.3715  1.2092
 1343SOL    MW4 5420   2.185   3.510   2.362 -0.2477 -0.2246 -0.1533
 1344SOL     OW 5421   2.448   3.598   2.257 -0.2670  0.0273 -0.1617
 1344SOL    HW2 5422   2.466   3.685   2.293 -1.1508  1.1726 -2.4226
 1344SOL    HW3 5423   2.365   3.572   2.298 -0.3639  0.5460 -0.0261
 1344SOL    MW4 5424   2.439   3.606   2.267 -0.3965  0.2468 -0.4420
 1345SOL     OW 5425   2.670   4.027   2.313 -0.2468 -0.2482  0.2772
 1345SOL    HW2 5426   2.607   3.962   2.345 -0.6352  0.0353  0.0885
 1345SOL    HW3 5427   2.675   4.012   2.219  0.1371 -0.4147  0.3213
 1345SOL    MW4 5428   2.663   4.016   2.305 -0.2477 -0.2322  0.2582
 1346SOL     OW 5429   2.252   3.977   2.276  0.1797 -0.2055  0.2694
 1346SOL    HW2 5430   2.253   4.065   2.312 -0.1336 -0.3974  0.7434
 1346SOL    HW3 5431   2.179   3.933   2.319 -0.5110 -0.2922 -0.9444
 1346SOL    MW4 5432   2.243   3.983   2.286  0.0474 -0.2425  0.1721
 1347SOL     OW 5433   2.505   4.384   2.295  0.1715  0.3557  0.2599
 1347SOL    HW2 5434   2.582   4.339   2.329 -0.4554 -0.2260  0.9293
 1347SOL    HW3 5435   2.431   4.331   2.325 -0.4637  0.6503 -0.7776
 1347SOL    MW4 5436   2.506   4.371   2.304  0.0048  0.3181  0.2115
 1348SOL     OW 5437   2.490   4.437   2.009  0.5285 -0.0535  0.3990
 1348SOL    HW2 5438   2.571   4.396   1.979 -0.0228 -0.8914  0.0637
 1348SOL    HW3 5439   2.490   4.423   2.104  1.5625  1.3497  0.6294
 1348SOL    MW4 5440   2.501   4.430   2.018  0.5922  0.0210  0.3853
 1349SOL     OW 5441   2.950   4.664   2.355 -0.2536  0.1058  0.6347
 1349SOL    HW2 5442   3.020   4.711   2.310  0.5272 -0.5609  1.1293
 1349SOL    HW3 5443   2.955   4.575   2.322 -0.6252 -0.0376  0.9537
 1349SOL    MW4 5444   2.960   4.659   2.345 -0.1993 -0.0010  0.7417
 1350SOL     OW 5445   2.721   0.406   2.606  0.1153  0.1411 -0.0029
 1350SOL    HW2 5446   2.713   0.315   2.635  0.1065  0.2172  0.2328
 1350SOL    HW3 5447   2.637   0.446   2.629 -0.4598 -0.1733 -1.4811
 1350SOL    MW4 5448   2.709   0.399   2.613  0.0381  0.1096 -0.1669
 1351SOL     OW 5449   2.748   0.382   2.332  0.1238 -0.2561  0.4887
 1351SOL    HW2 5450   2.744   0.385   2.428 -1.0381 -0.4898  0.4572
 1351SOL    HW3 5451   2.813   0.448   2.309  0.6824 -0.4593  1.4585
 1351SOL    MW4 5452   2.756   0.391   2.342  0.0443 -0.3138  0.6127
 1352SOL     OW 5453   2.971   0.527   2.213  0.2525  0.0714 -0.0364
 1352SOL    HW2 5454   2.986   0.614   2.249  0.3557  0.4998 -1.1152
 1352SOL    HW3 5455   2.981   0.537   2.118 -1.0187 -0.8316 -0.2883
 1352SOL    MW4 5456   2.974   0.540   2.205  0.0982  0.0088 -0.2120
 1353SOL     OW 5457   2.965   0.781   2.339 -0.6880  0.1424  0.3289
 1353SOL    HW2 5458   2.978   0.792   2.434  1.0037 -4.1112  0.6690
 1353SOL    HW3 5459   2.880   0.822   2.323 -0.6296  1.7340  3.5215
 1353SOL    MW4 5460   2.955   0.788   2.350 -0.4566 -0.2089  0.7954
 1354SOL     OW 5461   2.720   0.881   2.232  0.3252 -0.0939  0.3177
 1354SOL    HW2 5462   2.706   0.967   2.272  1.5434  0.1919  0.1569
 1354SOL    HW3 5463   2.723   0.899   2.138 -1.9674 -0.6861  0.0997
 1354SOL    MW4 5464   2.719   0.895   2.225  0.1836 -0.1343  0.2677
 1355SOL     OW 5465   2.689   1.133   2.356  0.0694 -0.3016 -0.1513
 1355SOL    HW2 5466   2.678   1.146   2.450 -0.7972  1.4040 -0.4687
 1355SOL    HW3 5467   2.762   1.191   2.332 -0.4827  0.1699 -0.7219
 1355SOL    MW4 5468   2.697   1.142   2.365 -0.1175 -0.0144 -0.2682
 1356SOL     OW 5469   2.894   1.298   2.265 -0.3179 -0.8788 -0.3480
 1356SOL    HW2 5470   2.977   1.257   2.286 -0.3739 -1.4599 -1.2388
 1356SOL    HW3 5471   2.896   1.310   2.170 -0.7138  0.2849 -0.2251
 1356SOL    MW4 5472   2.905   1.294   2.255 -0.3777 -0.8018 -0.4494
 1357SOL     OW 5473   2.902   1.553   2.356  0.8423  0.1061 -0.6271
 1357SOL    HW2 5474   2.915   1.553   2.451  0.6692 -0.6104 -0.6023
 1357SOL    HW3 5475   2.890   1.461   2.333 -0.9344  0.4328 -1.1031
 1357SOL    MW4 5476   2.902   1.541   2.366  0.5851  0.0546 -0.6866
 1358SOL     OW 5477   2.698   1.693   2.244 -0.1642  0.0367 -0.0195
 1358SOL    HW2 5478   2.760   1.636   2.289  0.6120 -0.6104 -1.8413
 1358SOL    HW3 5479   2.716   1.679   2.151 -3.3120 -0.4688 -0.6270
 1358SOL    MW4 5480   2.708   1.683   2.237 -0.4771 -0.1155 -0.3400
 1359SOL     OW 5481   2.695   1.931   2.370 -0.0824 -0.0678  0.4479
 1359SOL    HW2 5482   2.691   1.906   2.463 -0.4926  0.8153  0.6737
 1359SOL    HW3 5483   2.706   1.848   2.324  0.5888 -0.4757  1.3150
 1359SOL    MW4 5484   2.696   1.917   2.376 -0.0479 -0.0051  0.5920
 1360SOL     OW 5485   2.922   2.047   2.240  0.2751  0.0358  0.3554
 1360SOL    HW2 5486   2.841   2.008   2.274 -0.1614  2.5465  2.2847
 1360SOL    HW3 5487   2.989   1.980   2.257 -1.3775 -2.2674 -1.6709
 1360SOL    MW4 5488   2.920   2.033   2.247 -0.0007  0.0632  0.3426
 1361SOL     OW 5489   2.692   2.472   2.253 -0.1447 -0.6607 -0.3690
 1361SOL    HW2 5490   2.775   2.429   2.269 -0.4199 -0.7334  0.9460
 1361SOL    HW3 5491   2.682   2.472   2.158  2.4899  1.5295 -0.6793
 1361SOL    MW4 5492   2.701   2.466   2.243  0.1664 -0.3812 -0.2367
 1362SOL     OW 5493   2.480   2.327   2.400  0.0358 -0.0153  0.6685
 1362SOL    HW2 5494   2.503   2.240   2.368  0.8193  0.0613  1.0213
 1362SOL    HW3 5495   2.548   2.385   2.366  0.3815  0.2082  1.7010
 1362SOL    MW4 5496   2.492   2.323   2.391  0.1845  0.0238  0.8514
 1363SOL     OW 5497   2.908   2.838   2.243 -0.2580 -0.4303  0.2019
 1363SOL    HW2 5498   2.907   2.852   2.149  0.4951 -2.5113 -0.1473
 1363SOL    HW3 5499   2.900   2.926   2.281  1.0537  0.5929 -1.7900
 1363SOL    MW4 5500   2.907   2.851   2.236  0.0143 -0.5698 -0.1068
 1364SOL     OW 5501   3.124   2.686   2.327 -0.1912  0.2765 -0.0691
 1364SOL    HW2 5502   3.124   2.686   2.423  0.3105 -0.1055 -0.0707
 1364SOL    HW3 5503   3.039   2.725   2.304 -0.6081 -0.2612  0.5255
 1364SOL    MW4 5504   3.112   2.691   2.337 -0.1800  0.1554  0.0091
 1365SOL     OW 5505   2.922   3.074   2.663 -0.5182  0.2307 -0.1021
 1365SOL    HW2 5506   2.852   3.133   2.690 -0.5130  0.6264 -0.9539
 1365SOL    HW3 5507   2.924   3.079   2.568  1.9325  1.6800 -0.0210
 1365SOL    MW4 5508   2.913   3.082   2.654 -0.1941  0.4742 -0.2038
 1366SOL     OW 5509   2.902   3.088   2.376  0.6496  0.0613  0.0494
 1366SOL    HW2 5510   2.825   3.117   2.327  1.1916 -0.1873 -0.9714
 1366SOL    HW3 5511   2.974   3.140   2.341  1.0928 -0.3152  0.3939
 1366SOL    MW4 5512   2.902   3.098   2.365  0.7794 -0.0210 -0.0401
 1367SOL     OW 5513   2.678   3.203   2.237  0.7128 -0.3656 -0.1663
 1367SOL    HW2 5514   2.674   3.294   2.265  0.7494 -0.4480  0.1061
 1367SOL    HW3 5515   2.653   3.205   2.145 -0.5918 -0.2466  0.1923
 1367SOL    MW4 5516   2.674   3.215   2.229  0.5457 -0.3607 -0.0830
 1368SOL     OW 5517   2.676   3.476   2.326 -0.4129 -0.1968  0.2522
 1368SOL    HW2 5518   2.743   3.535   2.292  0.5949 -1.4333  0.0783
 1368SOL    HW3 5519   2.594   3.511   2.291  0.2016  0.9048 -0.1177
 1368SOL    MW4 5520   2.674   3.488   2.317 -0.1986 -0.2143  0.1802
 1369SOL     OW 5521   2.918   3.910   2.343  0.0014 -0.1633  0.2181
 1369SOL    HW2 5522   2.912   3.896   2.437 -1.0205 -0.0643  0.1749
 1369SOL    HW3 5523   2.834   3.948   2.319  0.7356  1.0324 -0.5263
 1369SOL    MW4 5524   2.906   3.913   2.352 -0.0367  0.0076  0.1144
 1370SOL     OW 5525   2.689   4.025   2.032  0.2566 -0.9449 -0.1026
 1370SOL    HW2 5526   2.608   3.993   1.992 -1.0412  1.1128  0.7748
 1370SOL    HW3 5527   2.759   3.987   1.979 -1.2599 -3.0041 -0.6997
 1370SOL    MW4 5528   2.687   4.015   2.020 -0.1147 -0.9451 -0.0656
 1371SOL     OW 5529   2.745   4.276   2.391  0.1992  0.0362 -0.2899
 1371SOL    HW2 5530   2.728   4.290   2.484  2.0150  0.6545 -0.0253
 1371SOL    HW3 5531   2.716   4.186   2.374  0.3534 -0.2665  0.9954
 1371SOL    MW4 5532   2.739   4.266   2.401  0.4592  0.0787 -0.0854
 1372SOL     OW 5533   2.957   4.409   2.268 -0.0803  0.4151 -0.1470
 1372SOL    HW2 5534   3.029   4.364   2.313 -0.7274 -0.7525 -0.2818
 1372SOL    HW3 5535   2.878   4.369   2.303 -0.6381  0.7316 -1.0292
 1372SOL    MW4 5536   2.956   4.398   2.279 -0.2394  0.3023 -0.2811
 1373SOL     OW 5537   3.386   4.665   2.646  0.3118 -0.1957  0.6269
 1373SOL    HW2 5538   3.392   4.573   2.669 -0.9100 -0.3148  0.5050
 1373SOL    HW3 5539   3.299   4.691   2.675  0.1254  0.5649 -0.5965
 1373SOL    MW4 5540   3.376   4.656   2.653  0.1259 -0.1111  0.4494
 1374SOL     OW 5541   3.158   0.129   2.220 -0.2817 -0.0397  0.0264
 1374SOL    HW2 5542   3.219   0.080   2.275  0.4558  1.1833  0.3378
 1374SOL    HW3 5543   3.154   0.216   2.261 -2.4714 -0.1779  0.1839
 1374SOL    MW4 5544   3.166   0.134   2.233 -0.4733  0.1034  0.0885
 1375SOL     OW 5545   3.164   0.379   2.342  0.1499  0.0536 -0.3986
 1375SOL    HW2 5546   3.247   0.425   2.328  0.2099  0.3436  0.8903
 1375SOL    HW3 5547   3.098   0.437   2.304  0.4105  0.3943 -0.3328
 1375SOL    MW4 5548   3.166   0.393   2.335  0.1924  0.1369 -0.2201
 1376SOL     OW 5549   3.373   0.801   2.405 -0.2905  0.3227 -0.0851
 1376SOL    HW2 5550   3.379   0.713   2.367  0.1043  0.0703  0.5379
 1376SOL    HW3 5551   3.450   0.847   2.372 -0.1171  0.2038  0.1468
 1376SOL    MW4 5552   3.384   0.795   2.396 -0.2155  0.2737  0.0277
 1377SOL     OW 5553   3.353   0.728   2.687  0.2364  0.1729 -0.1916
 1377SOL    HW2 5554   3.442   0.757   2.706 -0.1034  0.9566  0.2643
 1377SOL    HW3 5555   3.341   0.746   2.594 -0.4866  3.0269  0.3980
 1377SOL    MW4 5556   3.363   0.734   2.677  0.0963  0.6529 -0.0539
 1378SOL     OW 5557   3.188   0.893   2.205  0.4811 -0.2583  0.3712
 1378SOL    HW2 5558   3.255   0.864   2.267  0.6559 -0.4023  0.1147
 1378SOL    HW3 5559   3.105   0.870   2.247  0.6119 -0.8121  0.3258
 1378SOL    MW4 5560   3.186   0.886   2.219  0.5212 -0.3504  0.3312
 1379SOL     OW 5561   3.157   1.156   2.312  0.1076 -0.0245  0.2248
 1379SOL    HW2 5562   3.233   1.197   2.270  0.3825 -0.2434  0.5083
 1379SOL    HW3 5563   3.158   1.066   2.279  0.0043 -0.0439  0.2771
 1379SOL    MW4 5564   3.167   1.150   2.302  0.1304 -0.0559  0.2689
 1380SOL     OW 5565   3.411   1.299   2.244  0.1840  0.0628  0.0980
 1380SOL    HW2 5566   3.485   1.267   2.296  0.3965  0.9275  0.3298
 1380SOL    HW3 5567   3.399   1.390   2.272  1.2409  1.0035 -2.4079
 1380SOL    MW4 5568   3.419   1.306   2.255  0.3514  0.3009 -0.2017
 1381SOL     OW 5569   3.384   1.555   2.328 -0.2719  0.6587 -0.0986
 1381SOL    HW2 5570   3.392   1.583   2.419  2.0832  0.4312 -0.2049
 1381SOL    HW3 5571   3.302   1.594   2.297 -1.2420  0.4742  2.1917
 1381SOL    MW4 5572   3.374   1.564   2.336 -0.0892  0.6043  0.1895
 1382SOL     OW 5573   3.136   1.632   2.231  0.5606  0.3934 -0.0284
 1382SOL    HW2 5574   3.125   1.725   2.248  1.1497  0.7827 -1.5995
 1382SOL    HW3 5575   3.052   1.593   2.251  0.2770  1.2907  0.5346
 1382SOL    MW4 5576   3.124   1.639   2.236  0.6011  0.5631 -0.1612
 1383SOL     OW 5577   3.146   1.903   2.318  0.5012 -0.4653  0.2310
 1383SOL    HW2 5578   3.131   1.919   2.412  1.9537 -0.5861  0.4942
 1383SOL    HW3 5579   3.218   1.961   2.295 -0.9893  0.8300 -1.2381
 1383SOL    MW4 5580   3.153   1.913   2.328  0.4961 -0.3104  0.0718
 1384SOL     OW 5581   3.376   2.064   2.259  0.0158 -0.1825  0.2599
 1384SOL    HW2 5582   3.452   2.014   2.289 -0.4353 -0.8741  0.2600
 1384SOL    HW3 5583   3.374   2.050   2.164 -0.6499 -0.9177  0.3823
 1384SOL    MW4 5584   3.386   2.056   2.250 -0.1316 -0.3710  0.2761
 1385SOL     OW 5585   3.383   2.332   2.328  0.0490  0.3676  0.0897
 1385SOL    HW2 5586   3.310   2.376   2.285 -0.9974 -0.5459  0.8875
 1385SOL    HW3 5587   3.381   2.243   2.291  1.5655  0.7156 -0.8399
 1385SOL    MW4 5588   3.373   2.326   2.317  0.1109  0.2930  0.0722
 1386SOL     OW 5589   2.915   2.314   2.335  0.3291 -0.2661 -0.1593
 1386SOL    HW2 5590   2.913   2.307   2.431  0.7014  1.5943 -0.0033
 1386SOL    HW3 5591   2.911   2.223   2.305 -1.5399 -0.8203  1.5880
 1386SOL    MW4 5592   2.914   2.301   2.344  0.1316 -0.0939  0.0918
 1387SOL     OW 5593   3.153   2.437   2.222 -0.2523  0.3308  0.0865
 1387SOL    HW2 5594   3.082   2.398   2.274 -1.0883  1.1911 -0.3830
 1387SOL    HW3 5595   3.140   2.531   2.232  0.4800  0.4933 -0.4859
 1387SOL    MW4 5596   3.142   2.444   2.230 -0.2658  0.4659 -0.0510
 1388SOL     OW 5597   3.360   2.836   2.259  0.2642 -0.0507 -0.2709
 1388SOL    HW2 5598   3.349   2.923   2.298  1.0510  1.0995 -2.5187
 1388SOL    HW3 5599   3.282   2.787   2.285 -1.1829  1.9939 -0.7049
 1388SOL    MW4 5600   3.348   2.841   2.268  0.1771  0.3710 -0.6247
 1389SOL     OW 5601   3.364   3.093   2.381 -0.1359  0.5673  0.1964
 1389SOL    HW2 5602   3.451   3.116   2.349 -0.6821  2.6657  0.1065
 1389SOL    HW3 5603   3.304   3.142   2.324 -1.3140  0.2506  1.1455
 1389SOL    MW4 5604   3.367   3.103   2.369 -0.3633  0.8025  0.3099
 1390SOL     OW 5605   3.134   3.215   2.268 -0.5798  0.0981  0.0910
 1390SOL    HW2 5606   3.123   3.307   2.291  0.2666  0.4115 -0.7005
 1390SOL    HW3 5607   3.136   3.214   2.172 -0.2625 -0.7018  0.0999
 1390SOL    MW4 5608   3.133   3.227   2.258 -0.4263  0.0341 -0.0124
 1391SOL     OW 5609   3.131   3.481   2.347  0.4733  0.7010  0.1284
 1391SOL    HW2 5610   3.150   3.489   2.441  1.1289 -0.5593  0.1168
 1391SOL    HW3 5611   3.206   3.522   2.304  1.1034 -0.4106  0.1417
 1391SOL    MW4 5612   3.143   3.487   2.354  0.6430  0.3879  0.1287
 1392SOL     OW 5613   3.372   3.570   2.267 -0.3789 -0.4611 -0.3742
 1392SOL    HW2 5614   3.446   3.514   2.293  0.1857  0.4750  0.0629
 1392SOL    HW3 5615   3.374   3.568   2.171  1.1561  0.7563 -0.3914
 1392SOL    MW4 5616   3.382   3.562   2.258 -0.1016 -0.1767 -0.3190
 1393SOL     OW 5617   3.350   3.828   2.364 -0.0864 -0.2598 -0.1395
 1393SOL    HW2 5618   3.421   3.887   2.339 -0.5056 -0.2417 -1.3094
 1393SOL    HW3 5619   3.385   3.740   2.349 -0.0506 -0.2664 -0.0152
 1393SOL    MW4 5620   3.364   3.824   2.359 -0.1369 -0.2582 -0.2775
 1394SOL     OW 5621   3.171   4.029   2.297  0.2889  0.2473 -0.7221
 1394SOL    HW2 5622   3.238   3.960   2.304  0.9138  1.0487  1.8184
 1394SOL    HW3 5623   3.089   3.985   2.316  0.2557 -0.4770 -2.5128
 1394SOL    MW4 5624   3.169   4.014   2.301  0.3669  0.2575 -0.6232
 1395SOL     OW 5625   3.151   4.290   2.400 -0.2681 -0.0397  0.3278
 1395SOL    HW2 5626   3.235   4.328   2.375 -0.5340  0.3626  0.0566
 1395SOL    HW3 5627   3.152   4.202   2.362 -0.6454  0.5369 -1.0488
 1395SOL    MW4 5628   3.162   4.283   2.392 -0.3531  0.0892  0.1104
 1396SOL     OW 5629   3.360   4.655   2.372 -0.2630  0.1733 -0.5382
 1396SOL    HW2 5630   3.364   4.655   2.468  0.3266 -0.5952 -0.5594
 1396SOL    HW3 5631   3.434   4.709   2.345 -0.0586 -0.1300 -0.5784
 1396SOL    MW4 5632   3.370   4.662   2.381 -0.1583  0.0319 -0.5465
 1397SOL     OW 5633   3.807   4.634   2.356 -0.6557  0.7208 -0.1958
 1397SOL    HW2 5634   3.887   4.682   2.336  0.4459 -0.7510  0.5905
 1397SOL    HW3 5635   3.794   4.647   2.450 -0.2035 -0.7072  0.0763
 1397SOL    MW4 5636   3.816   4.642   2.366 -0.4504  0.3381 -0.0563
 1398SOL     OW 5637   3.571   0.128   2.276  0.0729 -0.2094  0.1879
 1398SOL    HW2 5638   3.573   0.216   2.315  0.6893 -0.3862  0.5661
 1398SOL    HW3 5639   3.647   0.084   2.314  0.5177 -0.4831 -1.0034
 1398SOL    MW4 5640   3.581   0.134   2.286  0.2129 -0.2688  0.0806
 1399SOL     OW 5641   3.378   0.548   2.315 -0.4456  0.3654  0.3650
 1399SOL    HW2 5642   3.456   0.503   2.346 -1.7927 -1.7416  0.7744
 1399SOL    HW3 5643   3.379   0.535   2.220 -0.3841  0.2410  0.3834
 1399SOL    MW4 5644   3.388   0.541   2.307 -0.6151  0.0709  0.4215
 1400SOL     OW 5645   3.833   0.574   2.006  0.2022  0.0063 -0.0613
 1400SOL    HW2 5646   3.836   0.654   1.953  0.1082 -0.7549 -1.2292
 1400SOL    HW3 5647   3.761   0.523   1.968 -0.1866 -0.3284  1.1115
 1400SOL    MW4 5648   3.824   0.578   1.994  0.1383 -0.1383 -0.0607
 1401SOL     OW 5649   3.598   0.390   2.360  0.0833 -0.3462  0.5030
 1401SOL    HW2 5650   3.595   0.379   2.455  1.7748 -0.4299  0.5628
 1401SOL    HW3 5651   3.677   0.443   2.344  1.7140 -3.1086 -1.0694
 1401SOL    MW4 5652   3.608   0.395   2.370  0.5217 -0.7217  0.3035
 1402SOL     OW 5653   3.587   0.903   2.282  0.4968  0.0429 -0.1404
 1402SOL    HW2 5654   3.668   0.861   2.312  0.8500  0.7550 -0.0730
 1402SOL    HW3 5655   3.595   0.903   2.186 -0.1576 -1.3007 -0.2149
 1402SOL    MW4 5656   3.599   0.897   2.273  0.4570 -0.0405 -0.1411
 1403SOL     OW 5657   3.382   1.347   2.717  0.0766  0.1221  0.4235
 1403SOL    HW2 5658   3.307   1.294   2.691 -1.0449  1.3396  1.1153
 1403SOL    HW3 5659   3.401   1.321   2.807  0.3470 -0.0312  0.3230
 1403SOL    MW4 5660   3.375   1.337   2.725 -0.0358  0.2624  0.5014
 1404SOL     OW 5661   3.628   1.155   2.380 -0.2741  0.7134  0.1295
 1404SOL    HW2 5662   3.606   1.147   2.473  0.2185  0.6470  0.2412
 1404SOL    HW3 5663   3.619   1.066   2.346  3.5479 -0.0904  1.0062
 1404SOL    MW4 5664   3.624   1.142   2.388  0.2952  0.5984  0.2599
 1405SOL     OW 5665   3.837   1.286   2.250  0.1428  0.3457  0.3777
 1405SOL    HW2 5666   3.764   1.248   2.299  0.5400 -0.8904  0.0398
 1405SOL    HW3 5667   3.846   1.374   2.284 -0.9708  0.2222  1.0144
 1405SOL    MW4 5668   3.829   1.292   2.261  0.0482  0.1664  0.4172
 1406SOL     OW 5669   3.634   1.639   2.240 -0.0410  0.3387 -0.0641
 1406SOL    HW2 5670   3.551   1.601   2.269 -0.9182  2.4916  0.3373
 1406SOL    HW3 5671   3.628   1.640   2.144 -0.3772  0.2689 -0.0432
 1406SOL    MW4 5672   3.622   1.634   2.231 -0.2010  0.6136 -0.0086
 1407SOL     OW 5673   3.590   1.898   2.336  0.5748 -0.2699  0.1858
 1407SOL    HW2 5674   3.662   1.944   2.291  0.2252  0.7167  0.6288
 1407SOL    HW3 5675   3.595   1.808   2.302  1.1816  0.1177 -0.7888
 1407SOL    MW4 5676   3.600   1.892   2.325  0.6087 -0.0886  0.1154
 1408SOL     OW 5677   3.799   2.050   2.221  0.1025  0.5808 -0.1073
 1408SOL    HW2 5678   3.881   2.010   2.246 -0.5761 -0.7645 -0.0096
 1408SOL    HW3 5679   3.806   2.063   2.126  0.7010  1.1352  0.0095
 1408SOL    MW4 5680   3.811   2.047   2.212  0.0918  0.4766 -0.0792
 1409SOL     OW 5681   3.816   2.321   2.635 -0.0097  0.4373  0.1202
 1409SOL    HW2 5682   3.824   2.313   2.540  1.0986  0.2735  0.2248
 1409SOL    HW3 5683   3.840   2.235   2.669 -0.3015  0.5270  0.5588
 1409SOL    MW4 5684   3.820   2.309   2.627  0.0980  0.4275  0.1919
 1410SOL     OW 5685   3.834   2.307   2.366  0.2587 -0.0079 -0.2574
 1410SOL    HW2 5686   3.824   2.219   2.330  0.7081 -0.3241  0.3815
 1410SOL    HW3 5687   3.757   2.354   2.335 -0.0307 -0.6527 -0.5300
 1410SOL    MW4 5688   3.823   2.301   2.357  0.2799 -0.1349 -0.2091
 1411SOL     OW 5689   3.589   2.707   2.377  0.8389 -0.2713 -0.5751
 1411SOL    HW2 5690   3.598   2.620   2.339 -0.9637 -0.9879  0.5346
 1411SOL    HW3 5691   3.504   2.738   2.345  0.1991 -0.0880  1.2528
 1411SOL    MW4 5692   3.579   2.700   2.368  0.5164 -0.3414 -0.1874
 1412SOL     OW 5693   3.821   2.792   2.250 -0.2574  0.4874 -0.4417
 1412SOL    HW2 5694   3.828   2.880   2.288  0.4679  1.1065 -1.9506
 1412SOL    HW3 5695   3.749   2.751   2.297  0.3039  1.3933  1.2571
 1412SOL    MW4 5696   3.813   2.798   2.261 -0.0877  0.6888 -0.4165
 1413SOL     OW 5697   3.820   3.049   2.339 -0.2060  0.0846  0.5095
 1413SOL    HW2 5698   3.811   3.054   2.434 -1.2324  0.2267  0.4181
 1413SOL    HW3 5699   3.891   3.110   2.318 -0.6224  0.7930  1.0986
 1413SOL    MW4 5700   3.828   3.058   2.349 -0.3963  0.1969  0.5751
 1414SOL     OW 5701   3.584   3.175   2.235  0.1129 -0.2186  0.6177
 1414SOL    HW2 5702   3.587   3.266   2.264 -0.1395 -0.2231  0.6613
 1414SOL    HW3 5703   3.668   3.138   2.263  0.7422  0.3305 -0.5025
 1414SOL    MW4 5704   3.596   3.182   2.243  0.1626 -0.1469  0.4756
 1415SOL     OW 5705   3.610   3.437   2.333 -0.8408  0.4456  0.4329
 1415SOL    HW2 5706   3.603   3.438   2.428  1.1760 -3.9080  0.7766
 1415SOL    HW3 5707   3.687   3.491   2.314 -1.7387  2.0114  1.1676
 1415SOL    MW4 5708   3.619   3.444   2.343 -0.6931  0.0777  0.5751
 1416SOL     OW 5709   3.827   3.587   2.261 -0.6376 -0.2367 -0.0468
 1416SOL    HW2 5710   3.818   3.680   2.283  0.8552 -0.2560  0.6896
 1416SOL    HW3 5711   3.825   3.584   2.166 -0.4425  0.5697 -0.0763
 1416SOL    MW4 5712   3.825   3.599   2.251 -0.4151 -0.1330  0.0467
 1417SOL     OW 5713   3.786   3.849   2.368 -0.2077  0.0929  0.0236
 1417SOL    HW2 5714   3.810   3.833   2.459 -1.4832 -1.2452  0.1475
 1417SOL    HW3 5715   3.852   3.911   2.336  0.9113 -0.2989  1.5239
 1417SOL    MW4 5716   3.798   3.855   2.376 -0.2284 -0.1354  0.2379
 1418SOL     OW 5717   3.539   3.997   2.291  0.5172 -0.2429 -0.3715
 1418SOL    HW2 5718   3.554   4.089   2.313  2.0628 -0.4761 -0.3953
 1418SOL    HW3 5719   3.616   3.952   2.327 -1.0789 -1.7597  1.1969
 1418SOL    MW4 5720   3.551   4.003   2.299  0.5109 -0.4740 -0.1676
 1419SOL     OW 5721   3.601   4.254   2.390  0.1895 -0.0668  0.0887
 1419SOL    HW2 5722   3.685   4.289   2.361  0.8389 -0.9374  0.8780
 1419SOL    HW3 5723   3.535   4.306   2.343  1.1487  1.3035  0.2505
 1419SOL    MW4 5724   3.603   4.265   2.380  0.4013 -0.0005  0.2143
 1420SOL     OW 5725   3.817   4.378   2.277 -0.0890 -0.1656 -0.5412
 1420SOL    HW2 5726   3.887   4.334   2.324 -1.0371 -1.0458  0.0843
 1420SOL    HW3 5727   3.820   4.469   2.306 -0.5923 -0.6733  1.1538
 1420SOL    MW4 5728   3.827   4.384   2.287 -0.2804 -0.3481 -0.2351
 1421SOL     OW 5729   4.239   4.640   2.353  0.0015  0.3981  0.4433
 1421SOL    HW2 5730   4.239   4.633   2.448  1.6778 -0.9139  0.3775
 1421SOL    HW3 5731   4.328   4.667   2.330  0.1124 -0.9168 -0.8260
 1421SOL    MW4 5732   4.250   4.643   2.362  0.2375  0.0515  0.2670
 1422SOL     OW 5733   4.043   0.125   2.258 -0.2176  0.4389 -0.2491
 1422SOL    HW2 5734   4.060   0.209   2.301 -1.1215  1.2959 -1.5093
 1422SOL    HW3 5735   4.120   0.072   2.277  0.2526  1.4681  0.7784
 1422SOL    MW4 5736   4.055   0.129   2.266 -0.2751  0.6878 -0.2797
 1423SOL     OW 5737   3.837   0.524   2.294  0.8921  0.0323  0.3531
 1423SOL    HW2 5738   3.835   0.529   2.198 -0.1131 -0.3679  0.3472
 1423SOL    HW3 5739   3.826   0.615   2.323 -0.0198  0.0115  0.0920
 1423SOL    MW4 5740   3.835   0.537   2.285  0.6394 -0.0232  0.3178
 1424SOL     OW 5741   4.052   0.356   2.409 -0.3138 -0.0554 -0.3891
 1424SOL    HW2 5742   3.979   0.411   2.381  0.1818  0.9340  0.2242
 1424SOL    HW3 5743   4.129   0.400   2.376  0.2386  0.7916  1.9418
 1424SOL    MW4 5744   4.052   0.369   2.401 -0.1755  0.1869 -0.0007
 1425SOL     OW 5745   4.067   0.890   2.303 -0.6677  0.3898 -0.3941
 1425SOL    HW2 5746   4.080   0.890   2.208 -1.7356  1.7666 -0.5410
 1425SOL    HW3 5747   4.059   0.982   2.326 -0.8436  0.0337  0.9772
 1425SOL    MW4 5748   4.068   0.902   2.293 -0.8316  0.5245 -0.2325
 1426SOL     OW 5749   3.824   0.800   2.368  0.9143  0.1701  0.1443
 1426SOL    HW2 5750   3.834   0.813   2.462  2.5505  2.5788 -0.3059
 1426SOL    HW3 5751   3.909   0.827   2.331  0.2959 -0.7285 -2.0050
 1426SOL    MW4 5752   3.837   0.805   2.376  1.0483  0.3693 -0.1986
 1427SOL     OW 5753   4.069   1.169   2.348 -0.0509  0.2239 -0.3812
 1427SOL    HW2 5754   4.059   1.192   2.440 -0.5830 -0.1222 -0.3485
 1427SOL    HW3 5755   3.999   1.217   2.304 -1.7738 -2.0309 -0.1857
 1427SOL    MW4 5756   4.058   1.178   2.354 -0.3490 -0.1193 -0.3514
 1428SOL     OW 5757   4.296   1.282   2.254 -0.8427  0.0178  0.2386
 1428SOL    HW2 5758   4.225   1.225   2.281 -0.3416 -1.0574 -0.6676
 1428SOL    HW3 5759   4.374   1.245   2.297 -0.3563 -0.5673 -1.1433
 1428SOL    MW4 5760   4.297   1.270   2.264 -0.7124 -0.2012 -0.0634
 1429SOL     OW 5761   4.311   1.568   2.319  0.2157  0.0604  0.1514
 1429SOL    HW2 5762   4.309   1.474   2.302 -0.1381 -0.0787  0.9530
 1429SOL    HW3 5763   4.400   1.595   2.295 -0.0895 -0.2279 -1.3480
 1429SOL    MW4 5764   4.322   1.560   2.314  0.1287  0.0041  0.0591
 1430SOL     OW 5765   4.054   1.654   2.217 -0.4655  0.5232 -0.0495
 1430SOL    HW2 5766   3.981   1.621   2.270 -0.3620 -0.0257 -0.2411
 1430SOL    HW3 5767   4.132   1.629   2.266 -0.4250  1.7861  0.5358
 1430SOL    MW4 5768   4.055   1.646   2.230 -0.4463  0.6175  0.0024
 1431SOL     OW 5769   4.033   1.930   2.318  0.0636 -0.3690  0.5711
 1431SOL    HW2 5770   4.030   1.911   2.412 -1.7775 -0.1630  0.5612
 1431SOL    HW3 5771   4.032   1.844   2.276  0.3235 -0.4457  0.7172
 1431SOL    MW4 5772   4.033   1.916   2.325 -0.1454 -0.3520  0.5891
 1432SOL     OW 5773   4.298   2.013   2.293  0.6711  0.1411  0.3904
 1432SOL    HW2 5774   4.291   2.099   2.333  0.1015  0.0376  0.5190
 1432SOL    HW3 5775   4.210   1.977   2.298  0.8904 -0.4167  0.2630
 1432SOL    MW4 5776   4.285   2.020   2.299  0.6247  0.0541  0.3905
 1433SOL     OW 5777   4.267   2.275   2.393  0.4567 -0.9395  0.1592
 1433SOL    HW2 5778   4.195   2.326   2.356  0.4809 -1.4632 -0.6386
 1433SOL    HW3 5779   4.346   2.319   2.362  0.4845 -0.7262  0.5240
 1433SOL    MW4 5780   4.268   2.287   2.384  0.4635 -0.9804  0.1020
 1434SOL     OW 5781   4.079   2.431   2.285  0.0784  0.0584  0.2384
 1434SOL    HW2 5782   3.995   2.394   2.310 -0.5465 -0.2367 -2.1639
 1434SOL    HW3 5783   4.082   2.517   2.326 -0.9637 -0.3295  1.1254
 1434SOL    MW4 5784   4.069   2.438   2.294 -0.1416 -0.0315  0.0384
 1435SOL     OW 5785   4.059   2.681   2.347  0.5419  0.1575 -0.0768
 1435SOL    HW2 5786   4.035   2.697   2.438  0.9769  1.7607 -0.2164
 1435SOL    HW3 5787   3.981   2.706   2.297  0.8169  0.7504 -0.2220
 1435SOL    MW4 5788   4.046   2.687   2.352  0.6356  0.4473 -0.1142
 1436SOL     OW 5789   4.279   2.830   2.239  0.0055 -0.3079 -0.0799
 1436SOL    HW2 5790   4.205   2.782   2.275 -0.9075 -0.1912 -1.7842
 1436SOL    HW3 5791   4.356   2.785   2.276 -0.8844 -0.7361  1.2905
 1436SOL    MW4 5792   4.280   2.818   2.249 -0.2327 -0.3490 -0.1240
 1437SOL     OW 5793   4.248   3.066   2.385  0.0396 -0.3404  0.2215
 1437SOL    HW2 5794   4.269   2.976   2.360  0.4882  0.0213 -0.7343
 1437SOL    HW3 5795   4.321   3.118   2.350 -1.5883  0.7356 -1.6508
 1437SOL    MW4 5796   4.260   3.061   2.377 -0.1159 -0.1507 -0.1514
 1438SOL     OW 5797   4.030   3.213   2.298 -0.0462  0.3492 -0.1160
 1438SOL    HW2 5798   4.012   3.290   2.352 -1.0832 -0.9777  1.4603
 1438SOL    HW3 5799   4.101   3.168   2.343  1.4565  1.0377 -1.7384
 1438SOL    MW4 5800   4.037   3.218   2.311  0.0153  0.2649 -0.1221
 1439SOL     OW 5801   4.038   3.464   2.420  0.4447 -0.1708  0.5461
 1439SOL    HW2 5802   4.125   3.488   2.389  0.2271  0.4980  0.4348
 1439SOL    HW3 5803   3.978   3.509   2.360  0.0275 -0.3301  0.8404
 1439SOL    MW4 5804   4.041   3.473   2.408  0.3614 -0.1035  0.5701
 1440SOL     OW 5805   4.244   3.616   2.282  1.0904  0.1829  0.5254
 1440SOL    HW2 5806   4.234   3.710   2.299 -1.2042  0.1590 -0.4564
 1440SOL    HW3 5807   4.251   3.610   2.187 -0.7800 -0.7697  0.4238
 1440SOL    MW4 5808   4.243   3.628   2.272  0.5407  0.0541  0.3822
 1441SOL     OW 5809   4.236   3.881   2.356  0.6642  0.6979 -0.1333
 1441SOL    HW2 5810   4.249   3.876   2.451  0.4073  1.2839 -0.0663
 1441SOL    HW3 5811   4.305   3.941   2.326 -0.6084  2.2441 -0.0294
 1441SOL    MW4 5812   4.247   3.888   2.365  0.4621  0.9792 -0.1109
 1442SOL     OW 5813   3.993   4.003   2.258  0.2612  0.2852  0.1449
 1442SOL    HW2 5814   4.063   3.939   2.264  1.4724  1.4555 -1.3377
 1442SOL    HW3 5815   3.990   4.028   2.166 -1.0397  1.4294  0.4747
 1442SOL    MW4 5816   4.002   3.998   2.247  0.2494  0.5906 -0.0072
 1443SOL     OW 5817   4.036   4.253   2.374 -0.4932 -0.1220 -0.1153
 1443SOL    HW2 5818   4.108   4.287   2.322  0.1345 -0.2148  0.6848
 1443SOL    HW3 5819   4.030   4.161   2.349  0.9462 -0.6073  1.2318
 1443SOL    MW4 5820   4.045   4.245   2.364 -0.2203 -0.1984  0.1681
 1444SOL     OW 5821   4.238   4.395   2.265  0.0245 -0.9391 -0.2961
 1444SOL    HW2 5822   4.224   4.478   2.311 -2.0083 -1.6453  0.4214
 1444SOL    HW3 5823   4.327   4.369   2.289  0.1938  0.3691  0.5467
 1444SOL    MW4 5824   4.248   4.403   2.275 -0.2213 -0.8597 -0.0901
 1445SOL     OW 5825   0.193   0.032   2.638 -0.1300 -0.2529 -0.1993
 1445SOL    HW2 5826   0.199  -0.047   2.691 -1.4947  0.0730  0.4852
 1445SOL    HW3 5827   0.108   0.069   2.662 -0.5357  0.1739 -2.2388
 1445SOL    MW4 5828   0.182   0.026   2.648 -0.3636 -0.1536 -0.3779
 1446SOL     OW 5829   4.451   0.153   2.722  0.6783 -0.1391  0.1058
 1446SOL    HW2 5830   4.447   0.151   2.817 -1.0344 -1.0110  0.0259
 1446SOL    HW3 5831   4.454   0.247   2.700  0.4108  0.0814  0.9831
 1446SOL    MW4 5832   4.451   0.165   2.731  0.4172 -0.2251  0.2110
 1447SOL     OW 5833   4.472   0.416   2.644 -0.2965  0.0743 -0.1737
 1447SOL    HW2 5834   4.477   0.383   2.555  0.9058  1.0493 -0.4800
 1447SOL    HW3 5835   4.561   0.445   2.664 -0.3350 -1.0451  1.6919
 1447SOL    MW4 5836   4.484   0.416   2.635 -0.1431  0.0552  0.0319
 1448SOL     OW 5837   0.235   0.519   2.710  0.2840  0.3462 -0.2328
 1448SOL    HW2 5838   0.222   0.518   2.805 -1.4106 -1.6066 -0.4275
 1448SOL    HW3 5839   0.313   0.465   2.696 -1.2814 -2.0183 -0.1195
 1448SOL    MW4 5840   0.244   0.512   2.720 -0.1461 -0.2235 -0.2434
 1449SOL     OW 5841   0.206   0.776   2.634 -0.2299 -0.3445  0.3064
 1449SOL    HW2 5842   0.138   0.824   2.682 -2.4118 -1.4681 -1.5951
 1449SOL    HW3 5843   0.198   0.686   2.665  0.2357 -0.5312 -0.1108
 1449SOL    MW4 5844   0.196   0.771   2.644 -0.4564 -0.5174  0.0002
 1450SOL     OW 5845   0.003   0.913   2.767 -0.3653  0.0354  0.2001
 1450SOL    HW2 5846  -0.076   0.863   2.744  0.6266 -1.3862 -0.1751
 1450SOL    HW3 5847  -0.015   1.001   2.736 -2.2921  0.0240  1.1589
 1450SOL    MW4 5848  -0.010   0.918   2.760 -0.4886 -0.1538  0.2770
 1451SOL     OW 5849   4.259   1.310   2.754  0.0891 -0.0150 -0.3824
 1451SOL    HW2 5850   4.295   1.326   2.841 -0.4377  0.7636 -0.3001
 1451SOL    HW3 5851   4.259   1.396   2.712 -2.4439  0.1768 -0.0922
 1451SOL    MW4 5852   4.264   1.324   2.760 -0.3147  0.1130 -0.3333
 1452SOL     OW 5853   0.222   1.249   2.745  0.5351  0.0050 -0.1416
 1452SOL    HW2 5854   0.296   1.197   2.714  1.3119  0.9295  0.1519
 1452SOL    HW3 5855   0.239   1.337   2.711 -0.2518  0.2988  0.2263
 1452SOL    MW4 5856   0.234   1.254   2.736  0.5337  0.1657 -0.0544
 1453SOL     OW 5857   0.255   1.520   2.686 -0.1732  0.7735  0.0789
 1453SOL    HW2 5858   0.335   1.565   2.713 -0.1543 -0.2986  1.8810
 1453SOL    HW3 5859   0.185   1.563   2.735 -0.4135  0.2319  0.2166
 1453SOL    MW4 5860   0.257   1.531   2.696 -0.2025  0.5605  0.3347
 1454SOL     OW 5861   0.007   1.641   2.759  0.2116  0.2068  0.2482
 1454SOL    HW2 5862   0.001   1.654   2.854 -1.8216  1.3701 -0.0148
 1454SOL    HW3 5863   0.025   1.728   2.724 -0.5856  0.0628 -0.5452
 1454SOL    MW4 5864   0.009   1.654   2.767 -0.1618  0.3412  0.1087
 1455SOL     OW 5865   0.007   1.910   2.699  0.4319 -0.3145 -0.0363
 1455SOL    HW2 5866   0.094   1.946   2.720  0.4847 -0.1440 -0.5442
 1455SOL    HW3 5867   0.012   1.891   2.606 -0.2471  0.1642 -0.1724
 1455SOL    MW4 5868   0.019   1.913   2.690  0.3492 -0.2289 -0.1214
 1456SOL     OW 5869   0.242   2.022   2.757 -0.0895  0.3613  0.0837
 1456SOL    HW2 5870   0.326   1.983   2.736 -0.3799 -1.0556  1.4638
 1456SOL    HW3 5871   0.246   2.111   2.721  2.5547  0.8341  1.4582
 1456SOL    MW4 5872   0.253   2.029   2.750  0.2210  0.2367  0.4473
 1457SOL     OW 5873   0.234   2.285   2.671  0.1110  0.0396  0.1940
 1457SOL    HW2 5874   0.313   2.338   2.675  0.1094  0.1207 -0.6638
 1457SOL    HW3 5875   0.164   2.343   2.701 -0.2599  1.2907 -2.8375
 1457SOL    MW4 5876   0.235   2.300   2.675  0.0619  0.2155 -0.3192
 1458SOL     OW 5877   4.484   2.423   2.769 -0.5810  0.2893  0.1091
 1458SOL    HW2 5878   4.406   2.381   2.733 -0.3882  0.1427 -0.1431
 1458SOL    HW3 5879   4.482   2.401   2.862  0.4829 -1.8466 -0.3325
 1458SOL    MW4 5880   4.473   2.415   2.777 -0.4148 -0.0119  0.0176
 1459SOL     OW 5881   4.486   2.686   2.690 -0.3657 -0.3013 -0.0817
 1459SOL    HW2 5882   4.404   2.734   2.700 -0.1333 -0.1730  1.3358
 1459SOL    HW3 5883   4.471   2.603   2.734  0.4070 -0.1019  0.5639
 1459SOL    MW4 5884   4.474   2.681   2.697 -0.2331 -0.2577  0.1905
 1460SOL     OW 5885   0.203   2.861   2.759 -0.4476  0.0158  0.1318
 1460SOL    HW2 5886   0.188   2.952   2.732 -1.0637 -0.3121 -0.6593
 1460SOL    HW3 5887   0.127   2.814   2.726  0.6621 -1.0764 -0.8754
 1460SOL    MW4 5888   0.191   2.867   2.751 -0.3825 -0.1714 -0.1054
 1461SOL     OW 5889   0.175   3.128   2.641  0.0031 -0.0950  0.1231
 1461SOL    HW2 5890   0.261   3.158   2.672  0.4020 -0.7862 -0.3047
 1461SOL    HW3 5891   0.187   3.115   2.547 -0.7829  0.5276 -0.0576
 1461SOL    MW4 5892   0.188   3.130   2.633 -0.0479 -0.1040  0.0427
 1462SOL     OW 5893   4.464   3.289   2.755  0.2642 -0.1932  0.3242
 1462SOL    HW2 5894   4.522   3.229   2.707 -1.6639 -1.9409  0.0917
 1462SOL    HW3 5895   4.377   3.253   2.742 -0.7370  1.6234  1.7929
 1462SOL    MW4 5896   4.460   3.276   2.747 -0.1221 -0.1841  0.4873
 1463SOL     OW 5897   4.455   3.530   2.638 -0.0987  0.1260  0.0539
 1463SOL    HW2 5898   4.536   3.564   2.675 -1.3108 -0.6513  3.5464
 1463SOL    HW3 5899   4.446   3.443   2.675 -1.5657 -0.5786 -1.8475
 1463SOL    MW4 5900   4.464   3.523   2.648 -0.4520 -0.0694  0.2635
 1464SOL     OW 5901   0.187   3.615   2.768  0.1666  0.0410 -0.5317
 1464SOL    HW2 5902   0.181   3.592   2.860  2.3739  1.6923  0.0682
 1464SOL    HW3 5903   0.264   3.567   2.736  0.6673  1.1032 -0.9696
 1464SOL    MW4 5904   0.196   3.606   2.776  0.5239  0.3989 -0.5105
 1465SOL     OW 5905   0.432   4.042   3.003  0.2014 -0.0001  0.0763
 1465SOL    HW2 5906   0.348   4.007   3.031 -0.0871  0.8026  0.2236
 1465SOL    HW3 5907   0.438   4.018   2.910 -1.1945  1.8144 -0.5321
 1465SOL    MW4 5908   0.422   4.034   2.994 -0.0209  0.3452  0.0155
 1466SOL     OW 5909   0.195   3.881   2.651  0.4242  0.0204  0.1275
 1466SOL    HW2 5910   0.182   3.860   2.559  1.7257  1.6628 -0.4496
 1466SOL    HW3 5911   0.198   3.796   2.695 -0.8259 -0.7442 -1.2443
 1466SOL    MW4 5912   0.194   3.867   2.645  0.4310  0.1359 -0.1297
 1467SOL     OW 5913   0.016   4.306   2.635  0.3510 -0.4853 -0.3652
 1467SOL    HW2 5914  -0.069   4.344   2.659 -0.0168 -0.8435 -1.1101
 1467SOL    HW3 5915   0.079   4.353   2.690 -0.3588 -0.4221  0.3979
 1467SOL    MW4 5916   0.013   4.317   2.646  0.2093 -0.5240 -0.3629
 1468SOL     OW 5917   0.217   4.446   2.761 -0.0282 -0.1362 -0.0535
 1468SOL    HW2 5918   0.225   4.436   2.856 -0.9136  0.3937  0.0811
 1468SOL    HW3 5919   0.285   4.389   2.726 -0.2370 -0.9839  0.8761
 1468SOL    MW4 5920   0.227   4.437   2.769 -0.1726 -0.1779  0.0865
 1469SOL     OW 5921   0.631   4.609   2.642  0.7545  0.2535  0.2692
 1469SOL    HW2 5922   0.708   4.655   2.677  0.4207  0.7302  0.3895
 1469SOL    HW3 5923   0.558   4.670   2.658  0.4897  0.1827 -0.6315
 1469SOL    MW4 5924   0.631   4.623   2.649  0.6755  0.3066  0.1662
 1470SOL     OW 5925   0.439   0.130   2.712 -0.1790 -0.4618  0.0383
 1470SOL    HW2 5926   0.421   0.141   2.806 -0.9318  0.7891 -0.2332
 1470SOL    HW3 5927   0.353   0.115   2.673 -0.2122  1.6137 -0.7671
 1470SOL    MW4 5928   0.425   0.129   2.720 -0.2827 -0.0229 -0.1037
 1471SOL     OW 5929   0.451   0.389   2.628  0.3890  0.1519  0.2155
 1471SOL    HW2 5930   0.510   0.436   2.688 -0.6157  0.1254  1.2454
 1471SOL    HW3 5931   0.460   0.297   2.653  1.6833 -0.1186 -1.2068
 1471SOL    MW4 5932   0.460   0.383   2.639  0.4272  0.1126  0.1636
 1472SOL     OW 5933   0.684   0.482   2.745  0.8170 -0.3702  0.2443
 1472SOL    HW2 5934   0.665   0.496   2.838  1.6141  0.7857  0.2466
 1472SOL    HW3 5935   0.689   0.571   2.709 -0.3638 -0.8368 -1.0812
 1472SOL    MW4 5936   0.682   0.496   2.753  0.7663 -0.2792  0.0694
 1473SOL     OW 5937   0.670   0.748   2.665 -0.7472  0.1735  0.3414
 1473SOL    HW2 5938   0.746   0.793   2.700 -1.4735  0.7935  1.1513
 1473SOL    HW3 5939   0.596   0.806   2.684 -1.6452 -1.1482  1.0700
 1473SOL    MW4 5940   0.670   0.761   2.672 -0.9616  0.0809  0.5443
 1474SOL     OW 5941   0.445   0.880   2.745 -0.4877 -0.0468  0.6121
 1474SOL    HW2 5942   0.441   0.968   2.708  0.7009 -0.7428 -1.3270
 1474SOL    HW3 5943   0.367   0.836   2.710 -0.6871  0.0274  0.9677
 1474SOL    MW4 5944   0.434   0.886   2.735 -0.3572 -0.1287  0.4032
 1475SOL     OW 5945   0.433   1.127   2.627 -0.4702  0.1253 -0.1626
 1475SOL    HW2 5946   0.515   1.172   2.648  0.7454 -1.8298 -0.5874
 1475SOL    HW3 5947   0.435   1.119   2.531 -0.8385 -0.4963 -0.1209
 1475SOL    MW4 5948   0.444   1.132   2.617 -0.3584 -0.2146 -0.2129
 1476SOL     OW 5949   0.661   1.293   2.729 -0.1775 -0.5721 -0.2385
 1476SOL    HW2 5950   0.661   1.303   2.825 -0.3465 -1.0239 -0.1888
 1476SOL    HW3 5951   0.747   1.258   2.708  0.1899  0.3878 -0.3477
 1476SOL    MW4 5952   0.672   1.290   2.739 -0.1513 -0.5052 -0.2463
 1477SOL     OW 5953   0.696   1.565   2.637 -0.4007 -0.3044  0.6763
 1477SOL    HW2 5954   0.614   1.596   2.675  0.4423 -0.1525  2.3942
 1477SOL    HW3 5955   0.699   1.472   2.658 -0.3180 -0.3933  0.2776
 1477SOL    MW4 5956   0.686   1.557   2.645 -0.2785 -0.2961  0.8504
 1478SOL     OW 5957   0.480   1.645   2.783 -0.0056  0.4440  0.4087
 1478SOL    HW2 5958   0.482   1.662   2.877 -1.1583 -0.6751  0.6497
 1478SOL    HW3 5959   0.483   1.731   2.743  0.7075  0.9162  1.4792
 1478SOL    MW4 5960   0.480   1.658   2.790 -0.0636  0.3586  0.5820
 1479SOL     OW 5961   0.475   1.904   2.673  0.1219 -0.1099 -0.4140
 1479SOL    HW2 5962   0.537   1.967   2.710 -2.5736  2.0822  0.5540
 1479SOL    HW3 5963   0.468   1.928   2.581 -0.2206  0.4273 -0.2476
 1479SOL    MW4 5964   0.482   1.915   2.666 -0.2789  0.2501 -0.2642
 1480SOL     OW 5965   0.703   2.091   2.728  0.3548  0.1508 -0.3555
 1480SOL    HW2 5966   0.713   2.078   2.823  0.6000 -1.1648 -0.5529
 1480SOL    HW3 5967   0.759   2.024   2.689 -0.4992  0.0587 -1.4434
 1480SOL    MW4 5968   0.712   2.081   2.735  0.2744 -0.0348 -0.5250
 1481SOL     OW 5969   1.110   2.331   2.628  0.1898 -0.3040 -0.3019
 1481SOL    HW2 5970   1.198   2.361   2.648 -0.3365  1.7290 -0.9466
 1481SOL    HW3 5971   1.107   2.325   2.532 -1.3940  3.0432 -0.5342
 1481SOL    MW4 5972   1.121   2.334   2.618 -0.0886  0.4060 -0.4175
 1482SOL     OW 5973   0.684   2.372   2.660 -0.3886  0.4888 -0.2430
 1482SOL    HW2 5974   0.761   2.409   2.702 -0.1931  0.4890 -0.5940
 1482SOL    HW3 5975   0.677   2.283   2.695 -0.8287  0.8404  0.5622
 1482SOL    MW4 5976   0.693   2.365   2.670 -0.4208  0.5350 -0.1831
 1483SOL     OW 5977   0.424   2.714   2.674  0.1925 -0.1105  0.2814
 1483SOL    HW2 5978   0.504   2.753   2.709  0.2490  0.6365 -0.6631
 1483SOL    HW3 5979   0.355   2.774   2.703  0.0272 -0.4972  0.6902
 1483SOL    MW4 5980   0.425   2.727   2.683  0.1781 -0.0632  0.2110
 1484SOL     OW 5981   0.663   2.820   2.763 -0.1254  0.2569  0.0587
 1484SOL    HW2 5982   0.649   2.823   2.858 -0.2817  0.4390  0.0277
 1484SOL    HW3 5983   0.657   2.911   2.735  1.1304  0.3461  0.0538
 1484SOL    MW4 5984   0.661   2.832   2.772  0.0196  0.2925  0.0536
 1485SOL     OW 5985   0.654   3.077   2.656 -0.0154 -0.1863 -0.4143
 1485SOL    HW2 5986   0.745   3.096   2.680 -0.2117  0.0171  0.1923
 1485SOL    HW3 5987   0.657   3.059   2.562  0.4498  1.0908 -0.6520
 1485SOL    MW4 5988   0.666   3.077   2.647  0.0200  0.0091 -0.3657
 1486SOL     OW 5989   0.420   3.225   2.734  0.5163 -0.3090  0.1007
 1486SOL    HW2 5990   0.416   3.227   2.830 -0.0553  0.8253  0.0579
 1486SOL    HW3 5991   0.488   3.161   2.715  0.5968 -0.5901  1.2659
 1486SOL    MW4 5992   0.429   3.217   2.745  0.4515 -0.1965  0.2487
 1487SOL     OW 5993   0.415   3.479   2.655 -0.0933 -0.1852  0.5344
 1487SOL    HW2 5994   0.424   3.389   2.688 -1.9865 -0.9968 -1.0548
 1487SOL    HW3 5995   0.410   3.469   2.560 -1.3798  1.5066  0.4031
 1487SOL    MW4 5996   0.416   3.466   2.647 -0.5128 -0.0691  0.3073
 1488SOL     OW 5997   0.654   3.610   2.705 -0.0962  0.0721  0.0627
 1488SOL    HW2 5998   0.669   3.626   2.799  1.1393 -0.3662 -0.0485
 1488SOL    HW3 5999   0.574   3.558   2.703 -0.6058  0.8015  0.8192
 1488SOL    MW4 6000   0.645   3.605   2.717 -0.0004  0.1109  0.1481
 1489SOL     OW 6001   0.665   3.861   2.602 -0.4515 -0.8364  0.2227
 1489SOL    HW2 6002   0.591   3.912   2.636 -1.0406  0.0019 -2.2053
 1489SOL    HW3 6003   0.655   3.775   2.642 -2.0114 -0.3573  0.9184
 1489SOL    MW4 6004   0.654   3.856   2.612 -0.7350 -0.6626 -0.0060
 1490SOL     OW 6005   0.428   4.299   3.117 -0.4312 -0.0757 -0.5224
 1490SOL    HW2 6006   0.342   4.327   3.085 -1.0333  0.2832  1.3448
 1490SOL    HW3 6007   0.435   4.208   3.089 -1.5621 -0.2126 -0.3809
 1490SOL    MW4 6008   0.417   4.291   3.109 -0.6599 -0.0467 -0.2575
 1491SOL     OW 6009   0.439   4.001   2.719 -0.1441 -0.0993 -0.4271
 1491SOL    HW2 6010   0.426   4.096   2.709  1.1735  0.1170 -0.1573
 1491SOL    HW3 6011   0.356   3.963   2.691 -0.2306  1.0562 -1.8334
 1491SOL    MW4 6012   0.426   4.009   2.714  0.0184  0.0815 -0.5770
 1492SOL     OW 6013   0.666   4.373   2.765  0.0751  0.2031 -0.2377
 1492SOL    HW2 6014   0.746   4.334   2.729 -0.3416 -0.2439 -0.6930
 1492SOL    HW3 6015   0.653   4.453   2.715  0.4007  0.4280  0.0376
 1492SOL    MW4 6016   0.675   4.378   2.754  0.0631  0.1736 -0.2615
 1493SOL     OW 6017   1.114   4.633   2.623  0.0741 -0.3649 -0.1245
 1493SOL    HW2 6018   1.034   4.678   2.650  1.0141  0.7165  0.9154
 1493SOL    HW3 6019   1.117   4.554   2.677  0.6972  0.5763  1.2443
 1493SOL    MW4 6020   1.104   4.629   2.633  0.2804 -0.0978  0.1931
 1494SOL     OW 6021   0.868   0.040   2.725 -0.2472 -0.1612  0.4333
 1494SOL    HW2 6022   0.885   0.055   2.818 -0.9503 -0.8137  0.6755
 1494SOL    HW3 6023   0.869   0.128   2.686 -2.0344  0.3431  1.4363
 1494SOL    MW4 6024   0.870   0.054   2.732 -0.5758 -0.1808  0.5977
 1495SOL     OW 6025   0.885   0.305   2.621  0.2142  0.1274 -0.4856
 1495SOL    HW2 6026   0.809   0.341   2.667  0.0222 -1.8031  0.8018
 1495SOL    HW3 6027   0.875   0.335   2.531 -1.7955  0.3606 -0.2122
 1495SOL    MW4 6028   0.873   0.313   2.615 -0.0762 -0.0966 -0.2797
 1496SOL     OW 6029   1.098   0.476   2.735  0.0087  0.0196 -0.4643
 1496SOL    HW2 6030   1.073   0.556   2.688  0.0070  0.1542 -0.2400
 1496SOL    HW3 6031   1.029   0.413   2.715 -0.0784  0.1295 -0.5087
 1496SOL    MW4 6032   1.086   0.478   2.726 -0.0031  0.0519 -0.4406
 1497SOL     OW 6033   1.111   0.749   2.675  0.0582  0.0998  0.0301
 1497SOL    HW2 6034   1.196   0.786   2.697  0.2501 -1.1668  1.4358
 1497SOL    HW3 6035   1.111   0.745   2.579  1.0429  1.3190 -0.0377
 1497SOL    MW4 6036   1.122   0.754   2.665  0.2134  0.0936  0.2069
 1498SOL     OW 6037   0.894   0.894   2.768  0.1644 -0.1962  0.0273
 1498SOL    HW2 6038   0.908   0.914   2.861  0.8208 -1.0958  0.1314
 1498SOL    HW3 6039   0.975   0.850   2.741 -0.0839 -0.0681 -0.9372
 1498SOL    MW4 6040   0.907   0.891   2.777  0.2183 -0.2980 -0.0861
 1499SOL     OW 6041   0.893   1.154   2.645  0.4743 -0.1327  0.3159
 1499SOL    HW2 6042   0.899   1.067   2.685  0.9567 -0.1179  0.2827
 1499SOL    HW3 6043   0.913   1.140   2.553 -0.5004 -0.1443  0.0986
 1499SOL    MW4 6044   0.896   1.141   2.638  0.4093 -0.1323  0.2832
 1500SOL     OW 6045   1.116   1.274   2.783  0.0794  0.2589 -0.4503
 1500SOL    HW2 6046   1.179   1.218   2.738  0.6934  1.1306 -0.6988
 1500SOL    HW3 6047   1.031   1.246   2.751  0.4116 -0.2043 -0.9343
 1500SOL    MW4 6048   1.113   1.263   2.773  0.2041  0.3129 -0.5469
 1501SOL     OW 6049   1.114   1.537   2.648 -0.3924  0.0938  0.5782
 1501SOL    HW2 6050   1.105   1.448   2.682 -0.9882  0.3164  1.0142
 1501SOL    HW3 6051   1.044   1.586   2.691 -0.6891  0.5485 -0.4158
 1501SOL    MW4 6052   1.103   1.532   2.658 -0.5100  0.1831  0.5047
 1502SOL     OW 6053   0.907   1.668   2.782  0.0887  0.1447 -0.0575
 1502SOL    HW2 6054   0.891   1.677   2.876  0.2831  2.2742 -0.2155
 1502SOL    HW3 6055   0.825   1.632   2.747  0.5767 -2.2583  1.1293
 1502SOL    MW4 6056   0.894   1.664   2.790  0.1788  0.1087  0.0784
 1503SOL     OW 6057   0.910   1.919   2.672 -0.2985  0.3005 -0.6748
 1503SOL    HW2 6058   0.992   1.966   2.688  0.0318 -0.5842  0.3355
 1503SOL    HW3 6059   0.917   1.840   2.727 -1.5877 -0.0521 -1.0011
 1503SOL    MW4 6060   0.922   1.914   2.682 -0.4250  0.1372 -0.5846
 1504SOL     OW 6061   1.131   2.067   2.732 -0.6175 -0.2297 -0.3921
 1504SOL    HW2 6062   1.217   2.034   2.705 -0.3843 -0.5218  0.6961
 1504SOL    HW3 6063   1.119   2.147   2.680  0.0365 -0.5224 -0.9975
 1504SOL    MW4 6064   1.141   2.073   2.722 -0.5003 -0.3068 -0.3283
 1505SOL     OW 6065   0.903   2.487   2.249  0.1400  0.1060 -0.1064
 1505SOL    HW2 6066   0.985   2.454   2.287  0.1181 -0.5347 -0.6092
 1505SOL    HW3 6067   0.907   2.460   2.157 -1.2791 -1.1350  0.1861
 1505SOL    MW4 6068   0.915   2.479   2.242 -0.0501 -0.1421 -0.1340
 1506SOL     OW 6069   1.128   2.363   2.355  0.4492  0.4822  0.2787
 1506SOL    HW2 6070   1.209   2.412   2.342  0.3460  0.4867 -0.3473
 1506SOL    HW3 6071   1.146   2.277   2.316 -0.4694  1.0799 -1.4978
 1506SOL    MW4 6072   1.141   2.358   2.348  0.3144  0.5612 -0.0381
 1507SOL     OW 6073   0.896   2.725   2.637  0.5409 -0.0772 -0.1380
 1507SOL    HW2 6074   0.976   2.766   2.671  0.3978  0.2731 -0.2237
 1507SOL    HW3 6075   0.825   2.768   2.685  0.3306  0.4767 -0.9341
 1507SOL    MW4 6076   0.897   2.736   2.648  0.4944  0.0422 -0.2544
 1508SOL     OW 6077   1.129   2.814   2.731  0.0361  0.2250 -0.9062
 1508SOL    HW2 6078   1.135   2.782   2.821  0.5039  1.0959 -0.6260
 1508SOL    HW3 6079   1.207   2.778   2.688 -0.2500 -0.2896 -0.9967
 1508SOL    MW4 6080   1.140   2.805   2.737  0.0601  0.2720 -0.8812
 1509SOL     OW 6081   1.148   3.096   2.632  0.0000  0.0000  0.2635
 1509SOL    HW2 6082   1.122   3.007   2.655  0.0000  0.0000  0.2612
 1509SOL    HW3 6083   1.136   3.101   2.537  0.0000  0.0000  0.2634
 1509SOL    MW4 6084   1.143   3.085   2.623  0.0000  0.0000  0.2630
 1510SOL     OW 6085   0.919   3.208   2.736  0.0000  0.0000 -0.3176
 1510SOL    HW2 6086   0.902   3.287   2.684  0.0000  0.0000 -0.3027
 1510SOL    HW3 6087   1.006   3.179   2.706  0.0000  0.0000 -0.3407
 1510SOL    MW4 6088   0.928   3.215   2.725  0.0000  0.0000 -0.3188
 1511SOL     OW 6089   0.887   3.462   2.621  0.0000  0.0000 -0.0193
 1511SOL    HW2 6090   0.961   3.508   2.663  0.0000  0.0000  0.0225
 1511SOL    HW3 6091   0.810   3.512   2.649  0.0000  0.0000 -0.0537
 1511SOL    MW4 6092   0.887   3.475   2.630  0.0000  0.0000 -0.0181
 1512SOL     OW 6093   1.102   3.599   2.733  0.0000  0.0000  0.1391
 1512SOL    HW2 6094   1.101   3.626   2.825  0.0000  0.0000  0.1398
 1512SOL    HW3 6095   1.100   3.681   2.684  0.0000  0.0000  0.1413
 1512SOL    MW4 6096   1.102   3.613   2.739  0.0000  0.0000  0.1392
 1513SOL     OW 6097   1.098   3.851   2.597  0.0000  0.0000  1.0601
 1513SOL    HW2 6098   1.178   3.889   2.635  0.0000  0.0000  1.0680
 1513SOL    HW3 6099   1.110   3.859   2.503  0.0000  0.0000  1.0615
 1513SOL    MW4 6100   1.110   3.857   2.590  0.0000  0.0000  1.0612
 1514SOL     OW 6101   0.893   4.008   2.738  0.0000  0.0000  0.3857
 1514SOL    HW2 6102   0.958   3.963   2.684  0.0000  0.0000  0.3749
 1514SOL    HW3 6103   0.809   3.969   2.710  0.0000  0.0000  0.4207
 1514SOL    MW4 6104   0.891   3.997   2.727  0.0000  0.0000  0.3889
 1515SOL     OW 6105   0.888   4.266   2.648  0.0000  0.0000 -0.1686
 1515SOL    HW2 6106   0.892   4.174   2.673  0.0000  0.0000 -0.1584
 1515SOL    HW3 6107   0.884   4.265   2.553  0.0000  0.0000 -0.1683
 1515SOL    MW4 6108   0.888   4.254   2.639  0.0000  0.0000 -0.1674
 1516SOL     OW 6109   1.144   4.351   2.726  0.0000  0.0000 -0.3160
 1516SOL    HW2 6110   1.137   4.378   2.817  0.0000  0.0000 -0.3168
 1516SOL    HW3 6111   1.055   4.327   2.701  0.0000  0.0000 -0.3183
 1516SOL    MW4 6112   1.131   4.351   2.734  0.0000  0.0000 -0.3161
 1517SOL     OW 6113   1.593   4.643   2.646  0.0000  0.0000 -0.2016
 1517SOL    HW2 6114   1.588   4.549   2.663  0.0000  0.0000 -0.2021
 1517SOL    HW3 6115   1.581   4.652   2.552  0.0000  0.0000 -0.2020
 1517SOL    MW4 6116   1.591   4.632   2.636  0.0000  0.0000 -0.2019
 1518SOL     OW 6117   1.360   0.099   2.711  0.1450 -0.0662  0.6769
 1518SOL    HW2 6118   1.285   0.060   2.666  0.9201  0.9806 -1.6207
 1518SOL    HW3 6119   1.433   0.039   2.694  0.7832  1.0945 -0.7858
 1518SOL    MW4 6120   1.360   0.086   2.703  0.3314  0.2250  0.1810
 1519SOL     OW 6121   1.380   0.379   2.642  0.3711  0.6643  0.2269
 1519SOL    HW2 6122   1.381   0.285   2.661  1.1491  0.1698 -2.0385
 1519SOL    HW3 6123   1.300   0.411   2.683 -0.0124 -1.0264  0.8401
 1519SOL    MW4 6124   1.369   0.371   2.650  0.4231  0.3760  0.0091
 1520SOL     OW 6125   1.595   0.508   2.746 -0.3811  0.1100 -0.5202
 1520SOL    HW2 6126   1.529   0.461   2.695 -0.3980 -0.7665  0.2984
 1520SOL    HW3 6127   1.677   0.462   2.728 -0.4735 -0.5351  0.6344
 1520SOL    MW4 6128   1.597   0.496   2.737 -0.3955 -0.0907 -0.2599
 1521SOL     OW 6129   1.581   0.772   2.640  0.1162 -0.0890  0.1069
 1521SOL    HW2 6130   1.609   0.686   2.670 -0.7374 -0.2860  0.3613
 1521SOL    HW3 6131   1.580   0.765   2.544  0.5953 -0.1819  0.1079
 1521SOL    MW4 6132   1.584   0.760   2.631  0.0669 -0.1272  0.1402
 1522SOL     OW 6133   1.348   0.882   2.745 -0.2836  0.1167 -0.3655
 1522SOL    HW2 6134   1.359   0.891   2.840 -0.7562  0.9613 -0.3894
 1522SOL    HW3 6135   1.430   0.842   2.716  0.4822  1.2404  0.2080
 1522SOL    MW4 6136   1.361   0.878   2.754 -0.2450  0.3764 -0.2933
 1523SOL     OW 6137   1.334   1.153   2.673  0.1232  0.0744 -0.4188
 1523SOL    HW2 6138   1.356   1.061   2.688 -0.1730 -0.0217 -0.5680
 1523SOL    HW3 6139   1.401   1.202   2.721 -1.0057 -0.2342  1.5284
 1523SOL    MW4 6140   1.346   1.148   2.682 -0.0648  0.0210 -0.1817
 1524SOL     OW 6141   1.576   1.276   2.728 -0.1762  0.2222  0.2390
 1524SOL    HW2 6142   1.595   1.289   2.821 -0.5752  1.2314  0.1877
 1524SOL    HW3 6143   1.644   1.216   2.698  0.6190  0.7512  0.9440
 1524SOL    MW4 6144   1.588   1.270   2.736 -0.1239  0.4251  0.3254
 1525SOL     OW 6145   1.587   1.542   2.645  0.4377  0.5060  0.2397
 1525SOL    HW2 6146   1.591   1.447   2.658 -1.2513  0.2559 -0.8930
 1525SOL    HW3 6147   1.569   1.552   2.552 -1.4001  1.8761  0.7119
 1525SOL    MW4 6148   1.585   1.530   2.635 -0.0275  0.6537  0.1526
 1526SOL     OW 6149   1.332   1.694   2.740 -0.7149 -0.1308  0.5253
 1526SOL    HW2 6150   1.408   1.652   2.701 -0.1366  0.7221  0.7260
 1526SOL    HW3 6151   1.259   1.638   2.717  0.1272 -1.5537  1.2560
 1526SOL    MW4 6152   1.332   1.681   2.732 -0.5274 -0.2060  0.6480
 1527SOL     OW 6153   1.361   1.939   2.643 -0.3340  0.5148 -0.2047
 1527SOL    HW2 6154   1.354   1.847   2.671  0.4506  0.5893  0.2279
 1527SOL    HW3 6155   1.365   1.934   2.547 -2.2057  0.2128 -0.2946
 1527SOL    MW4 6156   1.360   1.926   2.634 -0.4774  0.4848 -0.1597
 1528SOL     OW 6157   1.331   1.927   3.147 -1.0612  0.3192  0.3741
 1528SOL    HW2 6158   1.247   1.951   3.109 -0.9503  1.5762  0.9136
 1528SOL    HW3 6159   1.312   1.912   3.240 -0.7161  0.4245  0.4615
 1528SOL    MW4 6160   1.317   1.928   3.154 -1.0011  0.4990  0.4570
 1529SOL     OW 6161   1.591   2.033   2.259 -0.0252 -0.3151 -0.0372
 1529SOL    HW2 6162   1.673   1.985   2.273  0.3590  0.2547 -0.2830
 1529SOL    HW3 6163   1.592   2.055   2.166 -1.8830 -2.8578 -0.7160
 1529SOL    MW4 6164   1.602   2.030   2.248 -0.2196 -0.5755 -0.1593
 1530SOL     OW 6165   1.363   2.458   2.758  0.4767 -0.7410  0.2438
 1530SOL    HW2 6166   1.372   2.418   2.845  0.6143 -0.9089  0.1542
 1530SOL    HW3 6167   1.422   2.406   2.703  1.6873  0.4175  0.4073
 1530SOL    MW4 6168   1.372   2.446   2.762  0.6546 -0.6104  0.2534
 1531SOL     OW 6169   1.350   2.710   2.627 -0.0407 -0.3493  0.1816
 1531SOL    HW2 6170   1.376   2.625   2.663  1.7516 -0.8262 -2.0737
 1531SOL    HW3 6171   1.431   2.761   2.626 -0.5598  0.4721 -0.8971
 1531SOL    MW4 6172   1.364   2.705   2.632  0.1274 -0.3040 -0.2582
 1532SOL     OW 6173   1.789   2.717   2.666 -0.2749 -0.2692  0.0431
 1532SOL    HW2 6174   1.799   2.624   2.687 -0.2488 -0.3783 -0.4468
 1532SOL    HW3 6175   1.777   2.720   2.571  1.3767  0.3443 -0.1646
 1532SOL    MW4 6176   1.789   2.705   2.656 -0.0536 -0.2029 -0.0486
 1533SOL     OW 6177   1.611   3.098   2.618  0.0491  0.2014  0.0116
 1533SOL    HW2 6178   1.674   3.146   2.672 -0.4634 -0.2717  1.0664
 1533SOL    HW3 6179   1.606   3.012   2.660 -0.1584 -0.2662 -0.9710
 1533SOL    MW4 6180   1.619   3.093   2.631 -0.0459  0.0775  0.0212
 1534SOL     OW 6181   1.370   3.224   2.740  0.4637  0.4734  0.2411
 1534SOL    HW2 6182   1.440   3.184   2.689  0.2944  0.3460  0.1097
 1534SOL    HW3 6183   1.292   3.174   2.717  0.6644 -0.6022  1.7893
 1534SOL    MW4 6184   1.369   3.212   2.731  0.4679  0.3145  0.4280
 1535SOL     OW 6185   1.344   3.474   2.658  0.2307 -0.4699  0.2280
 1535SOL    HW2 6186   1.348   3.384   2.690 -1.2124 -0.3750  0.7228
 1535SOL    HW3 6187   1.258   3.506   2.687  0.1184  0.5864 -1.2160
 1535SOL    MW4 6188   1.333   3.467   2.666  0.0255 -0.3183  0.1025
 1536SOL     OW 6189   1.560   3.602   2.797  0.0258 -0.1708  0.0460
 1536SOL    HW2 6190   1.638   3.564   2.758 -0.4514 -0.2511 -0.8458
 1536SOL    HW3 6191   1.487   3.564   2.748 -0.5219  0.7458  0.1298
 1536SOL    MW4 6192   1.560   3.592   2.786 -0.1093 -0.0603 -0.0606
 1537SOL     OW 6193   1.540   3.830   2.635 -0.1277  0.7959 -0.4657
 1537SOL    HW2 6194   1.457   3.867   2.666 -0.2860  0.5135 -0.5557
 1537SOL    HW3 6195   1.550   3.749   2.685 -0.1320  0.5973 -0.7842
 1537SOL    MW4 6196   1.530   3.824   2.646 -0.1491  0.7324 -0.5195
 1538SOL     OW 6197   1.326   3.962   2.732 -0.5385  0.0043  0.2060
 1538SOL    HW2 6198   1.338   3.972   2.827 -1.8234  0.5815  0.3184
 1538SOL    HW3 6199   1.340   4.050   2.697 -2.0710  0.2151  0.0934
 1538SOL    MW4 6200   1.329   3.975   2.740 -0.9102  0.1082  0.2060
 1539SOL     OW 6201   1.362   4.214   2.629 -0.0876 -0.1296 -0.2537
 1539SOL    HW2 6202   1.288   4.268   2.658 -0.3756 -0.9686  0.6110
 1539SOL    HW3 6203   1.359   4.218   2.533 -0.9656  0.2336 -0.2132
 1539SOL    MW4 6204   1.352   4.222   2.620 -0.2413 -0.1922 -0.1342
 1540SOL     OW 6205   1.567   4.368   2.701  0.1522  0.3161  0.2520
 1540SOL    HW2 6206   1.565   4.354   2.796 -0.7354  2.1297  0.5165
 1540SOL    HW3 6207   1.501   4.307   2.668 -1.6967  1.7643  1.1291
 1540SOL    MW4 6208   1.558   4.358   2.709 -0.2086  0.7467  0.4025
 1541SOL     OW 6209   2.232   0.100   2.747 -0.1934  0.2746 -0.1898
 1541SOL    HW2 6210   2.264   0.099   2.837  1.2512  1.7483 -0.6470
 1541SOL    HW3 6211   2.303   0.062   2.695  0.1397  1.9541 -1.0135
 1541SOL    MW4 6212   2.246   0.095   2.752  0.0412  0.6906 -0.3588
 1542SOL     OW 6213   1.812   0.378   2.641  0.0493 -0.0692  0.2453
 1542SOL    HW2 6214   1.905   0.398   2.657  0.0067  0.0674  0.3259
 1542SOL    HW3 6215   1.804   0.284   2.658 -0.0407  0.1103  1.2524
 1542SOL    MW4 6216   1.823   0.368   2.646  0.0319 -0.0275  0.3886
 1543SOL     OW 6217   1.823   0.398   2.321 -0.8132  0.2045  0.3498
 1543SOL    HW2 6218   1.903   0.432   2.281 -0.6481  0.8614  1.2356
 1543SOL    HW3 6219   1.844   0.391   2.414 -0.8595 -2.2443  0.2132
 1543SOL    MW4 6220   1.836   0.401   2.328 -0.7975 -0.0319  0.4485
 1544SOL     OW 6221   2.063   0.525   2.773  0.7689 -0.1149 -0.4203
 1544SOL    HW2 6222   2.141   0.478   2.744  1.6557  1.5264 -0.6888
 1544SOL    HW3 6223   2.053   0.597   2.712 -1.6859 -1.0133 -1.1496
 1544SOL    MW4 6224   2.072   0.528   2.761  0.5620 -0.0169 -0.5522
 1545SOL     OW 6225   2.038   0.742   2.632 -0.1308 -0.2780 -0.2127
 1545SOL    HW2 6226   1.962   0.795   2.656  1.2339  1.6827 -0.0839
 1545SOL    HW3 6227   2.048   0.756   2.538  0.2094 -0.3555 -0.1870
 1545SOL    MW4 6228   2.029   0.751   2.623  0.0939 -0.0296 -0.1919
 1546SOL     OW 6229   1.820   0.899   2.718 -0.1719 -0.4439  0.0475
 1546SOL    HW2 6230   1.808   0.993   2.703 -0.1119 -0.4062  0.2372
 1546SOL    HW3 6231   1.744   0.858   2.676 -0.1830 -0.3128 -0.0601
 1546SOL    MW4 6232   1.808   0.906   2.710 -0.1656 -0.4216  0.0582
 1547SOL     OW 6233   1.793   1.164   2.628  0.0115  0.1065 -0.5156
 1547SOL    HW2 6234   1.869   1.209   2.665  0.7883 -0.3242 -1.5899
 1547SOL    HW3 6235   1.814   1.151   2.536 -0.3816 -2.0565 -0.3349
 1547SOL    MW4 6236   1.806   1.168   2.621  0.0620 -0.2357 -0.6335
 1548SOL     OW 6237   2.010   1.275   2.752  0.5093 -0.2134  0.2561
 1548SOL    HW2 6238   2.028   1.271   2.846  0.4296 -0.2782  0.2683
 1548SOL    HW3 6239   2.089   1.240   2.712 -0.1114 -1.7572  0.3587
 1548SOL    MW4 6240   2.023   1.270   2.759  0.4168 -0.4256  0.2711
 1549SOL     OW 6241   1.957   1.518   2.617  0.1022  0.0029 -0.2633
 1549SOL    HW2 6242   1.901   1.575   2.669  0.4630  0.3512 -0.2495
 1549SOL    HW3 6243   1.953   1.434   2.661  1.5170  0.6563  1.1623
 1549SOL    MW4 6244   1.949   1.515   2.630  0.3366  0.1351 -0.0734
 1550SOL     OW 6245   1.786   1.703   2.737  0.1241  0.5160 -0.4534
 1550SOL    HW2 6246   1.798   1.684   2.830  1.1264 -1.0610 -0.8813
 1550SOL    HW3 6247   1.706   1.656   2.713 -1.0944  2.3010 -0.0372
 1550SOL    MW4 6248   1.777   1.694   2.746  0.0955  0.5435 -0.4551
 1551SOL     OW 6249   1.555   2.097   2.764  0.1264 -0.0006  0.2547
 1551SOL    HW2 6250   1.636   2.056   2.732  0.7770  1.6227 -0.2383
 1551SOL    HW3 6251   1.485   2.053   2.716  0.8335 -0.2452 -0.5670
 1551SOL    MW4 6252   1.557   2.086   2.754  0.3055  0.1810  0.0813
 1552SOL     OW 6253   2.028   2.085   2.737  0.5200  0.2124  0.0723
 1552SOL    HW2 6254   1.993   2.103   2.824  0.5158  0.2345  0.0661
 1552SOL    HW3 6255   2.057   2.170   2.704 -1.0972  0.4991 -0.6536
 1552SOL    MW4 6256   2.027   2.098   2.744  0.3059  0.2532 -0.0241
 1553SOL     OW 6257   2.216   2.469   2.768 -0.3293  0.0776  0.1575
 1553SOL    HW2 6258   2.227   2.473   2.863 -3.2862 -2.0245  0.6870
 1553SOL    HW3 6259   2.295   2.426   2.736 -0.0057 -0.6586  1.8822
 1553SOL    MW4 6260   2.228   2.464   2.776 -0.6766 -0.2968  0.4549
 1554SOL     OW 6261   1.571   2.310   2.598 -0.1557  0.0503  0.0239
 1554SOL    HW2 6262   1.641   2.364   2.634 -0.8893  1.2632 -0.3321
 1554SOL    HW3 6263   1.569   2.232   2.654  1.8488 -0.2854 -0.3106
 1554SOL    MW4 6264   1.580   2.307   2.610  0.0119  0.1664 -0.0672
 1555SOL     OW 6265   1.780   2.439   2.718  0.1053 -0.1886  0.1002
 1555SOL    HW2 6266   1.775   2.436   2.814  2.0997  0.9231  0.2714
 1555SOL    HW3 6267   1.857   2.386   2.696  0.7568  1.0690 -0.7348
 1555SOL    MW4 6268   1.790   2.432   2.728  0.4544  0.1240  0.0124
 1556SOL     OW 6269   2.003   2.844   2.771  0.1299 -0.2416 -0.4568
 1556SOL    HW2 6270   2.073   2.792   2.733 -0.2012  0.6578 -2.3786
 1556SOL    HW3 6271   1.922   2.804   2.738 -0.1669  0.4636 -0.6065
 1556SOL    MW4 6272   2.002   2.832   2.761  0.0472 -0.0298 -0.7303
 1557SOL     OW 6273   2.026   3.114   2.658 -0.2471  0.0547 -0.4070
 1557SOL    HW2 6274   2.019   3.022   2.684 -2.5678  0.1018 -0.7762
 1557SOL    HW3 6275   2.016   3.112   2.563 -0.1855  0.6707 -0.4266
 1557SOL    MW4 6276   2.024   3.102   2.649 -0.5453  0.1421 -0.4582
 1558SOL     OW 6277   1.802   3.221   2.767  0.3333  0.1707  0.0335
 1558SOL    HW2 6278   1.791   3.316   2.765 -0.8512  0.0182 -1.8309
 1558SOL    HW3 6279   1.885   3.205   2.722 -0.3040  0.2365 -1.1964
 1558SOL    MW4 6280   1.811   3.231   2.760  0.0930  0.1593 -0.3746
 1559SOL     OW 6281   1.779   3.488   2.676 -0.5567 -0.1478 -0.2524
 1559SOL    HW2 6282   1.785   3.472   2.582  1.7386 -0.7407 -0.0609
 1559SOL    HW3 6283   1.860   3.535   2.697 -0.2778 -1.3933  1.6445
 1559SOL    MW4 6284   1.791   3.492   2.667 -0.2171 -0.3903  0.0231
 1560SOL     OW 6285   2.006   3.620   2.786  0.5394  0.5570  0.2405
 1560SOL    HW2 6286   2.006   3.608   2.881  0.2326  0.2648  0.2038
 1560SOL    HW3 6287   2.089   3.582   2.757  0.5712  0.5240  0.3757
 1560SOL    MW4 6288   2.017   3.614   2.794  0.5035  0.5138  0.2534
 1561SOL     OW 6289   1.986   3.877   2.696 -0.2798  0.3291 -0.1671
 1561SOL    HW2 6290   1.903   3.905   2.734  0.8932 -0.3315  3.0491
 1561SOL    HW3 6291   2.004   3.792   2.737  1.7401  0.2034 -1.2249
 1561SOL    MW4 6292   1.977   3.869   2.706  0.1415  0.2251  0.1175
 1562SOL     OW 6293   1.726   3.962   2.799 -0.1027 -0.1477  0.2464
 1562SOL    HW2 6294   1.745   4.046   2.756  0.9470 -0.5449 -0.1002
 1562SOL    HW3 6295   1.663   3.920   2.741  0.8784 -0.4361 -0.6428
 1562SOL    MW4 6296   1.720   3.968   2.785  0.1652 -0.2382  0.0832
 1563SOL     OW 6297   2.031   4.326   2.775  0.2437 -0.2521 -0.0243
 1563SOL    HW2 6298   1.953   4.281   2.743 -0.9475  1.1073  0.8985
 1563SOL    HW3 6299   2.023   4.414   2.740  1.7446 -0.3090 -0.5159
 1563SOL    MW4 6300   2.019   4.332   2.766  0.2844 -0.0806  0.0324
 1564SOL     OW 6301   2.309   4.259   2.671 -0.0959 -0.2795  0.5054
 1564SOL    HW2 6302   2.297   4.165   2.683 -1.6803 -0.3698 -1.5390
 1564SOL    HW3 6303   2.234   4.298   2.715 -0.7446 -0.1209 -0.7187
 1564SOL    MW4 6304   2.298   4.252   2.678 -0.3905 -0.2708  0.0741
 1565SOL     OW 6305   2.466   0.008   2.626  0.3576  0.3551 -0.3069
 1565SOL    HW2 6306   2.527   0.076   2.654 -0.8356  1.7401 -0.9678
 1565SOL    HW3 6307   2.473   0.007   2.530 -0.7548  0.6706 -0.4094
 1565SOL    MW4 6308   2.475   0.017   2.617  0.0532  0.5794 -0.4075
 1566SOL     OW 6309   2.274   0.055   3.016  0.0909 -0.1952 -0.2443
 1566SOL    HW2 6310   2.337   0.019   3.078 -1.8777 -0.0704  1.9402
 1566SOL    HW3 6311   2.189   0.041   3.058 -1.2882  0.2581 -2.7739
 1566SOL    MW4 6312   2.271   0.049   3.030 -0.3507 -0.1189 -0.2897
 1567SOL     OW 6313   2.273   0.365   2.639  0.1500 -0.2504  0.0651
 1567SOL    HW2 6314   2.261   0.278   2.677  2.7603 -0.7725 -0.1676
 1567SOL    HW3 6315   2.250   0.354   2.547 -1.2393 -0.2485  0.4088
 1567SOL    MW4 6316   2.269   0.352   2.632  0.3111 -0.3190  0.0799
 1568SOL     OW 6317   2.467   0.507   3.009  0.1187 -0.3711  0.3767
 1568SOL    HW2 6318   2.479   0.504   2.914 -0.2301  0.4535  0.3014
 1568SOL    HW3 6319   2.405   0.437   3.027 -0.3411 -0.0948 -0.0949
 1568SOL    MW4 6320   2.460   0.498   2.999  0.0122 -0.2259  0.3045
 1569SOL     OW 6321   2.476   0.783   2.644 -0.5393  0.5775 -0.3427
 1569SOL    HW2 6322   2.394   0.810   2.684 -0.1023  0.8061  0.4077
 1569SOL    HW3 6323   2.463   0.799   2.550 -0.7757  2.1361 -0.0673
 1569SOL    MW4 6324   2.464   0.789   2.637 -0.5128  0.8132 -0.2074
 1570SOL     OW 6325   2.236   0.884   2.765 -0.4681 -0.0540 -0.1246
 1570SOL    HW2 6326   2.242   0.874   2.860  0.4946  0.8266 -0.0918
 1570SOL    HW3 6327   2.160   0.831   2.741 -1.4814  0.7182  1.2760
 1570SOL    MW4 6328   2.226   0.875   2.775 -0.4745  0.1640  0.0644
 1571SOL     OW 6329   2.239   1.138   2.646  0.5689  0.1829 -0.0409
 1571SOL    HW2 6330   2.215   1.050   2.674  0.7665 -0.0374 -0.5528
 1571SOL    HW3 6331   2.241   1.133   2.550  0.8434  0.6727 -0.0633
 1571SOL    MW4 6332   2.236   1.126   2.637  0.6313  0.2185 -0.1111
 1572SOL     OW 6333   2.456   1.272   2.744 -0.1217 -0.0668  0.3344
 1572SOL    HW2 6334   2.532   1.223   2.713 -1.2324 -0.0076 -2.6304
 1572SOL    HW3 6335   2.381   1.222   2.713 -1.2621  2.4892 -1.2121
 1572SOL    MW4 6336   2.456   1.259   2.736 -0.4187  0.2784 -0.2608
 1573SOL     OW 6337   2.445   1.517   2.620 -0.0574 -0.4294 -0.0015
 1573SOL    HW2 6338   2.372   1.559   2.664 -0.9036 -1.0039 -0.8317
 1573SOL    HW3 6339   2.452   1.431   2.660  0.1300 -0.3944  0.0420
 1573SOL    MW4 6340   2.437   1.512   2.631 -0.1442 -0.5006 -0.1054
 1574SOL     OW 6341   2.206   1.630   2.732  0.0529 -0.3445  0.1365
 1574SOL    HW2 6342   2.216   1.714   2.687 -0.7958 -0.4577 -0.2771
 1574SOL    HW3 6343   2.131   1.589   2.690 -1.4330  0.0136  2.3612
 1574SOL    MW4 6344   2.198   1.636   2.721 -0.2549 -0.3122  0.3755
 1575SOL     OW 6345   2.221   1.902   2.637 -0.0735  0.2593 -0.1062
 1575SOL    HW2 6346   2.149   1.957   2.669  0.8283  1.2811  0.1859
 1575SOL    HW3 6347   2.226   1.922   2.544 -0.7649 -0.4986 -0.3077
 1575SOL    MW4 6348   2.212   1.912   2.629 -0.0458  0.2941 -0.0939
 1576SOL     OW 6349   2.468   2.047   2.744  0.1106 -0.2358 -0.1441
 1576SOL    HW2 6350   2.437   2.138   2.735 -0.3054 -0.3923 -0.3307
 1576SOL    HW3 6351   2.389   1.994   2.729 -0.1086 -0.5808  2.0326
 1576SOL    MW4 6352   2.453   2.052   2.741  0.0269 -0.3021  0.1185
 1577SOL     OW 6353   2.435   2.329   2.680  0.0243  0.4528 -0.2725
 1577SOL    HW2 6354   2.513   2.372   2.714 -1.9812  4.1025  0.0198
 1577SOL    HW3 6355   2.447   2.328   2.585 -0.0442  2.0249 -0.3022
 1577SOL    MW4 6356   2.447   2.334   2.672 -0.2494  1.1418 -0.2379
 1578SOL     OW 6357   2.228   2.510   3.049  0.0629  0.3023  0.3516
 1578SOL    HW2 6358   2.214   2.591   3.099  0.3336  1.0080 -0.6957
 1578SOL    HW3 6359   2.301   2.467   3.094  0.3866  0.9933  0.5046
 1578SOL    MW4 6360   2.236   2.515   3.062  0.1409  0.4866  0.2337
 1579SOL     OW 6361   2.222   2.718   2.637 -0.4632  0.0638 -0.3210
 1579SOL    HW2 6362   2.288   2.785   2.655 -1.4225  0.7916  0.4825
 1579SOL    HW3 6363   2.246   2.645   2.694 -0.0742  0.1375 -0.3841
 1579SOL    MW4 6364   2.234   2.717   2.647 -0.5386  0.1695 -0.2232
 1580SOL     OW 6365   2.465   2.836   2.718 -0.1802 -0.2324 -0.1977
 1580SOL    HW2 6366   2.533   2.780   2.681 -0.5378  0.1536 -1.4721
 1580SOL    HW3 6367   2.477   2.920   2.674 -1.4686 -0.1607 -0.4453
 1580SOL    MW4 6368   2.475   2.839   2.707 -0.3972 -0.1721 -0.3984
 1581SOL     OW 6369   2.266   3.256   2.739 -0.2020 -0.6776  0.5875
 1581SOL    HW2 6370   2.267   3.245   2.835  0.0057 -0.3735  0.6196
 1581SOL    HW3 6371   2.187   3.211   2.711 -0.6072 -0.2029  0.9688
 1581SOL    MW4 6372   2.256   3.248   2.748 -0.2277 -0.5748  0.6421
 1582SOL     OW 6373   2.270   3.200   3.021 -0.3576 -0.6147  0.0220
 1582SOL    HW2 6374   2.280   3.279   3.074  0.7802 -0.2713 -0.6900
 1582SOL    HW3 6375   2.187   3.163   3.049 -0.7985  0.7161  0.5243
 1582SOL    MW4 6376   2.261   3.206   3.032 -0.2656 -0.3939 -0.0057
 1583SOL     OW 6377   2.229   3.515   2.636 -0.1036 -0.3063 -0.3394
 1583SOL    HW2 6378   2.316   3.545   2.661  0.4582 -0.3576 -2.1395
 1583SOL    HW3 6379   2.232   3.420   2.649 -0.3264 -0.1554  0.8428
 1583SOL    MW4 6380   2.241   3.506   2.641 -0.0589 -0.2933 -0.4210
 1584SOL     OW 6381   2.507   3.590   2.713 -0.3769 -0.4785 -0.0649
 1584SOL    HW2 6382   2.475   3.587   2.803 -1.6725  0.4520 -0.4749
 1584SOL    HW3 6383   2.529   3.682   2.699  0.9965 -0.8371 -0.3109
 1584SOL    MW4 6384   2.506   3.602   2.723 -0.3664 -0.4032 -0.1516
 1585SOL     OW 6385   2.482   3.853   2.380  0.3392 -0.6248 -0.0392
 1585SOL    HW2 6386   2.488   3.845   2.475  0.7655  0.1195  0.0027
 1585SOL    HW3 6387   2.398   3.897   2.365  0.2941 -0.6986 -0.0021
 1585SOL    MW4 6388   2.471   3.858   2.391  0.3896 -0.5364 -0.0286
 1586SOL     OW 6389   2.492   4.436   2.778  0.3253  0.1365  0.1254
 1586SOL    HW2 6390   2.425   4.380   2.740 -1.8802  1.6978  1.6066
 1586SOL    HW3 6391   2.494   4.513   2.721  0.7882  0.1386  0.1453
 1586SOL    MW4 6392   2.483   4.439   2.766  0.0949  0.3433  0.3235
 1587SOL     OW 6393   2.278   4.241   2.376  0.4323 -0.6711  0.2279
 1587SOL    HW2 6394   2.281   4.255   2.471  0.1585 -0.3024  0.1850
 1587SOL    HW3 6395   2.202   4.293   2.347 -1.4037 -3.2247  0.2493
 1587SOL    MW4 6396   2.268   4.249   2.385  0.1540 -0.9594  0.2251
 1588SOL     OW 6397   2.726   4.269   2.674 -0.1405 -0.6100  0.4747
 1588SOL    HW2 6398   2.645   4.307   2.706  0.2942  0.1102  0.7228
 1588SOL    HW3 6399   2.795   4.316   2.719  0.4266 -1.0974  0.1324
 1588SOL    MW4 6400   2.724   4.280   2.684 -0.0083 -0.5794  0.4625
 1589SOL     OW 6401   2.879   0.005   2.655 -0.5251 -0.1868 -0.3047
 1589SOL    HW2 6402   2.967   0.032   2.683 -0.6993  0.4448 -0.3472
 1589SOL    HW3 6403   2.887  -0.007   2.560  0.1619 -2.7036  0.0318
 1589SOL    MW4 6404   2.892   0.007   2.646 -0.4575 -0.4363 -0.2658
 1590SOL     OW 6405   2.671   0.163   2.739  0.1660  0.3969  0.3994
 1590SOL    HW2 6406   2.664   0.165   2.835  0.5784 -0.2212  0.4501
 1590SOL    HW3 6407   2.744   0.103   2.723 -1.3550 -1.2674 -0.3706
 1590SOL    MW4 6408   2.680   0.156   2.750  0.0196  0.0958  0.3047
 1591SOL     OW 6409   2.494   0.511   2.713  0.3184 -0.1148 -0.3777
 1591SOL    HW2 6410   2.422   0.458   2.680  0.4294  0.0429 -0.8862
 1591SOL    HW3 6411   2.480   0.597   2.674  0.2564  0.1759  0.2729
 1591SOL    MW4 6412   2.483   0.515   2.704  0.3250 -0.0556 -0.3588
 1592SOL     OW 6413   2.948   0.546   2.686 -0.8814 -0.7415  0.7987
 1592SOL    HW2 6414   2.949   0.640   2.669  0.8457 -0.9518 -0.3212
 1592SOL    HW3 6415   2.866   0.515   2.647 -0.4673 -0.0393 -0.6445
 1592SOL    MW4 6416   2.937   0.554   2.679 -0.5989 -0.6766  0.4601
 1593SOL     OW 6417   2.957   0.822   2.600 -0.2091  0.5828 -0.4882
 1593SOL    HW2 6418   3.023   0.862   2.656 -1.5703  0.8215  0.9759
 1593SOL    HW3 6419   2.875   0.862   2.628 -1.1533 -0.7794 -1.2863
 1593SOL    MW4 6420   2.955   0.832   2.611 -0.5133  0.4346 -0.4003
 1594SOL     OW 6421   2.711   0.901   2.719 -0.0544 -0.3666 -0.5686
 1594SOL    HW2 6422   2.715   0.894   2.814  0.7090 -1.3200 -0.6623
 1594SOL    HW3 6423   2.626   0.864   2.695 -0.1895 -0.2499 -0.2663
 1594SOL    MW4 6424   2.701   0.895   2.728  0.0281 -0.4770 -0.5412
 1595SOL     OW 6425   2.686   1.165   2.638  0.1762  0.3563  0.5089
 1595SOL    HW2 6426   2.753   1.229   2.663 -1.5484  1.5679  2.0930
 1595SOL    HW3 6427   2.712   1.084   2.682 -1.2178  1.7047  3.9480
 1595SOL    MW4 6428   2.699   1.162   2.647 -0.2351  0.6940  1.1714
 1596SOL     OW 6429   2.921   1.302   2.706 -0.0508  0.1795  0.7644
 1596SOL    HW2 6430   2.940   1.305   2.800 -0.1445 -0.7706  0.8137
 1596SOL    HW3 6431   2.999   1.263   2.667 -0.3541 -0.1921  0.5335
 1596SOL    MW4 6432   2.934   1.297   2.713 -0.1032  0.0051  0.7403
 1597SOL     OW 6433   2.890   1.558   2.633  0.1511  0.1485  0.0955
 1597SOL    HW2 6434   2.811   1.593   2.673 -0.5356  0.0440 -1.1359
 1597SOL    HW3 6435   2.897   1.469   2.667 -0.0262  0.2912  0.5132
 1597SOL    MW4 6436   2.880   1.551   2.643  0.0370  0.1535 -0.0122
 1598SOL     OW 6437   2.660   1.623   2.744  0.0791  0.9524 -0.1194
 1598SOL    HW2 6438   2.652   1.634   2.839  0.4934 -1.8039  0.2716
 1598SOL    HW3 6439   2.574   1.590   2.716  0.3291  0.6408 -0.5285
 1598SOL    MW4 6440   2.648   1.620   2.753  0.1671  0.5476 -0.1221
 1599SOL     OW 6441   2.665   1.872   2.632 -0.3101  0.0873 -0.6008
 1599SOL    HW2 6442   2.654   1.790   2.680 -0.5312 -0.3471 -1.3854
 1599SOL    HW3 6443   2.616   1.937   2.683  0.2589 -0.1599  0.2803
 1599SOL    MW4 6444   2.657   1.870   2.645 -0.2642 -0.0025 -0.5882
 1600SOL     OW 6445   2.912   2.016   2.722  0.2682  0.2230 -0.1377
 1600SOL    HW2 6446   2.905   2.108   2.695 -0.1832  0.2059 -0.0857
 1600SOL    HW3 6447   2.832   1.976   2.687  0.4588 -0.1463 -0.1445
 1600SOL    MW4 6448   2.900   2.023   2.714  0.2337  0.1717 -0.1316
 1601SOL     OW 6449   2.886   2.296   2.632  0.3510  0.8025  0.1240
 1601SOL    HW2 6450   2.967   2.338   2.660  0.8215 -0.5583  0.8418
 1601SOL    HW3 6451   2.817   2.345   2.675  0.9256  0.4805  1.4256
 1601SOL    MW4 6452   2.888   2.308   2.641  0.4885  0.5803  0.3905
 1602SOL     OW 6453   2.686   2.438   2.743  0.0993  0.0109  0.1405
 1602SOL    HW2 6454   2.689   2.448   2.838  1.2623 -1.2692  0.2558
 1602SOL    HW3 6455   2.712   2.524   2.709  0.7284  0.1716  1.0023
 1602SOL    MW4 6456   2.690   2.451   2.751  0.3357 -0.1369  0.2692
 1603SOL     OW 6457   2.692   2.725   2.382  0.0353  0.7283 -0.3117
 1603SOL    HW2 6458   2.765   2.768   2.338  1.6755 -0.5529  1.0654
 1603SOL    HW3 6459   2.692   2.636   2.347 -1.2044  0.8448 -0.6604
 1603SOL    MW4 6460   2.701   2.719   2.372  0.0882  0.5748 -0.1760
 1604SOL     OW 6461   2.706   2.701   2.665 -0.2392 -0.6472 -0.2528
 1604SOL    HW2 6462   2.780   2.741   2.710  0.4169 -2.5649  0.4023
 1604SOL    HW3 6463   2.727   2.709   2.572  0.9503 -1.4492 -0.0625
 1604SOL    MW4 6464   2.718   2.707   2.658  0.0043 -1.0061 -0.1414
 1605SOL     OW 6465   2.939   2.812   2.760 -0.6344  0.0750 -0.1559
 1605SOL    HW2 6466   2.946   2.838   2.852 -0.7931 -0.2590 -0.0481
 1605SOL    HW3 6467   2.930   2.895   2.713 -0.5518  0.2486  0.1294
 1605SOL    MW4 6468   2.939   2.826   2.766 -0.6444  0.0539 -0.1042
 1606SOL     OW 6469   2.469   3.092   2.617  0.1091  0.0921 -0.3720
 1606SOL    HW2 6470   2.449   3.077   2.525 -0.7488  0.6833 -0.2872
 1606SOL    HW3 6471   2.397   3.146   2.649  1.0573  0.9758  0.3196
 1606SOL    MW4 6472   2.457   3.097   2.609  0.1211  0.2868 -0.2697
 1607SOL     OW 6473   2.700   3.227   2.722 -1.3033  0.4976 -0.6505
 1607SOL    HW2 6474   2.636   3.173   2.675  0.2344 -0.2127 -1.9792
 1607SOL    HW3 6475   2.706   3.307   2.669 -1.8425  0.9968  0.0338
 1607SOL    MW4 6476   2.692   3.231   2.708 -1.1716  0.4697 -0.7353
 1608SOL     OW 6477   2.718   3.468   2.591 -0.0339 -0.1023  0.3043
 1608SOL    HW2 6478   2.636   3.501   2.628 -0.0324  0.9591 -0.6012
 1608SOL    HW3 6479   2.705   3.474   2.496 -0.1343 -2.9554  0.0844
 1608SOL    MW4 6480   2.705   3.473   2.583 -0.0470 -0.3388  0.1557
 1609SOL     OW 6481   2.906   3.883   2.610  0.1863  0.5232 -0.1746
 1609SOL    HW2 6482   2.990   3.920   2.640  0.5231  0.5367 -1.1163
 1609SOL    HW3 6483   2.908   3.792   2.639 -0.1806  0.9552  1.2219
 1609SOL    MW4 6484   2.918   3.876   2.618  0.1824  0.5820 -0.1147
 1610SOL     OW 6485   2.493   3.875   2.655  0.2123  0.6870 -0.1339
 1610SOL    HW2 6486   2.409   3.910   2.682  0.8113  1.8361  0.2759
 1610SOL    HW3 6487   2.558   3.929   2.699  1.1830  0.9092 -1.7624
 1610SOL    MW4 6488   2.490   3.886   2.664  0.4191  0.8678 -0.2952
 1611SOL     OW 6489   2.705   4.011   2.756  0.4652 -0.1421  0.0428
 1611SOL    HW2 6490   2.771   3.956   2.714 -0.3833 -0.2982 -1.1161
 1611SOL    HW3 6491   2.721   4.098   2.721 -0.8574 -0.4533 -1.3772
 1611SOL    MW4 6492   2.716   4.015   2.746  0.1788 -0.2036 -0.2975
 1612SOL     OW 6493   3.177   4.264   2.670 -0.3471 -0.0132 -0.1901
 1612SOL    HW2 6494   3.100   4.306   2.706 -1.0141 -0.9018 -0.5627
 1612SOL    HW3 6495   3.175   4.283   2.576 -0.3618 -0.4115 -0.2745
 1612SOL    MW4 6496   3.167   4.272   2.662 -0.4373 -0.1826 -0.2503
 1613SOL     OW 6497   3.584   0.111   2.778 -0.1193  0.4438 -0.1709
 1613SOL    HW2 6498   3.506   0.070   2.741 -0.7668  1.0096  0.5477
 1613SOL    HW3 6499   3.595   0.191   2.727  0.0926  0.2733 -0.3903
 1613SOL    MW4 6500   3.575   0.116   2.766 -0.1767  0.4959 -0.1049
 1614SOL     OW 6501   3.133   0.091   2.727  0.3667  0.1191  0.6628
 1614SOL    HW2 6502   3.107   0.107   2.817  0.8584 -1.2186  1.0584
 1614SOL    HW3 6503   3.130   0.177   2.685  1.9554  1.0635  2.4298
 1614SOL    MW4 6504   3.129   0.105   2.733  0.6413  0.0672  0.9482
 1615SOL     OW 6505   3.131   0.349   2.623 -0.2281 -0.3825  0.0092
 1615SOL    HW2 6506   3.087   0.427   2.657  1.0517  1.1673 -1.7197
 1615SOL    HW3 6507   3.153   0.373   2.533  2.7584 -1.6625  0.3512
 1615SOL    MW4 6508   3.128   0.363   2.615  0.3347 -0.3469 -0.1736
 1616SOL     OW 6509   3.355   0.488   3.013 -0.1462  0.4688  0.0910
 1616SOL    HW2 6510   3.441   0.462   3.047 -0.9137 -0.7034  1.1722
 1616SOL    HW3 6511   3.362   0.475   2.919  0.1317 -1.9013  0.3937
 1616SOL    MW4 6512   3.367   0.483   3.005 -0.2105  0.0014  0.2735
 1617SOL     OW 6513   3.356   0.443   2.733  0.2569  0.5079  0.3021
 1617SOL    HW2 6514   3.342   0.536   2.715  1.8791  0.5688 -0.7350
 1617SOL    HW3 6515   3.277   0.400   2.700  0.7421  1.2326 -1.8790
 1617SOL    MW4 6516   3.343   0.449   2.726  0.5350  0.6115 -0.1225
 1618SOL     OW 6517   3.174   0.931   2.725 -0.1331  0.4129  0.7476
 1618SOL    HW2 6518   3.142   0.926   2.815 -1.6904 -0.5290  0.1685
 1618SOL    HW3 6519   3.233   0.855   2.717 -0.4349  0.1684  0.8170
 1618SOL    MW4 6520   3.178   0.920   2.735 -0.3784  0.2564  0.6802
 1619SOL     OW 6521   3.182   1.200   2.588 -0.3541  0.2668  0.0408
 1619SOL    HW2 6522   3.170   1.114   2.629 -2.2097  0.6509  0.3515
 1619SOL    HW3 6523   3.173   1.184   2.494 -0.7581  0.1259  0.1022
 1619SOL    MW4 6524   3.179   1.187   2.581 -0.6518  0.2989  0.0899
 1620SOL     OW 6525   3.590   1.163   2.645  0.3101  0.2683 -0.2986
 1620SOL    HW2 6526   3.668   1.217   2.653  0.7592 -0.4562  0.1940
 1620SOL    HW3 6527   3.518   1.221   2.672  0.8920  0.3446  1.1384
 1620SOL    MW4 6528   3.591   1.178   2.650  0.4461  0.1827 -0.0441
 1621SOL     OW 6529   3.389   1.603   2.603 -0.0231  0.2505 -0.2260
 1621SOL    HW2 6530   3.301   1.627   2.633 -0.2256  0.3539 -0.9030
 1621SOL    HW3 6531   3.402   1.514   2.636 -0.6573 -0.0276 -0.7246
 1621SOL    MW4 6532   3.379   1.594   2.612 -0.1335  0.2273 -0.3810
 1622SOL     OW 6533   3.129   1.674   2.722 -0.2364 -0.0649 -0.4385
 1622SOL    HW2 6534   3.141   1.755   2.673  1.5098 -0.4488 -0.6936
 1622SOL    HW3 6535   3.056   1.630   2.678 -2.1359  2.0087  0.5990
 1622SOL    MW4 6536   3.121   1.679   2.710 -0.2565  0.1581 -0.3355
 1623SOL     OW 6537   3.136   1.915   2.597 -0.4803 -0.0813  0.3102
 1623SOL    HW2 6538   3.196   1.978   2.636  0.2888  1.0177 -2.4716
 1623SOL    HW3 6539   3.049   1.946   2.621 -0.0339  0.8163  0.7579
 1623SOL    MW4 6540   3.132   1.927   2.605 -0.3200  0.1819  0.0021
 1624SOL     OW 6541   3.337   2.059   2.721 -0.4375 -0.3687 -0.2399
 1624SOL    HW2 6542   3.329   2.060   2.816  0.7313 -1.3393 -0.1162
 1624SOL    HW3 6543   3.323   2.149   2.695  0.6704  0.1852  0.9952
 1624SOL    MW4 6544   3.334   2.071   2.730 -0.1369 -0.4237 -0.0603
 1625SOL     OW 6545   3.346   2.315   2.596  0.2017 -0.3310  0.1170
 1625SOL    HW2 6546   3.429   2.349   2.631  0.3666 -1.4109  0.7941
 1625SOL    HW3 6547   3.351   2.331   2.502  1.1370 -0.3026  0.1695
 1625SOL    MW4 6548   3.358   2.322   2.589  0.3469 -0.4697  0.2136
 1626SOL     OW 6549   3.124   2.429   2.716  0.4846  0.4752 -0.1689
 1626SOL    HW2 6550   3.120   2.519   2.685  0.1784  0.2728 -0.7138
 1626SOL    HW3 6551   3.202   2.392   2.674  1.1201  0.7425  0.7492
 1626SOL    MW4 6552   3.134   2.436   2.707  0.5281  0.4838 -0.1199
 1627SOL     OW 6553   3.134   2.696   2.616 -0.0708  0.1667 -0.4014
 1627SOL    HW2 6554   3.215   2.733   2.652 -0.1991  1.3659 -1.3226
 1627SOL    HW3 6555   3.064   2.744   2.660 -0.2659 -0.1351 -0.3820
 1627SOL    MW4 6556   3.136   2.707   2.627 -0.1135  0.2849 -0.5207
 1628SOL     OW 6557   3.349   2.837   2.727 -0.4188 -0.1771  0.0988
 1628SOL    HW2 6558   3.354   2.837   2.822 -1.2489 -0.3576  0.1430
 1628SOL    HW3 6559   3.426   2.787   2.699 -1.1343 -1.6639  0.7342
 1628SOL    MW4 6560   3.360   2.830   2.736 -0.6223 -0.3970  0.1884
 1629SOL     OW 6561   3.348   3.105   2.653  0.0109  0.1310 -0.2009
 1629SOL    HW2 6562   3.336   3.017   2.690  1.4055  0.1139  0.2339
 1629SOL    HW3 6563   3.356   3.090   2.558 -1.2199 -0.0527 -0.2869
 1629SOL    MW4 6564   3.347   3.091   2.645  0.0322  0.1047 -0.1547
 1630SOL     OW 6565   3.121   3.237   2.742 -0.3748  0.4614  0.2001
 1630SOL    HW2 6566   3.194   3.197   2.695 -0.5112  1.0907 -0.5704
 1630SOL    HW3 6567   3.045   3.184   2.718 -0.2747  0.1710  0.5221
 1630SOL    MW4 6568   3.120   3.225   2.732 -0.3796  0.5062  0.1411
 1631SOL     OW 6569   3.175   3.490   2.639 -0.2112  0.3796 -0.2736
 1631SOL    HW2 6570   3.151   3.402   2.668 -0.0361  0.4215  0.0053
 1631SOL    HW3 6571   3.095   3.542   2.649 -0.1035  0.4370  0.3146
 1631SOL    MW4 6572   3.161   3.485   2.644 -0.1738  0.3929 -0.1590
 1632SOL     OW 6573   3.371   3.641   2.743  0.3165 -0.1334 -0.0319
 1632SOL    HW2 6574   3.376   3.627   2.838  0.5785 -0.4631 -0.0967
 1632SOL    HW3 6575   3.298   3.587   2.714  1.4428 -1.5344 -0.3105
 1632SOL    MW4 6576   3.362   3.632   2.752  0.4997 -0.3619 -0.0772
 1633SOL     OW 6577   3.389   3.877   2.636 -0.2513  0.3722  0.6089
 1633SOL    HW2 6578   3.392   3.794   2.684  0.2735  0.4998  0.7977
 1633SOL    HW3 6579   3.360   3.852   2.548 -1.2235  0.1426  0.9847
 1633SOL    MW4 6580   3.386   3.863   2.630 -0.3102  0.3586  0.6833
 1634SOL     OW 6581   3.145   3.991   2.718  0.1225  0.1858  0.6347
 1634SOL    HW2 6582   3.161   4.084   2.702 -1.2906 -0.0944 -2.9179
 1634SOL    HW3 6583   3.226   3.947   2.693 -0.4072  0.1717 -1.0622
 1634SOL    MW4 6584   3.158   3.998   2.713 -0.1338  0.1469 -0.0579
 1635SOL     OW 6585   2.939   4.406   2.783 -0.1901 -0.6239  0.0988
 1635SOL    HW2 6586   2.938   4.422   2.877  0.6499 -0.6850  0.1184
 1635SOL    HW3 6587   2.927   4.492   2.743  0.1830 -0.4986  0.2549
 1635SOL    MW4 6588   2.937   4.419   2.790 -0.0298 -0.6156  0.1221
 1636SOL     OW 6589   3.431   4.384   2.762  0.1799 -0.1533 -0.0042
 1636SOL    HW2 6590   3.425   4.396   2.857  0.8032  0.2325 -0.0128
 1636SOL    HW3 6591   3.353   4.332   2.740  0.1500 -0.4400  0.7459
 1636SOL    MW4 6592   3.420   4.379   2.771  0.2582 -0.1411  0.0937
 1637SOL     OW 6593   3.778   4.637   2.645  0.3195 -0.2057 -0.2062
 1637SOL    HW2 6594   3.808   4.554   2.682 -1.0215 -0.7494 -0.3200
 1637SOL    HW3 6595   3.722   4.675   2.713  0.0192  0.0727 -0.6034
 1637SOL    MW4 6596   3.775   4.631   2.659  0.1030 -0.2403 -0.2737
 1638SOL     OW 6597   3.583   0.121   3.049  0.0171  0.1752  0.1635
 1638SOL    HW2 6598   3.585   0.212   3.078 -1.5036  0.3940 -0.3960
 1638SOL    HW3 6599   3.587   0.126   2.954  0.6869 -0.3734  0.1641
 1638SOL    MW4 6600   3.584   0.134   3.040 -0.0954  0.1317  0.0899
 1639SOL     OW 6601   3.619   0.351   2.634  0.3264 -0.0095  0.0223
 1639SOL    HW2 6602   3.685   0.412   2.667 -0.2426  1.0736 -0.8061
 1639SOL    HW3 6603   3.536   0.386   2.667  0.1083 -1.0512  0.5985
 1639SOL    MW4 6604   3.617   0.364   2.643  0.2227 -0.0040 -0.0110
 1640SOL     OW 6605   3.826   0.519   2.737  0.2724  0.2564  0.0109
 1640SOL    HW2 6606   3.819   0.510   2.832  0.4143 -0.4361 -0.0396
 1640SOL    HW3 6607   3.902   0.466   2.713 -0.6417 -0.7801 -0.6591
 1640SOL    MW4 6608   3.835   0.511   2.746  0.1707  0.0283 -0.0842
 1641SOL     OW 6609   3.826   0.798   2.652 -0.4757 -0.5866 -0.0860
 1641SOL    HW2 6610   3.740   0.836   2.674 -0.6782 -0.9407 -0.2731
 1641SOL    HW3 6611   3.817   0.705   2.670 -0.0555 -0.5925  0.1115
 1641SOL    MW4 6612   3.813   0.791   2.657 -0.4470 -0.6341 -0.0846
 1642SOL     OW 6613   3.575   0.900   2.719  0.0553 -0.5907 -0.2125
 1642SOL    HW2 6614   3.560   0.899   2.814 -2.2905  0.1666 -0.5369
 1642SOL    HW3 6615   3.585   0.993   2.698  1.1586 -0.7988 -0.6439
 1642SOL    MW4 6616   3.575   0.912   2.729 -0.1087 -0.5182 -0.3121
 1643SOL     OW 6617   3.829   1.256   2.989  0.1652  0.1604  0.2413
 1643SOL    HW2 6618   3.840   1.275   2.895 -1.5625  0.7082  0.1288
 1643SOL    HW3 6619   3.829   1.342   3.031  0.8126 -0.0790  0.7482
 1643SOL    MW4 6620   3.831   1.270   2.982  0.0226  0.2012  0.2933
 1644SOL     OW 6621   4.078   1.179   3.066  0.1968 -0.1628  0.0984
 1644SOL    HW2 6622   3.991   1.201   3.034  0.2714  0.4159  0.2915
 1644SOL    HW3 6623   4.072   1.188   3.161  0.7959  1.0716  0.0305
 1644SOL    MW4 6624   4.066   1.183   3.074  0.2851  0.0764  0.1149
 1645SOL     OW 6625   3.860   1.539   2.359  0.0694 -0.5970  0.1757
 1645SOL    HW2 6626   3.850   1.555   2.453  1.6569  0.3414  0.2095
 1645SOL    HW3 6627   3.782   1.579   2.320  0.3633  0.7505  0.9263
 1645SOL    MW4 6628   3.848   1.547   2.366  0.3178 -0.2954  0.2789
 1646SOL     OW 6629   3.803   1.313   2.733  0.0928 -0.1170 -0.1023
 1646SOL    HW2 6630   3.876   1.269   2.689 -2.5361 -1.6822 -3.0721
 1646SOL    HW3 6631   3.802   1.401   2.695  0.7938  0.0919  0.3644
 1646SOL    MW4 6632   3.813   1.319   2.722 -0.1616 -0.2960 -0.4325
 1647SOL     OW 6633   3.796   1.576   2.640 -0.0636 -0.1399  0.3771
 1647SOL    HW2 6634   3.880   1.605   2.676  0.0937  0.8191 -0.7266
 1647SOL    HW3 6635   3.733   1.640   2.674 -0.0608  0.2142 -0.2805
 1647SOL    MW4 6636   3.799   1.589   2.649 -0.0424  0.0333  0.1447
 1648SOL     OW 6637   3.597   2.005   2.620 -0.1552  0.1195  0.6491
 1648SOL    HW2 6638   3.591   1.981   2.527 -0.5744  0.0975  0.6803
 1648SOL    HW3 6639   3.506   2.017   2.647 -0.0704 -0.5140  1.2204
 1648SOL    MW4 6640   3.584   2.003   2.611 -0.1996  0.0331  0.7288
 1649SOL     OW 6641   3.839   2.056   2.738 -0.1337 -0.0740  0.5915
 1649SOL    HW2 6642   3.765   2.030   2.682  0.6087  0.7764 -0.8183
 1649SOL    HW3 6643   3.914   2.009   2.702  0.7107  1.8973 -0.3149
 1649SOL    MW4 6644   3.839   2.046   2.726  0.0758  0.2980  0.2861
 1650SOL     OW 6645   3.578   2.421   2.730  0.1993 -0.2113 -0.2616
 1650SOL    HW2 6646   3.597   2.431   2.823 -1.5312  1.4925 -0.0793
 1650SOL    HW3 6647   3.660   2.386   2.693  0.8990 -0.8983  1.8744
 1650SOL    MW4 6648   3.592   2.418   2.737  0.0632 -0.0772  0.0441
 1651SOL     OW 6649   3.586   2.697   2.658  0.0578  0.1944  0.4741
 1651SOL    HW2 6650   3.573   2.604   2.678 -0.5750  0.3363  0.7265
 1651SOL    HW3 6651   3.582   2.701   2.562  1.0995 -0.1876  0.4145
 1651SOL    MW4 6652   3.584   2.685   2.648  0.1118  0.1626  0.4992
 1652SOL     OW 6653   3.816   2.817   2.748  0.1291  0.4262 -0.2954
 1652SOL    HW2 6654   3.880   2.761   2.704  0.9941 -1.4860  3.2584
 1652SOL    HW3 6655   3.731   2.778   2.727  0.6975 -2.0513  1.7639
 1652SOL    MW4 6656   3.813   2.805   2.739  0.3183 -0.1531  0.4454
 1653SOL     OW 6657   3.795   3.049   2.610  0.2265 -0.1272  0.1710
 1653SOL    HW2 6658   3.733   3.100   2.662 -0.6313 -1.8725  0.8759
 1653SOL    HW3 6659   3.799   2.964   2.653  3.4548  0.0684  0.3899
 1653SOL    MW4 6660   3.787   3.045   2.622  0.5391 -0.3316  0.2928
 1654SOL     OW 6661   3.580   3.216   2.743  0.0018 -0.0884 -0.1062
 1654SOL    HW2 6662   3.592   3.299   2.698  3.1623 -0.2560  0.3632
 1654SOL    HW3 6663   3.493   3.186   2.714 -0.1129  2.1313 -2.2296
 1654SOL    MW4 6664   3.570   3.223   2.733  0.4036  0.1826 -0.3245
 1655SOL     OW 6665   3.564   3.455   2.608 -0.1142 -0.0616 -0.3661
 1655SOL    HW2 6666   3.621   3.518   2.651 -0.8840 -0.4205  1.2151
 1655SOL    HW3 6667   3.475   3.487   2.623 -0.4373 -0.6036 -1.0444
 1655SOL    MW4 6668   3.560   3.467   2.616 -0.2584 -0.1805 -0.2470
 1656SOL     OW 6669   3.802   3.577   2.755 -0.3647  0.0033  0.3117
 1656SOL    HW2 6670   3.810   3.666   2.721  0.7917  0.5814  2.0434
 1656SOL    HW3 6671   3.889   3.539   2.743 -0.6492 -0.6414  0.2713
 1656SOL    MW4 6672   3.815   3.584   2.749 -0.2499 -0.0055  0.5350
 1657SOL     OW 6673   3.797   3.838   2.636  0.1867  0.0462 -0.0517
 1657SOL    HW2 6674   3.873   3.888   2.666  1.0657 -1.0741 -0.3991
 1657SOL    HW3 6675   3.723   3.879   2.681  0.7631  2.2765 -1.0608
 1657SOL    MW4 6676   3.797   3.850   2.646  0.3788  0.1929 -0.2306
 1658SOL     OW 6677   3.595   3.976   2.764  0.1912 -0.3889  0.1616
 1658SOL    HW2 6678   3.612   4.064   2.731  0.0738 -0.3354  0.2447
 1658SOL    HW3 6679   3.519   3.946   2.714  0.5730 -0.6600 -0.2689
 1658SOL    MW4 6680   3.587   3.984   2.753  0.2260 -0.4177  0.1156
 1659SOL     OW 6681   3.634   4.235   2.673 -0.2243  0.3134 -0.1842
 1659SOL    HW2 6682   3.564   4.295   2.699  0.3669  0.5831  0.8151
 1659SOL    HW3 6683   3.628   4.231   2.577 -0.1335  2.1386 -0.2799
 1659SOL    MW4 6684   3.624   4.243   2.664 -0.1345  0.5903 -0.0651
 1660SOL     OW 6685   3.852   4.382   2.757  0.0545  0.0459  0.1090
 1660SOL    HW2 6686   3.919   4.320   2.729  1.5351  1.4463  0.4695
 1660SOL    HW3 6687   3.769   4.338   2.739  1.0239 -0.9280 -2.1746
 1660SOL    MW4 6688   3.849   4.368   2.751  0.3777  0.1025 -0.1447
 1661SOL     OW 6689   4.250   4.625   2.629  0.2872  0.1731 -0.3044
 1661SOL    HW2 6690   4.166   4.672   2.630  0.1282 -0.1378  1.1006
 1661SOL    HW3 6691   4.314   4.689   2.657  0.3427  0.0646 -0.1828
 1661SOL    MW4 6692   4.247   4.639   2.633  0.2737  0.1183 -0.1030
 1662SOL     OW 6693   4.030   0.111   2.690  0.0065  0.3618 -0.0257
 1662SOL    HW2 6694   4.013   0.103   2.784 -0.3076  1.2464  0.0014
 1662SOL    HW3 6695   3.950   0.078   2.648 -1.2349  3.0665  0.0814
 1662SOL    MW4 6696   4.017   0.106   2.697 -0.1988  0.8353 -0.0079
 1663SOL     OW 6697   4.254   0.786   2.695  0.1075  0.0135 -0.9432
 1663SOL    HW2 6698   4.232   0.699   2.730  1.3096  0.1102  0.0947
 1663SOL    HW3 6699   4.271   0.770   2.602  1.2692 -1.0664 -0.5769
 1663SOL    MW4 6700   4.254   0.772   2.688  0.4201 -0.1162 -0.7579
 1664SOL     OW 6701   4.266   0.539   2.796 -0.1240  0.0758 -0.3641
 1664SOL    HW2 6702   4.191   0.489   2.764  0.4746 -0.2657 -1.2554
 1664SOL    HW3 6703   4.339   0.511   2.741  1.0126 -0.7704  1.5207
 1664SOL    MW4 6704   4.266   0.529   2.785  0.1054 -0.0809 -0.2332
 1665SOL     OW 6705   4.290   0.754   2.422  0.1532  0.5626 -0.7405
 1665SOL    HW2 6706   4.352   0.796   2.362  0.7213 -1.8333 -1.9157
 1665SOL    HW3 6707   4.204   0.783   2.392  0.5432  1.2014 -1.2699
 1665SOL    MW4 6708   4.287   0.763   2.410  0.2799  0.3308 -0.9654
 1666SOL     OW 6709   4.052   0.965   2.753  1.0508  0.2883  0.3636
 1666SOL    HW2 6710   4.129   0.917   2.722  0.3755  0.0992 -1.0633
 1666SOL    HW3 6711   3.977   0.914   2.720  0.3172  2.2061 -1.0206
 1666SOL    MW4 6712   4.052   0.952   2.745  0.8650  0.5163 -0.0074
 1667SOL     OW 6713   4.045   1.215   2.634 -0.8243 -0.6509 -0.4753
 1667SOL    HW2 6714   4.118   1.258   2.678 -0.7308  0.3832 -1.6228
 1667SOL    HW3 6715   4.054   1.122   2.657  0.6352 -0.4787 -0.3408
 1667SOL    MW4 6716   4.056   1.208   2.643 -0.6199 -0.4919 -0.6092
 1668SOL     OW 6717   4.468   1.168   2.652 -0.4868  0.0788  0.2659
 1668SOL    HW2 6718   4.546   1.208   2.691 -0.6508 -0.0778  0.7628
 1668SOL    HW3 6719   4.395   1.207   2.700 -0.6608 -0.6241  0.5925
 1668SOL    MW4 6720   4.469   1.178   2.664 -0.5317 -0.0348  0.3746
 1669SOL     OW 6721   4.277   1.555   2.617 -0.3280 -0.4552  0.1184
 1669SOL    HW2 6722   4.351   1.598   2.660 -0.2422 -0.1473 -0.3322
 1669SOL    HW3 6723   4.287   1.576   2.524  0.0276 -1.9278 -0.1897
 1669SOL    MW4 6724   4.288   1.563   2.610 -0.2689 -0.6088  0.0181
 1670SOL     OW 6725   4.042   1.631   2.733 -0.1423  0.4699  0.0509
 1670SOL    HW2 6726   4.062   1.630   2.827  1.1368 -0.6225 -0.2211
 1670SOL    HW3 6727   4.120   1.595   2.691 -1.0404  0.1468 -1.3849
 1670SOL    MW4 6728   4.055   1.626   2.740 -0.0916  0.2832 -0.1745
 1671SOL     OW 6729   4.045   1.889   2.601 -0.2187 -0.0325  0.3578
 1671SOL    HW2 6730   4.115   1.934   2.648  0.7396 -0.9638 -0.1641
 1671SOL    HW3 6731   4.052   1.798   2.628 -0.5294 -0.3306 -0.5276
 1671SOL    MW4 6732   4.055   1.883   2.610 -0.1330 -0.1947  0.1721
 1672SOL     OW 6733   4.233   2.016   2.757 -0.5626 -0.2468  0.1091
 1672SOL    HW2 6734   4.240   2.109   2.736 -1.3451  0.1086  1.4116
 1672SOL    HW3 6735   4.314   1.978   2.722 -1.3414  0.4906 -2.5888
 1672SOL    MW4 6736   4.245   2.023   2.750 -0.7687 -0.1025 -0.0751
 1673SOL     OW 6737   4.244   2.275   2.680  0.5833 -0.4733  0.3166
 1673SOL    HW2 6738   4.183   2.345   2.701  0.9111 -0.0294 -0.2004
 1673SOL    HW3 6739   4.249   2.275   2.584  0.3325 -1.4152  0.2924
 1673SOL    MW4 6740   4.237   2.284   2.670  0.5932 -0.5391  0.2453
 1674SOL     OW 6741   4.041   2.465   2.747  0.0942 -0.4665 -0.1983
 1674SOL    HW2 6742   4.053   2.460   2.842  0.9353 -0.6765 -0.3071
 1674SOL    HW3 6743   3.955   2.427   2.731  0.2986 -1.1941  0.4000
 1674SOL    MW4 6744   4.032   2.460   2.758  0.2313 -0.5903 -0.1335
 1675SOL     OW 6745   4.042   2.716   2.617 -0.0070 -0.5105 -0.2169
 1675SOL    HW2 6746   4.117   2.761   2.656 -1.1515  1.2601 -0.0133
 1675SOL    HW3 6747   4.039   2.631   2.663  1.1049 -0.0982  0.6570
 1675SOL    MW4 6748   4.051   2.711   2.628 -0.0110 -0.2227 -0.0749
 1676SOL     OW 6749   4.256   2.836   2.741  0.3583  0.1738  0.1806
 1676SOL    HW2 6750   4.249   2.823   2.835  0.5268  0.2795  0.2083
 1676SOL    HW3 6751   4.244   2.931   2.729 -0.7078  0.0234 -0.0045
 1676SOL    MW4 6752   4.253   2.847   2.752  0.2403  0.1676  0.1595
 1677SOL     OW 6753   4.253   3.098   2.663 -0.2385 -0.0588  0.1841
 1677SOL    HW2 6754   4.160   3.116   2.675 -0.7287 -2.6829  0.6246
 1677SOL    HW3 6755   4.263   3.082   2.569 -0.4576 -0.9600  0.3139
 1677SOL    MW4 6756   4.242   3.098   2.652 -0.3324 -0.5238  0.2594
 1678SOL     OW 6757   4.008   3.189   2.766  0.1436 -0.4206  0.1528
 1678SOL    HW2 6758   4.030   3.276   2.732 -0.9825 -0.0185  0.4371
 1678SOL    HW3 6759   3.949   3.152   2.701  0.5831 -0.9661  0.0582
 1678SOL    MW4 6760   4.003   3.196   2.753  0.0534 -0.4394  0.1779
 1679SOL     OW 6761   4.054   3.473   2.690 -0.5807 -0.1829 -0.1324
 1679SOL    HW2 6762   4.111   3.547   2.712 -2.0510  0.7586  0.6343
 1679SOL    HW3 6763   4.049   3.474   2.594 -0.1727  0.3851 -0.1490
 1679SOL    MW4 6764   4.061   3.483   2.680 -0.7210  0.0162 -0.0331
 1680SOL     OW 6765   4.252   3.667   2.766  0.3355 -0.7804  0.8497
 1680SOL    HW2 6766   4.321   3.614   2.726  0.7038 -1.3136  2.1405
 1680SOL    HW3 6767   4.266   3.656   2.860 -1.5631 -0.9521  1.1257
 1680SOL    MW4 6768   4.263   3.659   2.773  0.1335 -0.8736  1.0564
 1681SOL     OW 6769   4.277   3.897   2.628 -0.1541 -0.3569 -0.6517
 1681SOL    HW2 6770   4.270   3.810   2.668  0.1443  0.2820  0.8508
 1681SOL    HW3 6771   4.359   3.933   2.664  0.9972 -0.3930 -3.1713
 1681SOL    MW4 6772   4.287   3.891   2.638  0.0367 -0.2770 -0.7861
 1682SOL     OW 6773   4.035   3.965   2.740  0.3994  0.1865  0.3730
 1682SOL    HW2 6774   4.041   3.954   2.835  0.3927  1.1077  0.4888
 1682SOL    HW3 6775   4.120   3.936   2.707 -0.0519 -1.3688  0.5258
 1682SOL    MW4 6776   4.047   3.960   2.748  0.3395  0.1032  0.4086
 1683SOL     OW 6777   4.071   4.223   2.650 -0.1178 -0.0084  0.2870
 1683SOL    HW2 6778   4.065   4.129   2.668  0.6609 -0.0793  0.2167
 1683SOL    HW3 6779   4.072   4.229   2.555  1.3880 -0.0492  0.2910
 1683SOL    MW4 6780   4.071   4.211   2.640  0.1841 -0.0234  0.2782
 1684SOL     OW 6781   4.276   4.383   2.748  0.2287  0.2236 -0.2811
 1684SOL    HW2 6782   4.257   4.470   2.713  0.7385  0.0562 -0.9862
 1684SOL    HW3 6783   4.208   4.327   2.710 -0.6504  0.4762  0.9030
 1684SOL    MW4 6784   4.265   4.387   2.738  0.1802  0.2346 -0.2174
 1685SOL     OW 6785   0.408   0.162   2.981  0.1140 -0.0443 -0.6248
 1685SOL    HW2 6786   0.399   0.246   3.027 -0.4202  0.5921 -1.8594
 1685SOL    HW3 6787   0.340   0.107   3.021  0.2256  0.2190 -0.0560
 1685SOL    MW4 6788   0.398   0.166   2.993  0.0583  0.0744 -0.7126
 1686SOL     OW 6789   0.199   0.033   3.100 -0.5433 -0.1306  0.0839
 1686SOL    HW2 6790   0.111   0.058   3.074 -1.7469 -3.5766  0.6067
 1686SOL    HW3 6791   0.196   0.031   3.196 -0.0866 -0.8694  0.0841
 1686SOL    MW4 6792   0.187   0.036   3.109 -0.6418 -0.6827  0.1528
 1687SOL     OW 6793   4.455   0.142   3.007  0.3258  0.0733 -0.2870
 1687SOL    HW2 6794   4.448   0.226   3.054  0.9638  0.1685 -0.3675
 1687SOL    HW3 6795   4.385   0.089   3.045 -0.0651  0.6299 -0.2084
 1687SOL    MW4 6796   4.445   0.146   3.019  0.3581  0.1593 -0.2868
 1688SOL     OW 6797   0.183   0.492   2.987 -0.6145  0.5552 -0.1960
 1688SOL    HW2 6798   0.260   0.458   3.032 -0.6675  0.2410 -0.3414
 1688SOL    HW3 6799   0.109   0.452   3.033 -0.6626 -0.0171 -0.7549
 1688SOL    MW4 6800   0.183   0.482   2.999 -0.6278  0.4382 -0.2890
 1689SOL     OW 6801   0.226   0.753   3.079  0.0574 -0.0605 -0.3011
 1689SOL    HW2 6802   0.212   0.740   3.173  0.0418  1.5438 -0.0793
 1689SOL    HW3 6803   0.205   0.667   3.040 -2.4007 -0.0581  0.8833
 1689SOL    MW4 6804   0.221   0.740   3.086 -0.2690  0.1515 -0.1154
 1690SOL     OW 6805   4.478   0.886   3.057  0.0146  0.4551 -0.2592
 1690SOL    HW2 6806   4.470   0.903   2.963 -0.7276  1.6733  0.0062
 1690SOL    HW3 6807   4.565   0.847   3.067  0.2375  0.6365 -1.4050
 1690SOL    MW4 6808   4.488   0.883   3.046 -0.0539  0.6398 -0.3753
 1691SOL     OW 6809   0.027   1.144   3.140 -0.0885 -0.4582  0.3780
 1691SOL    HW2 6810  -0.042   1.197   3.099  0.0548 -0.0857  0.6163
 1691SOL    HW3 6811  -0.001   1.053   3.127 -0.3399 -0.3214 -0.0241
 1691SOL    MW4 6812   0.014   1.139   3.133 -0.1028 -0.3910  0.3564
 1692SOL     OW 6813   0.241   1.294   3.027 -0.1473 -0.0374  0.0548
 1692SOL    HW2 6814   0.172   1.236   3.060  0.8071 -0.7288  0.8781
 1692SOL    HW3 6815   0.235   1.286   2.932 -1.3499  0.0993  0.1059
 1692SOL    MW4 6816   0.231   1.285   3.019 -0.1800 -0.1104  0.1705
 1693SOL     OW 6817   0.015   1.673   3.041  0.3952 -0.1013 -0.2464
 1693SOL    HW2 6818   0.092   1.626   3.074 -0.7672 -2.9563 -1.4201
 1693SOL    HW3 6819  -0.059   1.628   3.082 -0.7589  0.6600 -1.4846
 1693SOL    MW4 6820   0.016   1.661   3.051  0.0896 -0.3775 -0.5648
 1694SOL     OW 6821   0.007   1.923   3.138  0.2565  0.0794  0.7954
 1694SOL    HW2 6822   0.092   1.955   3.106 -0.3935  1.6328  0.5777
 1694SOL    HW3 6823   0.009   1.829   3.120  1.7973  0.1491  0.4826
 1694SOL    MW4 6824   0.019   1.915   3.132  0.3738  0.2936  0.7253
 1695SOL     OW 6825   0.053   1.921   3.412 -0.5713 -0.4868 -0.1393
 1695SOL    HW2 6826   0.036   1.831   3.439  0.7792 -0.4880  0.7398
 1695SOL    HW3 6827   0.044   1.919   3.317 -0.9158 -1.4732 -0.0934
 1695SOL    MW4 6828   0.050   1.909   3.403 -0.4385 -0.6171 -0.0174
 1696SOL     OW 6829   0.252   2.288   3.131 -0.1885 -0.0548 -0.2041
 1696SOL    HW2 6830   0.264   2.296   3.226  4.0245 -2.1445 -0.4061
 1696SOL    HW3 6831   0.314   2.351   3.094  1.7626 -2.6075 -1.4798
 1696SOL    MW4 6832   0.262   2.297   3.139  0.6248 -0.6673 -0.3991
 1697SOL     OW 6833   0.424   2.459   3.014  0.0668 -0.1765  0.2043
 1697SOL    HW2 6834   0.503   2.412   3.038 -0.6427 -1.2844  0.3893
 1697SOL    HW3 6835   0.417   2.449   2.919  1.2285  1.6497 -0.1183
 1697SOL    MW4 6836   0.433   2.452   3.005  0.1265 -0.0815  0.1860
 1698SOL     OW 6837   4.486   2.393   3.047  0.2675 -0.8664  0.4075
 1698SOL    HW2 6838   4.484   2.487   3.062  0.1388 -0.5018 -1.7020
 1698SOL    HW3 6839   4.568   2.364   3.086  0.1376  0.0647  1.3780
 1698SOL    MW4 6840   4.497   2.402   3.054  0.2334 -0.6955  0.2573
 1699SOL     OW 6841   4.473   2.671   3.082 -0.2249  0.2410 -0.7106
 1699SOL    HW2 6842   4.475   2.671   3.177 -1.9138 -1.0657 -0.6593
 1699SOL    HW3 6843   4.537   2.738   3.057  1.4765 -0.5896  1.2897
 1699SOL    MW4 6844   4.482   2.680   3.091 -0.2233 -0.0410 -0.4399
 1700SOL     OW 6845   0.196   2.845   3.047  0.5907  0.1729 -0.3074
 1700SOL    HW2 6846   0.196   2.938   3.071 -0.1129 -0.2351  1.3373
 1700SOL    HW3 6847   0.204   2.845   2.951 -1.8007  1.9915 -0.5370
 1700SOL    MW4 6848   0.197   2.858   3.037  0.1823  0.3588 -0.1206
 1701SOL     OW 6849   0.236   3.111   3.185  0.7306 -0.3909 -0.1242
 1701SOL    HW2 6850   0.153   3.136   3.145  0.7389  0.5582  0.4447
 1701SOL    HW3 6851   0.303   3.143   3.124  0.7295  0.6429  0.4037
 1701SOL    MW4 6852   0.234   3.118   3.172  0.7315 -0.1295  0.0205
 1702SOL     OW 6853   0.019   3.236   3.024  0.0843  0.1562 -0.0871
 1702SOL    HW2 6854  -0.055   3.181   3.047  0.1475  0.5029  1.0000
 1702SOL    HW3 6855   0.013   3.247   2.929 -1.5966  0.6740  0.0679
 1702SOL    MW4 6856   0.009   3.231   3.015 -0.1292  0.2701  0.0763
 1703SOL     OW 6857   4.484   3.470   3.157  0.9156  0.2333 -0.1413
 1703SOL    HW2 6858   4.417   3.525   3.118  0.5944 -0.4701 -0.6000
 1703SOL    HW3 6859   4.479   3.388   3.108  2.3627  0.3000 -0.4253
 1703SOL    MW4 6860   4.474   3.466   3.146  1.0643  0.1495 -0.2394
 1704SOL     OW 6861   0.198   3.608   3.041  0.3261  0.3786  0.2542
 1704SOL    HW2 6862   0.139   3.550   3.088 -0.2667  0.3040 -0.5716
 1704SOL    HW3 6863   0.286   3.576   3.062  0.0462  0.0457  0.9075
 1704SOL    MW4 6864   0.202   3.596   3.050  0.2109  0.3247  0.2313
 1705SOL     OW 6865   0.001   4.047   2.725 -0.1220  0.0195  0.1137
 1705SOL    HW2 6866   0.081   4.014   2.684  0.6471  0.1023  1.5146
 1705SOL    HW3 6867   0.006   4.142   2.713 -0.0789  0.0123  0.0719
 1705SOL    MW4 6868   0.012   4.055   2.718 -0.0148  0.0296  0.2930
 1706SOL     OW 6869   4.469   4.013   3.002 -0.3596 -0.9550 -0.6145
 1706SOL    HW2 6870   4.539   3.957   3.034  2.8312  2.4989 -1.2840
 1706SOL    HW3 6871   4.470   4.000   2.907 -0.4018 -0.6266 -0.6587
 1706SOL    MW4 6872   4.478   4.004   2.993  0.0558 -0.4563 -0.7086
 1707SOL     OW 6873   4.237   4.398   3.032  0.2465 -0.1710 -0.5131
 1707SOL    HW2 6874   4.320   4.354   3.050 -0.1630 -1.3912 -1.5252
 1707SOL    HW3 6875   4.234   4.406   2.936 -0.2336  0.9839 -0.4127
 1707SOL    MW4 6876   4.247   4.393   3.022  0.1292 -0.1798 -0.6332
 1708SOL     OW 6877   4.459   4.281   3.110 -0.1962  0.1118  0.0123
 1708SOL    HW2 6878   4.466   4.187   3.090 -0.9339  0.1614 -0.4791
 1708SOL    HW3 6879   4.462   4.284   3.206 -2.1863 -0.5936  0.1134
 1708SOL    MW4 6880   4.461   4.269   3.120 -0.5561  0.0257 -0.0391
 1709SOL     OW 6881   0.658   0.029   3.092 -0.1938 -0.2561  0.3513
 1709SOL    HW2 6882   0.669  -0.065   3.078 -0.5212 -0.1227 -0.8326
 1709SOL    HW3 6883   0.566   0.046   3.071 -0.2654  0.2459  1.0504
 1709SOL    MW4 6884   0.647   0.019   3.087 -0.2463 -0.1723  0.2873
 1710SOL     OW 6885   0.433   0.428   3.084  0.9898  1.0670  0.1815
 1710SOL    HW2 6886   0.516   0.464   3.054  0.9986  0.7463 -0.1918
 1710SOL    HW3 6887   0.435   0.437   3.179  1.4634  1.0285  0.1758
 1710SOL    MW4 6888   0.444   0.434   3.092  1.0535  1.0196  0.1314
 1711SOL     OW 6889   0.436   0.353   3.377  0.3142  0.5363 -0.5319
 1711SOL    HW2 6890   0.422   0.276   3.431 -1.5880  1.3834  0.2240
 1711SOL    HW3 6891   0.517   0.392   3.410  1.2309 -1.0807 -0.8656
 1711SOL    MW4 6892   0.445   0.348   3.388  0.1841  0.4347 -0.4761
 1712SOL     OW 6893   0.694   0.502   3.028 -0.4689  0.0420  0.5498
 1712SOL    HW2 6894   0.784   0.470   3.039 -1.1943 -1.7315  1.4271
 1712SOL    HW3 6895   0.701   0.596   3.046  1.5895  0.3528 -1.5372
 1712SOL    MW4 6896   0.707   0.510   3.032 -0.2930 -0.1509  0.3905
 1713SOL     OW 6897   0.687   0.755   3.117 -0.1513  0.0174  0.3312
 1713SOL    HW2 6898   0.689   0.755   3.213  1.8541  1.6993  0.3098
 1713SOL    HW3 6899   0.608   0.804   3.095 -1.1820 -1.2452  1.0945
 1713SOL    MW4 6900   0.676   0.761   3.127 -0.0227  0.0727  0.4292
 1714SOL     OW 6901   0.470   0.887   3.022 -0.3828  0.4958  0.0685
 1714SOL    HW2 6902   0.402   0.826   3.049 -1.6149  1.4577 -0.7848
 1714SOL    HW3 6903   0.461   0.894   2.927 -0.0235  1.6915  0.1058
 1714SOL    MW4 6904   0.460   0.880   3.013 -0.4979  0.7804 -0.0393
 1715SOL     OW 6905   0.465   1.164   3.122 -0.0257 -0.1123  0.0775
 1715SOL    HW2 6906   0.470   1.074   3.088  0.7472 -0.5985  1.4212
 1715SOL    HW3 6907   0.379   1.195   3.094 -0.8221 -1.7192  0.6297
 1715SOL    MW4 6908   0.454   1.156   3.114 -0.0288 -0.3885  0.3276
 1716SOL     OW 6909   0.657   1.333   3.014  0.3904  0.4667  0.0225
 1716SOL    HW2 6910   0.588   1.274   3.046  1.0766 -0.6561 -0.5332
 1716SOL    HW3 6911   0.737   1.303   3.058  0.4877  1.9659  0.9159
 1716SOL    MW4 6912   0.659   1.321   3.024  0.4938  0.5163  0.0672
 1717SOL     OW 6913   0.907   1.687   3.050  0.1639 -0.2808  0.1335
 1717SOL    HW2 6914   0.851   1.628   3.100  0.2296 -0.3237  0.1556
 1717SOL    HW3 6915   0.996   1.668   3.080  0.1874 -0.1871  0.1248
 1717SOL    MW4 6916   0.911   1.677   3.060  0.1757 -0.2741  0.1352
 1718SOL     OW 6917   0.480   1.671   3.051 -0.3284  0.2523  0.5381
 1718SOL    HW2 6918   0.478   1.762   3.081  0.1063  0.4126  0.0826
 1718SOL    HW3 6919   0.562   1.636   3.086  0.7957  0.7961 -1.4759
 1718SOL    MW4 6920   0.490   1.679   3.060 -0.1228  0.3452  0.2124
 1719SOL     OW 6921   0.246   2.030   3.019  0.3257  0.3800  0.1520
 1719SOL    HW2 6922   0.234   2.023   2.924  0.0372  1.5276  0.0921
 1719SOL    HW3 6923   0.222   2.121   3.039  1.7361  0.5555  1.1151
 1719SOL    MW4 6924   0.241   2.041   3.009  0.4737  0.5543  0.2713
 1720SOL     OW 6925   0.880   1.934   3.173  0.3526  0.4677  0.3107
 1720SOL    HW2 6926   0.873   1.844   3.141 -0.0173  0.6578 -0.1497
 1720SOL    HW3 6927   0.888   1.926   3.268 -2.4896  0.0787  0.5463
 1720SOL    MW4 6928   0.880   1.921   3.181 -0.0712  0.4414  0.2811
 1721SOL     OW 6929   0.718   2.303   3.404 -0.0078  0.2183  0.0379
 1721SOL    HW2 6930   0.707   2.227   3.461 -1.6560  0.1726 -0.3178
 1721SOL    HW3 6931   0.782   2.358   3.449 -0.8044 -0.1075  1.6005
 1721SOL    MW4 6932   0.725   2.300   3.417 -0.3304  0.1690  0.1972
 1722SOL     OW 6933   0.439   2.455   2.742  0.3657 -0.4549  0.4579
 1722SOL    HW2 6934   0.524   2.425   2.710  2.0124  0.8820  3.4118
 1722SOL    HW3 6935   0.438   2.549   2.722 -1.2992 -0.8005 -1.3043
 1722SOL    MW4 6936   0.450   2.464   2.735  0.3633 -0.3240  0.6151
 1723SOL     OW 6937   0.411   2.711   3.162 -0.5301  0.3036  0.2187
 1723SOL    HW2 6938   0.397   2.624   3.124  0.5512 -0.7076  2.0888
 1723SOL    HW3 6939   0.348   2.767   3.116 -0.0300 -1.0754 -2.2875
 1723SOL    MW4 6940   0.401   2.707   3.151 -0.3215 -0.0117  0.1347
 1724SOL     OW 6941   0.624   2.811   3.039  0.0169  0.2817  0.2442
 1724SOL    HW2 6942   0.545   2.781   3.083 -0.1415  0.8157  0.3340
 1724SOL    HW3 6943   0.634   2.902   3.068 -0.3064  0.7641 -1.1138
 1724SOL    MW4 6944   0.615   2.819   3.049 -0.0467  0.4158  0.0765
 1725SOL     OW 6945   0.659   3.083   3.109  0.2589 -0.2462  0.5282
 1725SOL    HW2 6946   0.670   3.099   3.203  0.5346  0.7881  0.3237
 1725SOL    HW3 6947   0.738   3.120   3.069 -0.1399 -0.1374 -0.1705
 1725SOL    MW4 6948   0.671   3.090   3.116  0.2426 -0.0956  0.4091
 1726SOL     OW 6949   0.428   3.219   3.001  0.0474 -0.1247 -0.5161
 1726SOL    HW2 6950   0.508   3.188   3.041 -0.8060  0.6783  1.9240
 1726SOL    HW3 6951   0.427   3.313   3.018 -1.6423 -0.1983 -0.0300
 1726SOL    MW4 6952   0.438   3.228   3.009 -0.2881 -0.0284 -0.1299
 1727SOL     OW 6953   0.444   3.495   3.102  0.0526  0.1197  0.3814
 1727SOL    HW2 6954   0.459   3.495   3.196  1.2226 -1.8408  0.2081
 1727SOL    HW3 6955   0.519   3.543   3.065  1.3839 -2.0415  0.2076
 1727SOL    MW4 6956   0.456   3.501   3.109  0.3826 -0.4241  0.3355
 1728SOL     OW 6957   0.663   3.620   2.988  0.1573 -0.1628  0.3342
 1728SOL    HW2 6958   0.731   3.571   3.033 -1.7743 -0.8010  2.6941
 1728SOL    HW3 6959   0.657   3.703   3.036 -0.5140  0.0211 -0.0515
 1728SOL    MW4 6960   0.671   3.625   3.000 -0.1861 -0.2229  0.5946
 1729SOL     OW 6961   0.644   3.882   3.108 -0.0084 -0.2832 -0.2104
 1729SOL    HW2 6962   0.566   3.923   3.071 -0.0061 -0.8146 -0.7894
 1729SOL    HW3 6963   0.644   3.911   3.200 -0.3327  0.5338 -0.4626
 1729SOL    MW4 6964   0.633   3.891   3.115 -0.0509 -0.2456 -0.3202
 1730SOL     OW 6965   0.209   3.879   3.099 -0.0095 -0.5069  0.5570
 1730SOL    HW2 6966   0.242   3.870   3.189  0.4627  0.7043  0.5092
 1730SOL    HW3 6967   0.199   3.789   3.068 -1.2856 -0.9721  2.2290
 1730SOL    MW4 6968   0.212   3.866   3.107 -0.1156 -0.4084  0.7710
 1731SOL     OW 6969   0.209   4.440   3.036  0.3112 -0.0252 -0.0677
 1731SOL    HW2 6970   0.207   4.534   3.054  0.9365  0.2522 -1.4280
 1731SOL    HW3 6971   0.127   4.407   3.073  0.0831  1.0463  0.4039
 1731SOL    MW4 6972   0.198   4.448   3.043  0.3636  0.1531 -0.1848
 1732SOL     OW 6973   0.683   4.420   3.039  0.5587 -0.4589 -0.7144
 1732SOL    HW2 6974   0.597   4.383   3.060  0.4841  0.5843  0.8596
 1732SOL    HW3 6975   0.694   4.401   2.946 -1.4512 -0.4804 -0.9826
 1732SOL    MW4 6976   0.673   4.413   3.029  0.2837 -0.3242 -0.5419
 1733SOL     OW 6977   1.124   4.652   3.143  0.1105  0.1097 -0.4997
 1733SOL    HW2 6978   1.194   4.688   3.088  0.6058  0.0042  0.0466
 1733SOL    HW3 6979   1.043   4.687   3.105  0.4386 -0.0246 -1.3326
 1733SOL    MW4 6980   1.123   4.662   3.131  0.2192  0.0777 -0.5376
 1734SOL     OW 6981   0.910   0.121   3.008 -0.0875 -0.1465  0.1231
 1734SOL    HW2 6982   0.918   0.213   2.986  2.5649 -0.4454 -0.3398
 1734SOL    HW3 6983   0.818   0.109   3.032 -0.9571  2.1360 -1.9301
 1734SOL    MW4 6984   0.899   0.131   3.008  0.1477  0.1152 -0.2089
 1735SOL     OW 6985   1.186   0.579   2.975  0.8722 -0.0174  0.1314
 1735SOL    HW2 6986   1.258   0.517   2.989  1.4951  0.1309 -2.2634
 1735SOL    HW3 6987   1.153   0.558   2.888 -1.5934  0.3453  0.9296
 1735SOL    MW4 6988   1.191   0.568   2.966  0.6291  0.0499 -0.0792
 1736SOL     OW 6989   1.371   0.388   3.057 -0.2563  0.3511  0.1853
 1736SOL    HW2 6990   1.466   0.396   3.052 -0.1773 -1.0404 -0.9976
 1736SOL    HW3 6991   1.353   0.373   3.149  0.9276 -1.9121  0.0979
 1736SOL    MW4 6992   1.381   0.387   3.068 -0.0896 -0.1311  0.0181
 1737SOL     OW 6993   1.127   0.810   3.121  0.2483  0.2581 -0.1266
 1737SOL    HW2 6994   1.119   0.778   3.211 -0.2905  2.2082  0.5450
 1737SOL    HW3 6995   1.140   0.731   3.068  2.6594 -0.7511  1.8969
 1737SOL    MW4 6996   1.127   0.795   3.126  0.4953  0.3822  0.2291
 1738SOL     OW 6997   0.885   0.942   3.046  0.5101 -0.2594  0.1233
 1738SOL    HW2 6998   0.968   0.904   3.078  0.3310 -0.8184 -0.0720
 1738SOL    HW3 6999   0.818   0.881   3.076  0.1374  0.3625  0.5538
 1738SOL    MW4 7000   0.887   0.929   3.054  0.4373 -0.2510  0.1543
 1739SOL     OW 7001   0.891   1.211   3.132  0.7441  0.0313  0.2234
 1739SOL    HW2 7002   0.976   1.250   3.112  0.8234 -0.4791 -0.4764
 1739SOL    HW3 7003   0.890   1.130   3.081  1.1438 -1.5930  2.6711
 1739SOL    MW4 7004   0.902   1.205   3.123  0.8073 -0.2503  0.4539
 1740SOL     OW 7005   1.135   1.309   3.056 -0.1466 -0.4205  0.1517
 1740SOL    HW2 7006   1.205   1.260   3.100  0.1275 -0.9498 -0.8517
 1740SOL    HW3 7007   1.154   1.298   2.963 -0.6108  0.8410 -0.0990
 1740SOL    MW4 7008   1.147   1.301   3.050 -0.1718 -0.3239 -0.0136
 1741SOL     OW 7009   1.113   1.543   3.394 -0.4635  0.0176 -0.2449
 1741SOL    HW2 7010   1.195   1.581   3.425 -1.2997  1.3525  0.4261
 1741SOL    HW3 7011   1.118   1.548   3.298  0.3791 -0.2465 -0.2143
 1741SOL    MW4 7012   1.124   1.549   3.385 -0.4629  0.1588 -0.1523
 1742SOL     OW 7013   1.156   1.569   3.125  0.5027  0.0800  0.2806
 1742SOL    HW2 7014   1.229   1.605   3.076  1.1699 -0.2203  1.0440
 1742SOL    HW3 7015   1.149   1.478   3.095  0.4272  0.1150  0.1922
 1742SOL    MW4 7016   1.165   1.562   3.114  0.5809  0.0451  0.3698
 1743SOL     OW 7017   0.893   1.893   3.449 -0.0964  0.7952  0.1175
 1743SOL    HW2 7018   0.816   1.935   3.488 -0.7017  0.4219 -0.6700
 1743SOL    HW3 7019   0.886   1.801   3.477 -0.9069  0.3705 -1.4079
 1743SOL    MW4 7020   0.882   1.886   3.458 -0.2832  0.6899 -0.1874
 1744SOL     OW 7021   1.127   2.259   3.111 -0.7121 -0.1375  0.0838
 1744SOL    HW2 7022   1.049   2.297   3.071 -1.1866 -0.6369  0.5398
 1744SOL    HW3 7023   1.138   2.174   3.068 -0.9064 -0.4358  0.6250
 1744SOL    MW4 7024   1.118   2.253   3.100 -0.8003 -0.2429  0.2153
 1745SOL     OW 7025   0.898   2.435   3.037  0.3722 -0.0988 -0.1807
 1745SOL    HW2 7026   0.906   2.519   3.082  1.9965 -1.0705  1.4333
 1745SOL    HW3 7027   0.926   2.453   2.947 -0.5250  1.3513 -0.1717
 1745SOL    MW4 7028   0.903   2.448   3.031  0.4682 -0.0360  0.0336
 1746SOL     OW 7029   0.657   2.308   3.099  0.3661 -0.2819 -0.2317
 1746SOL    HW2 7030   0.734   2.353   3.065  1.8417 -2.2883  0.3345
 1746SOL    HW3 7031   0.672   2.303   3.193 -0.8075 -0.0752 -0.0210
 1746SOL    MW4 7032   0.669   2.313   3.107  0.4060 -0.5190 -0.1292
 1747SOL     OW 7033   0.900   2.679   3.152  0.3390 -0.0505 -0.8209
 1747SOL    HW2 7034   0.896   2.702   3.245 -0.4002  1.5111 -1.2218
 1747SOL    HW3 7035   0.816   2.709   3.117  0.6967 -0.4600 -2.0315
 1747SOL    MW4 7036   0.888   2.686   3.160  0.2886  0.1016 -1.0335
 1748SOL     OW 7037   1.120   2.773   3.016 -0.0750 -0.3068  0.2912
 1748SOL    HW2 7038   1.125   2.869   3.019  0.1341 -0.3083 -0.0624
 1748SOL    HW3 7039   1.040   2.752   3.064 -0.9190  0.1183 -0.9089
 1748SOL    MW4 7040   1.110   2.783   3.023 -0.1589 -0.2511  0.0861
 1749SOL     OW 7041   1.115   3.049   3.076  0.5232  0.5038  0.1424
 1749SOL    HW2 7042   1.188   3.103   3.045  1.0558  0.0921  0.6706
 1749SOL    HW3 7043   1.037   3.095   3.045  1.0242  0.5192 -1.1393
 1749SOL    MW4 7044   1.115   3.062   3.068  0.6593  0.4513  0.0432
 1750SOL     OW 7045   0.896   3.195   2.998 -0.0067  0.4469 -0.2855
 1750SOL    HW2 7046   0.906   3.282   3.036  1.6250  0.4225 -0.6185
 1750SOL    HW3 7047   0.905   3.208   2.904  0.8799 -0.1679 -0.2893
 1750SOL    MW4 7048   0.898   3.208   2.991  0.3256  0.3626 -0.3300
 1751SOL     OW 7049   0.863   3.464   3.129 -0.7209 -0.2815  0.3429
 1751SOL    HW2 7050   0.942   3.497   3.086 -0.6376 -1.3071 -0.3101
 1751SOL    HW3 7051   0.880   3.473   3.222  0.6556 -1.5678  0.2395
 1751SOL    MW4 7052   0.875   3.469   3.135 -0.5283 -0.5863  0.2429
 1752SOL     OW 7053   1.077   3.600   3.029 -0.2386 -0.0483  0.3238
 1752SOL    HW2 7054   1.161   3.564   3.058 -0.4315 -0.0297  0.9108
 1752SOL    HW3 7055   1.077   3.690   3.060  0.3636  0.5540 -1.4006
 1752SOL    MW4 7056   1.088   3.607   3.037 -0.1845  0.0339  0.1738
 1753SOL     OW 7057   1.082   3.878   3.091 -0.1926  0.4034 -0.2509
 1753SOL    HW2 7058   1.081   3.883   3.186  0.2863  0.5926 -0.2530
 1753SOL    HW3 7059   1.005   3.928   3.064 -0.2970  0.3981  0.0372
 1753SOL    MW4 7060   1.072   3.885   3.100 -0.1432  0.4277 -0.2131
 1754SOL     OW 7061   0.865   4.040   3.011 -0.2026 -0.1543 -0.1025
 1754SOL    HW2 7062   0.779   4.008   3.038 -1.6445  3.2134 -0.4842
 1754SOL    HW3 7063   0.862   4.039   2.916  0.8741 -1.6698 -0.1461
 1754SOL    MW4 7064   0.853   4.035   3.002 -0.2508  0.0896 -0.1585
 1755SOL     OW 7065   0.909   4.283   3.136  0.5640  0.4092 -0.6337
 1755SOL    HW2 7066   0.894   4.197   3.097  0.2552 -0.3657  1.1586
 1755SOL    HW3 7067   0.824   4.327   3.133  0.8639  0.9098 -2.1292
 1755SOL    MW4 7068   0.896   4.278   3.131  0.5627  0.3734 -0.5946
 1756SOL     OW 7069   1.120   4.387   2.995 -0.0171 -0.1574  0.4062
 1756SOL    HW2 7070   1.040   4.353   3.036 -0.4529  1.7026  1.1657
 1756SOL    HW3 7071   1.132   4.473   3.035  1.5756  0.1814 -0.7634
 1756SOL    MW4 7072   1.111   4.394   3.006  0.1355  0.1330  0.3519
 1757SOL     OW 7073   1.819   0.127   2.747  0.2202  0.0319  0.2095
 1757SOL    HW2 7074   1.736   0.081   2.731 -0.3834  1.2498 -0.1465
 1757SOL    HW3 7075   1.886   0.063   2.724 -0.6176 -0.7872  0.0091
 1757SOL    MW4 7076   1.817   0.112   2.742  0.0300  0.0845  0.1361
 1758SOL     OW 7077   1.802   0.080   3.005  0.3194  0.1280  0.5802
 1758SOL    HW2 7078   1.792   0.164   3.050 -1.6901  0.6845 -0.8271
 1758SOL    HW3 7079   1.823   0.104   2.915 -1.9785 -0.8302 -0.2264
 1758SOL    MW4 7080   1.804   0.094   2.999 -0.2488  0.0750  0.2880
 1759SOL     OW 7081   1.346   0.103   3.007 -0.1488  0.4695  0.0885
 1759SOL    HW2 7082   1.353   0.196   3.026  0.7929  0.6600 -1.0969
 1759SOL    HW3 7083   1.328   0.099   2.913  1.1650 -0.5770 -0.1332
 1759SOL    MW4 7084   1.344   0.115   2.997  0.1487  0.3566 -0.0970
 1760SOL     OW 7085   1.630   0.463   3.013  0.0950 -0.1788  0.5558
 1760SOL    HW2 7086   1.629   0.550   3.053 -2.7736  0.2980 -0.4360
 1760SOL    HW3 7087   1.600   0.478   2.923  0.4052 -2.0917  0.1241
 1760SOL    MW4 7088   1.626   0.477   3.006 -0.2427 -0.3683  0.3681
 1761SOL     OW 7089   1.595   0.722   3.097  0.2417 -0.2107  0.1308
 1761SOL    HW2 7090   1.606   0.745   3.190 -2.3118 -1.2905  0.7405
 1761SOL    HW3 7091   1.513   0.764   3.072  1.4097  0.8938 -1.9507
 1761SOL    MW4 7092   1.586   0.730   3.106  0.0589 -0.2074 -0.0634
 1762SOL     OW 7093   1.369   0.900   3.034  0.1032 -0.1234  0.1616
 1762SOL    HW2 7094   1.361   0.990   3.065  1.4531  0.0526  0.0480
 1762SOL    HW3 7095   1.290   0.856   3.066  0.1527  0.7373  1.5012
 1762SOL    MW4 7096   1.358   0.906   3.042  0.2879  0.0134  0.3235
 1763SOL     OW 7097   1.358   1.175   3.147  0.1552 -0.0827 -0.0099
 1763SOL    HW2 7098   1.372   1.164   3.241  0.1870  0.3319  0.0368
 1763SOL    HW3 7099   1.437   1.220   3.117  0.0941 -0.1124 -0.2125
 1763SOL    MW4 7100   1.371   1.180   3.156  0.1513 -0.0319 -0.0305
 1764SOL     OW 7101   1.586   1.311   3.003  0.0614 -0.3781 -0.1693
 1764SOL    HW2 7102   1.658   1.254   3.030  0.6549 -0.0521 -1.0646
 1764SOL    HW3 7103   1.598   1.391   3.055  0.8047 -0.0160 -0.8938
 1764SOL    MW4 7104   1.597   1.314   3.014  0.2378 -0.2874 -0.3831
 1765SOL     OW 7105   1.583   1.529   3.161 -0.1848 -0.0858 -0.2120
 1765SOL    HW2 7106   1.665   1.554   3.119  0.8007 -1.0491  1.1157
 1765SOL    HW3 7107   1.519   1.591   3.127  1.1833  0.9755 -0.8888
 1765SOL    MW4 7108   1.585   1.540   3.151  0.1258 -0.0727 -0.1261
 1766SOL     OW 7109   1.387   1.683   3.026  0.2573  0.0707 -0.1609
 1766SOL    HW2 7110   1.360   1.768   3.059  0.3377  0.3231 -0.7384
 1766SOL    HW3 7111   1.373   1.688   2.931  1.1884 -0.2123 -0.3204
 1766SOL    MW4 7112   1.381   1.695   3.018  0.3906  0.0668 -0.2580
 1767SOL     OW 7113   1.107   1.999   3.010 -0.1339  0.3067  0.0979
 1767SOL    HW2 7114   1.024   2.001   3.058 -0.3984 -0.7925 -0.3039
 1767SOL    HW3 7115   1.086   2.034   2.924 -0.6291 -1.8409 -0.6701
 1767SOL    MW4 7116   1.093   2.004   3.005 -0.2340 -0.1216 -0.0565
 1768SOL     OW 7117   1.570   2.305   3.140 -0.0060  0.2540 -0.7128
 1768SOL    HW2 7118   1.582   2.281   3.232  1.7899  0.5697 -0.8373
 1768SOL    HW3 7119   1.558   2.222   3.094  0.7647 -0.0347 -0.4068
 1768SOL    MW4 7120   1.570   2.291   3.146  0.3326  0.2573 -0.6886
 1769SOL     OW 7121   1.771   2.430   2.996  0.1845  0.2986 -0.0577
 1769SOL    HW2 7122   1.769   2.523   3.020  1.2299  0.3302 -0.0717
 1769SOL    HW3 7123   1.704   2.390   3.052 -1.3646  1.3051 -1.1452
 1769SOL    MW4 7124   1.762   2.437   3.007  0.1181  0.4356 -0.2027
 1770SOL     OW 7125   1.353   2.426   3.026  0.1198 -0.3697  0.2625
 1770SOL    HW2 7126   1.422   2.373   3.065 -0.2365 -0.2783  1.0309
 1770SOL    HW3 7127   1.272   2.389   3.062 -0.0968  1.2121  1.4525
 1770SOL    MW4 7128   1.351   2.414   3.036  0.0442 -0.1490  0.5212
 1771SOL     OW 7129   1.356   2.696   3.131 -0.3657 -0.3816 -0.0100
 1771SOL    HW2 7130   1.352   2.604   3.105 -0.7587 -0.0895 -1.0015
 1771SOL    HW3 7131   1.279   2.735   3.090 -0.5818  0.2445  0.9885
 1771SOL    MW4 7132   1.345   2.689   3.122 -0.4461 -0.2604 -0.0093
 1772SOL     OW 7133   1.557   2.856   2.742 -0.0769  0.2466 -0.0453
 1772SOL    HW2 7134   1.634   2.803   2.727 -0.4516 -0.2906 -0.0670
 1772SOL    HW3 7135   1.539   2.848   2.836 -0.2136  0.2224 -0.0725
 1772SOL    MW4 7136   1.564   2.848   2.753 -0.1445  0.1724 -0.0517
 1773SOL     OW 7137   1.537   3.107   3.155  0.2926 -0.2798 -0.2350
 1773SOL    HW2 7138   1.544   3.017   3.125 -0.0739 -0.4040  0.0374
 1773SOL    HW3 7139   1.539   3.101   3.251  0.3414  0.0066 -0.2156
 1773SOL    MW4 7140   1.538   3.094   3.164  0.2507 -0.2584 -0.1962
 1774SOL     OW 7141   1.324   3.213   3.014 -0.2491 -0.3260  0.0801
 1774SOL    HW2 7142   1.401   3.179   3.059  0.8875  1.2376 -0.6557
 1774SOL    HW3 7143   1.348   3.214   2.921 -1.2904 -0.1770 -0.2012
 1774SOL    MW4 7144   1.337   3.209   3.007 -0.2364 -0.0997 -0.0544
 1775SOL     OW 7145   1.319   3.473   3.100 -0.3384 -0.5986 -0.2769
 1775SOL    HW2 7146   1.320   3.472   3.195  1.0724  0.3169 -0.2691
 1775SOL    HW3 7147   1.329   3.381   3.075 -0.4285 -0.8043  0.4436
 1775SOL    MW4 7148   1.320   3.460   3.109 -0.1643 -0.5052 -0.1810
 1776SOL     OW 7149   1.562   3.594   3.076 -0.1855 -0.1786 -0.2850
 1776SOL    HW2 7150   1.479   3.547   3.083  0.2454 -1.1293 -1.2434
 1776SOL    HW3 7151   1.569   3.615   2.983  0.6731 -0.1559 -0.2158
 1776SOL    MW4 7152   1.552   3.590   3.064 -0.0154 -0.3009 -0.4022
 1777SOL     OW 7153   1.518   3.856   3.176  0.2132  0.2108  0.3733
 1777SOL    HW2 7154   1.600   3.896   3.147 -0.0501  0.3818 -0.1332
 1777SOL    HW3 7155   1.528   3.763   3.155 -0.2277  0.4368 -0.8268
 1777SOL    MW4 7156   1.530   3.849   3.170  0.1202  0.2632  0.1481
 1778SOL     OW 7157   1.336   3.971   3.015 -0.7428  0.6515 -0.4735
 1778SOL    HW2 7158   1.399   3.935   3.078  0.2891  0.3042 -1.6866
 1778SOL    HW3 7159   1.251   3.936   3.043 -0.1527 -0.3331  0.1029
 1778SOL    MW4 7160   1.333   3.962   3.027 -0.5288  0.4759 -0.5574
 1779SOL     OW 7161   1.344   4.238   3.044 -0.1860  0.8504  0.4394
 1779SOL    HW2 7162   1.330   4.148   3.015  1.0006  0.8157 -0.0387
 1779SOL    HW3 7163   1.264   4.284   3.019 -1.4260 -0.3846  2.0243
 1779SOL    MW4 7164   1.332   4.232   3.037 -0.1932  0.6828  0.5853
 1780SOL     OW 7165   1.582   4.372   2.984 -0.3944  0.5132 -0.2899
 1780SOL    HW2 7166   1.571   4.463   3.011 -0.6828  0.5181 -0.4219
 1780SOL    HW3 7167   1.508   4.326   3.026 -1.2496  0.6378 -1.6506
 1780SOL    MW4 7168   1.571   4.378   2.993 -0.5453  0.5298 -0.4869
 1781SOL     OW 7169   2.039   4.592   2.642 -0.1711 -0.7314  0.2032
 1781SOL    HW2 7170   2.104   4.656   2.671 -0.9938 -0.3587  1.2799
 1781SOL    HW3 7171   2.004   4.628   2.561  0.4412 -0.5582  0.0190
 1781SOL    MW4 7172   2.043   4.606   2.635 -0.1991 -0.6595  0.3211
 1782SOL     OW 7173   2.025   4.358   3.053 -0.4117  0.0905  0.3047
 1782SOL    HW2 7174   2.029   4.453   3.070  0.1802 -0.0250  0.8336
 1782SOL    HW3 7175   2.042   4.349   2.960  0.1170  0.4619  0.3655
 1782SOL    MW4 7176   2.028   4.370   3.043 -0.2639  0.1245  0.3827
 1783SOL     OW 7177   1.809   0.328   3.156 -0.2308 -0.1567 -0.1542
 1783SOL    HW2 7178   1.887   0.353   3.106 -1.0016 -0.0373 -1.3169
 1783SOL    HW3 7179   1.739   0.380   3.117 -0.8347 -0.0119  1.1171
 1783SOL    MW4 7180   1.810   0.339   3.144 -0.4122 -0.1218 -0.1402
 1784SOL     OW 7181   2.042   0.475   3.038  0.5984  1.0354  0.3384
 1784SOL    HW2 7182   2.057   0.493   2.945  0.0295 -1.2454 -0.2366
 1784SOL    HW3 7183   2.124   0.435   3.068  0.0277 -0.2310  0.2477
 1784SOL    MW4 7184   2.055   0.472   3.030  0.4482  0.5674  0.2506
 1785SOL     OW 7185   1.989   0.740   3.130  0.2185  0.0637 -0.1547
 1785SOL    HW2 7186   1.919   0.776   3.076 -0.6052 -0.2598  0.6807
 1785SOL    HW3 7187   1.996   0.648   3.104 -1.0644 -0.4296  1.1726
 1785SOL    MW4 7188   1.981   0.733   3.120 -0.0594 -0.0441  0.1309
 1786SOL     OW 7189   1.803   0.875   2.987  0.4091 -0.3200  0.0231
 1786SOL    HW2 7190   1.731   0.815   3.004 -0.4980  0.3879 -1.2165
 1786SOL    HW3 7191   1.816   0.872   2.892  0.0262  1.7662 -0.1242
 1786SOL    MW4 7192   1.795   0.867   2.977  0.2389  0.0486 -0.1600
 1787SOL     OW 7193   1.795   1.131   3.115  0.5788  0.0805  0.3499
 1787SOL    HW2 7194   1.785   1.120   3.209  0.5127  0.2887  0.3677
 1787SOL    HW3 7195   1.795   1.042   3.080 -1.2995  0.0538  0.3463
 1787SOL    MW4 7196   1.794   1.118   3.123  0.3222  0.1045  0.3519
 1788SOL     OW 7197   2.050   1.230   3.051 -0.1231  0.3787  0.3863
 1788SOL    HW2 7198   2.127   1.185   3.087 -0.6964 -2.1139 -1.3331
 1788SOL    HW3 7199   1.976   1.197   3.103 -0.4413  0.0212 -0.2847
 1788SOL    MW4 7200   2.050   1.219   3.062 -0.2408  0.0026  0.0706
 1789SOL     OW 7201   2.018   1.507   3.127  0.2472 -0.0917 -0.0355
 1789SOL    HW2 7202   2.022   1.508   3.223  0.0510 -2.0034  0.0164
 1789SOL    HW3 7203   2.033   1.415   3.104 -0.1736  0.2790 -1.8177
 1789SOL    MW4 7204   2.020   1.495   3.137  0.1657 -0.2949 -0.2637
 1790SOL     OW 7205   1.790   1.632   3.004 -0.0198 -0.2832  0.2040
 1790SOL    HW2 7206   1.778   1.722   3.034 -1.9313 -0.7056  0.7803
 1790SOL    HW3 7207   1.863   1.598   3.056  0.4819  0.8126  0.2275
 1790SOL    MW4 7208   1.798   1.639   3.015 -0.2059 -0.1943  0.2832
 1791SOL     OW 7209   1.568   2.064   3.031 -0.0866 -0.0055  0.1304
 1791SOL    HW2 7210   1.569   2.077   2.936 -1.4825 -0.8350 -0.0051
 1791SOL    HW3 7211   1.488   2.016   3.048  1.1294 -1.6155  1.5058
 1791SOL    MW4 7212   1.558   2.059   3.020 -0.1104 -0.3273  0.2940
 1792SOL     OW 7213   1.781   1.898   3.086  0.3724  0.0111  0.2076
 1792SOL    HW2 7214   1.700   1.948   3.098  0.0032 -0.1956 -1.2619
 1792SOL    HW3 7215   1.845   1.964   3.059  0.4085  0.0139  0.3025
 1792SOL    MW4 7216   1.779   1.913   3.084  0.3284 -0.0159  0.0260
 1793SOL     OW 7217   2.007   2.079   3.016 -0.0515  0.1058  0.0634
 1793SOL    HW2 7218   2.089   2.033   3.034 -0.8538 -1.2556  0.3579
 1793SOL    HW3 7219   2.019   2.166   3.053  1.5882  0.2087 -0.6790
 1793SOL    MW4 7220   2.020   2.084   3.023  0.0589 -0.0603  0.0043
 1794SOL     OW 7221   1.761   2.704   3.070 -0.2266 -0.3694  0.3998
 1794SOL    HW2 7222   1.835   2.765   3.066  0.5644 -1.3161  0.4893
 1794SOL    HW3 7223   1.739   2.698   3.163 -0.1958 -0.3574  0.4076
 1794SOL    MW4 7224   1.768   2.711   3.082 -0.1183 -0.4928  0.4125
 1795SOL     OW 7225   1.540   2.868   3.028 -0.3133  0.0033 -0.0139
 1795SOL    HW2 7226   1.483   2.800   3.065  0.0482 -0.4181 -0.2147
 1795SOL    HW3 7227   1.629   2.833   3.040 -0.1623  0.1160 -0.7669
 1795SOL    MW4 7228   1.545   2.854   3.034 -0.2457 -0.0377 -0.1397
 1796SOL     OW 7229   1.993   2.837   3.058  0.4781  0.2527  0.1604
 1796SOL    HW2 7230   1.984   2.932   3.071  2.4994  0.6372 -0.9729
 1796SOL    HW3 7231   2.008   2.828   2.964  2.9565 -0.9393  0.6274
 1796SOL    MW4 7232   1.994   2.849   3.047  1.0718  0.1464  0.0725
 1797SOL     OW 7233   2.031   3.113   3.403 -0.3545  0.0722  0.2933
 1797SOL    HW2 7234   2.111   3.158   3.431  0.5631 -1.7190  0.6212
 1797SOL    HW3 7235   1.962   3.154   3.454  0.5930  0.4535  1.3084
 1797SOL    MW4 7236   2.033   3.124   3.413 -0.1085 -0.1137  0.4704
 1798SOL     OW 7237   1.776   3.233   3.058  0.1329 -0.3860 -0.3285
 1798SOL    HW2 7238   1.687   3.200   3.073  0.5846 -1.4773  0.0120
 1798SOL    HW3 7239   1.789   3.224   2.963 -0.0267 -0.4545 -0.3442
 1798SOL    MW4 7240   1.766   3.228   3.047  0.1715 -0.5391 -0.2854
 1799SOL     OW 7241   1.815   3.487   3.167  0.3224  0.0203  0.5086
 1799SOL    HW2 7242   1.800   3.395   3.149  0.7747 -0.3069  1.7024
 1799SOL    HW3 7243   1.738   3.532   3.134  0.0262 -0.8035  0.0782
 1799SOL    MW4 7244   1.803   3.481   3.160  0.3431 -0.1316  0.6094
 1800SOL     OW 7245   2.046   3.575   3.048 -0.5583 -0.4839  0.4142
 1800SOL    HW2 7246   2.060   3.665   3.078  0.3890 -0.9631  1.4577
 1800SOL    HW3 7247   1.962   3.550   3.086 -1.1852  0.1883 -0.4807
 1800SOL    MW4 7248   2.037   3.584   3.057 -0.5159 -0.4585  0.4339
 1801SOL     OW 7249   2.254   3.989   3.010  0.2033 -0.0475  0.5428
 1801SOL    HW2 7250   2.328   3.941   3.047 -0.0830  0.0415  1.2327
 1801SOL    HW3 7251   2.176   3.941   3.040 -0.0555  0.4384  0.6601
 1801SOL    MW4 7252   2.253   3.977   3.019  0.1311  0.0284  0.6495
 1802SOL     OW 7253   1.760   3.964   3.093 -0.7820 -0.3309 -0.0532
 1802SOL    HW2 7254   1.765   4.057   3.113 -0.2205 -0.1671 -0.9543
 1802SOL    HW3 7255   1.751   3.960   2.998 -1.8220 -1.1675  0.0687
 1802SOL    MW4 7256   1.759   3.976   3.083 -0.8452 -0.4196 -0.1557
 1803SOL     OW 7257   1.772   4.230   3.121 -0.2838  0.3535 -0.2570
 1803SOL    HW2 7258   1.856   4.261   3.087  0.0069  1.0864  1.0660
 1803SOL    HW3 7259   1.707   4.287   3.080  0.0977  1.5279  0.7320
 1803SOL    MW4 7260   1.775   4.241   3.111 -0.1950  0.6056  0.0482
 1804SOL     OW 7261   2.261   4.273   3.151  0.3484  0.5153 -0.1292
 1804SOL    HW2 7262   2.176   4.307   3.124  0.5129  0.3940 -0.8077
 1804SOL    HW3 7263   2.266   4.186   3.110  0.1308 -0.1345  1.1949
 1804SOL    MW4 7264   2.250   4.266   3.142  0.3414  0.4134 -0.0441
 1805SOL     OW 7265   2.484   4.650   3.174 -0.3056 -0.2334  0.1099
 1805SOL    HW2 7266   2.489   4.559   3.145 -0.2485 -0.2539  0.1869
 1805SOL    HW3 7267   2.544   4.697   3.116 -2.3501  0.2040 -1.7293
 1805SOL    MW4 7268   2.492   4.644   3.163 -0.5677 -0.1783 -0.1225
 1806SOL     OW 7269   2.033   4.631   3.135 -0.2032 -0.1924 -0.0931
 1806SOL    HW2 7270   1.950   4.668   3.107 -0.6948 -1.2393 -0.0643
 1806SOL    HW3 7271   2.030   4.633   3.231  0.7250  1.7543 -0.0926
 1806SOL    MW4 7272   2.022   4.636   3.144 -0.1454 -0.0739 -0.0894
 1807SOL     OW 7273   2.275   0.330   3.109  0.5224  0.6618  0.3608
 1807SOL    HW2 7274   2.279   0.315   3.203  0.7410 -1.5055  0.0275
 1807SOL    HW3 7275   2.295   0.245   3.070  0.6435  1.5814 -1.6465
 1807SOL    MW4 7276   2.278   0.317   3.116  0.5672  0.4972  0.0517
 1808SOL     OW 7277   2.479   0.771   3.165 -0.2642 -0.4392 -0.1168
 1808SOL    HW2 7278   2.479   0.775   3.261  1.5458  1.2451 -0.1538
 1808SOL    HW3 7279   2.490   0.678   3.146 -0.2975 -0.7547  1.3066
 1808SOL    MW4 7280   2.481   0.759   3.175 -0.0298 -0.2587  0.0660
 1809SOL     OW 7281   2.468   0.763   3.435 -0.2637  0.2674 -0.2478
 1809SOL    HW2 7282   2.394   0.811   3.472  0.1257  0.4983  0.2464
 1809SOL    HW3 7283   2.544   0.797   3.483 -0.3005 -2.9692  2.2439
 1809SOL    MW4 7284   2.468   0.774   3.446 -0.2174 -0.1292  0.1464
 1810SOL     OW 7285   2.233   0.868   3.069 -0.1400 -0.0316 -0.0993
 1810SOL    HW2 7286   2.159   0.811   3.090 -0.7281 -0.0954 -2.2723
 1810SOL    HW3 7287   2.309   0.824   3.108 -0.7021 -1.9067 -1.0806
 1810SOL    MW4 7288   2.234   0.855   3.077 -0.2918 -0.2874 -0.5157
 1811SOL     OW 7289   2.280   1.136   3.141  0.6765 -0.0818 -0.4365
 1811SOL    HW2 7290   2.269   1.135   3.236 -1.0145  0.8679 -0.6130
 1811SOL    HW3 7291   2.263   1.046   3.113  3.1224 -0.8363  0.3371
 1811SOL    MW4 7292   2.277   1.124   3.150  0.7761 -0.0559 -0.3579
 1812SOL     OW 7293   2.464   1.316   3.032 -0.4291  0.1414 -0.4702
 1812SOL    HW2 7294   2.399   1.253   3.063  0.3173 -1.0326 -1.2316
 1812SOL    HW3 7295   2.470   1.299   2.937 -0.1602  1.2977 -0.6632
 1812SOL    MW4 7296   2.456   1.305   3.023 -0.2949  0.1390 -0.5960
 1813SOL     OW 7297   2.407   1.560   3.135 -0.6961 -0.3341  0.2386
 1813SOL    HW2 7298   2.335   1.610   3.097 -0.3296 -0.7625 -1.0251
 1813SOL    HW3 7299   2.402   1.474   3.093 -1.2978 -1.3839  2.3569
 1813SOL    MW4 7300   2.397   1.555   3.125 -0.7269 -0.5292  0.3517
 1814SOL     OW 7301   2.198   1.689   2.997  0.3393 -0.2541  0.0702
 1814SOL    HW2 7302   2.115   1.656   3.031 -0.1034  1.2132  0.4440
 1814SOL    HW3 7303   2.198   1.662   2.905 -0.3854 -0.5791  0.1570
 1814SOL    MW4 7304   2.187   1.681   2.989  0.1853 -0.1035  0.1311
 1815SOL     OW 7305   2.224   1.934   3.123 -0.0329 -0.2996 -0.0398
 1815SOL    HW2 7306   2.304   1.970   3.085  0.6811 -2.0810 -0.2686
 1815SOL    HW3 7307   2.217   1.847   3.086 -1.8063 -0.3578  0.4035
 1815SOL    MW4 7308   2.234   1.927   3.113 -0.1729 -0.5423 -0.0112
 1816SOL     OW 7309   2.445   2.071   3.044 -0.2177  0.0071 -0.2046
 1816SOL    HW2 7310   2.527   2.022   3.050 -0.4454 -0.4603 -0.8800
 1816SOL    HW3 7311   2.427   2.077   2.950 -1.6593 -1.0861 -0.0129
 1816SOL    MW4 7312   2.453   2.065   3.032 -0.4380 -0.1986 -0.2687
 1817SOL     OW 7313   2.458   2.354   3.153 -0.2708  0.3984  0.3534
 1817SOL    HW2 7314   2.465   2.361   3.249  2.5072 -0.6196  0.2637
 1817SOL    HW3 7315   2.466   2.260   3.136 -0.1174  0.6457 -0.9413
 1817SOL    MW4 7316   2.460   2.342   3.164  0.1161  0.2966  0.1707
 1818SOL     OW 7317   1.995   2.344   3.134 -0.3211 -0.3942 -0.0713
 1818SOL    HW2 7318   1.920   2.377   3.086 -0.2901 -1.2394 -0.7082
 1818SOL    HW3 7319   2.066   2.405   3.114 -1.0810  1.0020  1.3594
 1818SOL    MW4 7320   1.994   2.356   3.125 -0.4172 -0.3219  0.0336
 1819SOL     OW 7321   2.258   2.756   3.163  0.0272 -0.3575  0.2823
 1819SOL    HW2 7322   2.332   2.772   3.105 -0.1387  1.1373  0.4572
 1819SOL    HW3 7323   2.183   2.794   3.117 -0.4083 -0.7434  0.6692
 1819SOL    MW4 7324   2.258   2.763   3.149 -0.0520 -0.2110  0.3564
 1820SOL     OW 7325   2.457   2.841   2.989 -0.4608 -0.0298 -0.6044
 1820SOL    HW2 7326   2.475   2.933   3.012 -1.2237  0.0919 -0.5011
 1820SOL    HW3 7327   2.453   2.842   2.893 -0.2730  0.0027 -0.6140
 1820SOL    MW4 7328   2.459   2.854   2.979 -0.5367 -0.0095 -0.5922
 1821SOL     OW 7329   2.504   3.086   3.132 -0.1883 -0.5985  0.2125
 1821SOL    HW2 7330   2.579   3.117   3.080 -0.2997 -0.6387  0.0289
 1821SOL    HW3 7331   2.429   3.130   3.094 -0.3508 -1.1138 -0.0657
 1821SOL    MW4 7332   2.504   3.096   3.120 -0.2246 -0.6716  0.1516
 1822SOL     OW 7333   2.028   3.120   3.119  0.5181  0.0177  0.4026
 1822SOL    HW2 7334   2.032   3.114   3.215  1.7048  1.4642  0.4720
 1822SOL    HW3 7335   1.950   3.173   3.102  1.0958  0.9695  0.6500
 1822SOL    MW4 7336   2.018   3.126   3.130  0.7510  0.3343  0.4444
 1823SOL     OW 7337   2.274   3.439   3.138 -0.2334 -1.1903 -0.0002
 1823SOL    HW2 7338   2.325   3.505   3.091  0.6180  0.6492  3.3701
 1823SOL    HW3 7339   2.183   3.467   3.128  0.1347  0.6009  1.5321
 1823SOL    MW4 7340   2.269   3.451   3.130 -0.0725 -0.7112  0.6466
 1824SOL     OW 7341   2.471   3.593   2.990 -0.0426  0.3989 -0.0591
 1824SOL    HW2 7342   2.524   3.526   3.033 -0.8202  0.4558  0.9846
 1824SOL    HW3 7343   2.482   3.671   3.044 -0.6639  0.5910 -0.2104
 1824SOL    MW4 7344   2.480   3.594   3.003 -0.2272  0.4315  0.0589
 1825SOL     OW 7345   2.460   3.850   3.140 -0.3195 -0.3397 -0.2299
 1825SOL    HW2 7346   2.465   3.847   3.236  0.6362  0.4360 -0.2561
 1825SOL    HW3 7347   2.537   3.901   3.113 -0.4951 -0.6945 -1.4184
 1825SOL    MW4 7348   2.471   3.856   3.150 -0.2167 -0.2842 -0.3901
 1826SOL     OW 7349   2.240   3.981   2.730 -0.4345  0.1550  0.0670
 1826SOL    HW2 7350   2.244   3.997   2.824  0.4831 -0.8578  0.2156
 1826SOL    HW3 7351   2.149   3.956   2.714 -1.2540  2.8930  0.2328
 1826SOL    MW4 7352   2.228   3.980   2.740 -0.4215  0.3827  0.1082
 1827SOL     OW 7353   2.217   4.252   3.430  0.0526  0.4610  0.2105
 1827SOL    HW2 7354   2.217   4.271   3.336  1.8512  0.3467  0.1847
 1827SOL    HW3 7355   2.144   4.305   3.465  0.4395  1.8067 -0.9795
 1827SOL    MW4 7356   2.207   4.262   3.422  0.3409  0.6232  0.0503
 1828SOL     OW 7357   2.498   4.409   3.049  0.3292  0.0297 -0.0120
 1828SOL    HW2 7358   2.417   4.366   3.078  0.3269 -0.2039 -0.3618
 1828SOL    HW3 7359   2.486   4.419   2.955  0.8321 -0.2649 -0.1061
 1828SOL    MW4 7360   2.486   4.405   3.040  0.3955 -0.0401 -0.0706
 1829SOL     OW 7361   2.894   0.007   3.158  0.0696 -0.0776 -0.0037
 1829SOL    HW2 7362   2.906  -0.087   3.144 -0.0768 -0.0931 -0.0255
 1829SOL    HW3 7363   2.967   0.047   3.111  1.0588 -0.2635  1.3510
 1829SOL    MW4 7364   2.905  -0.000   3.150  0.1807 -0.1042  0.1721
 1830SOL     OW 7365   2.662   0.134   3.016  0.1805 -0.1862 -0.6238
 1830SOL    HW2 7366   2.675   0.222   3.051  2.4725  0.4688 -3.0014
 1830SOL    HW3 7367   2.735   0.083   3.050 -0.4486 -0.8809 -0.2892
 1830SOL    MW4 7368   2.673   0.139   3.025  0.4001 -0.1914 -0.8934
 1831SOL     OW 7369   2.697   0.376   3.136 -0.4420 -0.1481  0.4171
 1831SOL    HW2 7370   2.621   0.417   3.094  0.6402  0.9056 -0.5532
 1831SOL    HW3 7371   2.772   0.407   3.085  0.8872  0.8332  2.9037
 1831SOL    MW4 7372   2.697   0.386   3.124 -0.1235  0.1204  0.6173
 1832SOL     OW 7373   2.891   0.500   2.970 -0.2567  0.2504 -0.4374
 1832SOL    HW2 7374   2.899   0.518   2.876  3.1130 -0.4408 -0.3378
 1832SOL    HW3 7375   2.898   0.586   3.011  1.4084  0.2557 -0.6951
 1832SOL    MW4 7376   2.893   0.514   2.963  0.4075  0.1599 -0.4580
 1833SOL     OW 7377   2.872   0.753   3.075  0.1764 -0.0131 -0.4058
 1833SOL    HW2 7378   2.867   0.761   3.171  0.5497  0.2944 -0.4111
 1833SOL    HW3 7379   2.791   0.792   3.044  0.5667  0.9140 -0.2701
 1833SOL    MW4 7380   2.861   0.759   3.084  0.2770  0.1498 -0.3889
 1834SOL     OW 7381   2.670   0.937   2.997  0.2098  0.4885  0.1435
 1834SOL    HW2 7382   2.598   0.894   3.043  0.8640  1.2149  1.9355
 1834SOL    HW3 7383   2.680   1.021   3.043  0.5773  1.4570 -1.6782
 1834SOL    MW4 7384   2.662   0.943   3.009  0.3448  0.7122  0.1397
 1835SOL     OW 7385   2.685   1.191   3.111 -0.3616 -0.0500 -0.1030
 1835SOL    HW2 7386   2.747   1.235   3.053  0.6455 -0.8860  0.3287
 1835SOL    HW3 7387   2.604   1.241   3.101  1.1087  2.7070  1.4102
 1835SOL    MW4 7388   2.682   1.203   3.102 -0.0348  0.2034  0.1533
 1836SOL     OW 7389   2.896   1.299   2.988 -0.1026  0.3494  0.6262
 1836SOL    HW2 7390   2.895   1.384   3.032 -0.6320  1.0399 -0.7052
 1836SOL    HW3 7391   2.976   1.257   3.020  0.6229  1.6992  0.6169
 1836SOL    MW4 7392   2.907   1.304   2.998 -0.0768  0.6186  0.4492
 1837SOL     OW 7393   2.865   1.561   3.096  0.0965 -0.4276 -0.0850
 1837SOL    HW2 7394   2.890   1.564   3.188 -0.6621 -1.8517  0.1712
 1837SOL    HW3 7395   2.943   1.591   3.049  1.0582 -1.3422  0.9202
 1837SOL    MW4 7396   2.879   1.565   3.102  0.1233 -0.7361  0.0815
 1838SOL     OW 7397   2.621   1.678   3.021  0.0315 -0.4050 -0.0444
 1838SOL    HW2 7398   2.688   1.634   3.073  0.3422 -1.1547 -1.0699
 1838SOL    HW3 7399   2.538   1.643   3.053  0.1060  0.4726  1.1830
 1838SOL    MW4 7400   2.619   1.668   3.032  0.0823 -0.3883 -0.0179
 1839SOL     OW 7401   2.688   1.949   3.103  0.2575  0.0704 -0.0049
 1839SOL    HW2 7402   2.759   1.980   3.047 -0.1987 -0.3240 -0.8050
 1839SOL    HW3 7403   2.673   1.858   3.076  0.7240 -0.4646  1.4544
 1839SOL    MW4 7404   2.695   1.941   3.092  0.2592 -0.0523  0.0818
 1840SOL     OW 7405   2.941   2.039   2.990 -0.2311  0.1764  0.4026
 1840SOL    HW2 7406   2.936   2.132   3.013 -0.4610  0.0894  0.7243
 1840SOL    HW3 7407   2.960   2.038   2.897  0.8358  0.5429  0.6140
 1840SOL    MW4 7408   2.943   2.051   2.981 -0.1206  0.2134  0.4730
 1841SOL     OW 7409   2.919   2.299   3.076  0.7016  0.4117  0.6033
 1841SOL    HW2 7410   2.996   2.354   3.060  0.9697 -0.1306  0.0107
 1841SOL    HW3 7411   2.844   2.355   3.057  0.9515  0.9495  1.2029
 1841SOL    MW4 7412   2.919   2.314   3.071  0.7701  0.4110  0.6044
 1842SOL     OW 7413   2.698   2.452   3.017  0.4020 -0.1846 -0.6697
 1842SOL    HW2 7414   2.703   2.540   3.053  1.3722  0.5390 -2.4887
 1842SOL    HW3 7415   2.623   2.412   3.061  1.1524  0.8446  1.6189
 1842SOL    MW4 7416   2.689   2.458   3.027  0.6292  0.0465 -0.6075
 1843SOL     OW 7417   2.689   2.705   3.108  0.4818 -0.3490  0.2202
 1843SOL    HW2 7418   2.660   2.703   3.199  0.4145  0.8124  0.2260
 1843SOL    HW3 7419   2.613   2.737   3.059 -0.0089 -2.4645 -0.4632
 1843SOL    MW4 7420   2.675   2.709   3.113  0.4079 -0.4749  0.1309
 1844SOL     OW 7421   2.933   2.824   3.041 -0.0887  0.0914  0.4272
 1844SOL    HW2 7422   2.997   2.770   3.088 -0.4087 -0.8243 -0.1630
 1844SOL    HW3 7423   2.848   2.791   3.070 -0.2859  0.3948  0.1987
 1844SOL    MW4 7424   2.930   2.812   3.051 -0.1571  0.0107  0.3192
 1845SOL     OW 7425   2.938   3.090   3.137 -0.3556 -0.4175 -0.0709
 1845SOL    HW2 7426   2.867   3.131   3.089 -1.2845 -0.2535  1.4413
 1845SOL    HW3 7427   2.937   2.999   3.107 -0.8431 -0.2829 -0.4655
 1845SOL    MW4 7428   2.929   3.083   3.127 -0.5424 -0.3779  0.0768
 1846SOL     OW 7429   2.710   3.216   2.997  0.0757  0.1866  0.2014
 1846SOL    HW2 7430   2.691   3.292   3.052 -1.4913 -0.4226  0.5373
 1846SOL    HW3 7431   2.707   3.249   2.907 -0.2980  0.5940  0.3639
 1846SOL    MW4 7432   2.707   3.230   2.992 -0.1805  0.1602  0.2670
 1847SOL     OW 7433   2.665   3.456   3.142  0.2341  0.2783  0.3523
 1847SOL    HW2 7434   2.718   3.516   3.090  0.3583  0.4944  0.7254
 1847SOL    HW3 7435   2.694   3.471   3.232  0.9660 -1.0438  0.3484
 1847SOL    MW4 7436   2.676   3.466   3.147  0.3471  0.1323  0.4010
 1848SOL     OW 7437   2.913   3.633   2.726 -0.5696  0.2235  0.2103
 1848SOL    HW2 7438   2.847   3.574   2.688 -0.6090 -0.1471  0.8572
 1848SOL    HW3 7439   2.902   3.624   2.821  1.2531 -0.7778  0.3443
 1848SOL    MW4 7440   2.903   3.624   2.733 -0.3343  0.0424  0.3133
 1849SOL     OW 7441   2.930   3.826   3.102  0.0178 -0.1295 -0.0033
 1849SOL    HW2 7442   2.945   3.811   3.195 -0.9005 -0.9666  0.0223
 1849SOL    HW3 7443   2.849   3.877   3.099 -0.8851 -1.5702 -0.4060
 1849SOL    MW4 7444   2.921   3.831   3.114 -0.2222 -0.4301 -0.0529
 1850SOL     OW 7445   2.678   4.000   3.046  0.5805 -0.1733 -0.2968
 1850SOL    HW2 7446   2.682   4.090   3.078  1.2925 -1.0415  2.2005
 1850SOL    HW3 7447   2.658   4.008   2.953 -1.5191  2.5085  0.3177
 1850SOL    MW4 7448   2.676   4.013   3.038  0.3974  0.0658  0.1140
 1851SOL     OW 7449   2.719   4.258   3.138  0.3110  0.3557 -0.1130
 1851SOL    HW2 7450   2.696   4.258   3.231  1.1587  0.8398  0.1012
 1851SOL    HW3 7451   2.657   4.319   3.098  0.6727  1.0224  0.3304
 1851SOL    MW4 7452   2.708   4.266   3.145  0.4704  0.5078 -0.0260
 1852SOL     OW 7453   2.933   4.417   3.069 -0.3606 -0.2975 -0.0798
 1852SOL    HW2 7454   3.010   4.360   3.067 -0.6035 -0.5965 -2.0538
 1852SOL    HW3 7455   2.861   4.360   3.098 -0.1911 -0.4678  0.0030
 1852SOL    MW4 7456   2.933   4.402   3.073 -0.3705 -0.3595 -0.3295
 1853SOL     OW 7457   3.355   4.652   3.129 -0.2854  0.7715 -0.6032
 1853SOL    HW2 7458   3.445   4.677   3.108 -0.5299  0.4734 -2.0852
 1853SOL    HW3 7459   3.350   4.560   3.104 -0.8409  0.6359  0.0133
 1853SOL    MW4 7460   3.366   4.643   3.123 -0.3910  0.7148 -0.7174
 1854SOL     OW 7461   3.125   0.125   3.009  0.7925 -0.6834 -0.2189
 1854SOL    HW2 7462   3.115   0.205   3.059  0.3683 -0.1036 -1.2119
 1854SOL    HW3 7463   3.198   0.079   3.051  0.6361 -0.0772  0.7290
 1854SOL    MW4 7464   3.133   0.129   3.021  0.7157 -0.5269 -0.2248
 1855SOL     OW 7465   3.121   0.100   3.467 -0.2198  0.1280  0.6928
 1855SOL    HW2 7466   3.033   0.067   3.453 -0.6955  1.1788  1.1130
 1855SOL    HW3 7467   3.118   0.190   3.434  0.9401 -0.1116 -0.1125
 1855SOL    MW4 7468   3.109   0.108   3.461 -0.1295  0.2350  0.6418
 1856SOL     OW 7469   3.115   0.354   3.384 -0.0143  0.3886  0.0508
 1856SOL    HW2 7470   3.107   0.363   3.289 -0.2226 -0.4648 -0.0166
 1856SOL    HW3 7471   3.036   0.395   3.418 -1.5299 -2.1267 -0.3067
 1856SOL    MW4 7472   3.104   0.361   3.376 -0.2418 -0.0558 -0.0055
 1857SOL     OW 7473   3.312   0.747   3.086  0.2174  0.4743 -0.2981
 1857SOL    HW2 7474   3.316   0.736   3.181  0.4792 -0.6489 -0.4383
 1857SOL    HW3 7475   3.302   0.659   3.051 -1.6529  1.0177 -1.2366
 1857SOL    MW4 7476   3.311   0.734   3.094  0.0052  0.3979 -0.4406
 1858SOL     OW 7477   3.083   0.893   2.966 -0.1467 -0.3314 -0.5418
 1858SOL    HW2 7478   3.161   0.844   2.993  0.7691  0.9409 -0.8109
 1858SOL    HW3 7479   3.010   0.844   3.002  0.7574 -1.7857 -0.6355
 1858SOL    MW4 7480   3.084   0.880   2.974  0.0939 -0.3554 -0.5896
 1859SOL     OW 7481   3.137   1.174   3.074 -0.1433 -0.4065  0.3171
 1859SOL    HW2 7482   3.223   1.203   3.043 -0.4142 -0.5816 -0.6222
 1859SOL    HW3 7483   3.125   1.088   3.034 -0.5748 -0.5680  0.7899
 1859SOL    MW4 7484   3.146   1.166   3.065 -0.2360 -0.4510  0.2556
 1860SOL     OW 7485   3.377   1.265   2.994 -0.4003  0.4286  0.4033
 1860SOL    HW2 7486   3.454   1.224   3.032  0.4476  1.7751  0.1895
 1860SOL    HW3 7487   3.372   1.351   3.037 -0.6452  1.1337 -0.9924
 1860SOL    MW4 7488   3.386   1.271   3.005 -0.3209  0.6992  0.1910
 1861SOL     OW 7489   3.348   1.526   3.095  0.4497  0.1590  0.3439
 1861SOL    HW2 7490   3.366   1.553   3.185  0.1942  0.4335  0.3091
 1861SOL    HW3 7491   3.418   1.567   3.043  1.1055 -0.7028  0.5313
 1861SOL    MW4 7492   3.360   1.535   3.100  0.5023  0.0815  0.3636
 1862SOL     OW 7493   3.117   1.643   2.997  0.0794 -0.2302 -0.0692
 1862SOL    HW2 7494   3.189   1.584   3.019 -0.9202 -1.5989 -0.4163
 1862SOL    HW3 7495   3.127   1.659   2.903  0.7902  0.7520  0.1748
 1862SOL    MW4 7496   3.128   1.637   2.988  0.0412 -0.2812 -0.0827
 1863SOL     OW 7497   3.130   1.902   3.154 -0.7601  0.4492 -0.4085
 1863SOL    HW2 7498   3.119   1.818   3.110 -0.7738  0.3346 -0.1878
 1863SOL    HW3 7499   3.059   1.956   3.121 -1.0940  0.1892 -0.1186
 1863SOL    MW4 7500   3.119   1.898   3.144 -0.8061  0.3996 -0.3412
 1864SOL     OW 7501   3.308   2.050   3.017 -0.2333 -0.0392 -0.1869
 1864SOL    HW2 7502   3.390   2.013   3.051 -1.0807 -0.3157  1.5818
 1864SOL    HW3 7503   3.239   1.998   3.058 -1.3632  1.7416  0.2255
 1864SOL    MW4 7504   3.310   2.039   3.027 -0.4940  0.1593  0.1009
 1865SOL     OW 7505   3.354   2.306   3.123  0.1724  0.6558 -0.0219
 1865SOL    HW2 7506   3.373   2.301   3.217  2.5936  1.5300 -0.4450
 1865SOL    HW3 7507   3.337   2.215   3.097 -1.7217  0.5430  1.4685
 1865SOL    MW4 7508   3.354   2.293   3.132  0.2418  0.7560  0.1192
 1866SOL     OW 7509   3.131   2.446   2.997  0.2251 -0.4224 -0.3154
 1866SOL    HW2 7510   3.222   2.422   3.017  0.6291 -0.2514 -1.8801
 1866SOL    HW3 7511   3.127   2.444   2.902 -1.6268 -1.1874 -0.2332
 1866SOL    MW4 7512   3.143   2.442   2.987  0.0343 -0.5009 -0.5112
 1867SOL     OW 7513   3.157   2.684   3.133 -0.0152  0.8813 -0.0994
 1867SOL    HW2 7514   3.231   2.728   3.092 -0.8473  2.4692  0.0610
 1867SOL    HW3 7515   3.140   2.608   3.077  0.7954  1.3181 -0.9528
 1867SOL    MW4 7516   3.164   2.679   3.120 -0.0181  1.1487 -0.1907
 1868SOL     OW 7517   3.361   2.821   3.017 -0.0211 -0.4211  0.3529
 1868SOL    HW2 7518   3.371   2.904   3.064 -0.7171 -0.3873  0.4426
 1868SOL    HW3 7519   3.423   2.762   3.060 -0.6343 -0.3855  1.3030
 1868SOL    MW4 7520   3.370   2.824   3.029 -0.1938 -0.4117  0.4900
 1869SOL     OW 7521   3.407   3.087   3.120  0.2820  0.1459  0.0157
 1869SOL    HW2 7522   3.394   3.077   3.215 -1.1701 -1.2282 -0.3241
 1869SOL    HW3 7523   3.322   3.112   3.086  0.3635 -1.0885 -1.1530
 1869SOL    MW4 7524   3.394   3.089   3.128  0.1013 -0.1981 -0.1833
 1870SOL     OW 7525   3.162   3.203   3.027 -0.2023 -0.4214 -0.4929
 1870SOL    HW2 7526   3.083   3.162   3.061  0.8582 -2.0678  0.0448
 1870SOL    HW3 7527   3.143   3.216   2.934 -0.3509 -2.7380 -0.8315
 1870SOL    MW4 7528   3.149   3.199   3.019 -0.0820 -0.9441 -0.4668
 1871SOL     OW 7529   2.879   3.582   2.997 -0.4319  0.0516 -0.2549
 1871SOL    HW2 7530   2.874   3.667   3.041 -0.0757  0.3134 -0.7239
 1871SOL    HW3 7531   2.951   3.536   3.041 -0.5840  0.0170 -0.0433
 1871SOL    MW4 7532   2.888   3.587   3.009 -0.4051  0.0818 -0.2890
 1872SOL     OW 7533   3.124   3.476   3.099 -0.0115  0.2371  0.0986
 1872SOL    HW2 7534   3.122   3.385   3.069  1.0222  0.3127 -0.2144
 1872SOL    HW3 7535   3.205   3.511   3.063 -0.9609  1.6068 -0.7093
 1872SOL    MW4 7536   3.134   3.468   3.090  0.0000  0.4277 -0.0494
 1873SOL     OW 7537   3.372   3.850   3.137  0.4497 -0.1501  0.1348
 1873SOL    HW2 7538   3.363   3.855   3.233 -0.5943 -1.4411  0.1125
 1873SOL    HW3 7539   3.308   3.913   3.104  0.7485  0.2322  0.2740
 1873SOL    MW4 7540   3.362   3.859   3.146  0.3514 -0.2699  0.1502
 1874SOL     OW 7541   3.148   3.983   3.011  0.0341 -0.3867  0.5469
 1874SOL    HW2 7542   3.075   3.924   3.030  0.4543 -0.9863  0.3542
 1874SOL    HW3 7543   3.146   3.995   2.917 -0.5926  0.6366  0.6901
 1874SOL    MW4 7544   3.138   3.977   3.001  0.0069 -0.3309  0.5405
 1875SOL     OW 7545   3.140   4.254   3.108  0.3678 -0.1842  0.5586
 1875SOL    HW2 7546   3.143   4.243   3.203 -0.2261  0.7000  0.6782
 1875SOL    HW3 7547   3.121   4.166   3.074 -0.8586 -0.2251  1.3306
 1875SOL    MW4 7548   3.138   4.241   3.116  0.1278 -0.0734  0.6762
 1876SOL     OW 7549   3.393   4.398   3.027  0.0115  0.0812 -0.0496
 1876SOL    HW2 7550   3.456   4.337   3.066 -1.2366 -1.2122 -0.0509
 1876SOL    HW3 7551   3.309   4.353   3.032 -1.2625  2.5309  1.6398
 1876SOL    MW4 7552   3.391   4.384   3.033 -0.3211  0.2332  0.1731
 1877SOL     OW 7553   3.816   4.653   3.119  0.1575 -0.2638  0.1760
 1877SOL    HW2 7554   3.802   4.563   3.090  0.2525 -0.4387  0.6785
 1877SOL    HW3 7555   3.731   4.695   3.107  0.2343 -0.2961 -0.5016
 1877SOL    MW4 7556   3.803   4.647   3.114  0.1800 -0.2913  0.1528
 1878SOL     OW 7557   3.576   0.386   3.105  0.0349  0.3480 -0.4176
 1878SOL    HW2 7558   3.576   0.380   3.200 -0.0910 -0.9341 -0.4954
 1878SOL    HW3 7559   3.656   0.434   3.083  0.8264 -0.6738  0.2490
 1878SOL    MW4 7560   3.586   0.392   3.114  0.1228  0.0440 -0.3400
 1879SOL     OW 7561   3.109   0.385   3.097 -0.0561  0.2586 -0.4794
 1879SOL    HW2 7562   3.193   0.425   3.075  0.1196  0.9232  1.3408
 1879SOL    HW3 7563   3.049   0.419   3.031  1.0252  0.0490 -1.5866
 1879SOL    MW4 7564   3.112   0.395   3.085  0.1099  0.3186 -0.3855
 1880SOL     OW 7565   3.795   0.519   3.011 -0.3107  0.1485  0.4275
 1880SOL    HW2 7566   3.812   0.609   3.039  1.0811  0.5746 -1.6755
 1880SOL    HW3 7567   3.874   0.471   3.033 -0.4549 -0.2250  0.1325
 1880SOL    MW4 7568   3.808   0.525   3.018 -0.1462  0.1554  0.1111
 1881SOL     OW 7569   4.038   0.873   3.745  0.1855  0.4165  0.0510
 1881SOL    HW2 7570   4.045   0.874   3.649  2.5075  2.4436  0.1743
 1881SOL    HW3 7571   4.024   0.965   3.768 -1.2265 -0.1826  1.6290
 1881SOL    MW4 7572   4.037   0.885   3.735  0.3057  0.6049  0.2754
 1882SOL     OW 7573   3.557   0.879   3.004 -1.1527 -0.5261  0.0573
 1882SOL    HW2 7574   3.634   0.836   3.041 -0.6276  0.9476  0.7381
 1882SOL    HW3 7575   3.483   0.830   3.040 -0.5530 -1.4267  0.0774
 1882SOL    MW4 7576   3.558   0.867   3.014 -1.0042 -0.4504  0.1500
 1883SOL     OW 7577   3.612   1.128   3.128 -0.1911  0.8669  0.0956
 1883SOL    HW2 7578   3.684   1.174   3.084 -1.1585  1.0538 -1.3434
 1883SOL    HW3 7579   3.604   1.045   3.081 -0.3060  0.4560  0.8415
 1883SOL    MW4 7580   3.620   1.123   3.116 -0.3338  0.8373  0.0043
 1884SOL     OW 7581   4.026   1.122   3.348 -0.2639 -0.0125  0.2822
 1884SOL    HW2 7582   4.078   1.171   3.411  0.0287  1.2704 -0.9248
 1884SOL    HW3 7583   3.938   1.159   3.355 -0.5379 -0.7514  0.8390
 1884SOL    MW4 7584   4.021   1.133   3.357 -0.2613  0.0592  0.1962
 1885SOL     OW 7585   3.828   1.518   3.071 -0.1976  0.0355  0.0540
 1885SOL    HW2 7586   3.845   1.541   3.162  0.9621  0.1756 -0.1804
 1885SOL    HW3 7587   3.754   1.571   3.045 -0.9147 -0.4425  1.0957
 1885SOL    MW4 7588   3.821   1.528   3.080 -0.1390 -0.0091  0.1605
 1886SOL     OW 7589   3.589   1.737   2.733  0.2991 -0.0859 -0.2197
 1886SOL    HW2 7590   3.585   1.829   2.709  1.9591  0.1726  0.4452
 1886SOL    HW3 7591   3.510   1.699   2.694 -1.2989  1.9276  0.9301
 1886SOL    MW4 7592   3.578   1.744   2.725  0.3073  0.2139  0.0200
 1887SOL     OW 7593   3.581   1.667   3.002 -0.4541 -0.4116 -0.1064
 1887SOL    HW2 7594   3.559   1.758   3.024  1.2342  0.0892 -0.3785
 1887SOL    HW3 7595   3.572   1.663   2.906 -2.7206 -1.1683  0.1078
 1887SOL    MW4 7596   3.577   1.679   2.992 -0.5302 -0.4454 -0.1140
 1888SOL     OW 7597   3.800   2.003   3.001 -0.4718  0.0683  0.2295
 1888SOL    HW2 7598   3.817   2.088   3.041  1.0739 -0.1095  0.0107
 1888SOL    HW3 7599   3.796   2.022   2.907  1.4457 -0.2868  0.0389
 1888SOL    MW4 7600   3.802   2.017   2.994 -0.0150 -0.0019  0.1752
 1889SOL     OW 7601   3.808   2.271   3.113 -0.1164 -0.0229  0.2361
 1889SOL    HW2 7602   3.809   2.277   3.209 -1.3405  1.1339  0.1874
 1889SOL    HW3 7603   3.886   2.318   3.085  0.3115 -0.4645  0.6549
 1889SOL    MW4 7604   3.818   2.278   3.122 -0.2215  0.0713  0.2851
 1890SOL     OW 7605   3.599   2.407   3.004  0.0503 -0.5253  0.4092
 1890SOL    HW2 7606   3.664   2.355   3.052 -0.0619  0.5515  1.7823
 1890SOL    HW3 7607   3.515   2.376   3.036 -0.0813 -1.0470 -0.4361
 1890SOL    MW4 7608   3.597   2.396   3.015  0.0181 -0.4516  0.4790
 1891SOL     OW 7609   3.578   2.661   3.085 -0.1217  0.5831 -0.0332
 1891SOL    HW2 7610   3.659   2.708   3.067  0.1147 -0.3874 -1.6063
 1891SOL    HW3 7611   3.592   2.573   3.048 -1.0662 -0.2893  1.6376
 1891SOL    MW4 7612   3.590   2.655   3.077 -0.2151  0.3400 -0.0203
 1892SOL     OW 7613   3.816   2.798   3.026  0.5580 -0.1709 -0.2465
 1892SOL    HW2 7614   3.805   2.887   3.061  0.4518 -0.3510  0.1893
 1892SOL    HW3 7615   3.808   2.808   2.932 -1.0651  0.0599 -0.0999
 1892SOL    MW4 7616   3.813   2.811   3.018  0.3297 -0.1643 -0.1700
 1893SOL     OW 7617   4.075   3.196   3.033  0.2029  0.0784  0.6300
 1893SOL    HW2 7618   4.059   3.203   2.939 -1.2026 -0.0056  0.8464
 1893SOL    HW3 7619   4.087   3.286   3.063 -0.2572  0.1734  0.5219
 1893SOL    MW4 7620   4.075   3.209   3.025 -0.0434  0.0799  0.6444
 1894SOL     OW 7621   3.622   3.257   3.028 -0.0031  0.0757  0.1281
 1894SOL    HW2 7622   3.562   3.192   3.065 -0.1829  0.5867  0.7435
 1894SOL    HW3 7623   3.616   3.243   2.933 -0.8903 -0.0583  0.1953
 1894SOL    MW4 7624   3.613   3.247   3.020 -0.1438  0.1254  0.2184
 1895SOL     OW 7625   3.349   3.597   3.014  0.1583  0.0960 -0.3483
 1895SOL    HW2 7626   3.338   3.684   3.052 -0.7409 -0.3645  0.4640
 1895SOL    HW3 7627   3.436   3.569   3.042 -0.2081  0.0615  0.7911
 1895SOL    MW4 7628   3.359   3.605   3.023 -0.0088  0.0308 -0.0908
 1896SOL     OW 7629   3.861   3.611   3.020 -0.3287 -0.0371 -0.2360
 1896SOL    HW2 7630   3.847   3.701   3.049  2.3407  0.6552 -0.9770
 1896SOL    HW3 7631   3.839   3.612   2.927 -1.8027 -0.5373  0.0954
 1896SOL    MW4 7632   3.856   3.623   3.011 -0.1712 -0.0119 -0.2897
 1897SOL     OW 7633   3.848   3.870   3.125  0.5123 -0.8684 -0.7771
 1897SOL    HW2 7634   3.847   3.855   3.219  1.4679  0.4922 -0.5356
 1897SOL    HW3 7635   3.758   3.895   3.104  0.6207  0.2316  0.0216
 1897SOL    MW4 7636   3.836   3.872   3.135  0.6528 -0.5441 -0.6399
 1898SOL     OW 7637   3.609   3.963   3.040 -0.5279 -0.0776  0.5933
 1898SOL    HW2 7638   3.535   3.918   3.080 -1.3126 -0.0134 -0.7499
 1898SOL    HW3 7639   3.591   3.960   2.946  0.0452  1.9054  0.3950
 1898SOL    MW4 7640   3.597   3.957   3.033 -0.5558  0.1926  0.3901
 1899SOL     OW 7641   3.580   4.226   3.126 -0.5115 -0.0603 -0.4262
 1899SOL    HW2 7642   3.666   4.249   3.091  0.8826 -0.3127  2.6445
 1899SOL    HW3 7643   3.568   4.134   3.102 -0.3900  0.2322 -1.6772
 1899SOL    MW4 7644   3.590   4.217   3.118 -0.3116 -0.0548 -0.1860
 1900SOL     OW 7645   3.781   4.390   3.021 -0.6607  0.3219 -0.0594
 1900SOL    HW2 7646   3.862   4.350   3.055 -1.1830 -0.0160  0.8083
 1900SOL    HW3 7647   3.790   4.386   2.926 -0.8716 -2.2486 -0.0039
 1900SOL    MW4 7648   3.793   4.384   3.013 -0.7575 -0.0615  0.0622
 1901SOL     OW 7649   4.021   0.101   2.982 -0.3140  0.1163 -0.0570
 1901SOL    HW2 7650   4.095   0.082   3.040  0.4032  1.9318 -0.3617
 1901SOL    HW3 7651   3.946   0.059   3.025  0.5900 -0.3682  1.0793
 1901SOL    MW4 7652   4.020   0.093   2.995 -0.0997  0.2919  0.0525
 1902SOL     OW 7653   4.053   0.395   2.689 -0.7067 -0.4530 -0.2774
 1902SOL    HW2 7654   4.056   0.303   2.715 -1.3365 -0.4997 -0.3558
 1902SOL    HW3 7655   4.066   0.393   2.594  0.8296 -0.3392 -0.0835
 1902SOL    MW4 7656   4.055   0.383   2.680 -0.5875 -0.4441 -0.2623
 1903SOL     OW 7657   4.011   0.344   3.108  0.5602 -0.1894  0.2424
 1903SOL    HW2 7658   4.091   0.389   3.081  0.8972 -0.4167  0.8471
 1903SOL    HW3 7659   4.018   0.257   3.070  0.1065  0.1233 -0.5732
 1903SOL    MW4 7660   4.023   0.339   3.100  0.5455 -0.1781  0.2148
 1904SOL     OW 7661   4.236   0.493   3.063  0.3557 -0.4532  0.3542
 1904SOL    HW2 7662   4.238   0.581   3.100 -0.2732 -0.8102  1.2628
 1904SOL    HW3 7663   4.255   0.505   2.970 -1.5267  0.8354  0.1081
 1904SOL    MW4 7664   4.239   0.506   3.056  0.0248 -0.3302  0.4416
 1905SOL     OW 7665   4.243   0.760   3.153 -0.0321  0.6267 -0.0343
 1905SOL    HW2 7666   4.171   0.816   3.124 -0.5831  0.5843  1.2564
 1905SOL    HW3 7667   4.320   0.797   3.109 -0.8056  0.7273 -1.3409
 1905SOL    MW4 7668   4.244   0.772   3.143 -0.2069  0.6344 -0.0365
 1906SOL     OW 7669   3.796   0.777   3.123  0.4820 -0.1617  0.1466
 1906SOL    HW2 7670   3.795   0.778   3.219  0.6944 -1.5990  0.1734
 1906SOL    HW3 7671   3.876   0.824   3.099  0.7798 -0.3968  0.6837
 1906SOL    MW4 7672   3.806   0.784   3.133  0.5491 -0.3823  0.2205
 1907SOL     OW 7673   4.042   0.901   3.032 -0.2316  0.0303 -0.5268
 1907SOL    HW2 7674   4.040   0.996   3.042  2.2115  0.1998 -1.1766
 1907SOL    HW3 7675   4.045   0.887   2.937 -0.5999 -0.6996 -0.4377
 1907SOL    MW4 7676   4.042   0.912   3.020  0.0415 -0.0436 -0.6008
 1908SOL     OW 7677   4.319   1.310   3.043  0.2511  0.1826  0.2981
 1908SOL    HW2 7678   4.311   1.392   3.093 -0.9431  0.1026  0.2665
 1908SOL    HW3 7679   4.234   1.268   3.054  1.8898 -2.6304  2.9995
 1908SOL    MW4 7680   4.307   1.316   3.051  0.3099 -0.1991  0.6502
 1909SOL     OW 7681   4.284   1.555   3.160  0.1243 -0.3243  0.2328
 1909SOL    HW2 7682   4.211   1.588   3.107  1.2288  0.5502 -0.7670
 1909SOL    HW3 7683   4.255   1.566   3.250 -0.9864 -0.0153 -0.1462
 1909SOL    MW4 7684   4.270   1.561   3.165  0.1235 -0.1683  0.0508
 1910SOL     OW 7685   4.060   1.645   3.017 -0.4975  0.1033 -0.4197
 1910SOL    HW2 7686   4.039   1.734   3.048 -2.1410 -0.6008  0.5617
 1910SOL    HW3 7687   3.983   1.593   3.041  1.4938 -2.1222  1.2817
 1910SOL    MW4 7688   4.047   1.650   3.024 -0.4511 -0.2832 -0.0658
 1911SOL     OW 7689   4.025   1.891   3.140  0.2454  0.0127  0.0295
 1911SOL    HW2 7690   4.106   1.927   3.104  0.2729 -1.1547 -1.1015
 1911SOL    HW3 7691   3.956   1.931   3.085  0.1225  0.1494  0.2821
 1911SOL    MW4 7692   4.026   1.901   3.128  0.2327 -0.1233 -0.0863
 1912SOL     OW 7693   4.240   2.032   3.037  0.3914 -0.0481  0.1465
 1912SOL    HW2 7694   4.326   1.996   3.061  0.0893 -0.6700  0.3176
 1912SOL    HW3 7695   4.234   2.017   2.943 -0.1250 -1.3130  0.3694
 1912SOL    MW4 7696   4.251   2.025   3.028  0.2837 -0.2968  0.1986
 1913SOL     OW 7697   4.236   2.292   3.122 -0.3858 -0.2086  0.4536
 1913SOL    HW2 7698   4.227   2.203   3.087 -2.6252 -0.4740  1.6187
 1913SOL    HW3 7699   4.326   2.317   3.101 -0.1580 -2.2204 -1.1097
 1913SOL    MW4 7700   4.247   2.284   3.115 -0.6509 -0.5093  0.4010
 1914SOL     OW 7701   4.032   2.431   3.020  0.2150 -0.0956 -0.7176
 1914SOL    HW2 7702   4.044   2.522   3.047 -0.4291  0.5348 -2.4984
 1914SOL    HW3 7703   4.109   2.386   3.055  0.6467  1.1714  0.0019
 1914SOL    MW4 7704   4.044   2.437   3.028  0.1869  0.1545 -0.8576
 1915SOL     OW 7705   4.047   2.677   3.131  0.0916  0.3013  0.0929
 1915SOL    HW2 7706   4.025   2.684   3.224 -1.6214 -0.2307 -0.2379
 1915SOL    HW3 7707   3.975   2.722   3.086 -0.6279 -1.9420 -1.0884
 1915SOL    MW4 7708   4.034   2.684   3.137 -0.2294 -0.0648 -0.1066
 1916SOL     OW 7709   4.247   2.817   3.015 -0.6128 -0.1080  0.4942
 1916SOL    HW2 7710   4.176   2.768   3.057 -0.0875 -1.0216  0.3404
 1916SOL    HW3 7711   4.325   2.764   3.031 -0.3093 -0.1846 -1.1401
 1916SOL    MW4 7712   4.248   2.803   3.023 -0.5031 -0.2389  0.2584
 1917SOL     OW 7713   4.293   3.058   3.376  0.5651 -0.2399  0.4276
 1917SOL    HW2 7714   4.295   3.055   3.281 -0.2818 -0.3493  0.4075
 1917SOL    HW3 7715   4.283   2.967   3.403  2.4690 -0.3850  0.6779
 1917SOL    MW4 7716   4.292   3.045   3.367  0.7043 -0.2735  0.4580
 1918SOL     OW 7717   4.311   3.074   3.103 -0.5503 -0.5532  0.1304
 1918SOL    HW2 7718   4.227   3.115   3.083 -1.9956 -2.1767  2.4855
 1918SOL    HW3 7719   4.303   2.986   3.068 -0.0380 -0.8737  0.8148
 1918SOL    MW4 7720   4.299   3.068   3.096 -0.6733 -0.8094  0.5314
 1919SOL     OW 7721   4.086   3.434   3.135 -0.0956 -0.2804 -0.1006
 1919SOL    HW2 7722   4.087   3.443   3.230 -0.8412  0.2840 -0.1399
 1919SOL    HW3 7723   4.011   3.487   3.106 -0.8008 -1.6516 -0.8768
 1919SOL    MW4 7724   4.076   3.442   3.144 -0.2866 -0.3870 -0.2079
 1920SOL     OW 7725   4.283   3.634   3.055  0.0261 -0.1552 -0.0716
 1920SOL    HW2 7726   4.267   3.715   3.104  1.6984 -0.4193  0.9517
 1920SOL    HW3 7727   4.210   3.577   3.080  0.5092 -0.0597  1.6459
 1920SOL    MW4 7728   4.271   3.637   3.065  0.3104 -0.1776  0.2899
 1921SOL     OW 7729   4.249   3.918   3.149 -0.2636 -0.5337 -0.1515
 1921SOL    HW2 7730   4.326   3.948   3.103  0.7806 -1.8329  0.7080
 1921SOL    HW3 7731   4.175   3.949   3.096  0.8486  0.1084 -1.3425
 1921SOL    MW4 7732   4.249   3.926   3.136  0.0210 -0.6204 -0.1950
 1922SOL     OW 7733   4.055   4.019   3.016  0.4933 -0.2353  0.3646
 1922SOL    HW2 7734   4.020   4.108   3.022  0.0900 -0.5130  3.2383
 1922SOL    HW3 7735   3.984   3.963   3.048  1.0964 -1.4968 -0.4574
 1922SOL    MW4 7736   4.041   4.023   3.021  0.5193 -0.4387  0.6354
 1923SOL     OW 7737   4.016   4.271   3.101 -0.1305 -0.3247  0.2271
 1923SOL    HW2 7738   4.025   4.266   3.196  0.3926  1.9189  0.3229
 1923SOL    HW3 7739   4.099   4.308   3.071 -0.0058 -1.7022 -1.1808
 1923SOL    MW4 7740   4.028   4.275   3.110 -0.0458 -0.2103  0.0539
 1924SOL     OW 7741   4.239   0.006   3.129  0.0671  0.4880 -0.1819
 1924SOL    HW2 7742   4.270   0.019   3.219 -0.6430 -0.8484  0.2688
 1924SOL    HW3 7743   4.228  -0.089   3.121 -0.8857  0.6845 -1.3476
 1924SOL    MW4 7744   4.242  -0.005   3.140 -0.1526  0.3376 -0.2759
 1925SOL     OW 7745   0.244   4.656   3.379 -0.1855 -0.4881  0.1730
 1925SOL    HW2 7746   0.318   4.693   3.427 -0.9557  0.0728  0.9516
 1925SOL    HW3 7747   0.231   4.570   3.418  0.3028 -0.7417 -0.2270
 1925SOL    MW4 7748   0.252   4.650   3.391 -0.2227 -0.4478  0.2227
 1926SOL     OW 7749   0.246   4.664   3.920  0.9763 -0.4231 -0.4078
 1926SOL    HW2 7750   0.154   4.684   3.908  1.3070  0.3167 -1.8424
 1926SOL    HW3 7751   0.259   4.581   3.873  1.2608  0.0246 -1.1300
 1926SOL    MW4 7752   0.236   4.655   3.912  1.0574 -0.2664 -0.6926
 1927SOL     OW 7753   0.028   0.115   3.527 -0.0166 -0.4301 -0.3698
 1927SOL    HW2 7754   0.049   0.206   3.504  0.2726 -0.0298  1.4160
 1927SOL    HW3 7755   0.098   0.064   3.486  1.0692  0.3620  0.4643
 1927SOL    MW4 7756   0.040   0.121   3.518  0.1648 -0.2728 -0.0236
 1928SOL     OW 7757   4.473   0.384   3.150 -0.1300  0.0300 -0.0910
 1928SOL    HW2 7758   4.384   0.419   3.149 -0.0010  0.3838  0.5460
 1928SOL    HW3 7759   4.498   0.385   3.242 -0.0873 -1.6559 -0.0783
 1928SOL    MW4 7760   4.464   0.389   3.162 -0.1073 -0.1458 -0.0055
 1929SOL     OW 7761   0.254   0.531   3.509  0.2907  0.1242  0.4072
 1929SOL    HW2 7762   0.327   0.483   3.471  0.3210  0.1065  0.4875
 1929SOL    HW3 7763   0.241   0.605   3.450  0.7061  0.4106  0.6666
 1929SOL    MW4 7764   0.262   0.535   3.496  0.3495  0.1596  0.4520
 1930SOL     OW 7765   0.007   0.916   3.487  0.0691 -0.0561 -0.2142
 1930SOL    HW2 7766   0.003   0.902   3.582  1.9668  0.1335 -0.0967
 1930SOL    HW3 7767   0.002   1.011   3.476 -1.9484 -0.1614 -0.4256
 1930SOL    MW4 7768   0.005   0.927   3.498  0.0533 -0.0449 -0.2267
 1931SOL     OW 7769   0.005   1.197   3.419  0.2148  0.3301 -0.4747
 1931SOL    HW2 7770   0.092   1.208   3.457  0.2062 -0.4820 -0.2115
 1931SOL    HW3 7771   0.021   1.157   3.333 -0.0217 -1.9094  0.5004
 1931SOL    MW4 7772   0.018   1.193   3.412  0.1824 -0.0725 -0.3114
 1932SOL     OW 7773   0.453   0.895   3.792 -0.2697 -0.4365  0.2192
 1932SOL    HW2 7774   0.384   0.844   3.836 -0.4985 -0.6550 -0.3902
 1932SOL    HW3 7775   0.449   0.981   3.833 -1.2840 -0.2762 -0.1987
 1932SOL    MW4 7776   0.443   0.900   3.803 -0.4337 -0.4442  0.0837
 1933SOL     OW 7777   0.677   1.482   3.449  0.0961 -0.1228  0.0586
 1933SOL    HW2 7778   0.603   1.535   3.480  0.2958  0.2483 -0.1026
 1933SOL    HW3 7779   0.755   1.529   3.477  0.2756 -0.2064 -0.2969
 1933SOL    MW4 7780   0.677   1.495   3.457  0.1462 -0.0850 -0.0095
 1934SOL     OW 7781   4.480   1.660   3.490 -0.4907 -0.5146  0.3553
 1934SOL    HW2 7782   4.490   1.648   3.584  1.7415 -3.5419 -0.2098
 1934SOL    HW3 7783   4.558   1.619   3.452 -1.3686  0.6303 -2.8231
 1934SOL    MW4 7784   4.492   1.653   3.498 -0.3120 -0.7629 -0.1388
 1935SOL     OW 7785   0.298   2.055   3.501 -0.2797 -0.1286  0.5947
 1935SOL    HW2 7786   0.227   2.003   3.463  1.3923 -0.6409 -1.8670
 1935SOL    HW3 7787   0.284   2.047   3.596 -2.6662 -1.3720  0.1896
 1935SOL    MW4 7788   0.287   2.047   3.509 -0.3740 -0.3605  0.2165
 1936SOL     OW 7789   0.686   2.048   3.003  0.5237  0.3613 -0.1529
 1936SOL    HW2 7790   0.669   2.138   3.029  0.9482 -0.2565  2.4120
 1936SOL    HW3 7791   0.767   2.024   3.049  0.0459 -1.5260 -0.2449
 1936SOL    MW4 7792   0.695   2.057   3.013  0.5167  0.0305  0.1731
 1937SOL     OW 7793   0.270   2.304   3.406 -0.1814 -0.4118 -0.1627
 1937SOL    HW2 7794   0.189   2.336   3.444 -0.2190  1.8895 -2.1121
 1937SOL    HW3 7795   0.274   2.212   3.433 -3.2200 -0.4560  0.2685
 1937SOL    MW4 7796   0.260   2.296   3.415 -0.5872 -0.1142 -0.3631
 1938SOL     OW 7797   0.005   2.402   3.522  0.1916 -0.2081  0.4062
 1938SOL    HW2 7798  -0.016   2.398   3.615 -1.7120  0.1817  0.0160
 1938SOL    HW3 7799  -0.066   2.353   3.479  0.6896  0.1690 -0.8788
 1938SOL    MW4 7800  -0.007   2.395   3.529  0.0062 -0.1070  0.1853
 1939SOL     OW 7801   0.006   2.655   3.387  0.8394  0.1432  0.0479
 1939SOL    HW2 7802   0.084   2.704   3.415  0.1030  0.0907  2.3225
 1939SOL    HW3 7803   0.013   2.571   3.432 -0.0937 -0.1858 -0.4126
 1939SOL    MW4 7804   0.017   2.650   3.397  0.6189  0.0927  0.2873
 1940SOL     OW 7805   0.201   2.807   3.500 -0.1425  0.1990 -0.1253
 1940SOL    HW2 7806   0.289   2.773   3.484 -0.3706 -0.0599 -0.8262
 1940SOL    HW3 7807   0.204   2.899   3.472  0.5461  0.8640  2.0068
 1940SOL    MW4 7808   0.213   2.815   3.494 -0.0818  0.2525  0.0634
 1941SOL     OW 7809   0.213   3.101   3.464  0.4113 -0.1143 -0.4025
 1941SOL    HW2 7810   0.130   3.140   3.489  1.2606  2.3658 -1.2947
 1941SOL    HW3 7811   0.217   3.111   3.369  1.1307 -1.4778 -0.5397
 1941SOL    MW4 7812   0.203   3.107   3.455  0.6183  0.0329 -0.5381
 1942SOL     OW 7813   4.450   3.205   3.540  0.0530  0.1225  0.0180
 1942SOL    HW2 7814   4.404   3.152   3.475  0.2337 -0.9231  0.7396
 1942SOL    HW3 7815   4.450   3.293   3.503 -2.2946  0.1024 -0.1290
 1942SOL    MW4 7816   4.444   3.210   3.527 -0.2332 -0.0179  0.0939
 1943SOL     OW 7817   0.031   3.450   3.431 -0.7250  0.2347 -0.3463
 1943SOL    HW2 7818  -0.037   3.510   3.461  0.5203  1.8924 -0.7971
 1943SOL    HW3 7819   0.026   3.453   3.336  0.1905  0.6130 -0.3842
 1943SOL    MW4 7820   0.021   3.458   3.422 -0.4399  0.5033 -0.4106
 1944SOL     OW 7821   0.234   3.622   3.509 -0.2252  0.4094  0.6225
 1944SOL    HW2 7822   0.214   3.645   3.600 -2.5941  0.0092  0.2497
 1944SOL    HW3 7823   0.170   3.554   3.487  1.0932 -0.3413 -0.9793
 1944SOL    MW4 7824   0.223   3.616   3.518 -0.3638  0.2575  0.3622
 1945SOL     OW 7825   0.264   3.873   3.373 -0.5022  0.2399  0.2599
 1945SOL    HW2 7826   0.257   3.790   3.422 -1.8004 -1.0740 -2.0582
 1945SOL    HW3 7827   0.188   3.924   3.403 -1.0385 -0.3780 -0.0135
 1945SOL    MW4 7828   0.253   3.868   3.384 -0.7442 -0.0150 -0.0820
 1946SOL     OW 7829   0.063   4.011   3.487 -0.7794 -0.4990 -0.2550
 1946SOL    HW2 7830   0.068   4.018   3.582  0.7283 -0.3332 -0.3303
 1946SOL    HW3 7831   0.032   4.097   3.457 -2.9216 -1.0983  0.1831
 1946SOL    MW4 7832   0.060   4.023   3.495 -0.8631 -0.5565 -0.2069
 1947SOL     OW 7833   0.007   4.256   3.385  0.5228  0.0444  0.4549
 1947SOL    HW2 7834  -0.061   4.294   3.439 -0.1128  0.1772 -0.4256
 1947SOL    HW3 7835   0.088   4.297   3.415  0.0556  0.8193  0.6499
 1947SOL    MW4 7836   0.009   4.266   3.396  0.3773  0.1645  0.3643
 1948SOL     OW 7837   0.209   4.404   3.512 -0.1878 -0.4012 -0.1665
 1948SOL    HW2 7838   0.222   4.410   3.606 -0.2264 -1.8717 -0.0573
 1948SOL    HW3 7839   0.291   4.366   3.479  0.1169  0.7832 -0.8291
 1948SOL    MW4 7840   0.222   4.400   3.520 -0.1527 -0.4387 -0.2394
 1949SOL     OW 7841   0.692   0.018   3.368  0.0299 -0.4880 -0.5729
 1949SOL    HW2 7842   0.686   0.044   3.276 -0.7764  0.6280 -0.2098
 1949SOL    HW3 7843   0.774   0.056   3.398 -0.8552  1.1392 -0.2048
 1949SOL    MW4 7844   0.702   0.026   3.359 -0.1932 -0.1261 -0.4764
 1950SOL     OW 7845   0.452   0.121   3.514  0.4899  0.2076 -0.1941
 1950SOL    HW2 7846   0.459   0.130   3.609  0.0365 -2.0767  0.0967
 1950SOL    HW3 7847   0.541   0.096   3.486  0.5621  0.6303 -0.3498
 1950SOL    MW4 7848   0.465   0.119   3.523  0.4396 -0.0380 -0.1764
 1951SOL     OW 7849   0.668   0.769   3.397  0.0958  0.4776 -0.0327
 1951SOL    HW2 7850   0.582   0.799   3.426 -0.6529 -0.5368 -1.1349
 1951SOL    HW3 7851   0.667   0.675   3.415  0.4733  0.2317 -1.2200
 1951SOL    MW4 7852   0.656   0.760   3.403  0.0468  0.3113 -0.3347
 1952SOL     OW 7853   0.964   0.398   3.030 -0.2555 -0.1037 -0.0145
 1952SOL    HW2 7854   1.044   0.449   3.016 -0.0889 -0.3136  0.1750
 1952SOL    HW3 7855   0.959   0.388   3.125 -0.2959 -0.4339 -0.0528
 1952SOL    MW4 7856   0.974   0.403   3.041 -0.2388 -0.1750  0.0055
 1953SOL     OW 7857   0.438   0.872   3.498 -0.0046 -0.1385 -0.6364
 1953SOL    HW2 7858   0.440   0.956   3.452 -2.5108 -0.1791 -0.8836
 1953SOL    HW3 7859   0.457   0.894   3.589  0.7079  0.5195 -0.9413
 1953SOL    MW4 7860   0.441   0.886   3.504 -0.2412 -0.0570 -0.7093
 1954SOL     OW 7861   0.230   0.756   3.358 -0.1218 -0.0058  0.0785
 1954SOL    HW2 7862   0.314   0.777   3.398  0.0442  0.2477 -0.3886
 1954SOL    HW3 7863   0.169   0.820   3.396 -0.1372 -0.2956  0.5403
 1954SOL    MW4 7864   0.233   0.767   3.368 -0.1020 -0.0105  0.0777
 1955SOL     OW 7865   0.672   1.521   3.911 -0.7670 -0.1213  0.1034
 1955SOL    HW2 7866   0.675   1.514   4.006 -0.1321  0.5083  0.1309
 1955SOL    HW3 7867   0.656   1.432   3.881  0.7306 -0.6140  0.7221
 1955SOL    MW4 7868   0.670   1.508   3.920 -0.4857 -0.1031  0.1888
 1956SOL     OW 7869   0.690   1.232   3.536  0.2522  0.0887 -0.0994
 1956SOL    HW2 7870   0.686   1.321   3.501  0.0682  0.4929  0.9312
 1956SOL    HW3 7871   0.762   1.191   3.488  1.2937  1.2470  0.4271
 1956SOL    MW4 7872   0.699   1.238   3.525  0.3654  0.2948  0.1059
 1957SOL     OW 7873   0.711   1.553   3.186  0.2162 -0.4765  0.0727
 1957SOL    HW2 7874   0.693   1.469   3.144 -0.2805  0.3802 -1.4649
 1957SOL    HW3 7875   0.699   1.536   3.280  0.8142 -2.2790 -0.1682
 1957SOL    MW4 7876   0.707   1.540   3.193  0.2295 -0.6013 -0.1619
 1958SOL     OW 7877   0.478   1.931   3.130 -0.3968 -0.1875  0.1205
 1958SOL    HW2 7878   0.394   1.972   3.108 -1.2029 -2.0342 -0.3863
 1958SOL    HW3 7879   0.544   1.988   3.091 -1.3739  1.6108  1.0268
 1958SOL    MW4 7880   0.476   1.944   3.122 -0.6321 -0.1940  0.1733
 1959SOL     OW 7881   0.246   1.551   3.158 -0.5042  0.1728 -0.2497
 1959SOL    HW2 7882   0.324   1.600   3.131 -0.4455 -0.4362 -1.2118
 1959SOL    HW3 7883   0.260   1.463   3.123 -0.8273 -0.4046  1.0489
 1959SOL    MW4 7884   0.258   1.545   3.150 -0.5391  0.0162 -0.2050
 1960SOL     OW 7885   0.672   2.047   3.814 -0.2798  0.1149 -0.2487
 1960SOL    HW2 7886   0.748   1.999   3.847  0.2766  0.3696 -1.1127
 1960SOL    HW3 7887   0.682   2.135   3.848 -0.5825 -0.0381  0.2387
 1960SOL    MW4 7888   0.683   2.052   3.823 -0.2463  0.1283 -0.2983
 1961SOL     OW 7889   0.702   2.068   3.549  0.1360 -0.3576 -0.0264
 1961SOL    HW2 7890   0.682   2.058   3.642  1.0230 -1.6938  0.0202
 1961SOL    HW3 7891   0.627   2.030   3.503 -0.0956 -0.0993  0.1392
 1961SOL    MW4 7892   0.690   2.062   3.555  0.2225 -0.5000  0.0019
 1962SOL     OW 7893   0.492   2.438   3.525 -0.2476  0.1234 -0.6431
 1962SOL    HW2 7894   0.576   2.405   3.493 -0.3523 -0.6687 -0.1048
 1962SOL    HW3 7895   0.427   2.377   3.490 -0.3536 -0.8265  1.1885
 1962SOL    MW4 7896   0.494   2.426   3.516 -0.2754 -0.1063 -0.3304
 1963SOL     OW 7897   0.459   2.713   3.432 -0.0451  0.1777  0.0390
 1963SOL    HW2 7898   0.455   2.623   3.465  0.3708  0.5652  1.1931
 1963SOL    HW3 7899   0.460   2.704   3.337 -2.7113 -0.9206  0.0817
 1963SOL    MW4 7900   0.459   2.700   3.424 -0.3420  0.0837  0.1969
 1964SOL     OW 7901   0.681   2.856   3.516 -0.3699 -0.0771  0.6859
 1964SOL    HW2 7902   0.752   2.799   3.485 -1.3927 -1.2650  0.5142
 1964SOL    HW3 7903   0.601   2.816   3.482 -1.0296  2.1445 -0.4961
 1964SOL    MW4 7904   0.680   2.843   3.507 -0.5919  0.0589  0.5074
 1965SOL     OW 7905   0.657   3.100   3.380 -0.2356  0.0699  0.2300
 1965SOL    HW2 7906   0.592   3.149   3.431 -0.4516  0.3807 -0.3450
 1965SOL    HW3 7907   0.669   3.019   3.429 -0.9271  0.0883  0.4326
 1965SOL    MW4 7908   0.650   3.096   3.393 -0.3553  0.1132  0.1810
 1966SOL     OW 7909   0.439   3.237   3.529 -0.1327  0.3603  0.6475
 1966SOL    HW2 7910   0.463   3.233   3.622 -2.8137 -0.8538  1.3551
 1966SOL    HW3 7911   0.349   3.205   3.527  0.0600 -0.1210 -2.4584
 1966SOL    MW4 7912   0.430   3.232   3.541 -0.4610  0.1369  0.3312
 1967SOL     OW 7913   0.459   3.480   3.403  0.3728  0.1040 -0.1495
 1967SOL    HW2 7914   0.463   3.390   3.435 -0.7741 -0.3225 -1.1419
 1967SOL    HW3 7915   0.377   3.514   3.439  0.6406  0.6387 -0.0456
 1967SOL    MW4 7916   0.448   3.473   3.412  0.2568  0.1185 -0.2668
 1968SOL     OW 7917   0.674   3.637   3.459  0.2387 -0.4710  0.3996
 1968SOL    HW2 7918   0.591   3.595   3.437 -0.1052 -1.3326  3.1625
 1968SOL    HW3 7919   0.741   3.573   3.435  0.0026 -0.5747  0.0125
 1968SOL    MW4 7920   0.672   3.623   3.453  0.1622 -0.5984  0.7129
 1969SOL     OW 7921   0.677   3.903   3.380 -0.1117 -0.0659 -0.3390
 1969SOL    HW2 7922   0.685   3.810   3.402  0.1197  0.0705  0.1602
 1969SOL    HW3 7923   0.752   3.944   3.422  0.2989  0.2109 -1.3414
 1969SOL    MW4 7924   0.688   3.896   3.388 -0.0270 -0.0112 -0.4055
 1970SOL     OW 7925   0.453   4.005   3.499 -0.1394 -0.3079  0.5307
 1970SOL    HW2 7926   0.539   3.972   3.471 -0.5995 -1.8000  0.7923
 1970SOL    HW3 7927   0.391   3.947   3.455 -0.9432 -0.8331  2.3116
 1970SOL    MW4 7928   0.457   3.993   3.489 -0.3062 -0.5739  0.7999
 1971SOL     OW 7929   0.422   4.275   3.399  0.2711  0.2236  0.3864
 1971SOL    HW2 7930   0.447   4.186   3.425  1.0318  0.7458  1.4734
 1971SOL    HW3 7931   0.424   4.273   3.303  0.1322 -0.9760  0.3996
 1971SOL    MW4 7932   0.426   4.263   3.390  0.3531  0.1340  0.5314
 1972SOL     OW 7933   0.667   4.412   3.488  0.6061 -0.2425  0.2693
 1972SOL    HW2 7934   0.590   4.367   3.453 -0.3892  0.7079  1.2082
 1972SOL    HW3 7935   0.668   4.496   3.441  0.1129  0.4250  1.4394
 1972SOL    MW4 7936   0.657   4.417   3.477  0.4097 -0.0296  0.5476
 1973SOL     OW 7937   1.120   4.632   3.423 -0.3902  0.0274 -0.4899
 1973SOL    HW2 7938   1.199   4.676   3.455  0.5287 -1.1830 -1.0719
 1973SOL    HW3 7939   1.120   4.648   3.328 -2.3097  2.3294 -0.1677
 1973SOL    MW4 7940   1.130   4.640   3.414 -0.5221  0.1712 -0.5243
 1974SOL     OW 7941   0.383   1.678   4.532  0.1440 -0.0366  0.2815
 1974SOL    HW2 7942   0.302   1.719   4.562 -0.0716 -0.9552  0.9699
 1974SOL    HW3 7943   0.364   1.584   4.532  1.3237 -0.2913  0.8106
 1974SOL    MW4 7944   0.370   1.671   4.536  0.2712 -0.1913  0.4425
 1975SOL     OW 7945   0.915   0.128   3.488 -0.3399 -0.1456  0.0799
 1975SOL    HW2 7946   0.901   0.125   3.583  0.5103  1.2846  0.2852
 1975SOL    HW3 7947   0.997   0.080   3.475 -0.4258 -0.2917  0.0806
 1975SOL    MW4 7948   0.924   0.122   3.499 -0.2391  0.0238  0.1068
 1976SOL     OW 7949   1.147   0.469   3.460  0.0160 -0.2020  0.2546
 1976SOL    HW2 7950   1.160   0.562   3.439 -0.0753 -0.0493  0.8366
 1976SOL    HW3 7951   1.201   0.422   3.397 -0.9017  0.1899 -0.8455
 1976SOL    MW4 7952   1.156   0.475   3.449 -0.1172 -0.1301  0.1862
 1977SOL     OW 7953   1.146   0.733   3.381 -0.1403  0.2339  0.0730
 1977SOL    HW2 7954   1.070   0.762   3.432  0.4358  0.5671  0.7546
 1977SOL    HW3 7955   1.219   0.784   3.417  0.3733  0.0520 -0.7034
 1977SOL    MW4 7956   1.146   0.744   3.393  0.0036  0.2539  0.0603
 1978SOL     OW 7957   0.885   0.880   3.506 -0.5283 -0.1364 -0.0624
 1978SOL    HW2 7958   0.895   0.970   3.478 -0.6042  0.2842  1.2111
 1978SOL    HW3 7959   0.798   0.854   3.476 -0.6107  0.3055 -0.2003
 1978SOL    MW4 7960   0.875   0.888   3.499 -0.5491 -0.0225  0.0875
 1979SOL     OW 7961   0.895   1.131   3.388 -0.3287  0.0251  0.0702
 1979SOL    HW2 7962   0.880   1.164   3.299  0.5043  0.4210  0.0778
 1979SOL    HW3 7963   0.975   1.174   3.417 -0.4930 -0.2514  0.9470
 1979SOL    MW4 7964   0.904   1.141   3.380 -0.2404  0.0408  0.1872
 1980SOL     OW 7965   2.915   3.294   4.283  0.1052  0.1488 -0.1263
 1980SOL    HW2 7966   2.994   3.343   4.260  0.0655  0.4525  0.3744
 1980SOL    HW3 7967   2.843   3.349   4.252  0.0436  0.6813  0.9425
 1980SOL    MW4 7968   2.916   3.308   4.276  0.0918  0.2592  0.0806
 1981SOL     OW 7969   1.134   1.264   3.466 -0.6093 -0.1626 -0.5040
 1981SOL    HW2 7970   1.136   1.253   3.561 -1.2146  0.3975 -0.4196
 1981SOL    HW3 7971   1.101   1.353   3.453 -0.2393 -0.1259 -1.2340
 1981SOL    MW4 7972   1.130   1.275   3.477 -0.6402 -0.0838 -0.5891
 1982SOL     OW 7973   0.509   1.915   3.421 -0.1220 -0.4374  0.1106
 1982SOL    HW2 7974   0.431   1.968   3.438  0.5671  0.8189 -0.5197
 1982SOL    HW3 7975   0.513   1.908   3.326 -0.1891 -1.6150  0.1922
 1982SOL    MW4 7976   0.499   1.921   3.411 -0.0399 -0.4270  0.0381
 1983SOL     OW 7977   0.447   1.945   3.935  0.6354 -0.3160 -0.2865
 1983SOL    HW2 7978   0.529   1.978   3.898  0.7500 -1.5535 -1.1689
 1983SOL    HW3 7979   0.450   1.851   3.920  0.7798 -0.9213  3.0754
 1983SOL    MW4 7980   0.458   1.937   3.929  0.6695 -0.5591  0.0405
 1984SOL     OW 7981   1.078   2.076   3.501 -0.2736  0.1412 -0.4998
 1984SOL    HW2 7982   1.018   2.005   3.479  0.6978 -0.3804 -1.5563
 1984SOL    HW3 7983   1.090   2.070   3.596 -1.6789  0.0956 -0.3211
 1984SOL    MW4 7984   1.072   2.066   3.510 -0.3307  0.0663 -0.6154
 1985SOL     OW 7985   1.113   2.318   3.378  0.2362 -0.2872  0.2809
 1985SOL    HW2 7986   1.084   2.231   3.407 -1.0257 -0.3378 -1.0589
 1985SOL    HW3 7987   1.124   2.309   3.283  1.0268  0.7718  0.2606
 1985SOL    MW4 7988   1.111   2.305   3.369  0.1740 -0.1543  0.1016
 1986SOL     OW 7989   0.915   2.457   3.522 -0.3989 -0.6746 -0.2099
 1986SOL    HW2 7990   0.920   2.432   3.614 -1.8712  2.1156  0.6695
 1986SOL    HW3 7991   0.979   2.401   3.479  2.3545 -0.1308  2.9551
 1986SOL    MW4 7992   0.924   2.447   3.528 -0.2299 -0.2348  0.3238
 1987SOL     OW 7993   0.917   2.742   3.420 -0.0853  0.1281  0.7497
 1987SOL    HW2 7994   0.995   2.792   3.445  0.3587 -0.2210  0.0865
 1987SOL    HW3 7995   0.924   2.660   3.468 -0.1746  0.2057  0.8928
 1987SOL    MW4 7996   0.928   2.738   3.429 -0.0384  0.0925  0.6809
 1988SOL     OW 7997   1.139   2.873   3.498 -0.4055 -0.3042  0.0888
 1988SOL    HW2 7998   1.199   2.799   3.492 -2.8360 -2.3683 -0.0727
 1988SOL    HW3 7999   1.111   2.874   3.589 -0.1800  0.5645  0.1464
 1988SOL    MW4 8000   1.143   2.863   3.509 -0.6964 -0.4621  0.0751
 1989SOL     OW 8001   1.108   3.119   3.360  0.3031  0.5534  0.4010
 1989SOL    HW2 8002   1.102   3.119   3.264 -2.3036 -1.5880  0.4952
 1989SOL    HW3 8003   1.105   3.026   3.384 -1.1746  1.1389  2.6195
 1989SOL    MW4 8004   1.107   3.107   3.350 -0.2358  0.3481  0.7062
 1990SOL     OW 8005   0.887   3.206   3.509 -0.3047  0.4837  0.3094
 1990SOL    HW2 8006   0.964   3.167   3.468 -0.2124  1.5410 -0.5433
 1990SOL    HW3 8007   0.814   3.179   3.453 -0.7049 -1.3290  1.6558
 1990SOL    MW4 8008   0.887   3.197   3.496 -0.3453  0.3841  0.3746
 1991SOL     OW 8009   0.901   3.492   3.415 -0.6418 -0.1166 -0.2741
 1991SOL    HW2 8010   0.908   3.400   3.437  1.1934 -0.1688 -1.0297
 1991SOL    HW3 8011   0.973   3.534   3.462 -1.4776  0.9348  0.0834
 1991SOL    MW4 8012   0.911   3.486   3.424 -0.5099  0.0153 -0.3271
 1992SOL     OW 8013   1.123   3.640   3.499  0.0300  0.2870 -0.0602
 1992SOL    HW2 8014   1.106   3.652   3.592 -1.5389 -0.1245 -0.2674
 1992SOL    HW3 8015   1.113   3.727   3.461  0.2600  0.3805  0.0894
 1992SOL    MW4 8016   1.119   3.653   3.506 -0.1465  0.2451 -0.0677
 1993SOL     OW 8017   1.110   3.878   3.370 -0.1595 -0.0617 -0.1172
 1993SOL    HW2 8018   1.194   3.908   3.405 -1.0261  3.0982 -0.6260
 1993SOL    HW3 8019   1.044   3.913   3.430 -1.1692 -2.4659  0.2483
 1993SOL    MW4 8020   1.112   3.886   3.382 -0.4071  0.0379 -0.1364
 1994SOL     OW 8021   0.915   3.993   3.519 -0.2784  0.4818  0.5789
 1994SOL    HW2 8022   0.910   4.082   3.483  1.3039  0.6546  0.7220
 1994SOL    HW3 8023   0.891   4.003   3.611 -1.2890  0.5544  0.3145
 1994SOL    MW4 8024   0.911   4.006   3.526 -0.2030  0.5140  0.5627
 1995SOL     OW 8025   0.891   4.244   3.413  0.7540  0.3328  0.3062
 1995SOL    HW2 8026   0.833   4.304   3.461  0.5007 -1.0543  1.7633
 1995SOL    HW3 8027   0.880   4.270   3.321 -0.6228  1.4260  0.7510
 1995SOL    MW4 8028   0.882   4.256   3.407  0.5389  0.2942  0.5572
 1996SOL     OW 8029   1.136   4.352   3.464 -0.0519 -0.3252  0.3835
 1996SOL    HW2 8030   1.059   4.316   3.421  0.0380  0.2418 -0.2642
 1996SOL    HW3 8031   1.134   4.445   3.443  0.1189 -0.0795  1.4295
 1996SOL    MW4 8032   1.126   4.359   3.455 -0.0175 -0.2184  0.4361
 1997SOL     OW 8033   1.566   4.647   3.108 -0.1746  0.2018  0.1391
 1997SOL    HW2 8034   1.645   4.681   3.067  0.6648 -0.4280  1.2176
 1997SOL    HW3 8035   1.495   4.695   3.066  0.7748  0.7402 -0.8654
 1997SOL    MW4 8036   1.567   4.658   3.097  0.0615  0.1893  0.1488
 1998SOL     OW 8037   1.367   0.086   3.758  0.3570  0.1983  0.1247
 1998SOL    HW2 8038   1.439   0.034   3.794  0.5139  1.0418  1.0620
 1998SOL    HW3 8039   1.356   0.158   3.821 -1.5576 -0.1394  0.2009
 1998SOL    MW4 8040   1.375   0.089   3.771  0.1252  0.2651  0.2582
 1999SOL     OW 8041   1.362   0.082   3.490  0.5414  0.0084 -0.0109
 1999SOL    HW2 8042   1.365   0.093   3.585  2.2139  0.9571 -0.1594
 1999SOL    HW3 8043   1.448   0.045   3.467 -0.1405 -0.9705 -1.0748
 1999SOL    MW4 8044   1.374   0.078   3.499  0.6721  0.0044 -0.1709
 2000SOL     OW 8045   1.358   0.325   3.347  0.0740 -0.3720  0.2490
 2000SOL    HW2 8046   1.366   0.234   3.376  2.5301 -0.1337  0.3579
 2000SOL    HW3 8047   1.427   0.371   3.394 -0.5393  1.3775 -0.5474
 2000SOL    MW4 8048   1.368   0.319   3.357  0.3171 -0.1097  0.1585
 2001SOL     OW 8049   1.593   0.747   3.385 -0.4619  0.2282 -0.2903
 2001SOL    HW2 8050   1.505   0.778   3.407 -0.1591  1.2030 -0.4333
 2001SOL    HW3 8051   1.595   0.656   3.416 -1.8207 -0.0946 -1.0786
 2001SOL    MW4 8052   1.581   0.739   3.392 -0.6013  0.3142 -0.4129
 2002SOL     OW 8053   1.373   0.889   3.469 -0.7414  0.3876 -0.3924
 2002SOL    HW2 8054   1.350   0.874   3.560 -0.6038  1.5041 -0.1700
 2002SOL    HW3 8055   1.381   0.984   3.461 -1.2492  0.3393 -1.6827
 2002SOL    MW4 8056   1.371   0.900   3.480 -0.7901  0.5284 -0.5331
 2003SOL     OW 8057   1.384   1.156   3.418 -0.0223 -0.6164  0.2132
 2003SOL    HW2 8058   1.433   1.225   3.463  0.4506 -1.4702  1.0273
 2003SOL    HW3 8059   1.292   1.179   3.432  0.1064 -1.6026  2.7917
 2003SOL    MW4 8060   1.378   1.169   3.426  0.0572 -0.8591  0.6607
 2004SOL     OW 8061   1.614   1.326   3.566  0.3370  0.5814 -0.4340
 2004SOL    HW2 8062   1.594   1.304   3.656  2.9653  1.7354  0.4882
 2004SOL    HW3 8063   1.665   1.252   3.534  2.4421  1.7217  0.1868
 2004SOL    MW4 8064   1.618   1.313   3.573  0.9615  0.8842 -0.2303
 2005SOL     OW 8065   1.590   1.580   3.436  0.3246 -0.1522 -0.0167
 2005SOL    HW2 8066   1.599   1.491   3.470  0.5342 -0.0391  0.2197
 2005SOL    HW3 8067   1.587   1.569   3.341  1.3583 -0.3248 -0.0340
 2005SOL    MW4 8068   1.591   1.567   3.428  0.4886 -0.1601  0.0122
 2006SOL     OW 8069   1.347   1.654   3.508  0.3542  0.2630  0.1120
 2006SOL    HW2 8070   1.349   1.623   3.599  0.8150 -2.6659 -0.8391
 2006SOL    HW3 8071   1.437   1.648   3.478  0.0897  0.5665 -0.7578
 2006SOL    MW4 8072   1.359   1.649   3.516  0.3800 -0.0833 -0.1283
 2007SOL     OW 8073   1.313   1.919   3.448  0.0232 -0.1314 -0.0872
 2007SOL    HW2 8074   1.223   1.948   3.466  0.4205  0.9661  0.1929
 2007SOL    HW3 8075   1.313   1.826   3.470 -0.6973  0.1707  1.2657
 2007SOL    MW4 8076   1.301   1.911   3.454 -0.0193  0.0533  0.1283
 2008SOL     OW 8077   1.569   2.002   3.456  0.3582  0.0024  0.4834
 2008SOL    HW2 8078   1.479   1.970   3.455  0.4732 -0.3619  1.3015
 2008SOL    HW3 8079   1.565   2.089   3.415 -0.5055  0.3516  1.3119
 2008SOL    MW4 8080   1.557   2.009   3.450  0.2594  0.0002  0.7007
 2009SOL     OW 8081   1.565   2.288   3.433  0.4433  0.1767 -0.2582
 2009SOL    HW2 8082   1.484   2.328   3.465  0.5230  0.6544 -0.6390
 2009SOL    HW3 8083   1.634   2.349   3.461  0.4251  1.0997 -2.1468
 2009SOL    MW4 8084   1.564   2.301   3.441  0.4514  0.3617 -0.5574
 2010SOL     OW 8085   1.343   2.416   3.528 -0.4708  0.1376  0.0032
 2010SOL    HW2 8086   1.260   2.380   3.497 -0.1787 -0.0371 -0.5788
 2010SOL    HW3 8087   1.338   2.509   3.508 -0.7380  0.2185  0.4376
 2010SOL    MW4 8088   1.332   2.423   3.522 -0.4674  0.1252 -0.0165
 2011SOL     OW 8089   1.332   2.681   3.437 -0.5093 -0.3676 -0.1259
 2011SOL    HW2 8090   1.412   2.724   3.467  0.2651 -2.4346  0.8521
 2011SOL    HW3 8091   1.333   2.693   3.342 -0.1101  1.3763  0.0710
 2011SOL    MW4 8092   1.343   2.688   3.428 -0.3544 -0.4101  0.0293
 2012SOL     OW 8093   1.575   2.786   3.514  0.0746  0.3476 -0.2186
 2012SOL    HW2 8094   1.578   2.879   3.490 -0.1853  0.2050 -0.8284
 2012SOL    HW3 8095   1.640   2.745   3.457 -0.1178  0.0906 -0.2540
 2012SOL    MW4 8096   1.584   2.793   3.503  0.0151  0.2949 -0.3040
 2013SOL     OW 8097   1.565   3.069   3.427 -0.0410 -0.1046  0.3027
 2013SOL    HW2 8098   1.632   3.138   3.436 -1.1846  1.3680 -2.1227
 2013SOL    HW3 8099   1.486   3.107   3.466 -0.4823 -0.3354 -0.3611
 2013SOL    MW4 8100   1.564   3.083   3.434 -0.2501  0.0591 -0.1049
 2014SOL     OW 8101   1.342   3.219   3.496  0.2878  0.1208  0.3320
 2014SOL    HW2 8102   1.273   3.176   3.445  0.6625 -0.3275  0.1993
 2014SOL    HW3 8103   1.311   3.215   3.586  0.6975 -1.1676  0.4202
 2014SOL    MW4 8104   1.329   3.213   3.501  0.3912 -0.1082  0.3262
 2015SOL     OW 8105   1.335   3.468   3.367 -0.1273 -0.3834 -0.4630
 2015SOL    HW2 8106   1.332   3.378   3.398 -0.1116 -0.1319  0.2698
 2015SOL    HW3 8107   1.257   3.509   3.403 -0.2025 -0.1342 -0.9019
 2015SOL    MW4 8108   1.325   3.462   3.376 -0.1352 -0.3171 -0.4241
 2016SOL     OW 8109   1.753   3.497   3.888  0.3334  0.0917  0.4006
 2016SOL    HW2 8110   1.757   3.486   3.983  0.7944  0.1962  0.3926
 2016SOL    HW3 8111   1.836   3.539   3.865  0.6471 -0.8417 -0.1751
 2016SOL    MW4 8112   1.764   3.501   3.898  0.4356 -0.0174  0.3233
 2017SOL     OW 8113   1.595   3.878   3.425  0.3774  0.0483  0.2373
 2017SOL    HW2 8114   1.590   3.789   3.460  0.7693  0.3330  1.0166
 2017SOL    HW3 8115   1.569   3.869   3.333 -1.3948 -0.5639  0.7994
 2017SOL    MW4 8116   1.591   3.865   3.417  0.1953  0.0050  0.4144
 2018SOL     OW 8117   1.346   3.971   3.477 -0.5167  0.5143 -0.2183
 2018SOL    HW2 8118   1.359   4.052   3.427 -0.0643  1.3654  1.2511
 2018SOL    HW3 8119   1.428   3.923   3.467 -0.2788  0.8665  0.0308
 2018SOL    MW4 8120   1.358   3.976   3.469 -0.4256  0.6731  0.0083
 2019SOL     OW 8121   1.360   4.214   3.331 -0.3172  0.4873  0.3653
 2019SOL    HW2 8122   1.291   4.260   3.379 -0.3098 -0.5854  1.4299
 2019SOL    HW3 8123   1.347   4.240   3.240 -0.5944  2.2276  0.8892
 2019SOL    MW4 8124   1.349   4.224   3.325 -0.3529  0.5755  0.5748
 2020SOL     OW 8125   1.588   4.352   3.470 -0.5655 -0.1834  0.2463
 2020SOL    HW2 8126   1.672   4.313   3.444  0.1930  1.4284  0.1864
 2020SOL    HW3 8127   1.522   4.296   3.430  0.5108 -0.7908 -0.7295
 2020SOL    MW4 8128   1.591   4.340   3.461 -0.3233 -0.0510  0.1094
 2021SOL     OW 8129   2.008   4.410   3.539  0.0597  0.1053  0.6591
 2021SOL    HW2 8130   2.013   4.488   3.484 -0.4092 -0.0459  0.3972
 2021SOL    HW3 8131   1.932   4.363   3.506  0.4425 -0.5473  0.6997
 2021SOL    MW4 8132   1.999   4.414   3.527  0.0484 -0.0010  0.6301
 2022SOL     OW 8133   1.591   4.629   3.402  0.0660  0.1012  0.0609
 2022SOL    HW2 8134   1.572   4.538   3.425  1.7506 -0.5373 -0.9077
 2022SOL    HW3 8135   1.568   4.635   3.309  0.1939  0.5823  0.0589
 2022SOL    MW4 8136   1.585   4.617   3.393  0.3052  0.0806 -0.0672
 2023SOL     OW 8137   1.840   0.335   3.434  0.5096 -0.2964  0.6117
 2023SOL    HW2 8138   1.837   0.243   3.459 -1.1218 -0.5557 -0.3998
 2023SOL    HW3 8139   1.850   0.334   3.339 -1.8088  0.4983  0.3160
 2023SOL    MW4 8140   1.841   0.323   3.425 -0.0114 -0.2258  0.4392
 2024SOL     OW 8141   1.800   0.862   3.792  0.0222 -0.2805 -0.6035
 2024SOL    HW2 8142   1.884   0.822   3.813  0.1541  0.0465 -0.5073
 2024SOL    HW3 8143   1.799   0.867   3.697 -0.0248 -0.5771 -0.6196
 2024SOL    MW4 8144   1.811   0.858   3.782  0.0335 -0.2765 -0.5932
 2025SOL     OW 8145   2.250   1.148   3.416 -0.1164 -0.8945  0.1918
 2025SOL    HW2 8146   2.174   1.205   3.429  0.4952 -0.0955  0.3235
 2025SOL    HW3 8147   2.325   1.204   3.434  0.5334 -1.4547 -0.7101
 2025SOL    MW4 8148   2.249   1.163   3.420  0.0498 -0.8630  0.0901
 2026SOL     OW 8149   1.824   0.869   3.523 -0.0028  0.0338  0.2623
 2026SOL    HW2 8150   1.747   0.819   3.495 -0.0376 -0.4275  1.1452
 2026SOL    HW3 8151   1.899   0.820   3.488 -0.0719 -0.1055  0.3117
 2026SOL    MW4 8152   1.824   0.856   3.515 -0.0166 -0.0454  0.3853
 2027SOL     OW 8153   1.985   1.251   3.468  0.1131 -0.1747  0.1870
 2027SOL    HW2 8154   2.014   1.338   3.439 -0.9327  0.1783  0.1963
 2027SOL    HW3 8155   1.986   1.256   3.563  0.7371 -0.4082  0.1980
 2027SOL    MW4 8156   1.989   1.263   3.476  0.0576 -0.1590  0.1895
 2028SOL     OW 8157   2.938   2.227   4.275  0.3438 -0.3963  0.1383
 2028SOL    HW2 8158   3.029   2.196   4.273  0.2963 -0.5192 -0.3611
 2028SOL    HW3 8159   2.895   2.172   4.340  0.2302 -1.4770 -0.8308
 2028SOL    MW4 8160   2.945   2.216   4.283  0.3226 -0.5550 -0.0553
 2029SOL     OW 8161   2.021   1.523   3.404  0.0201  0.5900  0.2042
 2029SOL    HW2 8162   2.097   1.571   3.437  0.9101 -1.1280  0.7132
 2029SOL    HW3 8163   1.946   1.561   3.450  0.5610  2.2802 -0.2836
 2029SOL    MW4 8164   2.021   1.534   3.414  0.2086  0.5863  0.2072
 2030SOL     OW 8165   2.011   1.495   3.895 -0.7292  0.7273 -0.2762
 2030SOL    HW2 8166   2.084   1.545   3.859  0.2534 -0.5912 -0.1667
 2030SOL    HW3 8167   2.032   1.485   3.988 -1.0764  0.3919 -0.2318
 2030SOL    MW4 8168   2.023   1.500   3.903 -0.6456  0.5089 -0.2558
 2031SOL     OW 8169   1.838   1.663   3.543  0.0188  0.1435  0.3872
 2031SOL    HW2 8170   1.762   1.610   3.520 -1.0312  1.8911 -0.2632
 2031SOL    HW3 8171   1.826   1.744   3.494  1.7248  0.8824  1.1700
 2031SOL    MW4 8172   1.826   1.667   3.534  0.1054  0.4717  0.4046
 2032SOL     OW 8173   1.795   1.870   3.365 -0.4292 -0.8916  0.0134
 2032SOL    HW2 8174   1.803   1.873   3.270  1.9959  0.1207  0.2127
 2032SOL    HW3 8175   1.711   1.913   3.384 -0.6936 -0.6650 -1.6233
 2032SOL    MW4 8176   1.785   1.876   3.355 -0.1441 -0.7282 -0.1764
 2033SOL     OW 8177   2.014   2.274   3.423  0.2716 -0.2457  0.3847
 2033SOL    HW2 8178   2.097   2.316   3.446  1.0710 -2.3576  1.4377
 2033SOL    HW3 8179   2.006   2.287   3.328  1.5480  0.4067  0.3566
 2033SOL    MW4 8180   2.024   2.281   3.413  0.5455 -0.4382  0.5198
 2034SOL     OW 8181   1.792   2.439   3.506 -0.0165  0.5227  0.2918
 2034SOL    HW2 8182   1.785   2.440   3.602  0.1417 -2.5286  0.3855
 2034SOL    HW3 8183   1.869   2.386   3.488 -1.0693 -0.4357 -1.5527
 2034SOL    MW4 8184   1.801   2.432   3.517 -0.1343 -0.0062  0.0608
 2035SOL     OW 8185   1.801   2.673   3.362 -0.7548 -0.2820 -0.5239
 2035SOL    HW2 8186   1.866   2.731   3.401  0.8771 -1.6584 -1.1591
 2035SOL    HW3 8187   1.793   2.600   3.423 -0.2942 -1.0347 -1.3472
 2035SOL    MW4 8188   1.809   2.671   3.375 -0.4787 -0.5627 -0.7167
 2036SOL     OW 8189   1.982   2.825   3.491 -0.2824 -0.2628 -0.1874
 2036SOL    HW2 8190   1.978   2.840   3.585 -1.3118  0.9558 -0.4095
 2036SOL    HW3 8191   1.995   2.912   3.453 -2.4854 -0.3768 -1.3057
 2036SOL    MW4 8192   1.983   2.839   3.498 -0.7089 -0.1171 -0.3643
 2037SOL     OW 8193   2.280   3.223   3.477  0.3514 -0.2508 -0.4380
 2037SOL    HW2 8194   2.348   3.165   3.442  1.6709  0.3139  1.1072
 2037SOL    HW3 8195   2.287   3.212   3.572  0.3413  2.1327 -0.1528
 2037SOL    MW4 8196   2.290   3.214   3.485  0.5243  0.1385 -0.1965
 2038SOL     OW 8197   1.810   3.253   3.513 -0.1294  0.3355 -0.0296
 2038SOL    HW2 8198   1.780   3.248   3.604  1.8391  1.2325  0.6823
 2038SOL    HW3 8199   1.810   3.347   3.493 -1.9312  0.0734 -1.4622
 2038SOL    MW4 8200   1.806   3.265   3.522 -0.1074  0.4191 -0.1247
 2039SOL     OW 8201   1.808   3.533   3.443  0.1775 -0.1487 -0.0530
 2039SOL    HW2 8202   1.713   3.545   3.450  0.1439  0.9732 -2.1572
 2039SOL    HW3 8203   1.826   3.534   3.349  2.2347 -0.8060  0.2982
 2039SOL    MW4 8204   1.798   3.535   3.432  0.4445 -0.0875 -0.2842
 2040SOL     OW 8205   2.081   3.849   3.401 -0.0822 -1.0785  0.2168
 2040SOL    HW2 8206   2.079   3.766   3.449 -0.6736 -0.9918  0.3487
 2040SOL    HW3 8207   2.010   3.900   3.439  0.0788 -0.6303 -0.0801
 2040SOL    MW4 8208   2.072   3.845   3.412 -0.1388 -1.0078  0.1953
 2041SOL     OW 8209   2.026   3.842   3.120  0.0497  0.3903  0.1206
 2041SOL    HW2 8210   1.952   3.902   3.116 -0.1312  0.2518  1.2729
 2041SOL    HW3 8211   2.045   3.834   3.214  1.2417  0.0902 -0.1412
 2041SOL    MW4 8212   2.019   3.849   3.132  0.1831  0.3324  0.2382
 2042SOL     OW 8213   1.856   3.984   3.464 -0.1225 -0.2157 -0.2273
 2042SOL    HW2 8214   1.770   3.943   3.454  0.5963 -1.4458 -1.6333
 2042SOL    HW3 8215   1.876   3.976   3.558 -0.6888 -1.6916 -0.2231
 2042SOL    MW4 8216   1.847   3.977   3.475 -0.1024 -0.5724 -0.4122
 2043SOL     OW 8217   1.839   4.239   3.395 -0.0746 -0.1875  0.0625
 2043SOL    HW2 8218   1.841   4.147   3.421 -2.4504 -0.7890 -1.7079
 2043SOL    HW3 8219   1.836   4.236   3.299 -0.8768  1.7262  0.0104
 2043SOL    MW4 8220   1.839   4.227   3.386 -0.4939 -0.0143 -0.1776
 2044SOL     OW 8221   0.658   1.998   4.797  0.3698  0.4253 -0.0451
 2044SOL    HW2 8222   0.627   1.937   4.730 -0.1012  1.5676 -0.8898
 2044SOL    HW3 8223   0.580   2.018   4.849  0.3448  0.8903 -0.2525
 2044SOL    MW4 8224   0.643   1.993   4.795  0.3043  0.6373 -0.1841
 2045SOL     OW 8225   2.463   4.643   3.453 -0.1895 -0.1514  0.3420
 2045SOL    HW2 8226   2.460   4.549   3.474  0.0105 -0.1827  0.2304
 2045SOL    HW3 8227   2.467   4.646   3.357  1.3996 -0.0695  0.3952
 2045SOL    MW4 8228   2.463   4.631   3.443  0.0467 -0.1445  0.3343
 2046SOL     OW 8229   2.051   4.644   3.407 -0.1659  0.1717  0.2609
 2046SOL    HW2 8230   1.975   4.687   3.445  0.2867  0.6068  0.6894
 2046SOL    HW3 8231   2.126   4.693   3.442  0.2263  1.0599 -1.8076
 2046SOL    MW4 8232   2.051   4.656   3.417 -0.0544  0.3462  0.0446
 2047SOL     OW 8233   2.273   0.102   3.840 -0.0086  0.4465  0.4737
 2047SOL    HW2 8234   2.272   0.195   3.865 -0.2910  0.3183  0.9506
 2047SOL    HW3 8235   2.278   0.103   3.745  1.8789  0.9512  0.5440
 2047SOL    MW4 8236   2.274   0.114   3.831  0.2029  0.4962  0.5460
 2048SOL     OW 8237   2.263   0.127   3.560 -0.0764  0.0215 -0.0720
 2048SOL    HW2 8238   2.338   0.075   3.529 -0.6181 -0.0651 -1.2254
 2048SOL    HW3 8239   2.276   0.214   3.523 -0.5828 -0.0076 -0.3213
 2048SOL    MW4 8240   2.275   0.131   3.551 -0.2146  0.0062 -0.2573
 2049SOL     OW 8241   2.499   0.520   3.566  0.2610  0.0796 -0.0759
 2049SOL    HW2 8242   2.571   0.488   3.511  1.3434 -0.9073  1.8445
 2049SOL    HW3 8243   2.473   0.603   3.526  1.3864 -0.3507 -1.7431
 2049SOL    MW4 8244   2.505   0.527   3.553  0.5522 -0.1073 -0.0427
 2050SOL     OW 8245   2.205   0.888   3.506 -0.4988 -0.2964 -0.3536
 2050SOL    HW2 8246   2.229   0.977   3.477  0.4502 -0.4877 -0.1921
 2050SOL    HW3 8247   2.202   0.895   3.602  0.0679 -0.5560 -0.3166
 2050SOL    MW4 8248   2.208   0.901   3.515 -0.2985 -0.3560 -0.3273
 2051SOL     OW 8249   2.416   2.197   4.415 -0.0186 -0.2241  0.6082
 2051SOL    HW2 8250   2.437   2.106   4.435  1.6166  0.3201  1.5112
 2051SOL    HW3 8251   2.330   2.194   4.373  0.5499 -2.2745 -0.4479
 2051SOL    MW4 8252   2.408   2.185   4.412  0.2725 -0.4230  0.5879
 2052SOL     OW 8253   2.497   1.293   3.448  0.0689 -0.4525 -0.1397
 2052SOL    HW2 8254   2.493   1.274   3.541 -0.3443 -1.0569 -0.2740
 2052SOL    HW3 8255   2.572   1.243   3.416 -1.2232 -2.2125 -0.5555
 2052SOL    MW4 8256   2.506   1.284   3.456 -0.1564 -0.7645 -0.2124
 2053SOL     OW 8257   2.483   1.570   3.406 -0.1580  0.2594  0.2834
 2053SOL    HW2 8258   2.453   1.584   3.317  0.1221  0.0726  0.1593
 2053SOL    HW3 8259   2.483   1.474   3.417  0.6579  0.2474  0.1914
 2053SOL    MW4 8260   2.479   1.559   3.396 -0.0136  0.2331  0.2546
 2054SOL     OW 8261   2.251   1.661   3.541  0.3735 -0.3712  0.2012
 2054SOL    HW2 8262   2.235   1.732   3.478 -0.2768  0.5611  1.3902
 2054SOL    HW3 8263   2.336   1.624   3.515 -0.1670 -0.3974 -1.5810
 2054SOL    MW4 8264   2.260   1.666   3.529  0.2165 -0.2517  0.1228
 2055SOL     OW 8265   2.240   1.898   3.391  0.1530  0.0379  0.6634
 2055SOL    HW2 8266   2.164   1.940   3.433  0.2582  0.9738 -0.0684
 2055SOL    HW3 8267   2.225   1.911   3.298  0.1863 -1.5773  0.4151
 2055SOL    MW4 8268   2.228   1.905   3.384  0.1712 -0.0516  0.5341
 2056SOL     OW 8269   2.453   2.042   3.482 -0.1161  0.3746  0.0224
 2056SOL    HW2 8270   2.438   2.048   3.576 -0.0942  2.3346 -0.0713
 2056SOL    HW3 8271   2.377   1.996   3.448 -0.4166  0.1991  0.9099
 2056SOL    MW4 8272   2.441   2.037   3.490 -0.1531  0.6101  0.1271
 2057SOL     OW 8273   2.484   2.322   3.432  0.1948  0.1856  0.1437
 2057SOL    HW2 8274   2.569   2.348   3.467  0.8218 -0.1633 -1.0825
 2057SOL    HW3 8275   2.482   2.227   3.442 -0.3859  0.2630  0.8724
 2057SOL    MW4 8276   2.495   2.313   3.438  0.2010  0.1497  0.0780
 2058SOL     OW 8277   2.235   2.711   3.435  0.1894  0.2864  0.5514
 2058SOL    HW2 8278   2.146   2.740   3.457 -0.0601 -0.2192  0.2146
 2058SOL    HW3 8279   2.246   2.737   3.343 -0.1128 -0.8567  0.1810
 2058SOL    MW4 8280   2.225   2.718   3.426  0.1166  0.0691  0.4580
 2059SOL     OW 8281   2.480   2.816   3.555 -0.2333 -0.3724  0.1518
 2059SOL    HW2 8282   2.393   2.784   3.532  0.4198 -2.4590  0.4439
 2059SOL    HW3 8283   2.488   2.899   3.509 -2.9845  0.6548  1.3912
 2059SOL    MW4 8284   2.469   2.823   3.546 -0.5102 -0.5124  0.3538
 2060SOL     OW 8285   2.736   2.694   3.888  0.1832  0.2513  0.1716
 2060SOL    HW2 8286   2.808   2.740   3.845  0.2276  0.4017  0.4106
 2060SOL    HW3 8287   2.658   2.742   3.862  0.1886  0.2181  0.0910
 2060SOL    MW4 8288   2.735   2.706   3.879  0.1898  0.2668  0.1926
 2061SOL     OW 8289   2.515   3.063   3.422 -0.1295  0.3228 -0.5370
 2061SOL    HW2 8290   2.599   3.100   3.450 -0.8193  0.7301  0.9894
 2061SOL    HW3 8291   2.516   3.072   3.326  1.0508  1.4201 -0.4279
 2061SOL    MW4 8292   2.526   3.069   3.413 -0.0651  0.5209 -0.3209
 2062SOL     OW 8293   2.261   3.485   3.869  0.3303 -0.5513 -0.3842
 2062SOL    HW2 8294   2.264   3.472   3.964  0.9263  1.5430 -0.0911
 2062SOL    HW3 8295   2.345   3.525   3.848  0.3509 -1.3303 -1.8699
 2062SOL    MW4 8296   2.273   3.488   3.879  0.4117 -0.3777 -0.5414
 2063SOL     OW 8297   2.276   3.499   3.409  0.6649 -0.6339 -0.1407
 2063SOL    HW2 8298   2.293   3.408   3.433  1.0572 -0.6969 -0.6313
 2063SOL    HW3 8299   2.304   3.505   3.318 -0.8430 -0.4156 -0.5974
 2063SOL    MW4 8300   2.282   3.488   3.400  0.5178 -0.6137 -0.2654
 2064SOL     OW 8301   2.479   3.618   3.546  0.0772  0.4156  0.7206
 2064SOL    HW2 8302   2.487   3.707   3.512 -0.0908  0.2996  0.3844
 2064SOL    HW3 8303   2.409   3.578   3.495 -0.6561  0.4677  1.6650
 2064SOL    MW4 8304   2.471   3.625   3.535 -0.0420  0.4072  0.8006
 2065SOL     OW 8305   2.504   3.872   3.433  0.1638 -0.0390  0.1642
 2065SOL    HW2 8306   2.592   3.910   3.434 -0.6703  1.9662 -1.0083
 2065SOL    HW3 8307   2.448   3.940   3.469 -0.9551 -1.2300  0.7116
 2065SOL    MW4 8308   2.508   3.886   3.438 -0.0939  0.0682  0.0815
 2066SOL     OW 8309   2.279   4.011   3.532  0.3334  0.1971 -0.2523
 2066SOL    HW2 8310   2.261   4.095   3.490 -0.4960  0.0042 -0.2968
 2066SOL    HW3 8311   2.222   3.949   3.487  0.3115 -0.2279  0.3484
 2066SOL    MW4 8312   2.269   4.014   3.521  0.2210  0.1154 -0.1788
 2067SOL     OW 8313   2.017   4.401   3.812  0.1193 -0.0365  0.0555
 2067SOL    HW2 8314   2.015   4.422   3.719  2.0379  2.3377  0.4910
 2067SOL    HW3 8315   2.091   4.341   3.822  0.8324  0.8692  0.2514
 2067SOL    MW4 8316   2.026   4.396   3.801  0.4668  0.3963  0.1388
 2068SOL     OW 8317   2.462   4.362   3.515 -0.0332  0.0445  0.0281
 2068SOL    HW2 8318   2.486   4.356   3.607  0.3677  0.6926 -0.0299
 2068SOL    HW3 8319   2.379   4.315   3.508  0.3639 -0.7278  0.5588
 2068SOL    MW4 8320   2.454   4.355   3.526  0.0718  0.0281  0.0904
 2069SOL     OW 8321   2.863   4.628   3.425  0.0773 -0.1867  0.2390
 2069SOL    HW2 8322   2.803   4.698   3.452  1.4984  1.1739 -0.0263
 2069SOL    HW3 8323   2.880   4.645   3.332 -0.1768 -1.3500 -0.0206
 2069SOL    MW4 8324   2.858   4.640   3.416  0.2313 -0.1607  0.1698
 2070SOL     OW 8325   2.677   0.134   3.504  0.5995  0.6211  0.1497
 2070SOL    HW2 8326   2.605   0.075   3.484  0.2351  1.4956 -1.2135
 2070SOL    HW3 8327   2.695   0.121   3.597  1.8420 -3.0831 -0.5286
 2070SOL    MW4 8328   2.670   0.125   3.513  0.7155  0.2478 -0.1202
 2071SOL     OW 8329   2.293   0.375   3.420  0.3143 -0.1906  0.3325
 2071SOL    HW2 8330   2.366   0.419   3.463 -0.4456  0.3973  1.0547
 2071SOL    HW3 8331   2.215   0.416   3.459 -0.4004 -1.5086  0.3192
 2071SOL    MW4 8332   2.292   0.386   3.431  0.1197 -0.2870  0.4261
 2072SOL     OW 8333   2.680   0.400   3.404  0.0218  0.4468 -0.5504
 2072SOL    HW2 8334   2.677   0.308   3.429 -0.9582  0.3465 -1.0380
 2072SOL    HW3 8335   2.674   0.399   3.308 -0.5244  1.0402 -0.5244
 2072SOL    MW4 8336   2.679   0.388   3.394 -0.1795  0.5119 -0.6113
 2073SOL     OW 8337   2.914   0.740   3.363  0.0589  0.1251  0.7678
 2073SOL    HW2 8338   2.925   0.655   3.405  0.8547  0.4291  1.1938
 2073SOL    HW3 8339   2.835   0.777   3.402 -0.6695 -0.6970  0.0912
 2073SOL    MW4 8340   2.905   0.734   3.373  0.0679  0.0567  0.7348
 2074SOL     OW 8341   2.697   0.883   3.736  0.4129  0.4367 -0.3385
 2074SOL    HW2 8342   2.637   0.840   3.797  1.4567 -0.5689 -0.0089
 2074SOL    HW3 8343   2.701   0.974   3.768 -0.0015  0.2248  0.3459
 2074SOL    MW4 8344   2.689   0.890   3.749  0.4959  0.2761 -0.2048
 2075SOL     OW 8345   2.748   1.173   3.389  0.2064  0.3784  0.1604
 2075SOL    HW2 8346   2.819   1.237   3.394  0.4326  0.0964  0.5056
 2075SOL    HW3 8347   2.725   1.170   3.296 -0.3615  1.5714  0.2501
 2075SOL    MW4 8348   2.754   1.181   3.377  0.1614  0.4987  0.2179
 2076SOL     OW 8349   2.996   1.296   3.414  0.1006  0.5960 -0.1315
 2076SOL    HW2 8350   3.076   1.262   3.375 -0.1179  0.4663 -0.4678
 2076SOL    HW3 8351   2.996   1.389   3.394  0.3787  0.6760  0.2358
 2076SOL    MW4 8352   3.006   1.304   3.406  0.1085  0.5894 -0.1273
 2077SOL     OW 8353   2.748   1.677   3.489  0.5276 -0.3824 -0.0685
 2077SOL    HW2 8354   2.739   1.765   3.455  1.3307  0.5227  1.9722
 2077SOL    HW3 8355   2.665   1.634   3.468 -1.0420  1.7889  1.5216
 2077SOL    MW4 8356   2.736   1.683   3.482  0.4265  0.0235  0.4108
 2078SOL     OW 8357   2.965   1.574   3.353  0.3107  0.0641 -0.1906
 2078SOL    HW2 8358   3.044   1.608   3.393  1.5456  1.0206 -3.3403
 2078SOL    HW3 8359   2.894   1.626   3.392  1.3795  0.6014  1.0944
 2078SOL    MW4 8360   2.966   1.585   3.364  0.6149  0.2611 -0.4365
 2079SOL     OW 8361   2.698   1.925   3.372 -0.6799 -0.0871 -0.2031
 2079SOL    HW2 8362   2.702   1.941   3.278 -0.6065  0.3071 -0.1323
 2079SOL    HW3 8363   2.615   1.963   3.399 -0.0474  1.0472  0.1351
 2079SOL    MW4 8364   2.688   1.932   3.363 -0.5870  0.1144 -0.1493
 2080SOL     OW 8365   2.921   2.049   3.491 -0.0176  0.4368 -0.5116
 2080SOL    HW2 8366   2.906   2.045   3.586  0.4950  0.6719 -0.4170
 2080SOL    HW3 8367   2.852   1.995   3.454  0.6793 -0.9173  0.0987
 2080SOL    MW4 8368   2.910   2.042   3.499  0.1416  0.2892 -0.4187
 2081SOL     OW 8369   2.914   2.297   3.364  0.2802 -0.3466  0.3604
 2081SOL    HW2 8370   2.902   2.210   3.401  0.4687  0.1818  1.6920
 2081SOL    HW3 8371   2.919   2.282   3.269 -0.3123 -1.7047  0.5299
 2081SOL    MW4 8372   2.913   2.283   3.356  0.2267 -0.4561  0.5586
 2082SOL     OW 8373   2.710   2.437   3.517  0.1189 -0.3982  0.0278
 2082SOL    HW2 8374   2.775   2.404   3.455  0.5240  0.1723  0.1468
 2082SOL    HW3 8375   2.685   2.523   3.482  0.6506  0.1067  0.8677
 2082SOL    MW4 8376   2.715   2.444   3.505  0.2425 -0.2563  0.1545
 2083SOL     OW 8377   2.667   2.668   3.379  0.3716  0.0535  0.2983
 2083SOL    HW2 8378   2.603   2.716   3.431 -0.3604  1.5404 -1.9000
 2083SOL    HW3 8379   2.750   2.711   3.397 -0.3642  2.5582 -2.0635
 2083SOL    MW4 8380   2.670   2.680   3.388  0.1776  0.5801 -0.3035
 2084SOL     OW 8381   2.899   2.826   3.463 -0.1169 -0.4365 -0.1129
 2084SOL    HW2 8382   2.888   2.835   3.558 -1.0462  0.5807 -0.3090
 2084SOL    HW3 8383   2.980   2.776   3.453 -0.9834 -2.1825  1.2402
 2084SOL    MW4 8384   2.908   2.821   3.474 -0.3538 -0.5329  0.0398
 2085SOL     OW 8385   2.969   3.084   3.443 -0.1569  0.4037 -0.2549
 2085SOL    HW2 8386   2.954   2.990   3.453  2.0230 -0.1431 -1.6850
 2085SOL    HW3 8387   2.951   3.101   3.350 -1.4239  1.6036  0.1800
 2085SOL    MW4 8388   2.965   3.074   3.432 -0.0367  0.4900 -0.3865
 2086SOL     OW 8389   2.727   3.226   3.517  0.0449  0.0990  0.7122
 2086SOL    HW2 8390   2.718   3.213   3.611  1.2010 -0.7246  0.7223
 2086SOL    HW3 8391   2.811   3.185   3.495  0.2829  1.1992 -0.4997
 2086SOL    MW4 8392   2.737   3.219   3.526  0.2289  0.1354  0.5536
 2087SOL     OW 8393   2.696   3.481   3.417 -0.1133 -0.4104 -0.1735
 2087SOL    HW2 8394   2.703   3.392   3.453  0.4911  0.1421  1.1145
 2087SOL    HW3 8395   2.617   3.517   3.459 -0.3871 -0.3585 -0.7346
 2087SOL    MW4 8396   2.686   3.474   3.427 -0.0696 -0.3307 -0.0777
 2088SOL     OW 8397   2.966   3.561   3.513  0.1389 -1.0383 -0.3060
 2088SOL    HW2 8398   2.964   3.649   3.475  0.4726 -0.9334 -0.0777
 2088SOL    HW3 8399   2.874   3.535   3.516 -0.2038  0.3431  2.0827
 2088SOL    MW4 8400   2.953   3.569   3.508  0.1380 -0.8423  0.0393
 2089SOL     OW 8401   2.962   3.806   3.370  0.7594  0.2713  0.1397
 2089SOL    HW2 8402   3.027   3.866   3.406  0.1347  1.1176 -0.1228
 2089SOL    HW3 8403   2.878   3.843   3.396  0.3576 -0.2375 -0.4227
 2089SOL    MW4 8404   2.960   3.818   3.378  0.6239  0.3161  0.0310
 2090SOL     OW 8405   2.759   3.973   3.483  0.2015  0.0908  0.3227
 2090SOL    HW2 8406   2.729   4.064   3.477  0.8689  0.2563 -0.5898
 2090SOL    HW3 8407   2.768   3.957   3.577  0.0639  0.9638  0.4876
 2090SOL    MW4 8408   2.756   3.983   3.495  0.2716  0.2279  0.2241
 2091SOL     OW 8409   2.682   4.225   3.403  0.5589  0.5809  0.2929
 2091SOL    HW2 8410   2.763   4.266   3.433  0.1153  0.6042  1.4973
 2091SOL    HW3 8411   2.612   4.272   3.448 -0.0964  0.1441 -0.2407
 2091SOL    MW4 8412   2.683   4.236   3.413  0.4137  0.5269  0.3812
 2092SOL     OW 8413   2.904   4.369   3.495 -0.1727 -0.5081 -0.2695
 2092SOL    HW2 8414   2.916   4.367   3.590  0.9116 -1.1633 -0.4056
 2092SOL    HW3 8415   2.899   4.463   3.474  3.4437 -0.1763  0.0274
 2092SOL    MW4 8416   2.905   4.381   3.505  0.4475 -0.5512 -0.2482
 2093SOL     OW 8417   3.356   4.362   3.501  0.3082  0.3701  0.3524
 2093SOL    HW2 8418   3.366   4.349   3.596  1.4817  1.2724  0.3610
 2093SOL    HW3 8419   3.362   4.456   3.489 -2.1365  0.4494 -0.3800
 2093SOL    MW4 8420   3.358   4.372   3.512  0.1402  0.4997  0.2570
 2094SOL     OW 8421   3.344   4.617   3.402  0.6614  0.1528 -0.3978
 2094SOL    HW2 8422   3.347   4.627   3.307 -1.0556 -1.0805 -0.5985
 2094SOL    HW3 8423   3.267   4.667   3.429 -0.2011 -1.3933  0.0727
 2094SOL    MW4 8424   3.334   4.625   3.393  0.3211 -0.2141 -0.3622
 2095SOL     OW 8425   2.919   0.483   3.506 -0.2054  0.0724  0.0540
 2095SOL    HW2 8426   2.926   0.475   3.601  0.2315  1.1334  0.1120
 2095SOL    HW3 8427   2.826   0.466   3.488 -0.3706  0.2559  0.7135
 2095SOL    MW4 8428   2.907   0.480   3.516 -0.1698  0.2366  0.1488
 2096SOL     OW 8429   3.356   0.471   3.465  0.2803 -0.4710  0.7619
 2096SOL    HW2 8430   3.366   0.475   3.560 -0.8583  0.4085  0.8453
 2096SOL    HW3 8431   3.274   0.425   3.451  0.6496 -0.9705  0.1885
 2096SOL    MW4 8432   3.347   0.465   3.476  0.1788 -0.4209  0.6971
 2097SOL     OW 8433   3.336   0.729   3.382  0.7531  0.2008 -0.3309
 2097SOL    HW2 8434   3.416   0.774   3.408 -0.4948  1.4895  1.4442
 2097SOL    HW3 8435   3.347   0.639   3.415  1.4932  0.3567 -0.1456
 2097SOL    MW4 8436   3.348   0.723   3.390  0.6862  0.3915 -0.0725
 2098SOL     OW 8437   2.711   0.898   3.462 -0.1605 -0.0444 -0.0772
 2098SOL    HW2 8438   2.685   0.905   3.554  0.2876 -0.5763  0.0898
 2098SOL    HW3 8439   2.743   0.985   3.440 -0.0686  0.0290  0.3349
 2098SOL    MW4 8440   2.711   0.910   3.471 -0.0894 -0.1048 -0.0010
 2099SOL     OW 8441   3.194   1.142   3.342  0.2691 -0.1261 -0.2186
 2099SOL    HW2 8442   3.157   1.062   3.379  0.3159 -0.2424 -0.4255
 2099SOL    HW3 8443   3.187   1.131   3.248  1.9612 -0.7016 -0.3028
 2099SOL    MW4 8444   3.188   1.130   3.335  0.4985 -0.2174 -0.2568
 2100SOL     OW 8445   3.380   1.315   3.437 -0.2555  0.3213  0.5143
 2100SOL    HW2 8446   3.463   1.268   3.425  0.3411  1.1644  1.3103
 2100SOL    HW3 8447   3.314   1.255   3.403  0.8267  0.2766 -1.5447
 2100SOL    MW4 8448   3.383   1.301   3.431 -0.0343  0.4268  0.3481
 2101SOL     OW 8449   3.393   1.583   3.360  0.3971  0.4672 -0.1270
 2101SOL    HW2 8450   3.398   1.488   3.377 -0.1474  0.6451  1.1188
 2101SOL    HW3 8451   3.476   1.618   3.393  1.5427  0.1687 -2.5651
 2101SOL    MW4 8452   3.405   1.575   3.367  0.4766  0.4512 -0.2842
 2102SOL     OW 8453   3.174   1.630   3.524  0.0941 -0.4255 -0.0774
 2102SOL    HW2 8454   3.175   1.725   3.511  1.2131 -0.2572  1.1734
 2102SOL    HW3 8455   3.248   1.598   3.473  0.4385 -0.4899  0.4582
 2102SOL    MW4 8456   3.184   1.638   3.516  0.2868 -0.4116  0.1583
 2103SOL     OW 8457   3.136   1.886   3.419  0.1835  0.3283  0.7240
 2103SOL    HW2 8458   3.064   1.935   3.458 -0.2889  1.2711 -1.2558
 2103SOL    HW3 8459   3.130   1.905   3.325  2.9015  0.3142  0.4944
 2103SOL    MW4 8460   3.126   1.895   3.412  0.4797  0.4508  0.4323
 2104SOL     OW 8461   3.375   2.023   3.481  0.3002 -0.5305 -0.6316
 2104SOL    HW2 8462   3.359   2.113   3.452  0.3795 -0.6738 -1.1334
 2104SOL    HW3 8463   3.306   1.973   3.439 -1.0477 -0.4013  1.3581
 2104SOL    MW4 8464   3.364   2.029   3.471  0.1328 -0.5322 -0.4354
 2105SOL     OW 8465   3.354   2.295   3.400 -0.0130 -0.3349 -0.5495
 2105SOL    HW2 8466   3.429   2.332   3.447  0.6069 -0.2410 -1.5980
 2105SOL    HW3 8467   3.277   2.326   3.448  0.4698  2.3849 -1.4354
 2105SOL    MW4 8468   3.354   2.304   3.412  0.1323  0.0362 -0.8049
 2106SOL     OW 8469   3.103   2.405   3.520  0.2056 -0.0728  0.1277
 2106SOL    HW2 8470   3.121   2.495   3.492  0.9964 -0.1680  0.3204
 2106SOL    HW3 8471   3.045   2.370   3.452 -0.0275  0.5485  0.0037
 2106SOL    MW4 8472   3.097   2.412   3.507  0.2794 -0.0036  0.1371
 2107SOL     OW 8473   3.133   2.644   3.411 -0.0248  0.3260  0.7887
 2107SOL    HW2 8474   3.215   2.682   3.442 -0.8357  1.3030  1.7718
 2107SOL    HW3 8475   3.140   2.645   3.316  0.9578  0.7246  0.8640
 2107SOL    MW4 8476   3.145   2.649   3.403 -0.0021  0.5076  0.9282
 2108SOL     OW 8477   3.360   2.770   3.511 -0.3076  0.0651 -0.0411
 2108SOL    HW2 8478   3.429   2.754   3.447  1.0931 -1.4294  1.8110
 2108SOL    HW3 8479   3.345   2.865   3.506  1.9390  0.4299 -0.4153
 2108SOL    MW4 8480   3.367   2.781   3.502  0.1736 -0.0839  0.1538
 2109SOL     OW 8481   3.384   3.038   3.441 -0.2221 -0.3940  0.6798
 2109SOL    HW2 8482   3.320   3.104   3.467 -0.5535 -0.2678 -0.4648
 2109SOL    HW3 8483   3.468   3.083   3.446 -0.4172  0.0176  0.2116
 2109SOL    MW4 8484   3.387   3.052   3.445 -0.2916 -0.3231  0.4671
 2110SOL     OW 8485   3.196   3.210   3.519  0.2054  0.2024  0.7425
 2110SOL    HW2 8486   3.194   3.289   3.465  0.3012  0.2108  0.7509
 2110SOL    HW3 8487   3.124   3.156   3.486  0.6016 -0.0259  0.2492
 2110SOL    MW4 8488   3.186   3.213   3.507  0.2701  0.1733  0.6785
 2111SOL     OW 8489   3.163   3.434   3.375 -0.1023  0.1059  0.0019
 2111SOL    HW2 8490   3.092   3.478   3.420 -0.1168 -0.0724  0.1505
 2111SOL    HW3 8491   3.155   3.464   3.284  0.5737  1.2939  0.3188
 2111SOL    MW4 8492   3.153   3.444   3.369 -0.0148  0.2391  0.0632
 2112SOL     OW 8493   3.616   3.467   3.392 -0.2527 -0.0267 -0.3573
 2112SOL    HW2 8494   3.532   3.498   3.426 -0.3976  0.7791 -1.4358
 2112SOL    HW3 8495   3.606   3.469   3.297  1.3896  1.2486 -0.5346
 2112SOL    MW4 8496   3.603   3.472   3.384 -0.0551  0.2480 -0.5231
 2113SOL     OW 8497   3.387   3.855   3.424  0.0698 -0.3437  0.0050
 2113SOL    HW2 8498   3.459   3.911   3.453 -0.4753  1.2528 -1.6549
 2113SOL    HW3 8499   3.308   3.901   3.452 -0.3791 -0.2899 -1.3010
 2113SOL    MW4 8500   3.386   3.868   3.431 -0.0615 -0.1259 -0.3862
 2114SOL     OW 8501   3.146   3.980   3.492 -0.1611  0.1632  0.3019
 2114SOL    HW2 8502   3.142   3.988   3.587  3.2474 -0.4537  0.5583
 2114SOL    HW3 8503   3.155   4.070   3.461 -0.2153  0.2847  0.6371
 2114SOL    MW4 8504   3.146   3.993   3.500  0.2813  0.0980  0.3800
 2115SOL     OW 8505   3.150   4.238   3.369 -0.3999 -0.1487  0.4084
 2115SOL    HW2 8506   3.219   4.284   3.417  1.2438 -0.6977 -1.3916
 2115SOL    HW3 8507   3.069   4.282   3.397  0.5857  0.1000  3.0002
 2115SOL    MW4 8508   3.148   4.250   3.379 -0.0529 -0.1884  0.5131
 2116SOL     OW 8509   3.358   4.346   3.776 -0.3874  0.2950 -0.0644
 2116SOL    HW2 8510   3.434   4.315   3.825  0.9170  0.6772 -1.7853
 2116SOL    HW3 8511   3.350   4.438   3.801  0.7037  0.6790 -1.0284
 2116SOL    MW4 8512   3.367   4.354   3.785 -0.0715  0.3963 -0.4187
 2117SOL     OW 8513   3.858   4.629   3.380 -0.2906 -0.4571  0.3134
 2117SOL    HW2 8514   3.859   4.632   3.284 -0.3020 -2.1618  0.2408
 2117SOL    HW3 8515   3.769   4.656   3.404 -0.1407  0.4323 -0.1439
 2117SOL    MW4 8516   3.846   4.633   3.370 -0.2725 -0.5651  0.2432
 2118SOL     OW 8517   3.588   0.050   3.439 -0.0991 -0.1101  0.4981
 2118SOL    HW2 8518   3.589   0.138   3.403  0.7971 -0.6940 -0.9772
 2118SOL    HW3 8519   3.501   0.017   3.421  0.0795 -0.0969 -0.4003
 2118SOL    MW4 8520   3.577   0.057   3.432  0.0429 -0.1854  0.1850
 2119SOL     OW 8521   3.590   0.324   3.383 -0.0312 -0.1478  0.0518
 2119SOL    HW2 8522   3.661   0.379   3.418  1.4378 -2.1689  0.3334
 2119SOL    HW3 8523   3.510   0.372   3.404  1.2658  2.4125 -0.6815
 2119SOL    MW4 8524   3.589   0.338   3.390  0.3338 -0.0766 -0.0079
 2120SOL     OW 8525   3.618   3.931   3.784 -0.6583 -0.4079  0.0571
 2120SOL    HW2 8526   3.683   3.896   3.844 -1.7692 -0.8078  1.0599
 2120SOL    HW3 8527   3.598   4.018   3.817 -1.0133 -0.4897  0.0677
 2120SOL    MW4 8528   3.624   3.938   3.796 -0.8516 -0.4716  0.1907
 2121SOL     OW 8529   3.809   0.755   3.403 -0.2505  0.5446  0.1052
 2121SOL    HW2 8530   3.895   0.794   3.419  0.1630  0.1256 -1.0080
 2121SOL    HW3 8531   3.814   0.668   3.444 -1.2048  1.6586  2.6687
 2121SOL    MW4 8532   3.821   0.748   3.410 -0.3219  0.6363  0.2966
 2122SOL     OW 8533   3.558   0.877   3.489  0.0991 -0.1334  0.2134
 2122SOL    HW2 8534   3.642   0.831   3.478 -0.2769 -0.8284  0.1907
 2122SOL    HW3 8535   3.559   0.905   3.580  0.4684  0.0839  0.1462
 2122SOL    MW4 8536   3.570   0.874   3.500  0.0982 -0.1965  0.2019
 2123SOL     OW 8537   3.586   1.124   3.386 -0.2782 -0.0155  0.1998
 2123SOL    HW2 8538   3.563   1.035   3.411  1.1939 -0.3381  0.4685
 2123SOL    HW3 8539   3.597   1.121   3.291  0.4337 -0.2722  0.2921
 2123SOL    MW4 8540   3.584   1.112   3.377  0.0098 -0.0919  0.2472
 2124SOL     OW 8541   3.812   1.266   3.473  0.5145  0.0720 -0.4094
 2124SOL    HW2 8542   3.828   1.273   3.567 -0.3197 -2.8963  0.0210
 2124SOL    HW3 8543   3.738   1.206   3.466 -1.0597  2.1788 -2.8953
 2124SOL    MW4 8544   3.804   1.259   3.484  0.1965 -0.0417 -0.6807
 2125SOL     OW 8545   3.866   1.522   3.357 -0.9545  0.2959  0.4211
 2125SOL    HW2 8546   3.911   1.574   3.423  1.6669 -0.4775 -0.7062
 2125SOL    HW3 8547   3.848   1.438   3.402  0.0601  0.0741  0.4175
 2125SOL    MW4 8548   3.869   1.518   3.372 -0.4747  0.1646  0.2720
 2126SOL     OW 8549   3.636   1.667   3.480 -0.1953  0.0371 -0.1791
 2126SOL    HW2 8550   3.625   1.748   3.431  0.5564  1.1247  1.4238
 2126SOL    HW3 8551   3.700   1.616   3.430 -1.4006  0.0004 -1.7002
 2126SOL    MW4 8552   3.643   1.671   3.467 -0.2553  0.1758 -0.1683
 2127SOL     OW 8553   3.538   1.921   3.096  0.2414 -0.2373 -0.1675
 2127SOL    HW2 8554   3.610   1.972   3.058  0.1913  0.2466  0.3726
 2127SOL    HW3 8555   3.558   1.918   3.190 -0.3562 -0.2334 -0.0380
 2127SOL    MW4 8556   3.550   1.927   3.104  0.1557 -0.1730 -0.0789
 2128SOL     OW 8557   3.592   1.916   3.366  0.0782  0.0211 -0.4617
 2128SOL    HW2 8558   3.518   1.958   3.410  0.8189  1.8409 -0.9310
 2128SOL    HW3 8559   3.669   1.951   3.410  0.7346 -0.3376 -1.3260
 2128SOL    MW4 8560   3.592   1.926   3.378  0.2627  0.2139 -0.6375
 2129SOL     OW 8561   3.765   2.288   3.388  0.0477 -0.2468 -0.5398
 2129SOL    HW2 8562   3.768   2.203   3.432 -1.4750  0.9214  1.9001
 2129SOL    HW3 8563   3.852   2.325   3.400 -0.1746 -0.2040  0.9998
 2129SOL    MW4 8564   3.777   2.281   3.395 -0.1824 -0.0870 -0.0150
 2130SOL     OW 8565   3.562   2.434   3.519 -0.1684 -0.2085  0.5940
 2130SOL    HW2 8566   3.548   2.516   3.472 -0.4523 -1.3121 -1.2809
 2130SOL    HW3 8567   3.631   2.390   3.469 -0.7042 -1.5417  1.0328
 2130SOL    MW4 8568   3.569   2.439   3.506 -0.2766 -0.5300  0.4046
 2131SOL     OW 8569   3.579   2.675   3.377 -0.0670 -0.4839 -0.0624
 2131SOL    HW2 8570   3.661   2.715   3.406 -0.1118 -1.0611  0.8879
 2131SOL    HW3 8571   3.587   2.670   3.282 -0.5991  2.9689 -0.3593
 2131SOL    MW4 8572   3.591   2.680   3.368 -0.1431 -0.1042  0.0238
 2132SOL     OW 8573   3.800   2.810   3.474  0.3553  0.7165 -0.0900
 2132SOL    HW2 8574   3.795   2.808   3.569 -0.6664 -0.6888 -0.1555
 2132SOL    HW3 8575   3.795   2.903   3.451 -0.6285  0.9824  1.1636
 2132SOL    MW4 8576   3.799   2.822   3.483  0.0906  0.5662  0.0668
 2133SOL     OW 8577   3.824   3.068   3.117  0.2039 -0.5206  0.4138
 2133SOL    HW2 8578   3.910   3.097   3.088  0.0179 -0.4584 -0.0752
 2133SOL    HW3 8579   3.765   3.137   3.087 -0.2123 -1.2903 -0.5435
 2133SOL    MW4 8580   3.828   3.081   3.109  0.1245 -0.6139  0.2229
 2134SOL     OW 8581   3.621   3.200   3.494 -0.0025  0.0952  0.1247
 2134SOL    HW2 8582   3.690   3.154   3.445  0.3715  1.2870 -0.4751
 2134SOL    HW3 8583   3.627   3.291   3.465 -2.1188  0.1452 -0.2582
 2134SOL    MW4 8584   3.631   3.206   3.484 -0.2322  0.2592 -0.0050
 2135SOL     OW 8585   3.608   3.509   3.086 -0.7416 -0.5812 -0.1117
 2135SOL    HW2 8586   3.694   3.547   3.069 -1.0820  0.0887 -0.3320
 2135SOL    HW3 8587   3.619   3.416   3.065 -0.2617 -0.3673 -0.8485
 2135SOL    MW4 8588   3.621   3.502   3.081 -0.7234 -0.4647 -0.2382
 2136SOL     OW 8589   3.840   3.586   3.496  0.3964  0.3384  0.2704
 2136SOL    HW2 8590   3.833   3.602   3.590  1.5432  0.2578  0.3770
 2136SOL    HW3 8591   3.758   3.544   3.472  0.8635 -1.3630  1.5840
 2136SOL    MW4 8592   3.828   3.583   3.505  0.6092  0.1032  0.4580
 2137SOL     OW 8593   3.842   3.840   3.405  0.3925 -0.0532  0.3944
 2137SOL    HW2 8594   3.761   3.880   3.438  0.7735  0.2185  1.0298
 2137SOL    HW3 8595   3.838   3.749   3.435 -0.1406 -0.2975 -0.4298
 2137SOL    MW4 8596   3.831   3.833   3.414  0.3724 -0.0496  0.3695
 2138SOL     OW 8597   3.626   3.993   3.516 -0.3745 -0.2034 -0.1844
 2138SOL    HW2 8598   3.633   3.988   3.611 -0.4668 -2.5974 -0.2637
 2138SOL    HW3 8599   3.636   4.086   3.495  1.0080  0.1684  2.0390
 2138SOL    MW4 8600   3.628   4.005   3.526 -0.2046 -0.4706  0.0989
 2139SOL     OW 8601   3.613   4.258   3.398 -0.3374 -0.0731  0.1067
 2139SOL    HW2 8602   3.609   4.248   3.303 -0.2549 -2.5417  0.3409
 2139SOL    HW3 8603   3.525   4.289   3.422 -0.1270  1.3001 -0.8362
 2139SOL    MW4 8604   3.601   4.261   3.389 -0.2987 -0.2174  0.0131
 2140SOL     OW 8605   3.859   4.359   3.493  0.3293  0.5722  0.3509
 2140SOL    HW2 8606   3.778   4.317   3.463  1.6631 -1.6832 -0.2111
 2140SOL    HW3 8607   3.857   4.446   3.454 -1.7598  0.5164  0.2606
 2140SOL    MW4 8608   3.848   4.365   3.484  0.2294  0.2680  0.2649
 2141SOL     OW 8609   4.313   0.007   3.404  0.1286 -0.1329  0.1128
 2141SOL    HW2 8610   4.309  -0.078   3.448  0.2385  1.4083  3.2730
 2141SOL    HW3 8611   4.387   0.051   3.445 -0.1940  1.6573 -1.1881
 2141SOL    MW4 8612   4.322   0.001   3.415  0.1006  0.3066  0.3579
 2142SOL     OW 8613   4.068   0.118   3.483  0.3248  0.3231  0.1717
 2142SOL    HW2 8614   4.145   0.075   3.447  0.7865  1.6474 -0.4840
 2142SOL    HW3 8615   3.994   0.070   3.446  0.8215  0.0552 -0.4812
 2142SOL    MW4 8616   4.068   0.106   3.473  0.4516  0.4624 -0.0007
 2143SOL     OW 8617   4.318   0.515   3.519  0.1108 -0.1364  0.1085
 2143SOL    HW2 8618   4.246   0.466   3.480 -0.9971 -0.0518  1.9971
 2143SOL    HW3 8619   4.309   0.604   3.484 -0.6232 -0.1668  0.2099
 2143SOL    MW4 8620   4.308   0.521   3.510 -0.1321 -0.1293  0.3712
 2144SOL     OW 8621   0.056   0.369   3.428 -0.9210  0.3254  0.2952
 2144SOL    HW2 8622   0.136   0.419   3.447 -0.8355  0.3043 -0.0081
 2144SOL    HW3 8623  -0.015   0.422   3.464 -1.0524  1.7578 -1.9606
 2144SOL    MW4 8624   0.057   0.382   3.435 -0.9271  0.5116 -0.0427
 2145SOL     OW 8625   4.279   0.757   3.427  0.1960 -0.0759  0.0607
 2145SOL    HW2 8626   4.357   0.805   3.455  0.3024 -0.6792  0.8282
 2145SOL    HW3 8627   4.278   0.765   3.332  1.2880 -0.2014  0.0364
 2145SOL    MW4 8628   4.289   0.764   3.418  0.3543 -0.1721  0.1585
 2146SOL     OW 8629   3.985   1.120   3.862 -0.2257 -0.4567  0.0646
 2146SOL    HW2 8630   3.986   1.103   3.957 -0.0453 -1.7804 -0.1539
 2146SOL    HW3 8631   4.069   1.162   3.845 -0.6885  0.7184  0.6443
 2146SOL    MW4 8632   3.996   1.123   3.873 -0.2630 -0.4764  0.1121
 2147SOL     OW 8633   4.032   0.874   3.459  0.1960 -0.2964  0.0851
 2147SOL    HW2 8634   4.117   0.831   3.455 -0.1414 -0.8763 -0.9322
 2147SOL    HW3 8635   4.048   0.962   3.425  0.4844 -0.2381  0.3627
 2147SOL    MW4 8636   4.045   0.880   3.454  0.1898 -0.3652 -0.0124
 2148SOL     OW 8637   4.226   1.262   3.485  0.0688  0.0785  0.2315
 2148SOL    HW2 8638   4.312   1.225   3.462 -0.3272 -0.6231 -0.1440
 2148SOL    HW3 8639   4.233   1.354   3.462  0.2651 -0.2588 -1.1280
 2148SOL    MW4 8640   4.238   1.269   3.479  0.0429 -0.0587  0.0024
 2149SOL     OW 8641   4.240   1.549   3.431 -0.5905 -0.2982 -0.3302
 2149SOL    HW2 8642   4.173   1.607   3.467 -1.0757 -0.5755 -0.7883
 2149SOL    HW3 8643   4.323   1.590   3.456 -0.9276 -0.3425  0.8596
 2149SOL    MW4 8644   4.242   1.562   3.439 -0.6990 -0.3406 -0.2337
 2150SOL     OW 8645   4.009   1.682   3.515  0.0516 -0.2088  0.2694
 2150SOL    HW2 8646   4.017   1.696   3.609  1.7311 -0.3919  0.1775
 2150SOL    HW3 8647   3.989   1.768   3.479 -0.3449 -0.0906  0.7668
 2150SOL    MW4 8648   4.008   1.695   3.523  0.2213 -0.2174  0.3228
 2151SOL     OW 8649   4.039   1.949   3.412  0.3311  0.4553  0.3474
 2151SOL    HW2 8650   4.125   1.989   3.424  0.2621  0.8685 -0.4907
 2151SOL    HW3 8651   4.037   1.924   3.319 -0.3655  0.2406  0.4177
 2151SOL    MW4 8652   4.050   1.951   3.401  0.2298  0.4814  0.2463
 2152SOL     OW 8653   4.262   2.278   3.419 -0.2153  0.1699 -0.3959
 2152SOL    HW2 8654   4.173   2.302   3.446 -1.0644 -2.2502 -0.9612
 2152SOL    HW3 8655   4.265   2.295   3.325  0.0333  0.5325 -0.3261
 2152SOL    MW4 8656   4.251   2.284   3.410 -0.2947 -0.1018 -0.4613
 2153SOL     OW 8657   4.015   2.393   3.479 -0.3648 -0.1061 -0.2928
 2153SOL    HW2 8658   4.036   2.411   3.571 -0.3569 -0.3453 -0.2480
 2153SOL    HW3 8659   4.014   2.479   3.438  1.7683 -0.1711 -0.5276
 2153SOL    MW4 8660   4.018   2.407   3.486 -0.0825 -0.1462 -0.3178
 2154SOL     OW 8661   3.168   0.359   4.630 -0.1429  0.4861  0.2946
 2154SOL    HW2 8662   3.098   0.315   4.582  0.6939 -0.8558  0.2696
 2154SOL    HW3 8663   3.171   0.447   4.592 -2.0969  0.7031  0.6094
 2154SOL    MW4 8664   3.159   0.365   4.619 -0.2904  0.3377  0.3328
 2155SOL     OW 8665   4.026   2.671   3.396 -0.0958  0.1694  0.0239
 2155SOL    HW2 8666   4.111   2.708   3.420  0.4470 -0.6631 -0.6055
 2155SOL    HW3 8667   3.963   2.730   3.438  0.7870  0.4635  0.9960
 2155SOL    MW4 8668   4.029   2.684   3.405  0.0920  0.0982  0.0691
 2156SOL     OW 8669   4.264   2.787   3.478  0.0028 -0.2751 -0.2464
 2156SOL    HW2 8670   4.268   2.771   3.572  0.3096 -0.8801 -0.3609
 2156SOL    HW3 8671   4.341   2.743   3.443 -0.3092 -0.3706 -0.8228
 2156SOL    MW4 8672   4.274   2.779   3.486  0.0019 -0.3674 -0.3376
 2157SOL     OW 8673   3.840   3.065   3.401  0.2166 -0.0346 -0.4958
 2157SOL    HW2 8674   3.920   3.111   3.426  0.9403 -1.7136  0.3753
 2157SOL    HW3 8675   3.848   3.053   3.307  1.9851 -1.9778 -0.1242
 2157SOL    MW4 8676   3.852   3.069   3.392  0.5455 -0.5124 -0.3319
 2158SOL     OW 8677   4.091   3.201   3.493 -0.1259  0.3023 -0.1181
 2158SOL    HW2 8678   4.098   3.293   3.468  0.4334  0.3949  0.3907
 2158SOL    HW3 8679   4.161   3.157   3.444  0.5385  0.3780  0.7583
 2158SOL    MW4 8680   4.101   3.207   3.483  0.0358  0.3245  0.0646
 2159SOL     OW 8681   4.075   3.462   3.405 -0.3148 -0.8398  0.3995
 2159SOL    HW2 8682   4.149   3.501   3.453  0.7938 -0.0888 -1.8269
 2159SOL    HW3 8683   3.998   3.507   3.438  0.4034 -0.4945  1.6209
 2159SOL    MW4 8684   4.075   3.473   3.415 -0.0739 -0.6952  0.2673
 2160SOL     OW 8685   4.297   3.608   3.501 -0.1435  0.0204  0.3540
 2160SOL    HW2 8686   4.286   3.614   3.596  0.2772  0.2283  0.3918
 2160SOL    HW3 8687   4.308   3.698   3.473  0.2348 -0.0838  0.1693
 2160SOL    MW4 8688   4.297   3.620   3.510 -0.0381  0.0341  0.3347
 2161SOL     OW 8689   4.316   3.873   3.416 -0.3121 -0.0449  0.2382
 2161SOL    HW2 8690   4.403   3.908   3.436 -0.6632  0.2014  1.3809
 2161SOL    HW3 8691   4.299   3.902   3.327  0.1462  1.2080  0.5418
 2161SOL    MW4 8692   4.325   3.882   3.407 -0.2980  0.1528  0.4292
 2162SOL     OW 8693   4.074   3.982   3.498  0.6728  0.0647 -0.6761
 2162SOL    HW2 8694   4.141   3.944   3.441  0.1645 -0.2676 -1.0573
 2162SOL    HW3 8695   3.993   3.935   3.475  0.6069 -0.5910  0.8338
 2162SOL    MW4 8696   4.072   3.971   3.487  0.5970 -0.0658 -0.5271
 2163SOL     OW 8697   4.072   4.240   3.390  0.1976 -0.1040  0.5062
 2163SOL    HW2 8698   4.083   4.151   3.423 -0.3369  0.4772  2.3071
 2163SOL    HW3 8699   3.996   4.274   3.436  0.7532  1.4911  0.2828
 2163SOL    MW4 8700   4.064   4.233   3.400  0.2007  0.1831  0.7145
 2164SOL     OW 8701   4.287   4.406   3.509  0.4143  0.4686 -0.5228
 2164SOL    HW2 8702   4.273   4.382   3.601  1.3474  2.5248  0.1767
 2164SOL    HW3 8703   4.220   4.356   3.462  0.0963 -0.8348  1.2281
 2164SOL    MW4 8704   4.276   4.396   3.515  0.4954  0.5674 -0.1996
 2165SOL     OW 8705   0.697   0.006   3.876  0.0488  0.1501  0.0840
 2165SOL    HW2 8706   0.701  -0.005   3.971 -1.9147 -0.4065  0.1189
 2165SOL    HW3 8707   0.667  -0.079   3.843 -1.5667  1.0597 -0.8331
 2165SOL    MW4 8708   0.693  -0.007   3.884 -0.4234  0.1969 -0.0322
 2166SOL     OW 8709   1.184   2.638   4.549 -0.1012 -0.2466 -0.0249
 2166SOL    HW2 8710   1.172   2.640   4.454 -1.6567  2.2132  0.1732
 2166SOL    HW3 8711   1.122   2.573   4.580  0.2047 -0.8465 -0.6535
 2166SOL    MW4 8712   1.174   2.630   4.540 -0.2661 -0.0010 -0.0820
 2167SOL     OW 8713   0.037   0.368   3.861 -0.5051  0.1320  0.6456
 2167SOL    HW2 8714   0.119   0.412   3.836 -0.6626  0.1234  0.1039
 2167SOL    HW3 8715   0.024   0.392   3.953  0.5597 -0.5686  0.9970
 2167SOL    MW4 8716   0.046   0.377   3.870 -0.3854  0.0385  0.6204
 2168SOL     OW 8717   0.242   0.526   3.778  0.2815  0.2790 -0.2649
 2168SOL    HW2 8718   0.319   0.479   3.809 -0.0359  0.3665  0.6608
 2168SOL    HW3 8719   0.250   0.525   3.682  1.2451 -0.0145 -0.1830
 2168SOL    MW4 8720   0.253   0.520   3.769  0.3667  0.2518 -0.1323
 2169SOL     OW 8721   0.011   0.882   3.768 -0.2360 -0.4852 -0.1671
 2169SOL    HW2 8722  -0.049   0.822   3.814  0.9606 -1.6025 -0.0228
 2169SOL    HW3 8723   0.095   0.871   3.813  0.0563  1.1673 -0.2731
 2169SOL    MW4 8724   0.014   0.873   3.780 -0.0396 -0.4146 -0.1619
 2170SOL     OW 8725   0.233   0.769   3.925  0.0398 -0.1704 -0.4180
 2170SOL    HW2 8726   0.209   0.683   3.890  0.8293 -0.2816 -0.6796
 2170SOL    HW3 8727   0.239   0.756   4.020 -0.0414 -0.3550 -0.4394
 2170SOL    MW4 8728   0.230   0.756   3.933  0.1333 -0.2095 -0.4551
 2171SOL     OW 8729   0.890   4.294   4.159 -0.4476 -0.0214 -0.1943
 2171SOL    HW2 8730   0.864   4.319   4.070  0.6439  0.6621 -0.3234
 2171SOL    HW3 8731   0.893   4.376   4.208 -1.7438 -0.4624  0.6812
 2171SOL    MW4 8732   0.887   4.308   4.154 -0.4746  0.0110 -0.0963
 2172SOL     OW 8733   0.470   1.129   3.383 -0.0633  0.6107  0.1093
 2172SOL    HW2 8734   0.488   1.144   3.290 -0.9514  0.9680 -0.0114
 2172SOL    HW3 8735   0.541   1.173   3.429 -0.6976  2.1263 -0.3458
 2172SOL    MW4 8736   0.481   1.137   3.376 -0.2642  0.8578  0.0331
 2173SOL     OW 8737   0.907   0.588   4.507 -0.1165  0.0331  0.1009
 2173SOL    HW2 8738   0.872   0.499   4.507 -0.0391  0.0014 -0.3321
 2173SOL    HW3 8739   1.002   0.577   4.512 -0.0712  0.0748 -0.7100
 2173SOL    MW4 8740   0.915   0.575   4.508 -0.1004  0.0344 -0.0634
 2174SOL     OW 8741   1.369   1.856   4.144  0.1049  0.2568 -0.3555
 2174SOL    HW2 8742   1.293   1.817   4.186  0.0596  0.4425 -0.2636
 2174SOL    HW3 8743   1.445   1.812   4.182  0.1106  1.1249  0.6537
 2174SOL    MW4 8744   1.369   1.845   4.154  0.0997  0.3958 -0.2098
 2175SOL     OW 8745   2.704   1.147   3.817 -0.2249  0.3287 -0.3451
 2175SOL    HW2 8746   2.717   1.158   3.911  1.6039 -1.5136 -0.3493
 2175SOL    HW3 8747   2.784   1.181   3.777 -1.0572  1.2491 -1.2683
 2175SOL    MW4 8748   2.716   1.153   3.824 -0.0935  0.2072 -0.4675
 2176SOL     OW 8749   2.492   1.543   3.867 -0.6157 -0.0555 -0.8019
 2176SOL    HW2 8750   2.476   1.468   3.810 -1.9395  0.3665 -1.0051
 2176SOL    HW3 8751   2.569   1.586   3.829  0.0828 -1.2442 -0.7418
 2176SOL    MW4 8752   2.500   1.539   3.855 -0.6981 -0.1566 -0.8206
 2177SOL     OW 8753   2.235   4.250   3.877 -0.1117  0.1791 -0.6196
 2177SOL    HW2 8754   2.229   4.249   3.973 -1.2477 -0.1937 -0.6854
 2177SOL    HW3 8755   2.226   4.158   3.852  1.0995  0.1671 -1.0475
 2177SOL    MW4 8756   2.233   4.238   3.887 -0.1018  0.1283 -0.6847
 2178SOL     OW 8757   0.893   1.828   4.840  0.1864 -0.6260  0.5499
 2178SOL    HW2 8758   0.812   1.879   4.840  0.9737  0.6832 -2.3931
 2178SOL    HW3 8759   0.876   1.756   4.778  1.3933 -0.1345 -0.3631
 2178SOL    MW4 8760   0.880   1.825   4.832  0.4495 -0.3884  0.0415
 2179SOL     OW 8761   0.726   2.299   3.908 -0.2932 -0.9284 -0.3341
 2179SOL    HW2 8762   0.703   2.293   4.000  1.4899  1.5952  0.3609
 2179SOL    HW3 8763   0.652   2.344   3.867 -0.2625 -0.3500  0.2415
 2179SOL    MW4 8764   0.713   2.304   3.914 -0.0539 -0.5190 -0.1664
 2180SOL     OW 8765   4.267   2.769   3.758  0.0986  0.0111  0.0115
 2180SOL    HW2 8766   4.265   2.856   3.798 -0.3534  0.4582 -0.9473
 2180SOL    HW3 8767   4.184   2.729   3.783  0.5026 -0.3133  0.8243
 2180SOL    MW4 8768   4.256   2.775   3.766  0.0925  0.0272 -0.0076
 2181SOL     OW 8769   0.455   3.221   3.825  0.1531 -0.4449  0.6946
 2181SOL    HW2 8770   0.531   3.169   3.851  0.0652 -1.2234 -0.5498
 2181SOL    HW3 8771   0.380   3.163   3.839  0.0954 -0.8684 -1.1307
 2181SOL    MW4 8772   0.455   3.207   3.830  0.1339 -0.6037  0.2894
 2182SOL     OW 8773   3.771   0.988   4.234  0.1123 -0.0215 -0.1376
 2182SOL    HW2 8774   3.712   1.030   4.171  0.6359 -0.1634 -0.7279
 2182SOL    HW3 8775   3.782   0.898   4.200  0.2517 -0.1515  0.2511
 2182SOL    MW4 8776   3.765   0.981   4.221  0.1998 -0.0573 -0.1640
 2183SOL     OW 8777   0.210   4.225   4.700  0.4574 -0.0387  0.1153
 2183SOL    HW2 8778   0.300   4.214   4.669  0.3597 -0.5191  0.0014
 2183SOL    HW3 8779   0.164   4.147   4.670  0.0611  0.0836  0.3924
 2183SOL    MW4 8780   0.216   4.213   4.692  0.3923 -0.0858  0.1373
 2184SOL     OW 8781   2.816   1.290   4.443  0.5656  0.3145  0.1042
 2184SOL    HW2 8782   2.722   1.281   4.460  0.5317  0.4718  0.0029
 2184SOL    HW3 8783   2.850   1.200   4.449  0.1939  0.0801 -1.1212
 2184SOL    MW4 8784   2.808   1.277   4.446  0.5119  0.3043 -0.0706
 2185SOL     OW 8785   1.323   0.856   3.751 -0.1669  0.3335 -0.0069
 2185SOL    HW2 8786   1.253   0.809   3.795  0.3051  0.2311  0.6391
 2185SOL    HW3 8787   1.404   0.814   3.781  0.2251  1.1216  0.0716
 2185SOL    MW4 8788   1.325   0.844   3.761 -0.0529  0.4240  0.0887
 2186SOL     OW 8789   0.046   4.038   3.769  0.1198  0.1443  0.7350
 2186SOL    HW2 8790  -0.029   3.982   3.786 -0.6669  1.1751  0.7012
 2186SOL    HW3 8791   0.021   4.123   3.805  0.3207  1.1106 -1.3326
 2186SOL    MW4 8792   0.033   4.042   3.776  0.0425  0.4082  0.4578
 2187SOL     OW 8793   0.667   3.840   3.854  0.0213 -0.1091 -0.6306
 2187SOL    HW2 8794   0.593   3.896   3.831  0.7162  0.8619 -0.5218
 2187SOL    HW3 8795   0.674   3.847   3.949  0.3319 -0.1022 -0.6535
 2187SOL    MW4 8796   0.658   3.848   3.863  0.1540  0.0196 -0.6194
 2188SOL     OW 8797   0.462   0.158   3.786 -0.3357 -0.2065 -0.1942
 2188SOL    HW2 8798   0.395   0.120   3.842 -1.1845 -0.6003 -1.4747
 2188SOL    HW3 8799   0.544   0.118   3.816 -0.7050  0.0442  1.1607
 2188SOL    MW4 8800   0.464   0.148   3.797 -0.4964 -0.2254 -0.1843
 2189SOL     OW 8801   0.678   0.492   3.436 -0.0666 -0.0826 -0.0706
 2189SOL    HW2 8802   0.752   0.443   3.400  0.0118  0.4597 -0.6689
 2189SOL    HW3 8803   0.693   0.491   3.531  1.0523  0.5364 -0.2207
 2189SOL    MW4 8804   0.690   0.486   3.444  0.0914  0.0707 -0.1693
 2190SOL     OW 8805   0.929   0.091   3.780  0.2016 -0.8677  0.2192
 2190SOL    HW2 8806   1.001   0.038   3.814 -0.4077 -2.0686 -0.3553
 2190SOL    HW3 8807   0.849   0.046   3.808 -0.3601  0.6228  1.1317
 2190SOL    MW4 8808   0.928   0.078   3.788  0.0471 -0.8295  0.2639
 2191SOL     OW 8809   0.699   0.445   3.709 -0.3729 -0.1739  0.1579
 2191SOL    HW2 8810   0.780   0.414   3.751  0.4098 -0.0245 -1.2015
 2191SOL    HW3 8811   0.633   0.439   3.777  0.5137 -1.5539  0.9143
 2191SOL    MW4 8812   0.701   0.440   3.723 -0.1526 -0.3363  0.0782
 2192SOL     OW 8813   0.910   0.366   3.337  0.0687 -0.1604 -0.5345
 2192SOL    HW2 8814   0.981   0.416   3.378  0.5408 -0.2357 -1.2436
 2192SOL    HW3 8815   0.900   0.289   3.392 -1.3798  1.2030  1.1676
 2192SOL    MW4 8816   0.918   0.363   3.350 -0.0601  0.0095 -0.4034
 2193SOL     OW 8817   3.829   3.426   4.550 -0.1965 -0.4541 -0.3992
 2193SOL    HW2 8818   3.772   3.352   4.569 -1.7536  1.2191  1.7466
 2193SOL    HW3 8819   3.772   3.503   4.556  1.7441  1.0531 -0.7013
 2193SOL    MW4 8820   3.814   3.426   4.554 -0.1459 -0.0346 -0.1569
 2194SOL     OW 8821   0.567   3.639   4.497 -0.5091 -0.1719 -0.0911
 2194SOL    HW2 8822   0.628   3.707   4.527  0.0422 -1.4599  1.7819
 2194SOL    HW3 8823   0.540   3.668   4.410  3.2459  0.1127 -1.2350
 2194SOL    MW4 8824   0.572   3.652   4.490  0.0591 -0.3042  0.0048
 2195SOL     OW 8825   0.235   1.508   3.416 -0.1424 -0.0627 -0.0756
 2195SOL    HW2 8826   0.307   1.558   3.455 -1.3795  0.2562  1.9055
 2195SOL    HW3 8827   0.243   1.522   3.322  1.2237  1.5612  0.2651
 2195SOL    MW4 8828   0.245   1.516   3.409 -0.1253  0.1936  0.2308
 2196SOL     OW 8829   0.239   1.272   3.800  0.1327  0.0138 -0.0673
 2196SOL    HW2 8830   0.256   1.286   3.706 -2.0576 -0.4020 -0.5426
 2196SOL    HW3 8831   0.148   1.242   3.804  0.0963  0.3533  2.2380
 2196SOL    MW4 8832   0.229   1.270   3.788 -0.1611  0.0037  0.1738
 2197SOL     OW 8833   3.378   3.281   4.258  0.3856  0.0446 -0.1842
 2197SOL    HW2 8834   3.441   3.341   4.217  0.0792  0.6728  0.2474
 2197SOL    HW3 8835   3.400   3.284   4.351  0.6204 -0.8260 -0.2144
 2197SOL    MW4 8836   3.389   3.290   4.265  0.3762  0.0124 -0.1311
 2198SOL     OW 8837   0.447   1.651   3.527  0.0304 -0.0277  0.0621
 2198SOL    HW2 8838   0.454   1.657   3.622 -0.5726 -0.0282  0.1067
 2198SOL    HW3 8839   0.465   1.739   3.496 -0.0335  0.0305  0.1918
 2198SOL    MW4 8840   0.450   1.663   3.535 -0.0576 -0.0201  0.0849
 2199SOL     OW 8841   4.078   3.508   4.663 -0.2962  0.3062  0.3708
 2199SOL    HW2 8842   4.154   3.468   4.621 -0.3418  1.4705 -0.8297
 2199SOL    HW3 8843   4.002   3.469   4.619 -0.4327 -0.8676  1.5775
 2199SOL    MW4 8844   4.078   3.497   4.652 -0.3209  0.3047  0.3715
 2200SOL     OW 8845   0.962   4.115   4.539 -0.7020  0.3364 -0.3330
 2200SOL    HW2 8846   1.001   4.119   4.451 -1.6010 -0.9176 -0.7906
 2200SOL    HW3 8847   0.871   4.091   4.524 -0.6688 -0.6698  0.9956
 2200SOL    MW4 8848   0.955   4.113   4.525 -0.8162  0.0381 -0.2179
 2201SOL     OW 8849   2.351   4.605   4.615  0.1913 -0.1852  0.0264
 2201SOL    HW2 8850   2.445   4.604   4.629  0.3102 -1.0193 -0.8168
 2201SOL    HW3 8851   2.327   4.513   4.604 -0.8147 -0.0320  0.8407
 2201SOL    MW4 8852   2.360   4.593   4.615  0.0744 -0.2751  0.0224
 2202SOL     OW 8853   3.159   1.630   4.641  0.0289 -0.4516 -0.0022
 2202SOL    HW2 8854   3.126   1.554   4.592 -0.6661 -1.1830  1.5799
 2202SOL    HW3 8855   3.129   1.616   4.730  1.3735  0.8355  0.6691
 2202SOL    MW4 8856   3.150   1.618   4.646  0.1147 -0.3783  0.2952
 2203SOL     OW 8857   0.462   2.689   3.905 -0.1551  0.2865 -0.2916
 2203SOL    HW2 8858   0.528   2.735   3.853 -0.4248  1.2755  0.2210
 2203SOL    HW3 8859   0.380   2.737   3.888 -0.3660  0.2308  0.5560
 2203SOL    MW4 8860   0.460   2.701   3.896 -0.2185  0.4094 -0.1123
 2204SOL     OW 8861   1.325   2.738   3.885  0.2875 -0.0982  0.3854
 2204SOL    HW2 8862   1.401   2.772   3.837  1.7713  0.1223  2.8281
 2204SOL    HW3 8863   1.324   2.644   3.865  0.4038  0.1209 -0.6995
 2204SOL    MW4 8864   1.335   2.730   3.876  0.4987 -0.0403  0.5643
 2205SOL     OW 8865   1.071   1.009   4.297 -0.0175 -0.2549 -0.1609
 2205SOL    HW2 8866   1.139   1.057   4.249 -0.2079  0.3105  0.1260
 2205SOL    HW3 8867   1.051   0.934   4.242  0.9642 -0.5188 -0.1715
 2205SOL    MW4 8868   1.077   1.005   4.284  0.0868 -0.2151 -0.1249
 2206SOL     OW 8869   1.157   1.939   4.871  0.0480 -0.6258  0.3260
 2206SOL    HW2 8870   1.215   1.868   4.843 -0.0923 -0.4280 -0.4788
 2206SOL    HW3 8871   1.072   1.897   4.885 -0.2681 -0.4705 -1.0418
 2206SOL    MW4 8872   1.153   1.924   4.869 -0.0123 -0.5792  0.0396
 2207SOL     OW 8873   1.793   3.475   4.175 -0.2497 -0.1595  0.1040
 2207SOL    HW2 8874   1.712   3.451   4.220  0.2676 -0.9385  0.6439
 2207SOL    HW3 8875   1.863   3.439   4.231  0.4572  0.3039 -0.4684
 2207SOL    MW4 8876   1.792   3.467   4.188 -0.0882 -0.2010  0.0997
 2208SOL     OW 8877   1.083   4.571   4.502 -0.3878 -0.1417  0.1791
 2208SOL    HW2 8878   1.039   4.503   4.554 -0.4941 -1.6606 -1.8424
 2208SOL    HW3 8879   1.176   4.557   4.519 -0.4615 -0.0267  0.6891
 2208SOL    MW4 8880   1.089   4.560   4.511 -0.4114 -0.3271 -0.0205
 2209SOL     OW 8881   0.880   4.290   3.882 -0.2052 -0.0005  0.1690
 2209SOL    HW2 8882   0.960   4.320   3.838 -0.1324 -0.6169 -0.1343
 2209SOL    HW3 8883   0.811   4.345   3.845  0.1114  0.6813  0.5931
 2209SOL    MW4 8884   0.881   4.301   3.871 -0.1538  0.0081  0.1848
 2210SOL     OW 8885   0.207   3.621   3.790 -0.2974  0.0179  0.2061
 2210SOL    HW2 8886   0.139   3.564   3.826  0.0038 -0.1521  0.4993
 2210SOL    HW3 8887   0.289   3.573   3.803 -0.0091  0.6495  0.7284
 2210SOL    MW4 8888   0.209   3.607   3.796 -0.2196  0.0787  0.3140
 2211SOL     OW 8889   2.879   1.997   3.760  0.4037  0.2969 -0.2552
 2211SOL    HW2 8890   2.887   2.078   3.810 -0.0185  0.7654 -0.9429
 2211SOL    HW3 8891   2.789   1.968   3.775  0.1365  0.6775 -1.0998
 2211SOL    MW4 8892   2.869   2.004   3.768  0.3128  0.4091 -0.4570
 2212SOL     OW 8893   0.663   1.258   3.825 -0.6920 -0.6598  0.2377
 2212SOL    HW2 8894   0.659   1.254   3.730 -1.0370 -0.6568  0.2513
 2212SOL    HW3 8895   0.754   1.236   3.847 -0.4025  0.1313 -0.1354
 2212SOL    MW4 8896   0.675   1.255   3.816 -0.6993 -0.5550  0.1903
 2213SOL     OW 8897   4.483   1.395   4.476 -0.1969 -0.0011  0.4832
 2213SOL    HW2 8898   4.467   1.310   4.517  0.3825 -1.2891 -1.8415
 2213SOL    HW3 8899   4.573   1.416   4.500  0.0622 -0.6420  0.0993
 2213SOL    MW4 8900   4.493   1.386   4.484 -0.0863 -0.2556  0.1254
 2214SOL     OW 8901   2.026   0.724   3.400  0.0371  0.1277 -0.1972
 2214SOL    HW2 8902   2.013   0.740   3.306  0.0791 -0.2589 -0.2691
 2214SOL    HW3 8903   2.086   0.793   3.428  1.1173 -0.5703 -0.7554
 2214SOL    MW4 8904   2.033   0.735   3.391  0.1855 -0.0154 -0.2804
 2215SOL     OW 8905   0.878   1.640   3.522  0.2936 -0.0181  0.1606
 2215SOL    HW2 8906   0.961   1.602   3.494  0.0971  0.2272 -0.7477
 2215SOL    HW3 8907   0.881   1.636   3.618  0.8997 -0.9749  0.1019
 2215SOL    MW4 8908   0.889   1.634   3.531  0.3476 -0.1118  0.0331
 2216SOL     OW 8909   1.565   0.486   3.468 -0.0832  0.3665  0.0066
 2216SOL    HW2 8910   1.530   0.479   3.557  1.6325 -2.0815  0.5652
 2216SOL    HW3 8911   1.651   0.445   3.474 -0.2388 -0.4902 -2.9497
 2216SOL    MW4 8912   1.572   0.479   3.481  0.1227 -0.0695 -0.3097
 2217SOL     OW 8913   0.903   3.761   4.292  0.1243  0.0444  0.3099
 2217SOL    HW2 8914   0.973   3.819   4.261  0.5242 -0.3578  0.4769
 2217SOL    HW3 8915   0.828   3.783   4.235  0.5251  0.1206 -0.1891
 2217SOL    MW4 8916   0.902   3.772   4.280  0.2299  0.0012  0.2661
 2218SOL     OW 8917   1.089   2.816   3.784  0.2299 -0.3415 -0.6205
 2218SOL    HW2 8918   1.176   2.798   3.819  0.5079  0.9053 -0.6467
 2218SOL    HW3 8919   1.033   2.748   3.822  1.2079 -1.1670 -0.6302
 2218SOL    MW4 8920   1.093   2.805   3.793  0.3957 -0.2861 -0.6256
 2219SOL     OW 8921   1.125   2.047   4.608  0.3943 -0.3224 -0.0824
 2219SOL    HW2 8922   1.117   2.028   4.702  1.0252 -0.8030 -0.1213
 2219SOL    HW3 8923   1.061   2.116   4.592 -0.9465 -1.4457  0.3570
 2219SOL    MW4 8924   1.116   2.054   4.619  0.3005 -0.5341 -0.0296
 2220SOL     OW 8925   2.926   3.652   4.649  0.3324 -0.2801 -0.1307
 2220SOL    HW2 8926   2.836   3.685   4.642  0.0315 -0.9019  0.7517
 2220SOL    HW3 8927   2.923   3.566   4.606  0.4460 -0.4236  0.1519
 2220SOL    MW4 8928   2.914   3.645   4.642  0.3076 -0.3812  0.0229
 2221SOL     OW 8929   3.314   0.697   4.117  0.1438 -0.6081 -0.2561
 2221SOL    HW2 8930   3.236   0.650   4.149 -0.4926 -0.6022 -1.7374
 2221SOL    HW3 8931   3.300   0.787   4.144 -1.2348 -0.2665 -1.9955
 2221SOL    MW4 8932   3.302   0.702   4.125 -0.1218 -0.5623 -0.6809
 2222SOL     OW 8933   3.078   4.461   4.498  0.1756 -0.2535 -0.0189
 2222SOL    HW2 8934   3.164   4.467   4.541 -0.8009  1.3674  1.7854
 2222SOL    HW3 8935   3.034   4.389   4.542 -0.2505  0.4109  0.6444
 2222SOL    MW4 8936   3.084   4.453   4.509 -0.0093  0.0482  0.3061
 2223SOL     OW 8937   4.207   2.001   3.777 -0.1492 -0.2531  0.4874
 2223SOL    HW2 8938   4.239   2.088   3.803 -0.8944 -0.0848  0.8698
 2223SOL    HW3 8939   4.221   1.997   3.683 -0.2922  0.3676  0.4362
 2223SOL    MW4 8940   4.213   2.012   3.768 -0.2656 -0.1490  0.5310
 2224SOL     OW 8941   0.879   1.908   3.907 -0.7011  0.1163  0.2248
 2224SOL    HW2 8942   0.881   1.816   3.883 -0.5904  0.1586  0.0665
 2224SOL    HW3 8943   0.943   1.949   3.848  0.9690 -0.0756  1.8605
 2224SOL    MW4 8944   0.888   1.902   3.896 -0.4661  0.0964  0.4196
 2225SOL     OW 8945   4.303   1.579   4.651 -0.0561 -0.2219 -0.0953
 2225SOL    HW2 8946   4.316   1.668   4.616 -2.1365 -0.6156 -2.0001
 2225SOL    HW3 8947   4.373   1.527   4.611  1.2308  0.5667  1.1063
 2225SOL    MW4 8948   4.314   1.584   4.641 -0.1607 -0.1698 -0.1884
 2226SOL     OW 8949   1.747   2.196   4.552  0.7268  0.6018 -0.7280
 2226SOL    HW2 8950   1.729   2.108   4.584 -1.9889  0.7927 -1.6244
 2226SOL    HW3 8951   1.725   2.254   4.625 -1.5159  0.7754 -1.5124
 2226SOL    MW4 8952   1.742   2.192   4.566  0.0728  0.6499 -0.9499
 2227SOL     OW 8953   3.159   1.138   4.080 -0.4263 -0.0461 -0.4038
 2227SOL    HW2 8954   3.088   1.081   4.111 -0.1140  0.3240  1.0576
 2227SOL    HW3 8955   3.146   1.144   3.986 -3.0018  0.8799 -0.0393
 2227SOL    MW4 8956   3.148   1.131   4.072 -0.7248  0.1248 -0.1626
 2228SOL     OW 8957   0.013   0.383   4.133  0.2865 -0.2578 -0.1451
 2228SOL    HW2 8958   0.091   0.345   4.173  0.2295 -0.5780 -0.3351
 2228SOL    HW3 8959  -0.058   0.326   4.160  0.2117 -0.3361 -0.5014
 2228SOL    MW4 8960   0.014   0.371   4.141  0.2691 -0.3104 -0.2170
 2229SOL     OW 8961   1.759   1.938   4.633 -0.2133 -0.1911  0.2981
 2229SOL    HW2 8962   1.779   1.955   4.725 -0.5132  2.3518 -0.0507
 2229SOL    HW3 8963   1.674   1.895   4.634  0.4398 -1.4623  1.2760
 2229SOL    MW4 8964   1.751   1.935   4.645 -0.1667 -0.0234  0.3810
 2230SOL     OW 8965   3.739   2.972   4.407 -0.0110  0.3606 -0.1544
 2230SOL    HW2 8966   3.800   2.913   4.452 -1.8827 -0.0687  1.9044
 2230SOL    HW3 8967   3.670   2.914   4.374  0.6470  0.8424 -2.4650
 2230SOL    MW4 8968   3.738   2.956   4.409 -0.1712  0.3672 -0.1879
 2231SOL     OW 8969   0.631   3.607   3.722 -0.1264  0.1981 -0.5389
 2231SOL    HW2 8970   0.658   3.620   3.631  0.5833 -1.2526 -0.5482
 2231SOL    HW3 8971   0.639   3.694   3.761  1.1136  0.5272 -1.4651
 2231SOL    MW4 8972   0.636   3.620   3.715  0.1308  0.0503 -0.6623
 2232SOL     OW 8973   2.473   1.940   4.874  0.2530  0.5339  0.1476
 2232SOL    HW2 8974   2.416   1.924   4.949 -0.4246 -0.3977 -0.5625
 2232SOL    HW3 8975   2.473   2.035   4.863  0.6108  0.6978  1.5285
 2232SOL    MW4 8976   2.466   1.950   4.882  0.2108  0.4326  0.2365
 2233SOL     OW 8977   1.427   1.353   4.518  0.9231 -0.2241 -0.4234
 2233SOL    HW2 8978   1.496   1.383   4.577  1.4320 -1.0846 -0.5890
 2233SOL    HW3 8979   1.349   1.347   4.574  0.5379  2.4191 -0.5922
 2233SOL    MW4 8980   1.426   1.356   4.534  0.9395  0.0110 -0.4673
 2234SOL     OW 8981   3.213   3.486   4.621  0.1819  0.3105 -0.1471
 2234SOL    HW2 8982   3.132   3.438   4.603  0.2747 -0.0631  0.4248
 2234SOL    HW3 8983   3.188   3.578   4.611 -0.0560  0.1639 -1.0005
 2234SOL    MW4 8984   3.199   3.492   4.617  0.1626  0.2418 -0.1841
 2235SOL     OW 8985   0.412   1.106   4.201 -0.2974 -0.1182  0.3348
 2235SOL    HW2 8986   0.409   1.110   4.105 -1.0858 -1.3758  0.3064
 2235SOL    HW3 8987   0.497   1.068   4.221 -0.4396 -0.5602  0.1068
 2235SOL    MW4 8988   0.423   1.102   4.191 -0.4202 -0.3424  0.3014
 2236SOL     OW 8989   0.883   3.507   4.148  0.1559  0.1418  0.1532
 2236SOL    HW2 8990   0.864   3.538   4.060 -2.9056  1.6442  1.2618
 2236SOL    HW3 8991   0.902   3.586   4.199  0.2678 -0.5415  1.1949
 2236SOL    MW4 8992   0.883   3.521   4.143 -0.2333  0.2501  0.4363
 2237SOL     OW 8993   3.610   4.500   4.176  0.3309 -0.0340 -0.3268
 2237SOL    HW2 8994   3.541   4.563   4.156  0.8172  1.2035  1.8331
 2237SOL    HW3 8995   3.691   4.546   4.154  0.6608 -0.0589  0.8234
 2237SOL    MW4 8996   3.612   4.514   4.170  0.4387  0.1264  0.1101
 2238SOL     OW 8997   1.336   0.314   3.887  0.1693 -0.4265 -0.0802
 2238SOL    HW2 8998   1.416   0.350   3.850  0.5635  0.2011  1.3790
 2238SOL    HW3 8999   1.266   0.356   3.837  0.7300 -0.9056 -1.2956
 2238SOL    MW4 9000   1.337   0.324   3.875  0.2953 -0.4069 -0.0479
 2239SOL     OW 9001   3.736   2.272   4.358  0.3817  0.7123 -0.0248
 2239SOL    HW2 9002   3.680   2.195   4.346  0.3892  0.5007  1.2169
 2239SOL    HW3 9003   3.825   2.238   4.352  0.3977  0.4442  1.4313
 2239SOL    MW4 9004   3.740   2.257   4.356  0.3846  0.6490  0.3314
 2240SOL     OW 9005   0.482   4.538   4.256 -0.4846  0.7393 -0.3507
 2240SOL    HW2 9006   0.404   4.588   4.234 -0.2076  1.4072  0.1745
 2240SOL    HW3 9007   0.458   4.490   4.336 -0.4573  0.7027 -0.3643
 2240SOL    MW4 9008   0.468   4.538   4.264 -0.4445  0.8225 -0.2832
 2241SOL     OW 9009   4.062   1.947   4.212  0.0959  0.5770  0.2960
 2241SOL    HW2 9010   3.993   1.909   4.266  1.1607 -0.2273  1.1088
 2241SOL    HW3 9011   4.071   2.037   4.243 -1.2736  1.0024 -0.4985
 2241SOL    MW4 9012   4.054   1.954   4.223  0.0553  0.5270  0.2985
 2242SOL     OW 9013   3.549   0.765   4.646 -0.1757  0.2841 -0.9266
 2242SOL    HW2 9014   3.601   0.836   4.610  1.0448  0.2658  0.7609
 2242SOL    HW3 9015   3.608   0.720   4.707 -1.7855 -0.4619  0.1187
 2242SOL    MW4 9016   3.564   0.768   4.649 -0.2267  0.1832 -0.5655
 2243SOL     OW 9017   2.288   1.354   4.296  0.0130  0.0051  0.2252
 2243SOL    HW2 9018   2.311   1.350   4.389 -1.0045 -0.3744  0.4667
 2243SOL    HW3 9019   2.350   1.417   4.259  0.8823 -0.3708  1.0182
 2243SOL    MW4 9020   2.299   1.362   4.304 -0.0067 -0.0945  0.3614
 2244SOL     OW 9021   0.699   0.265   4.258  0.0809 -0.5490 -0.1251
 2244SOL    HW2 9022   0.757   0.306   4.194  0.0824  0.2611  0.3912
 2244SOL    HW3 9023   0.610   0.288   4.228  0.0900  0.1387  0.3578
 2244SOL    MW4 9024   0.695   0.273   4.245  0.0823 -0.3514  0.0072
 2245SOL     OW 9025   0.002   1.928   3.862 -0.1522  0.0374 -0.4994
 2245SOL    HW2 9026  -0.013   1.926   3.956 -0.6697  1.2656 -0.5398
 2245SOL    HW3 9027  -0.084   1.949   3.825 -0.2102 -1.6319 -1.3181
 2245SOL    MW4 9028  -0.012   1.931   3.869 -0.2282 -0.0210 -0.6127
 2246SOL     OW 9029   0.944   2.893   4.272  0.2443  0.6348 -0.0751
 2246SOL    HW2 9030   0.980   2.888   4.361  2.3513  1.8359 -0.8264
 2246SOL    HW3 9031   0.993   2.964   4.230 -0.9078  0.2643 -2.1087
 2246SOL    MW4 9032   0.955   2.902   4.278  0.3703  0.7446 -0.4425
 2247SOL     OW 9033   4.058   1.399   4.240 -0.1032  0.0701 -0.4092
 2247SOL    HW2 9034   4.085   1.386   4.331 -0.7838  0.5661 -0.1359
 2247SOL    HW3 9035   4.135   1.438   4.198  0.2563 -0.2774 -0.0809
 2247SOL    MW4 9036   4.072   1.402   4.246 -0.1454  0.0898 -0.3300
 2248SOL     OW 9037   4.244   2.562   4.220 -0.3988  0.4814 -0.3320
 2248SOL    HW2 9038   4.168   2.617   4.200 -1.1036 -0.3827 -0.0755
 2248SOL    HW3 9039   4.223   2.477   4.181 -0.0055 -0.0487  0.5861
 2248SOL    MW4 9040   4.231   2.558   4.212 -0.4401  0.2973 -0.1774
 2249SOL     OW 9041   2.341   0.735   4.550 -0.4995 -0.2809 -0.3206
 2249SOL    HW2 9042   2.287   0.813   4.543  1.8919  1.5103  0.4333
 2249SOL    HW3 9043   2.303   0.685   4.622 -1.7899  0.3826 -0.5341
 2249SOL    MW4 9044   2.329   0.739   4.559 -0.3543  0.0430 -0.2489
 2250SOL     OW 9045   0.967   2.353   3.789 -0.3548 -0.5465  0.1963
 2250SOL    HW2 9046   0.894   2.321   3.842 -0.1080  0.3656  1.1060
 2250SOL    HW3 9047   1.042   2.301   3.818 -0.4310 -0.7724 -0.0084
 2250SOL    MW4 9048   0.967   2.342   3.800 -0.3323 -0.4561  0.2892
 2251SOL     OW 9049   1.565   2.836   3.785 -0.3669  0.3217 -0.3893
 2251SOL    HW2 9050   1.645   2.799   3.821 -0.4936  0.0524 -0.3860
 2251SOL    HW3 9051   1.565   2.809   3.693 -1.0438 -0.6680 -0.1030
 2251SOL    MW4 9052   1.575   2.828   3.777 -0.4729  0.1557 -0.3510
 2252SOL     OW 9053   3.511   2.828   4.295  0.5074  0.1733 -0.2652
 2252SOL    HW2 9054   3.469   2.786   4.370 -1.6681  0.4408 -1.3180
 2252SOL    HW3 9055   3.539   2.755   4.239 -0.3758  0.0242 -0.5243
 2252SOL    MW4 9056   3.509   2.813   4.297  0.1035  0.1888 -0.4382
 2253SOL     OW 9057   0.847   1.620   4.662  0.0873 -0.1344  0.0415
 2253SOL    HW2 9058   0.751   1.611   4.662  0.1182 -0.5734  0.7723
 2253SOL    HW3 9059   0.879   1.532   4.643  0.3403  0.2997 -1.5851
 2253SOL    MW4 9060   0.838   1.607   4.660  0.1248 -0.1351 -0.0768
 2254SOL     OW 9061   1.790   2.016   4.896 -0.1860 -0.0278 -0.1258
 2254SOL    HW2 9062   1.874   2.044   4.932  1.2608  0.5365 -3.7203
 2254SOL    HW3 9063   1.734   2.094   4.902  1.3227  1.3415 -2.6957
 2254SOL    MW4 9064   1.794   2.030   4.901  0.2040  0.2275 -0.9394
 2255SOL     OW 9065   2.485   3.019   4.771 -0.4762 -0.0094 -0.1894
 2255SOL    HW2 9066   2.401   3.063   4.784 -1.0364 -1.4805  1.3154
 2255SOL    HW3 9067   2.463   2.938   4.724  0.1157 -0.3008  0.0329
 2255SOL    MW4 9068   2.471   3.014   4.766 -0.4721 -0.2420  0.0381
 2256SOL     OW 9069   1.088   3.893   3.882 -0.2013  0.1913 -0.2122
 2256SOL    HW2 9070   1.164   3.928   3.835 -1.5184  3.6674  0.0551
 2256SOL    HW3 9071   1.018   3.956   3.863 -2.2635 -1.4107  1.8281
 2256SOL    MW4 9072   1.089   3.906   3.873 -0.6472  0.4387  0.0923
 2257SOL     OW 9073   2.254   0.876   3.790  0.1043 -0.1280  0.4451
 2257SOL    HW2 9074   2.183   0.829   3.834  0.9660  0.3446  2.4284
 2257SOL    HW3 9075   2.333   0.829   3.817  0.6446  0.0136 -0.8537
 2257SOL    MW4 9076   2.255   0.863   3.800  0.2894 -0.0470  0.5355
 2258SOL     OW 9077   2.428   3.833   4.185  0.0529 -0.2366  0.1874
 2258SOL    HW2 9078   2.505   3.783   4.213  0.6352 -0.0623 -1.0736
 2258SOL    HW3 9079   2.447   3.923   4.211  0.7246 -0.0243 -1.0261
 2258SOL    MW4 9080   2.440   3.838   4.192  0.2184 -0.1855 -0.1392
 2259SOL     OW 9081   1.128   4.373   3.751 -0.2938 -0.2967 -0.5630
 2259SOL    HW2 9082   1.137   4.369   3.656  1.0265 -0.5793 -0.4386
 2259SOL    HW3 9083   1.207   4.330   3.784 -0.8933 -0.4885  0.6609
 2259SOL    MW4 9084   1.140   4.367   3.743 -0.1986 -0.3595 -0.3850
 2260SOL     OW 9085   1.585   4.340   3.747  0.5816 -0.2294 -0.0784
 2260SOL    HW2 9086   1.569   4.336   3.652 -0.4687 -2.6510  0.1549
 2260SOL    HW3 9087   1.501   4.317   3.786  1.1498  0.2480  1.4589
 2260SOL    MW4 9088   1.572   4.337   3.739  0.5180 -0.4864  0.1550
 2261SOL     OW 9089   3.367   0.484   3.748 -0.2962 -0.6335  0.2781
 2261SOL    HW2 9090   3.383   0.568   3.790 -1.1651 -0.9377  1.2149
 2261SOL    HW3 9091   3.442   0.430   3.774  0.5472 -0.0066 -0.7662
 2261SOL    MW4 9092   3.379   0.488   3.757 -0.2997 -0.5910  0.2639
 2262SOL     OW 9093   1.830   0.074   3.524 -0.1484  0.8205 -0.0192
 2262SOL    HW2 9094   1.822   0.068   3.619  0.5687 -0.7973 -0.0545
 2262SOL    HW3 9095   1.752   0.030   3.491  0.3160  0.1408 -0.1995
 2262SOL    MW4 9096   1.818   0.067   3.532  0.0075  0.5174 -0.0474
 2263SOL     OW 9097   4.048   2.465   4.624 -0.1996 -0.4117 -0.0791
 2263SOL    HW2 9098   4.000   2.493   4.701  0.5989  1.3699 -0.2169
 2263SOL    HW3 9099   4.061   2.371   4.637 -0.4522 -0.2040  1.7468
 2263SOL    MW4 9100   4.044   2.456   4.636 -0.1273 -0.1490  0.1435
 2264SOL     OW 9101   2.247   0.365   3.924  0.1543 -0.5161 -0.1124
 2264SOL    HW2 9102   2.241   0.374   4.019  0.2372  1.3031 -0.2710
 2264SOL    HW3 9103   2.335   0.395   3.902  0.6927 -2.3692 -0.6254
 2264SOL    MW4 9104   2.258   0.370   3.934  0.2365 -0.5205 -0.2010
 2265SOL     OW 9105   3.686   3.171   4.605 -0.2181 -0.5829 -0.3614
 2265SOL    HW2 9106   3.692   3.102   4.540 -0.9204 -0.2399 -0.8049
 2265SOL    HW3 9107   3.592   3.192   4.608 -0.1487 -0.4075  0.5554
 2265SOL    MW4 9108   3.674   3.165   4.597 -0.3014 -0.5145 -0.2995
 2266SOL     OW 9109   0.362   1.142   4.564 -0.1415  0.2013  0.0087
 2266SOL    HW2 9110   0.446   1.096   4.568  0.2865  0.9164 -0.8658
 2266SOL    HW3 9111   0.297   1.072   4.568  0.4866 -0.3676  0.5040
 2266SOL    MW4 9112   0.365   1.127   4.565 -0.0021  0.2205 -0.0410
 2267SOL     OW 9113   2.022   0.759   3.893 -0.4093  0.0139 -0.4248
 2267SOL    HW2 9114   2.022   0.746   3.988  0.2261  0.7072 -0.3327
 2267SOL    HW3 9115   2.035   0.671   3.858 -1.2984 -0.3449  0.1096
 2267SOL    MW4 9116   2.024   0.745   3.901 -0.4427  0.0581 -0.3421
 2268SOL     OW 9117   1.270   3.514   4.617  0.1346  0.4003  0.3169
 2268SOL    HW2 9118   1.344   3.460   4.589  0.0584  1.1893 -1.5405
 2268SOL    HW3 9119   1.294   3.602   4.588 -2.0800  0.4521 -1.4720
 2268SOL    MW4 9120   1.283   3.518   4.609 -0.1676  0.5112 -0.1640
 2269SOL     OW 9121   1.114   1.509   3.891  0.4622  0.4036  0.1214
 2269SOL    HW2 9122   1.107   1.489   3.984 -1.0902 -1.7316 -0.4100
 2269SOL    HW3 9123   1.203   1.543   3.881  1.2485 -0.9584  2.1040
 2269SOL    MW4 9124   1.125   1.511   3.902  0.3610 -0.0577  0.3130
 2270SOL     OW 9125   2.977   1.780   4.228 -0.0055 -0.1832 -0.2194
 2270SOL    HW2 9126   3.039   1.833   4.178 -0.0411  1.4839  1.4138
 2270SOL    HW3 9127   2.892   1.801   4.190  0.0729  0.2669 -0.1545
 2270SOL    MW4 9128   2.974   1.790   4.216  0.0000  0.0961  0.0048
 2271SOL     OW 9129   2.021   2.327   3.872 -0.0603 -0.1968 -0.3425
 2271SOL    HW2 9130   2.100   2.356   3.826 -1.1455 -0.4295 -2.4003
 2271SOL    HW3 9131   2.000   2.241   3.833 -1.3725 -0.0945  0.1019
 2271SOL    MW4 9132   2.029   2.319   3.861 -0.3767 -0.2143 -0.5553
 2272SOL     OW 9133   2.005   1.986   3.513 -0.5424  0.0901 -0.1822
 2272SOL    HW2 9134   2.008   2.075   3.478 -0.3830 -0.4576 -1.5992
 2272SOL    HW3 9135   1.931   1.945   3.469 -1.8453  0.0940  1.9204
 2272SOL    MW4 9136   1.996   1.993   3.503 -0.6933  0.0182 -0.0916
 2273SOL     OW 9137   2.233   2.427   3.473 -0.1834  0.2079  0.5218
 2273SOL    HW2 9138   2.241   2.520   3.452 -0.1413 -0.0212 -0.5427
 2273SOL    HW3 9139   2.317   2.390   3.445 -0.2229 -0.1537  0.8888
 2273SOL    MW4 9140   2.246   2.435   3.467 -0.1829  0.1299  0.4299
 2274SOL     OW 9141   3.810   3.373   4.264  0.1072  0.0484  0.0043
 2274SOL    HW2 9142   3.805   3.393   4.357 -0.7103  1.4153 -0.3126
 2274SOL    HW3 9143   3.816   3.277   4.260  2.1923  0.0875  1.5040
 2274SOL    MW4 9144   3.810   3.363   4.276  0.2744  0.2337  0.1597
 2275SOL     OW 9145   4.120   2.193   4.609 -0.2063  0.2539  0.1570
 2275SOL    HW2 9146   4.099   2.105   4.638 -0.7000 -0.2925 -1.7669
 2275SOL    HW3 9147   4.216   2.194   4.602 -0.2747 -0.6301 -1.2364
 2275SOL    MW4 9148   4.130   2.182   4.612 -0.2804  0.0653 -0.2809
 2276SOL     OW 9149   4.208   2.300   4.153  0.5339  0.5069  0.0941
 2276SOL    HW2 9150   4.211   2.283   4.059 -0.0461 -2.5187  0.5929
 2276SOL    HW3 9151   4.290   2.266   4.187 -0.3217 -0.6834  1.0146
 2276SOL    MW4 9152   4.219   2.293   4.145  0.3443 -0.0494  0.2813
 2277SOL     OW 9153   0.725   0.719   4.677  0.2759 -0.0750  0.0154
 2277SOL    HW2 9154   0.705   0.807   4.646  0.3012  0.4486  1.4732
 2277SOL    HW3 9155   0.781   0.682   4.608  0.0950  0.9561 -0.7055
 2277SOL    MW4 9156   0.730   0.726   4.664  0.2553  0.1301  0.1125
 2278SOL     OW 9157   1.797   2.691   4.174 -0.1699  0.0717 -0.6210
 2278SOL    HW2 9158   1.724   2.659   4.227 -0.1737 -0.3663 -0.8823
 2278SOL    HW3 9159   1.873   2.644   4.207 -0.1095  0.0790 -0.7477
 2278SOL    MW4 9160   1.797   2.680   4.185 -0.1624  0.0148 -0.6723
 2279SOL     OW 9161   2.061   3.605   3.521  0.5331  0.2974 -0.7107
 2279SOL    HW2 9162   2.121   3.554   3.466  0.0107 -0.0961 -0.9238
 2279SOL    HW3 9163   1.973   3.574   3.496  0.2903  0.1334  0.3335
 2279SOL    MW4 9164   2.057   3.595   3.510  0.4320  0.2241 -0.6013
 2280SOL     OW 9165   2.009   3.579   3.804 -0.2485 -0.6903  0.4403
 2280SOL    HW2 9166   2.025   3.589   3.710  0.1779  1.0647  0.6751
 2280SOL    HW3 9167   2.092   3.549   3.840  0.2555  0.8135  0.5583
 2280SOL    MW4 9168   2.022   3.576   3.797 -0.1259 -0.2604  0.4871
 2281SOL     OW 9169   0.996   2.447   4.617 -0.0311  0.2518 -0.4865
 2281SOL    HW2 9170   0.979   2.365   4.571 -1.1477 -1.0776  2.1812
 2281SOL    HW3 9171   0.913   2.467   4.661  1.4995  0.4408  2.4520
 2281SOL    MW4 9172   0.982   2.439   4.617  0.0235  0.1016  0.2532
 2282SOL     OW 9173   1.871   3.968   3.758 -0.5896 -0.0450 -0.4379
 2282SOL    HW2 9174   1.846   4.050   3.800 -1.4761 -0.8379  0.6050
 2282SOL    HW3 9175   1.936   3.929   3.818 -1.7060 -1.0829  0.1222
 2282SOL    MW4 9176   1.876   3.973   3.772 -0.8539 -0.2866 -0.2263
 2283SOL     OW 9177   0.476   0.588   4.299 -0.3371  0.4540 -0.0684
 2283SOL    HW2 9178   0.502   0.571   4.389 -0.5843  2.1264  0.3301
 2283SOL    HW3 9179   0.556   0.619   4.256  0.7869 -4.0450 -1.4833
 2283SOL    MW4 9180   0.490   0.590   4.305 -0.2214  0.0810 -0.2031
 2284SOL     OW 9181   0.783   0.345   4.518  0.1654 -0.1893  0.1904
 2284SOL    HW2 9182   0.864   0.297   4.535 -0.8460 -1.5898  1.1499
 2284SOL    HW3 9183   0.751   0.308   4.435 -0.3727 -0.8891  0.6954
 2284SOL    MW4 9184   0.789   0.334   4.509 -0.0390 -0.4663  0.3834
 2285SOL     OW 9185   2.058   4.641   3.943 -0.4933 -0.1130  0.2000
 2285SOL    HW2 9186   2.126   4.682   3.889 -1.4875 -0.2500 -1.1745
 2285SOL    HW3 9187   2.046   4.554   3.904 -0.9183 -0.3682  0.9016
 2285SOL    MW4 9188   2.065   4.635   3.930 -0.6804 -0.1645  0.1111
 2286SOL     OW 9189   2.692   1.167   4.093  0.4413  0.1538  0.3661
 2286SOL    HW2 9190   2.609   1.126   4.116  0.9119 -0.0757  1.6999
 2286SOL    HW3 9191   2.689   1.253   4.135  0.5243  0.4987 -0.3126
 2286SOL    MW4 9192   2.681   1.173   4.101  0.5143  0.1689  0.4520
 2287SOL     OW 9193   2.066   0.487   3.529 -0.5484  0.5493  0.2554
 2287SOL    HW2 9194   1.992   0.430   3.510 -1.0197  0.7081  1.5531
 2287SOL    HW3 9195   2.048   0.567   3.480  0.1864 -0.4591 -1.6813
 2287SOL    MW4 9196   2.054   0.490   3.520 -0.5138  0.4372  0.1709
 2288SOL     OW 9197   1.376   3.004   4.253  0.0844  0.4505  0.2672
 2288SOL    HW2 9198   1.459   3.026   4.210  0.5812  0.5371  1.2608
 2288SOL    HW3 9199   1.370   2.909   4.245  0.1255  0.4732 -0.0716
 2288SOL    MW4 9200   1.386   2.994   4.246  0.1553  0.4649  0.3533
 2289SOL     OW 9201   1.548   0.480   3.763 -0.3898  0.4339 -0.2373
 2289SOL    HW2 9202   1.548   0.573   3.788  0.1327  0.5648 -0.7047
 2289SOL    HW3 9203   1.630   0.446   3.798 -0.1318  0.3769 -0.9030
 2289SOL    MW4 9204   1.559   0.488   3.771 -0.2868  0.4437 -0.3870
 2290SOL     OW 9205   4.357   1.120   4.487 -0.1028 -0.0523 -0.3561
 2290SOL    HW2 9206   4.434   1.077   4.525 -1.0440 -0.5516  1.0121
 2290SOL    HW3 9207   4.284   1.064   4.512 -1.1277  1.3617 -0.1332
 2290SOL    MW4 9208   4.358   1.107   4.496 -0.3619  0.0683 -0.1464
 2291SOL     OW 9209   0.913   0.866   3.807  0.4457  0.3095 -0.0679
 2291SOL    HW2 9210   0.915   0.881   3.713  0.6527  1.8853  0.1859
 2291SOL    HW3 9211   0.832   0.816   3.822  0.4143  0.0660 -1.0665
 2291SOL    MW4 9212   0.902   0.861   3.797  0.4689  0.4853 -0.1662
 2292SOL     OW 9213   4.485   2.657   3.893  0.4109  0.0215  0.2881
 2292SOL    HW2 9214   4.402   2.686   3.855  0.3128 -1.3823 -0.6080
 2292SOL    HW3 9215   4.478   2.678   3.986 -0.4067  1.1211 -0.0216
 2292SOL    MW4 9216   4.473   2.664   3.900  0.2901 -0.0188  0.1290
 2293SOL     OW 9217   3.604   0.101   4.548 -0.3338 -0.0400 -0.2744
 2293SOL    HW2 9218   3.614   0.081   4.641 -0.8978 -0.0047 -0.2089
 2293SOL    HW3 9219   3.531   0.162   4.544  0.3068  0.7127 -0.6446
 2293SOL    MW4 9220   3.596   0.106   4.559 -0.3235  0.0639 -0.3147
 2294SOL     OW 9221   3.870   3.831   4.180 -0.0019  0.0322  0.1722
 2294SOL    HW2 9222   3.788   3.791   4.208  0.8350 -0.4288  2.0547
 2294SOL    HW3 9223   3.938   3.775   4.218  1.1860  0.6962 -0.9333
 2294SOL    MW4 9224   3.869   3.818   4.188  0.2651  0.0591  0.2751
 2295SOL     OW 9225   2.233   1.684   3.811 -0.3360  0.1801  0.6695
 2295SOL    HW2 9226   2.312   1.635   3.835 -1.3722 -1.2796  1.1674
 2295SOL    HW3 9227   2.232   1.682   3.715 -0.3364 -0.7327  0.6838
 2295SOL    MW4 9228   2.243   1.677   3.802 -0.4723 -0.1329  0.7370
 2296SOL     OW 9229   2.971   4.084   4.293  0.3858  0.3806 -0.2427
 2296SOL    HW2 9230   2.886   4.119   4.267  0.0794 -0.5373 -0.4783
 2296SOL    HW3 9231   2.972   3.994   4.261  0.7480 -0.1797  1.2569
 2296SOL    MW4 9232   2.960   4.077   4.286  0.3934  0.1860 -0.0758
 2297SOL     OW 9233   2.943   0.750   3.822 -0.3723  0.1957 -0.2830
 2297SOL    HW2 9234   2.881   0.796   3.766 -0.2488 -0.1244 -0.6866
 2297SOL    HW3 9235   2.927   0.657   3.805 -1.3131  0.0589  1.2881
 2297SOL    MW4 9236   2.933   0.744   3.813 -0.4804  0.1355 -0.1292
 2298SOL     OW 9237   2.275   3.455   4.648  0.0953 -0.0937  0.7007
 2298SOL    HW2 9238   2.357   3.447   4.598  0.2118 -0.5915  0.9647
 2298SOL    HW3 9239   2.247   3.545   4.634  1.0719  0.2974  1.1988
 2298SOL    MW4 9240   2.282   3.465   4.639  0.2391 -0.1080  0.8016
 2299SOL     OW 9241   0.070   2.619   4.672 -0.3910  0.2368 -0.3299
 2299SOL    HW2 9242   0.077   2.711   4.648 -1.1123  0.3179 -0.2466
 2299SOL    HW3 9243  -0.008   2.588   4.626 -1.3935  0.2262  1.3468
 2299SOL    MW4 9244   0.060   2.627   4.663 -0.6185  0.2463 -0.0978
 2300SOL     OW 9245   2.274   4.470   4.309 -0.2867 -0.2038  0.2395
 2300SOL    HW2 9246   2.351   4.498   4.260  0.1701  0.6595  1.4363
 2300SOL    HW3 9247   2.205   4.530   4.282 -0.0385  0.2620  0.6340
 2300SOL    MW4 9248   2.275   4.481   4.299 -0.1936 -0.0281  0.4492
 2301SOL     OW 9249   1.796   4.239   4.164  0.1087 -0.1373  0.0025
 2301SOL    HW2 9250   1.713   4.201   4.194  0.4460 -0.9279 -0.0558
 2301SOL    HW3 9251   1.792   4.234   4.069  0.1105  0.0846 -0.0111
 2301SOL    MW4 9252   1.784   4.234   4.155  0.1533 -0.2122 -0.0072
 2302SOL     OW 9253   2.021   4.149   4.578  0.1385 -0.6212  0.3283
 2302SOL    HW2 9254   1.932   4.181   4.592  1.0646  2.2140  0.1594
 2302SOL    HW3 9255   2.026   4.132   4.484 -0.1058 -0.3942  0.2730
 2302SOL    MW4 9256   2.010   4.151   4.568  0.2286 -0.2165  0.2995
 2303SOL     OW 9257   2.515   3.601   3.822 -0.1510 -0.1576  0.3260
 2303SOL    HW2 9258   2.497   3.608   3.729 -0.4254 -3.9129  0.0204
 2303SOL    HW3 9259   2.485   3.683   3.859 -0.2482  1.2909 -2.8553
 2303SOL    MW4 9260   2.508   3.612   3.815 -0.1998 -0.4621 -0.1340
 2304SOL     OW 9261   2.246   2.710   3.856  0.3913  0.0733  0.9065
 2304SOL    HW2 9262   2.333   2.749   3.856  0.7224 -0.6442 -0.2351
 2304SOL    HW3 9263   2.260   2.620   3.826 -1.0061  0.5839 -1.4467
 2304SOL    MW4 9264   2.259   2.703   3.852  0.2506  0.0460  0.4454
 2305SOL     OW 9265   2.025   2.348   4.138  0.4114  0.3996  0.0499
 2305SOL    HW2 9266   2.018   2.357   4.043  0.5482  0.0607  0.0068
 2305SOL    HW3 9267   1.945   2.303   4.165 -0.1539  1.4762  0.2349
 2305SOL    MW4 9268   2.014   2.343   4.129  0.3550  0.4971  0.0682
 2306SOL     OW 9269   3.425   0.245   4.242  0.0681 -0.0039 -0.0470
 2306SOL    HW2 9270   3.492   0.295   4.194 -0.0572 -0.3207 -0.5604
 2306SOL    HW3 9271   3.450   0.253   4.334  1.2072 -0.6692 -0.2827
 2306SOL    MW4 9272   3.437   0.252   4.247  0.2017 -0.1335 -0.1459
 2307SOL     OW 9273   0.063   3.261   4.646 -0.1871  0.0346 -0.1562
 2307SOL    HW2 9274   0.015   3.186   4.682  0.2577 -0.4714 -0.6209
 2307SOL    HW3 9275   0.151   3.227   4.630  0.0986  0.7445 -0.0727
 2307SOL    MW4 9276   0.068   3.246   4.649 -0.0907  0.0615 -0.2060
 2308SOL     OW 9277   1.676   2.450   5.017 -0.1089 -0.2896  0.3988
 2308SOL    HW2 9278   1.593   2.474   4.975  0.8474  1.2452 -0.6381
 2308SOL    HW3 9279   1.658   2.456   5.111 -1.4186 -0.8348  0.1928
 2308SOL    MW4 9280   1.663   2.454   5.024 -0.1557 -0.1593  0.2351
 2309SOL     OW 9281   3.366   1.307   3.710 -0.2113 -0.7520  0.1208
 2309SOL    HW2 9282   3.381   1.396   3.742 -0.8654 -1.3056  2.0150
 2309SOL    HW3 9283   3.346   1.319   3.617 -0.2033  1.0760  0.3288
 2309SOL    MW4 9284   3.365   1.321   3.702 -0.2964 -0.5839  0.3982
 2310SOL     OW 9285   2.727   0.087   3.806 -0.5726 -0.2272 -0.2554
 2310SOL    HW2 9286   2.798   0.024   3.812 -0.2768  0.1019 -0.2834
 2310SOL    HW3 9287   2.651   0.041   3.841  0.2125  0.2774  2.1616
 2310SOL    MW4 9288   2.726   0.073   3.811 -0.4299 -0.1172  0.0598
 2311SOL     OW 9289   2.949   0.463   3.768  0.2818  0.6289 -0.3236
 2311SOL    HW2 9290   3.028   0.425   3.807  0.4257  2.0204  0.7823
 2311SOL    HW3 9291   2.877   0.415   3.809  0.5203 -0.1592 -0.8094
 2311SOL    MW4 9292   2.950   0.451   3.778  0.3324  0.7085 -0.2420
 2312SOL     OW 9293   3.173   0.341   3.881 -0.0888  0.5870 -0.1723
 2312SOL    HW2 9294   3.233   0.398   3.832  1.2418 -0.4968  0.1549
 2312SOL    HW3 9295   3.169   0.261   3.829  2.0451 -0.9113  1.9036
 2312SOL    MW4 9296   3.181   0.338   3.867  0.3681  0.2463  0.1447
 2313SOL     OW 9297   3.158   3.766   4.591  0.3010  0.1433  0.2202
 2313SOL    HW2 9298   3.147   3.758   4.496 -1.9200  1.5282  0.3107
 2313SOL    HW3 9299   3.074   3.736   4.627  1.0299 -0.1090  1.7260
 2313SOL    MW4 9300   3.145   3.761   4.583  0.1042  0.2928  0.4306
 2314SOL     OW 9301   3.149   1.650   3.790  0.0482  0.2668  0.2616
 2314SOL    HW2 9302   3.154   1.637   3.695 -1.0660  0.0667  0.2211
 2314SOL    HW3 9303   3.149   1.745   3.801 -0.8486  0.3098 -0.0161
 2314SOL    MW4 9304   3.149   1.661   3.779 -0.2172  0.2462  0.2198
 2315SOL     OW 9305   1.259   4.265   4.514 -0.5295  0.1400  0.1472
 2315SOL    HW2 9306   1.211   4.288   4.594  0.4021  0.9647  0.4760
 2315SOL    HW3 9307   1.191   4.237   4.453 -1.4865  1.5822  0.5129
 2315SOL    MW4 9308   1.243   4.265   4.516 -0.5327  0.4392  0.2389
 2316SOL     OW 9309   1.304   2.173   4.990 -0.2155 -0.3853  0.0375
 2316SOL    HW2 9310   1.253   2.093   4.974  0.7314 -0.9961  0.0722
 2316SOL    HW3 9311   1.257   2.241   4.942  0.1697 -1.3799 -1.7686
 2316SOL    MW4 9312   1.291   2.172   4.982 -0.0397 -0.5970 -0.1969
 2317SOL     OW 9313   1.135   0.011   4.150  0.6047  0.3354 -0.3534
 2317SOL    HW2 9314   1.139  -0.005   4.056  0.1585 -0.1184 -0.2968
 2317SOL    HW3 9315   1.073  -0.053   4.183  0.3333  0.8614  0.1729
 2317SOL    MW4 9316   1.128   0.000   4.142  0.5102  0.3443 -0.2761
 2318SOL     OW 9317   0.249   0.736   4.190 -0.1072  0.5532 -0.1772
 2318SOL    HW2 9318   0.172   0.688   4.221 -0.0442 -0.1781 -1.1321
 2318SOL    HW3 9319   0.323   0.691   4.230 -0.0413 -0.2318 -1.1653
 2318SOL    MW4 9320   0.249   0.724   4.200 -0.0902  0.3532 -0.4330
 2319SOL     OW 9321   4.249   4.601   4.143 -0.0807 -0.0139 -0.5867
 2319SOL    HW2 9322   4.172   4.551   4.168 -0.5254  1.2429  0.6352
 2319SOL    HW3 9323   4.244   4.607   4.047 -1.6167  0.2166 -0.5108
 2319SOL    MW4 9324   4.238   4.595   4.134 -0.3424  0.1826 -0.4158
 2320SOL     OW 9325   3.176   4.237   4.187  0.4241  0.1049 -0.4143
 2320SOL    HW2 9326   3.100   4.187   4.216  0.9222  0.1658  1.0708
 2320SOL    HW3 9327   3.249   4.176   4.196  0.7334  0.4508 -0.5644
 2320SOL    MW4 9328   3.176   4.222   4.192  0.5307  0.1588 -0.2379
 2321SOL     OW 9329   1.556   2.035   3.784  0.0213  0.4491 -0.1582
 2321SOL    HW2 9330   1.556   2.038   3.688 -0.5881 -2.2003 -0.2886
 2321SOL    HW3 9331   1.635   1.985   3.806 -0.4728  0.0226  0.6593
 2321SOL    MW4 9332   1.567   2.029   3.774 -0.1242  0.0432 -0.0675
 2322SOL     OW 9333   3.831   0.235   4.476 -0.2966 -0.3564  0.4488
 2322SOL    HW2 9334   3.892   0.182   4.527  0.8998  0.1245 -0.4455
 2322SOL    HW3 9335   3.744   0.211   4.509  0.3896 -0.8664  1.9161
 2322SOL    MW4 9336   3.828   0.225   4.487 -0.0479 -0.3603  0.5245
 2323SOL     OW 9337   1.539   3.108   3.872 -0.2298 -0.3076 -0.1959
 2323SOL    HW2 9338   1.450   3.133   3.847 -0.0197 -0.4881 -1.1356
 2323SOL    HW3 9339   1.548   3.018   3.840  0.9490  0.3768 -1.8287
 2323SOL    MW4 9340   1.528   3.099   3.865 -0.0465 -0.2410 -0.5355
 2324SOL     OW 9341   3.361   3.028   3.863 -0.6679 -0.4550 -0.9126
 2324SOL    HW2 9342   3.383   3.029   3.956 -0.9494 -0.1164 -0.8478
 2324SOL    HW3 9343   3.438   3.064   3.819  0.5052 -3.0238 -1.0497
 2324SOL    MW4 9344   3.374   3.033   3.869 -0.5503 -0.7493 -0.9220
 2325SOL     OW 9345   0.853   1.143   4.193 -0.3810 -0.1408  0.2857
 2325SOL    HW2 9346   0.868   1.138   4.098 -0.1948  2.1452  0.1540
 2325SOL    HW3 9347   0.936   1.114   4.232  0.4358  1.3084 -0.3090
 2325SOL    MW4 9348   0.866   1.139   4.185 -0.2487  0.3520  0.1903
 2326SOL     OW 9349   1.466   2.949   4.661  0.0416 -0.0186 -0.9315
 2326SOL    HW2 9350   1.553   2.957   4.624  0.2101 -1.0069 -0.7729
 2326SOL    HW3 9351   1.461   2.858   4.691 -0.9189  0.1211 -0.6424
 2326SOL    MW4 9352   1.477   2.938   4.660 -0.0629 -0.1307 -0.8721
 2327SOL     OW 9353   2.736   3.942   3.770 -0.4967 -0.5111  0.0209
 2327SOL    HW2 9354   2.715   4.030   3.801  0.5005 -0.2098 -0.1594
 2327SOL    HW3 9355   2.801   3.909   3.832  0.0434 -0.6526 -0.6224
 2327SOL    MW4 9356   2.741   3.949   3.782 -0.2940 -0.4900 -0.0880
 2328SOL     OW 9357   2.722   3.207   3.791  0.2720  0.3389 -0.0225
 2328SOL    HW2 9358   2.801   3.157   3.811 -1.0863 -2.3963 -1.0838
 2328SOL    HW3 9359   2.729   3.287   3.842  3.4133 -0.1530  0.3705
 2328SOL    MW4 9360   2.733   3.211   3.800  0.5069 -0.0868 -0.1106
 2329SOL     OW 9361   0.550   2.906   4.576  0.0558  0.0501  0.4423
 2329SOL    HW2 9362   0.626   2.955   4.607  0.3705  0.5047 -1.0040
 2329SOL    HW3 9363   0.575   2.814   4.583 -0.0181  0.1190  1.8468
 2329SOL    MW4 9364   0.563   2.901   4.581  0.0876  0.1192  0.4363
 2330SOL     OW 9365   2.948   3.824   3.929 -0.0221 -0.0574  0.0581
 2330SOL    HW2 9366   3.013   3.879   3.887 -0.6095  0.4665 -0.1780
 2330SOL    HW3 9367   2.949   3.743   3.877 -0.4621  0.4359 -0.7344
 2330SOL    MW4 9368   2.956   3.820   3.916 -0.1576  0.0768 -0.0775
 2331SOL     OW 9369   1.593   4.604   4.169 -0.3777  0.1682 -0.0078
 2331SOL    HW2 9370   1.673   4.571   4.211 -0.7927  0.1120  0.7491
 2331SOL    HW3 9371   1.597   4.699   4.179 -0.6496  0.1296  0.4724
 2331SOL    MW4 9372   1.604   4.612   4.176 -0.4683  0.1554  0.1554
 2332SOL     OW 9373   2.687   4.194   3.855 -0.0929 -0.4140  0.5097
 2332SOL    HW2 9374   2.615   4.253   3.831 -0.1038 -1.0912 -1.2299
 2332SOL    HW3 9375   2.766   4.243   3.833 -0.0614 -0.2626  0.9682
 2332SOL    MW4 9376   2.688   4.208   3.849 -0.0901 -0.4830  0.3407
 2333SOL     OW 9377   2.728   0.347   3.895 -0.1329 -0.2131 -0.0479
 2333SOL    HW2 9378   2.724   0.343   3.990 -0.9691  0.7034 -0.0405
 2333SOL    HW3 9379   2.738   0.256   3.867 -0.2057 -0.5116  0.8978
 2333SOL    MW4 9380   2.729   0.335   3.904 -0.2530 -0.1315  0.0777
 2334SOL     OW 9381   3.138   0.080   3.757 -0.3124 -0.6295 -0.0703
 2334SOL    HW2 9382   3.224   0.045   3.783 -1.7142 -3.3978  1.0690
 2334SOL    HW3 9383   3.138   0.076   3.662  0.8808 -0.5157 -0.0802
 2334SOL    MW4 9384   3.149   0.075   3.748 -0.3397 -0.9797  0.0789
 2335SOL     OW 9385   4.025   4.476   4.263 -0.1209 -0.2433 -1.1114
 2335SOL    HW2 9386   4.030   4.494   4.357 -0.4759  0.0237 -1.1481
 2335SOL    HW3 9387   4.046   4.382   4.257 -0.8869 -0.4441 -0.6949
 2335SOL    MW4 9388   4.029   4.466   4.275 -0.2689 -0.2341 -1.0610
 2336SOL     OW 9389   2.073   2.054   4.878 -0.0412 -0.3409 -0.2984
 2336SOL    HW2 9390   2.106   2.143   4.870  0.7265 -0.6279 -0.3921
 2336SOL    HW3 9391   2.096   2.012   4.795 -0.4327 -0.6119 -0.2731
 2336SOL    MW4 9392   2.080   2.060   4.866  0.0083 -0.4144 -0.3076
 2337SOL     OW 9393   3.600   0.878   3.767 -0.1927  0.2106 -0.3042
 2337SOL    HW2 9394   3.584   0.970   3.786  0.7317  0.0107  1.4817
 2337SOL    HW3 9395   3.520   0.833   3.796  0.4034  0.1534  1.3064
 2337SOL    MW4 9396   3.587   0.884   3.773  0.0079  0.1766  0.1438
 2338SOL     OW 9397   3.121   0.899   3.466  0.1792 -0.3612  0.1508
 2338SOL    HW2 9398   3.046   0.852   3.431  1.0351 -0.5064 -1.5576
 2338SOL    HW3 9399   3.196   0.845   3.442  1.0247  0.9706 -0.2643
 2338SOL    MW4 9400   3.121   0.886   3.459  0.4036 -0.2047 -0.1292
 2339SOL     OW 9401   0.404   4.434   4.509 -0.9429  0.3446 -0.0600
 2339SOL    HW2 9402   0.313   4.423   4.539 -1.1090 -0.0611 -0.7136
 2339SOL    HW3 9403   0.425   4.525   4.531 -0.6356 -0.2914  2.4313
 2339SOL    MW4 9404   0.395   4.445   4.516 -0.9242  0.2074  0.1826
 2340SOL     OW 9405   2.252   3.211   4.796 -0.1661 -0.3330  0.0670
 2340SOL    HW2 9406   2.244   3.232   4.889  0.3137 -0.1433  0.0679
 2340SOL    HW3 9407   2.283   3.293   4.756  1.1382 -0.8640 -0.0256
 2340SOL    MW4 9408   2.255   3.225   4.803  0.0691 -0.3779  0.0548
 2341SOL     OW 9409   3.822   0.738   4.120 -0.2940 -0.5805 -0.3567
 2341SOL    HW2 9410   3.820   0.750   4.025 -0.3260  0.1352 -0.2710
 2341SOL    HW3 9411   3.909   0.704   4.138 -0.3194 -0.8043 -0.6505
 2341SOL    MW4 9412   3.833   0.735   4.110 -0.3014 -0.5156 -0.3853
 2342SOL     OW 9413   3.146   1.938   3.823  0.4972 -0.2239 -0.5528
 2342SOL    HW2 9414   3.060   1.976   3.806 -0.3275 -1.9634 -0.4159
 2342SOL    HW3 9415   3.155   1.942   3.919  1.1187  1.0947 -0.6593
 2342SOL    MW4 9416   3.136   1.944   3.834  0.4706 -0.2797 -0.5488
 2343SOL     OW 9417   3.386   1.546   3.860 -0.1622  0.0648  0.3464
 2343SOL    HW2 9418   3.294   1.573   3.859 -0.0946  0.2804  0.1297
 2343SOL    HW3 9419   3.403   1.523   3.951 -0.6420 -0.6723  0.2543
 2343SOL    MW4 9420   3.376   1.546   3.872 -0.2165 -0.0042  0.3059
 2344SOL     OW 9421   3.367   2.343   3.857  0.3629 -0.3206  0.2410
 2344SOL    HW2 9422   3.274   2.350   3.837  0.8919  1.7252 -1.6983
 2344SOL    HW3 9423   3.392   2.256   3.826 -1.0204 -1.1677  1.4299
 2344SOL    MW4 9424   3.358   2.333   3.850  0.2501 -0.1624  0.1421
 2345SOL     OW 9425   3.469   2.055   4.643  0.1447 -0.3586 -0.6557
 2345SOL    HW2 9426   3.380   2.058   4.607  0.6221  1.5497 -1.6927
 2345SOL    HW3 9427   3.484   1.962   4.661 -1.7964 -0.7854 -1.1160
 2345SOL    MW4 9428   3.459   2.043   4.641 -0.0484 -0.1631 -0.8531
 2346SOL     OW 9429   3.113   2.403   3.809  0.0501  0.1536 -0.3816
 2346SOL    HW2 9430   3.103   2.391   3.714  1.2439 -1.4351 -0.3295
 2346SOL    HW3 9431   3.040   2.356   3.847 -0.2230  0.4860 -0.4855
 2346SOL    MW4 9432   3.102   2.396   3.801  0.1717 -0.0122 -0.3886
 2347SOL     OW 9433   2.745   3.464   3.899  0.1774  0.0878 -0.5092
 2347SOL    HW2 9434   2.671   3.518   3.869  0.8143  1.0915 -0.2833
 2347SOL    HW3 9435   2.821   3.503   3.856  0.7370 -0.1897  0.2350
 2347SOL    MW4 9436   2.745   3.477   3.889  0.3350  0.1838 -0.3812
 2348SOL     OW 9437   0.699   3.040   4.190  0.0798 -0.6128  0.0228
 2348SOL    HW2 9438   0.703   3.135   4.202  2.0655 -0.5988 -0.4379
 2348SOL    HW3 9439   0.763   3.005   4.253 -1.8079 -1.7816  1.3419
 2348SOL    MW4 9440   0.708   3.048   4.200  0.0927 -0.7653  0.1359
 2349SOL     OW 9441   0.670   1.529   4.208 -0.2456 -0.0092 -0.2721
 2349SOL    HW2 9442   0.593   1.483   4.242 -0.4546  0.6824  0.2077
 2349SOL    HW3 9443   0.658   1.619   4.238  0.7191  0.1112 -0.2554
 2349SOL    MW4 9444   0.658   1.535   4.216 -0.1460  0.0978 -0.2069
 2350SOL     OW 9445   3.171   3.222   3.785 -0.4990 -0.1154  0.3288
 2350SOL    HW2 9446   3.183   3.213   3.691 -0.8348 -0.5989  0.3322
 2350SOL    HW3 9447   3.234   3.160   3.823 -0.5428 -0.1050  0.4179
 2350SOL    MW4 9448   3.181   3.212   3.778 -0.5493 -0.1776  0.3407
 2351SOL     OW 9449   0.432   1.124   3.934 -0.3482 -0.2341  0.0583
 2351SOL    HW2 9450   0.365   1.176   3.890 -1.1886  2.4784  4.2307
 2351SOL    HW3 9451   0.514   1.171   3.918 -0.1216 -1.0471 -1.2461
 2351SOL    MW4 9452   0.434   1.137   3.926 -0.4292  0.0165  0.4368
 2352SOL     OW 9453   3.374   3.585   3.500 -0.3311 -0.5766  0.1853
 2352SOL    HW2 9454   3.388   3.675   3.472 -0.0226 -1.2434 -1.8495
 2352SOL    HW3 9455   3.304   3.553   3.443  1.0047 -2.2803 -0.5122
 2352SOL    MW4 9456   3.367   3.593   3.489 -0.1140 -0.8895 -0.1750
 2353SOL     OW 9457   3.199   3.458   3.910  0.1607  0.0863  0.0437
 2353SOL    HW2 9458   3.188   3.374   3.864 -0.4357 -0.2176  0.7280
 2353SOL    HW3 9459   3.263   3.506   3.858 -0.6561 -0.1721 -1.2192
 2353SOL    MW4 9460   3.206   3.453   3.897 -0.0260  0.0119 -0.0329
 2354SOL     OW 9461   3.365   3.845   3.863 -0.1662  0.4407 -0.2636
 2354SOL    HW2 9462   3.449   3.876   3.829 -0.1850 -0.4057 -1.1060
 2354SOL    HW3 9463   3.381   3.830   3.956  1.4739 -2.5274 -0.9549
 2354SOL    MW4 9464   3.378   3.847   3.871  0.0479 -0.0622 -0.4656
 2355SOL     OW 9465   3.171   2.347   4.590 -0.0850  0.0692  0.9089
 2355SOL    HW2 9466   3.187   2.426   4.539  0.0171 -0.2123  0.5057
 2355SOL    HW3 9467   3.083   2.359   4.625  0.2040  0.6836  1.4401
 2355SOL    MW4 9468   3.161   2.359   4.588 -0.0336  0.1132  0.9260
 2356SOL     OW 9469   3.371   4.624   3.854 -0.6165  0.2980  0.6082
 2356SOL    HW2 9470   3.392   4.649   3.945  0.4194 -0.5577  0.6109
 2356SOL    HW3 9471   3.444   4.659   3.803 -0.4867 -0.4595  0.2801
 2356SOL    MW4 9472   3.384   4.632   3.860 -0.4623  0.0849  0.5653
 2357SOL     OW 9473   2.071   0.746   4.184  0.1817 -0.2892  0.5198
 2357SOL    HW2 9474   2.141   0.704   4.234  0.8866 -0.1787 -0.3537
 2357SOL    HW3 9475   2.061   0.833   4.224 -0.0491 -0.6236  1.1911
 2357SOL    MW4 9476   2.079   0.752   4.196  0.2444 -0.3188  0.4930
 2358SOL     OW 9477   0.101   0.977   4.567  0.4391 -0.0485  0.1673
 2358SOL    HW2 9478   0.120   0.970   4.474  0.5498  0.1926  0.1716
 2358SOL    HW3 9479   0.079   0.888   4.594 -0.0586 -0.0363 -0.1866
 2358SOL    MW4 9480   0.101   0.965   4.558  0.3880 -0.0151  0.1211
 2359SOL     OW 9481   3.409   2.762   4.558 -0.1560  0.4085 -0.4267
 2359SOL    HW2 9482   3.338   2.699   4.542 -0.9859  1.3998 -0.6639
 2359SOL    HW3 9483   3.470   2.715   4.615 -1.8048  0.1027  1.1357
 2359SOL    MW4 9484   3.408   2.747   4.563 -0.4830  0.4990 -0.2508
 2360SOL     OW 9485   4.087   0.127   3.766 -0.1258  0.3500  0.7716
 2360SOL    HW2 9486   4.091   0.133   3.671 -1.1627  1.2862  0.7721
 2360SOL    HW3 9487   4.057   0.214   3.794  0.5020  0.1920  1.9719
 2360SOL    MW4 9488   4.084   0.139   3.757 -0.1798  0.4527  0.9303
 2361SOL     OW 9489   3.818   0.727   3.834 -0.0269  0.3483 -0.4480
 2361SOL    HW2 9490   3.890   0.776   3.794 -0.0840 -0.0927 -1.1045
 2361SOL    HW3 9491   3.740   0.779   3.815  0.0073  0.3754 -0.5155
 2361SOL    MW4 9492   3.817   0.740   3.826 -0.0300  0.2937 -0.5436
 2362SOL     OW 9493   4.053   0.383   3.388  0.0508  0.1640 -0.0166
 2362SOL    HW2 9494   4.020   0.378   3.298  0.8534  0.1651 -0.3199
 2362SOL    HW3 9495   4.054   0.292   3.418  2.3901 -0.1840 -0.9923
 2362SOL    MW4 9496   4.049   0.370   3.380  0.4654  0.1183 -0.1855
 2363SOL     OW 9497   3.373   0.760   3.851 -0.0070 -0.2059 -0.4859
 2363SOL    HW2 9498   3.339   0.749   3.940 -0.9605 -1.8990 -1.0386
 2363SOL    HW3 9499   3.303   0.805   3.804  1.1656  2.2292  0.0195
 2363SOL    MW4 9500   3.359   0.764   3.856  0.0219 -0.1080 -0.4921
 2364SOL     OW 9501   3.815   1.282   3.740 -0.5118  0.2632 -0.0826
 2364SOL    HW2 9502   3.885   1.228   3.777 -0.3351  0.6885  0.2065
 2364SOL    HW3 9503   3.819   1.363   3.789 -0.9883  0.4198 -0.3019
 2364SOL    MW4 9504   3.825   1.285   3.751 -0.5512  0.3401 -0.0732
 2365SOL     OW 9505   2.214   2.886   4.506  0.5646  0.0983 -0.0212
 2365SOL    HW2 9506   2.163   2.806   4.509  0.2548  0.2388 -1.1333
 2365SOL    HW3 9507   2.216   2.910   4.413  0.5749  1.4173  0.2995
 2365SOL    MW4 9508   2.208   2.879   4.494  0.5248  0.2906 -0.1259
 2366SOL     OW 9509   3.593   1.682   3.777 -0.2596 -0.3974  0.2729
 2366SOL    HW2 9510   3.599   1.666   3.683  1.0608 -1.3012  0.4939
 2366SOL    HW3 9511   3.512   1.639   3.804 -1.2397  0.8541 -0.6404
 2366SOL    MW4 9512   3.583   1.674   3.768 -0.2148 -0.3515  0.1817
 2367SOL     OW 9513   4.041   4.458   4.549  0.0971 -0.0711 -0.1939
 2367SOL    HW2 9514   4.035   4.549   4.577 -1.1658  0.6141 -2.5902
 2367SOL    HW3 9515   3.961   4.417   4.581 -0.6631  0.3630 -1.5010
 2367SOL    MW4 9516   4.030   4.465   4.557 -0.1702  0.0768 -0.6828
 2368SOL     OW 9517   4.009   1.945   3.945 -0.0609 -0.1861  0.2753
 2368SOL    HW2 9518   4.025   1.934   4.039  0.6594 -1.0125  0.0614
 2368SOL    HW3 9519   4.094   1.971   3.909 -0.8227  2.3238  0.1685
 2368SOL    MW4 9520   4.023   1.947   3.952 -0.0668  0.0360  0.2327
 2369SOL     OW 9521   3.617   2.454   3.795  0.5644  0.4981  0.1086
 2369SOL    HW2 9522   3.617   2.460   3.700  2.6433  0.1766  0.0695
 2369SOL    HW3 9523   3.538   2.405   3.816  1.0243 -0.9855 -1.5511
 2369SOL    MW4 9524   3.606   2.449   3.786  0.8996  0.2599 -0.1154
 2370SOL     OW 9525   3.816   2.821   3.755  0.0463 -0.2725  0.2244
 2370SOL    HW2 9526   3.740   2.778   3.794 -0.2785  0.0301 -0.0702
 2370SOL    HW3 9527   3.800   2.915   3.768  0.7703 -0.2383  0.8970
 2370SOL    MW4 9528   3.804   2.828   3.762  0.0994 -0.2279  0.2744
 2371SOL     OW 9529   3.114   2.678   3.848 -0.1384  0.0266  0.0087
 2371SOL    HW2 9530   3.108   2.585   3.826  1.4343  0.1573 -1.0842
 2371SOL    HW3 9531   3.207   2.700   3.837 -0.5495  1.8194 -0.1639
 2371SOL    MW4 9532   3.125   2.669   3.844  0.0148  0.2801 -0.1583
 2372SOL     OW 9533   4.015   2.664   3.859 -0.2382 -0.2050  0.0492
 2372SOL    HW2 9534   3.947   2.717   3.816  0.7291  0.6513 -0.4455
 2372SOL    HW3 9535   4.005   2.683   3.952 -0.2673  0.4211 -0.0773
 2372SOL    MW4 9536   4.005   2.673   3.866 -0.1144 -0.0095 -0.0327
 2373SOL     OW 9537   2.506   2.820   3.826  0.2682  0.2677  0.4615
 2373SOL    HW2 9538   2.494   2.914   3.843 -2.9163  0.0126  0.0448
 2373SOL    HW3 9539   2.501   2.812   3.731  0.3307 -0.3255  0.5077
 2373SOL    MW4 9540   2.504   2.831   3.816 -0.1438  0.1557  0.4127
 2374SOL     OW 9541   3.824   3.089   3.871  0.7874  0.1226 -0.1302
 2374SOL    HW2 9542   3.736   3.118   3.845  0.4618 -1.4805 -0.9528
 2374SOL    HW3 9543   3.818   3.077   3.965 -0.0047 -0.3027 -0.2210
 2374SOL    MW4 9544   3.811   3.091   3.880  0.6399 -0.1452 -0.2506
 2375SOL     OW 9545   3.571   3.185   3.789 -0.8493 -0.2574  0.0756
 2375SOL    HW2 9546   3.581   3.274   3.822  1.2652 -0.9740  1.4108
 2375SOL    HW3 9547   3.579   3.194   3.694  0.5322  0.8238  0.2821
 2375SOL    MW4 9548   3.573   3.198   3.781 -0.3879 -0.2091  0.2789
 2376SOL     OW 9549   2.338   2.518   4.669 -0.1378 -0.4484  0.2883
 2376SOL    HW2 9550   2.409   2.473   4.624 -0.0981 -0.0172 -0.0838
 2376SOL    HW3 9551   2.291   2.449   4.715 -0.7254 -1.0162 -1.1449
 2376SOL    MW4 9552   2.341   2.503   4.669 -0.2100 -0.4663  0.0501
 2377SOL     OW 9553   3.620   1.341   4.213 -0.3752  0.1541 -0.2586
 2377SOL    HW2 9554   3.540   1.389   4.191 -1.3630 -1.7691 -0.9819
 2377SOL    HW3 9555   3.616   1.262   4.160  2.3800  0.3379 -0.8460
 2377SOL    MW4 9556   3.609   1.337   4.203 -0.1421 -0.0753 -0.4311
 2378SOL     OW 9557   3.595   4.195   3.849  0.1719 -0.4098 -0.2781
 2378SOL    HW2 9558   3.655   4.268   3.833  0.2919 -0.2843  0.6665
 2378SOL    HW3 9559   3.582   4.197   3.944 -0.9855 -0.7015 -0.4280
 2378SOL    MW4 9560   3.601   4.205   3.860  0.0350 -0.4320 -0.1731
 2379SOL     OW 9561   3.847   4.662   3.847 -0.2315  0.2077  0.2256
 2379SOL    HW2 9562   3.918   4.721   3.822  0.3787 -0.3482  0.6510
 2379SOL    HW3 9563   3.854   4.655   3.942 -0.6252 -0.1436  0.2280
 2379SOL    MW4 9564   3.857   4.669   3.856 -0.2029  0.0882  0.2820
 2380SOL     OW 9565   3.553   0.556   4.469  0.1789 -0.6620  0.2400
 2380SOL    HW2 9566   3.576   0.579   4.379  0.6158 -1.4864  0.1304
 2380SOL    HW3 9567   3.553   0.639   4.517  1.3082 -0.3922 -0.2249
 2380SOL    MW4 9568   3.556   0.570   4.464  0.3855 -0.7352  0.1640
 2381SOL     OW 9569   4.296   4.361   3.789  0.0608  0.0940  0.1505
 2381SOL    HW2 9570   4.279   4.455   3.797 -1.3191 -0.0359 -0.9356
 2381SOL    HW3 9571   4.221   4.319   3.831  1.4985 -0.5475  2.1354
 2381SOL    MW4 9572   4.284   4.368   3.795  0.0682 -0.0076  0.2689
 2382SOL     OW 9573   4.287   0.501   3.804  0.2643  0.3125 -0.0819
 2382SOL    HW2 9574   4.359   0.440   3.823  1.2149  1.6762  0.8238
 2382SOL    HW3 9575   4.297   0.522   3.711 -0.5159 -1.4702 -0.5780
 2382SOL    MW4 9576   4.298   0.496   3.794  0.2871  0.2572 -0.0277
 2383SOL     OW 9577   3.549   1.796   4.644  0.1604  0.3927  0.2701
 2383SOL    HW2 9578   3.485   1.746   4.593  1.0734 -0.8995  0.3575
 2383SOL    HW3 9579   3.560   1.747   4.725  0.4453  1.1957  0.7299
 2383SOL    MW4 9580   3.542   1.783   4.648  0.3183  0.3282  0.3419
 2384SOL     OW 9581   3.829   2.480   4.148  0.1355  0.3848 -0.5472
 2384SOL    HW2 9582   3.846   2.425   4.071  1.8529 -1.7976  1.3162
 2384SOL    HW3 9583   3.799   2.418   4.215  0.3981  1.9785  1.0709
 2384SOL    MW4 9584   3.827   2.464   4.146  0.3967  0.3071 -0.0877
 2385SOL     OW 9585   0.013   2.400   3.800 -0.2465  0.3470 -0.2020
 2385SOL    HW2 9586   0.095   2.363   3.832 -0.7785 -1.1019 -0.4764
 2385SOL    HW3 9587   0.011   2.489   3.836  0.9970  0.0769  0.5615
 2385SOL    MW4 9588   0.024   2.407   3.809 -0.1526  0.1206 -0.1376
 2386SOL     OW 9589   4.207   1.267   3.766 -0.4441  0.1609 -0.2065
 2386SOL    HW2 9590   4.224   1.262   3.672 -2.0292 -0.1895 -0.4867
 2386SOL    HW3 9591   4.282   1.223   3.806 -0.0451 -0.1942 -1.3342
 2386SOL    MW4 9592   4.219   1.260   3.759 -0.6003  0.0678 -0.3922
 2387SOL     OW 9593   1.590   1.484   3.886  0.2821 -0.1439 -0.3189
 2387SOL    HW2 9594   1.654   1.553   3.866 -0.5893  0.4567 -1.0193
 2387SOL    HW3 9595   1.593   1.477   3.982  1.3535 -0.0784 -0.3366
 2387SOL    MW4 9596   1.599   1.492   3.896  0.3084 -0.0559 -0.4137
 2388SOL     OW 9597   0.239   4.106   4.306 -0.9712 -0.0777 -0.4211
 2388SOL    HW2 9598   0.199   4.084   4.390 -1.4609  1.2709 -0.2914
 2388SOL    HW3 9599   0.235   4.025   4.256 -0.1684 -1.0535  1.0390
 2388SOL    MW4 9600   0.233   4.092   4.311 -0.9299 -0.0281 -0.2112
 2389SOL     OW 9601   1.505   1.825   4.554  0.0475  0.1071 -0.2132
 2389SOL    HW2 9602   1.533   1.784   4.472 -1.5756 -1.4990 -0.0010
 2389SOL    HW3 9603   1.452   1.900   4.527  0.4088  0.2151 -0.6258
 2389SOL    MW4 9604   1.502   1.829   4.539 -0.1191 -0.0906 -0.2394
 2390SOL     OW 9605   2.917   4.660   4.670  0.2380  0.2036  0.0080
 2390SOL    HW2 9606   2.923   4.751   4.639 -1.6625 -0.2578 -1.7856
 2390SOL    HW3 9607   2.964   4.609   4.604  0.0502 -0.2873  0.2523
 2390SOL    MW4 9608   2.924   4.666   4.658 -0.0374  0.0782 -0.1965
 2391SOL     OW 9609   4.037   1.686   3.800  0.5543  0.2315  0.0374
 2391SOL    HW2 9610   4.030   1.760   3.860  2.0001 -0.9700  1.7482
 2391SOL    HW3 9611   3.957   1.635   3.815 -0.4266  1.3738 -1.1195
 2391SOL    MW4 9612   4.025   1.689   3.810  0.6161  0.2238  0.1109
 2392SOL     OW 9613   4.281   2.014   3.494  0.0689  0.0426  0.1312
 2392SOL    HW2 9614   4.272   2.109   3.486  1.5365  0.1732 -0.0631
 2392SOL    HW3 9615   4.364   1.994   3.451  0.8198 -1.0821  2.0382
 2392SOL    MW4 9616   4.291   2.024   3.487  0.3619 -0.0885  0.3572
 2393SOL     OW 9617   0.412   2.175   4.264  0.1057  0.3164 -0.1844
 2393SOL    HW2 9618   0.435   2.082   4.254 -0.0674  0.2388  0.1326
 2393SOL    HW3 9619   0.424   2.193   4.358  2.4002  1.2241 -0.6108
 2393SOL    MW4 9620   0.417   2.165   4.275  0.3856  0.4258 -0.1988
 2394SOL     OW 9621   3.807   2.051   3.518  0.3642 -0.5727  0.5137
 2394SOL    HW2 9622   3.810   2.061   3.613 -0.4156  1.8921  0.3189
 2394SOL    HW3 9623   3.895   2.023   3.494  0.8333 -0.2837  1.8621
 2394SOL    MW4 9624   3.819   2.049   3.527  0.3233 -0.2093  0.6659
 2395SOL     OW 9625   2.446   2.774   4.634 -0.0296  0.0901 -0.7067
 2395SOL    HW2 9626   2.374   2.806   4.579 -0.5716  0.8188  0.4142
 2395SOL    HW3 9627   2.412   2.694   4.674 -0.7483  1.1674  0.9010
 2395SOL    MW4 9628   2.432   2.768   4.632 -0.1960  0.3283 -0.3467
 2396SOL     OW 9629   1.340   3.460   4.141 -0.4809  0.3342 -0.3299
 2396SOL    HW2 9630   1.319   3.467   4.048 -0.6276  0.9751 -0.2491
 2396SOL    HW3 9631   1.261   3.423   4.181  0.0045 -1.0550 -0.6341
 2396SOL    MW4 9632   1.327   3.456   4.134 -0.4362  0.2356 -0.3591
 2397SOL     OW 9633   4.478   3.177   3.808 -0.4470 -0.3333  0.5043
 2397SOL    HW2 9634   4.406   3.122   3.837 -1.3320  0.8540  0.5664
 2397SOL    HW3 9635   4.470   3.178   3.712 -0.3569 -0.4174  0.4960
 2397SOL    MW4 9636   4.468   3.170   3.799 -0.5517 -0.1879  0.5114
 2398SOL     OW 9637   0.673   4.422   3.768 -0.2182  0.2860  0.4852
 2398SOL    HW2 9638   0.666   4.420   3.672 -0.1572 -0.9872  0.4999
 2398SOL    HW3 9639   0.594   4.376   3.799 -0.2000  0.6294  1.0445
 2398SOL    MW4 9640   0.661   4.416   3.759 -0.2078  0.1631  0.5612
 2399SOL     OW 9641   4.066   3.228   3.775  0.2288 -0.1318  0.0677
 2399SOL    HW2 9642   3.987   3.183   3.803  1.4409 -2.3168  0.0635
 2399SOL    HW3 9643   4.065   3.223   3.680  0.2702  0.0316  0.0581
 2399SOL    MW4 9644   4.056   3.222   3.766  0.3939 -0.3986  0.0660
 2400SOL     OW 9645   4.310   3.604   3.767  0.1731  0.2002 -0.1518
 2400SOL    HW2 9646   4.230   3.561   3.798 -0.3481  1.3677  0.1585
 2400SOL    HW3 9647   4.381   3.555   3.809 -0.4310 -0.0091  0.6530
 2400SOL    MW4 9648   4.309   3.592   3.777  0.0248  0.3264 -0.0050
 2401SOL     OW 9649   4.331   3.866   3.859 -0.4694 -0.0166  0.5319
 2401SOL    HW2 9650   4.337   3.778   3.822 -0.4337  0.5472 -0.8344
 2401SOL    HW3 9651   4.336   3.852   3.954  1.6238 -1.3046  0.2644
 2401SOL    MW4 9652   4.332   3.852   3.867 -0.1879 -0.1121  0.3161
 2402SOL     OW 9653   4.107   2.959   4.134  0.1143  0.0786 -0.3777
 2402SOL    HW2 9654   4.088   2.867   4.151  2.4857 -0.8873 -2.5494
 2402SOL    HW3 9655   4.157   2.988   4.210 -1.1793 -0.2541  0.5987
 2402SOL    MW4 9656   4.111   2.950   4.146  0.2565 -0.0927 -0.5360
 2403SOL     OW 9657   4.293   4.063   4.244  0.1013  0.4118  0.7196
 2403SOL    HW2 9658   4.295   4.061   4.340 -2.1840  0.3613  0.7897
 2403SOL    HW3 9659   4.214   4.112   4.222  0.0877 -0.3973 -1.1445
 2403SOL    MW4 9660   4.283   4.069   4.254 -0.2027  0.2980  0.4830
 2404SOL     OW 9661   2.032   2.229   4.544 -0.2128 -0.1775  0.3297
 2404SOL    HW2 9662   2.035   2.137   4.571 -0.1460 -0.0586  0.7288
 2404SOL    HW3 9663   1.940   2.254   4.557  0.1842  0.3995  2.2017
 2404SOL    MW4 9664   2.020   2.220   4.549 -0.1516 -0.0856  0.6294
 2405SOL     OW 9665   0.446   4.263   4.151  0.2524 -0.2119  0.1574
 2405SOL    HW2 9666   0.378   4.218   4.200 -1.0362 -0.3181 -1.6653
 2405SOL    HW3 9667   0.443   4.353   4.183 -0.3631 -0.3508  0.4871
 2405SOL    MW4 9668   0.437   4.269   4.162  0.0012 -0.2441 -0.0396
 2406SOL     OW 9669   0.445   4.017   3.784 -0.2741 -0.5215  0.3505
 2406SOL    HW2 9670   0.433   3.995   3.691  0.6373  1.2727 -0.2274
 2406SOL    HW3 9671   0.367   3.982   3.827 -1.9615  0.7991 -1.4999
 2406SOL    MW4 9672   0.433   4.010   3.777 -0.3765 -0.1111  0.0300
 2407SOL     OW 9673   3.306   3.018   4.545 -0.3888  0.0595 -0.0161
 2407SOL    HW2 9674   3.219   3.000   4.582 -0.6095  1.0694 -0.0413
 2407SOL    HW3 9675   3.354   2.936   4.558 -1.6484 -0.8416 -0.8670
 2407SOL    MW4 9676   3.301   3.005   4.551 -0.5839  0.0739 -0.1311
 2408SOL     OW 9677   0.070   0.507   4.576 -0.6833 -0.5214 -0.0865
 2408SOL    HW2 9678   0.036   0.580   4.627 -0.3024 -0.8778  0.6963
 2408SOL    HW3 9679   0.080   0.542   4.487 -0.1956  0.4728  0.3467
 2408SOL    MW4 9680   0.067   0.521   4.571 -0.5687 -0.4373  0.0744
 2409SOL     OW 9681   1.107   0.254   4.268 -0.1401  0.0011 -0.3826
 2409SOL    HW2 9682   1.123   0.166   4.235  1.0117  0.2410 -0.4725
 2409SOL    HW3 9683   1.172   0.309   4.224 -0.5376  0.8195  0.0334
 2409SOL    MW4 9684   1.117   0.250   4.258 -0.0405  0.1407 -0.3395
 2410SOL     OW 9685   1.297   3.487   3.876  0.3095  0.0433 -0.4793
 2410SOL    HW2 9686   1.224   3.543   3.849 -0.4439  0.3672  2.0456
 2410SOL    HW3 9687   1.374   3.524   3.834 -0.6956  0.9063 -1.5827
 2410SOL    MW4 9688   1.297   3.499   3.867  0.0775  0.2000 -0.2916
 2411SOL     OW 9689   1.474   4.078   4.521  0.1023 -0.0812 -0.4480
 2411SOL    HW2 9690   1.392   4.125   4.539  0.4525 -0.2150  1.6603
 2411SOL    HW3 9691   1.453   3.986   4.536  0.1390 -0.3297 -1.8655
 2411SOL    MW4 9692   1.460   4.072   4.525  0.1534 -0.1316 -0.3567
 2412SOL     OW 9693   1.578   2.217   4.913  0.0708  0.4650  0.5130
 2412SOL    HW2 9694   1.488   2.202   4.943  0.0000  0.4412  0.2975
 2412SOL    HW3 9695   1.604   2.299   4.955  0.4706 -0.2770  1.7164
 2412SOL    MW4 9696   1.569   2.226   4.922  0.1141  0.3638  0.6433
 2413SOL     OW 9697   1.527   4.109   4.226  0.2285 -0.1702 -0.1738
 2413SOL    HW2 9698   1.456   4.170   4.208 -0.5113 -0.9537  0.0346
 2413SOL    HW3 9699   1.529   4.101   4.321  0.7344  0.0154 -0.1689
 2413SOL    MW4 9700   1.518   4.116   4.236  0.1976 -0.2484 -0.1454
 2414SOL     OW 9701   3.432   3.736   4.679 -0.2864  1.1259 -0.0921
 2414SOL    HW2 9702   3.413   3.680   4.755  1.2485 -0.7786 -1.0532
 2414SOL    HW3 9703   3.347   3.754   4.640 -0.8174 -0.6151  0.2033
 2414SOL    MW4 9704   3.419   3.731   4.684 -0.1538  0.6447 -0.1798
 2415SOL     OW 9705   1.505   3.356   4.545  0.3641 -0.1453 -0.4837
 2415SOL    HW2 9706   1.580   3.407   4.573 -0.0219  1.1103 -1.6650
 2415SOL    HW3 9707   1.501   3.283   4.607  1.8915  0.3630  0.2436
 2415SOL    MW4 9708   1.514   3.353   4.557  0.5146  0.0875 -0.5436
 2416SOL     OW 9709   4.469   4.515   4.290 -1.0284 -0.3169 -0.1840
 2416SOL    HW2 9710   4.500   4.429   4.262 -0.2127 -0.3296  0.7151
 2416SOL    HW3 9711   4.392   4.532   4.236 -0.1186 -0.8103 -1.6390
 2416SOL    MW4 9712   4.463   4.506   4.279 -0.8008 -0.3839 -0.2570
 2417SOL     OW 9713   4.452   0.752   4.669  0.4853  0.7143  0.1800
 2417SOL    HW2 9714   4.469   0.778   4.759  0.7750  0.7745  0.1065
 2417SOL    HW3 9715   4.356   0.751   4.663  0.4599  0.4420  0.5677
 2417SOL    MW4 9716   4.442   0.755   4.680  0.5202  0.6863  0.2217
 2418SOL     OW 9717   0.240   3.061   3.890 -0.0654 -0.4457 -0.1308
 2418SOL    HW2 9718   0.159   3.105   3.864 -0.6096 -1.2191  0.2620
 2418SOL    HW3 9719   0.229   2.970   3.861  0.9485 -0.4008 -0.6965
 2418SOL    MW4 9720   0.228   3.055   3.883 -0.0035 -0.5419 -0.1535
 2419SOL     OW 9721   3.857   1.048   4.662  0.0846 -0.4060 -0.7282
 2419SOL    HW2 9722   3.794   1.014   4.599 -2.8677  0.1469  1.8561
 2419SOL    HW3 9723   3.867   1.141   4.639 -2.1107  0.1531  0.4726
 2419SOL    MW4 9724   3.850   1.056   4.650 -0.5946 -0.2593 -0.2289
 2420SOL     OW 9725   0.913   0.646   4.237  0.2867 -0.0247 -0.4736
 2420SOL    HW2 9726   0.890   0.637   4.330 -1.7152  0.6068 -0.8867
 2420SOL    HW3 9727   0.920   0.556   4.205 -0.1504 -0.2475  0.0426
 2420SOL    MW4 9728   0.911   0.633   4.245 -0.0351  0.0292 -0.4606
 2421SOL     OW 9729   3.380   0.978   4.158  0.4349 -0.0117  0.2091
 2421SOL    HW2 9730   3.304   1.022   4.118 -0.8679 -0.0283  2.6006
 2421SOL    HW3 9731   3.373   0.998   4.251  1.1442 -3.3242  1.0354
 2421SOL    MW4 9732   3.369   0.987   4.165  0.3567 -0.4510  0.6332
 2422SOL     OW 9733   2.258   2.450   3.769  0.0901 -0.3533 -0.0312
 2422SOL    HW2 9734   2.329   2.406   3.817  0.7704  1.0318  0.2508
 2422SOL    HW3 9735   2.275   2.427   3.677  0.3054 -0.8755  0.1355
 2422SOL    MW4 9736   2.270   2.441   3.763  0.2084 -0.2394  0.0277
 2423SOL     OW 9737   2.283   3.227   3.768  0.6029  0.4576  0.4405
 2423SOL    HW2 9738   2.285   3.322   3.784  0.1673  0.0952  2.7361
 2423SOL    HW3 9739   2.199   3.199   3.803  0.6171 -0.7394 -0.4950
 2423SOL    MW4 9740   2.272   3.236   3.775  0.5472  0.2520  0.6201
 2424SOL     OW 9741   3.459   2.392   4.674 -0.0674 -0.0902  0.6577
 2424SOL    HW2 9742   3.365   2.397   4.655 -0.2828  0.1418  1.7248
 2424SOL    HW3 9743   3.473   2.301   4.701 -0.0432 -0.0475  0.7888
 2424SOL    MW4 9744   3.448   2.381   4.675 -0.0925 -0.0541  0.8154
 2425SOL     OW 9745   0.648   0.974   4.279 -0.4085 -0.3371 -0.0201
 2425SOL    HW2 9746   0.714   1.036   4.248 -0.1283  0.7760  2.5993
 2425SOL    HW3 9747   0.653   0.900   4.219  2.1594  0.4182 -0.7805
 2425SOL    MW4 9748   0.658   0.972   4.267 -0.0327 -0.0906  0.2255
 2426SOL     OW 9749   0.275   1.426   4.508 -0.3761 -0.4816 -0.0579
 2426SOL    HW2 9750   0.330   1.407   4.432  0.7114  1.4089  0.2324
 2426SOL    HW3 9751   0.299   1.359   4.572  0.5646 -0.5274 -0.4511
 2426SOL    MW4 9752   0.286   1.415   4.507 -0.1085 -0.2382 -0.0715
 2427SOL     OW 9753   0.300   0.358   4.515 -0.2389  0.2890  0.2088
 2427SOL    HW2 9754   0.226   0.408   4.549  0.2587  0.1131  1.5757
 2427SOL    HW3 9755   0.377   0.412   4.533  0.2741 -0.8298  1.4393
 2427SOL    MW4 9756   0.301   0.371   4.522 -0.1056  0.1182  0.5517
 2428SOL     OW 9757   1.266   3.089   4.508 -0.5593 -0.0270 -0.0627
 2428SOL    HW2 9758   1.333   3.065   4.572 -0.0441  1.7184  0.0940
 2428SOL    HW3 9759   1.307   3.075   4.423  0.0362  1.0618  0.0351
 2428SOL    MW4 9760   1.280   3.084   4.505 -0.4128  0.3469 -0.0286
 2429SOL     OW 9761   4.253   0.757   3.892  0.0640  0.0884  0.1969
 2429SOL    HW2 9762   4.180   0.801   3.850  0.0110 -0.0874  0.1056
 2429SOL    HW3 9763   4.254   0.669   3.854  0.0509 -0.0534  0.5197
 2429SOL    MW4 9764   4.244   0.751   3.882  0.0553  0.0465  0.2277
 2430SOL     OW 9765   2.255   2.929   4.220 -0.2501  0.1011  0.0901
 2430SOL    HW2 9766   2.334   2.979   4.199  0.4005 -0.0038  2.1592
 2430SOL    HW3 9767   2.275   2.839   4.193 -0.4107  0.4330 -1.1650
 2430SOL    MW4 9768   2.268   2.924   4.214 -0.1855  0.1307  0.1974
 2431SOL     OW 9769   3.132   2.681   4.237 -0.5842  0.0849  0.0109
 2431SOL    HW2 9770   3.201   2.639   4.186  0.8516  0.5693  1.5043
 2431SOL    HW3 9771   3.158   2.773   4.242 -0.8583  0.1003  1.3469
 2431SOL    MW4 9772   3.145   2.688   4.231 -0.4308  0.1512  0.3839
 2432SOL     OW 9773   1.578   3.349   4.280  0.1961  0.2118 -0.1467
 2432SOL    HW2 9774   1.559   3.346   4.373 -0.7342  0.7729 -0.3238
 2432SOL    HW3 9775   1.497   3.377   4.239  1.1286  1.7652 -0.9689
 2432SOL    MW4 9776   1.565   3.352   4.287  0.1963  0.4907 -0.2780
 2433SOL     OW 9777   1.603   3.884   3.839  0.2799 -0.3093 -0.2395
 2433SOL    HW2 9778   1.601   3.883   3.934  0.7969  1.0928 -0.1998
 2433SOL    HW3 9779   1.697   3.890   3.817  0.3145 -2.6044 -0.8771
 2433SOL    MW4 9780   1.615   3.885   3.849  0.3526 -0.4272 -0.3183
 2434SOL     OW 9781   2.706   3.449   4.184  0.2965  0.2002 -0.0867
 2434SOL    HW2 9782   2.619   3.414   4.206  0.0392  1.0292  0.2494
 2434SOL    HW3 9783   2.712   3.439   4.089  0.5571 -1.4767  0.0844
 2434SOL    MW4 9784   2.695   3.443   4.175  0.2973  0.0882 -0.0200
 2435SOL     OW 9785   1.819   1.122   3.908  0.4593  0.5562  0.1336
 2435SOL    HW2 9786   1.826   1.036   3.867  0.6134  0.9207 -0.6139
 2435SOL    HW3 9787   1.883   1.176   3.862 -0.3180  1.3255 -0.0629
 2435SOL    MW4 9788   1.828   1.117   3.896  0.3772  0.7058  0.0088
 2436SOL     OW 9789   1.747   1.923   4.194 -0.1130 -0.4712 -0.2375
 2436SOL    HW2 9790   1.757   1.911   4.099  1.8274 -0.7861 -0.0142
 2436SOL    HW3 9791   1.807   1.860   4.233 -1.0236 -0.4641  1.2214
 2436SOL    MW4 9792   1.756   1.913   4.186  0.0229 -0.5118 -0.0153
 2437SOL     OW 9793   2.918   3.059   4.160  0.0604  0.4513 -0.0212
 2437SOL    HW2 9794   2.891   3.136   4.210 -1.0569 -0.7445  1.2266
 2437SOL    HW3 9795   2.998   3.029   4.204 -0.6514 -0.3149  0.7470
 2437SOL    MW4 9796   2.925   3.066   4.173 -0.1810  0.1922  0.2446
 2438SOL     OW 9797   1.558   3.846   4.130  0.4319  0.2495  0.3521
 2438SOL    HW2 9798   1.549   3.934   4.167  1.3075  0.8331 -0.7990
 2438SOL    HW3 9799   1.644   3.817   4.158  1.0775  0.6726 -1.1340
 2438SOL    MW4 9800   1.568   3.854   4.139  0.6325  0.3822  0.0043
 2439SOL     OW 9801   0.233   2.529   4.287  0.5800  0.0052  0.2917
 2439SOL    HW2 9802   0.216   2.441   4.254  0.0211  0.9916 -2.2484
 2439SOL    HW3 9803   0.302   2.563   4.229  1.2128  1.0141  1.6228
 2439SOL    MW4 9804   0.240   2.522   4.275  0.5898  0.2685  0.1321
 2440SOL     OW 9805   3.959   3.179   4.700 -0.3477  0.2204  0.1185
 2440SOL    HW2 9806   3.997   3.255   4.744  0.3199 -0.4978  0.7871
 2440SOL    HW3 9807   3.866   3.201   4.691 -0.1229  1.1985  0.1321
 2440SOL    MW4 9808   3.952   3.192   4.705 -0.2301  0.2549  0.2089
 2441SOL     OW 9809   4.248   3.028   3.884  0.0586  0.2107  0.0362
 2441SOL    HW2 9810   4.214   3.029   3.973  0.8194 -0.8868  0.3503
 2441SOL    HW3 9811   4.182   3.073   3.832 -1.3632 -0.9709  0.7986
 2441SOL    MW4 9812   4.235   3.034   3.889 -0.0286 -0.0899  0.1783
 2442SOL     OW 9813   3.571   2.631   4.743 -0.2960 -0.2881 -0.0408
 2442SOL    HW2 9814   3.531   2.544   4.740  0.1159 -0.4974  0.6449
 2442SOL    HW3 9815   3.571   2.654   4.836  1.3600 -0.3672 -0.0212
 2442SOL    MW4 9816   3.565   2.623   4.755 -0.0234 -0.3262  0.0520
 2443SOL     OW 9817   1.330   2.117   4.249 -0.2220 -0.1096  0.0790
 2443SOL    HW2 9818   1.347   2.039   4.197 -0.6522 -0.8033  0.9568
 2443SOL    HW3 9819   1.400   2.178   4.225  0.2928 -0.8744 -0.3921
 2443SOL    MW4 9820   1.341   2.115   4.239 -0.2109 -0.3021  0.1326
 2444SOL     OW 9821   1.375   2.741   4.165 -0.1115 -0.5366 -0.2368
 2444SOL    HW2 9822   1.385   2.749   4.070  0.2187 -0.9198 -0.2347
 2444SOL    HW3 9823   1.290   2.698   4.177 -1.3028  1.7383 -0.2858
 2444SOL    MW4 9824   1.365   2.736   4.154 -0.2251 -0.2871 -0.2427
 2445SOL     OW 9825   2.498   3.905   4.641 -0.8519  0.1545 -0.0095
 2445SOL    HW2 9826   2.516   3.924   4.733 -0.9421  0.2641 -0.0151
 2445SOL    HW3 9827   2.512   3.989   4.596  0.6654 -0.2446 -0.3073
 2445SOL    MW4 9828   2.503   3.919   4.647 -0.6638  0.1163 -0.0491
 2446SOL     OW 9829   3.008   1.851   4.512 -0.2669  0.0159 -0.1758
 2446SOL    HW2 9830   3.054   1.780   4.558 -0.2532 -0.2144 -0.5387
 2446SOL    HW3 9831   3.007   1.823   4.421 -0.3331  0.4504 -0.3088
 2446SOL    MW4 9832   3.014   1.838   4.506 -0.2737  0.0427 -0.2408
 2447SOL     OW 9833   1.111   3.321   4.504 -0.9158  0.0612  0.5001
 2447SOL    HW2 9834   1.174   3.249   4.510 -2.5126 -1.4306 -0.3490
 2447SOL    HW3 9835   1.157   3.397   4.541  1.0713 -1.1993  0.6334
 2447SOL    MW4 9836   1.125   3.322   4.510 -0.8643 -0.3021  0.4058
 2448SOL     OW 9837   1.341   1.370   4.259  0.0256 -0.1441  0.8895
 2448SOL    HW2 9838   1.358   1.375   4.354  1.4887 -0.5006  0.6508
 2448SOL    HW3 9839   1.342   1.277   4.239 -1.5972 -0.1486  0.7357
 2448SOL    MW4 9840   1.343   1.359   4.269  0.0045 -0.1918  0.8378
 2449SOL     OW 9841   4.462   2.158   4.241  0.4246  0.4085 -0.2971
 2449SOL    HW2 9842   4.536   2.207   4.206  0.9302 -0.6431 -0.7038
 2449SOL    HW3 9843   4.473   2.069   4.208 -0.9483  0.2076 -0.2649
 2449SOL    MW4 9844   4.473   2.153   4.232  0.3104  0.2432 -0.3467
 2450SOL     OW 9845   4.264   0.126   4.489  0.3339 -0.0056  0.1502
 2450SOL    HW2 9846   4.265   0.215   4.522  0.7414  0.1901 -0.3892
 2450SOL    HW3 9847   4.344   0.086   4.524 -0.3997 -0.5049  1.3116
 2450SOL    MW4 9848   4.275   0.132   4.498  0.2904 -0.0457  0.2327
 2451SOL     OW 9849   1.069   3.073   3.876  0.0692  0.1473  0.2515
 2451SOL    HW2 9850   1.085   3.059   3.969  0.8962  0.6027  0.1802
 2451SOL    HW3 9851   1.076   2.986   3.837  2.2452  0.2940  0.2460
 2451SOL    MW4 9852   1.072   3.060   3.883  0.4653  0.2267  0.2415
 2452SOL     OW 9853   4.114   3.736   4.322  0.2240  0.3691  0.0314
 2452SOL    HW2 9854   4.187   3.766   4.268 -0.8876  1.6646 -0.7702
 2452SOL    HW3 9855   4.111   3.641   4.307  1.3821  0.3815 -0.3467
 2452SOL    MW4 9856   4.123   3.727   4.313  0.2298  0.5417 -0.1240
 2453SOL     OW 9857   3.581   4.507   4.475  0.1006  0.0835  0.1420
 2453SOL    HW2 9858   3.576   4.505   4.380 -0.8755 -0.5766  0.1987
 2453SOL    HW3 9859   3.581   4.600   4.497  0.6917  0.2414 -0.5212
 2453SOL    MW4 9860   3.580   4.519   4.465  0.0498  0.0172  0.0615
 2454SOL     OW 9861   1.116   1.244   3.757 -0.0294  0.4686 -0.0558
 2454SOL    HW2 9862   1.099   1.325   3.805  0.8964  1.0317 -0.6764
 2454SOL    HW3 9863   1.188   1.202   3.804 -0.4142  0.0621  0.1832
 2454SOL    MW4 9864   1.123   1.249   3.770  0.0420  0.4892 -0.1061
 2455SOL     OW 9865   2.221   0.358   4.199 -0.2882 -0.1760  0.3574
 2455SOL    HW2 9866   2.289   0.294   4.221 -0.0854  0.5412  1.8625
 2455SOL    HW3 9867   2.142   0.323   4.240 -0.5462 -0.2869 -0.2162
 2455SOL    MW4 9868   2.220   0.345   4.207 -0.2954 -0.0961  0.4802
 2456SOL     OW 9869   1.415   2.519   4.925  0.3817  0.0282 -0.1614
 2456SOL    HW2 9870   1.342   2.459   4.912  0.6796 -0.2397 -0.5960
 2456SOL    HW3 9871   1.414   2.576   4.849  0.6168  0.0276 -0.1673
 2456SOL    MW4 9872   1.405   2.518   4.914  0.4519 -0.0074 -0.2198
 2457SOL     OW 9873   3.786   4.411   4.641  0.1598 -0.1012  0.0451
 2457SOL    HW2 9874   3.724   4.452   4.582  0.4473  1.8734  1.0895
 2457SOL    HW3 9875   3.732   4.356   4.698 -0.3690 -0.1768 -0.5220
 2457SOL    MW4 9876   3.771   4.409   4.641  0.1280  0.1497  0.1082
 2458SOL     OW 9877   0.620   1.780   4.632  0.3405 -0.2210 -0.0353
 2458SOL    HW2 9878   0.665   1.789   4.548  0.0095 -0.5902 -0.2502
 2458SOL    HW3 9879   0.535   1.743   4.611  0.8381 -1.7736  0.6330
 2458SOL    MW4 9880   0.615   1.776   4.619  0.3625 -0.4747  0.0248
 2459SOL     OW 9881   2.481   4.598   4.194 -0.0404 -0.2917 -0.0748
 2459SOL    HW2 9882   2.568   4.570   4.222  0.5724  0.9292 -0.7546
 2459SOL    HW3 9883   2.481   4.693   4.205 -1.9805 -0.4597  1.8486
 2459SOL    MW4 9884   2.493   4.606   4.199 -0.2158 -0.1531  0.0892
 2460SOL     OW 9885   3.154   3.697   4.309 -0.2221  0.4847  0.3358
 2460SOL    HW2 9886   3.066   3.720   4.277 -0.4108 -0.7561 -0.0773
 2460SOL    HW3 9887   3.166   3.606   4.282  0.9226  0.4286  0.9993
 2460SOL    MW4 9888   3.144   3.688   4.301 -0.0963  0.3135  0.3686
 2461SOL     OW 9889   0.470   1.910   4.194 -0.3043  0.3227 -0.5210
 2461SOL    HW2 9890   0.467   1.932   4.101 -0.1582 -0.6511 -0.7610
 2461SOL    HW3 9891   0.387   1.867   4.212  0.5813 -1.5239 -0.7362
 2461SOL    MW4 9892   0.459   1.908   4.184 -0.1682 -0.0495 -0.5813
 2462SOL     OW 9893   3.048   4.034   4.568 -0.4025  0.0646  0.0452
 2462SOL    HW2 9894   2.999   4.035   4.485 -1.5950  1.8760  0.7502
 2462SOL    HW3 9895   3.093   3.949   4.568 -0.7613 -0.1520 -2.2359
 2462SOL    MW4 9896   3.048   4.023   4.557 -0.6068  0.2751 -0.1626
 2463SOL     OW 9897   2.150   1.986   4.619 -0.1574 -0.3719  0.1957
 2463SOL    HW2 9898   2.241   1.954   4.623 -0.3879 -1.1475 -0.4744
 2463SOL    HW3 9899   2.101   1.912   4.583 -1.3312 -0.5056  2.0117
 2463SOL    MW4 9900   2.156   1.972   4.615 -0.3424 -0.4919  0.3467
 2464SOL     OW 9901   0.242   3.050   4.184 -0.6812 -0.7436 -0.0670
 2464SOL    HW2 9902   0.237   3.034   4.089 -0.7802 -1.3592  0.0373
 2464SOL    HW3 9903   0.327   3.015   4.209 -0.5104 -0.2702  0.0171
 2464SOL    MW4 9904   0.253   3.043   4.175 -0.6717 -0.7625 -0.0424
 2465SOL     OW 9905   1.355   4.226   3.842 -0.6085  0.1662  0.0961
 2465SOL    HW2 9906   1.347   4.225   3.937  1.6686 -0.3422  0.3103
 2465SOL    HW3 9907   1.354   4.134   3.816  1.2319  0.1789 -0.1075
 2465SOL    MW4 9908   1.354   4.214   3.851 -0.0653  0.1011  0.0975
 2466SOL     OW 9909   3.036   2.987   4.664  0.1293  0.1791  0.6924
 2466SOL    HW2 9910   3.008   3.053   4.728 -1.1163  0.2011  0.1351
 2466SOL    HW3 9911   2.961   2.976   4.606  1.4759  0.6576 -1.1969
 2466SOL    MW4 9912   3.022   2.994   4.665  0.1423  0.2451  0.3700
 2467SOL     OW 9913   2.460   1.814   4.213 -0.1831 -0.1737 -0.6765
 2467SOL    HW2 9914   2.441   1.723   4.194  1.2745 -0.1721 -2.2890
 2467SOL    HW3 9915   2.375   1.858   4.205 -1.1803 -1.6139  1.7194
 2467SOL    MW4 9916   2.446   1.808   4.209 -0.1223 -0.3635 -0.5732
 2468SOL     OW 9917   1.073   3.649   3.789 -0.1984  0.1358  0.3251
 2468SOL    HW2 9918   1.007   3.606   3.844 -1.1317  2.2786  0.9266
 2468SOL    HW3 9919   1.075   3.740   3.820  1.6479  0.5790 -0.9927
 2468SOL    MW4 9920   1.065   3.655   3.801 -0.0780  0.4771  0.2306
 2469SOL     OW 9921   4.042   4.198   4.179  0.2938  0.1236 -0.0886
 2469SOL    HW2 9922   3.949   4.189   4.201  0.3489  0.6067  0.3784
 2469SOL    HW3 9923   4.043   4.211   4.084 -0.4715  4.2839  0.3478
 2469SOL    MW4 9924   4.030   4.199   4.170  0.2003  0.7358  0.0310
 2470SOL     OW 9925   0.699   1.809   4.324  0.1784 -0.1645  0.4891
 2470SOL    HW2 9926   0.621   1.845   4.283  0.2145 -0.5642  0.0773
 2470SOL    HW3 9927   0.772   1.853   4.280  0.1982 -0.0442  0.6397
 2470SOL    MW4 9928   0.699   1.820   4.313  0.1858 -0.2013  0.4549
 2471SOL     OW 9929   2.708   1.673   3.760  0.0653 -0.1930 -0.0321
 2471SOL    HW2 9930   2.721   1.668   3.665 -2.7643 -0.5445 -0.4519
 2471SOL    HW3 9931   2.772   1.610   3.796 -0.4094 -1.7822 -1.8715
 2471SOL    MW4 9932   2.718   1.664   3.752 -0.3707 -0.4492 -0.3302
 2472SOL     OW 9933   0.663   2.516   4.307  0.0569 -0.4283  0.0642
 2472SOL    HW2 9934   0.745   2.543   4.264  0.1685  2.0917  1.7282
 2472SOL    HW3 9935   0.594   2.556   4.254 -0.0335 -1.5539 -0.6604
 2472SOL    MW4 9936   0.665   2.525   4.295  0.0597 -0.2444  0.1879
 2473SOL     OW 9937   4.016   0.075   4.600  0.1405  0.1007  0.4734
 2473SOL    HW2 9938   4.033   0.119   4.683 -1.1854  0.7379  0.4321
 2473SOL    HW3 9939   4.097   0.084   4.551  0.9781 -0.3908  1.7397
 2473SOL    MW4 9940   4.029   0.082   4.605  0.0758  0.1199  0.6351
 2474SOL     OW 9941   2.168   1.590   4.607  0.3512 -0.0930  0.5516
 2474SOL    HW2 9942   2.238   1.655   4.602 -1.1706  1.5482  0.1191
 2474SOL    HW3 9943   2.090   1.635   4.573 -0.5563 -2.4072 -0.5602
 2474SOL    MW4 9944   2.167   1.605   4.602  0.0305 -0.1818  0.3481
 2475SOL     OW 9945   3.607   2.707   3.894 -0.2078  0.4114 -0.0615
 2475SOL    HW2 9946   3.617   2.620   3.856 -0.5920  0.0541  0.6431
 2475SOL    HW3 9947   3.517   2.732   3.873 -1.1057 -0.6410  2.3219
 2475SOL    MW4 9948   3.597   2.699   3.886 -0.3772  0.2255  0.3459
 2476SOL     OW 9949   1.778   2.948   4.557  0.3256 -0.0305 -0.0047
 2476SOL    HW2 9950   1.833   3.010   4.603  0.0461  0.0469  0.2251
 2476SOL    HW3 9951   1.784   2.974   4.465 -0.4268  0.8330  0.1810
 2476SOL    MW4 9952   1.786   2.959   4.551  0.1895  0.0937  0.0501
 2477SOL     OW 9953   1.317   0.374   4.154  0.1490 -0.2657 -0.2804
 2477SOL    HW2 9954   1.310   0.362   4.059 -1.9544  0.2302 -0.2049
 2477SOL    HW3 9955   1.380   0.308   4.181 -1.2211 -2.2335 -1.6935
 2477SOL    MW4 9956   1.324   0.364   4.145 -0.3092 -0.4599 -0.4568
 2478SOL     OW 9957   2.876   2.555   4.093 -0.3044  0.2167 -0.0651
 2478SOL    HW2 9958   2.967   2.584   4.084  0.0377 -1.3406 -1.9989
 2478SOL    HW3 9959   2.826   2.613   4.035 -0.1877 -0.4976 -0.8852
 2478SOL    MW4 9960   2.881   2.567   4.084 -0.2439 -0.0827 -0.4282
 2479SOL     OW 9961   1.999   0.253   4.312  0.2098  0.2723  0.0255
 2479SOL    HW2 9962   1.933   0.291   4.253  0.1788 -1.9374 -1.4409
 2479SOL    HW3 9963   1.959   0.259   4.399 -1.5077 -0.0670 -0.7092
 2479SOL    MW4 9964   1.985   0.259   4.316 -0.0210 -0.0640 -0.2642
 2480SOL     OW 9965   4.273   4.629   3.860  0.2215  0.3546 -0.2178
 2480SOL    HW2 9966   4.198   4.674   3.820  0.6102  0.0588 -1.2911
 2480SOL    HW3 9967   4.347   4.689   3.847  0.3382  0.2798  0.0992
 2480SOL    MW4 9968   4.273   4.643   3.853  0.2880  0.3057 -0.3176
 2481SOL     OW 9969   2.691   0.646   4.271  0.2125  0.7163  0.1199
 2481SOL    HW2 9970   2.755   0.664   4.202 -0.2154  0.2983 -0.3916
 2481SOL    HW3 9971   2.607   0.674   4.234 -0.0875  0.0328  0.2764
 2481SOL    MW4 9972   2.688   0.652   4.257  0.1163  0.5710  0.0734
 2482SOL     OW 9973   1.117   3.907   4.167  0.2833  0.1628 -0.5352
 2482SOL    HW2 9974   1.085   3.887   4.079  0.3142 -0.2159 -0.4595
 2482SOL    HW3 9975   1.199   3.859   4.175 -1.0013 -1.8937  0.6443
 2482SOL    MW4 9976   1.124   3.898   4.156  0.1179 -0.1583 -0.3695
 2483SOL     OW 9977   1.969   1.719   4.250 -0.1937  0.0108  0.2261
 2483SOL    HW2 9978   1.986   1.634   4.210 -0.1781  1.3654 -2.7559
 2483SOL    HW3 9979   2.040   1.775   4.220  0.6583  0.7442  3.3887
 2483SOL    MW4 9980   1.980   1.715   4.241 -0.0793  0.2862  0.2499
 2484SOL     OW 9981   3.924   1.340   4.649 -0.5095 -0.3227 -0.2044
 2484SOL    HW2 9982   3.911   1.422   4.696 -0.9214  0.0480 -0.9496
 2484SOL    HW3 9983   4.014   1.344   4.616  0.1476 -1.0612  1.4560
 2484SOL    MW4 9984   3.934   1.351   4.651 -0.4771 -0.3712 -0.0839
 2485SOL     OW 9985   1.566   0.755   3.860  0.3968  0.1818 -0.2280
 2485SOL    HW2 9986   1.580   0.742   3.954 -1.4364 -1.5519 -0.1413
 2485SOL    HW3 9987   1.650   0.786   3.827  1.8043 -1.5480  1.5879
 2485SOL    MW4 9988   1.579   0.757   3.868  0.3407 -0.2751  0.0231
 2486SOL     OW 9989   1.809   1.068   4.182 -0.4105 -0.0529  0.0699
 2486SOL    HW2 9990   1.824   1.066   4.087 -0.1716  1.4025  0.0555
 2486SOL    HW3 9991   1.891   1.037   4.220 -0.7529 -1.3218 -0.2042
 2486SOL    MW4 9992   1.822   1.064   4.175 -0.4241 -0.0283  0.0315
 2487SOL     OW 9993   2.043   3.845   3.924 -0.0794  0.3986 -0.1019
 2487SOL    HW2 9994   2.111   3.906   3.895  0.8800 -1.2561 -1.3805
 2487SOL    HW3 9995   2.061   3.764   3.877 -2.0715 -0.5235  0.6559
 2487SOL    MW4 9996   2.054   3.842   3.914 -0.2158  0.0587 -0.1705
 2488SOL     OW 9997   0.398   2.265   4.536  0.3483 -0.6665 -0.3474
 2488SOL    HW2 9998   0.381   2.359   4.544  0.6657 -0.5969 -0.4803
 2488SOL    HW3 9999   0.487   2.254   4.568  0.5670 -0.8182 -1.0017
 2488SOL    MW410000   0.407   2.276   4.542  0.4190 -0.6773 -0.4511
 2489SOL     OW10001   3.356   1.760   4.240  0.1063  0.4184 -0.2513
 2489SOL    HW210002   3.447   1.790   4.233 -0.0140  0.6185 -1.0773
 2489SOL    HW310003   3.352   1.717   4.325  0.7556  1.1537  0.1672
 2489SOL    MW410004   3.368   1.759   4.250  0.1764  0.5417 -0.3057
 2490SOL     OW10005   0.043   3.676   4.286  0.0891 -0.5799 -0.0492
 2490SOL    HW210006   0.042   3.582   4.270  0.4066 -0.6768  0.5211
 2490SOL    HW310007   0.004   3.687   4.372  1.3496 -0.2978  0.4871
 2490SOL    MW410008   0.038   3.665   4.295  0.2973 -0.5558  0.0963
 2491SOL     OW10009   1.107   1.746   4.264  0.0012 -0.1787  0.3941
 2491SOL    HW210010   1.102   1.659   4.225 -2.1335 -0.4915  1.3012
 2491SOL    HW310011   1.109   1.730   4.359  0.3472  0.7268  0.5443
 2491SOL    MW410012   1.107   1.732   4.271 -0.2346 -0.1004  0.5341
 2492SOL     OW10013   3.619   4.240   4.793  0.3971 -0.3043  0.3299
 2492SOL    HW210014   3.590   4.152   4.771  0.0750 -0.3342  0.8536
 2492SOL    HW310015   3.542   4.281   4.833  0.5334  0.2262  0.0526
 2492SOL    MW410016   3.605   4.234   4.796  0.3726 -0.2379  0.3624
 2493SOL     OW10017   0.304   3.063   4.649  0.1504 -0.3922 -0.6301
 2493SOL    HW210018   0.375   3.001   4.635  1.2320  0.6303  0.2676
 2493SOL    HW310019   0.335   3.145   4.609  0.1546  0.4870  1.1287
 2493SOL    MW410020   0.317   3.066   4.642  0.2936 -0.1411 -0.2799
 2494SOL     OW10021   4.151   1.353   4.500 -0.3459  0.0972 -0.0533
 2494SOL    HW210022   4.180   1.432   4.546 -0.3402  1.0149 -1.5867
 2494SOL    HW310023   4.227   1.295   4.501  0.0320  0.5875  0.0574
 2494SOL    MW410024   4.165   1.356   4.506 -0.2956  0.2830 -0.2408
 2495SOL     OW10025   0.448   1.366   4.288  0.1323 -0.1933 -0.5228
 2495SOL    HW210026   0.450   1.277   4.255 -1.7035 -0.4496  0.0061
 2495SOL    HW310027   0.388   1.412   4.228  1.3029  0.7629 -0.9768
 2495SOL    MW410028   0.440   1.361   4.275  0.0446 -0.1009 -0.5136
 2496SOL     OW10029   4.070   1.920   4.635 -0.1431  0.2354  0.1040
 2496SOL    HW210030   4.081   1.867   4.714  0.6900 -0.0810 -0.2139
 2496SOL    HW310031   3.981   1.901   4.606 -0.4035  0.2410  0.8848
 2496SOL    MW410032   4.060   1.910   4.642 -0.0677  0.1944  0.1655
 2497SOL     OW10033   3.153   1.154   3.808 -0.0880 -0.1084 -0.2725
 2497SOL    HW210034   3.232   1.202   3.784 -0.2251  0.4630  0.4077
 2497SOL    HW310035   3.164   1.068   3.767  0.5597  0.2010 -0.7621
 2497SOL    MW410036   3.165   1.149   3.799 -0.0210  0.0079 -0.2475
 2498SOL     OW10037   1.156   0.481   3.747  0.2834  0.0969  0.1121
 2498SOL    HW210038   1.157   0.568   3.788 -0.8189 -1.0395  2.6489
 2498SOL    HW310039   1.149   0.499   3.653  0.2672  2.7514  0.5762
 2498SOL    MW410040   1.156   0.495   3.740  0.1358  0.2972  0.5078
 2499SOL     OW10041   2.940   4.608   3.875  0.1781  0.0736 -0.2935
 2499SOL    HW210042   2.955   4.602   3.970 -1.6901  0.1812  0.0354
 2499SOL    HW310043   3.013   4.660   3.843  0.8506  0.0193  1.0904
 2499SOL    MW410044   2.952   4.614   3.884  0.0203  0.0806 -0.0677
 2500SOL     OW10045   4.132   1.735   4.835 -0.0800 -0.1097  0.0810
 2500SOL    HW210046   4.179   1.676   4.776  0.1171  1.4295 -1.3259
 2500SOL    HW310047   4.184   1.735   4.915  1.3850  0.2199 -0.8573
 2500SOL    MW410048   4.145   1.727   4.838  0.1392  0.1370 -0.2284
 2501SOL     OW10049   2.905   1.489   3.837  0.0291  0.2360 -0.1356
 2501SOL    HW210050   2.981   1.548   3.836 -0.2520  0.5973 -0.1258
 2501SOL    HW310051   2.936   1.410   3.793  0.5685  0.1900  0.3171
 2501SOL    MW410052   2.919   1.487   3.831  0.0637  0.2776 -0.0746
 2502SOL     OW10053   1.080   1.004   4.764  0.3291  0.1033  0.1224
 2502SOL    HW210054   1.029   0.946   4.821 -0.7094  2.6058  1.8581
 2502SOL    HW310055   1.015   1.043   4.706  0.9219  0.0132 -0.6014
 2502SOL    MW410056   1.064   1.002   4.764  0.2702  0.4215  0.2561
 2503SOL     OW10057   2.511   4.634   3.923 -0.2215  0.6021  0.2119
 2503SOL    HW210058   2.429   4.674   3.892 -0.3139  0.7027  0.5884
 2503SOL    HW310059   2.496   4.617   4.016 -0.4249 -0.9553 -0.1006
 2503SOL    MW410060   2.498   4.637   3.931 -0.2606  0.4091  0.2201
 2504SOL     OW10061   0.248   2.012   3.759 -0.8208  0.2417 -0.2288
 2504SOL    HW210062   0.171   1.967   3.793 -0.5004  0.4599  0.8143
 2504SOL    HW310063   0.319   1.987   3.819 -0.3575  1.0527 -0.4284
 2504SOL    MW410064   0.247   2.003   3.772 -0.7174  0.3774 -0.1173
 2505SOL     OW10065   2.523   2.251   4.158  0.1159  0.6248  0.1168
 2505SOL    HW210066   2.527   2.345   4.174 -1.4358  0.6844  0.2561
 2505SOL    HW310067   2.477   2.216   4.234  1.9207 -0.4367  0.7376
 2505SOL    MW410068   2.517   2.259   4.170  0.1493  0.4926  0.2170
 2506SOL     OW10069   3.366   4.060   4.250 -0.3218 -0.0412 -0.1426
 2506SOL    HW210070   3.438   4.114   4.216 -0.7096 -0.0666 -1.0371
 2506SOL    HW310071   3.380   3.974   4.211 -1.2427  0.1499 -0.9339
 2506SOL    MW410072   3.377   4.056   4.240 -0.4945 -0.0196 -0.3648
 2507SOL     OW10073   4.110   3.825   4.598  0.5185  0.0271  0.0310
 2507SOL    HW210074   4.089   3.751   4.654 -0.2489  0.5828  0.4688
 2507SOL    HW310075   4.112   3.788   4.509 -2.5916  0.0153 -0.0709
 2507SOL    MW410076   4.108   3.810   4.593  0.0062  0.0989  0.0749
 2508SOL     OW10077   2.670   3.718   4.278 -0.3280  0.1516 -0.4454
 2508SOL    HW210078   2.672   3.699   4.371  0.5494  0.7831 -0.3249
 2508SOL    HW310079   2.693   3.635   4.236  0.7780  0.2380 -0.0342
 2508SOL    MW410080   2.673   3.704   4.284 -0.0660  0.2463 -0.3748
 2509SOL     OW10081   3.425   3.038   4.133  0.1382 -0.2467  0.1833
 2509SOL    HW210082   3.459   2.975   4.197  1.2063 -0.7864 -0.8886
 2509SOL    HW310083   3.409   3.118   4.184  2.9148 -0.0111  0.7696
 2509SOL    MW410084   3.427   3.040   4.148  0.6454 -0.2868  0.1187
 2510SOL     OW10085   2.260   0.613   4.312  0.5178  0.1739  0.0107
 2510SOL    HW210086   2.247   0.519   4.303  0.8746  0.0521  0.7170
 2510SOL    HW310087   2.282   0.625   4.404  1.6379  0.8058 -0.3358
 2510SOL    MW410088   2.261   0.602   4.323  0.7124  0.2412  0.0582
 2511SOL     OW10089   2.245   3.489   4.135  0.6788  0.0959 -0.0820
 2511SOL    HW210090   2.241   3.571   4.184  0.3045  0.8620 -1.3505
 2511SOL    HW310091   2.186   3.430   4.181 -1.3807  1.4947 -0.8668
 2511SOL    MW410092   2.237   3.492   4.147  0.3576  0.3815 -0.3529
 2512SOL     OW10093   1.764   1.119   3.400  0.1187 -0.1815  0.0001
 2512SOL    HW210094   1.843   1.169   3.419  0.5051 -0.9031  0.3022
 2512SOL    HW310095   1.780   1.033   3.438 -0.6537 -0.4535 -0.2772
 2512SOL    MW410096   1.776   1.115   3.407  0.0679 -0.3124  0.0038
 2513SOL     OW10097   0.696   4.061   4.481  0.4904 -0.0566  0.1773
 2513SOL    HW210098   0.613   4.079   4.524  0.8914  0.3345  0.8002
 2513SOL    HW310099   0.680   4.080   4.389 -0.7047 -2.0394 -0.0396
 2513SOL    MW410100   0.683   4.066   4.474  0.3856 -0.2661  0.2303
 2514SOL     OW10101   3.388   3.806   4.135  0.5651  0.1809  0.1305
 2514SOL    HW210102   3.313   3.760   4.173  0.2996  0.4562 -0.0545
 2514SOL    HW310103   3.462   3.781   4.190 -0.0198  1.5266  1.5735
 2514SOL    MW410104   3.388   3.797   4.147  0.4528  0.3946  0.2966
 2515SOL     OW10105   0.033   4.648   4.534  0.1504  0.2141 -0.0781
 2515SOL    HW210106   0.011   4.606   4.451  1.0040 -0.0134 -0.1954
 2515SOL    HW310107   0.015   4.581   4.600  0.3988  0.0595 -0.1660
 2515SOL    MW410108   0.028   4.633   4.532  0.2958  0.1636 -0.1049
 2516SOL     OW10109   0.270   3.320   4.255  0.0236 -0.2558  0.2149
 2516SOL    HW210110   0.272   3.230   4.224  0.5034  0.0199 -0.5697
 2516SOL    HW310111   0.345   3.362   4.212 -1.4173  1.0662 -1.0983
 2516SOL    MW410112   0.281   3.314   4.245 -0.1032 -0.0448 -0.0615
 2517SOL     OW10113   1.567   0.209   4.214  0.3547 -0.2376  0.6131
 2517SOL    HW210114   1.637   0.274   4.209  1.9236 -2.0345 -1.5966
 2517SOL    HW310115   1.571   0.177   4.304  1.4573  0.6484  0.8999
 2517SOL    MW410116   1.577   0.214   4.226  0.7071 -0.3577  0.3600
 2518SOL     OW10117   1.319   1.742   4.742 -0.5862 -0.0885  0.1213
 2518SOL    HW210118   1.242   1.733   4.685 -0.7071  1.4623  0.0149
 2518SOL    HW310119   1.391   1.761   4.682 -0.4544  0.1600  0.3571
 2518SOL    MW410120   1.318   1.743   4.726 -0.5848  0.1489  0.1378
 2519SOL     OW10121   4.032   2.776   4.453 -0.5396 -0.1627  0.0022
 2519SOL    HW210122   4.077   2.842   4.507 -0.0221  0.0476 -0.6646
 2519SOL    HW310123   3.980   2.725   4.515 -0.5390  0.5470  0.5994
 2519SOL    MW410124   4.031   2.778   4.468 -0.4711 -0.0412 -0.0072
 2520SOL     OW10125   2.041   3.053   4.634 -0.1166  0.4748 -0.7300
 2520SOL    HW210126   2.085   3.094   4.707 -0.9668  0.6116 -0.2835
 2520SOL    HW310127   2.108   3.001   4.590  0.4475  0.5966 -0.0035
 2520SOL    MW410128   2.055   3.052   4.638 -0.1545  0.5090 -0.5751
 2521SOL     OW10129   0.897   1.640   3.812 -0.5826  0.4401  0.0830
 2521SOL    HW210130   0.970   1.584   3.837  0.5500  1.8709  0.0233
 2521SOL    HW310131   0.821   1.599   3.853 -0.0916 -2.1697 -1.4331
 2521SOL    MW410132   0.897   1.627   3.821 -0.3684  0.2844 -0.1249
 2522SOL     OW10133   1.571   2.287   3.902 -0.0938  0.1743  0.3853
 2522SOL    HW210134   1.661   2.313   3.882 -0.4138  0.6263 -0.5047
 2522SOL    HW310135   1.564   2.196   3.874  0.1280  0.0973  0.5847
 2522SOL    MW410136   1.582   2.279   3.896 -0.1068  0.2241  0.2940
 2523SOL     OW10137   0.472   2.917   4.292  0.1906  0.3238  0.1891
 2523SOL    HW210138   0.498   2.900   4.382  2.0243  2.1653  0.0678
 2523SOL    HW310139   0.548   2.960   4.253 -1.7894  2.6908 -1.2491
 2523SOL    MW410140   0.486   2.921   4.298  0.1713  0.8790 -0.0167
 2524SOL     OW10141   3.812   0.468   3.770  0.1376 -0.2942  0.0715
 2524SOL    HW210142   3.873   0.433   3.836  1.7522  0.2316 -1.1096
 2524SOL    HW310143   3.795   0.558   3.798  0.2371 -0.3023  0.1579
 2524SOL    MW410144   3.818   0.475   3.783  0.3638 -0.2259 -0.0730
 2525SOL     OW10145   0.016   0.094   3.811  0.5035 -0.0920 -0.0028
 2525SOL    HW210146   0.042   0.083   3.720 -0.7569  0.4552 -0.4317
 2525SOL    HW310147   0.018   0.189   3.825  0.8719 -0.1856  0.5920
 2525SOL    MW410148   0.020   0.105   3.801  0.3858 -0.0322  0.0191
 2526SOL     OW10149   2.910   2.419   4.689 -0.0162 -0.1745 -0.0604
 2526SOL    HW210150   2.955   2.504   4.694 -0.6459  0.1592  0.0453
 2526SOL    HW310151   2.865   2.422   4.604 -0.3060 -0.2642  0.0901
 2526SOL    MW410152   2.910   2.431   4.678 -0.1373 -0.1423 -0.0262
 2527SOL     OW10153   2.705   1.411   4.194 -0.1566  0.0282  0.3497
 2527SOL    HW210154   2.781   1.448   4.150  0.6319 -0.4409  1.3241
 2527SOL    HW310155   2.730   1.403   4.285 -1.2257 -0.5137  0.6144
 2527SOL    MW410156   2.718   1.415   4.200 -0.1936 -0.1051  0.5136
 2528SOL     OW10157   2.486   0.458   3.850 -0.2407 -0.3686  0.2616
 2528SOL    HW210158   2.487   0.473   3.756 -1.7191  0.8920  0.4250
 2528SOL    HW310159   2.562   0.402   3.866 -0.0052 -0.6488 -1.6778
 2528SOL    MW410160   2.496   0.453   3.840 -0.4048 -0.2393  0.0272
 2529SOL     OW10161   0.247   2.254   3.879  0.3013  0.0236 -0.0521
 2529SOL    HW210162   0.243   2.169   3.834  0.7876  0.8318 -1.6683
 2529SOL    HW310163   0.325   2.296   3.844 -1.0396  1.9613 -0.8010
 2529SOL    MW410164   0.256   2.248   3.868  0.1886  0.3860 -0.3643
 2530SOL     OW10165   1.793   0.370   4.165  0.3909 -0.0865 -0.0469
 2530SOL    HW210166   1.811   0.454   4.207 -0.3898 -0.6167  1.3887
 2530SOL    HW310167   1.797   0.389   4.071  0.7795  1.4268  0.2556
 2530SOL    MW410168   1.796   0.384   4.158  0.3393  0.0432  0.1817
 2531SOL     OW10169   1.763   3.726   4.275  0.0313 -0.3190  0.4910
 2531SOL    HW210170   1.785   3.634   4.260 -0.4813 -0.0277 -2.3560
 2531SOL    HW310171   1.845   3.774   4.259 -0.4232 -0.0324 -1.0374
 2531SOL    MW410172   1.777   3.721   4.271 -0.0964 -0.2425 -0.0863
 2532SOL     OW10173   3.329   4.406   4.586 -0.6416 -0.4500  0.0036
 2532SOL    HW210174   3.322   4.313   4.562 -1.9835 -0.7004  1.3212
 2532SOL    HW310175   3.417   4.431   4.558  0.1337 -2.4153  0.6036
 2532SOL    MW410176   3.340   4.397   4.579 -0.7164 -0.7424  0.2565
 2533SOL     OW10177   4.053   0.362   3.895  0.2280 -0.9042  0.4841
 2533SOL    HW210178   4.125   0.415   3.861  0.1357 -1.7649 -1.1042
 2533SOL    HW310179   4.077   0.343   3.986  1.4930 -0.3054  0.2757
 2533SOL    MW410180   4.065   0.366   3.903  0.3829 -0.9387  0.2468
 2534SOL     OW10181   0.226   3.887   3.902  0.0894 -0.6439  0.1271
 2534SOL    HW210182   0.164   3.941   3.853  0.0086  0.6119  1.5573
 2534SOL    HW310183   0.220   3.800   3.862 -1.8017 -0.2676 -0.4555
 2534SOL    MW410184   0.217   3.883   3.890 -0.1708 -0.4287  0.2391
 2535SOL     OW10185   4.004   2.686   4.181  0.4755 -0.1080 -0.0065
 2535SOL    HW210186   3.980   2.723   4.266  0.5506 -0.0547 -0.0081
 2535SOL    HW310187   3.947   2.610   4.170  0.5041 -0.1467  0.1156
 2535SOL    MW410188   3.993   2.681   4.191  0.4888 -0.1059  0.0091
 2536SOL     OW10189   1.097   3.853   4.595 -0.2985  0.0088  0.3442
 2536SOL    HW210190   1.076   3.946   4.596 -1.6705 -0.2840  0.8331
 2536SOL    HW310191   1.011   3.810   4.588  0.4154 -1.1786 -1.7510
 2536SOL    MW410192   1.083   3.860   4.594 -0.3853 -0.1864  0.1330
 2537SOL     OW10193   2.945   0.246   4.518 -0.0217  0.1892 -0.0280
 2537SOL    HW210194   2.944   0.221   4.426 -0.0772  1.2277 -0.3172
 2537SOL    HW310195   2.894   0.327   4.522  0.7818  0.6696  0.7623
 2537SOL    MW410196   2.938   0.253   4.507  0.0770  0.3896  0.0381
 2538SOL     OW10197   1.578   1.492   4.168  0.2347  0.0297  0.2147
 2538SOL    HW210198   1.491   1.471   4.203  1.0288 -1.3694  1.3902
 2538SOL    HW310199   1.635   1.424   4.203  2.0501  1.6445  0.4900
 2538SOL    MW410200   1.574   1.480   4.177  0.5790  0.0582  0.4058
 2539SOL     OW10201   3.192   2.146   4.263 -0.2130 -0.5141  0.0916
 2539SOL    HW210202   3.208   2.118   4.353  0.4486  0.9223  0.4478
 2539SOL    HW310203   3.244   2.226   4.254 -2.0182  0.5891 -0.8692
 2539SOL    MW410204   3.201   2.153   4.274 -0.3641 -0.1793  0.0114
 2540SOL     OW10205   1.366   3.784   4.523  0.0258 -0.2380  0.3800
 2540SOL    HW210206   1.352   3.759   4.432  0.3428  1.9070 -0.2608
 2540SOL    HW310207   1.281   3.819   4.551  0.4619  0.8657  0.3335
 2540SOL    MW410208   1.353   3.785   4.515  0.1252  0.1907  0.2899
 2541SOL     OW10209   2.249   1.153   3.879  0.0548  0.7390 -0.6075
 2541SOL    HW210210   2.217   1.144   3.968 -0.0146 -2.1567 -0.8707
 2541SOL    HW310211   2.261   1.063   3.849  2.0874  1.6838 -2.7929
 2541SOL    MW410212   2.246   1.140   3.887  0.3135  0.4816 -0.9308
 2542SOL     OW10213   0.245   1.536   3.864 -0.4461 -0.1165 -0.2740
 2542SOL    HW210214   0.160   1.579   3.851 -0.0759  0.8419  0.3899
 2542SOL    HW310215   0.229   1.444   3.843 -1.6883  0.0320 -0.0304
 2542SOL    MW410216   0.232   1.530   3.860 -0.5612  0.0293 -0.1543
 2543SOL     OW10217   3.266   0.811   4.597  0.3035  0.3143  0.0707
 2543SOL    HW210218   3.300   0.877   4.535  0.1121  0.0440 -0.3263
 2543SOL    HW310219   3.345   0.769   4.632  0.3931 -0.0852 -0.5992
 2543SOL    MW410220   3.281   0.814   4.593  0.2902  0.2259 -0.0701
 2544SOL     OW10221   2.646   4.627   4.582 -0.0920  0.4675 -0.3324
 2544SOL    HW210222   2.625   4.715   4.552 -0.3472  0.6154  0.2656
 2544SOL    HW310223   2.729   4.637   4.628 -1.0024  0.7492  1.3147
 2544SOL    MW410224   2.654   4.640   4.585 -0.2456  0.5245 -0.0367
 2545SOL     OW10225   0.809   3.807   4.558  0.8640  0.8308  0.5519
 2545SOL    HW210226   0.840   3.784   4.470 -1.1933  0.7734 -0.2074
 2545SOL    HW310227   0.756   3.886   4.544 -0.1639  0.3375  1.6038
 2545SOL    MW410228   0.806   3.814   4.544  0.4570  0.7582  0.5908
 2546SOL     OW10229   1.547   3.662   4.718  0.2479 -0.5185  0.0302
 2546SOL    HW210230   1.501   3.614   4.786  0.8478 -0.9400  0.1424
 2546SOL    HW310231   1.477   3.698   4.663 -0.2100 -1.6626 -0.1553
 2546SOL    MW410232   1.532   3.660   4.719  0.2667 -0.7250  0.0205
 2547SOL     OW10233   1.466   2.282   4.642  0.3657 -0.6284 -0.1726
 2547SOL    HW210234   1.496   2.243   4.724 -3.1653  0.7606  1.8937
 2547SOL    HW310235   1.420   2.211   4.597  1.7737 -1.2248 -0.6945
 2547SOL    MW410236   1.464   2.267   4.647  0.0858 -0.5236  0.0310
 2548SOL     OW10237   2.733   1.852   4.128  0.0069 -0.4794  0.3052
 2548SOL    HW210238   2.641   1.850   4.156 -0.2971 -1.0163 -0.7399
 2548SOL    HW310239   2.754   1.945   4.122 -0.1392 -0.3460  1.5903
 2548SOL    MW410240   2.724   1.864   4.131 -0.0525 -0.5327  0.3371
 2549SOL     OW10241   2.496   3.100   3.901  0.1265  0.1680 -0.0727
 2549SOL    HW210242   2.574   3.143   3.865 -0.8916  2.6345  0.5788
 2549SOL    HW310243   2.422   3.146   3.861 -1.0061  0.7442  2.5485
 2549SOL    MW410244   2.497   3.112   3.891 -0.1571  0.5696  0.3593
 2550SOL     OW10245   0.450   4.281   3.871 -0.6835 -0.1270 -0.0716
 2550SOL    HW210246   0.467   4.194   3.835  3.2867  0.3847  0.3308
 2550SOL    HW310247   0.432   4.266   3.964 -1.4870 -0.6287 -0.3042
 2550SOL    MW410248   0.450   4.268   3.879 -0.2658 -0.1254 -0.0494
 2551SOL     OW10249   1.104   4.138   4.301 -0.0331  0.1240  0.1003
 2551SOL    HW210250   1.102   4.053   4.256  0.8345  0.3129 -0.3101
 2551SOL    HW310251   1.046   4.194   4.249  0.2575  0.0905 -0.2620
 2551SOL    MW410252   1.096   4.134   4.288  0.1197  0.1450 -0.0014
 2552SOL     OW10253   0.471   3.476   4.135  0.2203 -0.1903 -0.1446
 2552SOL    HW210254   0.548   3.419   4.134 -0.5040 -1.1863 -1.2187
 2552SOL    HW310255   0.443   3.480   4.043  0.9823  2.9363 -0.2894
 2552SOL    MW410256   0.477   3.469   4.122  0.2252  0.0904 -0.3061
 2553SOL     OW10257   2.159   2.182   4.298 -0.7297 -0.2924  0.2012
 2553SOL    HW210258   2.107   2.206   4.374  0.9113  1.8641  0.6783
 2553SOL    HW310259   2.143   2.251   4.234  1.6819  0.5186  0.4367
 2553SOL    MW410260   2.150   2.194   4.300 -0.1953  0.0992  0.2956
 2554SOL     OW10261   1.248   0.349   4.652 -0.3646  0.4697 -0.0131
 2554SOL    HW210262   1.228   0.439   4.628 -1.3162  0.0334 -0.8641
 2554SOL    HW310263   1.174   0.298   4.621  0.5226 -0.7163 -0.2334
 2554SOL    MW410264   1.236   0.354   4.645 -0.3730  0.2556 -0.1545
 2555SOL     OW10265   2.051   1.448   4.163 -0.1286  0.0909 -0.0899
 2555SOL    HW210266   2.117   1.406   4.219  0.0915  0.2025 -0.2649
 2555SOL    HW310267   1.969   1.403   4.185  0.0671 -0.2887 -0.1194
 2555SOL    MW410268   2.049   1.436   4.173 -0.0739  0.0556 -0.1163
 2556SOL     OW10269   1.136   4.619   3.879 -0.2576  0.2971 -0.2013
 2556SOL    HW210270   1.218   4.653   3.844 -0.1558 -0.5732 -0.8241
 2556SOL    HW310271   1.129   4.530   3.843 -1.4368  0.3384 -0.1013
 2556SOL    MW410272   1.146   4.611   3.869 -0.3999  0.1884 -0.2704
 2557SOL     OW10273   2.377   1.778   4.641 -0.0328 -0.5382 -0.0168
 2557SOL    HW210274   2.443   1.808   4.579 -1.1276  0.4356 -0.7268
 2557SOL    HW310275   2.400   1.819   4.724 -0.9734  1.5529 -0.7599
 2557SOL    MW410276   2.389   1.787   4.644 -0.3016 -0.1339 -0.2089
 2558SOL     OW10277   2.715   2.412   3.799 -0.0923  0.2545 -0.1332
 2558SOL    HW210278   2.749   2.418   3.709  1.0861 -2.1098  0.1217
 2558SOL    HW310279   2.743   2.493   3.841 -0.1275  1.1070 -1.7143
 2558SOL    MW410280   2.723   2.424   3.792  0.0589  0.0548 -0.3085
 2559SOL     OW10281   4.074   4.225   3.897 -0.2696 -0.1962 -0.8740
 2559SOL    HW210282   4.086   4.144   3.848 -1.5897 -2.9717  3.1328
 2559SOL    HW310283   3.998   4.267   3.855  0.0607 -1.3170 -2.6248
 2559SOL    MW410284   4.065   4.220   3.885 -0.4005 -0.7100 -0.5763
 2560SOL     OW10285   3.582   0.351   3.841  0.6168  0.1409  0.0419
 2560SOL    HW210286   3.577   0.259   3.815  1.1729 -0.5202  2.1889
 2560SOL    HW310287   3.662   0.383   3.800  0.3591 -0.2829 -0.8098
 2560SOL    MW410288   3.592   0.343   3.832  0.6564 -0.0023  0.2127
 2561SOL     OW10289   0.433   3.490   3.856  0.0091 -0.1473 -0.2741
 2561SOL    HW210290   0.497   3.519   3.790  2.3789 -0.6981  1.7014
 2561SOL    HW310291   0.435   3.395   3.850  1.4192 -0.2583  1.6435
 2561SOL    MW410292   0.442   3.481   3.847  0.5078 -0.2344  0.2398
 2562SOL     OW10293   0.474   3.739   4.244  0.1456  0.1158 -0.1141
 2562SOL    HW210294   0.382   3.764   4.230 -0.1422 -0.2071  1.1771
 2562SOL    HW310295   0.480   3.650   4.208 -0.4775 -0.5350  1.3682
 2562SOL    MW410296   0.462   3.731   4.237  0.0255 -0.0126  0.2518
 2563SOL     OW10297   4.052   3.491   3.879  0.8862 -0.6288  0.3651
 2563SOL    HW210298   4.064   3.401   3.850 -0.4643 -1.0937  1.2268
 2563SOL    HW310299   4.075   3.490   3.972  0.6463 -0.1347  0.4312
 2563SOL    MW410300   4.057   3.479   3.888  0.6766 -0.6249  0.4876
 2564SOL     OW10301   0.023   2.923   4.314 -0.1243 -0.0672 -0.1208
 2564SOL    HW210302   0.085   2.973   4.261 -0.3221 -0.7389 -1.0014
 2564SOL    HW310303   0.005   2.844   4.262 -1.7641  0.1463  0.1039
 2564SOL    MW410304   0.029   2.919   4.300 -0.3667 -0.1280 -0.2079
 2565SOL     OW10305   1.450   1.062   4.525 -0.4774  0.1159  0.1642
 2565SOL    HW210306   1.398   1.140   4.546 -0.6917 -0.1331  0.5565
 2565SOL    HW310307   1.391   0.989   4.540 -0.0070 -0.1698  0.6225
 2565SOL    MW410308   1.436   1.063   4.530 -0.4435  0.0454  0.2766
 2566SOL     OW10309   4.158   0.748   4.717 -0.4187  0.0812  0.5585
 2566SOL    HW210310   4.093   0.774   4.782 -0.3541  0.5961  0.4184
 2566SOL    HW310311   4.117   0.675   4.671 -1.9158  1.9285 -1.1378
 2566SOL    MW410312   4.144   0.742   4.720 -0.6075  0.3929  0.3171
 2567SOL     OW10313   2.946   3.094   3.893 -0.2989  0.1518 -0.0285
 2567SOL    HW210314   3.005   3.167   3.877 -1.9460  1.2910 -1.0936
 2567SOL    HW310315   2.935   3.092   3.988 -0.4773  1.4959 -0.0125
 2567SOL    MW410316   2.952   3.103   3.903 -0.5393  0.4797 -0.1669
 2568SOL     OW10317   1.604   0.732   4.138  0.5033  0.6154 -0.7349
 2568SOL    HW210318   1.696   0.716   4.162  0.2490  0.4637  0.1600
 2568SOL    HW310319   1.581   0.813   4.183 -0.7237 -0.9868  1.5817
 2568SOL    MW410320   1.613   0.741   4.147  0.3078  0.3840 -0.3109
 2569SOL     OW10321   1.782   0.381   3.875 -0.3874  0.0123 -0.1792
 2569SOL    HW210322   1.792   0.286   3.868 -0.5420 -0.0436  0.3747
 2569SOL    HW310323   1.862   0.416   3.835  0.4844 -0.3853  1.2182
 2569SOL    MW410324   1.794   0.373   3.868 -0.2928 -0.0475  0.0784
 2570SOL     OW10325   1.212   2.346   4.782  0.0402 -0.4943  0.0635
 2570SOL    HW210326   1.136   2.384   4.736 -0.4025  0.0171  1.1920
 2570SOL    HW310327   1.272   2.321   4.712 -0.1373  1.3081 -0.7742
 2570SOL    MW410328   1.210   2.348   4.767 -0.0416 -0.1891  0.1020
 2571SOL     OW10329   0.915   2.214   4.489  0.1773  0.2679  0.4749
 2571SOL    HW210330   0.824   2.201   4.517 -0.3365  2.9719  0.1606
 2571SOL    HW310331   0.911   2.217   4.394  0.4744  1.1487  0.4861
 2571SOL    MW410332   0.903   2.213   4.480  0.1487  0.7412  0.4349
 2572SOL     OW10333   0.691   3.843   4.119 -0.3235 -0.0145 -0.5075
 2572SOL    HW210334   0.689   3.937   4.140  1.2714 -0.1757  0.4738
 2572SOL    HW310335   0.606   3.810   4.148 -0.0181  0.7057  1.2738
 2572SOL    MW410336   0.680   3.851   4.125 -0.0728  0.0594 -0.1431
 2573SOL     OW10337   1.794   3.730   4.590 -0.1959  0.4124  0.5311
 2573SOL    HW210338   1.768   3.741   4.499  1.1380 -1.5020 -0.1018
 2573SOL    HW310339   1.712   3.712   4.637 -1.0496  2.6131 -0.0511
 2573SOL    MW410340   1.779   3.729   4.584 -0.1326  0.4504  0.3710
 2574SOL     OW10341   2.474   3.866   3.907 -0.2568 -0.0108 -0.4015
 2574SOL    HW210342   2.449   3.874   3.999  1.5136 -0.0148  0.0926
 2574SOL    HW310343   2.566   3.893   3.904 -0.4121  0.4391 -2.2468
 2574SOL    MW410344   2.483   3.871   3.919 -0.0434  0.0482 -0.5796
 2575SOL     OW10345   3.803   0.473   4.584 -0.1303  0.2530 -0.1203
 2575SOL    HW210346   3.716   0.496   4.550  0.5857  1.6879 -1.0500
 2575SOL    HW310347   3.813   0.380   4.562 -1.2096  0.2083 -0.4754
 2575SOL    MW410348   3.793   0.464   4.576 -0.1781  0.4364 -0.2904
 2576SOL     OW10349   1.372   2.063   4.514 -0.3549  0.8333 -0.1361
 2576SOL    HW210350   1.367   2.068   4.419 -0.6876 -0.4978 -0.2013
 2576SOL    HW310351   1.281   2.051   4.542 -0.0708 -0.7210  0.2000
 2576SOL    MW410352   1.359   2.062   4.505 -0.3614  0.4528 -0.1001
 2577SOL     OW10353   1.806   4.482   4.301  0.0551 -0.5782  0.0819
 2577SOL    HW210354   1.805   4.389   4.279  1.0582 -0.5086 -0.3174
 2577SOL    HW310355   1.877   4.518   4.247  1.2060 -0.0171  1.9282
 2577SOL    MW410356   1.815   4.474   4.291  0.3393 -0.4950  0.2732
 2578SOL     OW10357   2.482   4.394   3.794 -0.0111  0.4377 -0.1981
 2578SOL    HW210358   2.502   4.475   3.842 -1.4879  0.5438  0.2386
 2578SOL    HW310359   2.407   4.357   3.839 -0.0752 -0.5826 -1.1282
 2578SOL    MW410360   2.475   4.400   3.806 -0.2141  0.3171 -0.2632
 2579SOL     OW10361   2.273   2.683   4.130 -0.1470  0.1211 -0.6478
 2579SOL    HW210362   2.191   2.651   4.169 -0.9480  0.8432 -1.6913
 2579SOL    HW310363   2.251   2.696   4.038  1.4157 -0.5419 -1.1219
 2579SOL    MW410364   2.259   2.681   4.123 -0.0463  0.1287 -0.8473
 2580SOL     OW10365   3.132   4.223   3.913 -0.1330  0.0156 -0.4436
 2580SOL    HW210366   3.209   4.262   3.872  1.1182 -3.1312 -1.1820
 2580SOL    HW310367   3.156   4.213   4.005  0.2780 -0.7628 -0.6308
 2580SOL    MW410368   3.145   4.227   3.920  0.0865 -0.5026 -0.5660
 2581SOL     OW10369   2.227   3.726   4.308  0.3636  0.1679 -0.1804
 2581SOL    HW210370   2.242   3.726   4.402 -1.0835  1.3942  0.0585
 2581SOL    HW310371   2.307   3.765   4.271  1.3554 -1.2345  0.4452
 2581SOL    MW410372   2.240   3.731   4.315  0.3033  0.1447 -0.0663
 2582SOL     OW10373   0.668   0.724   3.844  0.3202 -0.0411 -0.4293
 2582SOL    HW210374   0.658   0.637   3.804 -1.2704 -1.0685  2.0836
 2582SOL    HW310375   0.596   0.776   3.808  1.6871  0.4775 -2.4755
 2582SOL    MW410376   0.657   0.719   3.834  0.2908 -0.1082 -0.3676
 2583SOL     OW10377   2.683   4.357   4.486 -0.1100 -0.4483  0.0030
 2583SOL    HW210378   2.671   4.445   4.521 -0.5424 -0.7807  0.6998
 2583SOL    HW310379   2.760   4.323   4.531  0.4259 -0.1957 -0.7240
 2583SOL    MW410380   2.691   4.364   4.497 -0.0966 -0.4587 -0.0005
 2584SOL     OW10381   3.329   2.514   4.086 -0.0417  0.3224 -0.5257
 2584SOL    HW210382   3.330   2.454   4.011  1.0839 -0.8840  0.4175
 2584SOL    HW310383   3.420   2.542   4.096 -0.0431 -0.1120  0.8334
 2584SOL    MW410384   3.341   2.510   4.078  0.1066  0.1061 -0.2222
 2585SOL     OW10385   3.786   4.107   4.238 -0.7082 -0.8354 -0.0881
 2585SOL    HW210386   3.770   4.104   4.332  0.0718  0.9248  0.1118
 2585SOL    HW310387   3.815   4.018   4.216 -0.2202 -1.0611  1.4433
 2585SOL    MW410388   3.788   4.095   4.247 -0.5410 -0.6328  0.1402
 2586SOL     OW10389   0.981   4.362   4.686 -0.3354  0.2336  0.3277
 2586SOL    HW210390   0.963   4.280   4.640  0.5440  0.2916 -0.1290
 2586SOL    HW310391   0.965   4.342   4.778 -0.6773 -0.2916  0.1580
 2586SOL    MW410392   0.977   4.349   4.692 -0.2645  0.1721  0.2451
 2587SOL     OW10393   3.880   1.595   4.767 -0.2171  0.3656 -0.0084
 2587SOL    HW210394   3.958   1.631   4.807  0.4712  0.5411 -1.4565
 2587SOL    HW310395   3.864   1.651   4.691 -0.9333 -0.5111 -0.5172
 2587SOL    MW410396   3.888   1.607   4.762 -0.2210  0.2731 -0.2666
 2588SOL     OW10397   0.903   0.386   4.132  0.1530 -0.3950  0.0601
 2588SOL    HW210398   0.909   0.378   4.037 -1.6454 -0.1129 -0.1011
 2588SOL    HW310399   0.971   0.328   4.166  1.1298 -0.1249 -1.4017
 2588SOL    MW410400   0.912   0.378   4.124  0.0446 -0.3221 -0.1540
 2589SOL     OW10401   0.019   4.245   4.207  0.1146  0.3804  0.2215
 2589SOL    HW210402   0.093   4.190   4.234  0.4634  0.6096 -0.2459
 2589SOL    HW310403  -0.056   4.186   4.207  0.4227 -0.0204  0.0621
 2589SOL    MW410404   0.019   4.230   4.210  0.2013  0.3576  0.1388
 2590SOL     OW10405   1.670   1.089   4.685 -0.0339  0.1821  0.2481
 2590SOL    HW210406   1.662   1.178   4.720  0.3271 -0.3438  1.7090
 2590SOL    HW310407   1.586   1.072   4.642 -0.3856  0.9549  0.6323
 2590SOL    MW410408   1.658   1.098   4.684 -0.0327  0.2147  0.4921
 2591SOL     OW10409   2.913   0.986   4.163 -0.3222 -0.0835  0.0192
 2591SOL    HW210410   2.886   0.895   4.156  1.0187 -0.4521 -0.5260
 2591SOL    HW310411   2.832   1.036   4.151 -1.1056 -1.1946  0.5782
 2591SOL    MW410412   2.899   0.981   4.160 -0.2489 -0.2788  0.0210
 2592SOL     OW10413   3.390   2.074   3.763 -0.4331  0.2988 -0.4125
 2592SOL    HW210414   3.393   2.078   3.668  1.1580  0.7501 -0.3647
 2592SOL    HW310415   3.307   2.030   3.783 -1.0532  0.7290 -1.9746
 2592SOL    MW410416   3.380   2.069   3.753 -0.3049  0.4148 -0.6123
 2593SOL     OW10417   1.350   4.502   4.239 -0.3162  0.0672 -0.4057
 2593SOL    HW210418   1.293   4.579   4.238 -0.8216 -0.2719  0.8772
 2593SOL    HW310419   1.431   4.531   4.196 -1.4076  0.5878 -2.1270
 2593SOL    MW410420   1.353   4.516   4.233 -0.5269  0.0911 -0.4635
 2594SOL     OW10421   2.223   4.347   4.572 -0.3890 -0.4750 -0.2354
 2594SOL    HW210422   2.148   4.288   4.580 -0.0121 -1.0200 -0.7096
 2594SOL    HW310423   2.209   4.394   4.490 -0.2138 -0.5632 -0.3140
 2594SOL    MW410424   2.211   4.346   4.562 -0.3161 -0.5589 -0.3080
 2595SOL     OW10425   3.306   4.139   4.500 -0.1800 -0.0145  0.6448
 2595SOL    HW210426   3.335   4.114   4.412 -0.4672  0.8878  0.2865
 2595SOL    HW310427   3.221   4.095   4.511 -0.2857  0.1132  0.3493
 2595SOL    MW410428   3.298   4.130   4.490 -0.2317  0.1216  0.5584
 2596SOL     OW10429   2.922   3.367   4.546  0.5633 -0.2123  0.1467
 2596SOL    HW210430   2.922   3.336   4.456 -0.2370 -0.0865  0.1047
 2596SOL    HW310431   2.838   3.340   4.582  0.8609 -0.2288  0.8462
 2596SOL    MW410432   2.911   3.359   4.539  0.4969 -0.1979  0.2337
 2597SOL     OW10433   3.591   0.613   4.198 -0.1757  0.3331 -0.2450
 2597SOL    HW210434   3.653   0.681   4.171  0.4266  0.5799  1.7007
 2597SOL    HW310435   3.505   0.647   4.172  0.3220  0.7727 -1.3642
 2597SOL    MW410436   3.588   0.626   4.191 -0.0305  0.4236 -0.1359
 2598SOL     OW10437   1.618   2.519   4.524 -0.1252  0.1034  0.4373
 2598SOL    HW210438   1.582   2.432   4.544  0.3717 -0.0564  0.6618
 2598SOL    HW310439   1.603   2.530   4.430 -2.5421  0.8827  0.8935
 2598SOL    MW410440   1.611   2.509   4.514 -0.3785  0.1850  0.5274
 2599SOL     OW10441   0.155   3.744   4.687  0.6450  0.0365 -0.0871
 2599SOL    HW210442   0.163   3.770   4.779 -0.9828 -0.1004  0.1172
 2599SOL    HW310443   0.217   3.673   4.676  0.5482 -0.2319  1.0348
 2599SOL    MW410444   0.164   3.738   4.697  0.4174 -0.0169  0.0887
 2600SOL     OW10445   4.256   2.281   3.874  0.2762  0.6769  0.1421
 2600SOL    HW210446   4.185   2.323   3.825  0.1271  0.8959  0.5364
 2600SOL    HW310447   4.336   2.320   3.839  0.2268  0.0346 -0.6754
 2600SOL    MW410448   4.257   2.292   3.863  0.2499  0.6208  0.0863
 2601SOL     OW10449   2.622   1.914   3.865  0.4171  0.1083 -0.1148
 2601SOL    HW210450   2.658   1.829   3.838  0.1445  0.0025 -0.1391
 2601SOL    HW310451   2.648   1.922   3.957 -1.8743 -1.2250  0.6850
 2601SOL    MW410452   2.630   1.904   3.873  0.0789 -0.0817 -0.0124
 2602SOL     OW10453   1.586   4.597   3.869 -0.0957  0.0157  0.1204
 2602SOL    HW210454   1.601   4.576   3.961  0.6573 -0.4082 -0.0902
 2602SOL    HW310455   1.600   4.515   3.823 -1.8043 -0.0876 -0.2514
 2602SOL    MW410456   1.590   4.583   3.875 -0.2218 -0.0534  0.0436
 2603SOL     OW10457   0.682   3.318   4.215 -0.5964 -0.2218  0.1000
 2603SOL    HW210458   0.670   3.353   4.303 -1.2952  0.3551 -0.2142
 2603SOL    HW310459   0.743   3.379   4.173 -0.7981 -0.1101 -0.0326
 2603SOL    MW410460   0.689   3.331   4.221 -0.7152 -0.1309  0.0405
 2604SOL     OW10461   0.144   1.830   4.523 -0.0221 -0.0770  0.0688
 2604SOL    HW210462   0.050   1.815   4.523 -0.0525 -0.0029  1.6902
 2604SOL    HW310463   0.154   1.923   4.542  0.3760 -0.1843  0.4020
 2604SOL    MW410464   0.133   1.840   4.525  0.0264 -0.0813  0.3266
 2605SOL     OW10465   3.841   1.807   4.290 -0.4094 -0.2409 -0.3557
 2605SOL    HW210466   3.838   1.724   4.241 -0.8160  1.8973 -4.1630
 2605SOL    HW310467   3.765   1.856   4.258  0.2771  1.9353  1.2504
 2605SOL    MW410468   3.831   1.803   4.279 -0.3726  0.3284 -0.6461
 2606SOL     OW10469   1.383   4.568   4.515 -0.0496 -0.0346  0.2397
 2606SOL    HW210470   1.384   4.526   4.429 -2.3234  0.9741 -0.3105
 2606SOL    HW310471   1.421   4.655   4.500  0.4802 -0.2201  0.4737
 2606SOL    MW410472   1.388   4.574   4.502 -0.2795  0.0744  0.1979
 2607SOL     OW10473   1.206   1.278   4.675 -0.4143  0.0406 -0.2586
 2607SOL    HW210474   1.236   1.337   4.744  1.2748 -0.7427 -0.2881
 2607SOL    HW310475   1.188   1.195   4.720  0.2115 -0.3236 -0.6503
 2607SOL    MW410476   1.208   1.275   4.690 -0.1088 -0.1107 -0.3138
 2608SOL     OW10477   3.422   3.289   4.538 -0.2206  0.1507  0.7457
 2608SOL    HW210478   3.365   3.360   4.567 -0.2260 -0.5405  2.5004
 2608SOL    HW310479   3.364   3.212   4.533  0.1428 -0.1159  0.5638
 2608SOL    MW410480   3.407   3.288   4.541 -0.1736  0.0243  0.9537
 2609SOL     OW10481   2.478   1.290   3.734 -0.4147 -0.0987 -0.0955
 2609SOL    HW210482   2.562   1.249   3.755 -0.8037 -0.5824  0.5309
 2609SOL    HW310483   2.413   1.236   3.779 -1.1068 -0.0439 -1.0150
 2609SOL    MW410484   2.481   1.278   3.743 -0.5572 -0.1553 -0.1342
 2610SOL     OW10485   3.037   0.941   4.677 -0.1276  0.3668  0.0733
 2610SOL    HW210486   3.012   0.987   4.597  1.3464  0.8167 -0.1465
 2610SOL    HW310487   3.119   0.897   4.655 -2.5624 -4.2803 -0.4294
 2610SOL    MW410488   3.044   0.941   4.664 -0.2544 -0.1870 -0.0219
 2611SOL     OW10489   1.104   3.372   4.234 -0.1397 -0.3795  0.0751
 2611SOL    HW210490   1.033   3.415   4.187 -0.2845 -1.8713 -1.1131
 2611SOL    HW310491   1.073   3.364   4.324 -0.2967  1.5366  0.2091
 2611SOL    MW410492   1.091   3.377   4.240 -0.1796 -0.3238 -0.0644
 2612SOL     OW10493   0.654   2.211   4.613  0.0304 -0.1135 -0.0245
 2612SOL    HW210494   0.686   2.292   4.654 -0.3322  0.0212 -0.0063
 2612SOL    HW310495   0.670   2.143   4.679  0.1655 -0.0271  0.0322
 2612SOL    MW410496   0.661   2.213   4.627  0.0004 -0.0842 -0.0148
 2613SOL     OW10497   2.004   3.072   4.137  0.1948  0.2294  0.1592
 2613SOL    HW210498   2.077   3.027   4.179  0.5268  1.6570  1.1294
 2613SOL    HW310499   1.926   3.037   4.180  0.3171 -0.8999 -0.5048
 2613SOL    MW410500   2.004   3.061   4.148  0.2549  0.2687  0.1993
 2614SOL     OW10501   1.136   0.719   3.879 -0.1104  0.1435 -0.2904
 2614SOL    HW210502   1.052   0.756   3.853 -0.7276 -0.7636  0.3740
 2614SOL    HW310503   1.146   0.744   3.971 -0.2776 -0.8474  0.0063
 2614SOL    MW410504   1.126   0.727   3.888 -0.2139 -0.1069 -0.1638
 2615SOL     OW10505   2.794   2.994   4.511 -0.2336  0.9452 -0.4581
 2615SOL    HW210506   2.737   3.013   4.437 -0.4811  1.7037 -0.0842
 2615SOL    HW310507   2.751   2.923   4.558 -1.1264  1.8447  0.0966
 2615SOL    MW410508   2.781   2.987   4.508 -0.3841  1.1640 -0.3352
 2616SOL     OW10509   2.051   2.596   4.258 -0.0425  0.0545  0.0469
 2616SOL    HW210510   2.069   2.598   4.352  1.3538  0.7982 -0.2377
 2616SOL    HW310511   2.042   2.503   4.237 -0.8477 -0.0889  1.0016
 2616SOL    MW410512   2.052   2.584   4.267  0.0355  0.1338  0.1354
 2617SOL     OW10513   0.227   3.850   4.178 -0.5544  0.0404 -0.5405
 2617SOL    HW210514   0.153   3.796   4.206 -0.1466  0.1140  0.7280
 2617SOL    HW310515   0.217   3.858   4.083 -1.3117 -1.2175 -0.5733
 2617SOL    MW410516   0.216   3.844   4.169 -0.6005 -0.1159 -0.3777
 2618SOL     OW10517   2.515   3.432   4.518  0.3770 -0.1210 -0.1083
 2618SOL    HW210518   2.477   3.402   4.435  1.1948  1.8954 -1.2466
 2618SOL    HW310519   2.549   3.352   4.559 -0.5133 -1.2167 -1.4361
 2618SOL    MW410520   2.514   3.417   4.513  0.3676  0.0007 -0.4339
 2619SOL     OW10521   3.883   0.246   4.215 -0.2152 -0.4216  0.3192
 2619SOL    HW210522   3.858   0.248   4.307 -0.3450  0.0779  0.2692
 2619SOL    HW310523   3.814   0.294   4.169  0.1665 -0.1352  0.0355
 2619SOL    MW410524   3.871   0.252   4.221 -0.1822 -0.3179  0.2751
 2620SOL     OW10525   2.684   0.367   4.169 -0.2785 -0.1735 -0.1271
 2620SOL    HW210526   2.769   0.330   4.195  0.2497  0.5016 -0.8705
 2620SOL    HW310527   2.690   0.460   4.193 -0.3382  0.1376 -1.2757
 2620SOL    MW410528   2.696   0.374   4.175 -0.2167 -0.0434 -0.3772
 2621SOL     OW10529   2.821   2.035   4.445  0.2018  0.1568 -0.3999
 2621SOL    HW210530   2.877   1.960   4.467 -1.6026 -0.9436  0.5558
 2621SOL    HW310531   2.810   2.081   4.527 -0.8637 -0.0246 -0.4416
 2621SOL    MW410532   2.827   2.031   4.458 -0.1771 -0.0122 -0.2789
 2622SOL     OW10533   0.450   2.651   4.179 -0.0747 -0.0708 -0.1646
 2622SOL    HW210534   0.449   2.738   4.219  1.4704  0.1343 -0.5340
 2622SOL    HW310535   0.464   2.668   4.086 -0.6477 -0.6772 -0.3656
 2622SOL    MW410536   0.452   2.665   4.172  0.0536 -0.1240 -0.2394
 2623SOL     OW10537   3.579   4.230   4.126 -0.2829  0.3420  0.2240
 2623SOL    HW210538   3.593   4.323   4.142  1.2166 -0.1535  1.9370
 2623SOL    HW310539   3.660   4.188   4.155 -0.3011 -1.3577 -2.0420
 2623SOL    MW410540   3.592   4.237   4.131 -0.0873  0.0520  0.1512
 2624SOL     OW10541   0.201   2.289   4.150 -0.0733  0.5283 -0.3556
 2624SOL    HW210542   0.277   2.242   4.185 -0.7628  0.6946  1.3575
 2624SOL    HW310543   0.223   2.302   4.057  1.3146 -0.7666 -0.2297
 2624SOL    MW410544   0.214   2.285   4.142  0.0188  0.3796 -0.1130
 2625SOL     OW10545   0.548   0.506   4.573 -0.2971 -0.0741  0.2234
 2625SOL    HW210546   0.579   0.582   4.622  0.6505  0.6336 -1.4116
 2625SOL    HW310547   0.626   0.451   4.561 -0.5111 -0.2281 -0.5018
 2625SOL    MW410548   0.562   0.509   4.577 -0.2003 -0.0010 -0.0877
 2626SOL     OW10549   1.769   2.185   4.245  0.2916 -0.2101 -0.5179
 2626SOL    HW210550   1.775   2.195   4.340  2.5345 -0.8345 -0.5701
 2626SOL    HW310551   1.770   2.091   4.231 -0.0679 -0.1188 -1.1586
 2626SOL    MW410552   1.770   2.174   4.256  0.5400 -0.2806 -0.6094
 2627SOL     OW10553   2.768   2.124   4.103  0.4995 -0.3063 -0.3521
 2627SOL    HW210554   2.828   2.162   4.167  0.6889 -0.7794 -0.2445
 2627SOL    HW310555   2.683   2.165   4.121  0.5914 -0.3081  0.0879
 2627SOL    MW410556   2.765   2.134   4.114  0.5367 -0.3688 -0.2799
 2628SOL     OW10557   2.045   3.314   4.529  0.1680 -0.2478 -0.5433
 2628SOL    HW210558   2.120   3.359   4.567 -0.0811 -0.0856 -0.2352
 2628SOL    HW310559   2.047   3.226   4.567 -0.5799  0.1877  0.5297
 2628SOL    MW410560   2.055   3.308   4.539  0.0365 -0.1688 -0.3605
 2629SOL     OW10561   2.739   4.444   4.226 -0.2377 -0.2780 -0.2471
 2629SOL    HW210562   2.725   4.430   4.320 -0.5522 -1.3252 -0.4391
 2629SOL    HW310563   2.738   4.356   4.189  0.2003  0.1106 -1.1953
 2629SOL    MW410564   2.737   4.430   4.234 -0.2217 -0.3648 -0.3972
 2630SOL     OW10565   2.987   2.693   4.676  0.4062 -0.1996  0.1546
 2630SOL    HW210566   3.023   2.774   4.712  1.1391 -0.0192 -0.9357
 2630SOL    HW310567   2.895   2.712   4.660  0.3049  0.0296  1.0025
 2630SOL    MW410568   2.979   2.706   4.678  0.4897 -0.1457  0.1221
 2631SOL     OW10569   3.809   1.535   4.162  0.2602  0.1991 -0.5826
 2631SOL    HW210570   3.888   1.497   4.199  0.7293  0.3883 -1.3829
 2631SOL    HW310571   3.739   1.474   4.186  0.6065  0.1504  0.3258
 2631SOL    MW410572   3.810   1.522   4.170  0.3681  0.2177 -0.5679
 2632SOL     OW10573   3.646   0.996   4.483  0.1729 -0.4947 -0.2125
 2632SOL    HW210574   3.648   1.092   4.480  1.0320 -0.4527  1.2628
 2632SOL    HW310575   3.680   0.969   4.398  0.3615  0.5085 -0.4624
 2632SOL    MW410576   3.651   1.005   4.471  0.3109 -0.3569 -0.0505
 2633SOL     OW10577   0.336   2.545   4.574  0.4038 -0.2273 -0.3328
 2633SOL    HW210578   0.260   2.556   4.633  0.9851  0.8790  0.2243
 2633SOL    HW310579   0.300   2.558   4.487 -0.4174 -1.5986 -0.2080
 2633SOL    MW410580   0.321   2.548   4.570  0.3721 -0.2623 -0.2432
 2634SOL     OW10581   2.470   1.004   4.171  0.4028 -0.5238  0.6231
 2634SOL    HW210582   2.380   1.035   4.163  0.9481  0.5052 -1.8749
 2634SOL    HW310583   2.489   1.009   4.265 -1.8224  0.1053  1.0625
 2634SOL    MW410584   2.461   1.009   4.183  0.1812 -0.3051  0.3514
 2635SOL     OW10585   4.123   0.331   4.143  0.1460 -0.4985 -0.5938
 2635SOL    HW210586   4.037   0.297   4.169  0.3236  0.3000  1.1107
 2635SOL    HW310587   4.183   0.258   4.156  0.2544 -0.0818  1.4797
 2635SOL    MW410588   4.119   0.317   4.148  0.1836 -0.3382 -0.0949
 2636SOL     OW10589   0.090   2.894   4.591 -0.5882 -0.1369  0.2737
 2636SOL    HW210590   0.152   2.965   4.609 -0.4683  0.1129 -1.0434
 2636SOL    HW310591   0.073   2.901   4.497 -1.7878 -0.8807  0.4267
 2636SOL    MW410592   0.096   2.904   4.581 -0.7306 -0.2022  0.1202
 2637SOL     OW10593   2.464   0.730   4.173  0.5435  0.0879  0.0547
 2637SOL    HW210594   2.391   0.700   4.227  2.6144 -0.5013  2.6201
 2637SOL    HW310595   2.451   0.825   4.166 -0.4801 -0.0136  0.4779
 2637SOL    MW410596   2.452   0.739   4.179  0.6814 -0.0032  0.4487
 2638SOL     OW10597   1.763   1.900   3.918 -0.2765 -0.1926  0.6124
 2638SOL    HW210598   1.776   1.817   3.872  0.8408  0.5040 -0.3600
 2638SOL    HW310599   1.837   1.954   3.890  0.1108  0.4422  2.8047
 2638SOL    MW410600   1.775   1.896   3.908 -0.0782 -0.0170  0.7734
 2639SOL     OW10601   2.526   1.284   4.460 -0.2082  0.3573 -0.0616
 2639SOL    HW210602   2.496   1.194   4.472  0.5858  0.4096  2.6018
 2639SOL    HW310603   2.474   1.335   4.522 -0.1472  1.6558 -1.0487
 2639SOL    MW410604   2.515   1.279   4.469 -0.0951  0.5355  0.1593
 2640SOL     OW10605   0.869   3.244   3.815 -0.3854  0.1024  0.0738
 2640SOL    HW210606   0.948   3.191   3.830 -0.4131  0.1632  0.4469
 2640SOL    HW310607   0.852   3.235   3.721  0.2358  0.3231 -0.0665
 2640SOL    MW410608   0.877   3.236   3.805 -0.3071  0.1397  0.1044
 2641SOL     OW10609   2.467   1.006   4.468 -0.1172  0.3266 -0.1725
 2641SOL    HW210610   2.519   0.931   4.497  0.4532  0.9356  0.4071
 2641SOL    HW310611   2.376   0.980   4.483  0.1141  0.0619  0.7699
 2641SOL    MW410612   2.462   0.993   4.474 -0.0112  0.3719  0.0277
 2642SOL     OW10613   3.216   0.090   4.771  0.1954 -0.0533  0.0451
 2642SOL    HW210614   3.134   0.044   4.757  0.9188 -0.8009 -2.0405
 2642SOL    HW310615   3.203   0.176   4.729  0.7580 -0.5197 -1.1296
 2642SOL    MW410616   3.204   0.096   4.763  0.3650 -0.2135 -0.3848
 2643SOL     OW10617   1.314   1.101   4.160 -0.7595 -0.4901  0.1240
 2643SOL    HW210618   1.317   1.105   4.065 -2.0638  0.5489  0.1114
 2643SOL    HW310619   1.390   1.049   4.185  0.1062  0.0196 -1.4390
 2643SOL    MW410620   1.324   1.095   4.151 -0.8174 -0.2859 -0.0839
 2644SOL     OW10621   3.405   1.496   4.126 -0.0423 -0.3325  0.4675
 2644SOL    HW210622   3.324   1.457   4.160  0.1244 -0.8513  0.2805
 2644SOL    HW310623   3.404   1.586   4.158 -0.6798 -0.3478  0.4924
 2644SOL    MW410624   3.394   1.503   4.135 -0.1044 -0.4030  0.4458
 2645SOL     OW10625   4.312   4.041   4.519  0.5685 -0.0974  0.6955
 2645SOL    HW210626   4.240   3.996   4.564  0.2693 -1.0542 -0.7167
 2645SOL    HW310627   4.280   4.131   4.508 -0.1623 -0.3580  0.6362
 2645SOL    MW410628   4.298   4.047   4.524  0.4325 -0.2575  0.5012
 2646SOL     OW10629   3.753   4.124   4.513 -0.3820 -0.1686  0.2344
 2646SOL    HW210630   3.787   4.214   4.520 -1.2488  0.1857  0.0356
 2646SOL    HW310631   3.696   4.114   4.589  0.0085 -0.6891  0.4610
 2646SOL    MW410632   3.750   4.135   4.524 -0.4449 -0.1903  0.2384
 2647SOL     OW10633   0.866   3.298   4.602  0.4024  0.6374 -0.4143
 2647SOL    HW210634   0.885   3.291   4.695  0.8552  1.4397 -0.4372
 2647SOL    HW310635   0.951   3.294   4.559  0.0658 -1.7143 -0.9479
 2647SOL    MW410636   0.879   3.297   4.608  0.4178  0.4327 -0.4873
 2648SOL     OW10637   0.597   2.629   4.568  0.0742  0.3005 -0.0131
 2648SOL    HW210638   0.509   2.596   4.582  0.2022 -0.0691 -0.0546
 2648SOL    HW310639   0.621   2.596   4.481  0.1396  0.6500 -0.1296
 2648SOL    MW410640   0.589   2.620   4.558  0.0997  0.2978 -0.0343
 2649SOL     OW10641   2.734   4.173   4.145 -0.4513  0.0571 -0.0668
 2649SOL    HW210642   2.728   4.170   4.050 -1.9379 -0.1024  0.0303
 2649SOL    HW310643   2.646   4.155   4.176  0.0750 -0.1882  1.3535
 2649SOL    MW410644   2.722   4.170   4.137 -0.5779  0.0033  0.1335
 2650SOL     OW10645   0.627   3.369   4.484  0.0447 -0.4302  0.3808
 2650SOL    HW210646   0.707   3.344   4.532 -0.8762 -1.7715  1.2572
 2650SOL    HW310647   0.619   3.463   4.499  1.3476 -0.3108  0.4600
 2650SOL    MW410648   0.637   3.378   4.493  0.0951 -0.5913  0.5069
 2651SOL     OW10649   4.045   0.606   4.212  0.0611 -0.2101 -0.2684
 2651SOL    HW210650   4.114   0.667   4.188  1.3164 -1.0321  1.1586
 2651SOL    HW310651   4.079   0.520   4.185 -1.1476 -0.4420 -1.1124
 2651SOL    MW410652   4.058   0.602   4.205  0.0672 -0.3491 -0.1917
 2652SOL     OW10653   3.585   1.149   3.791 -0.0833  0.4454  0.3369
 2652SOL    HW210654   3.512   1.200   3.756 -0.8044 -0.9928 -0.3389
 2652SOL    HW310655   3.663   1.190   3.754 -0.6846  0.6799 -0.7104
 2652SOL    MW410656   3.586   1.161   3.781 -0.2580  0.2866  0.1092
 2653SOL     OW10657   4.145   3.038   4.580 -0.2690 -0.9358 -0.0219
 2653SOL    HW210658   4.073   3.089   4.618  0.8923  1.4290 -0.8717
 2653SOL    HW310659   4.221   3.059   4.635  0.7259  0.0953 -1.7424
 2653SOL    MW410660   4.145   3.048   4.592  0.0153 -0.4876 -0.3605
 2654SOL     OW10661   1.358   0.624   4.283  0.2093 -0.0029 -0.0016
 2654SOL    HW210662   1.358   0.541   4.235 -0.6659 -0.4523  0.7863
 2654SOL    HW310663   1.438   0.668   4.252 -0.0594 -0.5061 -1.4894
 2654SOL    MW410664   1.369   0.619   4.272  0.0585 -0.1286 -0.0935
 2655SOL     OW10665   4.394   3.043   4.750  0.1641 -0.0009  0.3327
 2655SOL    HW210666   4.443   2.994   4.684  0.6663  0.5461  0.2961
 2655SOL    HW310667   4.386   2.982   4.823  0.6170 -0.2063  0.2150
 2655SOL    MW410668   4.399   3.029   4.751  0.2899  0.0443  0.3119
 2656SOL     OW10669   2.698   0.841   4.491 -0.1329 -0.1496 -0.0374
 2656SOL    HW210670   2.705   0.795   4.575  1.1640  1.6066  0.8414
 2656SOL    HW310671   2.710   0.772   4.425 -0.4304 -1.4210  1.2022
 2656SOL    MW410672   2.700   0.826   4.493 -0.0007 -0.0855  0.2418
 2657SOL     OW10673   0.667   0.985   4.573  0.6284 -0.1491  0.1888
 2657SOL    HW210674   0.666   0.967   4.479  0.9908 -0.2907  0.2114
 2657SOL    HW310675   0.748   1.035   4.587  0.6223 -0.2095  0.4387
 2657SOL    MW410676   0.678   0.990   4.562  0.6754 -0.1757  0.2251
 2658SOL     OW10677   1.202   0.602   4.523 -0.2186  0.0363  0.2724
 2658SOL    HW210678   1.211   0.696   4.540 -0.4754 -0.0750  1.0752
 2658SOL    HW310679   1.276   0.580   4.467 -0.6755  0.9022 -0.6831
 2658SOL    MW410680   1.213   0.612   4.518 -0.3128  0.1358  0.2522
 2659SOL     OW10681   0.932   4.535   4.274 -0.2101  0.3053 -0.1724
 2659SOL    HW210682   0.981   4.561   4.352 -0.3409 -1.6364  0.5703
 2659SOL    HW310683   0.862   4.600   4.267  0.3194  0.9991  0.8088
 2659SOL    MW410684   0.929   4.547   4.283 -0.1575  0.1402  0.0548
 2660SOL     OW10685   2.456   1.524   4.152 -0.0944 -0.3301 -0.1030
 2660SOL    HW210686   2.534   1.476   4.181 -0.5638 -0.7036  0.5297
 2660SOL    HW310687   2.469   1.535   4.058  0.2654 -1.2362 -0.1644
 2660SOL    MW410688   2.468   1.519   4.144 -0.1087 -0.4990 -0.0277
 2661SOL     OW10689   3.850   3.069   4.157 -0.2225  0.4033 -0.3489
 2661SOL    HW210690   3.944   3.049   4.153 -0.3895 -0.5325  0.2480
 2661SOL    HW310691   3.819   3.027   4.237 -1.4425 -0.5619 -1.2968
 2661SOL    MW410692   3.858   3.061   4.167 -0.4053  0.1523 -0.3958
 2662SOL     OW10693   0.003   1.118   4.109 -0.4266 -0.2086  0.1230
 2662SOL    HW210694  -0.078   1.084   4.148  0.3255 -1.3478  0.7257
 2662SOL    HW310695   0.072   1.086   4.167  0.6601 -1.3222 -1.7300
 2662SOL    MW410696   0.001   1.109   4.122 -0.1840 -0.5060 -0.0415
 2663SOL     OW10697   2.566   0.573   4.669  0.1978 -0.0479 -0.3732
 2663SOL    HW210698   2.498   0.621   4.621  2.2298  1.1294 -2.2160
 2663SOL    HW310699   2.522   0.496   4.704 -1.8995  0.2865 -2.1756
 2663SOL    MW410700   2.552   0.569   4.667  0.1891  0.1516 -0.8535
 2664SOL     OW10701   1.533   3.599   3.787 -0.4105 -0.0779  0.1076
 2664SOL    HW210702   1.550   3.691   3.808 -0.5747 -0.4131  1.7813
 2664SOL    HW310703   1.612   3.553   3.816 -0.2726 -0.4588 -0.8464
 2664SOL    MW410704   1.546   3.605   3.794 -0.4139 -0.1724  0.2024
 2665SOL     OW10705   2.499   0.733   3.872  0.1830 -0.4841 -0.1317
 2665SOL    HW210706   2.512   0.640   3.853  2.2261 -0.9697  3.1796
 2665SOL    HW310707   2.485   0.736   3.966  1.4935  2.6681  0.0095
 2665SOL    MW410708   2.499   0.721   3.882  0.6256 -0.1323  0.3240
 2666SOL     OW10709   0.271   1.536   4.156 -0.2808  0.3126  0.2875
 2666SOL    HW210710   0.185   1.503   4.179  0.0265 -0.1732  0.7759
 2666SOL    HW310711   0.283   1.515   4.064  0.1409 -1.4720  0.7310
 2666SOL    MW410712   0.261   1.529   4.147 -0.1846  0.0132  0.4110
 2667SOL     OW10713   1.152   2.606   4.279  0.2529  0.2866 -0.4836
 2667SOL    HW210714   1.061   2.621   4.253  0.1634  0.1728 -0.2442
 2667SOL    HW310715   1.176   2.522   4.240 -0.4431 -0.7376  1.2205
 2667SOL    MW410716   1.143   2.597   4.271  0.1491  0.1364 -0.2275
 2668SOL     OW10717   0.187   0.988   4.295 -0.1208 -0.1846  0.5766
 2668SOL    HW210718   0.214   0.903   4.259 -0.2972 -0.0435  0.1093
 2668SOL    HW310719   0.268   1.039   4.299 -0.2701  0.1737 -0.6512
 2668SOL    MW410720   0.202   0.984   4.291 -0.1637 -0.1187  0.3529
 2669SOL     OW10721   2.896   2.241   3.899  0.0936 -0.1503 -0.0492
 2669SOL    HW210722   2.828   2.297   3.862 -0.0178 -0.3786 -0.1939
 2669SOL    HW310723   2.857   2.204   3.978  0.0553 -0.2703 -0.1244
 2669SOL    MW410724   2.882   2.244   3.904  0.0737 -0.1962 -0.0782
 2670SOL     OW10725   2.932   2.860   3.754 -0.0794  0.0078 -0.5594
 2670SOL    HW210726   3.011   2.807   3.768  0.0003  0.3262  0.2467
 2670SOL    HW310727   2.954   2.945   3.793 -0.5501  0.3386 -1.0097
 2670SOL    MW410728   2.946   2.864   3.761 -0.1309  0.0935 -0.5124
 2671SOL     OW10729   4.265   4.309   4.442 -0.1474  0.1688  0.1264
 2671SOL    HW210730   4.325   4.376   4.409  0.3342 -0.0340  0.5975
 2671SOL    HW310731   4.190   4.359   4.475  1.0117  0.6150  2.2014
 2671SOL    MW410732   4.263   4.325   4.442  0.0691  0.2007  0.4621
 2672SOL     OW10733   2.532   2.238   4.804 -0.2234 -0.2656 -0.0920
 2672SOL    HW210734   2.498   2.308   4.861  0.1442  0.6147 -0.9466
 2672SOL    HW310735   2.544   2.280   4.719 -1.1144 -1.6748 -0.9278
 2672SOL    MW410736   2.529   2.253   4.800 -0.2928 -0.3352 -0.3147
 2673SOL     OW10737   0.012   3.415   4.162 -0.4993  0.1379 -0.3176
 2673SOL    HW210738   0.081   3.363   4.203 -0.6897  1.4423  1.7565
 2673SOL    HW310739  -0.069   3.381   4.201 -0.8711 -0.1018 -1.2962
 2673SOL    MW410740   0.010   3.404   4.173 -0.5735  0.2782 -0.1731
 2674SOL     OW10741   2.237   3.727   4.582  0.2480 -0.6487  0.9419
 2674SOL    HW210742   2.152   3.769   4.598  1.2517  1.5604  0.6240
 2674SOL    HW310743   2.301   3.793   4.607  1.8796 -0.8884 -2.4018
 2674SOL    MW410744   2.234   3.741   4.588  0.5958 -0.3889  0.4587
 2675SOL     OW10745   3.592   0.075   3.734 -0.2787  0.1617  0.0332
 2675SOL    HW210746   3.604   0.055   3.641 -1.8202 -1.0349  0.0692
 2675SOL    HW310747   3.672   0.043   3.775 -0.1125 -0.4363 -0.7259
 2675SOL    MW410748   3.604   0.068   3.727 -0.4599 -0.0751 -0.0622
 2676SOL     OW10749   1.815   1.341   4.254 -0.2035  0.0499 -0.0489
 2676SOL    HW210750   1.827   1.253   4.217  0.7415 -0.5994  1.7896
 2676SOL    HW310751   1.816   1.328   4.348 -0.2202  2.0297  0.2381
 2676SOL    MW410752   1.817   1.327   4.261 -0.0809  0.2253  0.2313
 2677SOL     OW10753   1.994   2.063   3.787 -0.4863 -0.6928  0.2987
 2677SOL    HW210754   2.065   2.012   3.825  0.8803  0.9664  0.0187
 2677SOL    HW310755   2.000   2.047   3.693  0.7273  0.9397  0.0864
 2677SOL    MW410756   2.004   2.054   3.779 -0.1462 -0.2584  0.2337
 2678SOL     OW10757   1.090   1.740   4.582 -0.7620  0.4984 -0.0750
 2678SOL    HW210758   1.004   1.709   4.609 -0.4311  0.1134  0.5412
 2678SOL    HW310759   1.080   1.835   4.575 -1.4756  0.3712 -0.8922
 2678SOL    MW410760   1.077   1.748   4.585 -0.8124  0.4307 -0.1011
 2679SOL     OW10761   2.948   1.522   4.107 -0.0730  0.4098  0.2935
 2679SOL    HW210762   2.954   1.537   4.012  0.3741  0.6374  0.3563
 2679SOL    HW310763   2.948   1.610   4.145 -1.9694  0.3744  0.4082
 2679SOL    MW410764   2.949   1.535   4.099 -0.2642  0.4351  0.3161
 2680SOL     OW10765   0.668   2.285   4.175  0.2657  0.5460  0.1574
 2680SOL    HW210766   0.641   2.366   4.219 -1.1060 -0.5486  1.4052
 2680SOL    HW310767   0.590   2.229   4.179  0.2700  0.2136 -3.2603
 2680SOL    MW410768   0.654   2.289   4.181  0.0852  0.3579 -0.1292
 2681SOL     OW10769   4.334   1.825   4.534  0.4219  0.2136 -0.6508
 2681SOL    HW210770   4.311   1.809   4.443 -0.0848 -1.1795 -0.2795
 2681SOL    HW310771   4.268   1.886   4.566  0.4866  0.5455 -1.1578
 2681SOL    MW410772   4.323   1.831   4.527  0.3643  0.0737 -0.6685
 2682SOL     OW10773   3.601   1.106   4.054  0.0967 -0.0683 -0.1009
 2682SOL    HW210774   3.513   1.069   4.062 -0.4924  1.1594 -0.8471
 2682SOL    HW310775   3.611   1.125   3.961  1.0143  0.1413  0.0363
 2682SOL    MW410776   3.591   1.104   4.043  0.1402  0.1215 -0.1807
 2683SOL     OW10777   1.796   2.440   3.791 -0.0588 -0.3920  0.1826
 2683SOL    HW210778   1.884   2.418   3.820 -0.4970 -0.3065  1.6308
 2683SOL    HW310779   1.782   2.529   3.824 -0.0323  0.2812 -1.5754
 2683SOL    MW410780   1.806   2.449   3.799 -0.1131 -0.2918  0.1414
 2684SOL     OW10781   3.369   1.639   4.483 -0.2905  0.0225 -0.1468
 2684SOL    HW210782   3.301   1.653   4.549  0.2343  1.1694  0.1522
 2684SOL    HW310783   3.400   1.550   4.500 -1.1769 -0.2238  0.2100
 2684SOL    MW410784   3.364   1.629   4.494 -0.3383  0.1414 -0.0606
 2685SOL     OW10785   2.555   0.216   4.515 -0.1894  0.0547  0.1264
 2685SOL    HW210786   2.502   0.237   4.593  0.3161  1.4184  0.1243
 2685SOL    HW310787   2.609   0.294   4.502  1.6751 -1.2363 -0.0139
 2685SOL    MW410788   2.555   0.229   4.524  0.1233  0.0643  0.1073
 2686SOL     OW10789   3.584   1.930   3.907  0.0459  0.1481  0.1977
 2686SOL    HW210790   3.515   1.973   3.857  0.3494 -1.3479 -1.5513
 2686SOL    HW310791   3.589   1.841   3.870  0.2488 -1.0197  2.8973
 2686SOL    MW410792   3.575   1.924   3.896  0.1128 -0.2034  0.3233
 2687SOL     OW10793   0.149   2.113   4.626  0.1170  0.0226 -0.0205
 2687SOL    HW210794   0.072   2.168   4.611  0.9392  1.1256 -0.2415
 2687SOL    HW310795   0.223   2.170   4.608  0.9755 -1.8318 -2.5409
 2687SOL    MW410796   0.148   2.128   4.622  0.3387 -0.0768 -0.3824
 2688SOL     OW10797   0.439   4.146   4.516  0.1600  0.0198 -0.0735
 2688SOL    HW210798   0.398   4.108   4.438 -0.5449 -0.9835  0.7694
 2688SOL    HW310799   0.444   4.240   4.497  0.7650 -0.3135 -1.6625
 2688SOL    MW410800   0.434   4.153   4.503  0.1468 -0.1564 -0.1717
 2689SOL     OW10801   3.242   1.160   4.612  0.1160 -0.2917 -0.3404
 2689SOL    HW210802   3.186   1.105   4.667  0.7451 -0.9804 -0.3790
 2689SOL    HW310803   3.182   1.224   4.573 -0.5774 -0.7685 -0.0739
 2689SOL    MW410804   3.227   1.161   4.614  0.1075 -0.4455 -0.3104
 2690SOL     OW10805   1.303   4.243   4.121 -0.3262  0.2465 -0.4046
 2690SOL    HW210806   1.243   4.201   4.183 -0.6467 -0.1066 -0.9531
 2690SOL    HW310807   1.312   4.333   4.155  0.2857 -0.2228  0.7027
 2690SOL    MW410808   1.296   4.250   4.134 -0.2878  0.1383 -0.3314
 2691SOL     OW10809   2.924   0.213   4.245 -0.0968  0.3919 -0.5561
 2691SOL    HW210810   3.010   0.246   4.220  0.4491 -1.3528 -1.0763
 2691SOL    HW310811   2.919   0.127   4.204 -1.5330 -0.1163  0.6448
 2691SOL    MW410812   2.935   0.206   4.236 -0.2141  0.0947 -0.4659
 2692SOL     OW10813   0.674   3.068   3.908 -0.0322 -0.4330 -0.1101
 2692SOL    HW210814   0.694   3.034   3.995 -1.1098  1.1051  0.7691
 2692SOL    HW310815   0.745   3.129   3.890 -0.3501  0.0190  0.1461
 2692SOL    MW410816   0.686   3.071   3.917 -0.2164 -0.1705  0.0398
 2693SOL     OW10817   4.046   3.486   4.198  0.0228 -0.3441 -0.4426
 2693SOL    HW210818   4.113   3.428   4.233 -0.4533 -1.5492 -1.4751
 2693SOL    HW310819   3.963   3.444   4.222 -0.3137 -0.4909 -1.8130
 2693SOL    MW410820   4.044   3.473   4.206 -0.0844 -0.5221 -0.7596
 2694SOL     OW10821   0.332   0.055   4.521  0.0149 -0.0741 -0.1209
 2694SOL    HW210822   0.239   0.039   4.536 -0.5304  0.0637 -3.0970
 2694SOL    HW310823   0.342   0.149   4.529 -0.2182 -0.0308 -0.3216
 2694SOL    MW410824   0.321   0.065   4.524 -0.0878 -0.0502 -0.5398
 2695SOL     OW10825   3.599   2.616   4.147  0.2256 -0.2790  0.0927
 2695SOL    HW210826   3.603   2.666   4.065 -1.1466  1.0659  0.8250
 2695SOL    HW310827   3.690   2.592   4.164  0.7108  0.6438 -1.0876
 2695SOL    MW410828   3.611   2.620   4.139  0.1085  0.0203  0.0339
 2696SOL     OW10829   4.459   1.148   3.837 -0.1220 -0.2210  0.2615
 2696SOL    HW210830   4.488   1.132   3.926  0.3334 -0.4598  0.0703
 2696SOL    HW310831   4.453   1.061   3.797 -0.6903 -0.1441  0.1722
 2696SOL    MW410832   4.462   1.134   3.843 -0.1369 -0.2424  0.2244
 2697SOL     OW10833   3.193   2.604   4.505 -0.5005 -0.6846  0.0560
 2697SOL    HW210834   3.176   2.639   4.417 -1.6561 -1.5793 -0.0884
 2697SOL    HW310835   3.120   2.636   4.558  0.2360 -0.0822  0.7236
 2697SOL    MW410836   3.181   2.613   4.500 -0.5558 -0.7231  0.1249
 2698SOL     OW10837   2.649   3.684   4.535  0.1113 -0.4339  0.4161
 2698SOL    HW210838   2.613   3.595   4.530 -1.2233  0.1656 -0.8031
 2698SOL    HW310839   2.576   3.737   4.568  0.5681  0.4032  0.0766
 2698SOL    MW410840   2.635   3.679   4.539 -0.0045 -0.2446  0.2108
 2699SOL     OW10841   1.105   2.036   3.784 -0.2966 -0.0630 -0.2990
 2699SOL    HW210842   1.180   1.982   3.808 -0.8170 -1.0806 -0.9035
 2699SOL    HW310843   1.131   2.125   3.807  0.3704 -0.6319  1.2032
 2699SOL    MW410844   1.118   2.041   3.790 -0.2772 -0.2720 -0.1805
 2700SOL     OW10845   1.834   0.615   4.249  0.4153 -0.1337 -0.0714
 2700SOL    HW210846   1.917   0.661   4.240  0.1489  0.5764  0.9943
 2700SOL    HW310847   1.821   0.606   4.343 -1.0003  0.2956 -0.2080
 2700SOL    MW410848   1.843   0.620   4.260  0.1932  0.0166  0.0505
 2701SOL     OW10849   0.229   0.254   4.265  0.1752  0.5114  0.1925
 2701SOL    HW210850   0.245   0.279   4.356  1.0616 -2.0914  0.7690
 2701SOL    HW310851   0.227   0.159   4.266 -1.8679  0.4719 -2.1857
 2701SOL    MW410852   0.231   0.245   4.277  0.0225  0.1628 -0.0448
 2702SOL     OW10853   2.670   2.919   4.267  0.4611 -0.2237  0.3457
 2702SOL    HW210854   2.670   2.825   4.252 -0.0164  0.0429 -1.4543
 2702SOL    HW310855   2.750   2.950   4.225 -0.2560  0.3836 -0.6013
 2702SOL    MW410856   2.681   2.911   4.259  0.3037 -0.1082 -0.0167
 2703SOL     OW10857   0.659   0.711   4.131  0.3252 -0.2846  0.4385
 2703SOL    HW210858   0.747   0.681   4.153 -0.4761 -1.3283  2.4026
 2703SOL    HW310859   0.653   0.700   4.036  3.3320  2.7191 -0.1753
 2703SOL    MW410860   0.670   0.706   4.121  0.6162 -0.0260  0.6170
 2704SOL     OW10861   4.261   1.029   4.232 -0.1858  0.2052 -0.0891
 2704SOL    HW210862   4.280   1.035   4.326 -1.0576 -0.5905  0.1524
 2704SOL    HW310863   4.168   1.050   4.226 -0.2547 -0.2919 -0.7132
 2704SOL    MW410864   4.251   1.033   4.244 -0.3099  0.0347 -0.1392
 2705SOL     OW10865   1.330   3.743   4.229 -0.3190  0.2955  0.0619
 2705SOL    HW210866   1.344   3.649   4.214  0.8853  0.5282 -0.2874
 2705SOL    HW310867   1.399   3.786   4.179 -1.4876  1.4252 -0.5981
 2705SOL    MW410868   1.341   3.736   4.221 -0.3145  0.4752 -0.0715
 2706SOL     OW10869   3.437   1.379   4.501 -0.1363 -0.0200  0.1639
 2706SOL    HW210870   3.522   1.337   4.504 -0.4159 -0.5049  2.2630
 2706SOL    HW310871   3.379   1.320   4.549 -0.6528  2.4306  2.6799
 2706SOL    MW410872   3.440   1.366   4.508 -0.2413  0.2393  0.7730
 2707SOL     OW10873   0.225   4.636   4.207 -0.9754  0.0816  0.0444
 2707SOL    HW210874   0.140   4.598   4.227 -0.8683 -0.5623 -0.6955
 2707SOL    HW310875   0.220   4.660   4.115 -0.3957  0.1433  0.0246
 2707SOL    MW410876   0.213   4.635   4.198 -0.8848  0.0043 -0.0558
 2708SOL     OW10877   0.467   0.369   4.158 -0.1557 -0.0440  0.2242
 2708SOL    HW210878   0.379   0.333   4.164  0.5813 -1.9226 -0.1497
 2708SOL    HW310879   0.466   0.445   4.216 -1.6724 -0.7446  1.1188
 2708SOL    MW410880   0.456   0.375   4.166 -0.2586 -0.3843  0.2923
 2709SOL     OW10881   2.536   1.936   4.455  0.1038  0.1614 -0.1079
 2709SOL    HW210882   2.630   1.954   4.456  0.2123 -0.4161  0.6840
 2709SOL    HW310883   2.520   1.900   4.368  0.3284  1.7525 -0.8056
 2709SOL    MW410884   2.546   1.933   4.444  0.1478  0.2952 -0.0958
 2710SOL     OW10885   3.429   4.555   4.819  0.3025  0.2646 -0.7801
 2710SOL    HW210886   3.401   4.494   4.751  0.2334 -0.2520 -0.2954
 2710SOL    HW310887   3.367   4.628   4.813 -1.2121 -0.9005  0.3186
 2710SOL    MW410888   3.417   4.557   4.809  0.0935  0.0420 -0.5713
 2711SOL     OW10889   2.464   3.367   4.269  0.2345  0.1080 -0.3330
 2711SOL    HW210890   2.396   3.420   4.228  0.6529  0.1146 -1.0387
 2711SOL    HW310891   2.448   3.278   4.238 -0.6841 -0.2569  1.1360
 2711SOL    MW410892   2.453   3.362   4.260  0.1683  0.0610 -0.2322
 2712SOL     OW10893   3.092   0.572   4.235 -0.1114 -0.0208 -0.0939
 2712SOL    HW210894   3.085   0.577   4.330  0.5886  0.1779 -0.0493
 2712SOL    HW310895   3.137   0.489   4.219  0.1506  0.1462 -0.2281
 2712SOL    MW410896   3.097   0.562   4.245  0.0155  0.0274 -0.1054
 2713SOL     OW10897   0.232   1.797   4.237 -0.1615 -0.1266  0.3772
 2713SOL    HW210898   0.256   1.709   4.209  0.9841  0.2169  0.2474
 2713SOL    HW310899   0.226   1.792   4.332  1.0981 -0.0776  0.4730
 2713SOL    MW410900   0.235   1.785   4.246  0.1559 -0.0746  0.3724
 2714SOL     OW10901   2.923   4.265   4.638  0.0999  0.0804  0.0976
 2714SOL    HW210902   2.967   4.182   4.623 -0.8987 -0.5451  0.5718
 2714SOL    HW310903   2.941   4.286   4.730 -0.9798 -0.4246  0.4350
 2714SOL    MW410904   2.931   4.257   4.648 -0.1743 -0.0687  0.2046
 2715SOL     OW10905   0.896   2.628   4.166 -0.4150 -0.1601  0.5218
 2715SOL    HW210906   0.887   2.723   4.170 -0.6023 -0.1668  0.3113
 2715SOL    HW310907   0.890   2.607   4.073 -0.5955 -0.3949  0.5825
 2715SOL    MW410908   0.894   2.638   4.155 -0.4637 -0.1919  0.5021
 2716SOL     OW10909   0.264   1.261   3.523 -0.0479 -0.6999 -0.7087
 2716SOL    HW210910   0.262   1.344   3.475  0.0301  0.1414  0.7323
 2716SOL    HW310911   0.327   1.208   3.475 -1.1832 -0.4707 -2.5051
 2716SOL    MW410912   0.272   1.265   3.510 -0.1875 -0.5586 -0.7555
 2717SOL     OW10913   0.677   4.133   4.215 -0.1212 -0.0079 -0.0392
 2717SOL    HW210914   0.756   4.186   4.212 -0.4921  0.7714  3.0616
 2717SOL    HW310915   0.610   4.187   4.173  0.3057  0.5198 -0.0428
 2717SOL    MW410916   0.679   4.147   4.209 -0.1138  0.1650  0.3695
 2718SOL     OW10917   0.926   1.114   4.555 -0.4645  0.0952  0.3872
 2718SOL    HW210918   0.910   1.207   4.570  2.0644  0.5951  0.2414
 2718SOL    HW310919   0.983   1.112   4.478  0.6990 -1.4583  1.2540
 2718SOL    MW410920   0.931   1.126   4.547  0.0226 -0.0439  0.4826
 2719SOL     OW10921   0.889   1.383   4.301  0.3581 -0.0040 -0.0154
 2719SOL    HW210922   0.811   1.435   4.282  1.3158  1.0499 -1.1479
 2719SOL    HW310923   0.876   1.302   4.251  0.0263  0.1846 -0.2398
 2719SOL    MW410924   0.877   1.379   4.292  0.4407  0.1600 -0.1950
 2720SOL     OW10925   2.924   1.244   3.677 -0.0826  0.1506 -0.3848
 2720SOL    HW210926   2.952   1.256   3.587 -0.9601  1.5408 -0.4886
 2720SOL    HW310927   3.003   1.217   3.724  0.6782  0.7292 -1.3177
 2720SOL    MW410928   2.938   1.242   3.672 -0.0980  0.4103 -0.5214
 2721SOL     OW10929   2.046   4.635   4.219 -0.2312  0.0961 -0.3129
 2721SOL    HW210930   2.042   4.723   4.258  0.5327 -0.2695  0.6058
 2721SOL    HW310931   2.047   4.652   4.124  1.6646  1.1699 -0.1298
 2721SOL    MW410932   2.046   4.649   4.211  0.1197  0.1893 -0.1678
 2722SOL     OW10933   0.319   3.546   4.605 -0.0626 -0.1573 -0.0636
 2722SOL    HW210934   0.402   3.578   4.571 -0.2065  0.0538 -0.2160
 2722SOL    HW310935   0.323   3.451   4.593 -0.7170  0.0532 -2.0383
 2722SOL    MW410936   0.330   3.537   4.599 -0.1679 -0.1016 -0.3443
 2723SOL     OW10937   4.273   3.344   4.286 -0.0300  0.1263  0.4843
 2723SOL    HW210938   4.283   3.369   4.378  1.1149  0.6798  0.2125
 2723SOL    HW310939   4.262   3.249   4.289  2.9919 -0.2608  1.0095
 2723SOL    MW410940   4.273   3.335   4.299  0.5198  0.1481  0.5178
 2724SOL     OW10941   1.040   2.897   4.526 -0.0899 -0.1684  0.2036
 2724SOL    HW210942   1.094   2.976   4.519  0.7510 -0.9656 -2.9526
 2724SOL    HW310943   1.102   2.825   4.536 -0.8427 -0.5220  2.8193
 2724SOL    MW410944   1.055   2.898   4.527 -0.0783 -0.3202  0.1321
 2725SOL     OW10945   2.921   1.021   4.440  0.1933  0.0565 -0.0274
 2725SOL    HW210946   2.845   0.964   4.456  0.0077  0.7026  1.5797
 2725SOL    HW310947   2.937   1.015   4.346 -0.3904 -1.9319 -0.0201
 2725SOL    MW410948   2.913   1.012   4.430  0.0916 -0.1206  0.1860
 2726SOL     OW10949   0.914   1.126   3.910 -0.0623  0.2686  0.0793
 2726SOL    HW210950   0.892   1.042   3.868  0.1467  1.0809 -1.7077
 2726SOL    HW310951   0.988   1.159   3.859  0.9518  0.7478  1.8392
 2726SOL    MW410952   0.921   1.119   3.897  0.0991  0.4390  0.0758
 2727SOL     OW10953   4.428   3.690   4.530 -0.1079  0.0604  0.0608
 2727SOL    HW210954   4.495   3.693   4.598 -0.1682 -2.7224  0.2985
 2727SOL    HW310955   4.361   3.752   4.560 -0.1895 -1.1950  2.5986
 2727SOL    MW410956   4.428   3.699   4.543 -0.1268 -0.4721  0.4268
 2728SOL     OW10957   2.465   2.314   3.873  0.3585  0.2732 -0.2242
 2728SOL    HW210958   2.473   2.299   3.967 -0.3781  2.6188  0.2387
 2728SOL    HW310959   2.553   2.335   3.844  0.1632  1.9760  0.3965
 2728SOL    MW410960   2.477   2.315   3.882  0.2356  0.8073 -0.0811
 2729SOL     OW10961   3.798   2.702   4.577  0.4481  0.2814  0.1594
 2729SOL    HW210962   3.739   2.705   4.653  1.0487 -1.0267  0.6922
 2729SOL    HW310963   3.774   2.621   4.531  1.7126 -0.1912  0.3057
 2729SOL    MW410964   3.787   2.691   4.581  0.6940  0.0467  0.2484
 2730SOL     OW10965   4.013   1.115   4.154 -0.1197  0.1482 -0.3301
 2730SOL    HW210966   3.942   1.057   4.182  0.4265  0.2871  1.4052
 2730SOL    HW310967   3.992   1.199   4.194  0.7675  0.3223 -0.2206
 2730SOL    MW410968   4.001   1.119   4.163  0.0691  0.1895 -0.0873
 2731SOL     OW10969   3.203   2.079   4.531 -0.2351  0.0575  0.2029
 2731SOL    HW210970   3.176   2.166   4.561  1.4757  1.1663 -1.3679
 2731SOL    HW310971   3.132   2.021   4.558 -1.4729  1.9657  1.1441
 2731SOL    MW410972   3.190   2.083   4.539 -0.1729  0.4554  0.1192
 2732SOL     OW10973   4.488   1.893   4.134 -0.2119  0.1868  0.1019
 2732SOL    HW210974   4.425   1.841   4.184 -0.8248  1.7573  0.9951
 2732SOL    HW310975   4.574   1.862   4.164 -0.5411 -1.3259 -0.4574
 2732SOL    MW410976   4.491   1.882   4.144 -0.3362  0.1945  0.1464
 2733SOL     OW10977   1.891   2.449   4.809  0.1348  0.1080 -0.3149
 2733SOL    HW210978   1.868   2.534   4.772 -0.4086 -0.2823 -0.8731
 2733SOL    HW310979   1.830   2.438   4.882  1.2212  0.8882  0.7524
 2733SOL    MW410980   1.880   2.459   4.814  0.2064  0.1595 -0.2480
 2734SOL     OW10981   0.492   0.409   3.889 -0.1856  0.3333  0.0125
 2734SOL    HW210982   0.484   0.318   3.861 -0.8513 -0.1024  1.5339
 2734SOL    HW310983   0.494   0.405   3.985  0.9984  1.8285  0.0722
 2734SOL    MW410984   0.491   0.397   3.898 -0.1173  0.4731  0.2213
 2735SOL     OW10985   0.865   4.034   3.788 -0.0367  0.3504 -0.3896
 2735SOL    HW210986   0.854   4.124   3.821 -1.8072  0.1748 -0.4710
 2735SOL    HW310987   0.785   3.989   3.815  0.8666 -1.2354 -0.3007
 2735SOL    MW410988   0.853   4.040   3.796 -0.1512  0.1178 -0.3886
 2736SOL     OW10989   2.030   4.091   4.294  0.1490 -0.4841 -0.0149
 2736SOL    HW210990   1.960   4.141   4.252  0.2911 -1.0314 -0.9397
 2736SOL    HW310991   2.020   4.003   4.258  0.2034 -0.9921  1.2175
 2736SOL    MW410992   2.020   4.086   4.284  0.1745 -0.6237  0.0257
 2737SOL     OW10993   3.096   0.619   4.511 -0.1195 -0.1248  0.3977
 2737SOL    HW210994   3.165   0.682   4.534  1.2707 -1.2364 -0.6572
 2737SOL    HW310995   3.021   0.645   4.565  0.8992  1.5328  1.0484
 2737SOL    MW410996   3.095   0.630   4.522  0.1981 -0.0528  0.3448
 2738SOL     OW10997   3.561   3.454   4.159 -0.5757 -0.0768 -0.3464
 2738SOL    HW210998   3.575   3.452   4.064 -0.3358  0.1369 -0.3157
 2738SOL    HW310999   3.642   3.419   4.196  0.1874  1.8629 -0.1408
 2738SOL    MW411000   3.574   3.449   4.151 -0.4432  0.2074 -0.3152
 2739SOL     OW11001   1.787   2.708   3.907  0.0915 -0.1579  0.0231
 2739SOL    HW211002   1.874   2.727   3.873  0.5326 -1.0006  0.6461
 2739SOL    HW311003   1.799   2.702   4.002 -0.7697  0.3457  0.1700
 2739SOL    MW411004   1.800   2.709   3.915  0.0361 -0.2024  0.1247
 2740SOL     OW11005   3.680   4.653   4.782 -0.4566 -0.0281 -0.1668
 2740SOL    HW211006   3.738   4.578   4.762 -1.9893 -1.1925 -0.3594
 2740SOL    HW311007   3.595   4.613   4.798 -1.9359  1.8732 -2.8772
 2740SOL    MW411008   3.676   4.638   4.781 -0.8540  0.0691 -0.5498
 2741SOL     OW11009   2.469   3.103   4.171  0.2294  0.9267 -0.3010
 2741SOL    HW211010   2.548   3.053   4.195 -0.3255  0.4569  0.5882
 2741SOL    HW311011   2.470   3.106   4.075  1.9476  1.9357 -0.2743
 2741SOL    MW411012   2.480   3.097   4.161  0.3831  0.9978 -0.1798
 2742SOL     OW11013   1.530   0.355   4.637 -0.1775  0.5998 -0.0222
 2742SOL    HW211014   1.435   0.345   4.646  0.1689 -2.1720  1.1845
 2742SOL    HW311015   1.552   0.430   4.693 -1.4229  0.0837  1.1704
 2742SOL    MW411016   1.521   0.364   4.646 -0.2962  0.1659  0.2942
 2743SOL     OW11017   4.327   2.533   4.504 -0.1106  0.1936  0.3273
 2743SOL    HW211018   4.311   2.563   4.415  2.3278  1.0925  0.1546
 2743SOL    HW311019   4.242   2.537   4.547 -1.3804 -0.6106 -2.0546
 2743SOL    MW411020   4.314   2.538   4.498  0.0434  0.2062 -0.0095
 2744SOL     OW11021   2.097   2.623   4.527  0.1183 -0.3269  0.5163
 2744SOL    HW211022   2.157   2.579   4.588  0.8916  0.6682  0.4903
 2744SOL    HW311023   2.021   2.647   4.581 -0.3531 -1.7486  0.5088
 2744SOL    MW411024   2.095   2.621   4.542  0.1581 -0.3836  0.5116
 2745SOL     OW11025   2.545   2.370   4.564 -0.7118  0.1722 -0.1454
 2745SOL    HW211026   2.634   2.370   4.530 -0.8231  1.0487 -0.4468
 2745SOL    HW311027   2.502   2.297   4.518 -0.3651  0.2385 -0.5783
 2745SOL    MW411028   2.551   2.360   4.553 -0.6807  0.2968 -0.2422
 2746SOL     OW11029   4.316   3.433   4.541  0.1392 -0.1640 -0.2541
 2746SOL    HW211030   4.363   3.516   4.535  0.7952 -0.6083 -1.5474
 2746SOL    HW311031   4.374   3.377   4.592 -0.5552  0.3364  1.0930
 2746SOL    MW411032   4.330   3.437   4.547  0.1335 -0.1566 -0.2470
 2747SOL     OW11033   3.169   1.381   4.212  0.3090  0.0507 -0.4731
 2747SOL    HW211034   3.165   1.295   4.170 -0.1011 -0.4415  0.5482
 2747SOL    HW311035   3.085   1.421   4.192  0.5625  0.2883 -1.0852
 2747SOL    MW411036   3.157   1.375   4.204  0.2885  0.0170 -0.4191
 2748SOL     OW11037   4.284   0.406   4.571 -0.0155 -0.3499  0.5759
 2748SOL    HW211038   4.365   0.457   4.569  0.1656 -0.6223  0.9642
 2748SOL    HW311039   4.216   0.468   4.547  0.1130  0.2541  1.7656
 2748SOL    MW411040   4.286   0.421   4.567  0.0253 -0.3062  0.7839
 2749SOL     OW11041   0.939   2.225   4.219  0.1711 -0.4223 -0.0332
 2749SOL    HW211042   0.848   2.252   4.204  0.3300  0.5210  0.6239
 2749SOL    HW311043   0.936   2.130   4.221 -0.7265 -0.4087 -0.5206
 2749SOL    MW411044   0.926   2.216   4.217  0.0737 -0.2961 -0.0114
 2750SOL     OW11045   3.806   1.772   4.563  0.5021 -0.2013 -0.2106
 2750SOL    HW211046   3.717   1.802   4.586 -0.2647 -1.3324 -1.6716
 2750SOL    HW311047   3.807   1.770   4.468  1.5459 -1.8685 -0.1835
 2750SOL    MW411048   3.794   1.776   4.554  0.5386 -0.5705 -0.4001
 2751SOL     OW11049   2.156   2.327   4.776 -0.0712  0.2341  0.5163
 2751SOL    HW211050   2.115   2.294   4.697  3.5012  0.3611 -1.5200
 2751SOL    HW311051   2.091   2.386   4.815 -2.4209 -0.9259 -1.5355
 2751SOL    MW411052   2.142   2.331   4.771  0.0899  0.0978 -0.0229
 2752SOL     OW11053   4.135   0.992   4.576  0.0827 -0.2057 -0.4585
 2752SOL    HW211054   4.145   0.904   4.611  0.4677  0.1732  0.4046
 2752SOL    HW311055   4.043   1.015   4.592  0.3738  0.1490  0.7607
 2752SOL    MW411056   4.124   0.984   4.583  0.1721 -0.1090 -0.1845
 2753SOL     OW11057   2.478   4.108   4.239  0.1535 -0.4165 -0.0318
 2753SOL    HW211058   2.464   4.116   4.333  1.8670 -0.6511  0.2590
 2753SOL    HW311059   2.407   4.159   4.200 -0.4589 -0.1561  1.3854
 2753SOL    MW411060   2.467   4.116   4.246  0.2987 -0.4129  0.1931
 2754SOL     OW11061   1.774   4.622   4.559 -0.2268  0.1001  0.3327
 2754SOL    HW211062   1.718   4.577   4.622  0.8346 -0.1190  1.1356
 2754SOL    HW311063   1.788   4.559   4.489 -0.9986  0.1652  0.1142
 2754SOL    MW411064   1.769   4.608   4.558 -0.1886  0.0796  0.4096
 2755SOL     OW11065   2.209   1.933   3.907  0.0156 -0.0511  0.0416
 2755SOL    HW211066   2.274   1.995   3.872 -0.2631 -0.3064 -0.9444
 2755SOL    HW311067   2.229   1.851   3.863  1.5286 -1.1573  2.6789
 2755SOL    MW411068   2.220   1.930   3.897  0.1786 -0.2308  0.2596
 2756SOL     OW11069   2.048   3.319   4.260 -0.1573  0.0686  0.2819
 2756SOL    HW211070   2.036   3.307   4.355 -1.7415  0.5781  0.1614
 2756SOL    HW311071   2.021   3.235   4.222 -0.8844  0.3542  0.1774
 2756SOL    MW411072   2.043   3.306   4.268 -0.4623  0.1736  0.2522
 2757SOL     OW11073   4.399   2.238   4.510 -0.0487 -0.5881  0.0324
 2757SOL    HW211074   4.372   2.327   4.488  0.1214 -0.7420 -0.7995
 2757SOL    HW311075   4.420   2.198   4.426 -1.6922 -1.9367  0.2480
 2757SOL    MW411076   4.398   2.245   4.496 -0.2432 -0.7863 -0.0491
 2758SOL     OW11077   1.803   0.075   3.805  0.2583  0.4098 -0.1196
 2758SOL    HW211078   1.725   0.030   3.838 -0.4320  1.2847 -0.5317
 2758SOL    HW311079   1.876   0.026   3.842 -0.4701 -1.2458 -0.8178
 2758SOL    MW411080   1.802   0.062   3.815  0.0712  0.3068 -0.2658
 2759SOL     OW11081   1.551   0.128   4.476 -0.4922  0.0062  0.0581
 2759SOL    HW211082   1.632   0.086   4.503 -0.3636 -1.1372 -1.9589
 2759SOL    HW311083   1.545   0.207   4.529  1.3083 -0.5347  1.0925
 2759SOL    MW411084   1.561   0.133   4.487 -0.2378 -0.2160 -0.0710
 2760SOL     OW11085   0.920   1.370   4.578 -0.4538 -0.1105  0.0674
 2760SOL    HW211086   1.008   1.359   4.612 -1.2835  0.1723  2.4083
 2760SOL    HW311087   0.931   1.379   4.484  1.9006 -1.2818  0.2012
 2760SOL    MW411088   0.933   1.369   4.570 -0.2526 -0.2278  0.3943
 2761SOL     OW11089   0.849   3.517   3.873 -0.3014  0.2436 -0.7138
 2761SOL    HW211090   0.854   3.422   3.859  0.3196  0.0380  0.7769
 2761SOL    HW311091   0.773   3.545   3.822  0.6496 -0.7398 -2.7516
 2761SOL    MW411092   0.840   3.508   3.864 -0.0939  0.0865 -0.7858
 2762SOL     OW11093   1.811   4.223   3.873 -0.1725  0.1461 -0.3368
 2762SOL    HW211094   1.877   4.289   3.849  1.2886 -1.1549  0.0548
 2762SOL    HW311095   1.729   4.258   3.838  0.5964  2.1284 -0.2208
 2762SOL    MW411096   1.809   4.237   3.865  0.1216  0.2360 -0.2697
 2763SOL     OW11097   0.473   2.426   3.808  0.3254  0.4014  0.3639
 2763SOL    HW211098   0.495   2.431   3.715  1.9158  1.0374  0.7582
 2763SOL    HW311099   0.462   2.518   3.834 -0.3461  0.2130  0.7571
 2763SOL    MW411100   0.474   2.439   3.799  0.4467  0.4606  0.4675
 2764SOL     OW11101   2.027   3.878   4.680  0.3446 -0.2293 -0.0593
 2764SOL    HW211102   2.032   3.972   4.664 -0.8871 -0.0617  0.4487
 2764SOL    HW311103   1.948   3.850   4.633  1.3508 -1.2310 -1.1990
 2764SOL    MW411104   2.017   3.887   4.672  0.3150 -0.3390 -0.1426
 2765SOL     OW11105   3.813   2.073   3.805  0.0116  0.1774 -0.2157
 2765SOL    HW211106   3.730   2.031   3.824  0.1930 -0.8279 -1.5690
 2765SOL    HW311107   3.878   2.021   3.852  0.0943 -0.2701 -0.8234
 2765SOL    MW411108   3.811   2.061   3.813  0.0465 -0.0141 -0.4747
 2766SOL     OW11109   3.658   0.363   4.099 -0.0486 -0.5743 -0.3604
 2766SOL    HW211110   3.655   0.456   4.122 -0.1848 -0.6256 -0.1621
 2766SOL    HW311111   3.620   0.358   4.011 -0.0165 -0.4388 -0.3812
 2766SOL    MW411112   3.652   0.374   4.090 -0.0625 -0.5632 -0.3366
 2767SOL     OW11113   2.918   4.352   3.777 -0.0991 -0.1045  0.0688
 2767SOL    HW211114   2.921   4.446   3.791 -0.0810  0.0357 -0.8396
 2767SOL    HW311115   2.983   4.316   3.838  1.7602  0.6921 -1.3862
 2767SOL    MW411116   2.927   4.359   3.787  0.1485  0.0196 -0.2429
 2768SOL     OW11117   3.635   3.706   4.256  0.0855  0.1039 -0.3511
 2768SOL    HW211118   3.641   3.689   4.350  0.2951  0.1188 -0.3629
 2768SOL    HW311119   3.624   3.619   4.217 -0.5899  0.1449 -0.2659
 2768SOL    MW411120   3.634   3.692   4.263  0.0241  0.1113 -0.3414
 2769SOL     OW11121   1.193   2.345   4.187 -0.3281 -0.1930 -0.2052
 2769SOL    HW211122   1.249   2.276   4.222  1.1431  0.7053 -0.6928
 2769SOL    HW311123   1.105   2.323   4.217  0.3804 -1.3064  1.1274
 2769SOL    MW411124   1.189   2.333   4.196 -0.0405 -0.2213 -0.0935
 2770SOL     OW11125   1.134   0.769   4.153 -0.2173  0.2769 -0.0861
 2770SOL    HW211126   1.209   0.729   4.198  1.2641  1.3945 -1.4603
 2770SOL    HW311127   1.058   0.720   4.184  1.2089 -1.6422  0.5001
 2770SOL    MW411128   1.134   0.758   4.163  0.1664  0.1712 -0.1903
 2771SOL     OW11129   0.708   0.016   4.173 -0.2915 -0.2714  0.4462
 2771SOL    HW211130   0.703   0.102   4.216  0.3474 -0.5819  1.1348
 2771SOL    HW311131   0.626  -0.027   4.197  0.2427 -0.6063  1.6992
 2771SOL    MW411132   0.696   0.022   4.182 -0.1367 -0.3565  0.7029
 2772SOL     OW11133   1.987   1.784   4.515  0.1658  0.1258 -0.0056
 2772SOL    HW211134   1.899   1.812   4.542  0.0646 -1.0215  0.9307
 2772SOL    HW311135   1.981   1.776   4.420 -0.8878 -0.3300  0.0831
 2772SOL    MW411136   1.974   1.786   4.506  0.0134 -0.0856  0.1302
 2773SOL     OW11137   0.366   3.292   4.520 -0.4275 -0.3857  0.1375
 2773SOL    HW211138   0.457   3.310   4.496 -0.3907 -1.0639 -0.2371
 2773SOL    HW311139   0.318   3.299   4.437 -1.1784  2.8507  0.7825
 2773SOL    MW411140   0.372   3.295   4.506 -0.5217 -0.0482  0.1736
 2774SOL     OW11141   3.393   4.665   4.130  0.1281 -0.2956  0.0576
 2774SOL    HW211142   3.378   4.757   4.150  1.5354 -0.2288  0.9088
 2774SOL    HW311143   3.336   4.617   4.191 -0.2408  0.0044 -0.0507
 2774SOL    MW411144   3.384   4.670   4.141  0.2651 -0.2475  0.1559
 2775SOL     OW11145   2.233   4.237   4.139 -0.1168  0.2053  0.2363
 2775SOL    HW211146   2.175   4.179   4.189  0.3477  0.6411  1.2863
 2775SOL    HW311147   2.228   4.321   4.185 -0.0328  0.7353 -0.7164
 2775SOL    MW411148   2.225   4.240   4.152 -0.0441  0.3328  0.2489
 2776SOL     OW11149   2.227   1.125   4.161  0.1420  0.0252 -0.1499
 2776SOL    HW211150   2.155   1.086   4.211 -1.6794  1.6256 -1.4731
 2776SOL    HW311151   2.257   1.198   4.215 -0.8418  0.8412 -0.6963
 2776SOL    MW411152   2.221   1.129   4.175 -0.2279  0.3440 -0.3963
 2777SOL     OW11153   4.249   1.516   3.867 -0.1261  0.2326 -0.4796
 2777SOL    HW211154   4.183   1.572   3.827 -0.2040  0.4803 -0.0012
 2777SOL    HW311155   4.228   1.428   3.834  1.1961  0.7433 -2.8098
 2777SOL    MW411156   4.237   1.512   3.857  0.0381  0.3326 -0.7243
 2778SOL     OW11157   1.527   0.972   4.279 -0.6266  0.4106  0.4876
 2778SOL    HW211158   1.602   1.027   4.257 -2.6637  2.1287 -2.6197
 2778SOL    HW311159   1.507   0.992   4.370  0.0820  3.1718  0.0854
 2778SOL    MW411160   1.534   0.982   4.288 -0.8019  1.0015  0.0243
 2779SOL     OW11161   3.507   2.113   4.369 -0.3773 -0.3774 -0.0251
 2779SOL    HW211162   3.496   2.087   4.461  0.7320  0.6014  0.3986
 2779SOL    HW311163   3.454   2.192   4.361 -0.4870 -0.4720 -0.2446
 2779SOL    MW411164   3.498   2.120   4.380 -0.2456 -0.2606  0.0019
 2780SOL     OW11165   3.858   4.644   4.123 -0.2953  0.6870 -0.5943
 2780SOL    HW211166   3.916   4.581   4.165 -1.4277 -0.0217 -0.0797
 2780SOL    HW311167   3.888   4.729   4.154  0.4071  0.3149 -0.2611
 2780SOL    MW411168   3.869   4.647   4.132 -0.3519  0.5441 -0.4826
 2781SOL     OW11169   2.726   0.429   4.483 -0.2854  0.0203  0.4476
 2781SOL    HW211170   2.688   0.482   4.553 -0.8973 -0.3262  0.3774
 2781SOL    HW311171   2.725   0.487   4.407  1.0063  0.6295  0.8840
 2781SOL    MW411172   2.721   0.444   4.482 -0.1957  0.0549  0.4959
 2782SOL     OW11173   3.418   0.322   4.510 -0.0331  0.0713 -0.3865
 2782SOL    HW211174   3.335   0.336   4.556  2.0839  0.4142  3.6110
 2782SOL    HW311175   3.458   0.408   4.505  0.5924 -0.2641 -1.2320
 2782SOL    MW411176   3.412   0.335   4.516  0.3285  0.0722  0.0291
 2783SOL     OW11177   2.663   3.200   4.633  0.1930  0.2716  0.5464
 2783SOL    HW211178   2.609   3.140   4.685  0.8565 -0.4361  0.4344
 2783SOL    HW311179   2.712   3.142   4.575 -1.3739  1.1174 -1.6759
 2783SOL    MW411180   2.662   3.184   4.633  0.0739  0.2899  0.2384
 2784SOL     OW11181   4.334   3.795   4.132  0.0011 -0.0344  0.0879
 2784SOL    HW211182   4.335   3.876   4.184 -0.3129  0.5868 -0.8685
 2784SOL    HW311183   4.401   3.740   4.173 -0.0974  0.5283  1.0279
 2784SOL    MW411184   4.343   3.799   4.144 -0.0534  0.1216  0.0863
 2785SOL     OW11185   0.036   1.381   4.194  0.0703 -0.3707  0.1331
 2785SOL    HW211186   0.019   1.291   4.166 -0.7605 -0.6115  1.3954
 2785SOL    HW311187   0.004   1.385   4.284 -0.3807  1.3452 -0.0881
 2785SOL    MW411188   0.030   1.370   4.203 -0.0988 -0.1761  0.2704
 2786SOL     OW11189   2.705   2.636   4.299 -0.2713  0.1173  0.0473
 2786SOL    HW211190   2.767   2.614   4.229  0.4649  0.1820  0.6624
 2786SOL    HW311191   2.623   2.596   4.272  0.5696 -1.7682  0.2119
 2786SOL    MW411192   2.703   2.628   4.286 -0.0632 -0.1225  0.1497
 2787SOL     OW11193   1.367   1.466   4.811  0.0251  0.1796 -0.1559
 2787SOL    HW211194   1.463   1.462   4.818  0.0272  1.3023  0.5673
 2787SOL    HW311195   1.347   1.560   4.812 -1.0203 -0.0324 -1.2783
 2787SOL    MW411196   1.377   1.478   4.812 -0.1124  0.2998 -0.2084
 2788SOL     OW11197   3.386   2.360   4.300  0.4386  0.2226 -0.7907
 2788SOL    HW211198   3.366   2.410   4.221 -1.0907  1.1216  0.1525
 2788SOL    HW311199   3.472   2.392   4.326  0.3257  0.9652 -1.2868
 2788SOL    MW411200   3.395   2.371   4.293  0.2220  0.4392 -0.7315
 2789SOL     OW11201   3.406   3.584   3.789  0.0260  0.0520  0.3133
 2789SOL    HW211202   3.396   3.675   3.816  2.1267  0.3788  0.0909
 2789SOL    HW311203   3.397   3.586   3.694  1.4911  0.2703  0.1637
 2789SOL    MW411204   3.404   3.596   3.780  0.4964  0.1240  0.2644
 2790SOL     OW11205   3.698   1.273   4.494  0.8361 -0.0448 -0.0309
 2790SOL    HW211206   3.768   1.305   4.551  1.1056  1.6535 -1.2690
 2790SOL    HW311207   3.711   1.320   4.411 -2.4638  1.2235  0.0982
 2790SOL    MW411208   3.709   1.284   4.490  0.4361  0.3468 -0.1769
 2791SOL     OW11209   3.851   4.370   3.787  0.0194 -0.0171 -0.2040
 2791SOL    HW211210   3.858   4.369   3.692 -1.7280  0.9224 -0.3639
 2791SOL    HW311211   3.875   4.460   3.812 -0.0361 -0.1149  0.2019
 2791SOL    MW411212   3.855   4.382   3.778 -0.2186  0.0935 -0.1714
 2792SOL     OW11213   0.016   2.652   4.169  0.0053  0.0723  0.8506
 2792SOL    HW211214   0.079   2.596   4.214 -0.7853  0.0771  2.0041
 2792SOL    HW311215  -0.069   2.615   4.193 -0.4739  0.9144  0.4732
 2792SOL    MW411216   0.013   2.640   4.178 -0.1621  0.1838  0.9527
 2793SOL     OW11217   1.577   1.211   3.804  0.5929  0.5204  0.0057
 2793SOL    HW211218   1.663   1.185   3.835 -0.0405 -0.4469  0.9688
 2793SOL    HW311219   1.566   1.301   3.837  0.9529  0.4027  0.4489
 2793SOL    MW411220   1.587   1.220   3.813  0.5567  0.3773  0.1915
 2794SOL     OW11221   1.783   3.441   4.557  0.2283  0.2097 -0.1909
 2794SOL    HW211222   1.865   3.393   4.555  0.6152  0.7803  1.5541
 2794SOL    HW311223   1.808   3.532   4.574 -0.8471  0.1314  1.9473
 2794SOL    MW411224   1.797   3.447   4.559  0.1373  0.2749  0.3214
 2795SOL     OW11225   0.803   3.028   4.600  0.6063 -0.0627 -0.0497
 2795SOL    HW211226   0.876   2.971   4.575  0.8235 -0.1012  0.6455
 2795SOL    HW311227   0.840   3.116   4.598  1.1513 -0.2189  1.9175
 2795SOL    MW411228   0.818   3.032   4.596  0.7068 -0.0882  0.3018
 2796SOL     OW11229   2.398   2.074   3.751 -0.3178 -0.1789  0.0309
 2796SOL    HW211230   2.420   2.165   3.772  0.8410 -0.2134 -0.9708
 2796SOL    HW311231   2.470   2.023   3.788 -1.8403 -0.8710  2.1383
 2796SOL    MW411232   2.410   2.079   3.759 -0.3660 -0.2747  0.1769
 2797SOL     OW11233   2.021   3.150   3.865 -0.0050 -0.3414  0.0473
 2797SOL    HW211234   1.934   3.178   3.837  0.4719 -0.1481 -1.2780
 2797SOL    HW311235   2.011   3.130   3.958 -1.4101 -0.1026 -0.0412
 2797SOL    MW411236   2.008   3.151   3.874 -0.1276 -0.2844 -0.1390
 2798SOL     OW11237   3.099   1.396   4.503  0.6588  0.0900  0.1370
 2798SOL    HW211238   3.005   1.392   4.485  0.5728 -1.7404  0.9270
 2798SOL    HW311239   3.141   1.376   4.419  0.3490  0.1892 -0.0418
 2798SOL    MW411240   3.092   1.393   4.489  0.6068 -0.1385  0.2170
 2799SOL     OW11241   3.177   1.923   4.095  0.2654  0.0227 -0.0612
 2799SOL    HW211242   3.232   1.861   4.142 -1.3502  0.3960  2.4076
 2799SOL    HW311243   3.198   2.008   4.133 -0.4528  0.4520 -0.6105
 2799SOL    MW411244   3.187   1.926   4.106 -0.0422  0.1286  0.1922
 2800SOL     OW11245   4.273   0.757   4.170  0.1076 -0.2565  0.2823
 2800SOL    HW211246   4.272   0.851   4.188 -2.7495 -0.2783  0.4303
 2800SOL    HW311247   4.281   0.750   4.075  0.9132  0.0945  0.3167
 2800SOL    MW411248   4.274   0.768   4.160 -0.1626 -0.2131  0.3066
 2801SOL     OW11249   4.283   1.540   4.146 -0.2732  0.0748 -0.1417
 2801SOL    HW211250   4.258   1.524   4.055  1.0786 -0.0108 -0.5193
 2801SOL    HW311251   4.367   1.495   4.155 -0.7754 -0.5819  1.3780
 2801SOL    MW411252   4.291   1.532   4.135 -0.1612 -0.0231  0.0095
 2802SOL     OW11253   4.341   0.181   4.215 -0.0805  0.8456 -0.0369
 2802SOL    HW211254   4.318   0.175   4.307  0.4637  0.1958  0.0581
 2802SOL    HW311255   4.328   0.093   4.180 -1.8971  1.4552 -0.9760
 2802SOL    MW411256   4.337   0.169   4.222 -0.2480  0.8403 -0.1483
 2803SOL     OW11257   2.031   0.502   3.792 -0.6236  0.0155 -0.5173
 2803SOL    HW211258   2.101   0.453   3.834 -0.7289  0.5386  0.2766
 2803SOL    HW311259   2.041   0.483   3.699 -0.3894 -1.1519 -0.2584
 2803SOL    MW411260   2.041   0.493   3.785 -0.6065 -0.0695 -0.3784
 2804SOL     OW11261   2.987   3.582   3.787  0.0338  0.1164 -0.1306
 2804SOL    HW211262   2.987   3.573   3.692  0.2111  0.4822 -0.1679
 2804SOL    HW311263   3.062   3.531   3.817  0.3179  0.4692 -0.2365
 2804SOL    MW411264   2.997   3.574   3.779  0.0947  0.2110 -0.1493
 2805SOL     OW11265   0.036   4.295   3.916 -0.0969  0.4501  0.3124
 2805SOL    HW211266   0.021   4.284   4.010  0.0072 -1.0338  0.1725
 2805SOL    HW311267  -0.051   4.312   3.880 -0.4653 -1.0612  0.4279
 2805SOL    MW411268   0.022   4.296   3.923 -0.1318  0.0548  0.3090
 2806SOL     OW11269   2.877   0.708   4.692 -0.0754 -0.6496  0.2372
 2806SOL    HW211270   2.939   0.782   4.692 -2.4755  1.4531 -0.3528
 2806SOL    HW311271   2.887   0.668   4.779  0.4851  1.0786  0.9958
 2806SOL    MW411272   2.886   0.713   4.704 -0.3181 -0.1442  0.2594
 2807SOL     OW11273   3.596   1.918   4.201 -0.8453 -0.2694  0.0317
 2807SOL    HW211274   3.569   1.997   4.248 -0.0933  0.4955 -0.8102
 2807SOL    HW311275   3.599   1.943   4.109  1.2118 -0.7324 -0.0640
 2807SOL    MW411276   3.593   1.932   4.195 -0.4747 -0.2295 -0.0920
 2808SOL     OW11277   4.065   3.958   3.775  0.3738 -0.4991  0.0579
 2808SOL    HW211278   4.150   3.920   3.799  0.8618  0.4300 -0.1680
 2808SOL    HW311279   4.068   3.963   3.679  0.3829  0.2624  0.0956
 2808SOL    MW411280   4.077   3.953   3.765  0.4392 -0.2761  0.0331
 2809SOL     OW11281   4.278   1.783   4.263  0.5177  0.0359  0.1027
 2809SOL    HW211282   4.206   1.839   4.234  0.8690  0.5035  0.1305
 2809SOL    HW311283   4.260   1.698   4.222  0.5623  0.4638 -0.8140
 2809SOL    MW411284   4.266   1.779   4.254  0.5703  0.1541 -0.0148
 2810SOL     OW11285   0.920   2.624   3.893  0.2422 -0.0764 -0.1128
 2810SOL    HW211286   0.943   2.544   3.847  2.2154  0.8359 -0.7857
 2810SOL    HW311287   0.842   2.656   3.847 -1.5012 -2.3756  1.1537
 2810SOL    MW411288   0.912   2.618   3.881  0.2725 -0.2594 -0.0343
 2811SOL     OW11289   4.257   3.068   4.326  0.4364 -0.2429  0.2890
 2811SOL    HW211290   4.219   3.047   4.411 -0.0705 -2.3030 -0.4162
 2811SOL    HW311291   4.346   3.031   4.329  0.8865  0.8335  0.3938
 2811SOL    MW411292   4.264   3.060   4.338  0.4292 -0.3729  0.2093
 2812SOL     OW11293   1.108   1.482   4.155 -0.1281 -0.4538 -0.1027
 2812SOL    HW211294   1.184   1.440   4.196 -1.1342 -1.1207  1.1223
 2812SOL    HW311295   1.033   1.438   4.194 -1.1747  1.1712 -0.2455
 2812SOL    MW411296   1.108   1.471   4.165 -0.3990 -0.3273  0.0405
 2813SOL     OW11297   1.357   1.601   3.781  0.1442  0.1041  0.0471
 2813SOL    HW211298   1.436   1.564   3.821  0.4752 -0.1035 -0.7992
 2813SOL    HW311299   1.356   1.692   3.810  0.6482  0.0846  0.1272
 2813SOL    MW411300   1.367   1.608   3.790  0.2543  0.0741 -0.0541
 2814SOL     OW11301   3.161   0.882   3.741 -0.5379  0.2383  0.2723
 2814SOL    HW211302   3.079   0.848   3.775 -0.4454 -0.1852  0.0810
 2814SOL    HW311303   3.150   0.880   3.646 -0.2355 -0.0094  0.2393
 2814SOL    MW411304   3.149   0.877   3.733 -0.4857  0.1497  0.2425
 2815SOL     OW11305   0.017   0.618   4.288  0.2652 -0.4549  0.0300
 2815SOL    HW211306  -0.059   0.675   4.275  0.2464 -0.2525  1.0232
 2815SOL    HW311307  -0.004   0.539   4.238 -0.3106 -0.1351 -0.2390
 2815SOL    MW411308   0.004   0.615   4.280  0.1860 -0.3860  0.1259
 2816SOL     OW11309   3.835   3.867   4.565 -0.3258  0.2248  0.1622
 2816SOL    HW211310   3.924   3.848   4.595 -0.3807 -0.0762  0.1368
 2816SOL    HW311311   3.837   3.960   4.541 -0.1693  0.3541  0.6879
 2816SOL    MW411312   3.847   3.877   4.566 -0.3126  0.2022  0.2279
 2817SOL     OW11313   0.235   4.435   3.778  0.1062 -0.0617 -0.7368
 2817SOL    HW211314   0.307   4.376   3.801  1.6752  2.5048  1.1159
 2817SOL    HW311315   0.158   4.396   3.818  1.0469 -1.0516  0.1335
 2817SOL    MW411316   0.234   4.422   3.786  0.4373  0.1459 -0.3774
 2818SOL     OW11317   2.793   2.170   4.674  0.1127 -0.0901 -0.1828
 2818SOL    HW211318   2.708   2.165   4.716 -0.4483  0.4825 -1.2162
 2818SOL    HW311319   2.835   2.246   4.714  0.3208 -0.6411  0.6485
 2818SOL    MW411320   2.788   2.180   4.685  0.0663 -0.0870 -0.2093
 2819SOL     OW11321   3.163   0.317   4.160  0.3720  0.6491 -0.0178
 2819SOL    HW211322   3.180   0.339   4.069  1.0128  0.4550  0.0487
 2819SOL    HW311323   3.249   0.290   4.194  0.0063  0.0949  0.4647
 2819SOL    MW411324   3.177   0.317   4.153  0.4082  0.5503  0.0544
 2820SOL     OW11325   2.003   2.840   3.786 -0.2801  0.3902  0.0252
 2820SOL    HW211326   2.089   2.808   3.813 -1.1588  0.5045  3.1718
 2820SOL    HW311327   1.997   2.928   3.822 -1.7466  0.3666 -0.1133
 2820SOL    MW411328   2.014   2.847   3.794 -0.5896  0.4017  0.4220
 2821SOL     OW11329   3.835   2.335   3.900  0.2683 -0.2027 -0.1532
 2821SOL    HW211330   3.756   2.384   3.878  0.7146 -0.1619 -1.8033
 2821SOL    HW311331   3.817   2.246   3.870  0.3559 -0.5008  0.6671
 2821SOL    MW411332   3.822   2.330   3.893  0.3388 -0.2367 -0.2627
 2822SOL     OW11333   0.954   0.785   4.876 -0.5015  0.0543 -0.0126
 2822SOL    HW211334   0.891   0.748   4.815 -0.9748 -0.2469  0.6566
 2822SOL    HW311335   1.027   0.722   4.876 -0.3064  0.2747 -0.5902
 2822SOL    MW411336   0.956   0.772   4.868 -0.5382  0.0436  0.0000
 2823SOL     OW11337   0.746   2.478   4.734  0.3399 -0.6219 -0.3306
 2823SOL    HW211338   0.693   2.526   4.671  0.7863  0.3829  0.0485
 2823SOL    HW311339   0.736   2.526   4.816  2.4286  0.0383 -0.4237
 2823SOL    MW411340   0.738   2.491   4.737  0.6744 -0.4027 -0.2928
 2824SOL     OW11341   3.143   3.436   4.191 -0.1074 -0.6866 -0.3150
 2824SOL    HW211342   3.221   3.390   4.224  0.2932  0.3857  0.2837
 2824SOL    HW311343   3.140   3.415   4.098  1.3188 -0.1747 -0.4926
 2824SOL    MW411344   3.153   3.427   4.183  0.1335 -0.4776 -0.2599
 2825SOL     OW11345   1.534   2.291   4.173 -0.3320 -0.3422 -0.2568
 2825SOL    HW211346   1.541   2.304   4.079 -0.1560  2.1578  0.0860
 2825SOL    HW311347   1.620   2.258   4.199 -0.2692 -0.6945 -0.8947
 2825SOL    MW411348   1.546   2.288   4.164 -0.3004 -0.0591 -0.2952
 2826SOL     OW11349   3.365   2.762   3.780 -0.8308  0.3194  0.0954
 2826SOL    HW211350   3.362   2.856   3.795 -0.9565  0.2010  0.7994
 2826SOL    HW311351   3.384   2.753   3.686 -1.0846  1.0400 -0.0206
 2826SOL    MW411352   3.367   2.773   3.769 -0.8812  0.3986  0.1731
 2827SOL     OW11353   3.819   1.527   3.886  0.3790 -0.0000  0.2140
 2827SOL    HW211354   3.743   1.583   3.866 -1.3160 -2.8740 -1.9496
 2827SOL    HW311355   3.816   1.516   3.981 -1.1290  1.0164  0.3152
 2827SOL    MW411356   3.808   1.533   3.896 -0.0436 -0.2450 -0.0582
 2828SOL     OW11357   3.193   4.501   4.250 -0.0363  0.5314 -0.1027
 2828SOL    HW211358   3.171   4.492   4.342  0.6834 -1.3383 -0.1142
 2828SOL    HW311359   3.209   4.412   4.219 -0.8495  1.0596 -2.1809
 2828SOL    MW411360   3.192   4.488   4.258 -0.0484  0.3538 -0.3786
 2829SOL     OW11361   0.231   2.792   3.792  0.0310 -0.2151  0.1856
 2829SOL    HW211362   0.203   2.802   3.701  0.8843 -0.6876 -0.1434
 2829SOL    HW311363   0.163   2.739   3.833 -0.5791  0.3746 -0.0604
 2829SOL    MW411364   0.219   2.786   3.785  0.0631 -0.1998  0.1097
 2830SOL     OW11365   2.004   3.834   4.202 -0.0939 -0.3038 -0.1104
 2830SOL    HW211366   2.015   3.831   4.107  1.2347  1.3462 -0.0323
 2830SOL    HW311367   2.082   3.790   4.236  0.1460  0.3748  0.2326
 2830SOL    MW411368   2.016   3.828   4.194  0.1130  0.0033 -0.0548
 2831SOL     OW11369   2.889   0.715   4.091  0.0316 -0.2341  0.5387
 2831SOL    HW211370   2.897   0.729   3.996 -0.0059 -1.0868  0.4081
 2831SOL    HW311371   2.968   0.667   4.115  0.1272  0.1375  0.9785
 2831SOL    MW411372   2.901   0.710   4.081  0.0393 -0.2975  0.5789
 2832SOL     OW11373   2.798   2.396   4.442  0.5060  0.2862 -0.0312
 2832SOL    HW211374   2.838   2.335   4.380 -2.3371 -0.9558 -0.7299
 2832SOL    HW311375   2.790   2.478   4.394 -0.0470 -0.1740 -0.7400
 2832SOL    MW411376   2.802   2.399   4.428  0.0582  0.0615 -0.2165
 2833SOL     OW11377   1.115   3.091   4.158 -0.3860 -1.1696  0.1033
 2833SOL    HW211378   1.208   3.074   4.174 -0.0742  0.5661  0.2221
 2833SOL    HW311379   1.104   3.184   4.176 -1.9690 -1.1647 -0.7761
 2833SOL    MW411380   1.126   3.101   4.162 -0.5536 -0.9401  0.0033
 2834SOL     OW11381   1.346   1.880   3.880  0.5739  0.2614  0.2601
 2834SOL    HW211382   1.354   1.867   3.974 -0.2039  2.0224  0.5933
 2834SOL    HW311383   1.418   1.939   3.858  0.5795  0.0879 -0.1933
 2834SOL    MW411384   1.357   1.886   3.889  0.4721  0.4709  0.2441
 2835SOL     OW11385   2.731   2.731   4.584  0.2359 -0.3246  0.0997
 2835SOL    HW211386   2.637   2.735   4.601  0.1457 -0.8153 -0.2499
 2835SOL    HW311387   2.737   2.726   4.488  0.6489  0.4867  0.0805
 2835SOL    MW411388   2.719   2.730   4.573  0.2785 -0.2820  0.0510
 2836SOL     OW11389   3.800   0.477   3.479 -0.0573 -0.1024 -0.1302
 2836SOL    HW211390   3.798   0.481   3.575  0.5942  0.0155 -0.1204
 2836SOL    HW311391   3.890   0.454   3.458  0.1239  1.1488 -0.7626
 2836SOL    MW411392   3.812   0.475   3.489  0.0525  0.0782 -0.2124
 2837SOL     OW11393   3.621   2.508   4.448 -0.2528  0.1603  0.2079
 2837SOL    HW211394   3.564   2.495   4.524 -1.3638  0.0422 -0.6288
 2837SOL    HW311395   3.665   2.424   4.436 -0.2761  0.0978  0.5656
 2837SOL    MW411396   3.619   2.496   4.456 -0.4027  0.1369  0.1450
 2838SOL     OW11397   3.195   2.950   4.283 -0.3775  0.5408 -0.0201
 2838SOL    HW211398   3.231   2.963   4.370  0.5104 -0.4788 -0.2231
 2838SOL    HW311399   3.266   2.975   4.223  0.3613 -2.2452 -0.4220
 2838SOL    MW411400   3.209   2.955   4.286 -0.1631  0.0386 -0.0997
 2839SOL     OW11401   0.478   1.690   3.809 -0.0654  0.2156 -0.0081
 2839SOL    HW211402   0.402   1.633   3.821 -0.1472  0.5751  1.2035
 2839SOL    HW311403   0.551   1.641   3.847  0.1362  0.2800 -0.3115
 2839SOL    MW411404   0.477   1.676   3.816 -0.0495  0.2716  0.1116
 2840SOL     OW11405   1.221   2.263   3.904 -0.3045 -0.1740 -0.1470
 2840SOL    HW211406   1.207   2.286   3.995  1.6580 -0.5849  0.2803
 2840SOL    HW311407   1.267   2.338   3.867  0.5178 -0.7743 -0.3428
 2840SOL    MW411408   1.225   2.276   3.911  0.0629 -0.3073 -0.1166
 2841SOL     OW11409   2.517   2.521   4.141 -0.0248 -0.1351  0.5496
 2841SOL    HW211410   2.556   2.543   4.056  1.2084 -0.0647  1.1128
 2841SOL    HW311411   2.438   2.575   4.146  1.3013  1.8851  0.5732
 2841SOL    MW411412   2.512   2.531   4.130  0.3130  0.1407  0.6270
 2842SOL     OW11413   1.029   0.183   4.533  0.1784  0.4299  0.5660
 2842SOL    HW211414   1.043   0.090   4.548 -0.2504  0.5820  2.0103
 2842SOL    HW311415   1.061   0.198   4.444  0.1597 -1.1068  0.2823
 2842SOL    MW411416   1.035   0.173   4.523  0.1194  0.2472  0.7191
 2843SOL     OW11417   1.588   4.448   4.686 -0.0083  0.0536 -0.0115
 2843SOL    HW211418   1.515   4.455   4.625 -1.1370 -3.1386  0.8858
 2843SOL    HW311419   1.546   4.443   4.772  1.4359  1.7416  0.8161
 2843SOL    MW411420   1.573   4.448   4.690  0.0334 -0.1445  0.2165
 2844SOL     OW11421   1.443   2.673   4.682  0.2138  0.0234 -0.2895
 2844SOL    HW211422   1.361   2.679   4.634 -0.3552  0.0793  0.6806
 2844SOL    HW311423   1.501   2.622   4.625 -0.9688 -1.3002 -0.3380
 2844SOL    MW411424   1.440   2.667   4.668 -0.0174 -0.1440 -0.1674
 2845SOL     OW11425   0.005   1.660   3.801 -0.0340  0.0057  0.3192
 2845SOL    HW211426   0.008   1.751   3.831 -0.5219 -0.0791  0.6209
 2845SOL    HW311427  -0.074   1.624   3.839  0.4360 -0.7038  0.6375
 2845SOL    MW411428  -0.005   1.668   3.810 -0.0367 -0.0991  0.4010
 2846SOL     OW11429   1.570   2.560   4.260  0.3887 -0.2822 -0.0076
 2846SOL    HW211430   1.499   2.616   4.227 -1.0636 -1.4649  1.0312
 2846SOL    HW311431   1.553   2.475   4.221  0.4490 -0.9090  1.2909
 2846SOL    MW411432   1.558   2.556   4.251  0.2050 -0.5207  0.3009
 2847SOL     OW11433   3.380   1.004   4.429  0.4289 -0.2592 -0.2304
 2847SOL    HW211434   3.339   1.064   4.492  0.5292 -0.9219  0.4675
 2847SOL    HW311435   3.472   1.000   4.456  0.6278  0.0350 -0.8705
 2847SOL    MW411436   3.386   1.012   4.441  0.4683 -0.3078 -0.2232
 2848SOL     OW11437   4.483   4.435   4.719 -0.0981 -0.4302  0.1545
 2848SOL    HW211438   4.560   4.377   4.710 -0.1746 -0.5531  0.2892
 2848SOL    HW311439   4.416   4.379   4.756 -0.2876 -0.3491 -0.0631
 2848SOL    MW411440   4.485   4.420   4.722 -0.1332 -0.4354  0.1440
 2849SOL     OW11441   1.374   2.474   3.802  0.2723 -0.6467  0.1428
 2849SOL    HW211442   1.457   2.431   3.823 -0.1449 -1.5205  0.0271
 2849SOL    HW311443   1.356   2.450   3.711  0.1947  0.0373 -0.0256
 2849SOL    MW411444   1.383   2.465   3.793  0.2071 -0.6716  0.1054
 2850SOL     OW11445   1.620   3.114   4.143  0.3263 -0.5048 -0.2573
 2850SOL    HW211446   1.596   3.150   4.057  0.3764  1.3867  0.4828
 2850SOL    HW311447   1.598   3.184   4.204  1.2977 -1.4260  1.1646
 2850SOL    MW411448   1.614   3.128   4.140  0.4611 -0.3769  0.0281
 2851SOL     OW11449   4.054   2.415   3.751 -0.4394  0.1417  0.2992
 2851SOL    HW211450   4.061   2.504   3.788 -0.9422 -0.0503  0.8541
 2851SOL    HW311451   3.976   2.378   3.792  0.9335 -1.3145  1.6880
 2851SOL    MW411452   4.045   2.422   3.762 -0.3242 -0.0756  0.5558
 2852SOL     OW11453   3.670   3.653   4.546  0.2269  0.2093 -0.0018
 2852SOL    HW211454   3.728   3.728   4.557 -0.1596  0.4892  0.1035
 2852SOL    HW311455   3.594   3.673   4.600  0.2511 -0.3877  0.2617
 2852SOL    MW411456   3.668   3.665   4.555  0.1791  0.1674  0.0472
 2853SOL     OW11457   1.828   2.691   4.654 -0.1279  0.0753  0.2187
 2853SOL    HW211458   1.758   2.639   4.614 -1.2979  0.4334  1.7757
 2853SOL    HW311459   1.814   2.780   4.621 -0.7775  0.2676  1.0115
 2853SOL    MW411460   1.817   2.696   4.644 -0.3680  0.1478  0.5288
 2854SOL     OW11461   1.296   3.206   3.766  0.1359  0.5906 -0.3067
 2854SOL    HW211462   1.289   3.287   3.815 -2.7156  0.4355 -0.3473
 2854SOL    HW311463   1.224   3.152   3.799  0.4683 -0.9536 -2.0074
 2854SOL    MW411464   1.285   3.209   3.777 -0.1965  0.3662 -0.5364
 2855SOL     OW11465   0.099   4.017   4.526 -0.0705 -0.3177  0.1522
 2855SOL    HW211466   0.004   4.021   4.528 -0.0870 -0.9315  0.9990
 2855SOL    HW311467   0.120   3.933   4.568  0.8238 -0.3926 -0.4254
 2855SOL    MW411468   0.090   4.006   4.532  0.0453 -0.4082  0.1879
 2856SOL     OW11469   1.547   3.607   3.496  0.3506  0.0222  0.0323
 2856SOL    HW211470   1.532   3.613   3.591 -1.0324  1.8351 -0.2578
 2856SOL    HW311471   1.475   3.553   3.464  0.8263 -0.6013  0.0096
 2856SOL    MW411472   1.536   3.601   3.504  0.2309  0.1791 -0.0088
 2857SOL     OW11473   2.919   3.821   4.211 -0.2915  0.1754 -0.1656
 2857SOL    HW211474   2.828   3.803   4.234 -0.9864  1.3114 -1.9006
 2857SOL    HW311475   2.920   3.821   4.115  1.4130  0.7226 -0.1614
 2857SOL    MW411476   2.907   3.819   4.201 -0.1585  0.3974 -0.3939
 2858SOL     OW11477   3.822   3.614   3.770 -0.6627 -0.1687  0.3853
 2858SOL    HW211478   3.823   3.701   3.809  0.1825 -0.3365  0.7474
 2858SOL    HW311479   3.903   3.573   3.801 -0.2587 -0.5039 -1.0819
 2858SOL    MW411480   3.833   3.620   3.779 -0.4978 -0.2353  0.2394
 2859SOL     OW11481   2.467   4.178   4.517 -0.7922  0.6024  0.0050
 2859SOL    HW211482   2.393   4.225   4.555  0.0041  0.3494  1.8909
 2859SOL    HW311483   2.535   4.245   4.507 -0.2069  0.1946  1.1998
 2859SOL    MW411484   2.467   4.193   4.520 -0.6099  0.5150  0.4115
 2860SOL     OW11485   2.246   3.984   3.811 -0.2936  0.6326  0.0745
 2860SOL    HW211486   2.322   3.934   3.841  0.4478  1.0227 -1.1007
 2860SOL    HW311487   2.258   3.991   3.716 -1.5226  1.1658 -0.0553
 2860SOL    MW411488   2.257   3.978   3.802 -0.3581  0.7544 -0.0975
 2861SOL     OW11489   2.462   0.206   4.245  0.5090  0.2211  0.1146
 2861SOL    HW211490   2.530   0.263   4.208 -0.0673  1.2141  0.5517
 2861SOL    HW311491   2.475   0.213   4.340 -0.7197  1.0828  0.2325
 2861SOL    MW411492   2.473   0.215   4.253  0.2708  0.4658  0.1879
 2862SOL     OW11493   2.177   1.906   4.197  0.1830  0.0694  0.6841
 2862SOL    HW211494   2.182   1.914   4.102  1.6598 -0.1286  0.7461
 2862SOL    HW311495   2.162   1.995   4.227  1.6819  0.4363  0.3850
 2862SOL    MW411496   2.175   1.919   4.188  0.5755  0.0918  0.6528
 2863SOL     OW11497   3.733   0.632   4.796 -0.6077  0.2239  0.0411
 2863SOL    HW211498   3.776   0.573   4.735  0.1153  0.3258  0.4507
 2863SOL    HW311499   3.796   0.702   4.811 -1.1720  0.7126  0.1332
 2863SOL    MW411500   3.747   0.633   4.790 -0.5870  0.3018  0.1078
 2864SOL     OW11501   3.508   4.019   4.676  0.4376 -0.0704 -0.3712
 2864SOL    HW211502   3.437   4.048   4.618 -0.8794  1.4378  1.8918
 2864SOL    HW311503   3.500   3.923   4.678 -0.2894 -0.0448 -1.6697
 2864SOL    MW411504   3.497   4.010   4.669  0.1681  0.1316 -0.2441
 2865SOL     OW11505   3.923   0.855   4.851  0.1805  0.4728 -0.3982
 2865SOL    HW211506   3.908   0.885   4.941  0.0758  0.3122 -0.3610
 2865SOL    HW311507   3.928   0.935   4.799  1.4766  0.6155 -0.0674
 2865SOL    MW411508   3.922   0.869   4.856  0.3376  0.4705 -0.3495
 2866SOL     OW11509   1.803   2.972   4.275  0.3857  0.0044 -0.0365
 2866SOL    HW211510   1.738   3.015   4.220  0.2074 -1.4541 -1.0188
 2866SOL    HW311511   1.794   2.879   4.254  3.1457 -0.1799 -0.5903
 2866SOL    MW411512   1.793   2.965   4.265  0.7262 -0.2124 -0.2394
 2867SOL     OW11513   0.710   2.773   3.789  0.1028  0.3435 -0.1150
 2867SOL    HW211514   0.711   2.810   3.701 -0.7644  0.8082  0.0647
 2867SOL    HW311515   0.689   2.846   3.846  1.2245  0.1589  0.5442
 2867SOL    MW411516   0.707   2.787   3.785  0.1364  0.3808 -0.0041
 2868SOL     OW11517   0.923   1.943   4.196 -0.0036  0.0680  0.0143
 2868SOL    HW211518   0.910   1.926   4.102 -1.1602 -1.8122  0.4742
 2868SOL    HW311519   0.995   1.884   4.221 -0.5988 -0.4363  0.5687
 2868SOL    MW411520   0.931   1.933   4.187 -0.2347 -0.2468  0.1483
 2869SOL     OW11521   1.728   4.218   4.613  0.2069  0.0896 -0.0513
 2869SOL    HW211522   1.653   4.172   4.575 -0.0199 -0.3095  0.8865
 2869SOL    HW311523   1.696   4.306   4.631 -0.1005 -0.1454  0.5525
 2869SOL    MW411524   1.714   4.224   4.610  0.1365  0.0052  0.1521
 2870SOL     OW11525   3.848   3.853   3.903 -0.7550 -0.7532  0.1667
 2870SOL    HW211526   3.877   3.840   3.994 -1.8746  0.1770  0.6673
 2870SOL    HW311527   3.923   3.894   3.860  0.0515 -1.8824  0.4878
 2870SOL    MW411528   3.861   3.857   3.909 -0.7963 -0.7794  0.2751
 2871SOL     OW11529   1.336   3.962   3.771  0.0837 -0.3110 -0.1128
 2871SOL    HW211530   1.424   3.925   3.773  0.7528  1.1940 -0.9330
 2871SOL    HW311531   1.318   3.977   3.678 -0.5679  0.4758  0.1300
 2871SOL    MW411532   1.345   3.959   3.759  0.0861 -0.0083 -0.1891
 2872SOL     OW11533   1.330   1.119   3.878 -0.5993 -0.4860 -0.4842
 2872SOL    HW211534   1.415   1.150   3.846 -1.8487  1.0875 -2.3528
 2872SOL    HW311535   1.322   1.030   3.844  0.4006 -0.7384 -0.0827
 2872SOL    MW411536   1.340   1.112   3.870 -0.6323 -0.3116 -0.6778
 2873SOL     OW11537   1.243   0.889   4.563 -0.2523  0.2012 -0.6028
 2873SOL    HW211538   1.196   0.912   4.643 -1.4910 -1.4523 -0.8280
 2873SOL    HW311539   1.182   0.909   4.493  0.0507 -0.2841 -1.0051
 2873SOL    MW411540   1.229   0.895   4.565 -0.3757 -0.0809 -0.6852
 2874SOL     OW11541   4.057   0.574   4.504 -0.0348 -0.3411 -0.0887
 2874SOL    HW211542   4.063   0.603   4.413 -0.7141  0.6408  0.1675
 2874SOL    HW311543   3.966   0.546   4.514 -0.7436  2.1920  1.0282
 2874SOL    MW411544   4.046   0.574   4.493 -0.2184  0.1227  0.0925
 2875SOL     OW11545   3.620   3.453   3.887 -0.2746 -0.0681  0.1049
 2875SOL    HW211546   3.547   3.498   3.843  1.2963  2.6405  0.1221
 2875SOL    HW311547   3.699   3.495   3.853  1.1441 -0.3181  2.8582
 2875SOL    MW411548   3.621   3.465   3.877  0.1197  0.2563  0.4704
 2876SOL     OW11549   1.800   1.643   3.824  0.3191 -0.0001  0.6003
 2876SOL    HW211550   1.812   1.659   3.731 -1.0138 -2.2388  0.0401
 2876SOL    HW311551   1.880   1.597   3.851  0.6072  0.4595  0.5533
 2876SOL    MW411552   1.812   1.639   3.815  0.1813 -0.2347  0.5200
 2877SOL     OW11553   1.570   1.740   4.303 -0.2368  0.2098  0.2378
 2877SOL    HW211554   1.628   1.808   4.269 -0.1836  0.4729  0.8640
 2877SOL    HW311555   1.599   1.660   4.258 -0.3932  0.6217 -0.6036
 2877SOL    MW411556   1.582   1.738   4.292 -0.2503  0.2987  0.2098
 2878SOL     OW11557   1.758   3.249   3.787 -0.3469 -0.7071  0.4113
 2878SOL    HW211558   1.675   3.213   3.820 -0.7053 -0.3395 -0.0822
 2878SOL    HW311559   1.756   3.341   3.813 -0.6492 -0.4046 -0.6511
 2878SOL    MW411560   1.747   3.256   3.795 -0.4340 -0.6185  0.2062
 2879SOL     OW11561   0.014   3.451   3.886 -0.3744 -0.0483  0.4062
 2879SOL    HW211562  -0.023   3.365   3.864 -0.1398 -0.0254 -0.0700
 2879SOL    HW311563   0.016   3.451   3.982  0.6317 -1.0139  0.4066
 2879SOL    MW411564   0.010   3.439   3.896 -0.2107 -0.1724  0.3438
 2880SOL     OW11565   1.993   1.244   3.745 -0.2809  0.2238 -0.3418
 2880SOL    HW211566   2.081   1.216   3.772 -0.5177  0.3330  0.5563
 2880SOL    HW311567   1.985   1.333   3.780 -1.2151 -0.2389  0.6203
 2880SOL    MW411568   2.004   1.252   3.753 -0.4354  0.1771 -0.0963
 2881SOL     OW11569   0.910   0.366   3.866  0.3175 -0.3132 -0.1587
 2881SOL    HW211570   0.990   0.408   3.833  0.6649 -0.2954  0.6935
 2881SOL    HW311571   0.917   0.275   3.837  1.5984 -0.7902  1.5599
 2881SOL    MW411572   0.921   0.360   3.857  0.5324 -0.3738  0.1805
 2882SOL     OW11573   3.131   3.971   3.774 -0.4174 -0.6539  0.0664
 2882SOL    HW211574   3.211   3.931   3.809 -0.4102 -2.2298 -1.6818
 2882SOL    HW311575   3.136   4.062   3.802  1.1101 -1.1417  1.4879
 2882SOL    MW411576   3.142   3.977   3.783 -0.2148 -0.9263  0.0236
 2883SOL     OW11577   2.937   4.610   4.154 -0.5798 -0.0742 -0.0496
 2883SOL    HW211578   3.011   4.560   4.188 -0.3278  0.2769 -0.0878
 2883SOL    HW311579   2.862   4.551   4.165 -0.2261 -0.5874 -0.4039
 2883SOL    MW411580   2.937   4.595   4.160 -0.5002 -0.0954 -0.1011
 2884SOL     OW11581   4.010   2.189   4.341  0.5507  0.0720  0.2166
 2884SOL    HW211582   4.039   2.195   4.432  0.5025  1.2824  0.1586
 2884SOL    HW311583   4.071   2.245   4.293  1.3519 -1.5375 -0.6953
 2884SOL    MW411584   4.022   2.197   4.346  0.6499  0.0191  0.0887
 2885NA      NA11585   3.346   2.876   0.278  0.2637 -0.0275  0.3949
   4.49070   4.66690  10.00000
