Gromacs Runs On Most of All Computer Systems in water t= 100.00000 step= 100000
11558
    1RG35     P    1   2.106   2.788   4.489
    1RG35   O1P    2   2.057   2.691   4.386
    1RG35   O2P    3   2.006   2.889   4.523
    1RG35   O5'    4   2.126   2.692   4.616
    1RG35   C5'    5   2.119   2.733   4.751
    1RG35  H5'1    6   2.027   2.789   4.769
    1RG35  H5'2    7   2.206   2.794   4.776
    1RG35   C4'    8   2.108   2.604   4.836
    1RG35   H4'    9   2.080   2.629   4.938
    1RG35   O4'   10   2.015   2.512   4.779
    1RG35   C1'   11   2.067   2.378   4.792
    1RG35   H1'   12   2.024   2.347   4.886
    1RG35    N9   13   2.011   2.297   4.681
    1RG35    C8   14   1.950   2.340   4.568
    1RG35    H8   15   1.948   2.443   4.534
    1RG35    N7   16   1.899   2.242   4.499
    1RG35    C5   17   1.920   2.129   4.578
    1RG35    C6   18   1.886   1.989   4.554
    1RG35    O6   19   1.819   1.940   4.464
    1RG35    N1   20   1.943   1.904   4.649
    1RG35    H1   21   1.941   1.805   4.631
    1RG35    C2   22   2.023   1.949   4.755
    1RG35    N2   23   2.083   1.861   4.826
    1RG35   H21   24   2.084   1.767   4.791
    1RG35   H22   25   2.150   1.899   4.891
    1RG35    N3   26   2.046   2.077   4.781
    1RG35    C4   27   1.989   2.164   4.691
    1RG35   C3'   28   2.245   2.530   4.844
    1RG35   H3'   29   2.322   2.576   4.782
    1RG35   C2'   30   2.218   2.387   4.791
    1RG35  H2'1   31   2.266   2.384   4.693
    1RG35   O2'   32   2.277   2.289   4.874
    1RG35  HO'2   33   2.240   2.206   4.840
    1RG35   O3'   34   2.292   2.519   4.977
    1RG35   H3T   35   2.318   2.427   4.986
    1RG35   O3P   36   2.244   2.841   4.469
    2SOL     OW   37   0.440   0.072   0.432
    2SOL    HW2   38   0.522   0.111   0.400
    2SOL    HW3   39   0.378   0.145   0.435
    2SOL    MW4   40   0.443   0.087   0.428
    3SOL     OW   41   3.982   0.054   0.499
    3SOL    HW2   42   4.045   0.117   0.464
    3SOL    HW3   43   4.016  -0.032   0.472
    3SOL    MW4   44   3.995   0.051   0.491
    4SOL     OW   45   3.593   0.312   0.401
    4SOL    HW2   46   3.505   0.280   0.380
    4SOL    HW3   47   3.578   0.400   0.435
    4SOL    MW4   48   3.579   0.319   0.402
    5SOL     OW   49   0.044   1.649   0.490
    5SOL    HW2   50   0.064   1.661   0.582
    5SOL    HW3   51   0.012   1.559   0.484
    5SOL    MW4   52   0.043   1.639   0.501
    6SOL     OW   53   1.405   0.800   0.442
    6SOL    HW2   54   1.383   0.822   0.533
    6SOL    HW3   55   1.327   0.827   0.393
    6SOL    MW4   56   1.392   0.807   0.448
    7SOL     OW   57   0.218   0.520   0.473
    7SOL    HW2   58   0.208   0.507   0.567
    7SOL    HW3   59   0.226   0.432   0.437
    7SOL    MW4   60   0.218   0.507   0.481
    8SOL     OW   61   0.446   0.915   0.447
    8SOL    HW2   62   0.447   0.919   0.542
    8SOL    HW3   63   0.451   0.822   0.427
    8SOL    MW4   64   0.447   0.903   0.457
    9SOL     OW   65   0.907   0.810   0.409
    9SOL    HW2   66   0.888   0.814   0.503
    9SOL    HW3   67   0.843   0.870   0.369
    9SOL    MW4   68   0.896   0.818   0.416
   10SOL     OW   69   0.706   0.997   0.360
   10SOL    HW2   70   0.685   1.025   0.271
   10SOL    HW3   71   0.625   0.956   0.392
   10SOL    MW4   72   0.692   0.995   0.353
   11SOL     OW   73   0.723   1.550   0.271
   11SOL    HW2   74   0.640   1.512   0.300
   11SOL    HW3   75   0.790   1.493   0.309
   11SOL    MW4   76   0.721   1.538   0.280
   12SOL     OW   77   4.192   2.048   0.515
   12SOL    HW2   78   4.208   1.955   0.497
   12SOL    HW3   79   4.098   2.059   0.503
   12SOL    MW4   80   4.182   2.037   0.511
   13SOL     OW   81   0.173   1.804   0.287
   13SOL    HW2   82   0.136   1.785   0.201
   13SOL    HW3   83   0.112   1.764   0.349
   13SOL    MW4   84   0.160   1.796   0.284
   14SOL     OW   85   0.473   2.299   0.516
   14SOL    HW2   86   0.390   2.251   0.514
   14SOL    HW3   87   0.539   2.233   0.497
   14SOL    MW4   88   0.471   2.284   0.513
   15SOL     OW   89   0.227   2.558   0.343
   15SOL    HW2   90   0.302   2.520   0.298
   15SOL    HW3   91   0.253   2.648   0.361
   15SOL    MW4   92   0.240   2.565   0.340
   16SOL     OW   93   4.258   3.311   0.513
   16SOL    HW2   94   4.205   3.295   0.591
   16SOL    HW3   95   4.285   3.223   0.485
   16SOL    MW4   96   4.254   3.297   0.520
   17SOL     OW   97   4.317   3.050   0.367
   17SOL    HW2   98   4.265   3.095   0.299
   17SOL    HW3   99   4.271   2.967   0.381
   17SOL    MW4  100   4.304   3.045   0.360
   18SOL     OW  101   0.335   3.429   0.343
   18SOL    HW2  102   0.341   3.352   0.400
   18SOL    HW3  103   0.423   3.466   0.342
   18SOL    MW4  104   0.348   3.423   0.350
   19SOL     OW  105   0.536   3.647   0.359
   19SOL    HW2  106   0.609   3.674   0.304
   19SOL    HW3  107   0.501   3.729   0.395
   19SOL    MW4  108   0.541   3.662   0.356
   20SOL     OW  109   4.122   3.207   0.231
   20SOL    HW2  110   4.109   3.190   0.137
   20SOL    HW3  111   4.146   3.300   0.234
   20SOL    MW4  112   4.124   3.217   0.219
   21SOL     OW  113   4.421   3.775   0.351
   21SOL    HW2  114   4.391   3.708   0.413
   21SOL    HW3  115   4.505   3.805   0.387
   21SOL    MW4  116   4.428   3.770   0.364
   22SOL     OW  117   0.010   4.453   0.303
   22SOL    HW2  118   0.013   4.422   0.212
   22SOL    HW3  119  -0.056   4.398   0.345
   22SOL    MW4  120   0.002   4.442   0.296
   23SOL     OW  121   4.294   4.289   0.408
   23SOL    HW2  122   4.302   4.289   0.503
   23SOL    HW3  123   4.283   4.197   0.384
   23SOL    MW4  124   4.293   4.277   0.417
   24SOL     OW  125   4.300   4.018   0.386
   24SOL    HW2  126   4.342   3.935   0.367
   24SOL    HW3  127   4.217   3.994   0.427
   24SOL    MW4  128   4.295   4.004   0.389
   25SOL     OW  129   0.467   3.256   0.540
   25SOL    HW2  130   0.450   3.262   0.634
   25SOL    HW3  131   0.534   3.323   0.523
   25SOL    MW4  132   0.474   3.265   0.550
   26SOL     OW  133   0.443   4.418   0.338
   26SOL    HW2  134   0.360   4.407   0.385
   26SOL    HW3  135   0.461   4.511   0.343
   26SOL    MW4  136   0.434   4.429   0.345
   27SOL     OW  137   0.238   0.261   0.399
   27SOL    HW2  138   0.155   0.217   0.413
   27SOL    HW3  139   0.249   0.264   0.304
   27SOL    MW4  140   0.229   0.255   0.388
   28SOL     OW  141   4.439   0.604   0.503
   28SOL    HW2  142   4.528   0.589   0.470
   28SOL    HW3  143   4.450   0.612   0.597
   28SOL    MW4  144   4.452   0.603   0.511
   29SOL     OW  145   0.910   4.421   0.483
   29SOL    HW2  146   0.948   4.401   0.568
   29SOL    HW3  147   0.835   4.362   0.476
   29SOL    MW4  148   0.905   4.410   0.493
   30SOL     OW  149   1.154   0.886   0.323
   30SOL    HW2  150   1.069   0.848   0.347
   30SOL    HW3  151   1.153   0.889   0.227
   30SOL    MW4  152   1.143   0.881   0.313
   31SOL     OW  153   0.646   0.464   0.423
   31SOL    HW2  154   0.741   0.465   0.416
   31SOL    HW3  155   0.620   0.379   0.386
   31SOL    MW4  156   0.655   0.453   0.417
   32SOL     OW  157   0.287   1.175   0.465
   32SOL    HW2  158   0.195   1.147   0.458
   32SOL    HW3  159   0.337   1.096   0.445
   32SOL    MW4  160   0.281   1.161   0.462
   33SOL     OW  161   0.595   1.826   0.367
   33SOL    HW2  162   0.669   1.777   0.333
   33SOL    HW3  163   0.536   1.760   0.403
   33SOL    MW4  164   0.597   1.811   0.368
   34SOL     OW  165   0.396   1.998   0.294
   34SOL    HW2  166   0.468   1.942   0.324
   34SOL    HW3  167   0.322   1.938   0.284
   34SOL    MW4  168   0.396   1.983   0.297
   35SOL     OW  169   0.503   2.462   0.279
   35SOL    HW2  170   0.486   2.403   0.352
   35SOL    HW3  171   0.507   2.406   0.202
   35SOL    MW4  172   0.501   2.447   0.278
   36SOL     OW  173   0.765   2.321   0.266
   36SOL    HW2  174   0.825   2.249   0.284
   36SOL    HW3  175   0.691   2.280   0.221
   36SOL    MW4  176   0.763   2.306   0.262
   37SOL     OW  177   3.987   2.364   0.307
   37SOL    HW2  178   4.049   2.301   0.269
   37SOL    HW3  179   4.042   2.435   0.339
   37SOL    MW4  180   4.002   2.365   0.306
   38SOL     OW  181   0.738   2.763   0.314
   38SOL    HW2  182   0.708   2.808   0.236
   38SOL    HW3  183   0.739   2.831   0.382
   38SOL    MW4  184   0.734   2.778   0.313
   39SOL     OW  185   0.608   2.623   0.550
   39SOL    HW2  186   0.575   2.573   0.624
   39SOL    HW3  187   0.636   2.707   0.588
   39SOL    MW4  188   0.607   2.628   0.564
   40SOL     OW  189   0.058   3.139   0.500
   40SOL    HW2  190   0.071   3.224   0.460
   40SOL    HW3  191   0.002   3.092   0.438
   40SOL    MW4  192   0.052   3.144   0.487
   41SOL     OW  193   0.348   2.783   0.417
   41SOL    HW2  194   0.344   2.861   0.472
   41SOL    HW3  195   0.401   2.721   0.467
   41SOL    MW4  196   0.354   2.785   0.431
   42SOL     OW  197   0.902   0.298   0.183
   42SOL    HW2  198   0.909   0.313   0.089
   42SOL    HW3  199   0.917   0.383   0.223
   42SOL    MW4  200   0.905   0.311   0.176
   43SOL     OW  201   0.210   3.601   0.535
   43SOL    HW2  202   0.197   3.693   0.512
   43SOL    HW3  203   0.250   3.562   0.458
   43SOL    MW4  204   0.213   3.608   0.522
   44SOL     OW  205   0.660   3.463   0.505
   44SOL    HW2  206   0.614   3.525   0.448
   44SOL    HW3  207   0.648   3.499   0.593
   44SOL    MW4  208   0.652   3.476   0.509
   45SOL     OW  209   1.202   3.591   0.474
   45SOL    HW2  210   1.118   3.556   0.444
   45SOL    HW3  211   1.254   3.513   0.495
   45SOL    MW4  212   1.198   3.576   0.473
   46SOL     OW  213   0.205   4.336   0.463
   46SOL    HW2  214   0.142   4.382   0.406
   46SOL    HW3  215   0.169   4.248   0.470
   46SOL    MW4  216   0.192   4.331   0.456
   47SOL     OW  217   0.928   3.540   0.400
   47SOL    HW2  218   0.895   3.613   0.348
   47SOL    HW3  219   0.850   3.506   0.446
   47SOL    MW4  220   0.913   3.545   0.399
   48SOL     OW  221   0.648   4.267   0.462
   48SOL    HW2  222   0.591   4.308   0.397
   48SOL    HW3  223   0.633   4.317   0.542
   48SOL    MW4  224   0.639   4.279   0.464
   49SOL     OW  225   0.691   0.208   0.335
   49SOL    HW2  226   0.739   0.147   0.390
   49SOL    HW3  227   0.755   0.239   0.271
   49SOL    MW4  228   0.706   0.204   0.334
   50SOL     OW  229   0.929   0.511   0.367
   50SOL    HW2  230   0.931   0.606   0.376
   50SOL    HW3  231   1.017   0.482   0.392
   50SOL    MW4  232   0.941   0.520   0.372
   51SOL     OW  233   0.442   0.659   0.378
   51SOL    HW2  234   0.374   0.615   0.429
   51SOL    HW3  235   0.514   0.595   0.374
   51SOL    MW4  236   0.443   0.645   0.384
   52SOL     OW  237   1.486   0.524   0.465
   52SOL    HW2  238   1.457   0.615   0.464
   52SOL    HW3  239   1.580   0.528   0.487
   52SOL    MW4  240   1.495   0.536   0.468
   53SOL     OW  241   1.841   0.752   0.534
   53SOL    HW2  242   1.843   0.807   0.613
   53SOL    HW3  243   1.790   0.675   0.561
   53SOL    MW4  244   1.834   0.749   0.548
   54SOL     OW  245   1.662   0.936   0.390
   54SOL    HW2  246   1.586   0.879   0.401
   54SOL    HW3  247   1.737   0.879   0.403
   54SOL    MW4  248   1.662   0.921   0.393
   55SOL     OW  249   0.479   1.380   0.392
   55SOL    HW2  250   0.559   1.340   0.427
   55SOL    HW3  251   0.411   1.315   0.406
   55SOL    MW4  252   0.481   1.366   0.398
   56SOL     OW  253   0.703   1.238   0.484
   56SOL    HW2  254   0.691   1.152   0.444
   56SOL    HW3  255   0.782   1.272   0.444
   56SOL    MW4  256   0.712   1.231   0.473
   57SOL     OW  257   1.354   1.372   0.348
   57SOL    HW2  258   1.432   1.354   0.401
   57SOL    HW3  259   1.331   1.463   0.370
   57SOL    MW4  260   1.362   1.382   0.358
   58SOL     OW  261   0.918   1.381   0.401
   58SOL    HW2  262   0.998   1.328   0.399
   58SOL    HW3  263   0.948   1.468   0.428
   58SOL    MW4  264   0.933   1.386   0.404
   59SOL     OW  265   0.996   1.623   0.496
   59SOL    HW2  266   1.089   1.647   0.502
   59SOL    HW3  267   0.965   1.625   0.587
   59SOL    MW4  268   1.004   1.626   0.509
   60SOL     OW  269   0.244   2.158   0.457
   60SOL    HW2  270   0.162   2.144   0.411
   60SOL    HW3  271   0.308   2.107   0.407
   60SOL    MW4  272   0.242   2.150   0.444
   61SOL     OW  273   0.867   1.791   0.288
   61SOL    HW2  274   0.861   1.707   0.243
   61SOL    HW3  275   0.901   1.771   0.374
   61SOL    MW4  276   0.870   1.777   0.293
   62SOL     OW  277   0.933   2.527   0.469
   62SOL    HW2  278   1.003   2.475   0.430
   62SOL    HW3  279   0.923   2.492   0.557
   62SOL    MW4  280   0.941   2.515   0.475
   63SOL     OW  281   0.643   2.087   0.488
   63SOL    HW2  282   0.726   2.110   0.446
   63SOL    HW3  283   0.628   1.996   0.462
   63SOL    MW4  284   0.652   2.078   0.479
   64SOL     OW  285   1.044   2.787   0.442
   64SOL    HW2  286   1.004   2.699   0.440
   64SOL    HW3  287   0.973   2.845   0.470
   64SOL    MW4  288   1.029   2.783   0.446
   65SOL     OW  289   0.554   2.200   0.127
   65SOL    HW2  290   0.571   2.119   0.080
   65SOL    HW3  291   0.487   2.178   0.192
   65SOL    MW4  292   0.548   2.187   0.129
   66SOL     OW  293   0.294   3.009   0.573
   66SOL    HW2  294   0.367   3.069   0.559
   66SOL    HW3  295   0.216   3.060   0.552
   66SOL    MW4  296   0.294   3.023   0.569
   67SOL     OW  297   0.902   3.221   0.545
   67SOL    HW2  298   0.908   3.217   0.640
   67SOL    HW3  299   0.822   3.271   0.528
   67SOL    MW4  300   0.892   3.227   0.555
   68SOL     OW  301   1.714   3.784   0.134
   68SOL    HW2  302   1.761   3.768   0.052
   68SOL    HW3  303   1.638   3.726   0.130
   68SOL    MW4  304   1.710   3.774   0.123
   69SOL     OW  305   0.744   3.994   0.458
   69SOL    HW2  306   0.697   4.077   0.463
   69SOL    HW3  307   0.800   3.993   0.536
   69SOL    MW4  308   0.745   4.004   0.469
   70SOL     OW  309   0.471   3.876   0.504
   70SOL    HW2  310   0.440   3.883   0.594
   70SOL    HW3  311   0.552   3.926   0.501
   70SOL    MW4  312   0.477   3.883   0.515
   71SOL     OW  313   1.095   4.260   0.327
   71SOL    HW2  314   1.156   4.328   0.299
   71SOL    HW3  315   1.022   4.308   0.366
   71SOL    MW4  316   1.093   4.275   0.328
   72SOL     OW  317   1.190   0.454   0.460
   72SOL    HW2  318   1.195   0.359   0.452
   72SOL    HW3  319   1.280   0.485   0.447
   72SOL    MW4  320   1.202   0.446   0.457
   73SOL     OW  321   0.857   0.029   0.467
   73SOL    HW2  322   0.881  -0.064   0.462
   73SOL    HW3  323   0.870   0.051   0.559
   73SOL    MW4  324   0.862   0.019   0.478
   74SOL     OW  325   1.335   0.054   0.433
   74SOL    HW2  326   1.260   0.093   0.388
   74SOL    HW3  327   1.409   0.108   0.406
   74SOL    MW4  328   1.335   0.066   0.423
   75SOL     OW  329   1.754   0.487   0.578
   75SOL    HW2  330   1.795   0.403   0.559
   75SOL    HW3  331   1.698   0.471   0.653
   75SOL    MW4  332   1.752   0.474   0.585
   76SOL     OW  333   1.073   0.170   0.365
   76SOL    HW2  334   1.016   0.114   0.417
   76SOL    HW3  335   1.014   0.218   0.307
   76SOL    MW4  336   1.058   0.169   0.364
   77SOL     OW  337   2.087   0.656   0.566
   77SOL    HW2  338   1.994   0.675   0.549
   77SOL    HW3  339   2.134   0.724   0.518
   77SOL    MW4  340   2.081   0.668   0.557
   78SOL     OW  341   2.700   0.969   0.483
   78SOL    HW2  342   2.775   0.909   0.484
   78SOL    HW3  343   2.735   1.050   0.448
   78SOL    MW4  344   2.714   0.972   0.478
   79SOL     OW  345   1.785   1.402   0.532
   79SOL    HW2  346   1.739   1.449   0.601
   79SOL    HW3  347   1.729   1.327   0.513
   79SOL    MW4  348   1.772   1.398   0.539
   80SOL     OW  349   1.603   1.202   0.445
   80SOL    HW2  350   1.625   1.109   0.447
   80SOL    HW3  351   1.607   1.225   0.352
   80SOL    MW4  352   1.606   1.192   0.433
   81SOL     OW  353   1.148   1.200   0.444
   81SOL    HW2  354   1.212   1.256   0.400
   81SOL    HW3  355   1.165   1.112   0.408
   81SOL    MW4  356   1.159   1.196   0.433
   82SOL     OW  357   1.300   1.634   0.454
   82SOL    HW2  358   1.317   1.626   0.548
   82SOL    HW3  359   1.304   1.729   0.437
   82SOL    MW4  360   1.303   1.646   0.464
   83SOL     OW  361   1.161   2.406   0.380
   83SOL    HW2  362   1.233   2.464   0.402
   83SOL    HW3  363   1.198   2.318   0.389
   83SOL    MW4  364   1.175   2.402   0.384
   84SOL     OW  365   1.484   2.767   0.322
   84SOL    HW2  366   1.515   2.760   0.232
   84SOL    HW3  367   1.431   2.846   0.323
   84SOL    MW4  368   1.481   2.776   0.310
   85SOL     OW  369   1.879   2.262   0.236
   85SOL    HW2  370   1.937   2.309   0.297
   85SOL    HW3  371   1.902   2.170   0.247
   85SOL    MW4  372   1.890   2.256   0.246
   86SOL     OW  373   1.511   2.027   0.432
   86SOL    HW2  374   1.532   2.120   0.426
   86SOL    HW3  375   1.596   1.983   0.431
   86SOL    MW4  376   1.525   2.034   0.431
   87SOL     OW  377   0.893   2.075   0.344
   87SOL    HW2  378   0.978   2.087   0.388
   87SOL    HW3  379   0.887   1.981   0.329
   87SOL    MW4  380   0.904   2.064   0.348
   88SOL     OW  381   0.806   2.957   0.521
   88SOL    HW2  382   0.832   3.049   0.528
   88SOL    HW3  383   0.768   2.937   0.607
   88SOL    MW4  384   0.804   2.966   0.534
   89SOL     OW  385   1.986   2.503   0.417
   89SOL    HW2  386   1.974   2.598   0.419
   89SOL    HW3  387   2.075   2.490   0.451
   89SOL    MW4  388   1.997   2.514   0.422
   90SOL     OW  389   1.781   0.153   0.246
   90SOL    HW2  390   1.699   0.167   0.293
   90SOL    HW3  391   1.770   0.201   0.164
   90SOL    MW4  392   1.769   0.161   0.241
   91SOL     OW  393   1.353   3.803   0.345
   91SOL    HW2  394   1.288   3.740   0.378
   91SOL    HW3  395   1.316   3.888   0.366
   91SOL    MW4  396   1.339   3.806   0.352
   92SOL     OW  397   1.668   2.766   0.534
   92SOL    HW2  398   1.640   2.815   0.612
   92SOL    HW3  399   1.600   2.785   0.469
   92SOL    MW4  400   1.655   2.775   0.536
   93SOL     OW  401   1.432   3.628   0.139
   93SOL    HW2  402   1.364   3.611   0.074
   93SOL    HW3  403   1.393   3.692   0.198
   93SOL    MW4  404   1.418   3.634   0.138
   94SOL     OW  405   1.130   3.175   0.391
   94SOL    HW2  406   1.105   3.166   0.299
   94SOL    HW3  407   1.047   3.193   0.436
   94SOL    MW4  408   1.116   3.176   0.385
   95SOL     OW  409   2.086   3.720   0.365
   95SOL    HW2  410   2.085   3.628   0.392
   95SOL    HW3  411   2.173   3.732   0.326
   95SOL    MW4  412   2.097   3.709   0.363
   96SOL     OW  413   0.785   3.776   0.281
   96SOL    HW2  414   0.770   3.839   0.351
   96SOL    HW3  415   0.816   3.829   0.207
   96SOL    MW4  416   0.787   3.791   0.280
   97SOL     OW  417   1.849   4.572   0.360
   97SOL    HW2  418   1.760   4.538   0.352
   97SOL    HW3  419   1.852   4.645   0.297
   97SOL    MW4  420   1.838   4.577   0.350
   98SOL     OW  421   1.961   4.572   0.607
   98SOL    HW2  422   1.958   4.489   0.655
   98SOL    HW3  423   1.916   4.553   0.524
   98SOL    MW4  424   1.954   4.559   0.602
   99SOL     OW  425   1.880   0.255   0.495
   99SOL    HW2  426   1.842   0.185   0.548
   99SOL    HW3  427   1.862   0.229   0.404
   99SOL    MW4  428   1.873   0.242   0.490
  100SOL     OW  429   1.290   4.070   0.403
  100SOL    HW2  430   1.222   4.123   0.364
  100SOL    HW3  431   1.359   4.132   0.427
  100SOL    MW4  432   1.290   4.085   0.401
  101SOL     OW  433   2.203   0.880   0.432
  101SOL    HW2  434   2.293   0.911   0.418
  101SOL    HW3  435   2.150   0.960   0.424
  101SOL    MW4  436   2.208   0.895   0.429
  102SOL     OW  437   1.956   1.980   0.292
  102SOL    HW2  438   1.983   1.946   0.207
  102SOL    HW3  439   2.038   1.986   0.342
  102SOL    MW4  440   1.971   1.976   0.287
  103SOL     OW  441   2.433   1.015   0.439
  103SOL    HW2  442   2.424   1.110   0.449
  103SOL    HW3  443   2.523   0.997   0.464
  103SOL    MW4  444   2.444   1.025   0.444
  104SOL     OW  445   2.470   1.292   0.500
  104SOL    HW2  446   2.560   1.290   0.467
  104SOL    HW3  447   2.429   1.366   0.454
  104SOL    MW4  448   2.476   1.302   0.490
  105SOL     OW  449   2.214   1.705   0.485
  105SOL    HW2  450   2.227   1.800   0.476
  105SOL    HW3  451   2.119   1.694   0.482
  105SOL    MW4  452   2.203   1.716   0.483
  106SOL     OW  453   1.751   1.873   0.460
  106SOL    HW2  454   1.819   1.915   0.407
  106SOL    HW3  455   1.776   1.892   0.551
  106SOL    MW4  456   1.764   1.881   0.465
  107SOL     OW  457   1.284   1.909   0.335
  107SOL    HW2  458   1.368   1.947   0.359
  107SOL    HW3  459   1.277   1.924   0.241
  107SOL    MW4  460   1.294   1.916   0.326
  108SOL     OW  461   2.267   2.453   0.467
  108SOL    HW2  462   2.344   2.509   0.454
  108SOL    HW3  463   2.258   2.448   0.562
  108SOL    MW4  464   2.276   2.460   0.478
  109SOL     OW  465   1.828   3.280   0.401
  109SOL    HW2  466   1.781   3.305   0.322
  109SOL    HW3  467   1.884   3.356   0.420
  109SOL    MW4  468   1.829   3.294   0.393
  110SOL     OW  469   1.245   2.924   0.306
  110SOL    HW2  470   1.216   3.006   0.346
  110SOL    HW3  471   1.177   2.860   0.328
  110SOL    MW4  472   1.232   2.926   0.314
  111SOL     OW  473   1.491   3.434   0.341
  111SOL    HW2  474   1.480   3.484   0.261
  111SOL    HW3  475   1.536   3.494   0.401
  111SOL    MW4  476   1.496   3.448   0.338
  112SOL     OW  477   1.145   2.090   0.476
  112SOL    HW2  478   1.168   2.058   0.563
  112SOL    HW3  479   1.185   2.027   0.415
  112SOL    MW4  480   1.154   2.078   0.479
  113SOL     OW  481   3.918   2.040   0.449
  113SOL    HW2  482   3.879   1.952   0.453
  113SOL    HW3  483   3.844   2.099   0.455
  113SOL    MW4  484   3.903   2.036   0.450
  114SOL     OW  485   1.745   2.477   0.561
  114SOL    HW2  486   1.832   2.464   0.523
  114SOL    HW3  487   1.718   2.563   0.528
  114SOL    MW4  488   1.753   2.487   0.552
  115SOL     OW  489   1.424   2.523   0.434
  115SOL    HW2  490   1.482   2.463   0.388
  115SOL    HW3  491   1.447   2.610   0.398
  115SOL    MW4  492   1.435   2.527   0.423
  116SOL     OW  493   1.315   3.337   0.526
  116SOL    HW2  494   1.387   3.348   0.463
  116SOL    HW3  495   1.253   3.279   0.481
  116SOL    MW4  496   1.316   3.331   0.512
  117SOL     OW  497   2.253   3.269   0.475
  117SOL    HW2  498   2.209   3.200   0.426
  117SOL    HW3  499   2.235   3.250   0.567
  117SOL    MW4  500   2.245   3.258   0.481
  118SOL     OW  501   1.750   4.069   0.454
  118SOL    HW2  502   1.754   3.980   0.420
  118SOL    HW3  503   1.841   4.098   0.454
  118SOL    MW4  504   1.763   4.061   0.449
  119SOL     OW  505   1.584   3.652   0.475
  119SOL    HW2  506   1.504   3.699   0.453
  119SOL    HW3  507   1.654   3.715   0.459
  119SOL    MW4  508   1.583   3.666   0.470
  120SOL     OW  509   1.517   4.253   0.458
  120SOL    HW2  510   1.529   4.285   0.548
  120SOL    HW3  511   1.592   4.194   0.444
  120SOL    MW4  512   1.529   4.249   0.468
  121SOL     OW  513   1.571   4.532   0.425
  121SOL    HW2  514   1.488   4.572   0.400
  121SOL    HW3  515   1.551   4.439   0.435
  121SOL    MW4  516   1.557   4.525   0.423
  122SOL     OW  517   2.216   4.620   0.524
  122SOL    HW2  518   2.278   4.576   0.582
  122SOL    HW3  519   2.131   4.609   0.567
  122SOL    MW4  520   2.213   4.613   0.537
  123SOL     OW  521   2.195   0.245   0.534
  123SOL    HW2  522   2.208   0.155   0.503
  123SOL    HW3  523   2.103   0.263   0.518
  123SOL    MW4  524   2.185   0.235   0.528
  124SOL     OW  525   2.879   1.591   0.374
  124SOL    HW2  526   2.790   1.600   0.407
  124SOL    HW3  527   2.906   1.503   0.402
  124SOL    MW4  528   2.871   1.581   0.382
  125SOL     OW  529   2.928   0.825   0.489
  125SOL    HW2  530   2.917   0.730   0.479
  125SOL    HW3  531   3.015   0.835   0.528
  125SOL    MW4  532   2.938   0.813   0.493
  126SOL     OW  533   2.732   1.236   0.396
  126SOL    HW2  534   2.817   1.276   0.412
  126SOL    HW3  535   2.726   1.228   0.300
  126SOL    MW4  536   2.743   1.240   0.385
  127SOL     OW  537   3.000   1.325   0.481
  127SOL    HW2  538   3.018   1.233   0.463
  127SOL    HW3  539   2.967   1.326   0.571
  127SOL    MW4  540   2.998   1.313   0.490
  128SOL     OW  541   2.630   1.654   0.470
  128SOL    HW2  542   2.613   1.742   0.437
  128SOL    HW3  543   2.628   1.662   0.565
  128SOL    MW4  544   2.628   1.667   0.478
  129SOL     OW  545   3.005   2.009   0.407
  129SOL    HW2  546   2.946   2.048   0.472
  129SOL    HW3  547   2.947   1.975   0.339
  129SOL    MW4  548   2.990   2.010   0.407
  130SOL     OW  549   2.949   4.479   0.507
  130SOL    HW2  550   3.010   4.552   0.507
  130SOL    HW3  551   2.946   4.450   0.598
  130SOL    MW4  552   2.957   4.485   0.519
  131SOL     OW  553   2.187   1.991   0.467
  131SOL    HW2  554   2.141   2.000   0.551
  131SOL    HW3  555   2.257   2.055   0.471
  131SOL    MW4  556   2.190   2.001   0.479
  132SOL     OW  557   1.634   1.513   0.752
  132SOL    HW2  558   1.677   1.569   0.815
  132SOL    HW3  559   1.548   1.552   0.740
  132SOL    MW4  560   1.628   1.525   0.758
  133SOL     OW  561   2.386   2.219   0.534
  133SOL    HW2  562   2.354   2.300   0.493
  133SOL    HW3  563   2.475   2.208   0.500
  133SOL    MW4  564   2.394   2.228   0.524
  134SOL     OW  565   2.661   2.198   0.462
  134SOL    HW2  566   2.687   2.282   0.423
  134SOL    HW3  567   2.719   2.189   0.538
  134SOL    MW4  568   2.672   2.208   0.467
  135SOL     OW  569   2.646   2.862   0.554
  135SOL    HW2  570   2.633   2.950   0.518
  135SOL    HW3  571   2.622   2.870   0.646
  135SOL    MW4  572   2.641   2.875   0.561
  136SOL     OW  573   1.622   2.289   0.393
  136SOL    HW2  574   1.680   2.297   0.318
  136SOL    HW3  575   1.661   2.344   0.460
  136SOL    MW4  576   1.635   2.297   0.392
  137SOL     OW  577   1.958   2.803   0.463
  137SOL    HW2  578   1.983   2.838   0.548
  137SOL    HW3  579   1.862   2.807   0.462
  137SOL    MW4  580   1.948   2.808   0.474
  138SOL     OW  581   2.182   3.948   0.522
  138SOL    HW2  582   2.273   3.934   0.493
  138SOL    HW3  583   2.143   3.861   0.520
  138SOL    MW4  584   2.189   3.935   0.518
  139SOL     OW  585   2.444   3.956   0.404
  139SOL    HW2  586   2.429   3.874   0.357
  139SOL    HW3  587   2.539   3.967   0.402
  139SOL    MW4  588   2.455   3.947   0.397
  140SOL     OW  589   1.810   3.802   0.400
  140SOL    HW2  590   1.902   3.776   0.404
  140SOL    HW3  591   1.785   3.788   0.309
  140SOL    MW4  592   1.819   3.797   0.389
  141SOL     OW  593   2.040   3.456   0.479
  141SOL    HW2  594   2.114   3.395   0.479
  141SOL    HW3  595   2.036   3.491   0.568
  141SOL    MW4  596   2.049   3.453   0.491
  142SOL     OW  597   2.146   4.387   0.369
  142SOL    HW2  598   2.156   4.480   0.391
  142SOL    HW3  599   2.110   4.387   0.280
  142SOL    MW4  600   2.143   4.399   0.360
  143SOL     OW  601   2.004   4.164   0.475
  143SOL    HW2  602   2.076   4.108   0.505
  143SOL    HW3  603   2.048   4.245   0.445
  143SOL    MW4  604   2.020   4.168   0.475
  144SOL     OW  605   3.076   0.077   0.521
  144SOL    HW2  606   3.151   0.117   0.477
  144SOL    HW3  607   3.092   0.093   0.614
  144SOL    MW4  608   3.088   0.084   0.528
  145SOL     OW  609   2.379   3.706   0.290
  145SOL    HW2  610   2.433   3.675   0.217
  145SOL    HW3  611   2.422   3.671   0.368
  145SOL    MW4  612   2.392   3.697   0.290
  146SOL     OW  613   2.398   4.237   0.490
  146SOL    HW2  614   2.322   4.279   0.450
  146SOL    HW3  615   2.410   4.156   0.440
  146SOL    MW4  616   2.390   4.232   0.478
  147SOL     OW  617   2.448   0.386   0.498
  147SOL    HW2  618   2.432   0.468   0.452
  147SOL    HW3  619   2.362   0.344   0.503
  147SOL    MW4  620   2.435   0.391   0.493
  148SOL     OW  621   1.549   0.254   0.414
  148SOL    HW2  622   1.518   0.344   0.425
  148SOL    HW3  623   1.584   0.230   0.499
  148SOL    MW4  624   1.550   0.263   0.427
  149SOL     OW  625   3.258   0.538   0.467
  149SOL    HW2  626   3.244   0.632   0.466
  149SOL    HW3  627   3.316   0.521   0.392
  149SOL    MW4  628   3.264   0.548   0.457
  150SOL     OW  629   2.390   1.526   0.369
  150SOL    HW2  630   2.329   1.574   0.426
  150SOL    HW3  631   2.472   1.574   0.375
  150SOL    MW4  632   2.393   1.539   0.378
  151SOL     OW  633   3.028   1.074   0.399
  151SOL    HW2  634   3.109   1.043   0.357
  151SOL    HW3  635   2.981   0.994   0.422
  151SOL    MW4  636   3.033   1.059   0.396
  152SOL     OW  637   3.112   1.751   0.451
  152SOL    HW2  638   3.053   1.690   0.407
  152SOL    HW3  639   3.068   1.836   0.444
  152SOL    MW4  640   3.099   1.754   0.444
  153SOL     OW  641   2.851   1.851   0.223
  153SOL    HW2  642   2.900   1.774   0.249
  153SOL    HW3  643   2.788   1.820   0.158
  153SOL    MW4  644   2.849   1.837   0.218
  154SOL     OW  645   3.712   1.516   0.453
  154SOL    HW2  646   3.638   1.521   0.393
  154SOL    HW3  647   3.672   1.512   0.540
  154SOL    MW4  648   3.697   1.516   0.457
  155SOL     OW  649   2.678   0.142   0.791
  155SOL    HW2  650   2.662   0.230   0.826
  155SOL    HW3  651   2.678   0.154   0.696
  155SOL    MW4  652   2.676   0.155   0.783
  156SOL     OW  653   3.221   2.127   0.582
  156SOL    HW2  654   3.145   2.129   0.524
  156SOL    HW3  655   3.190   2.081   0.660
  156SOL    MW4  656   3.207   2.121   0.585
  157SOL     OW  657   2.742   2.446   0.364
  157SOL    HW2  658   2.815   2.496   0.402
  157SOL    HW3  659   2.752   2.458   0.270
  157SOL    MW4  660   2.753   2.455   0.357
  158SOL     OW  661   2.628   1.927   0.390
  158SOL    HW2  662   2.699   1.922   0.327
  158SOL    HW3  663   2.640   2.012   0.433
  158SOL    MW4  664   2.639   1.938   0.388
  159SOL     OW  665   2.509   2.592   0.496
  159SOL    HW2  666   2.540   2.680   0.516
  159SOL    HW3  667   2.584   2.549   0.454
  159SOL    MW4  668   2.523   2.598   0.493
  160SOL     OW  669   2.709   3.172   0.489
  160SOL    HW2  670   2.789   3.216   0.461
  160SOL    HW3  671   2.701   3.191   0.582
  160SOL    MW4  672   2.718   3.180   0.498
  161SOL     OW  673   2.902   3.379   0.367
  161SOL    HW2  674   2.991   3.345   0.354
  161SOL    HW3  675   2.915   3.471   0.388
  161SOL    MW4  676   2.916   3.386   0.368
  162SOL     OW  677   3.183   3.221   0.425
  162SOL    HW2  678   3.207   3.129   0.415
  162SOL    HW3  679   3.185   3.236   0.520
  162SOL    MW4  680   3.187   3.211   0.437
  163SOL     OW  681   2.505   3.344   0.374
  163SOL    HW2  682   2.554   3.273   0.416
  163SOL    HW3  683   2.414   3.317   0.380
  163SOL    MW4  684   2.500   3.331   0.380
  164SOL     OW  685   2.597   3.631   0.090
  164SOL    HW2  686   2.624   3.545   0.123
  164SOL    HW3  687   2.582   3.617  -0.004
  164SOL    MW4  688   2.598   3.618   0.082
  165SOL     OW  689   3.384   3.667   0.314
  165SOL    HW2  690   3.465   3.716   0.329
  165SOL    HW3  691   3.411   3.575   0.311
  165SOL    MW4  692   3.398   3.661   0.315
  166SOL     OW  693   2.714   3.752   0.311
  166SOL    HW2  694   2.683   3.723   0.226
  166SOL    HW3  695   2.658   3.707   0.374
  166SOL    MW4  696   2.703   3.743   0.308
  167SOL     OW  697   2.516   3.610   0.488
  167SOL    HW2  698   2.513   3.614   0.584
  167SOL    HW3  699   2.500   3.518   0.467
  167SOL    MW4  700   2.513   3.599   0.498
  168SOL     OW  701   3.624   3.803   0.380
  168SOL    HW2  702   3.582   3.861   0.443
  168SOL    HW3  703   3.666   3.736   0.433
  168SOL    MW4  704   3.624   3.802   0.395
  169SOL     OW  705   3.164   4.307   0.429
  169SOL    HW2  706   3.131   4.219   0.409
  169SOL    HW3  707   3.086   4.357   0.453
  169SOL    MW4  708   3.149   4.302   0.429
  170SOL     OW  709   3.337   4.553   0.401
  170SOL    HW2  710   3.424   4.518   0.382
  170SOL    HW3  711   3.276   4.492   0.360
  170SOL    MW4  712   3.341   4.541   0.393
  171SOL     OW  713   3.443   4.273   0.539
  171SOL    HW2  714   3.357   4.291   0.500
  171SOL    HW3  715   3.504   4.327   0.488
  171SOL    MW4  716   3.440   4.282   0.527
  172SOL     OW  717   2.733   4.270   0.488
  172SOL    HW2  718   2.733   4.179   0.458
  172SOL    HW3  719   2.822   4.301   0.468
  172SOL    MW4  720   2.745   4.262   0.481
  173SOL     OW  721   2.633   0.175   0.523
  173SOL    HW2  722   2.561   0.238   0.517
  173SOL    HW3  723   2.710   0.223   0.494
  173SOL    MW4  724   2.633   0.189   0.518
  174SOL     OW  725   3.214   0.789   0.528
  174SOL    HW2  726   3.199   0.818   0.618
  174SOL    HW3  727   3.267   0.858   0.489
  174SOL    MW4  728   3.219   0.802   0.535
  175SOL     OW  729   2.969   0.541   0.518
  175SOL    HW2  730   2.931   0.453   0.508
  175SOL    HW3  731   3.061   0.530   0.491
  175SOL    MW4  732   2.976   0.528   0.513
  176SOL     OW  733   3.595   0.902   0.513
  176SOL    HW2  734   3.572   0.819   0.471
  176SOL    HW3  735   3.599   0.881   0.606
  176SOL    MW4  736   3.593   0.888   0.520
  177SOL     OW  737   2.873   0.291   0.443
  177SOL    HW2  738   2.903   0.305   0.353
  177SOL    HW3  739   2.939   0.235   0.482
  177SOL    MW4  740   2.885   0.286   0.436
  178SOL     OW  741   3.470   1.975   0.567
  178SOL    HW2  742   3.457   1.958   0.661
  178SOL    HW3  743   3.387   2.014   0.539
  178SOL    MW4  744   3.457   1.978   0.576
  179SOL     OW  745   3.377   1.738   0.455
  179SOL    HW2  746   3.429   1.818   0.457
  179SOL    HW3  747   3.287   1.768   0.441
  179SOL    MW4  748   3.372   1.752   0.453
  180SOL     OW  749   3.346   1.015   0.403
  180SOL    HW2  750   3.347   1.107   0.380
  180SOL    HW3  751   3.430   1.000   0.447
  180SOL    MW4  752   3.357   1.025   0.406
  181SOL     OW  753   3.818   1.773   0.488
  181SOL    HW2  754   3.785   1.685   0.471
  181SOL    HW3  755   3.786   1.793   0.577
  181SOL    MW4  756   3.809   1.764   0.498
  182SOL     OW  757   3.368   2.343   0.649
  182SOL    HW2  758   3.326   2.260   0.626
  182SOL    HW3  759   3.412   2.325   0.733
  182SOL    MW4  760   3.368   2.330   0.657
  183SOL     OW  761   3.546   2.700   0.593
  183SOL    HW2  762   3.571   2.662   0.678
  183SOL    HW3  763   3.496   2.631   0.551
  183SOL    MW4  764   3.543   2.686   0.599
  184SOL     OW  765   2.067   3.074   0.422
  184SOL    HW2  766   2.042   2.982   0.420
  184SOL    HW3  767   1.984   3.121   0.423
  184SOL    MW4  768   2.053   3.068   0.422
  185SOL     OW  769   3.241   2.636   0.307
  185SOL    HW2  770   3.261   2.633   0.214
  185SOL    HW3  771   3.298   2.569   0.346
  185SOL    MW4  772   3.251   2.627   0.300
  186SOL     OW  773   2.903   2.813   0.787
  186SOL    HW2  774   2.909   2.830   0.693
  186SOL    HW3  775   2.985   2.768   0.808
  186SOL    MW4  776   2.915   2.809   0.777
  187SOL     OW  777   3.311   0.173   0.372
  187SOL    HW2  778   3.320   0.079   0.384
  187SOL    HW3  779   3.295   0.184   0.278
  187SOL    MW4  780   3.310   0.162   0.361
  188SOL     OW  781   3.051   4.059   0.456
  188SOL    HW2  782   3.098   3.982   0.423
  188SOL    HW3  783   3.088   4.074   0.543
  188SOL    MW4  784   3.062   4.050   0.463
  189SOL     OW  785   3.401   3.517   0.638
  189SOL    HW2  786   3.374   3.481   0.553
  189SOL    HW3  787   3.324   3.508   0.693
  189SOL    MW4  788   3.387   3.511   0.634
  190SOL     OW  789   3.677   3.297   0.478
  190SOL    HW2  790   3.765   3.262   0.467
  190SOL    HW3  791   3.690   3.391   0.489
  190SOL    MW4  792   3.690   3.305   0.478
  191SOL     OW  793   3.420   3.391   0.380
  191SOL    HW2  794   3.347   3.330   0.387
  191SOL    HW3  795   3.498   3.336   0.377
  191SOL    MW4  796   3.421   3.376   0.381
  192SOL     OW  797   2.758   3.991   0.431
  192SOL    HW2  798   2.852   4.003   0.435
  192SOL    HW3  799   2.746   3.914   0.374
  192SOL    MW4  800   2.769   3.982   0.424
  193SOL     OW  801   2.695   3.404   0.173
  193SOL    HW2  802   2.623   3.371   0.227
  193SOL    HW3  803   2.772   3.397   0.230
  193SOL    MW4  804   2.696   3.399   0.188
  194SOL     OW  805   4.211   0.167   0.379
  194SOL    HW2  806   4.202   0.165   0.284
  194SOL    HW3  807   4.302   0.141   0.396
  194SOL    MW4  808   4.222   0.163   0.369
  195SOL     OW  809   3.703   0.073   0.503
  195SOL    HW2  810   3.670   0.148   0.453
  195SOL    HW3  811   3.798   0.084   0.502
  195SOL    MW4  812   3.711   0.084   0.496
  196SOL     OW  813   3.595   0.599   0.474
  196SOL    HW2  814   3.649   0.627   0.399
  196SOL    HW3  815   3.654   0.604   0.549
  196SOL    MW4  816   3.610   0.603   0.474
  197SOL     OW  817   3.756   0.726   0.297
  197SOL    HW2  818   3.836   0.681   0.326
  197SOL    HW3  819   3.781   0.818   0.291
  197SOL    MW4  820   3.770   0.732   0.300
  198SOL     OW  821   3.968   0.606   0.458
  198SOL    HW2  822   4.036   0.539   0.452
  198SOL    HW3  823   3.915   0.580   0.533
  198SOL    MW4  824   3.970   0.594   0.467
  199SOL     OW  825   4.338   0.877   0.491
  199SOL    HW2  826   4.243   0.885   0.494
  199SOL    HW3  827   4.354   0.793   0.448
  199SOL    MW4  828   4.328   0.867   0.485
  200SOL     OW  829   3.826   1.024   0.432
  200SOL    HW2  830   3.826   1.117   0.454
  200SOL    HW3  831   3.737   0.994   0.453
  200SOL    MW4  832   3.814   1.032   0.438
  201SOL     OW  833   4.091   1.608   0.483
  201SOL    HW2  834   4.010   1.656   0.467
  201SOL    HW3  835   4.160   1.666   0.451
  201SOL    MW4  836   4.090   1.622   0.477
  202SOL     OW  837   3.875   1.272   0.523
  202SOL    HW2  838   3.968   1.289   0.509
  202SOL    HW3  839   3.832   1.355   0.501
  202SOL    MW4  840   3.882   1.285   0.518
  203SOL     OW  841   3.297   1.299   0.446
  203SOL    HW2  842   3.327   1.312   0.537
  203SOL    HW3  843   3.202   1.309   0.450
  203SOL    MW4  844   3.288   1.302   0.459
  204SOL     OW  845   3.469   1.501   0.317
  204SOL    HW2  846   3.415   1.435   0.362
  204SOL    HW3  847   3.443   1.584   0.358
  204SOL    MW4  848   3.458   1.503   0.328
  205SOL     OW  849   3.722   2.419   0.390
  205SOL    HW2  850   3.795   2.397   0.331
  205SOL    HW3  851   3.715   2.343   0.448
  205SOL    MW4  852   3.731   2.406   0.390
  206SOL     OW  853   4.195   2.808   0.460
  206SOL    HW2  854   4.194   2.713   0.456
  206SOL    HW3  855   4.102   2.833   0.458
  206SOL    MW4  856   4.182   2.799   0.459
  207SOL     OW  857   2.991   2.578   0.451
  207SOL    HW2  858   3.034   2.553   0.533
  207SOL    HW3  859   3.062   2.611   0.396
  207SOL    MW4  860   3.006   2.579   0.455
  208SOL     OW  861   2.926   3.643   0.445
  208SOL    HW2  862   3.008   3.691   0.437
  208SOL    HW3  863   2.867   3.685   0.384
  208SOL    MW4  864   2.929   3.655   0.436
  209SOL     OW  865   3.187   2.920   0.443
  209SOL    HW2  866   3.211   2.845   0.389
  209SOL    HW3  867   3.095   2.905   0.465
  209SOL    MW4  868   3.178   2.908   0.439
  210SOL     OW  869   3.927   2.870   0.469
  210SOL    HW2  870   3.853   2.829   0.424
  210SOL    HW3  871   3.915   2.964   0.454
  210SOL    MW4  872   3.915   2.877   0.461
  211SOL     OW  873   3.717   2.701   0.384
  211SOL    HW2  874   3.730   2.609   0.359
  211SOL    HW3  875   3.670   2.697   0.467
  211SOL    MW4  876   3.712   2.688   0.392
  212SOL     OW  877   3.966   3.687   0.337
  212SOL    HW2  878   3.881   3.651   0.312
  212SOL    HW3  879   4.030   3.627   0.300
  212SOL    MW4  880   3.963   3.675   0.329
  213SOL     OW  881   3.442   2.494   0.427
  213SOL    HW2  882   3.433   2.428   0.495
  213SOL    HW3  883   3.526   2.474   0.385
  213SOL    MW4  884   3.452   2.483   0.431
  214SOL     OW  885   3.156   3.774   0.412
  214SOL    HW2  886   3.232   3.751   0.358
  214SOL    HW3  887   3.190   3.779   0.501
  214SOL    MW4  888   3.171   3.772   0.417
  215SOL     OW  889   4.409   3.561   0.548
  215SOL    HW2  890   4.383   3.470   0.534
  215SOL    HW3  891   4.505   3.559   0.547
  215SOL    MW4  892   4.418   3.549   0.546
  216SOL     OW  893   3.506   3.999   0.588
  216SOL    HW2  894   3.486   4.091   0.571
  216SOL    HW3  895   3.553   3.999   0.671
  216SOL    MW4  896   3.509   4.011   0.596
  217SOL     OW  897   3.826   4.334   0.439
  217SOL    HW2  898   3.813   4.240   0.431
  217SOL    HW3  899   3.808   4.353   0.531
  217SOL    MW4  900   3.822   4.324   0.450
  218SOL     OW  901   4.483   0.065   0.404
  218SOL    HW2  902   4.487  -0.026   0.376
  218SOL    HW3  903   4.466   0.061   0.498
  218SOL    MW4  904   4.481   0.053   0.413
  219SOL     OW  905   4.039   0.872   0.502
  219SOL    HW2  906   3.963   0.926   0.479
  219SOL    HW3  907   4.010   0.782   0.484
  219SOL    MW4  908   4.025   0.867   0.497
  220SOL     OW  909   0.400   1.656   0.470
  220SOL    HW2  910   0.420   1.565   0.449
  220SOL    HW3  911   0.306   1.664   0.455
  220SOL    MW4  912   0.390   1.645   0.465
  221SOL     OW  913   4.198   0.436   0.460
  221SOL    HW2  914   4.210   0.345   0.431
  221SOL    HW3  915   4.285   0.475   0.448
  221SOL    MW4  916   4.211   0.429   0.454
  222SOL     OW  917   0.021   1.105   0.459
  222SOL    HW2  918  -0.044   1.035   0.446
  222SOL    HW3  919  -0.029   1.186   0.447
  222SOL    MW4  920   0.006   1.106   0.455
  223SOL     OW  921   3.596   4.477   0.435
  223SOL    HW2  922   3.679   4.431   0.427
  223SOL    HW3  923   3.620   4.566   0.463
  223SOL    MW4  924   3.610   4.483   0.438
  224SOL     OW  925   4.178   1.338   0.490
  224SOL    HW2  926   4.188   1.332   0.585
  224SOL    HW3  927   4.150   1.428   0.474
  224SOL    MW4  928   4.176   1.349   0.500
  225SOL     OW  929   4.451   1.373   0.502
  225SOL    HW2  930   4.355   1.375   0.498
  225SOL    HW3  931   4.472   1.382   0.595
  225SOL    MW4  932   4.441   1.374   0.513
  226SOL     OW  933   4.060   2.106   0.205
  226SOL    HW2  934   3.982   2.137   0.159
  226SOL    HW3  935   4.026   2.055   0.279
  226SOL    MW4  936   4.045   2.103   0.208
  227SOL     OW  937   4.284   1.784   0.421
  227SOL    HW2  938   4.297   1.832   0.340
  227SOL    HW3  939   4.370   1.746   0.440
  227SOL    MW4  940   4.297   1.785   0.413
  228SOL     OW  941   4.457   2.138   0.393
  228SOL    HW2  942   4.459   2.234   0.394
  228SOL    HW3  943   4.382   2.115   0.448
  228SOL    MW4  944   4.447   2.148   0.400
  229SOL     OW  945   4.307   1.969   0.220
  229SOL    HW2  946   4.231   2.019   0.193
  229SOL    HW3  947   4.358   2.031   0.273
  229SOL    MW4  948   4.304   1.984   0.224
  230SOL     OW  949   4.460   2.424   0.452
  230SOL    HW2  950   4.547   2.450   0.420
  230SOL    HW3  951   4.473   2.406   0.545
  230SOL    MW4  952   4.473   2.425   0.460
  231SOL     OW  953   4.157   3.480   0.286
  231SOL    HW2  954   4.236   3.496   0.234
  231SOL    HW3  955   4.189   3.455   0.372
  231SOL    MW4  956   4.172   3.479   0.290
  232SOL     OW  957   4.202   2.539   0.454
  232SOL    HW2  958   4.164   2.514   0.539
  232SOL    HW3  959   4.288   2.498   0.454
  232SOL    MW4  960   4.208   2.531   0.465
  233SOL     OW  961   0.183   3.874   0.473
  233SOL    HW2  962   0.156   3.964   0.491
  233SOL    HW3  963   0.274   3.882   0.442
  233SOL    MW4  964   0.192   3.887   0.471
  234SOL     OW  965   4.420   3.566   0.178
  234SOL    HW2  966   4.439   3.649   0.222
  234SOL    HW3  967   4.410   3.589   0.086
  234SOL    MW4  968   4.421   3.580   0.172
  235SOL     OW  969   0.067   3.376   0.337
  235SOL    HW2  970   0.020   3.451   0.302
  235SOL    HW3  971   0.159   3.392   0.312
  235SOL    MW4  972   0.073   3.388   0.329
  236SOL     OW  973   3.647   3.577   0.537
  236SOL    HW2  974   3.557   3.554   0.564
  236SOL    HW3  975   3.688   3.609   0.617
  236SOL    MW4  976   3.640   3.578   0.551
  237SOL     OW  977   3.919   3.136   0.457
  237SOL    HW2  978   3.972   3.151   0.535
  237SOL    HW3  979   3.969   3.176   0.386
  237SOL    MW4  980   3.932   3.143   0.458
  238SOL     OW  981   0.056   4.113   0.491
  238SOL    HW2  982   0.032   4.097   0.582
  238SOL    HW3  983  -0.022   4.088   0.440
  238SOL    MW4  984   0.043   4.108   0.496
  239SOL     OW  985   4.031   3.942   0.477
  239SOL    HW2  986   4.020   3.848   0.470
  239SOL    HW3  987   3.962   3.979   0.422
  239SOL    MW4  988   4.020   3.935   0.469
  240SOL     OW  989   3.820   4.042   0.313
  240SOL    HW2  990   3.754   3.972   0.313
  240SOL    HW3  991   3.847   4.050   0.222
  240SOL    MW4  992   3.815   4.034   0.301
  241SOL     OW  993   4.082   4.470   0.409
  241SOL    HW2  994   4.157   4.411   0.417
  241SOL    HW3  995   4.006   4.412   0.399
  241SOL    MW4  996   4.082   4.455   0.408
  242SOL     OW  997   0.172   0.011   0.801
  242SOL    HW2  998   0.177  -0.080   0.770
  242SOL    HW3  999   0.095   0.047   0.758
  242SOL    MW4 1000   0.163   0.003   0.791
  243SOL     OW 1001   4.419   0.097   0.680
  243SOL    HW2 1002   4.350   0.044   0.722
  243SOL    HW3 1003   4.425   0.175   0.735
  243SOL    MW4 1004   4.410   0.100   0.693
  244SOL     OW 1005   4.438   0.344   0.843
  244SOL    HW2 1006   4.450   0.351   0.937
  244SOL    HW3 1007   4.516   0.386   0.806
  244SOL    MW4 1008   4.450   0.351   0.850
  245SOL     OW 1009   0.168   0.478   0.746
  245SOL    HW2 1010   0.252   0.436   0.765
  245SOL    HW3 1011   0.178   0.567   0.780
  245SOL    MW4 1012   0.180   0.485   0.753
  246SOL     OW 1013   0.218   0.743   0.804
  246SOL    HW2 1014   0.217   0.755   0.899
  246SOL    HW3 1015   0.140   0.789   0.773
  246SOL    MW4 1016   0.207   0.750   0.813
  247SOL     OW 1017   4.474   0.855   0.723
  247SOL    HW2 1018   4.404   0.822   0.779
  247SOL    HW3 1019   4.430   0.880   0.642
  247SOL    MW4 1020   4.459   0.854   0.720
  248SOL     OW 1021   4.479   1.137   0.797
  248SOL    HW2 1022   4.488   1.141   0.892
  248SOL    HW3 1023   4.477   1.043   0.777
  248SOL    MW4 1024   4.480   1.125   0.807
  249SOL     OW 1025   0.204   1.296   0.706
  249SOL    HW2 1026   0.128   1.244   0.733
  249SOL    HW3 1027   0.234   1.255   0.626
  249SOL    MW4 1028   0.198   1.284   0.699
  250SOL     OW 1029   0.270   1.506   0.881
  250SOL    HW2 1030   0.336   1.549   0.827
  250SOL    HW3 1031   0.257   1.420   0.840
  250SOL    MW4 1032   0.277   1.500   0.869
  251SOL     OW 1033   0.042   1.663   0.776
  251SOL    HW2 1034  -0.035   1.618   0.813
  251SOL    HW3 1035   0.117   1.621   0.818
  251SOL    MW4 1036   0.042   1.652   0.787
  252SOL     OW 1037   4.482   1.932   0.842
  252SOL    HW2 1038   4.560   1.970   0.801
  252SOL    HW3 1039   4.488   1.839   0.822
  252SOL    MW4 1040   4.493   1.925   0.834
  253SOL     OW 1041   0.202   2.065   0.726
  253SOL    HW2 1042   0.198   2.144   0.779
  253SOL    HW3 1043   0.203   2.096   0.636
  253SOL    MW4 1044   0.201   2.079   0.721
  254SOL     OW 1045   0.230   2.310   0.851
  254SOL    HW2 1046   0.239   2.333   0.943
  254SOL    HW3 1047   0.314   2.333   0.812
  254SOL    MW4 1048   0.242   2.316   0.858
  255SOL     OW 1049   4.486   2.429   0.732
  255SOL    HW2 1050   4.406   2.398   0.773
  255SOL    HW3 1051   4.557   2.384   0.779
  255SOL    MW4 1052   4.485   2.419   0.744
  256SOL     OW 1053   4.460   2.705   0.812
  256SOL    HW2 1054   4.466   2.697   0.907
  256SOL    HW3 1055   4.476   2.617   0.778
  256SOL    MW4 1056   4.463   2.692   0.820
  257SOL     OW 1057   0.216   2.814   0.762
  257SOL    HW2 1058   0.125   2.784   0.765
  257SOL    HW3 1059   0.216   2.883   0.696
  257SOL    MW4 1060   0.204   2.819   0.754
  258SOL     OW 1061   0.202   3.076   0.889
  258SOL    HW2 1062   0.207   3.064   0.984
  258SOL    HW3 1063   0.212   2.988   0.853
  258SOL    MW4 1064   0.204   3.063   0.897
  259SOL     OW 1065   4.469   3.213   0.765
  259SOL    HW2 1066   4.541   3.167   0.808
  259SOL    HW3 1067   4.480   3.193   0.672
  259SOL    MW4 1068   4.480   3.204   0.758
  260SOL     OW 1069   4.490   3.462   0.872
  260SOL    HW2 1070   4.407   3.503   0.851
  260SOL    HW3 1071   4.479   3.370   0.847
  260SOL    MW4 1072   4.478   3.455   0.866
  261SOL     OW 1073   0.238   3.572   0.827
  261SOL    HW2 1074   0.159   3.520   0.838
  261SOL    HW3 1075   0.242   3.592   0.734
  261SOL    MW4 1076   0.228   3.568   0.816
  262SOL     OW 1077   0.141   3.841   0.862
  262SOL    HW2 1078   0.174   3.864   0.949
  262SOL    HW3 1079   0.155   3.747   0.855
  262SOL    MW4 1080   0.147   3.832   0.873
  263SOL     OW 1081   4.475   4.038   0.739
  263SOL    HW2 1082   4.398   3.991   0.773
  263SOL    HW3 1083   4.549   3.982   0.761
  263SOL    MW4 1084   4.474   4.024   0.746
  264SOL     OW 1085   0.047   4.276   0.851
  264SOL    HW2 1086   0.031   4.267   0.945
  264SOL    HW3 1087   0.034   4.188   0.816
  264SOL    MW4 1088   0.043   4.263   0.859
  265SOL     OW 1089   0.244   4.424   0.715
  265SOL    HW2 1090   0.174   4.376   0.760
  265SOL    HW3 1091   0.242   4.390   0.626
  265SOL    MW4 1092   0.235   4.413   0.709
  266SOL     OW 1093   0.648   4.638   0.832
  266SOL    HW2 1094   0.641   4.631   0.927
  266SOL    HW3 1095   0.584   4.706   0.808
  266SOL    MW4 1096   0.638   4.646   0.841
  267SOL     OW 1097   0.441   0.118   0.717
  267SOL    HW2 1098   0.348   0.102   0.728
  267SOL    HW3 1099   0.459   0.092   0.627
  267SOL    MW4 1100   0.431   0.113   0.707
  268SOL     OW 1101   0.426   0.372   0.818
  268SOL    HW2 1102   0.503   0.424   0.794
  268SOL    HW3 1103   0.447   0.283   0.790
  268SOL    MW4 1104   0.439   0.367   0.811
  269SOL     OW 1105   0.663   0.468   0.717
  269SOL    HW2 1106   0.752   0.435   0.732
  269SOL    HW3 1107   0.643   0.442   0.627
  269SOL    MW4 1108   0.672   0.460   0.707
  270SOL     OW 1109   0.659   0.727   0.797
  270SOL    HW2 1110   0.586   0.782   0.771
  270SOL    HW3 1111   0.641   0.642   0.755
  270SOL    MW4 1112   0.647   0.723   0.788
  271SOL     OW 1113   0.449   0.888   0.728
  271SOL    HW2 1114   0.453   0.969   0.779
  271SOL    HW3 1115   0.362   0.852   0.746
  271SOL    MW4 1116   0.438   0.894   0.737
  272SOL     OW 1117   0.407   1.141   0.828
  272SOL    HW2 1118   0.488   1.187   0.804
  272SOL    HW3 1119   0.339   1.184   0.776
  272SOL    MW4 1120   0.409   1.153   0.818
  273SOL     OW 1121   0.654   1.254   0.761
  273SOL    HW2 1122   0.661   1.345   0.790
  273SOL    HW3 1123   0.685   1.255   0.671
  273SOL    MW4 1124   0.659   1.266   0.753
  274SOL     OW 1125   0.676   1.509   0.828
  274SOL    HW2 1126   0.679   1.519   0.923
  274SOL    HW3 1127   0.597   1.557   0.802
  274SOL    MW4 1128   0.666   1.517   0.837
  275SOL     OW 1129   0.449   1.651   0.739
  275SOL    HW2 1130   0.420   1.741   0.759
  275SOL    HW3 1131   0.424   1.638   0.648
  275SOL    MW4 1132   0.442   1.661   0.730
  276SOL     OW 1133   0.433   1.920   0.812
  276SOL    HW2 1134   0.432   1.929   0.907
  276SOL    HW3 1135   0.357   1.971   0.783
  276SOL    MW4 1136   0.423   1.928   0.821
  277SOL     OW 1137   0.695   2.016   0.764
  277SOL    HW2 1138   0.612   1.974   0.787
  277SOL    HW3 1139   0.682   2.046   0.674
  277SOL    MW4 1140   0.682   2.014   0.755
  278SOL     OW 1141   0.657   2.257   0.881
  278SOL    HW2 1142   0.671   2.242   0.975
  278SOL    HW3 1143   0.664   2.170   0.841
  278SOL    MW4 1144   0.660   2.244   0.888
  279SOL     OW 1145   0.474   2.428   0.753
  279SOL    HW2 1146   0.537   2.381   0.807
  279SOL    HW3 1147   0.477   2.382   0.669
  279SOL    MW4 1148   0.483   2.416   0.749
  280SOL     OW 1149   0.461   2.701   0.834
  280SOL    HW2 1150   0.453   2.606   0.827
  280SOL    HW3 1151   0.379   2.735   0.798
  280SOL    MW4 1152   0.449   2.693   0.828
  281SOL     OW 1153   0.663   2.838   0.714
  281SOL    HW2 1154   0.729   2.783   0.757
  281SOL    HW3 1155   0.580   2.805   0.747
  281SOL    MW4 1156   0.661   2.826   0.724
  282SOL     OW 1157   0.641   3.069   0.894
  282SOL    HW2 1158   0.568   3.111   0.849
  282SOL    HW3 1159   0.662   2.993   0.840
  282SOL    MW4 1160   0.634   3.064   0.881
  283SOL     OW 1161   0.429   3.231   0.812
  283SOL    HW2 1162   0.454   3.306   0.866
  283SOL    HW3 1163   0.346   3.201   0.849
  283SOL    MW4 1164   0.421   3.237   0.824
  284SOL     OW 1165   0.481   3.489   0.924
  284SOL    HW2 1166   0.459   3.471   1.015
  284SOL    HW3 1167   0.399   3.519   0.884
  284SOL    MW4 1168   0.468   3.491   0.931
  285SOL     OW 1169   0.666   3.601   0.769
  285SOL    HW2 1170   0.601   3.573   0.833
  285SOL    HW3 1171   0.667   3.697   0.776
  285SOL    MW4 1172   0.658   3.610   0.778
  286SOL     OW 1173   0.644   3.873   0.843
  286SOL    HW2 1174   0.706   3.928   0.795
  286SOL    HW3 1175   0.558   3.904   0.816
  286SOL    MW4 1176   0.641   3.884   0.833
  287SOL     OW 1177   0.399   3.946   0.765
  287SOL    HW2 1178   0.407   4.036   0.798
  287SOL    HW3 1179   0.316   3.915   0.802
  287SOL    MW4 1180   0.389   3.954   0.774
  288SOL     OW 1181   0.417   4.234   0.869
  288SOL    HW2 1182   0.395   4.261   0.958
  288SOL    HW3 1183   0.354   4.280   0.814
  288SOL    MW4 1184   0.406   4.244   0.874
  289SOL     OW 1185   0.617   4.361   0.729
  289SOL    HW2 1186   0.552   4.318   0.785
  289SOL    HW3 1187   0.606   4.455   0.747
  289SOL    MW4 1188   0.607   4.368   0.739
  290SOL     OW 1189   1.094   4.634   0.877
  290SOL    HW2 1190   1.174   4.656   0.830
  290SOL    HW3 1191   1.025   4.679   0.830
  290SOL    MW4 1192   1.096   4.643   0.865
  291SOL     OW 1193   0.884   0.078   0.739
  291SOL    HW2 1194   0.885   0.169   0.768
  291SOL    HW3 1195   0.814   0.037   0.790
  291SOL    MW4 1196   0.875   0.084   0.749
  292SOL     OW 1197   0.886   0.349   0.830
  292SOL    HW2 1198   0.906   0.351   0.924
  292SOL    HW3 1199   0.959   0.397   0.790
  292SOL    MW4 1200   0.898   0.355   0.837
  293SOL     OW 1201   1.111   0.454   0.728
  293SOL    HW2 1202   1.175   0.398   0.772
  293SOL    HW3 1203   1.145   0.464   0.639
  293SOL    MW4 1204   1.124   0.448   0.722
  294SOL     OW 1205   1.136   0.723   0.816
  294SOL    HW2 1206   1.132   0.728   0.911
  294SOL    HW3 1207   1.120   0.631   0.796
  294SOL    MW4 1208   1.133   0.712   0.826
  295SOL     OW 1209   0.912   0.843   0.693
  295SOL    HW2 1210   0.988   0.808   0.738
  295SOL    HW3 1211   0.839   0.788   0.722
  295SOL    MW4 1212   0.912   0.831   0.702
  296SOL     OW 1213   0.892   1.090   0.821
  296SOL    HW2 1214   0.888   1.000   0.790
  296SOL    HW3 1215   0.808   1.128   0.796
  296SOL    MW4 1216   0.881   1.083   0.813
  297SOL     OW 1217   1.099   1.233   0.728
  297SOL    HW2 1218   1.020   1.182   0.750
  297SOL    HW3 1219   1.109   1.223   0.634
  297SOL    MW4 1220   1.090   1.225   0.719
  298SOL     OW 1221   1.145   1.487   0.827
  298SOL    HW2 1222   1.064   1.534   0.807
  298SOL    HW3 1223   1.129   1.398   0.797
  298SOL    MW4 1224   1.132   1.481   0.821
  299SOL     OW 1225   0.911   1.620   0.757
  299SOL    HW2 1226   0.901   1.709   0.790
  299SOL    HW3 1227   0.826   1.579   0.773
  299SOL    MW4 1228   0.899   1.626   0.763
  300SOL     OW 1229   0.941   1.907   0.816
  300SOL    HW2 1230   0.950   1.921   0.910
  300SOL    HW3 1231   0.854   1.942   0.794
  300SOL    MW4 1232   0.931   1.914   0.825
  301SOL     OW 1233   1.181   2.041   0.762
  301SOL    HW2 1234   1.164   2.129   0.794
  301SOL    HW3 1235   1.099   1.994   0.775
  301SOL    MW4 1236   1.168   2.046   0.768
  302SOL     OW 1237   1.100   2.310   0.837
  302SOL    HW2 1238   1.113   2.326   0.930
  302SOL    HW3 1239   1.169   2.360   0.794
  302SOL    MW4 1240   1.111   2.319   0.843
  303SOL     OW 1241   0.857   2.392   0.734
  303SOL    HW2 1242   0.939   2.347   0.755
  303SOL    HW3 1243   0.794   2.359   0.799
  303SOL    MW4 1244   0.860   2.382   0.746
  304SOL     OW 1245   0.857   2.657   0.793
  304SOL    HW2 1246   0.891   2.663   0.883
  304SOL    HW3 1247   0.852   2.563   0.776
  304SOL    MW4 1248   0.861   2.645   0.803
  305SOL     OW 1249   1.086   2.800   0.738
  305SOL    HW2 1250   1.004   2.751   0.737
  305SOL    HW3 1251   1.110   2.808   0.645
  305SOL    MW4 1252   1.078   2.795   0.725
  306SOL     OW 1253   1.110   3.059   0.860
  306SOL    HW2 1254   1.027   3.107   0.855
  306SOL    HW3 1255   1.088   2.971   0.831
  306SOL    MW4 1256   1.096   3.054   0.855
  307SOL     OW 1257   0.875   3.211   0.828
  307SOL    HW2 1258   0.876   3.305   0.850
  307SOL    HW3 1259   0.791   3.180   0.861
  307SOL    MW4 1260   0.864   3.220   0.835
  308SOL     OW 1261   0.903   3.485   0.876
  308SOL    HW2 1262   0.989   3.521   0.852
  308SOL    HW3 1263   0.840   3.537   0.827
  308SOL    MW4 1264   0.906   3.497   0.867
  309SOL     OW 1265   1.125   3.630   0.760
  309SOL    HW2 1266   1.198   3.581   0.799
  309SOL    HW3 1267   1.138   3.622   0.666
  309SOL    MW4 1268   1.136   3.623   0.753
  310SOL     OW 1269   1.123   3.888   0.845
  310SOL    HW2 1270   1.127   3.881   0.941
  310SOL    HW3 1271   1.134   3.798   0.814
  310SOL    MW4 1272   1.125   3.875   0.854
  311SOL     OW 1273   0.870   3.991   0.738
  311SOL    HW2 1274   0.865   4.074   0.786
  311SOL    HW3 1275   0.956   3.956   0.759
  311SOL    MW4 1276   0.881   3.997   0.747
  312SOL     OW 1277   0.826   4.239   0.864
  312SOL    HW2 1278   0.900   4.290   0.831
  312SOL    HW3 1279   0.749   4.281   0.825
  312SOL    MW4 1280   0.826   4.252   0.854
  313SOL     OW 1281   1.047   4.386   0.762
  313SOL    HW2 1282   1.132   4.350   0.784
  313SOL    HW3 1283   1.044   4.471   0.807
  313SOL    MW4 1284   1.058   4.393   0.771
  314SOL     OW 1285   1.535   4.610   0.812
  314SOL    HW2 1286   1.532   4.634   0.905
  314SOL    HW3 1287   1.452   4.642   0.777
  314SOL    MW4 1288   1.523   4.617   0.819
  315SOL     OW 1289   1.316   0.040   0.717
  315SOL    HW2 1290   1.323   0.131   0.745
  315SOL    HW3 1291   1.320   0.044   0.621
  315SOL    MW4 1292   1.317   0.052   0.708
  316SOL     OW 1293   1.343   0.299   0.830
  316SOL    HW2 1294   1.334   0.305   0.925
  316SOL    HW3 1295   1.413   0.361   0.808
  316SOL    MW4 1296   1.351   0.308   0.840
  317SOL     OW 1297   1.553   0.472   0.792
  317SOL    HW2 1298   1.569   0.566   0.808
  317SOL    HW3 1299   1.630   0.429   0.829
  317SOL    MW4 1300   1.565   0.479   0.799
  318SOL     OW 1301   1.592   0.756   0.827
  318SOL    HW2 1302   1.654   0.817   0.788
  318SOL    HW3 1303   1.506   0.788   0.798
  318SOL    MW4 1304   1.589   0.768   0.818
  319SOL     OW 1305   1.358   0.849   0.699
  319SOL    HW2 1306   1.340   0.939   0.725
  319SOL    HW3 1307   1.286   0.798   0.735
  319SOL    MW4 1308   1.346   0.854   0.707
  320SOL     OW 1309   1.319   1.091   0.821
  320SOL    HW2 1310   1.379   1.162   0.796
  320SOL    HW3 1311   1.232   1.130   0.814
  320SOL    MW4 1312   1.315   1.105   0.817
  321SOL     OW 1313   1.554   1.243   0.771
  321SOL    HW2 1314   1.563   1.337   0.785
  321SOL    HW3 1315   1.529   1.234   0.679
  321SOL    MW4 1316   1.552   1.254   0.761
  322SOL     OW 1317   1.763   1.728   0.907
  322SOL    HW2 1318   1.724   1.694   0.988
  322SOL    HW3 1319   1.845   1.680   0.898
  322SOL    MW4 1320   1.768   1.717   0.916
  323SOL     OW 1321   1.364   1.626   0.725
  323SOL    HW2 1322   1.387   1.705   0.775
  323SOL    HW3 1323   1.291   1.587   0.774
  323SOL    MW4 1324   1.357   1.631   0.738
  324SOL     OW 1325   1.420   1.883   0.837
  324SOL    HW2 1326   1.422   1.870   0.932
  324SOL    HW3 1327   1.333   1.919   0.819
  324SOL    MW4 1328   1.409   1.886   0.847
  325SOL     OW 1329   1.558   2.080   0.718
  325SOL    HW2 1330   1.515   2.008   0.764
  325SOL    HW3 1331   1.526   2.074   0.628
  325SOL    MW4 1332   1.548   2.070   0.712
  326SOL     OW 1333   1.534   2.345   0.875
  326SOL    HW2 1334   1.455   2.380   0.833
  326SOL    HW3 1335   1.544   2.257   0.839
  326SOL    MW4 1336   1.525   2.338   0.865
  327SOL     OW 1337   1.311   2.460   0.753
  327SOL    HW2 1338   1.304   2.545   0.797
  327SOL    HW3 1339   1.351   2.481   0.669
  327SOL    MW4 1340   1.316   2.474   0.748
  328SOL     OW 1341   1.329   2.707   0.863
  328SOL    HW2 1342   1.327   2.698   0.959
  328SOL    HW3 1343   1.249   2.754   0.842
  328SOL    MW4 1344   1.319   2.712   0.873
  329SOL     OW 1345   1.604   2.849   0.791
  329SOL    HW2 1346   1.600   2.944   0.803
  329SOL    HW3 1347   1.515   2.818   0.809
  329SOL    MW4 1348   1.592   2.857   0.795
  330SOL     OW 1349   1.584   3.119   0.826
  330SOL    HW2 1350   1.595   3.151   0.915
  330SOL    HW3 1351   1.495   3.146   0.802
  330SOL    MW4 1352   1.574   3.127   0.834
  331SOL     OW 1353   1.328   3.224   0.781
  331SOL    HW2 1354   1.246   3.187   0.817
  331SOL    HW3 1355   1.313   3.228   0.687
  331SOL    MW4 1356   1.315   3.219   0.774
  332SOL     OW 1357   1.331   3.474   0.866
  332SOL    HW2 1358   1.408   3.510   0.824
  332SOL    HW3 1359   1.323   3.385   0.831
  332SOL    MW4 1360   1.340   3.467   0.856
  333SOL     OW 1361   1.550   3.585   0.747
  333SOL    HW2 1362   1.634   3.552   0.780
  333SOL    HW3 1363   1.568   3.606   0.655
  333SOL    MW4 1364   1.564   3.583   0.739
  334SOL     OW 1365   1.544   3.859   0.827
  334SOL    HW2 1366   1.478   3.909   0.778
  334SOL    HW3 1367   1.529   3.768   0.801
  334SOL    MW4 1368   1.533   3.854   0.817
  335SOL     OW 1369   1.333   4.013   0.703
  335SOL    HW2 1370   1.261   3.963   0.741
  335SOL    HW3 1371   1.310   4.024   0.611
  335SOL    MW4 1372   1.321   4.008   0.696
  336SOL     OW 1373   1.313   4.268   0.816
  336SOL    HW2 1374   1.395   4.299   0.777
  336SOL    HW3 1375   1.306   4.177   0.786
  336SOL    MW4 1376   1.323   4.260   0.807
  337SOL     OW 1377   1.552   4.340   0.719
  337SOL    HW2 1378   1.619   4.315   0.783
  337SOL    HW3 1379   1.547   4.435   0.727
  337SOL    MW4 1380   1.560   4.349   0.728
  338SOL     OW 1381   1.941   0.076   0.839
  338SOL    HW2 1382   2.029   0.099   0.808
  338SOL    HW3 1383   1.904   0.022   0.769
  338SOL    MW4 1384   1.947   0.072   0.825
  339SOL     OW 1385   1.671   0.073   0.604
  339SOL    HW2 1386   1.671  -0.005   0.549
  339SOL    HW3 1387   1.643   0.042   0.690
  339SOL    MW4 1388   1.667   0.059   0.608
  340SOL     OW 1389   1.804   0.335   0.843
  340SOL    HW2 1390   1.835   0.244   0.845
  340SOL    HW3 1391   1.879   0.386   0.814
  340SOL    MW4 1392   1.818   0.329   0.839
  341SOL     OW 1393   2.007   0.525   0.788
  341SOL    HW2 1394   2.023   0.555   0.698
  341SOL    HW3 1395   2.089   0.483   0.814
  341SOL    MW4 1396   2.020   0.524   0.779
  342SOL     OW 1397   2.038   0.786   0.899
  342SOL    HW2 1398   2.103   0.820   0.838
  342SOL    HW3 1399   2.013   0.701   0.864
  342SOL    MW4 1400   2.043   0.780   0.887
  343SOL     OW 1401   1.824   0.890   0.764
  343SOL    HW2 1402   1.813   0.978   0.802
  343SOL    HW3 1403   1.898   0.853   0.813
  343SOL    MW4 1404   1.832   0.897   0.775
  344SOL     OW 1405   1.792   1.155   0.872
  344SOL    HW2 1406   1.854   1.223   0.848
  344SOL    HW3 1407   1.712   1.178   0.825
  344SOL    MW4 1408   1.789   1.167   0.863
  345SOL     OW 1409   1.953   1.334   0.750
  345SOL    HW2 1410   2.042   1.300   0.759
  345SOL    HW3 1411   1.940   1.343   0.656
  345SOL    MW4 1412   1.963   1.331   0.739
  346SOL     OW 1413   1.996   1.561   0.892
  346SOL    HW2 1414   2.077   1.594   0.850
  346SOL    HW3 1415   1.989   1.471   0.861
  346SOL    MW4 1416   2.006   1.554   0.882
  347SOL     OW 1417   1.937   1.660   0.522
  347SOL    HW2 1418   1.875   1.723   0.487
  347SOL    HW3 1419   1.887   1.579   0.530
  347SOL    MW4 1420   1.922   1.657   0.518
  348SOL     OW 1421   1.791   1.943   0.737
  348SOL    HW2 1422   1.758   1.880   0.801
  348SOL    HW3 1423   1.720   2.006   0.727
  348SOL    MW4 1424   1.778   1.943   0.744
  349SOL     OW 1425   2.019   2.078   0.708
  349SOL    HW2 1426   2.008   2.162   0.753
  349SOL    HW3 1427   1.937   2.031   0.723
  349SOL    MW4 1428   2.007   2.083   0.716
  350SOL     OW 1429   2.005   2.319   0.842
  350SOL    HW2 1430   2.020   2.317   0.937
  350SOL    HW3 1431   1.920   2.361   0.832
  350SOL    MW4 1432   1.996   2.324   0.853
  351SOL     OW 1433   1.778   2.461   0.820
  351SOL    HW2 1434   1.691   2.435   0.851
  351SOL    HW3 1435   1.768   2.471   0.725
  351SOL    MW4 1436   1.765   2.459   0.811
  352SOL     OW 1437   1.832   2.726   0.880
  352SOL    HW2 1438   1.831   2.632   0.862
  352SOL    HW3 1439   1.744   2.756   0.859
  352SOL    MW4 1440   1.820   2.717   0.875
  353SOL     OW 1441   2.020   2.875   0.736
  353SOL    HW2 1442   2.095   2.830   0.775
  353SOL    HW3 1443   1.943   2.828   0.770
  353SOL    MW4 1444   2.019   2.863   0.746
  354SOL     OW 1445   1.994   3.118   0.852
  354SOL    HW2 1446   1.929   3.168   0.802
  354SOL    HW3 1447   2.000   3.035   0.805
  354SOL    MW4 1448   1.986   3.114   0.839
  355SOL     OW 1449   1.800   3.255   0.684
  355SOL    HW2 1450   1.714   3.213   0.693
  355SOL    HW3 1451   1.810   3.268   0.590
  355SOL    MW4 1452   1.790   3.251   0.673
  356SOL     OW 1453   1.794   3.496   0.838
  356SOL    HW2 1454   1.777   3.479   0.931
  356SOL    HW3 1455   1.790   3.410   0.797
  356SOL    MW4 1456   1.791   3.482   0.845
  357SOL     OW 1457   2.021   3.603   0.725
  357SOL    HW2 1458   2.031   3.693   0.754
  357SOL    HW3 1459   1.945   3.570   0.772
  357SOL    MW4 1460   2.012   3.610   0.735
  358SOL     OW 1461   2.003   3.849   0.854
  358SOL    HW2 1462   1.992   3.874   0.946
  358SOL    HW3 1463   1.933   3.895   0.808
  358SOL    MW4 1464   1.993   3.859   0.860
  359SOL     OW 1465   1.781   3.975   0.740
  359SOL    HW2 1466   1.695   3.938   0.764
  359SOL    HW3 1467   1.777   3.984   0.645
  359SOL    MW4 1468   1.769   3.971   0.731
  360SOL     OW 1469   1.757   4.236   0.856
  360SOL    HW2 1470   1.780   4.227   0.948
  360SOL    HW3 1471   1.754   4.146   0.823
  360SOL    MW4 1472   1.760   4.223   0.864
  361SOL     OW 1473   1.980   4.309   0.729
  361SOL    HW2 1474   1.905   4.285   0.783
  361SOL    HW3 1475   1.967   4.262   0.647
  361SOL    MW4 1476   1.968   4.300   0.725
  362SOL     OW 1477   2.444   0.026   0.874
  362SOL    HW2 1478   2.464   0.007   0.966
  362SOL    HW3 1479   2.526   0.060   0.839
  362SOL    MW4 1480   2.457   0.027   0.881
  363SOL     OW 1481   2.196   0.175   0.812
  363SOL    HW2 1482   2.266   0.112   0.832
  363SOL    HW3 1483   2.208   0.196   0.720
  363SOL    MW4 1484   2.207   0.169   0.803
  364SOL     OW 1485   2.227   0.414   0.917
  364SOL    HW2 1486   2.300   0.451   0.866
  364SOL    HW3 1487   2.219   0.324   0.885
  364SOL    MW4 1488   2.236   0.407   0.906
  365SOL     OW 1489   2.417   0.498   0.743
  365SOL    HW2 1490   2.416   0.461   0.655
  365SOL    HW3 1491   2.494   0.460   0.785
  365SOL    MW4 1492   2.427   0.488   0.737
  366SOL     OW 1493   2.437   0.776   0.823
  366SOL    HW2 1494   2.524   0.814   0.812
  366SOL    HW3 1495   2.444   0.688   0.789
  366SOL    MW4 1496   2.449   0.770   0.817
  367SOL     OW 1497   2.218   0.916   0.721
  367SOL    HW2 1498   2.290   0.867   0.761
  367SOL    HW3 1499   2.222   0.893   0.628
  367SOL    MW4 1500   2.228   0.906   0.714
  368SOL     OW 1501   2.184   1.188   0.841
  368SOL    HW2 1502   2.203   1.179   0.935
  368SOL    HW3 1503   2.181   1.098   0.809
  368SOL    MW4 1504   2.186   1.175   0.849
  369SOL     OW 1505   2.452   1.257   0.773
  369SOL    HW2 1506   2.371   1.208   0.788
  369SOL    HW3 1507   2.455   1.271   0.678
  369SOL    MW4 1508   2.441   1.252   0.763
  370SOL     OW 1509   2.424   1.511   0.863
  370SOL    HW2 1510   2.507   1.543   0.826
  370SOL    HW3 1511   2.424   1.417   0.846
  370SOL    MW4 1512   2.435   1.503   0.856
  371SOL     OW 1513   2.226   1.683   0.781
  371SOL    HW2 1514   2.285   1.613   0.809
  371SOL    HW3 1515   2.227   1.679   0.685
  371SOL    MW4 1516   2.234   1.673   0.772
  372SOL     OW 1517   2.191   1.953   0.877
  372SOL    HW2 1518   2.188   1.864   0.843
  372SOL    HW3 1519   2.135   2.003   0.818
  372SOL    MW4 1520   2.183   1.948   0.864
  373SOL     OW 1521   2.425   2.100   0.795
  373SOL    HW2 1522   2.350   2.046   0.821
  373SOL    HW3 1523   2.398   2.138   0.711
  373SOL    MW4 1524   2.411   2.098   0.787
  374SOL     OW 1525   2.439   2.367   0.856
  374SOL    HW2 1526   2.521   2.404   0.824
  374SOL    HW3 1527   2.445   2.274   0.838
  374SOL    MW4 1528   2.450   2.360   0.850
  375SOL     OW 1529   2.235   2.469   0.735
  375SOL    HW2 1530   2.310   2.424   0.775
  375SOL    HW3 1531   2.158   2.426   0.771
  375SOL    MW4 1532   2.235   2.458   0.745
  376SOL     OW 1533   2.244   2.736   0.837
  376SOL    HW2 1534   2.233   2.724   0.931
  376SOL    HW3 1535   2.249   2.647   0.802
  376SOL    MW4 1536   2.243   2.722   0.845
  377SOL     OW 1537   2.501   2.846   0.814
  377SOL    HW2 1538   2.572   2.785   0.830
  377SOL    HW3 1539   2.421   2.793   0.818
  377SOL    MW4 1540   2.500   2.831   0.817
  378SOL     OW 1541   2.459   3.112   0.883
  378SOL    HW2 1542   2.444   3.111   0.977
  378SOL    HW3 1543   2.478   3.021   0.861
  378SOL    MW4 1544   2.459   3.100   0.892
  379SOL     OW 1545   2.232   3.239   0.757
  379SOL    HW2 1546   2.153   3.191   0.782
  379SOL    HW3 1547   2.305   3.185   0.787
  379SOL    MW4 1548   2.231   3.226   0.764
  380SOL     OW 1549   2.265   3.494   0.843
  380SOL    HW2 1550   2.267   3.403   0.813
  380SOL    HW3 1551   2.184   3.530   0.805
  380SOL    MW4 1552   2.254   3.487   0.834
  381SOL     OW 1553   2.494   3.627   0.759
  381SOL    HW2 1554   2.561   3.563   0.785
  381SOL    HW3 1555   2.412   3.589   0.789
  381SOL    MW4 1556   2.492   3.613   0.767
  382SOL     OW 1557   2.497   3.875   0.888
  382SOL    HW2 1558   2.406   3.890   0.863
  382SOL    HW3 1559   2.514   3.784   0.865
  382SOL    MW4 1560   2.487   3.865   0.881
  383SOL     OW 1561   2.227   4.012   0.808
  383SOL    HW2 1562   2.151   3.968   0.846
  383SOL    HW3 1563   2.220   3.994   0.714
  383SOL    MW4 1564   2.216   4.004   0.800
  384SOL     OW 1565   2.234   4.294   0.854
  384SOL    HW2 1566   2.252   4.203   0.831
  384SOL    HW3 1567   2.142   4.307   0.829
  384SOL    MW4 1568   2.224   4.284   0.848
  385SOL     OW 1569   2.387   4.484   0.706
  385SOL    HW2 1570   2.411   4.540   0.780
  385SOL    HW3 1571   2.328   4.419   0.743
  385SOL    MW4 1572   2.382   4.483   0.720
  386SOL     OW 1573   2.897   4.658   0.886
  386SOL    HW2 1574   2.919   4.577   0.840
  386SOL    HW3 1575   2.826   4.697   0.835
  386SOL    MW4 1576   2.890   4.653   0.874
  387SOL     OW 1577   2.647   4.566   0.564
  387SOL    HW2 1578   2.618   4.654   0.541
  387SOL    HW3 1579   2.737   4.561   0.532
  387SOL    MW4 1580   2.655   4.577   0.556
  388SOL     OW 1581   2.643   0.422   0.904
  388SOL    HW2 1582   2.646   0.399   0.996
  388SOL    HW3 1583   2.734   0.442   0.881
  388SOL    MW4 1584   2.655   0.421   0.913
  389SOL     OW 1585   2.892   0.475   0.777
  389SOL    HW2 1586   2.967   0.424   0.806
  389SOL    HW3 1587   2.912   0.497   0.686
  389SOL    MW4 1588   2.904   0.471   0.769
  390SOL     OW 1589   2.896   0.744   0.850
  390SOL    HW2 1590   2.896   0.743   0.945
  390SOL    HW3 1591   2.884   0.653   0.824
  390SOL    MW4 1592   2.894   0.732   0.859
  391SOL     OW 1593   2.679   0.912   0.761
  391SOL    HW2 1594   2.750   0.848   0.768
  391SOL    HW3 1595   2.673   0.931   0.667
  391SOL    MW4 1596   2.688   0.906   0.750
  392SOL     OW 1597   2.693   1.168   0.857
  392SOL    HW2 1598   2.695   1.076   0.830
  392SOL    HW3 1599   2.601   1.193   0.851
  392SOL    MW4 1600   2.681   1.159   0.853
  393SOL     OW 1601   2.926   1.298   0.746
  393SOL    HW2 1602   2.985   1.227   0.773
  393SOL    HW3 1603   2.840   1.271   0.780
  393SOL    MW4 1604   2.923   1.285   0.754
  394SOL     OW 1605   2.899   1.544   0.873
  394SOL    HW2 1606   2.974   1.595   0.840
  394SOL    HW3 1607   2.910   1.458   0.833
  394SOL    MW4 1608   2.910   1.539   0.863
  395SOL     OW 1609   2.652   1.664   0.764
  395SOL    HW2 1610   2.652   1.757   0.785
  395SOL    HW3 1611   2.732   1.630   0.804
  395SOL    MW4 1612   2.663   1.672   0.772
  396SOL     OW 1613   2.670   1.941   0.816
  396SOL    HW2 1614   2.698   1.926   0.906
  396SOL    HW3 1615   2.583   1.979   0.823
  396SOL    MW4 1616   2.663   1.944   0.829
  397SOL     OW 1617   2.862   2.099   0.649
  397SOL    HW2 1618   2.890   2.171   0.706
  397SOL    HW3 1619   2.810   2.043   0.705
  397SOL    MW4 1620   2.859   2.101   0.664
  398SOL     OW 1621   2.896   2.317   0.830
  398SOL    HW2 1622   2.893   2.328   0.925
  398SOL    HW3 1623   2.810   2.348   0.800
  398SOL    MW4 1624   2.884   2.323   0.838
  399SOL     OW 1625   2.647   2.451   0.706
  399SOL    HW2 1626   2.576   2.472   0.645
  399SOL    HW3 1627   2.659   2.531   0.757
  399SOL    MW4 1628   2.639   2.464   0.705
  400SOL     OW 1629   2.687   2.657   0.868
  400SOL    HW2 1630   2.688   2.668   0.963
  400SOL    HW3 1631   2.767   2.699   0.838
  400SOL    MW4 1632   2.697   2.664   0.877
  401SOL     OW 1633   2.927   2.847   0.532
  401SOL    HW2 1634   2.933   2.753   0.514
  401SOL    HW3 1635   2.833   2.866   0.527
  401SOL    MW4 1636   2.915   2.837   0.529
  402SOL     OW 1637   2.948   3.094   0.827
  402SOL    HW2 1638   2.863   3.129   0.798
  402SOL    HW3 1639   2.939   2.999   0.816
  402SOL    MW4 1640   2.935   3.086   0.822
  403SOL     OW 1641   2.702   3.209   0.780
  403SOL    HW2 1642   2.704   3.301   0.806
  403SOL    HW3 1643   2.623   3.174   0.820
  403SOL    MW4 1644   2.692   3.217   0.789
  404SOL     OW 1645   2.716   3.467   0.877
  404SOL    HW2 1646   2.702   3.484   0.970
  404SOL    HW3 1647   2.783   3.530   0.851
  404SOL    MW4 1648   2.723   3.477   0.886
  405SOL     OW 1649   2.914   3.585   0.721
  405SOL    HW2 1650   2.919   3.675   0.755
  405SOL    HW3 1651   2.908   3.596   0.626
  405SOL    MW4 1652   2.914   3.599   0.713
  406SOL     OW 1653   2.940   3.878   0.785
  406SOL    HW2 1654   2.948   3.874   0.881
  406SOL    HW3 1655   2.857   3.922   0.770
  406SOL    MW4 1656   2.930   3.883   0.796
  407SOL     OW 1657   2.701   4.003   0.722
  407SOL    HW2 1658   2.635   3.961   0.777
  407SOL    HW3 1659   2.681   3.975   0.633
  407SOL    MW4 1660   2.690   3.994   0.718
  408SOL     OW 1661   2.679   4.264   0.798
  408SOL    HW2 1662   2.688   4.267   0.893
  408SOL    HW3 1663   2.682   4.171   0.776
  408SOL    MW4 1664   2.681   4.252   0.808
  409SOL     OW 1665   2.922   4.404   0.783
  409SOL    HW2 1666   2.992   4.356   0.827
  409SOL    HW3 1667   2.846   4.346   0.787
  409SOL    MW4 1668   2.922   4.390   0.790
  410SOL     OW 1669   3.384   4.607   0.845
  410SOL    HW2 1670   3.391   4.620   0.940
  410SOL    HW3 1671   3.300   4.646   0.822
  410SOL    MW4 1672   3.374   4.614   0.855
  411SOL     OW 1673   3.162   0.080   0.807
  411SOL    HW2 1674   3.169   0.174   0.823
  411SOL    HW3 1675   3.089   0.052   0.861
  411SOL    MW4 1676   3.154   0.089   0.816
  412SOL     OW 1677   3.131   0.355   0.856
  412SOL    HW2 1678   3.138   0.349   0.951
  412SOL    HW3 1679   3.211   0.401   0.829
  412SOL    MW4 1680   3.143   0.360   0.865
  413SOL     OW 1681   3.343   0.517   0.724
  413SOL    HW2 1682   3.427   0.473   0.715
  413SOL    HW3 1683   3.316   0.536   0.635
  413SOL    MW4 1684   3.350   0.514   0.711
  414SOL     OW 1685   3.376   0.758   0.836
  414SOL    HW2 1686   3.290   0.800   0.841
  414SOL    HW3 1687   3.358   0.670   0.803
  414SOL    MW4 1688   3.362   0.752   0.833
  415SOL     OW 1689   3.133   0.872   0.780
  415SOL    HW2 1690   3.127   0.964   0.808
  415SOL    HW3 1691   3.051   0.833   0.811
  415SOL    MW4 1692   3.121   0.879   0.788
  416SOL     OW 1693   3.146   1.131   0.837
  416SOL    HW2 1694   3.151   1.148   0.931
  416SOL    HW3 1695   3.216   1.185   0.800
  416SOL    MW4 1696   3.156   1.140   0.844
  417SOL     OW 1697   3.340   1.293   0.730
  417SOL    HW2 1698   3.430   1.272   0.753
  417SOL    HW3 1699   3.322   1.375   0.776
  417SOL    MW4 1700   3.349   1.301   0.739
  418SOL     OW 1701   3.314   1.554   0.852
  418SOL    HW2 1702   3.337   1.568   0.944
  418SOL    HW3 1703   3.392   1.580   0.804
  418SOL    MW4 1704   3.327   1.559   0.858
  419SOL     OW 1705   3.083   1.713   0.734
  419SOL    HW2 1706   3.161   1.665   0.762
  419SOL    HW3 1707   3.075   1.695   0.641
  419SOL    MW4 1708   3.092   1.704   0.726
  420SOL     OW 1709   3.194   1.954   0.818
  420SOL    HW2 1710   3.158   1.972   0.905
  420SOL    HW3 1711   3.151   1.873   0.791
  420SOL    MW4 1712   3.183   1.946   0.826
  421SOL     OW 1713   3.481   1.966   0.864
  421SOL    HW2 1714   3.482   2.061   0.857
  421SOL    HW3 1715   3.388   1.943   0.865
  421SOL    MW4 1716   3.469   1.975   0.863
  422SOL     OW 1717   3.473   2.237   0.883
  422SOL    HW2 1718   3.417   2.273   0.951
  422SOL    HW3 1719   3.559   2.275   0.899
  422SOL    MW4 1720   3.477   2.246   0.894
  423SOL     OW 1721   3.114   2.491   0.679
  423SOL    HW2 1722   3.195   2.441   0.666
  423SOL    HW3 1723   3.054   2.430   0.721
  423SOL    MW4 1724   3.117   2.476   0.683
  424SOL     OW 1725   3.150   2.712   0.849
  424SOL    HW2 1726   3.146   2.629   0.800
  424SOL    HW3 1727   3.216   2.763   0.803
  424SOL    MW4 1728   3.158   2.708   0.836
  425SOL     OW 1729   3.343   2.861   0.671
  425SOL    HW2 1730   3.281   2.871   0.599
  425SOL    HW3 1731   3.418   2.816   0.633
  425SOL    MW4 1732   3.345   2.857   0.657
  426SOL     OW 1733   3.392   3.110   0.825
  426SOL    HW2 1734   3.386   3.095   0.919
  426SOL    HW3 1735   3.385   3.022   0.786
  426SOL    MW4 1736   3.390   3.096   0.832
  427SOL     OW 1737   3.173   3.259   0.724
  427SOL    HW2 1738   3.247   3.202   0.744
  427SOL    HW3 1739   3.096   3.206   0.745
  427SOL    MW4 1740   3.172   3.244   0.729
  428SOL     OW 1741   3.170   3.497   0.836
  428SOL    HW2 1742   3.180   3.408   0.802
  428SOL    HW3 1743   3.091   3.531   0.794
  428SOL    MW4 1744   3.161   3.490   0.826
  429SOL     OW 1745   3.355   3.697   0.885
  429SOL    HW2 1746   3.345   3.756   0.960
  429SOL    HW3 1747   3.289   3.630   0.898
  429SOL    MW4 1748   3.345   3.696   0.897
  430SOL     OW 1749   3.564   3.996   0.875
  430SOL    HW2 1750   3.561   4.091   0.884
  430SOL    HW3 1751   3.524   3.962   0.955
  430SOL    MW4 1752   3.558   4.004   0.887
  431SOL     OW 1753   3.143   4.037   0.730
  431SOL    HW2 1754   3.212   3.976   0.702
  431SOL    HW3 1755   3.070   3.981   0.753
  431SOL    MW4 1756   3.143   4.022   0.729
  432SOL     OW 1757   3.136   4.255   0.899
  432SOL    HW2 1758   3.217   4.299   0.876
  432SOL    HW3 1759   3.141   4.170   0.856
  432SOL    MW4 1760   3.147   4.250   0.891
  433SOL     OW 1761   3.391   4.332   0.822
  433SOL    HW2 1762   3.393   4.427   0.837
  433SOL    HW3 1763   3.386   4.324   0.726
  433SOL    MW4 1764   3.390   4.344   0.811
  434SOL     OW 1765   3.749   4.625   0.834
  434SOL    HW2 1766   3.825   4.678   0.810
  434SOL    HW3 1767   3.674   4.678   0.806
  434SOL    MW4 1768   3.749   4.639   0.827
  435SOL     OW 1769   3.565   0.130   0.736
  435SOL    HW2 1770   3.490   0.073   0.755
  435SOL    HW3 1771   3.601   0.095   0.654
  435SOL    MW4 1772   3.560   0.118   0.727
  436SOL     OW 1773   3.595   0.411   0.776
  436SOL    HW2 1774   3.614   0.414   0.870
  436SOL    HW3 1775   3.595   0.318   0.754
  436SOL    MW4 1776   3.597   0.399   0.786
  437SOL     OW 1777   3.825   0.533   0.698
  437SOL    HW2 1778   3.829   0.610   0.755
  437SOL    HW3 1779   3.741   0.493   0.718
  437SOL    MW4 1780   3.814   0.538   0.708
  438SOL     OW 1781   3.838   0.749   0.875
  438SOL    HW2 1782   3.846   0.735   0.970
  438SOL    HW3 1783   3.891   0.827   0.859
  438SOL    MW4 1784   3.846   0.757   0.886
  439SOL     OW 1785   3.604   0.901   0.799
  439SOL    HW2 1786   3.666   0.855   0.855
  439SOL    HW3 1787   3.522   0.853   0.809
  439SOL    MW4 1788   3.601   0.889   0.807
  440SOL     OW 1789   3.567   1.173   0.852
  440SOL    HW2 1790   3.581   1.172   0.947
  440SOL    HW3 1791   3.590   1.085   0.823
  440SOL    MW4 1792   3.572   1.161   0.861
  441SOL     OW 1793   3.805   1.316   0.783
  441SOL    HW2 1794   3.718   1.278   0.798
  441SOL    HW3 1795   3.822   1.301   0.690
  441SOL    MW4 1796   3.795   1.309   0.773
  442SOL     OW 1797   3.834   1.572   0.907
  442SOL    HW2 1798   3.918   1.610   0.880
  442SOL    HW3 1799   3.822   1.498   0.847
  442SOL    MW4 1800   3.844   1.567   0.895
  443SOL     OW 1801   3.507   1.614   0.664
  443SOL    HW2 1802   3.465   1.654   0.588
  443SOL    HW3 1803   3.578   1.675   0.687
  443SOL    MW4 1804   3.511   1.628   0.657
  444SOL     OW 1805   3.713   1.777   0.754
  444SOL    HW2 1806   3.758   1.725   0.820
  444SOL    HW3 1807   3.642   1.820   0.801
  444SOL    MW4 1808   3.710   1.776   0.769
  445SOL     OW 1809   3.902   2.224   0.756
  445SOL    HW2 1810   3.847   2.260   0.826
  445SOL    HW3 1811   3.926   2.137   0.788
  445SOL    MW4 1812   3.898   2.217   0.769
  446SOL     OW 1813   3.706   2.182   0.557
  446SOL    HW2 1814   3.647   2.109   0.578
  446SOL    HW3 1815   3.772   2.179   0.626
  446SOL    MW4 1816   3.707   2.172   0.569
  447SOL     OW 1817   3.713   2.355   0.908
  447SOL    HW2 1818   3.708   2.449   0.890
  447SOL    HW3 1819   3.743   2.350   0.999
  447SOL    MW4 1820   3.716   2.367   0.918
  448SOL     OW 1821   3.679   2.623   0.845
  448SOL    HW2 1822   3.636   2.652   0.925
  448SOL    HW3 1823   3.730   2.698   0.815
  448SOL    MW4 1824   3.680   2.637   0.851
  449SOL     OW 1825   3.816   2.837   0.722
  449SOL    HW2 1826   3.802   2.931   0.737
  449SOL    HW3 1827   3.870   2.833   0.643
  449SOL    MW4 1828   3.821   2.849   0.714
  450SOL     OW 1829   3.790   3.124   0.809
  450SOL    HW2 1830   3.875   3.156   0.780
  450SOL    HW3 1831   3.727   3.189   0.776
  450SOL    MW4 1832   3.793   3.137   0.800
  451SOL     OW 1833   3.589   3.285   0.737
  451SOL    HW2 1834   3.521   3.228   0.771
  451SOL    HW3 1835   3.596   3.263   0.644
  451SOL    MW4 1836   3.581   3.275   0.729
  452SOL     OW 1837   3.584   3.527   0.870
  452SOL    HW2 1838   3.574   3.455   0.808
  452SOL    HW3 1839   3.510   3.586   0.850
  452SOL    MW4 1840   3.573   3.526   0.859
  453SOL     OW 1841   3.797   3.658   0.762
  453SOL    HW2 1842   3.875   3.609   0.788
  453SOL    HW3 1843   3.726   3.619   0.812
  453SOL    MW4 1844   3.798   3.646   0.772
  454SOL     OW 1845   3.836   3.927   0.871
  454SOL    HW2 1846   3.747   3.960   0.859
  454SOL    HW3 1847   3.833   3.836   0.842
  454SOL    MW4 1848   3.824   3.919   0.865
  455SOL     OW 1849   3.304   3.827   0.648
  455SOL    HW2 1850   3.373   3.890   0.628
  455SOL    HW3 1851   3.335   3.781   0.726
  455SOL    MW4 1852   3.317   3.829   0.656
  456SOL     OW 1853   3.651   4.252   0.896
  456SOL    HW2 1854   3.718   4.282   0.834
  456SOL    HW3 1855   3.568   4.281   0.858
  456SOL    MW4 1856   3.649   4.260   0.883
  457SOL     OW 1857   3.824   4.385   0.725
  457SOL    HW2 1858   3.914   4.373   0.754
  457SOL    HW3 1859   3.794   4.464   0.771
  457SOL    MW4 1860   3.832   4.394   0.735
  458SOL     OW 1861   4.225   4.603   0.812
  458SOL    HW2 1862   4.238   4.597   0.907
  458SOL    HW3 1863   4.139   4.644   0.802
  458SOL    MW4 1864   4.215   4.608   0.823
  459SOL     OW 1865   3.992   0.073   0.770
  459SOL    HW2 1866   4.016   0.165   0.784
  459SOL    HW3 1867   3.990   0.063   0.675
  459SOL    MW4 1868   3.995   0.084   0.759
  460SOL     OW 1869   4.029   0.357   0.822
  460SOL    HW2 1870   4.100   0.415   0.793
  460SOL    HW3 1871   3.951   0.392   0.778
  460SOL    MW4 1872   4.028   0.369   0.812
  461SOL     OW 1873   4.215   0.514   0.726
  461SOL    HW2 1874   4.270   0.444   0.762
  461SOL    HW3 1875   4.200   0.488   0.635
  461SOL    MW4 1876   4.221   0.501   0.719
  462SOL     OW 1877   4.273   0.756   0.871
  462SOL    HW2 1878   4.199   0.810   0.842
  462SOL    HW3 1879   4.267   0.677   0.818
  462SOL    MW4 1880   4.262   0.753   0.860
  463SOL     OW 1881   4.066   0.918   0.772
  463SOL    HW2 1882   4.053   1.012   0.786
  463SOL    HW3 1883   4.070   0.909   0.677
  463SOL    MW4 1884   4.065   0.930   0.761
  464SOL     OW 1885   4.046   1.185   0.866
  464SOL    HW2 1886   4.038   1.172   0.960
  464SOL    HW3 1887   3.967   1.232   0.841
  464SOL    MW4 1888   4.035   1.190   0.875
  465SOL     OW 1889   4.253   1.313   0.741
  465SOL    HW2 1890   4.173   1.275   0.777
  465SOL    HW3 1891   4.320   1.247   0.757
  465SOL    MW4 1892   4.251   1.299   0.748
  466SOL     OW 1893   4.292   1.542   0.880
  466SOL    HW2 1894   4.283   1.543   0.976
  466SOL    HW3 1895   4.266   1.453   0.855
  466SOL    MW4 1896   4.288   1.530   0.890
  467SOL     OW 1897   4.062   1.690   0.768
  467SOL    HW2 1898   4.136   1.668   0.825
  467SOL    HW3 1899   4.088   1.655   0.682
  467SOL    MW4 1900   4.075   1.682   0.764
  468SOL     OW 1901   4.012   1.957   0.859
  468SOL    HW2 1902   4.016   1.872   0.815
  468SOL    HW3 1903   4.099   1.996   0.846
  468SOL    MW4 1904   4.024   1.951   0.852
  469SOL     OW 1905   4.248   2.085   0.780
  469SOL    HW2 1906   4.321   2.024   0.789
  469SOL    HW3 1907   4.222   2.079   0.688
  469SOL    MW4 1908   4.254   2.076   0.769
  470SOL     OW 1909   4.245   2.347   0.867
  470SOL    HW2 1910   4.182   2.396   0.816
  470SOL    HW3 1911   4.236   2.256   0.837
  470SOL    MW4 1912   4.236   2.341   0.857
  471SOL     OW 1913   4.061   2.459   0.682
  471SOL    HW2 1914   4.012   2.526   0.728
  471SOL    HW3 1915   4.006   2.381   0.686
  471SOL    MW4 1916   4.047   2.458   0.688
  472SOL     OW 1917   4.024   2.696   0.848
  472SOL    HW2 1918   4.100   2.727   0.799
  472SOL    HW3 1919   3.951   2.749   0.816
  472SOL    MW4 1920   4.024   2.707   0.837
  473SOL     OW 1921   4.229   2.846   0.754
  473SOL    HW2 1922   4.304   2.788   0.768
  473SOL    HW3 1923   4.225   2.858   0.659
  473SOL    MW4 1924   4.238   2.840   0.744
  474SOL     OW 1925   4.222   3.115   0.861
  474SOL    HW2 1926   4.217   3.022   0.840
  474SOL    HW3 1927   4.307   3.143   0.827
  474SOL    MW4 1928   4.232   3.106   0.853
  475SOL     OW 1929   4.021   3.243   0.712
  475SOL    HW2 1930   4.024   3.338   0.723
  475SOL    HW3 1931   4.078   3.209   0.780
  475SOL    MW4 1932   4.029   3.251   0.722
  476SOL     OW 1933   4.028   3.520   0.805
  476SOL    HW2 1934   4.037   3.502   0.898
  476SOL    HW3 1935   4.111   3.562   0.780
  476SOL    MW4 1936   4.040   3.523   0.814
  477SOL     OW 1937   4.276   3.623   0.775
  477SOL    HW2 1938   4.274   3.717   0.792
  477SOL    HW3 1939   4.329   3.614   0.696
  477SOL    MW4 1940   4.283   3.634   0.766
  478SOL     OW 1941   4.263   3.896   0.834
  478SOL    HW2 1942   4.252   3.895   0.929
  478SOL    HW3 1943   4.180   3.931   0.801
  478SOL    MW4 1944   4.250   3.900   0.842
  479SOL     OW 1945   4.038   4.048   0.739
  479SOL    HW2 1946   3.967   3.997   0.775
  479SOL    HW3 1947   4.042   4.023   0.647
  479SOL    MW4 1948   4.029   4.038   0.731
  480SOL     OW 1949   4.076   4.310   0.834
  480SOL    HW2 1950   4.157   4.340   0.792
  480SOL    HW3 1951   4.058   4.226   0.793
  480SOL    MW4 1952   4.084   4.303   0.823
  481SOL     OW 1953   4.314   4.370   0.691
  481SOL    HW2 1954   4.299   4.461   0.718
  481SOL    HW3 1955   4.391   4.343   0.741
  481SOL    MW4 1956   4.322   4.378   0.701
  482SOL     OW 1957   0.186   0.022   1.113
  482SOL    HW2 1958   0.272   0.057   1.137
  482SOL    HW3 1959   0.195  -0.006   1.022
  482SOL    MW4 1960   0.199   0.023   1.104
  483SOL     OW 1961   4.451   0.135   1.225
  483SOL    HW2 1962   4.387   0.066   1.208
  483SOL    HW3 1963   4.533   0.103   1.186
  483SOL    MW4 1964   4.453   0.122   1.217
  484SOL     OW 1965   4.458   0.389   1.114
  484SOL    HW2 1966   4.382   0.438   1.144
  484SOL    HW3 1967   4.453   0.305   1.160
  484SOL    MW4 1968   4.447   0.385   1.124
  485SOL     OW 1969   0.207   0.494   1.200
  485SOL    HW2 1970   0.210   0.580   1.159
  485SOL    HW3 1971   0.128   0.453   1.163
  485SOL    MW4 1972   0.197   0.500   1.189
  486SOL     OW 1973   0.239   0.759   1.076
  486SOL    HW2 1974   0.319   0.798   1.111
  486SOL    HW3 1975   0.168   0.814   1.109
  486SOL    MW4 1976   0.240   0.771   1.085
  487SOL     OW 1977   0.049   0.921   1.198
  487SOL    HW2 1978   0.053   0.908   1.293
  487SOL    HW3 1979  -0.036   0.885   1.173
  487SOL    MW4 1980   0.038   0.914   1.207
  488SOL     OW 1981   4.477   1.187   1.069
  488SOL    HW2 1982   4.398   1.219   1.112
  488SOL    HW3 1983   4.500   1.107   1.117
  488SOL    MW4 1984   4.470   1.181   1.081
  489SOL     OW 1985   0.183   1.299   1.231
  489SOL    HW2 1986   0.254   1.251   1.189
  489SOL    HW3 1987   0.104   1.274   1.183
  489SOL    MW4 1988   0.182   1.289   1.219
  490SOL     OW 1989   0.192   1.566   1.160
  490SOL    HW2 1990   0.185   1.479   1.198
  490SOL    HW3 1991   0.212   1.551   1.068
  490SOL    MW4 1992   0.193   1.553   1.153
  491SOL     OW 1993   4.466   1.721   1.259
  491SOL    HW2 1994   4.467   1.804   1.212
  491SOL    HW3 1995   4.541   1.672   1.224
  491SOL    MW4 1996   4.476   1.725   1.248
  492SOL     OW 1997   4.486   1.956   1.126
  492SOL    HW2 1998   4.395   1.978   1.148
  492SOL    HW3 1999   4.483   1.935   1.032
  492SOL    MW4 2000   4.473   1.956   1.116
  493SOL     OW 2001   0.247   2.047   1.245
  493SOL    HW2 2002   0.245   2.141   1.231
  493SOL    HW3 2003   0.165   2.015   1.209
  493SOL    MW4 2004   0.236   2.055   1.239
  494SOL     OW 2005   0.242   2.309   1.129
  494SOL    HW2 2006   0.311   2.360   1.171
  494SOL    HW3 2007   0.160   2.349   1.159
  494SOL    MW4 2008   0.240   2.321   1.139
  495SOL     OW 2009   4.487   2.438   1.197
  495SOL    HW2 2010   4.492   2.443   1.293
  495SOL    HW3 2011   4.403   2.398   1.179
  495SOL    MW4 2012   4.477   2.434   1.207
  496SOL     OW 2013   4.469   2.686   1.094
  496SOL    HW2 2014   4.404   2.719   1.156
  496SOL    HW3 2015   4.477   2.593   1.115
  496SOL    MW4 2016   4.462   2.678   1.105
  497SOL     OW 2017   0.244   2.766   1.230
  497SOL    HW2 2018   0.239   2.783   1.324
  497SOL    HW3 2019   0.154   2.744   1.205
  497SOL    MW4 2020   0.231   2.766   1.239
  498SOL     OW 2021   0.210   3.032   1.157
  498SOL    HW2 2022   0.282   3.079   1.198
  498SOL    HW3 2023   0.230   2.939   1.172
  498SOL    MW4 2024   0.222   3.026   1.165
  499SOL     OW 2025   4.477   3.215   1.217
  499SOL    HW2 2026   4.407   3.167   1.173
  499SOL    HW3 2027   4.554   3.159   1.208
  499SOL    MW4 2028   4.478   3.202   1.210
  500SOL     OW 2029   0.014   3.498   1.157
  500SOL    HW2 2030  -0.005   3.410   1.191
  500SOL    HW3 2031   0.007   3.488   1.062
  500SOL    MW4 2032   0.010   3.485   1.149
  501SOL     OW 2033   0.238   3.638   1.249
  501SOL    HW2 2034   0.250   3.619   1.342
  501SOL    HW3 2035   0.170   3.578   1.221
  501SOL    MW4 2036   0.231   3.628   1.258
  502SOL     OW 2037   0.241   3.877   1.109
  502SOL    HW2 2038   0.160   3.912   1.146
  502SOL    HW3 2039   0.255   3.794   1.155
  502SOL    MW4 2040   0.232   3.871   1.120
  503SOL     OW 2041   4.485   3.974   1.196
  503SOL    HW2 2042   4.480   3.956   1.290
  503SOL    HW3 2043   4.401   3.943   1.162
  503SOL    MW4 2044   4.473   3.967   1.204
  504SOL     OW 2045   0.001   4.266   1.124
  504SOL    HW2 2046   0.079   4.309   1.159
  504SOL    HW3 2047   0.002   4.179   1.163
  504SOL    MW4 2048   0.011   4.260   1.134
  505SOL     OW 2049   0.196   4.428   1.248
  505SOL    HW2 2050   0.213   4.426   1.342
  505SOL    HW3 2051   0.190   4.521   1.227
  505SOL    MW4 2052   0.198   4.440   1.258
  506SOL     OW 2053   0.653   4.650   1.109
  506SOL    HW2 2054   0.732   4.679   1.155
  506SOL    HW3 2055   0.638   4.561   1.143
  506SOL    MW4 2056   0.661   4.642   1.120
  507SOL     OW 2057   0.425   0.125   1.190
  507SOL    HW2 2058   0.422   0.212   1.150
  507SOL    HW3 2059   0.507   0.088   1.159
  507SOL    MW4 2060   0.436   0.132   1.181
  508SOL     OW 2061   0.437   0.393   1.085
  508SOL    HW2 2062   0.356   0.430   1.119
  508SOL    HW3 2063   0.424   0.388   0.990
  508SOL    MW4 2064   0.425   0.397   1.077
  509SOL     OW 2065   0.668   0.507   1.205
  509SOL    HW2 2066   0.675   0.596   1.170
  509SOL    HW3 2067   0.597   0.467   1.154
  509SOL    MW4 2068   0.659   0.513   1.193
  510SOL     OW 2069   0.668   0.762   1.080
  510SOL    HW2 2070   0.589   0.809   1.107
  510SOL    HW3 2071   0.653   0.741   0.988
  510SOL    MW4 2072   0.655   0.766   1.071
  511SOL     OW 2073   0.455   0.908   1.173
  511SOL    HW2 2074   0.469   0.907   1.268
  511SOL    HW3 2075   0.442   1.001   1.152
  511SOL    MW4 2076   0.455   0.920   1.183
  512SOL     OW 2077   0.394   1.169   1.119
  512SOL    HW2 2078   0.486   1.192   1.131
  512SOL    HW3 2079   0.385   1.155   1.024
  512SOL    MW4 2080   0.405   1.170   1.108
  513SOL     OW 2081   0.638   1.266   1.217
  513SOL    HW2 2082   0.709   1.228   1.166
  513SOL    HW3 2083   0.641   1.360   1.196
  513SOL    MW4 2084   0.648   1.273   1.208
  514SOL     OW 2085   0.678   1.526   1.132
  514SOL    HW2 2086   0.752   1.579   1.163
  514SOL    HW3 2087   0.602   1.584   1.142
  514SOL    MW4 2088   0.678   1.541   1.137
  515SOL     OW 2089   0.459   1.673   1.204
  515SOL    HW2 2090   0.458   1.691   1.298
  515SOL    HW3 2091   0.374   1.631   1.187
  515SOL    MW4 2092   0.448   1.670   1.214
  516SOL     OW 2093   0.439   1.919   1.077
  516SOL    HW2 2094   0.446   1.833   1.119
  516SOL    HW3 2095   0.383   1.970   1.136
  516SOL    MW4 2096   0.433   1.914   1.090
  517SOL     OW 2097   0.699   2.001   1.192
  517SOL    HW2 2098   0.681   2.004   1.286
  517SOL    HW3 2099   0.626   1.951   1.155
  517SOL    MW4 2100   0.687   1.995   1.200
  518SOL     OW 2101   0.710   2.285   1.151
  518SOL    HW2 2102   0.632   2.336   1.171
  518SOL    HW3 2103   0.694   2.200   1.192
  518SOL    MW4 2104   0.698   2.280   1.159
  519SOL     OW 2105   0.463   2.438   1.224
  519SOL    HW2 2106   0.455   2.445   1.319
  519SOL    HW3 2107   0.463   2.528   1.193
  519SOL    MW4 2108   0.462   2.451   1.233
  520SOL     OW 2109   0.503   2.693   1.116
  520SOL    HW2 2110   0.419   2.726   1.145
  520SOL    HW3 2111   0.503   2.704   1.021
  520SOL    MW4 2112   0.492   2.699   1.108
  521SOL     OW 2113   0.744   2.802   1.245
  521SOL    HW2 2114   0.708   2.889   1.227
  521SOL    HW3 2115   0.675   2.742   1.216
  521SOL    MW4 2116   0.730   2.806   1.239
  522SOL     OW 2117   0.652   3.070   1.172
  522SOL    HW2 2118   0.730   3.122   1.194
  522SOL    HW3 2119   0.657   3.061   1.077
  522SOL    MW4 2120   0.663   3.076   1.162
  523SOL     OW 2121   0.425   3.177   1.271
  523SOL    HW2 2122   0.422   3.267   1.241
  523SOL    HW3 2123   0.516   3.150   1.255
  523SOL    MW4 2124   0.437   3.185   1.265
  524SOL     OW 2125   0.430   3.447   1.215
  524SOL    HW2 2126   0.512   3.495   1.224
  524SOL    HW3 2127   0.361   3.513   1.221
  524SOL    MW4 2128   0.431   3.462   1.217
  525SOL     OW 2129   0.657   3.600   1.250
  525SOL    HW2 2130   0.655   3.622   1.343
  525SOL    HW3 2131   0.653   3.684   1.205
  525SOL    MW4 2132   0.656   3.614   1.256
  526SOL     OW 2133   0.690   3.848   1.128
  526SOL    HW2 2134   0.611   3.889   1.162
  526SOL    HW3 2135   0.694   3.876   1.036
  526SOL    MW4 2136   0.680   3.857   1.120
  527SOL     OW 2137   0.465   3.989   1.212
  527SOL    HW2 2138   0.460   4.080   1.183
  527SOL    HW3 2139   0.386   3.948   1.178
  527SOL    MW4 2140   0.454   3.996   1.204
  528SOL     OW 2141   0.390   4.263   1.156
  528SOL    HW2 2142   0.463   4.319   1.183
  528SOL    HW3 2143   0.311   4.315   1.175
  528SOL    MW4 2144   0.389   4.277   1.162
  529SOL     OW 2145   0.623   4.401   1.218
  529SOL    HW2 2146   0.631   4.414   1.313
  529SOL    HW3 2147   0.684   4.330   1.199
  529SOL    MW4 2148   0.632   4.393   1.228
  530SOL     OW 2149   1.113   4.643   1.149
  530SOL    HW2 2150   1.090   4.551   1.161
  530SOL    HW3 2151   1.120   4.654   1.054
  530SOL    MW4 2152   1.111   4.632   1.138
  531SOL     OW 2153   0.880   0.121   1.217
  531SOL    HW2 2154   0.883   0.107   1.312
  531SOL    HW3 2155   0.956   0.072   1.184
  531SOL    MW4 2156   0.891   0.112   1.226
  532SOL     OW 2157   0.889   0.370   1.108
  532SOL    HW2 2158   0.884   0.287   1.156
  532SOL    HW3 2159   0.811   0.418   1.135
  532SOL    MW4 2160   0.878   0.365   1.118
  533SOL     OW 2161   1.108   0.519   1.207
  533SOL    HW2 2162   1.099   0.503   1.301
  533SOL    HW3 2163   1.035   0.472   1.167
  533SOL    MW4 2164   1.097   0.511   1.214
  534SOL     OW 2165   1.165   0.796   1.116
  534SOL    HW2 2166   1.079   0.837   1.123
  534SOL    HW3 2167   1.149   0.703   1.136
  534SOL    MW4 2168   1.152   0.789   1.120
  535SOL     OW 2169   0.911   0.904   1.154
  535SOL    HW2 2170   0.887   0.995   1.140
  535SOL    HW3 2171   0.836   0.854   1.122
  535SOL    MW4 2172   0.898   0.909   1.148
  536SOL     OW 2173   0.852   1.179   1.079
  536SOL    HW2 2174   0.927   1.214   1.128
  536SOL    HW3 2175   0.889   1.150   0.996
  536SOL    MW4 2176   0.867   1.180   1.075
  537SOL     OW 2177   1.100   1.270   1.175
  537SOL    HW2 2178   1.107   1.275   1.270
  537SOL    HW3 2179   1.181   1.226   1.148
  537SOL    MW4 2180   1.112   1.265   1.184
  538SOL     OW 2181   1.140   1.533   1.107
  538SOL    HW2 2182   1.128   1.443   1.136
  538SOL    HW3 2183   1.148   1.527   1.012
  538SOL    MW4 2184   1.140   1.520   1.098
  539SOL     OW 2185   0.901   1.673   1.169
  539SOL    HW2 2186   0.915   1.763   1.139
  539SOL    HW3 2187   0.986   1.631   1.158
  539SOL    MW4 2188   0.914   1.680   1.164
  540SOL     OW 2189   0.956   1.934   1.097
  540SOL    HW2 2190   1.021   1.988   1.142
  540SOL    HW3 2191   0.872   1.972   1.123
  540SOL    MW4 2192   0.954   1.946   1.107
  541SOL     OW 2193   1.199   2.065   1.215
  541SOL    HW2 2194   1.202   2.065   1.310
  541SOL    HW3 2195   1.175   2.155   1.192
  541SOL    MW4 2196   1.196   2.077   1.224
  542SOL     OW 2197   1.132   2.338   1.145
  542SOL    HW2 2198   1.213   2.375   1.180
  542SOL    HW3 2199   1.064   2.400   1.171
  542SOL    MW4 2200   1.134   2.351   1.153
  543SOL     OW 2201   0.907   2.470   1.227
  543SOL    HW2 2202   0.913   2.469   1.322
  543SOL    HW3 2203   0.835   2.410   1.207
  543SOL    MW4 2204   0.898   2.462   1.237
  544SOL     OW 2205   0.928   2.711   1.060
  544SOL    HW2 2206   0.927   2.624   1.099
  544SOL    HW3 2207   0.873   2.764   1.118
  544SOL    MW4 2208   0.921   2.706   1.073
  545SOL     OW 2209   1.126   2.811   1.237
  545SOL    HW2 2210   1.095   2.799   1.327
  545SOL    HW3 2211   1.060   2.769   1.182
  545SOL    MW4 2212   1.113   2.804   1.242
  546SOL     OW 2213   1.104   3.065   1.135
  546SOL    HW2 2214   1.131   2.979   1.168
  546SOL    HW3 2215   1.120   3.061   1.041
  546SOL    MW4 2216   1.109   3.053   1.127
  547SOL     OW 2217   0.878   3.210   1.214
  547SOL    HW2 2218   0.905   3.301   1.202
  547SOL    HW3 2219   0.955   3.158   1.188
  547SOL    MW4 2220   0.892   3.215   1.209
  548SOL     OW 2221   0.885   3.480   1.145
  548SOL    HW2 2222   0.808   3.525   1.180
  548SOL    HW3 2223   0.879   3.493   1.050
  548SOL    MW4 2224   0.874   3.488   1.137
  549SOL     OW 2225   1.150   3.613   1.212
  549SOL    HW2 2226   1.209   3.543   1.183
  549SOL    HW3 2227   1.062   3.578   1.198
  549SOL    MW4 2228   1.146   3.599   1.206
  550SOL     OW 2229   1.137   3.867   1.125
  550SOL    HW2 2230   1.062   3.906   1.169
  550SOL    HW3 2231   1.144   3.779   1.163
  550SOL    MW4 2232   1.128   3.860   1.136
  551SOL     OW 2233   0.900   3.979   1.228
  551SOL    HW2 2234   0.890   3.980   1.323
  551SOL    HW3 2235   0.828   3.925   1.196
  551SOL    MW4 2236   0.889   3.972   1.236
  552SOL     OW 2237   0.854   4.245   1.170
  552SOL    HW2 2238   0.870   4.151   1.180
  552SOL    HW3 2239   0.856   4.259   1.075
  552SOL    MW4 2240   0.857   4.234   1.159
  553SOL     OW 2241   1.082   4.372   1.207
  553SOL    HW2 2242   1.093   4.383   1.301
  553SOL    HW3 2243   0.995   4.334   1.197
  553SOL    MW4 2244   1.072   4.368   1.218
  554SOL     OW 2245   1.572   4.653   1.112
  554SOL    HW2 2246   1.638   4.706   1.156
  554SOL    HW3 2247   1.572   4.570   1.160
  554SOL    MW4 2248   1.581   4.649   1.124
  555SOL     OW 2249   1.353   0.114   1.251
  555SOL    HW2 2250   1.426   0.089   1.195
  555SOL    HW3 2251   1.276   0.077   1.208
  555SOL    MW4 2252   1.353   0.106   1.238
  556SOL     OW 2253   1.333   0.353   1.117
  556SOL    HW2 2254   1.342   0.278   1.176
  556SOL    HW3 2255   1.269   0.410   1.160
  556SOL    MW4 2256   1.326   0.351   1.131
  557SOL     OW 2257   1.557   0.481   1.219
  557SOL    HW2 2258   1.559   0.574   1.199
  557SOL    HW3 2259   1.479   0.448   1.175
  557SOL    MW4 2260   1.547   0.489   1.211
  558SOL     OW 2261   1.603   0.744   1.141
  558SOL    HW2 2262   1.683   0.791   1.164
  558SOL    HW3 2263   1.609   0.731   1.046
  558SOL    MW4 2264   1.614   0.748   1.131
  559SOL     OW 2265   1.386   0.912   1.235
  559SOL    HW2 2266   1.464   0.870   1.199
  559SOL    HW3 2267   1.313   0.861   1.200
  559SOL    MW4 2268   1.386   0.899   1.226
  560SOL     OW 2269   1.350   1.155   1.096
  560SOL    HW2 2270   1.360   1.072   1.143
  560SOL    HW3 2271   1.344   1.129   1.004
  560SOL    MW4 2272   1.351   1.140   1.090
  561SOL     OW 2273   1.564   1.302   1.214
  561SOL    HW2 2274   1.639   1.244   1.202
  561SOL    HW3 2275   1.493   1.260   1.166
  561SOL    MW4 2276   1.565   1.289   1.206
  562SOL     OW 2277   1.621   1.584   1.115
  562SOL    HW2 2278   1.678   1.626   1.179
  562SOL    HW3 2279   1.630   1.490   1.133
  562SOL    MW4 2280   1.630   1.577   1.126
  563SOL     OW 2281   1.355   1.643   1.223
  563SOL    HW2 2282   1.434   1.614   1.178
  563SOL    HW3 2283   1.283   1.609   1.171
  563SOL    MW4 2284   1.356   1.635   1.210
  564SOL     OW 2285   1.382   1.889   1.117
  564SOL    HW2 2286   1.367   1.811   1.171
  564SOL    HW3 2287   1.311   1.949   1.141
  564SOL    MW4 2288   1.371   1.887   1.127
  565SOL     OW 2289   1.615   2.047   1.204
  565SOL    HW2 2290   1.600   2.135   1.171
  565SOL    HW3 2291   1.533   2.001   1.186
  565SOL    MW4 2292   1.602   2.052   1.197
  566SOL     OW 2293   1.576   2.303   1.136
  566SOL    HW2 2294   1.508   2.348   1.187
  566SOL    HW3 2295   1.554   2.322   1.045
  566SOL    MW4 2296   1.564   2.311   1.131
  567SOL     OW 2297   1.363   2.439   1.240
  567SOL    HW2 2298   1.353   2.452   1.334
  567SOL    HW3 2299   1.361   2.527   1.203
  567SOL    MW4 2300   1.361   2.452   1.247
  568SOL     OW 2301   1.369   2.697   1.135
  568SOL    HW2 2302   1.438   2.749   1.175
  568SOL    HW3 2303   1.288   2.732   1.172
  568SOL    MW4 2304   1.367   2.708   1.145
  569SOL     OW 2305   1.588   2.844   1.226
  569SOL    HW2 2306   1.670   2.813   1.188
  569SOL    HW3 2307   1.569   2.926   1.180
  569SOL    MW4 2308   1.596   2.851   1.215
  570SOL     OW 2309   1.595   3.089   1.122
  570SOL    HW2 2310   1.662   3.148   1.156
  570SOL    HW3 2311   1.513   3.124   1.155
  570SOL    MW4 2312   1.593   3.101   1.130
  571SOL     OW 2313   1.356   3.189   1.204
  571SOL    HW2 2314   1.351   3.198   1.299
  571SOL    HW3 2315   1.274   3.147   1.180
  571SOL    MW4 2316   1.344   3.184   1.214
  572SOL     OW 2317   1.367   3.462   1.138
  572SOL    HW2 2318   1.381   3.369   1.154
  572SOL    HW3 2319   1.366   3.471   1.043
  572SOL    MW4 2320   1.369   3.451   1.128
  573SOL     OW 2321   1.576   3.634   1.248
  573SOL    HW2 2322   1.573   3.719   1.203
  573SOL    HW3 2323   1.502   3.586   1.213
  573SOL    MW4 2324   1.566   3.639   1.237
  574SOL     OW 2325   1.568   3.867   1.118
  574SOL    HW2 2326   1.493   3.916   1.152
  574SOL    HW3 2327   1.560   3.873   1.022
  574SOL    MW4 2328   1.557   3.874   1.110
  575SOL     OW 2329   1.345   4.024   1.205
  575SOL    HW2 2330   1.326   4.109   1.165
  575SOL    HW3 2331   1.266   3.972   1.189
  575SOL    MW4 2332   1.332   4.029   1.197
  576SOL     OW 2333   1.322   4.287   1.090
  576SOL    HW2 2334   1.238   4.320   1.123
  576SOL    HW3 2335   1.323   4.312   0.998
  576SOL    MW4 2336   1.311   4.295   1.082
  577SOL     OW 2337   1.581   4.379   1.215
  577SOL    HW2 2338   1.559   4.391   1.307
  577SOL    HW3 2339   1.499   4.350   1.174
  577SOL    MW4 2340   1.567   4.377   1.222
  578SOL     OW 2341   2.014   0.016   1.131
  578SOL    HW2 2342   1.980  -0.074   1.137
  578SOL    HW3 2343   1.998   0.041   1.040
  578SOL    MW4 2344   2.008   0.007   1.120
  579SOL     OW 2345   1.776   0.129   1.230
  579SOL    HW2 2346   1.775   0.217   1.192
  579SOL    HW3 2347   1.863   0.095   1.211
  579SOL    MW4 2348   1.787   0.136   1.222
  580SOL     OW 2349   1.783   0.389   1.111
  580SOL    HW2 2350   1.695   0.420   1.131
  580SOL    HW3 2351   1.780   0.363   1.019
  580SOL    MW4 2352   1.771   0.390   1.102
  581SOL     OW 2353   1.987   0.484   1.256
  581SOL    HW2 2354   1.973   0.471   1.350
  581SOL    HW3 2355   1.907   0.453   1.215
  581SOL    MW4 2356   1.975   0.478   1.263
  582SOL     OW 2357   2.071   0.742   1.189
  582SOL    HW2 2358   2.050   0.653   1.217
  582SOL    HW3 2359   2.056   0.742   1.094
  582SOL    MW4 2360   2.066   0.730   1.180
  583SOL     OW 2361   1.831   0.906   1.222
  583SOL    HW2 2362   1.808   0.918   1.314
  583SOL    HW3 2363   1.900   0.840   1.223
  583SOL    MW4 2364   1.837   0.899   1.234
  584SOL     OW 2365   1.812   1.180   1.156
  584SOL    HW2 2366   1.824   1.091   1.189
  584SOL    HW3 2367   1.812   1.171   1.061
  584SOL    MW4 2368   1.813   1.167   1.148
  585SOL     OW 2369   2.020   1.335   1.251
  585SOL    HW2 2370   2.100   1.303   1.208
  585SOL    HW3 2371   1.951   1.277   1.221
  585SOL    MW4 2372   2.022   1.323   1.242
  586SOL     OW 2373   2.000   1.594   1.162
  586SOL    HW2 2374   1.998   1.504   1.197
  586SOL    HW3 2375   2.014   1.583   1.068
  586SOL    MW4 2376   2.002   1.580   1.154
  587SOL     OW 2377   1.791   1.730   1.287
  587SOL    HW2 2378   1.793   1.815   1.244
  587SOL    HW3 2379   1.873   1.687   1.260
  587SOL    MW4 2380   1.802   1.736   1.278
  588SOL     OW 2381   1.838   1.936   1.098
  588SOL    HW2 2382   1.751   1.973   1.111
  588SOL    HW3 2383   1.834   1.894   1.012
  588SOL    MW4 2384   1.826   1.935   1.088
  589SOL     OW 2385   2.025   2.070   1.235
  589SOL    HW2 2386   2.003   2.082   1.328
  589SOL    HW3 2387   1.951   2.024   1.198
  589SOL    MW4 2388   2.013   2.066   1.243
  590SOL     OW 2389   2.047   2.321   1.112
  590SOL    HW2 2390   2.110   2.379   1.156
  590SOL    HW3 2391   2.044   2.243   1.167
  590SOL    MW4 2392   2.055   2.319   1.125
  591SOL     OW 2393   1.801   2.441   1.185
  591SOL    HW2 2394   1.869   2.386   1.146
  591SOL    HW3 2395   1.719   2.395   1.165
  591SOL    MW4 2396   1.799   2.427   1.177
  592SOL     OW 2397   1.823   2.711   1.147
  592SOL    HW2 2398   1.832   2.618   1.167
  592SOL    HW3 2399   1.832   2.717   1.052
  592SOL    MW4 2400   1.825   2.699   1.137
  593SOL     OW 2401   2.049   2.856   1.202
  593SOL    HW2 2402   2.038   2.942   1.162
  593SOL    HW3 2403   1.966   2.811   1.186
  593SOL    MW4 2404   2.037   2.861   1.194
  594SOL     OW 2405   2.026   3.148   1.131
  594SOL    HW2 2406   1.958   3.194   1.180
  594SOL    HW3 2407   1.995   3.150   1.040
  594SOL    MW4 2408   2.013   3.155   1.125
  595SOL     OW 2409   1.785   3.244   1.234
  595SOL    HW2 2410   1.792   3.246   1.329
  595SOL    HW3 2411   1.778   3.336   1.208
  595SOL    MW4 2412   1.785   3.256   1.243
  596SOL     OW 2413   1.797   3.493   1.136
  596SOL    HW2 2414   1.874   3.538   1.171
  596SOL    HW3 2415   1.723   3.543   1.171
  596SOL    MW4 2416   1.797   3.506   1.145
  597SOL     OW 2417   2.021   3.629   1.250
  597SOL    HW2 2418   2.035   3.621   1.345
  597SOL    HW3 2419   2.085   3.569   1.212
  597SOL    MW4 2420   2.032   3.620   1.258
  598SOL     OW 2421   2.029   3.883   1.131
  598SOL    HW2 2422   1.948   3.923   1.163
  598SOL    HW3 2423   2.033   3.798   1.174
  598SOL    MW4 2424   2.019   3.877   1.140
  599SOL     OW 2425   1.788   3.997   1.243
  599SOL    HW2 2426   1.773   3.971   1.334
  599SOL    HW3 2427   1.719   3.953   1.194
  599SOL    MW4 2428   1.777   3.988   1.248
  600SOL     OW 2429   1.810   4.248   1.123
  600SOL    HW2 2430   1.819   4.167   1.174
  600SOL    HW3 2431   1.731   4.290   1.158
  600SOL    MW4 2432   1.801   4.243   1.134
  601SOL     OW 2433   2.039   4.395   1.215
  601SOL    HW2 2434   2.021   4.419   1.306
  601SOL    HW3 2435   1.961   4.348   1.186
  601SOL    MW4 2436   2.026   4.392   1.223
  602SOL     OW 2437   2.491   4.655   1.156
  602SOL    HW2 2438   2.567   4.702   1.190
  602SOL    HW3 2439   2.416   4.701   1.195
  602SOL    MW4 2440   2.491   4.667   1.165
  603SOL     OW 2441   2.251   0.124   1.222
  603SOL    HW2 2442   2.240   0.217   1.202
  603SOL    HW3 2443   2.177   0.082   1.177
  603SOL    MW4 2444   2.240   0.131   1.213
  604SOL     OW 2445   2.235   0.385   1.182
  604SOL    HW2 2446   2.160   0.431   1.220
  604SOL    HW3 2447   2.226   0.397   1.088
  604SOL    MW4 2448   2.224   0.393   1.175
  605SOL     OW 2449   2.470   0.522   1.226
  605SOL    HW2 2450   2.488   0.535   1.319
  605SOL    HW3 2451   2.385   0.477   1.225
  605SOL    MW4 2452   2.461   0.518   1.238
  606SOL     OW 2453   2.479   0.795   1.119
  606SOL    HW2 2454   2.457   0.704   1.138
  606SOL    HW3 2455   2.475   0.802   1.024
  606SOL    MW4 2456   2.476   0.784   1.109
  607SOL     OW 2457   2.259   0.934   1.291
  607SOL    HW2 2458   2.352   0.919   1.273
  607SOL    HW3 2459   2.214   0.859   1.252
  607SOL    MW4 2460   2.265   0.922   1.284
  608SOL     OW 2461   2.230   1.175   1.148
  608SOL    HW2 2462   2.310   1.209   1.187
  608SOL    HW3 2463   2.226   1.083   1.177
  608SOL    MW4 2464   2.240   1.167   1.157
  609SOL     OW 2465   2.465   1.276   1.255
  609SOL    HW2 2466   2.533   1.235   1.202
  609SOL    HW3 2467   2.465   1.367   1.226
  609SOL    MW4 2468   2.474   1.283   1.244
  610SOL     OW 2469   2.432   1.517   1.146
  610SOL    HW2 2470   2.366   1.584   1.166
  610SOL    HW3 2471   2.431   1.510   1.050
  610SOL    MW4 2472   2.423   1.525   1.136
  611SOL     OW 2473   2.235   1.692   1.233
  611SOL    HW2 2474   2.239   1.778   1.191
  611SOL    HW3 2475   2.156   1.652   1.199
  611SOL    MW4 2476   2.225   1.698   1.223
  612SOL     OW 2477   2.270   1.947   1.164
  612SOL    HW2 2478   2.196   1.994   1.201
  612SOL    HW3 2479   2.253   1.947   1.070
  612SOL    MW4 2480   2.258   1.953   1.156
  613SOL     OW 2481   2.481   2.105   1.243
  613SOL    HW2 2482   2.552   2.062   1.194
  613SOL    HW3 2483   2.406   2.047   1.230
  613SOL    MW4 2484   2.481   2.091   1.235
  614SOL     OW 2485   2.484   2.352   1.134
  614SOL    HW2 2486   2.490   2.262   1.166
  614SOL    HW3 2487   2.470   2.343   1.039
  614SOL    MW4 2488   2.483   2.339   1.125
  615SOL     OW 2489   2.243   2.450   1.245
  615SOL    HW2 2490   2.227   2.448   1.339
  615SOL    HW3 2491   2.325   2.402   1.233
  615SOL    MW4 2492   2.251   2.443   1.255
  616SOL     OW 2493   2.246   2.703   1.110
  616SOL    HW2 2494   2.242   2.623   1.163
  616SOL    HW3 2495   2.172   2.756   1.140
  616SOL    MW4 2496   2.236   2.699   1.121
  617SOL     OW 2497   2.445   2.841   1.245
  617SOL    HW2 2498   2.408   2.835   1.333
  617SOL    HW3 2499   2.377   2.804   1.188
  617SOL    MW4 2500   2.431   2.835   1.249
  618SOL     OW 2501   2.475   3.116   1.165
  618SOL    HW2 2502   2.410   3.173   1.207
  618SOL    HW3 2503   2.458   3.029   1.202
  618SOL    MW4 2504   2.464   3.112   1.175
  619SOL     OW 2505   2.257   3.247   1.262
  619SOL    HW2 2506   2.246   3.334   1.223
  619SOL    HW3 2507   2.192   3.193   1.217
  619SOL    MW4 2508   2.247   3.252   1.251
  620SOL     OW 2509   2.205   3.471   1.110
  620SOL    HW2 2510   2.268   3.532   1.150
  620SOL    HW3 2511   2.229   3.469   1.017
  620SOL    MW4 2512   2.216   3.479   1.103
  621SOL     OW 2513   2.406   3.624   1.250
  621SOL    HW2 2514   2.410   3.621   1.345
  621SOL    HW3 2515   2.433   3.714   1.228
  621SOL    MW4 2516   2.410   3.636   1.260
  622SOL     OW 2517   2.473   3.881   1.161
  622SOL    HW2 2518   2.395   3.930   1.188
  622SOL    HW3 2519   2.462   3.868   1.067
  622SOL    MW4 2520   2.462   3.886   1.152
  623SOL     OW 2521   2.240   4.010   1.271
  623SOL    HW2 2522   2.244   4.096   1.229
  623SOL    HW3 2523   2.155   3.975   1.244
  623SOL    MW4 2524   2.229   4.017   1.262
  624SOL     OW 2525   2.272   4.272   1.128
  624SOL    HW2 2526   2.205   4.329   1.165
  624SOL    HW3 2527   2.252   4.269   1.034
  624SOL    MW4 2528   2.261   4.279   1.120
  625SOL     OW 2529   2.512   4.380   1.211
  625SOL    HW2 2530   2.431   4.336   1.184
  625SOL    HW3 2531   2.493   4.473   1.200
  625SOL    MW4 2532   2.499   4.386   1.206
  626SOL     OW 2533   2.946   0.008   1.161
  626SOL    HW2 2534   2.922  -0.084   1.172
  626SOL    HW3 2535   2.921   0.029   1.071
  626SOL    MW4 2536   2.940  -0.002   1.150
  627SOL     OW 2537   2.712   0.132   1.257
  627SOL    HW2 2538   2.701   0.114   1.350
  627SOL    HW3 2539   2.784   0.076   1.230
  627SOL    MW4 2540   2.720   0.122   1.266
  628SOL     OW 2541   2.714   0.399   1.176
  628SOL    HW2 2542   2.717   0.311   1.215
  628SOL    HW3 2543   2.630   0.434   1.204
  628SOL    MW4 2544   2.703   0.392   1.185
  629SOL     OW 2545   2.952   0.502   1.231
  629SOL    HW2 2546   2.939   0.591   1.199
  629SOL    HW3 2547   2.871   0.456   1.209
  629SOL    MW4 2548   2.940   0.507   1.224
  630SOL     OW 2549   2.927   0.745   1.127
  630SOL    HW2 2550   3.005   0.790   1.160
  630SOL    HW3 2551   2.854   0.791   1.169
  630SOL    MW4 2552   2.928   0.757   1.137
  631SOL     OW 2553   2.707   0.901   1.221
  631SOL    HW2 2554   2.708   0.992   1.193
  631SOL    HW3 2555   2.631   0.864   1.176
  631SOL    MW4 2556   2.697   0.908   1.211
  632SOL     OW 2557   2.692   1.161   1.136
  632SOL    HW2 2558   2.769   1.215   1.157
  632SOL    HW3 2559   2.692   1.155   1.041
  632SOL    MW4 2560   2.702   1.167   1.126
  633SOL     OW 2561   2.938   1.263   1.212
  633SOL    HW2 2562   2.920   1.263   1.306
  633SOL    HW3 2563   2.925   1.353   1.184
  633SOL    MW4 2564   2.934   1.275   1.220
  634SOL     OW 2565   2.903   1.531   1.168
  634SOL    HW2 2566   2.974   1.587   1.200
  634SOL    HW3 2567   2.899   1.549   1.074
  634SOL    MW4 2568   2.912   1.541   1.160
  635SOL     OW 2569   2.668   1.677   1.221
  635SOL    HW2 2570   2.736   1.610   1.220
  635SOL    HW3 2571   2.588   1.630   1.195
  635SOL    MW4 2572   2.666   1.662   1.218
  636SOL     OW 2573   2.664   1.951   1.107
  636SOL    HW2 2574   2.747   1.994   1.129
  636SOL    HW3 2575   2.671   1.864   1.145
  636SOL    MW4 2576   2.676   1.945   1.115
  637SOL     OW 2577   2.901   2.079   1.188
  637SOL    HW2 2578   2.912   2.065   1.282
  637SOL    HW3 2579   2.910   2.174   1.177
  637SOL    MW4 2580   2.904   2.090   1.199
  638SOL     OW 2581   2.912   2.355   1.118
  638SOL    HW2 2582   2.992   2.395   1.151
  638SOL    HW3 2583   2.841   2.408   1.156
  638SOL    MW4 2584   2.913   2.367   1.128
  639SOL     OW 2585   2.694   2.488   1.243
  639SOL    HW2 2586   2.699   2.473   1.337
  639SOL    HW3 2587   2.623   2.431   1.213
  639SOL    MW4 2588   2.685   2.479   1.251
  640SOL     OW 2589   2.691   2.733   1.146
  640SOL    HW2 2590   2.686   2.643   1.177
  640SOL    HW3 2591   2.614   2.776   1.185
  640SOL    MW4 2592   2.680   2.727   1.155
  641SOL     OW 2593   2.891   2.911   1.233
  641SOL    HW2 2594   2.897   2.886   1.326
  641SOL    HW3 2595   2.821   2.855   1.198
  641SOL    MW4 2596   2.882   2.900   1.241
  642SOL     OW 2597   2.926   3.152   1.104
  642SOL    HW2 2598   2.920   3.066   1.146
  642SOL    HW3 2599   2.925   3.133   1.010
  642SOL    MW4 2600   2.925   3.138   1.097
  643SOL     OW 2601   2.702   3.249   1.247
  643SOL    HW2 2602   2.775   3.195   1.218
  643SOL    HW3 2603   2.624   3.197   1.229
  643SOL    MW4 2604   2.702   3.235   1.241
  644SOL     OW 2605   2.650   3.505   1.141
  644SOL    HW2 2606   2.668   3.421   1.185
  644SOL    HW3 2607   2.570   3.536   1.184
  644SOL    MW4 2608   2.641   3.498   1.153
  645SOL     OW 2609   2.906   3.654   1.241
  645SOL    HW2 2610   2.983   3.602   1.219
  645SOL    HW3 2611   2.834   3.612   1.193
  645SOL    MW4 2612   2.907   3.641   1.232
  646SOL     OW 2613   2.933   3.873   1.058
  646SOL    HW2 2614   3.005   3.913   1.106
  646SOL    HW3 2615   2.908   3.797   1.110
  646SOL    MW4 2616   2.939   3.868   1.071
  647SOL     OW 2617   2.714   3.992   1.221
  647SOL    HW2 2618   2.775   3.962   1.153
  647SOL    HW3 2619   2.628   3.960   1.192
  647SOL    MW4 2620   2.711   3.983   1.208
  648SOL     OW 2621   2.708   4.222   1.077
  648SOL    HW2 2622   2.701   4.139   1.124
  648SOL    HW3 2623   2.639   4.277   1.114
  648SOL    MW4 2624   2.698   4.219   1.088
  649SOL     OW 2625   2.887   4.391   1.237
  649SOL    HW2 2626   2.975   4.359   1.216
  649SOL    HW3 2627   2.828   4.332   1.189
  649SOL    MW4 2628   2.891   4.379   1.228
  650SOL     OW 2629   3.382   0.004   1.101
  650SOL    HW2 2630   3.463   0.033   1.143
  650SOL    HW3 2631   3.313   0.037   1.159
  650SOL    MW4 2632   3.383   0.012   1.114
  651SOL     OW 2633   3.166   0.123   1.256
  651SOL    HW2 2634   3.151   0.118   1.351
  651SOL    HW3 2635   3.094   0.072   1.218
  651SOL    MW4 2636   3.154   0.116   1.264
  652SOL     OW 2637   3.170   0.362   1.127
  652SOL    HW2 2638   3.169   0.281   1.178
  652SOL    HW3 2639   3.108   0.420   1.172
  652SOL    MW4 2640   3.162   0.359   1.140
  653SOL     OW 2641   3.396   0.459   1.238
  653SOL    HW2 2642   3.391   0.550   1.207
  653SOL    HW3 2643   3.316   0.418   1.204
  653SOL    MW4 2644   3.385   0.466   1.230
  654SOL     OW 2645   3.393   0.725   1.138
  654SOL    HW2 2646   3.316   0.768   1.175
  654SOL    HW3 2647   3.373   0.718   1.044
  654SOL    MW4 2648   3.380   0.730   1.130
  655SOL     OW 2649   3.162   0.864   1.232
  655SOL    HW2 2650   3.149   0.871   1.326
  655SOL    HW3 2651   3.157   0.955   1.200
  655SOL    MW4 2652   3.159   0.877   1.240
  656SOL     OW 2653   3.159   1.125   1.136
  656SOL    HW2 2654   3.226   1.186   1.167
  656SOL    HW3 2655   3.076   1.161   1.168
  656SOL    MW4 2656   3.157   1.138   1.144
  657SOL     OW 2657   3.356   1.285   1.231
  657SOL    HW2 2658   3.372   1.291   1.325
  657SOL    HW3 2659   3.343   1.376   1.202
  657SOL    MW4 2660   3.356   1.298   1.240
  658SOL     OW 2661   3.341   1.543   1.138
  658SOL    HW2 2662   3.403   1.593   1.192
  658SOL    HW3 2663   3.255   1.582   1.158
  658SOL    MW4 2664   3.338   1.555   1.147
  659SOL     OW 2665   3.124   1.699   1.225
  659SOL    HW2 2666   3.150   1.709   1.317
  659SOL    HW3 2667   3.125   1.788   1.190
  659SOL    MW4 2668   3.128   1.712   1.233
  660SOL     OW 2669   3.112   1.938   1.084
  660SOL    HW2 2670   3.178   1.984   1.136
  660SOL    HW3 2671   3.030   1.980   1.107
  660SOL    MW4 2672   3.110   1.949   1.094
  661SOL     OW 2673   3.344   2.044   1.219
  661SOL    HW2 2674   3.428   1.998   1.212
  661SOL    HW3 2675   3.365   2.135   1.198
  661SOL    MW4 2676   3.358   2.050   1.216
  662SOL     OW 2677   3.364   2.291   1.118
  662SOL    HW2 2678   3.435   2.347   1.150
  662SOL    HW3 2679   3.284   2.335   1.145
  662SOL    MW4 2680   3.363   2.304   1.126
  663SOL     OW 2681   3.147   2.462   1.196
  663SOL    HW2 2682   3.132   2.442   1.289
  663SOL    HW3 2683   3.128   2.556   1.189
  663SOL    MW4 2684   3.142   2.472   1.207
  664SOL     OW 2685   3.104   2.758   1.138
  664SOL    HW2 2686   3.030   2.810   1.168
  664SOL    HW3 2687   3.098   2.761   1.042
  664SOL    MW4 2688   3.093   2.766   1.129
  665SOL     OW 2689   3.357   2.826   1.211
  665SOL    HW2 2690   3.353   2.917   1.181
  665SOL    HW3 2691   3.272   2.789   1.188
  665SOL    MW4 2692   3.345   2.833   1.204
  666SOL     OW 2693   3.355   3.087   1.100
  666SOL    HW2 2694   3.435   3.130   1.131
  666SOL    HW3 2695   3.284   3.143   1.131
  666SOL    MW4 2696   3.357   3.100   1.108
  667SOL     OW 2697   3.160   3.244   1.214
  667SOL    HW2 2698   3.157   3.336   1.189
  667SOL    HW3 2699   3.073   3.210   1.193
  667SOL    MW4 2700   3.148   3.252   1.208
  668SOL     OW 2701   3.134   3.520   1.141
  668SOL    HW2 2702   3.223   3.552   1.154
  668SOL    HW3 2703   3.133   3.484   1.053
  668SOL    MW4 2704   3.145   3.520   1.131
  669SOL     OW 2705   3.387   3.620   1.210
  669SOL    HW2 2706   3.385   3.612   1.305
  669SOL    HW3 2707   3.454   3.557   1.182
  669SOL    MW4 2708   3.395   3.611   1.218
  670SOL     OW 2709   3.378   3.876   1.101
  670SOL    HW2 2710   3.292   3.903   1.134
  670SOL    HW3 2711   3.397   3.795   1.148
  670SOL    MW4 2712   3.369   3.869   1.112
  671SOL     OW 2713   3.140   3.991   1.212
  671SOL    HW2 2714   3.140   3.976   1.307
  671SOL    HW3 2715   3.127   4.085   1.203
  671SOL    MW4 2716   3.138   4.001   1.223
  672SOL     OW 2717   3.133   4.260   1.162
  672SOL    HW2 2718   3.204   4.315   1.195
  672SOL    HW3 2719   3.146   4.260   1.067
  672SOL    MW4 2720   3.144   4.267   1.154
  673SOL     OW 2721   3.369   4.408   1.237
  673SOL    HW2 2722   3.438   4.357   1.195
  673SOL    HW3 2723   3.384   4.498   1.206
  673SOL    MW4 2724   3.380   4.413   1.227
  674SOL     OW 2725   3.805   4.638   1.116
  674SOL    HW2 2726   3.820   4.553   1.159
  674SOL    HW3 2727   3.793   4.617   1.024
  674SOL    MW4 2728   3.805   4.624   1.110
  675SOL     OW 2729   3.592   0.109   1.227
  675SOL    HW2 2730   3.590   0.191   1.178
  675SOL    HW3 2731   3.661   0.057   1.186
  675SOL    MW4 2732   3.601   0.113   1.215
  676SOL     OW 2733   3.597   0.356   1.086
  676SOL    HW2 2734   3.683   0.376   1.123
  676SOL    HW3 2735   3.537   0.414   1.133
  676SOL    MW4 2736   3.600   0.366   1.097
  677SOL     OW 2737   3.806   0.475   1.230
  677SOL    HW2 2738   3.878   0.438   1.179
  677SOL    HW3 2739   3.807   0.568   1.207
  677SOL    MW4 2740   3.816   0.482   1.220
  678SOL     OW 2741   3.811   0.745   1.154
  678SOL    HW2 2742   3.893   0.782   1.187
  678SOL    HW3 2743   3.743   0.801   1.190
  678SOL    MW4 2744   3.813   0.757   1.163
  679SOL     OW 2745   3.592   0.902   1.254
  679SOL    HW2 2746   3.596   0.987   1.212
  679SOL    HW3 2747   3.530   0.851   1.201
  679SOL    MW4 2748   3.584   0.906   1.242
  680SOL     OW 2749   3.584   1.153   1.135
  680SOL    HW2 2750   3.653   1.191   1.190
  680SOL    HW3 2751   3.503   1.186   1.173
  680SOL    MW4 2752   3.582   1.162   1.147
  681SOL     OW 2753   3.795   1.287   1.270
  681SOL    HW2 2754   3.799   1.286   1.366
  681SOL    HW3 2755   3.781   1.379   1.247
  681SOL    MW4 2756   3.794   1.299   1.280
  682SOL     OW 2757   3.757   1.561   1.181
  682SOL    HW2 2758   3.844   1.593   1.206
  682SOL    HW3 2759   3.766   1.538   1.089
  682SOL    MW4 2760   3.770   1.562   1.172
  683SOL     OW 2761   3.520   1.685   1.280
  683SOL    HW2 2762   3.528   1.773   1.244
  683SOL    HW3 2763   3.598   1.639   1.251
  683SOL    MW4 2764   3.531   1.691   1.272
  684SOL     OW 2765   3.578   1.925   1.145
  684SOL    HW2 2766   3.633   2.000   1.166
  684SOL    HW3 2767   3.550   1.940   1.055
  684SOL    MW4 2768   3.581   1.937   1.136
  685SOL     OW 2769   3.791   2.079   1.265
  685SOL    HW2 2770   3.785   2.069   1.360
  685SOL    HW3 2771   3.871   2.033   1.241
  685SOL    MW4 2772   3.801   2.072   1.275
  686SOL     OW 2773   3.801   2.330   1.181
  686SOL    HW2 2774   3.881   2.377   1.204
  686SOL    HW3 2775   3.815   2.241   1.213
  686SOL    MW4 2776   3.814   2.324   1.188
  687SOL     OW 2777   3.557   2.448   1.221
  687SOL    HW2 2778   3.538   2.459   1.314
  687SOL    HW3 2779   3.645   2.410   1.218
  687SOL    MW4 2780   3.566   2.444   1.233
  688SOL     OW 2781   3.583   2.711   1.109
  688SOL    HW2 2782   3.599   2.626   1.151
  688SOL    HW3 2783   3.501   2.742   1.148
  688SOL    MW4 2784   3.574   2.704   1.120
  689SOL     OW 2785   3.798   2.865   1.191
  689SOL    HW2 2786   3.787   2.850   1.285
  689SOL    HW3 2787   3.725   2.818   1.151
  689SOL    MW4 2788   3.787   2.857   1.198
  690SOL     OW 2789   3.825   3.143   1.105
  690SOL    HW2 2790   3.828   3.048   1.115
  690SOL    HW3 2791   3.815   3.157   1.011
  690SOL    MW4 2792   3.824   3.133   1.094
  691SOL     OW 2793   3.576   3.206   1.241
  691SOL    HW2 2794   3.585   3.296   1.210
  691SOL    HW3 2795   3.662   3.166   1.223
  691SOL    MW4 2796   3.589   3.212   1.234
  692SOL     OW 2797   3.604   3.447   1.143
  692SOL    HW2 2798   3.672   3.503   1.181
  692SOL    HW3 2799   3.607   3.466   1.050
  692SOL    MW4 2800   3.614   3.457   1.136
  693SOL     OW 2801   3.843   3.603   1.195
  693SOL    HW2 2802   3.837   3.609   1.291
  693SOL    HW3 2803   3.839   3.694   1.166
  693SOL    MW4 2804   3.842   3.616   1.204
  694SOL     OW 2805   3.833   3.882   1.153
  694SOL    HW2 2806   3.755   3.926   1.186
  694SOL    HW3 2807   3.831   3.898   1.059
  694SOL    MW4 2808   3.822   3.890   1.145
  695SOL     OW 2809   3.597   4.014   1.252
  695SOL    HW2 2810   3.591   4.022   1.347
  695SOL    HW3 2811   3.510   3.986   1.224
  695SOL    MW4 2812   3.585   4.011   1.261
  696SOL     OW 2813   3.609   4.279   1.177
  696SOL    HW2 2814   3.600   4.191   1.214
  696SOL    HW3 2815   3.621   4.264   1.083
  696SOL    MW4 2816   3.609   4.265   1.169
  697SOL     OW 2817   3.844   4.406   1.251
  697SOL    HW2 2818   3.830   4.394   1.345
  697SOL    HW3 2819   3.772   4.358   1.210
  697SOL    MW4 2820   3.832   4.398   1.258
  698SOL     OW 2821   4.260   4.612   1.109
  698SOL    HW2 2822   4.270   4.528   1.155
  698SOL    HW3 2823   4.177   4.647   1.141
  698SOL    MW4 2824   4.250   4.606   1.119
  699SOL     OW 2825   4.059   0.117   1.219
  699SOL    HW2 2826   4.062   0.127   1.314
  699SOL    HW3 2827   3.977   0.072   1.201
  699SOL    MW4 2828   4.049   0.113   1.229
  700SOL     OW 2829   4.031   0.380   1.098
  700SOL    HW2 2830   4.037   0.291   1.135
  700SOL    HW3 2831   4.021   0.366   1.004
  700SOL    MW4 2832   4.030   0.366   1.091
  701SOL     OW 2833   4.247   0.510   1.221
  701SOL    HW2 2834   4.235   0.493   1.314
  701SOL    HW3 2835   4.168   0.474   1.180
  701SOL    MW4 2836   4.235   0.503   1.228
  702SOL     OW 2837   4.304   0.790   1.139
  702SOL    HW2 2838   4.300   0.705   1.183
  702SOL    HW3 2839   4.284   0.770   1.048
  702SOL    MW4 2840   4.301   0.776   1.133
  703SOL     OW 2841   4.032   0.882   1.250
  703SOL    HW2 2842   4.044   0.893   1.344
  703SOL    HW3 2843   4.116   0.851   1.218
  703SOL    MW4 2844   4.044   0.879   1.258
  704SOL     OW 2845   4.015   1.130   1.148
  704SOL    HW2 2846   4.010   1.039   1.179
  704SOL    HW3 2847   3.934   1.170   1.179
  704SOL    MW4 2848   4.003   1.123   1.156
  705SOL     OW 2849   4.251   1.255   1.209
  705SOL    HW2 2850   4.253   1.245   1.304
  705SOL    HW3 2851   4.178   1.201   1.181
  705SOL    MW4 2852   4.242   1.247   1.218
  706SOL     OW 2853   4.240   1.541   1.155
  706SOL    HW2 2854   4.241   1.448   1.178
  706SOL    HW3 2855   4.309   1.580   1.209
  706SOL    MW4 2856   4.249   1.534   1.165
  707SOL     OW 2857   4.016   1.675   1.255
  707SOL    HW2 2858   4.014   1.668   1.350
  707SOL    HW3 2859   4.101   1.640   1.230
  707SOL    MW4 2860   4.027   1.669   1.264
  708SOL     OW 2861   3.993   1.927   1.151
  708SOL    HW2 2862   3.986   1.836   1.177
  708SOL    HW3 2863   3.980   1.926   1.056
  708SOL    MW4 2864   3.990   1.915   1.142
  709SOL     OW 2865   4.238   2.035   1.216
  709SOL    HW2 2866   4.223   2.125   1.186
  709SOL    HW3 2867   4.159   1.988   1.188
  709SOL    MW4 2868   4.225   2.041   1.208
  710SOL     OW 2869   4.236   2.300   1.135
  710SOL    HW2 2870   4.167   2.361   1.162
  710SOL    HW3 2871   4.238   2.308   1.039
  710SOL    MW4 2872   4.227   2.309   1.126
  711SOL     OW 2873   4.025   2.455   1.260
  711SOL    HW2 2874   4.040   2.467   1.353
  711SOL    HW3 2875   4.049   2.538   1.220
  711SOL    MW4 2876   4.030   2.467   1.267
  712SOL     OW 2877   4.026   2.719   1.143
  712SOL    HW2 2878   3.947   2.772   1.148
  712SOL    HW3 2879   4.040   2.706   1.049
  712SOL    MW4 2880   4.017   2.725   1.131
  713SOL     OW 2881   4.259   2.809   1.250
  713SOL    HW2 2882   4.252   2.901   1.225
  713SOL    HW3 2883   4.175   2.770   1.224
  713SOL    MW4 2884   4.247   2.816   1.243
  714SOL     OW 2885   4.229   3.058   1.139
  714SOL    HW2 2886   4.167   3.107   1.193
  714SOL    HW3 2887   4.207   3.081   1.049
  714SOL    MW4 2888   4.218   3.067   1.135
  715SOL     OW 2889   4.040   3.246   1.240
  715SOL    HW2 2890   4.023   3.234   1.333
  715SOL    HW3 2891   3.964   3.208   1.196
  715SOL    MW4 2892   4.028   3.240   1.246
  716SOL     OW 2893   4.074   3.472   1.082
  716SOL    HW2 2894   4.069   3.384   1.119
  716SOL    HW3 2895   3.995   3.515   1.113
  716SOL    MW4 2896   4.063   3.466   1.091
  717SOL     OW 2897   4.274   3.615   1.224
  717SOL    HW2 2898   4.200   3.568   1.185
  717SOL    HW3 2899   4.351   3.570   1.191
  717SOL    MW4 2900   4.274   3.603   1.215
  718SOL     OW 2901   4.247   3.871   1.104
  718SOL    HW2 2902   4.179   3.918   1.152
  718SOL    HW3 2903   4.252   3.786   1.147
  718SOL    MW4 2904   4.239   3.866   1.116
  719SOL     OW 2905   4.063   4.016   1.249
  719SOL    HW2 2906   4.069   4.098   1.199
  719SOL    HW3 2907   3.983   3.975   1.218
  719SOL    MW4 2908   4.053   4.022   1.238
  720SOL     OW 2909   4.062   4.263   1.125
  720SOL    HW2 2910   3.995   4.318   1.166
  720SOL    HW3 2911   4.057   4.285   1.032
  720SOL    MW4 2912   4.052   4.273   1.118
  721SOL     OW 2913   4.268   4.369   1.252
  721SOL    HW2 2914   4.204   4.316   1.205
  721SOL    HW3 2915   4.353   4.340   1.219
  721SOL    MW4 2916   4.270   4.358   1.242
  722SOL     OW 2917   0.264   0.028   1.602
  722SOL    HW2 2918   0.350   0.057   1.571
  722SOL    HW3 2919   0.202   0.067   1.541
  722SOL    MW4 2920   0.267   0.037   1.590
  723SOL     OW 2921   0.018   0.102   1.496
  723SOL    HW2 2922  -0.059   0.072   1.544
  723SOL    HW3 2923  -0.012   0.110   1.405
  723SOL    MW4 2924   0.004   0.099   1.490
  724SOL     OW 2925   0.003   0.382   1.562
  724SOL    HW2 2926   0.003   0.382   1.658
  724SOL    HW3 2927   0.026   0.292   1.538
  724SOL    MW4 2928   0.006   0.370   1.571
  725SOL     OW 2929   0.233   0.497   1.468
  725SOL    HW2 2930   0.156   0.453   1.504
  725SOL    HW3 2931   0.220   0.494   1.374
  725SOL    MW4 2932   0.221   0.491   1.461
  726SOL     OW 2933   0.237   0.756   1.585
  726SOL    HW2 2934   0.297   0.819   1.546
  726SOL    HW3 2935   0.246   0.677   1.531
  726SOL    MW4 2936   0.246   0.754   1.573
  727SOL     OW 2937   0.023   0.864   1.467
  727SOL    HW2 2938   0.025   0.950   1.508
  727SOL    HW3 2939   0.094   0.815   1.508
  727SOL    MW4 2940   0.032   0.869   1.478
  728SOL     OW 2941   4.486   1.117   1.558
  728SOL    HW2 2942   4.477   1.107   1.653
  728SOL    HW3 2943   4.555   1.182   1.547
  728SOL    MW4 2944   4.494   1.124   1.569
  729SOL     OW 2945   0.201   1.291   1.510
  729SOL    HW2 2946   0.209   1.382   1.540
  729SOL    HW3 2947   0.218   1.295   1.416
  729SOL    MW4 2948   0.204   1.303   1.502
  730SOL     OW 2949   0.234   1.540   1.592
  730SOL    HW2 2950   0.230   1.524   1.686
  730SOL    HW3 2951   0.151   1.583   1.571
  730SOL    MW4 2952   0.223   1.544   1.601
  731SOL     OW 2953   4.488   1.650   1.527
  731SOL    HW2 2954   4.482   1.741   1.555
  731SOL    HW3 2955   4.475   1.654   1.432
  731SOL    MW4 2956   4.486   1.662   1.518
  732SOL     OW 2957   4.456   1.921   1.587
  732SOL    HW2 2958   4.461   1.914   1.682
  732SOL    HW3 2959   4.381   1.977   1.570
  732SOL    MW4 2960   4.447   1.928   1.597
  733SOL     OW 2961   0.193   2.065   1.524
  733SOL    HW2 2962   0.110   2.026   1.551
  733SOL    HW3 2963   0.202   2.042   1.432
  733SOL    MW4 2964   0.183   2.057   1.516
  734SOL     OW 2965   0.182   2.330   1.611
  734SOL    HW2 2966   0.187   2.317   1.706
  734SOL    HW3 2967   0.180   2.241   1.575
  734SOL    MW4 2968   0.182   2.316   1.619
  735SOL     OW 2969   4.467   2.469   1.468
  735SOL    HW2 2970   4.384   2.463   1.516
  735SOL    HW3 2971   4.529   2.419   1.521
  735SOL    MW4 2972   4.464   2.462   1.481
  736SOL     OW 2973   0.011   2.674   1.635
  736SOL    HW2 2974  -0.056   2.738   1.609
  736SOL    HW3 2975  -0.004   2.599   1.579
  736SOL    MW4 2976   0.000   2.673   1.624
  737SOL     OW 2977   0.220   2.823   1.519
  737SOL    HW2 2978   0.308   2.801   1.550
  737SOL    HW3 2979   0.162   2.766   1.569
  737SOL    MW4 2980   0.224   2.812   1.530
  738SOL     OW 2981   0.194   3.050   1.670
  738SOL    HW2 2982   0.149   3.114   1.614
  738SOL    HW3 2983   0.189   2.968   1.622
  738SOL    MW4 2984   0.187   3.048   1.657
  739SOL     OW 2985   0.056   3.227   1.506
  739SOL    HW2 2986   0.037   3.311   1.548
  739SOL    HW3 2987   0.024   3.238   1.416
  739SOL    MW4 2988   0.049   3.239   1.499
  740SOL     OW 2989   4.477   3.485   1.614
  740SOL    HW2 2990   4.477   3.495   1.709
  740SOL    HW3 2991   4.405   3.540   1.584
  740SOL    MW4 2992   4.468   3.494   1.622
  741SOL     OW 2993   0.235   3.626   1.519
  741SOL    HW2 2994   0.210   3.716   1.540
  741SOL    HW3 2995   0.156   3.575   1.540
  741SOL    MW4 2996   0.221   3.631   1.525
  742SOL     OW 2997   0.165   3.895   1.591
  742SOL    HW2 2998   0.182   3.903   1.685
  742SOL    HW3 2999   0.243   3.932   1.550
  742SOL    MW4 3000   0.178   3.901   1.598
  743SOL     OW 3001   4.451   4.012   1.464
  743SOL    HW2 3002   4.444   4.106   1.475
  743SOL    HW3 3003   4.524   3.986   1.519
  743SOL    MW4 3004   4.459   4.021   1.473
  744SOL     OW 3005   4.489   4.315   1.604
  744SOL    HW2 3006   4.485   4.291   1.697
  744SOL    HW3 3007   4.406   4.360   1.587
  744SOL    MW4 3008   4.478   4.318   1.614
  745SOL     OW 3009   0.246   4.435   1.523
  745SOL    HW2 3010   0.164   4.399   1.555
  745SOL    HW3 3011   0.252   4.522   1.563
  745SOL    MW4 3012   0.236   4.442   1.532
  746SOL     OW 3013   0.693   0.005   1.610
  746SOL    HW2 3014   0.770   0.037   1.563
  746SOL    HW3 3015   0.619   0.052   1.570
  746SOL    MW4 3016   0.693   0.015   1.599
  747SOL     OW 3017   0.500   0.142   1.463
  747SOL    HW2 3018   0.502   0.235   1.484
  747SOL    HW3 3019   0.481   0.139   1.369
  747SOL    MW4 3020   0.498   0.154   1.454
  748SOL     OW 3021   0.482   0.404   1.539
  748SOL    HW2 3022   0.544   0.475   1.522
  748SOL    HW3 3023   0.397   0.440   1.516
  748SOL    MW4 3024   0.479   0.418   1.534
  749SOL     OW 3025   0.697   0.552   1.475
  749SOL    HW2 3026   0.694   0.647   1.489
  749SOL    HW3 3027   0.678   0.541   1.382
  749SOL    MW4 3028   0.694   0.563   1.464
  750SOL     OW 3029   0.683   0.817   1.538
  750SOL    HW2 3030   0.696   0.830   1.632
  750SOL    HW3 3031   0.768   0.837   1.499
  750SOL    MW4 3032   0.696   0.822   1.545
  751SOL     OW 3033   0.445   0.906   1.458
  751SOL    HW2 3034   0.437   0.985   1.512
  751SOL    HW3 3035   0.526   0.865   1.487
  751SOL    MW4 3036   0.455   0.911   1.469
  752SOL     OW 3037   0.427   1.150   1.601
  752SOL    HW2 3038   0.501   1.200   1.566
  752SOL    HW3 3039   0.350   1.200   1.575
  752SOL    MW4 3040   0.427   1.163   1.593
  753SOL     OW 3041   0.651   1.276   1.481
  753SOL    HW2 3042   0.647   1.369   1.503
  753SOL    HW3 3043   0.659   1.274   1.386
  753SOL    MW4 3044   0.651   1.288   1.471
  754SOL     OW 3045   0.644   1.534   1.565
  754SOL    HW2 3046   0.724   1.584   1.546
  754SOL    HW3 3047   0.573   1.594   1.542
  754SOL    MW4 3048   0.645   1.549   1.559
  755SOL     OW 3049   0.429   1.696   1.487
  755SOL    HW2 3050   0.424   1.783   1.526
  755SOL    HW3 3051   0.354   1.648   1.522
  755SOL    MW4 3052   0.419   1.701   1.497
  756SOL     OW 3053   0.453   1.968   1.607
  756SOL    HW2 3054   0.449   1.957   1.702
  756SOL    HW3 3055   0.369   2.009   1.584
  756SOL    MW4 3056   0.441   1.972   1.616
  757SOL     OW 3057   0.685   2.059   1.470
  757SOL    HW2 3058   0.764   2.030   1.516
  757SOL    HW3 3059   0.613   2.021   1.521
  757SOL    MW4 3060   0.686   2.050   1.483
  758SOL     OW 3061   0.688   2.311   1.589
  758SOL    HW2 3062   0.602   2.351   1.578
  758SOL    HW3 3063   0.682   2.227   1.544
  758SOL    MW4 3064   0.676   2.305   1.582
  759SOL     OW 3065   0.423   2.441   1.510
  759SOL    HW2 3066   0.423   2.533   1.535
  759SOL    HW3 3067   0.343   2.406   1.549
  759SOL    MW4 3068   0.412   2.449   1.518
  760SOL     OW 3069   0.465   2.710   1.593
  760SOL    HW2 3070   0.467   2.724   1.687
  760SOL    HW3 3071   0.551   2.739   1.562
  760SOL    MW4 3072   0.477   2.716   1.601
  761SOL     OW 3073   0.685   2.839   1.518
  761SOL    HW2 3074   0.683   2.933   1.537
  761SOL    HW3 3075   0.701   2.835   1.423
  761SOL    MW4 3076   0.687   2.851   1.508
  762SOL     OW 3077   0.652   3.110   1.593
  762SOL    HW2 3078   0.717   3.170   1.557
  762SOL    HW3 3079   0.567   3.152   1.574
  762SOL    MW4 3080   0.649   3.124   1.586
  763SOL     OW 3081   0.403   3.241   1.565
  763SOL    HW2 3082   0.337   3.183   1.603
  763SOL    HW3 3083   0.395   3.229   1.471
  763SOL    MW4 3084   0.393   3.232   1.558
  764SOL     OW 3085   0.447   3.510   1.649
  764SOL    HW2 3086   0.450   3.416   1.629
  764SOL    HW3 3087   0.367   3.541   1.607
  764SOL    MW4 3088   0.437   3.502   1.641
  765SOL     OW 3089   0.661   3.641   1.526
  765SOL    HW2 3090   0.749   3.610   1.549
  765SOL    HW3 3091   0.603   3.582   1.574
  765SOL    MW4 3092   0.665   3.629   1.536
  766SOL     OW 3093   0.618   3.897   1.606
  766SOL    HW2 3094   0.695   3.947   1.581
  766SOL    HW3 3095   0.633   3.809   1.570
  766SOL    MW4 3096   0.630   3.892   1.598
  767SOL     OW 3097   0.406   4.012   1.478
  767SOL    HW2 3098   0.470   3.957   1.523
  767SOL    HW3 3099   0.433   4.010   1.386
  767SOL    MW4 3100   0.418   4.005   1.472
  768SOL     OW 3101   0.444   4.265   1.580
  768SOL    HW2 3102   0.427   4.183   1.535
  768SOL    HW3 3103   0.372   4.323   1.552
  768SOL    MW4 3104   0.432   4.262   1.571
  769SOL     OW 3105   0.652   4.415   1.506
  769SOL    HW2 3106   0.574   4.367   1.535
  769SOL    HW3 3107   0.661   4.487   1.570
  769SOL    MW4 3108   0.643   4.418   1.519
  770SOL     OW 3109   1.142   4.658   1.641
  770SOL    HW2 3110   1.154   4.646   1.736
  770SOL    HW3 3111   1.219   4.708   1.614
  770SOL    MW4 3112   1.154   4.663   1.650
  771SOL     OW 3113   0.925   0.109   1.499
  771SOL    HW2 3114   0.913   0.196   1.537
  771SOL    HW3 3115   1.002   0.075   1.543
  771SOL    MW4 3116   0.933   0.116   1.510
  772SOL     OW 3117   0.889   0.381   1.565
  772SOL    HW2 3118   0.873   0.373   1.660
  772SOL    HW3 3119   0.820   0.440   1.534
  772SOL    MW4 3120   0.877   0.387   1.574
  773SOL     OW 3121   1.136   0.505   1.484
  773SOL    HW2 3122   1.131   0.594   1.519
  773SOL    HW3 3123   1.063   0.458   1.527
  773SOL    MW4 3124   1.126   0.510   1.494
  774SOL     OW 3125   1.142   0.761   1.567
  774SOL    HW2 3126   1.119   0.746   1.659
  774SOL    HW3 3127   1.219   0.818   1.571
  774SOL    MW4 3128   1.149   0.766   1.580
  775SOL     OW 3129   0.914   0.903   1.430
  775SOL    HW2 3130   0.998   0.868   1.461
  775SOL    HW3 3131   0.919   0.896   1.335
  775SOL    MW4 3132   0.926   0.897   1.422
  776SOL     OW 3133   0.905   1.161   1.552
  776SOL    HW2 3134   0.908   1.072   1.515
  776SOL    HW3 3135   0.819   1.194   1.525
  776SOL    MW4 3136   0.894   1.153   1.543
  777SOL     OW 3137   1.151   1.263   1.459
  777SOL    HW2 3138   1.226   1.216   1.496
  777SOL    HW3 3139   1.075   1.222   1.500
  777SOL    MW4 3140   1.151   1.251   1.470
  778SOL     OW 3141   1.105   1.497   1.600
  778SOL    HW2 3142   1.178   1.549   1.568
  778SOL    HW3 3143   1.114   1.413   1.556
  778SOL    MW4 3144   1.115   1.493   1.590
  779SOL     OW 3145   0.899   1.661   1.472
  779SOL    HW2 3146   0.975   1.609   1.500
  779SOL    HW3 3147   0.909   1.669   1.377
  779SOL    MW4 3148   0.910   1.655   1.463
  780SOL     OW 3149   0.916   1.918   1.605
  780SOL    HW2 3150   0.999   1.949   1.569
  780SOL    HW3 3151   0.906   1.830   1.568
  780SOL    MW4 3152   0.925   1.910   1.595
  781SOL     OW 3153   1.162   2.053   1.488
  781SOL    HW2 3154   1.249   2.034   1.523
  781SOL    HW3 3155   1.148   2.145   1.510
  781SOL    MW4 3156   1.172   2.063   1.496
  782SOL     OW 3157   1.132   2.308   1.608
  782SOL    HW2 3158   1.217   2.345   1.581
  782SOL    HW3 3159   1.068   2.373   1.580
  782SOL    MW4 3160   1.135   2.321   1.601
  783SOL     OW 3161   0.924   2.459   1.519
  783SOL    HW2 3162   0.922   2.547   1.556
  783SOL    HW3 3163   0.852   2.414   1.561
  783SOL    MW4 3164   0.914   2.465   1.529
  784SOL     OW 3165   0.905   2.734   1.629
  784SOL    HW2 3166   0.904   2.741   1.725
  784SOL    HW3 3167   0.823   2.776   1.602
  784SOL    MW4 3168   0.894   2.740   1.638
  785SOL     OW 3169   1.130   2.856   1.526
  785SOL    HW2 3170   1.123   2.951   1.531
  785SOL    HW3 3171   1.045   2.824   1.557
  785SOL    MW4 3172   1.118   2.864   1.531
  786SOL     OW 3173   1.104   3.134   1.585
  786SOL    HW2 3174   1.108   3.132   1.681
  786SOL    HW3 3175   1.178   3.189   1.559
  786SOL    MW4 3176   1.114   3.141   1.595
  787SOL     OW 3177   0.874   3.248   1.489
  787SOL    HW2 3178   0.956   3.216   1.526
  787SOL    HW3 3179   0.881   3.231   1.395
  787SOL    MW4 3180   0.886   3.242   1.481
  788SOL     OW 3181   0.894   3.495   1.655
  788SOL    HW2 3182   0.958   3.535   1.595
  788SOL    HW3 3183   0.874   3.410   1.615
  788SOL    MW4 3184   0.900   3.489   1.642
  789SOL     OW 3185   1.091   3.581   1.482
  789SOL    HW2 3186   1.169   3.544   1.522
  789SOL    HW3 3187   1.119   3.605   1.394
  789SOL    MW4 3188   1.105   3.579   1.476
  790SOL     OW 3189   1.106   3.850   1.543
  790SOL    HW2 3190   1.194   3.880   1.521
  790SOL    HW3 3191   1.108   3.755   1.529
  790SOL    MW4 3192   1.118   3.841   1.538
  791SOL     OW 3193   0.865   4.007   1.514
  791SOL    HW2 3194   0.884   4.099   1.534
  791SOL    HW3 3195   0.947   3.961   1.531
  791SOL    MW4 3196   0.878   4.013   1.519
  792SOL     OW 3197   0.867   4.288   1.614
  792SOL    HW2 3198   0.854   4.292   1.709
  792SOL    HW3 3199   0.794   4.338   1.578
  792SOL    MW4 3200   0.855   4.295   1.622
  793SOL     OW 3201   1.093   4.408   1.491
  793SOL    HW2 3202   1.011   4.382   1.533
  793SOL    HW3 3203   1.109   4.497   1.521
  793SOL    MW4 3204   1.085   4.416   1.500
  794SOL     OW 3205   1.547   4.629   1.624
  794SOL    HW2 3206   1.547   4.654   1.717
  794SOL    HW3 3207   1.485   4.689   1.583
  794SOL    MW4 3208   1.539   4.640   1.631
  795SOL     OW 3209   1.362   0.120   1.535
  795SOL    HW2 3210   1.361   0.214   1.552
  795SOL    HW3 3211   1.369   0.113   1.440
  795SOL    MW4 3212   1.363   0.132   1.525
  796SOL     OW 3213   1.347   0.394   1.628
  796SOL    HW2 3214   1.423   0.434   1.586
  796SOL    HW3 3215   1.272   0.430   1.580
  796SOL    MW4 3216   1.347   0.404   1.616
  797SOL     OW 3217   1.571   0.517   1.518
  797SOL    HW2 3218   1.638   0.456   1.548
  797SOL    HW3 3219   1.553   0.491   1.427
  797SOL    MW4 3220   1.578   0.506   1.510
  798SOL     OW 3221   1.599   0.781   1.614
  798SOL    HW2 3222   1.566   0.771   1.704
  798SOL    HW3 3223   1.583   0.696   1.573
  798SOL    MW4 3224   1.592   0.769   1.621
  799SOL     OW 3225   1.373   0.907   1.518
  799SOL    HW2 3226   1.460   0.872   1.540
  799SOL    HW3 3227   1.368   0.901   1.423
  799SOL    MW4 3228   1.384   0.902   1.508
  800SOL     OW 3229   1.359   1.153   1.643
  800SOL    HW2 3230   1.382   1.146   1.736
  800SOL    HW3 3231   1.369   1.064   1.609
  800SOL    MW4 3232   1.363   1.140   1.651
  801SOL     OW 3233   1.578   1.292   1.519
  801SOL    HW2 3234   1.496   1.261   1.556
  801SOL    HW3 3235   1.564   1.293   1.424
  801SOL    MW4 3236   1.565   1.288   1.511
  802SOL     OW 3237   1.545   1.558   1.615
  802SOL    HW2 3238   1.557   1.557   1.710
  802SOL    HW3 3239   1.554   1.467   1.589
  802SOL    MW4 3240   1.547   1.546   1.624
  803SOL     OW 3241   1.315   1.647   1.500
  803SOL    HW2 3242   1.397   1.612   1.533
  803SOL    HW3 3243   1.322   1.638   1.405
  803SOL    MW4 3244   1.327   1.641   1.492
  804SOL     OW 3245   1.368   1.916   1.609
  804SOL    HW2 3246   1.336   1.912   1.699
  804SOL    HW3 3247   1.342   1.832   1.571
  804SOL    MW4 3248   1.361   1.904   1.615
  805SOL     OW 3249   1.586   2.062   1.506
  805SOL    HW2 3250   1.511   2.005   1.524
  805SOL    HW3 3251   1.591   2.064   1.410
  805SOL    MW4 3252   1.577   2.055   1.496
  806SOL     OW 3253   1.579   2.311   1.614
  806SOL    HW2 3254   1.659   2.350   1.581
  806SOL    HW3 3255   1.575   2.225   1.573
  806SOL    MW4 3256   1.589   2.305   1.604
  807SOL     OW 3257   1.348   2.466   1.512
  807SOL    HW2 3258   1.354   2.555   1.545
  807SOL    HW3 3259   1.429   2.424   1.541
  807SOL    MW4 3260   1.359   2.472   1.520
  808SOL     OW 3261   1.362   2.713   1.602
  808SOL    HW2 3262   1.433   2.769   1.570
  808SOL    HW3 3263   1.283   2.763   1.584
  808SOL    MW4 3264   1.361   2.727   1.595
  809SOL     OW 3265   1.581   2.857   1.508
  809SOL    HW2 3266   1.651   2.802   1.544
  809SOL    HW3 3267   1.591   2.850   1.413
  809SOL    MW4 3268   1.592   2.849   1.500
  810SOL     OW 3269   1.554   3.109   1.611
  810SOL    HW2 3270   1.635   3.148   1.578
  810SOL    HW3 3271   1.555   3.019   1.579
  810SOL    MW4 3272   1.565   3.102   1.603
  811SOL     OW 3273   1.333   3.235   1.484
  811SOL    HW2 3274   1.333   3.324   1.519
  811SOL    HW3 3275   1.410   3.194   1.523
  811SOL    MW4 3276   1.343   3.242   1.494
  812SOL     OW 3277   1.340   3.499   1.577
  812SOL    HW2 3278   1.348   3.475   1.669
  812SOL    HW3 3279   1.424   3.541   1.557
  812SOL    MW4 3280   1.352   3.502   1.587
  813SOL     OW 3281   1.570   3.622   1.537
  813SOL    HW2 3282   1.563   3.714   1.561
  813SOL    HW3 3283   1.585   3.623   1.443
  813SOL    MW4 3284   1.571   3.634   1.528
  814SOL     OW 3285   1.566   3.878   1.593
  814SOL    HW2 3286   1.566   3.885   1.688
  814SOL    HW3 3287   1.484   3.920   1.565
  814SOL    MW4 3288   1.555   3.885   1.602
  815SOL     OW 3289   1.343   3.991   1.492
  815SOL    HW2 3290   1.331   4.081   1.520
  815SOL    HW3 3291   1.363   3.997   1.399
  815SOL    MW4 3292   1.344   4.004   1.483
  816SOL     OW 3293   1.318   4.256   1.598
  816SOL    HW2 3294   1.387   4.316   1.571
  816SOL    HW3 3295   1.237   4.295   1.564
  816SOL    MW4 3296   1.316   4.269   1.590
  817SOL     OW 3297   1.517   4.399   1.474
  817SOL    HW2 3298   1.596   4.354   1.503
  817SOL    HW3 3299   1.514   4.479   1.526
  817SOL    MW4 3300   1.527   4.403   1.485
  818SOL     OW 3301   1.997   0.029   1.584
  818SOL    HW2 3302   2.013   0.029   1.679
  818SOL    HW3 3303   1.901   0.035   1.577
  818SOL    MW4 3304   1.986   0.030   1.596
  819SOL     OW 3305   1.743   0.111   1.512
  819SOL    HW2 3306   1.673   0.051   1.537
  819SOL    HW3 3307   1.755   0.097   1.418
  819SOL    MW4 3308   1.735   0.101   1.503
  820SOL     OW 3309   1.754   0.357   1.636
  820SOL    HW2 3310   1.843   0.385   1.613
  820SOL    HW3 3311   1.746   0.269   1.599
  820SOL    MW4 3312   1.764   0.349   1.628
  821SOL     OW 3313   1.988   0.441   1.531
  821SOL    HW2 3314   2.078   0.418   1.552
  821SOL    HW3 3315   1.981   0.534   1.554
  821SOL    MW4 3316   1.999   0.450   1.537
  822SOL     OW 3317   1.983   0.729   1.569
  822SOL    HW2 3318   2.074   0.757   1.565
  822SOL    HW3 3319   1.933   0.804   1.539
  822SOL    MW4 3320   1.988   0.742   1.565
  823SOL     OW 3321   1.809   0.916   1.498
  823SOL    HW2 3322   1.815   0.994   1.553
  823SOL    HW3 3323   1.747   0.860   1.543
  823SOL    MW4 3324   1.802   0.919   1.511
  824SOL     OW 3325   1.796   1.168   1.644
  824SOL    HW2 3326   1.878   1.217   1.631
  824SOL    HW3 3327   1.732   1.214   1.589
  824SOL    MW4 3328   1.798   1.181   1.635
  825SOL     OW 3329   2.028   1.313   1.535
  825SOL    HW2 3330   2.043   1.397   1.578
  825SOL    HW3 3331   2.035   1.332   1.442
  825SOL    MW4 3332   2.031   1.326   1.529
  826SOL     OW 3333   2.024   1.557   1.658
  826SOL    HW2 3334   2.099   1.602   1.620
  826SOL    HW3 3335   1.948   1.599   1.618
  826SOL    MW4 3336   2.024   1.569   1.648
  827SOL     OW 3337   1.795   1.676   1.562
  827SOL    HW2 3338   1.711   1.635   1.584
  827SOL    HW3 3339   1.789   1.696   1.469
  827SOL    MW4 3340   1.783   1.673   1.553
  828SOL     OW 3341   1.794   1.937   1.633
  828SOL    HW2 3342   1.790   1.842   1.615
  828SOL    HW3 3343   1.719   1.973   1.586
  828SOL    MW4 3344   1.783   1.929   1.624
  829SOL     OW 3345   2.008   2.067   1.519
  829SOL    HW2 3346   2.086   2.014   1.536
  829SOL    HW3 3347   1.937   2.018   1.561
  829SOL    MW4 3348   2.009   2.054   1.527
  830SOL     OW 3349   1.980   2.331   1.603
  830SOL    HW2 3350   1.971   2.324   1.698
  830SOL    HW3 3351   1.988   2.241   1.573
  830SOL    MW4 3352   1.980   2.318   1.612
  831SOL     OW 3353   1.777   2.455   1.467
  831SOL    HW2 3354   1.859   2.413   1.494
  831SOL    HW3 3355   1.777   2.450   1.372
  831SOL    MW4 3356   1.788   2.449   1.458
  832SOL     OW 3357   1.793   2.718   1.602
  832SOL    HW2 3358   1.872   2.768   1.583
  832SOL    HW3 3359   1.800   2.640   1.548
  832SOL    MW4 3360   1.805   2.714   1.593
  833SOL     OW 3361   2.030   2.860   1.501
  833SOL    HW2 3362   2.008   2.944   1.543
  833SOL    HW3 3363   2.041   2.882   1.409
  833SOL    MW4 3364   2.028   2.874   1.494
  834SOL     OW 3365   1.961   3.103   1.640
  834SOL    HW2 3366   1.979   3.085   1.732
  834SOL    HW3 3367   2.046   3.129   1.604
  834SOL    MW4 3368   1.975   3.104   1.648
  835SOL     OW 3369   1.771   3.264   1.516
  835SOL    HW2 3370   1.765   3.352   1.552
  835SOL    HW3 3371   1.841   3.222   1.565
  835SOL    MW4 3372   1.780   3.270   1.527
  836SOL     OW 3373   1.804   3.497   1.637
  836SOL    HW2 3374   1.788   3.492   1.731
  836SOL    HW3 3375   1.731   3.549   1.603
  836SOL    MW4 3376   1.792   3.503   1.645
  837SOL     OW 3377   2.043   3.634   1.523
  837SOL    HW2 3378   2.116   3.577   1.549
  837SOL    HW3 3379   1.966   3.593   1.563
  837SOL    MW4 3380   2.042   3.621   1.532
  838SOL     OW 3381   2.021   3.866   1.652
  838SOL    HW2 3382   2.105   3.908   1.631
  838SOL    HW3 3383   2.026   3.780   1.610
  838SOL    MW4 3384   2.033   3.860   1.643
  839SOL     OW 3385   1.815   3.986   1.518
  839SOL    HW2 3386   1.882   3.936   1.565
  839SOL    HW3 3387   1.733   3.943   1.542
  839SOL    MW4 3388   1.813   3.974   1.528
  840SOL     OW 3389   1.757   4.276   1.581
  840SOL    HW2 3390   1.828   4.332   1.549
  840SOL    HW3 3391   1.774   4.190   1.543
  840SOL    MW4 3392   1.769   4.272   1.572
  841SOL     OW 3393   1.981   4.429   1.498
  841SOL    HW2 3394   2.038   4.367   1.543
  841SOL    HW3 3395   2.013   4.515   1.525
  841SOL    MW4 3396   1.993   4.432   1.508
  842SOL     OW 3397   2.478   4.622   1.598
  842SOL    HW2 3398   2.467   4.621   1.693
  842SOL    HW3 3399   2.410   4.681   1.566
  842SOL    MW4 3400   2.468   4.630   1.606
  843SOL     OW 3401   2.256   0.122   1.516
  843SOL    HW2 3402   2.169   0.104   1.551
  843SOL    HW3 3403   2.245   0.115   1.421
  843SOL    MW4 3404   2.243   0.119   1.508
  844SOL     OW 3405   2.265   0.400   1.585
  844SOL    HW2 3406   2.249   0.385   1.678
  844SOL    HW3 3407   2.273   0.312   1.548
  844SOL    MW4 3408   2.264   0.386   1.592
  845SOL     OW 3409   2.519   0.503   1.513
  845SOL    HW2 3410   2.586   0.449   1.555
  845SOL    HW3 3411   2.436   0.463   1.537
  845SOL    MW4 3412   2.517   0.491   1.522
  846SOL     OW 3413   2.476   0.762   1.611
  846SOL    HW2 3414   2.386   0.796   1.610
  846SOL    HW3 3415   2.470   0.676   1.569
  846SOL    MW4 3416   2.463   0.755   1.606
  847SOL     OW 3417   2.229   0.849   1.548
  847SOL    HW2 3418   2.216   0.933   1.592
  847SOL    HW3 3419   2.249   0.873   1.457
  847SOL    MW4 3420   2.230   0.863   1.542
  848SOL     OW 3421   2.222   1.127   1.621
  848SOL    HW2 3422   2.205   1.136   1.715
  848SOL    HW3 3423   2.152   1.178   1.580
  848SOL    MW4 3424   2.211   1.135   1.628
  849SOL     OW 3425   2.451   1.265   1.532
  849SOL    HW2 3426   2.374   1.214   1.557
  849SOL    HW3 3427   2.459   1.254   1.438
  849SOL    MW4 3428   2.442   1.257   1.523
  850SOL     OW 3429   2.449   1.559   1.589
  850SOL    HW2 3430   2.529   1.599   1.555
  850SOL    HW3 3431   2.458   1.466   1.568
  850SOL    MW4 3432   2.460   1.552   1.582
  851SOL     OW 3433   2.228   1.673   1.526
  851SOL    HW2 3434   2.313   1.638   1.550
  851SOL    HW3 3435   2.222   1.660   1.431
  851SOL    MW4 3436   2.238   1.667   1.516
  852SOL     OW 3437   2.251   1.936   1.593
  852SOL    HW2 3438   2.247   1.940   1.689
  852SOL    HW3 3439   2.253   1.843   1.573
  852SOL    MW4 3440   2.251   1.924   1.603
  853SOL     OW 3441   2.473   2.090   1.518
  853SOL    HW2 3442   2.387   2.052   1.537
  853SOL    HW3 3443   2.478   2.091   1.422
  853SOL    MW4 3444   2.462   2.085   1.508
  854SOL     OW 3445   2.450   2.348   1.637
  854SOL    HW2 3446   2.447   2.342   1.733
  854SOL    HW3 3447   2.459   2.257   1.608
  854SOL    MW4 3448   2.451   2.335   1.646
  855SOL     OW 3449   2.221   2.455   1.515
  855SOL    HW2 3450   2.294   2.405   1.551
  855SOL    HW3 3451   2.145   2.424   1.563
  855SOL    MW4 3452   2.221   2.445   1.526
  856SOL     OW 3453   2.215   2.707   1.640
  856SOL    HW2 3454   2.221   2.628   1.587
  856SOL    HW3 3455   2.142   2.756   1.602
  856SOL    MW4 3456   2.206   2.703   1.628
  857SOL     OW 3457   2.426   2.835   1.525
  857SOL    HW2 3458   2.420   2.928   1.548
  857SOL    HW3 3459   2.348   2.795   1.563
  857SOL    MW4 3460   2.415   2.842   1.533
  858SOL     OW 3461   2.401   3.084   1.626
  858SOL    HW2 3462   2.469   3.133   1.581
  858SOL    HW3 3463   2.319   3.120   1.593
  858SOL    MW4 3464   2.399   3.095   1.616
  859SOL     OW 3465   2.176   3.216   1.519
  859SOL    HW2 3466   2.201   3.296   1.565
  859SOL    HW3 3467   2.204   3.230   1.429
  859SOL    MW4 3468   2.183   3.228   1.513
  860SOL     OW 3469   2.241   3.478   1.633
  860SOL    HW2 3470   2.231   3.501   1.725
  860SOL    HW3 3471   2.325   3.516   1.607
  860SOL    MW4 3472   2.251   3.486   1.642
  861SOL     OW 3473   2.457   3.617   1.517
  861SOL    HW2 3474   2.531   3.560   1.540
  861SOL    HW3 3475   2.467   3.693   1.574
  861SOL    MW4 3476   2.468   3.619   1.528
  862SOL     OW 3477   2.532   3.872   1.619
  862SOL    HW2 3478   2.539   3.880   1.714
  862SOL    HW3 3479   2.610   3.917   1.585
  862SOL    MW4 3480   2.543   3.879   1.627
  863SOL     OW 3481   2.251   3.992   1.581
  863SOL    HW2 3482   2.333   3.946   1.597
  863SOL    HW3 3483   2.242   3.994   1.486
  863SOL    MW4 3484   2.260   3.987   1.571
  864SOL     OW 3485   2.184   4.275   1.613
  864SOL    HW2 3486   2.259   4.328   1.588
  864SOL    HW3 3487   2.208   4.186   1.588
  864SOL    MW4 3488   2.197   4.270   1.606
  865SOL     OW 3489   2.435   4.364   1.481
  865SOL    HW2 3490   2.460   4.453   1.505
  865SOL    HW3 3491   2.460   4.356   1.389
  865SOL    MW4 3492   2.441   4.375   1.472
  866SOL     OW 3493   2.904   4.631   1.626
  866SOL    HW2 3494   2.887   4.626   1.720
  866SOL    HW3 3495   2.842   4.696   1.594
  866SOL    MW4 3496   2.894   4.639   1.634
  867SOL     OW 3497   2.700   0.111   1.524
  867SOL    HW2 3498   2.703   0.193   1.573
  867SOL    HW3 3499   2.623   0.065   1.558
  867SOL    MW4 3500   2.690   0.116   1.535
  868SOL     OW 3501   2.703   0.350   1.660
  868SOL    HW2 3502   2.693   0.351   1.755
  868SOL    HW3 3503   2.774   0.412   1.642
  868SOL    MW4 3504   2.711   0.358   1.670
  869SOL     OW 3505   2.908   0.498   1.527
  869SOL    HW2 3506   2.937   0.587   1.548
  869SOL    HW3 3507   2.918   0.491   1.432
  869SOL    MW4 3508   2.913   0.509   1.517
  870SOL     OW 3509   2.931   0.776   1.597
  870SOL    HW2 3510   2.912   0.775   1.691
  870SOL    HW3 3511   2.850   0.809   1.556
  870SOL    MW4 3512   2.917   0.780   1.604
  871SOL     OW 3513   2.696   0.911   1.504
  871SOL    HW2 3514   2.612   0.887   1.541
  871SOL    HW3 3515   2.685   0.902   1.409
  871SOL    MW4 3516   2.684   0.907   1.496
  872SOL     OW 3517   2.709   1.165   1.619
  872SOL    HW2 3518   2.720   1.082   1.573
  872SOL    HW3 3519   2.623   1.197   1.590
  872SOL    MW4 3520   2.699   1.158   1.609
  873SOL     OW 3521   2.930   1.291   1.489
  873SOL    HW2 3522   3.006   1.237   1.514
  873SOL    HW3 3523   2.856   1.250   1.533
  873SOL    MW4 3524   2.931   1.279   1.498
  874SOL     OW 3525   2.940   1.565   1.598
  874SOL    HW2 3526   2.856   1.599   1.569
  874SOL    HW3 3527   2.939   1.473   1.573
  874SOL    MW4 3528   2.929   1.557   1.591
  875SOL     OW 3529   2.686   1.672   1.501
  875SOL    HW2 3530   2.704   1.760   1.532
  875SOL    HW3 3531   2.683   1.680   1.405
  875SOL    MW4 3532   2.688   1.684   1.492
  876SOL     OW 3533   2.691   1.935   1.600
  876SOL    HW2 3534   2.679   1.919   1.694
  876SOL    HW3 3535   2.612   1.983   1.574
  876SOL    MW4 3536   2.679   1.939   1.609
  877SOL     OW 3537   2.918   2.046   1.461
  877SOL    HW2 3538   2.918   2.135   1.497
  877SOL    HW3 3539   2.838   2.006   1.495
  877SOL    MW4 3540   2.908   2.053   1.470
  878SOL     OW 3541   2.911   2.291   1.606
  878SOL    HW2 3542   2.901   2.302   1.701
  878SOL    HW3 3543   2.826   2.315   1.570
  878SOL    MW4 3544   2.898   2.296   1.614
  879SOL     OW 3545   2.666   2.459   1.512
  879SOL    HW2 3546   2.672   2.550   1.541
  879SOL    HW3 3547   2.592   2.423   1.560
  879SOL    MW4 3548   2.657   2.466   1.522
  880SOL     OW 3549   2.670   2.722   1.619
  880SOL    HW2 3550   2.734   2.783   1.582
  880SOL    HW3 3551   2.585   2.761   1.600
  880SOL    MW4 3552   2.667   2.735   1.611
  881SOL     OW 3553   2.894   2.855   1.498
  881SOL    HW2 3554   2.966   2.792   1.506
  881SOL    HW3 3555   2.925   2.934   1.542
  881SOL    MW4 3556   2.908   2.857   1.504
  882SOL     OW 3557   2.908   3.115   1.606
  882SOL    HW2 3558   2.916   3.107   1.701
  882SOL    HW3 3559   2.982   3.170   1.581
  882SOL    MW4 3560   2.919   3.122   1.615
  883SOL     OW 3561   2.648   3.193   1.529
  883SOL    HW2 3562   2.730   3.154   1.560
  883SOL    HW3 3563   2.666   3.216   1.437
  883SOL    MW4 3564   2.661   3.191   1.521
  884SOL     OW 3565   2.677   3.460   1.599
  884SOL    HW2 3566   2.677   3.466   1.695
  884SOL    HW3 3567   2.673   3.366   1.581
  884SOL    MW4 3568   2.677   3.449   1.609
  885SOL     OW 3569   2.905   3.609   1.533
  885SOL    HW2 3570   2.821   3.569   1.557
  885SOL    HW3 3571   2.899   3.623   1.438
  885SOL    MW4 3572   2.893   3.605   1.524
  886SOL     OW 3573   2.926   3.863   1.647
  886SOL    HW2 3574   2.858   3.905   1.594
  886SOL    HW3 3575   2.934   3.776   1.610
  886SOL    MW4 3576   2.918   3.857   1.635
  887SOL     OW 3577   2.741   3.997   1.502
  887SOL    HW2 3578   2.705   4.080   1.531
  887SOL    HW3 3579   2.735   3.999   1.407
  887SOL    MW4 3580   2.736   4.008   1.493
  888SOL     OW 3581   2.668   4.250   1.606
  888SOL    HW2 3582   2.735   4.299   1.558
  888SOL    HW3 3583   2.585   4.288   1.578
  888SOL    MW4 3584   2.666   4.261   1.596
  889SOL     OW 3585   2.885   4.387   1.503
  889SOL    HW2 3586   2.900   4.473   1.542
  889SOL    HW3 3587   2.884   4.404   1.409
  889SOL    MW4 3588   2.887   4.401   1.496
  890SOL     OW 3589   3.368   0.005   1.629
  890SOL    HW2 3590   3.445   0.034   1.579
  890SOL    HW3 3591   3.353  -0.085   1.600
  890SOL    MW4 3592   3.376  -0.003   1.618
  891SOL     OW 3593   3.131   0.090   1.530
  891SOL    HW2 3594   3.211   0.061   1.574
  891SOL    HW3 3595   3.061   0.037   1.569
  891SOL    MW4 3596   3.132   0.079   1.541
  892SOL     OW 3597   3.115   0.357   1.641
  892SOL    HW2 3598   3.115   0.264   1.617
  892SOL    HW3 3599   3.040   0.394   1.594
  892SOL    MW4 3600   3.105   0.350   1.631
  893SOL     OW 3601   3.339   0.486   1.546
  893SOL    HW2 3602   3.266   0.433   1.577
  893SOL    HW3 3603   3.334   0.480   1.450
  893SOL    MW4 3604   3.328   0.479   1.537
  894SOL     OW 3605   3.381   0.761   1.612
  894SOL    HW2 3606   3.375   0.756   1.708
  894SOL    HW3 3607   3.379   0.670   1.584
  894SOL    MW4 3608   3.380   0.748   1.621
  895SOL     OW 3609   3.156   0.893   1.498
  895SOL    HW2 3610   3.224   0.856   1.555
  895SOL    HW3 3611   3.073   0.864   1.537
  895SOL    MW4 3612   3.154   0.884   1.510
  896SOL     OW 3613   3.153   1.148   1.591
  896SOL    HW2 3614   3.171   1.125   1.682
  896SOL    HW3 3615   3.165   1.067   1.542
  896SOL    MW4 3616   3.157   1.134   1.597
  897SOL     OW 3617   3.380   1.291   1.510
  897SOL    HW2 3618   3.452   1.261   1.565
  897SOL    HW3 3619   3.307   1.234   1.533
  897SOL    MW4 3620   3.380   1.280   1.520
  898SOL     OW 3621   3.379   1.533   1.654
  898SOL    HW2 3622   3.361   1.511   1.745
  898SOL    HW3 3623   3.357   1.453   1.605
  898SOL    MW4 3624   3.374   1.519   1.659
  899SOL     OW 3625   3.187   1.673   1.508
  899SOL    HW2 3626   3.255   1.626   1.557
  899SOL    HW3 3627   3.104   1.640   1.542
  899SOL    MW4 3628   3.185   1.663   1.519
  900SOL     OW 3629   3.120   1.925   1.603
  900SOL    HW2 3630   3.144   1.842   1.562
  900SOL    HW3 3631   3.050   1.960   1.548
  900SOL    MW4 3632   3.114   1.919   1.591
  901SOL     OW 3633   3.351   2.046   1.511
  901SOL    HW2 3634   3.264   2.017   1.536
  901SOL    HW3 3635   3.357   2.027   1.417
  901SOL    MW4 3636   3.341   2.040   1.502
  902SOL     OW 3637   3.339   2.315   1.603
  902SOL    HW2 3638   3.416   2.367   1.578
  902SOL    HW3 3639   3.355   2.230   1.562
  902SOL    MW4 3640   3.351   2.311   1.594
  903SOL     OW 3641   3.112   2.409   1.468
  903SOL    HW2 3642   3.193   2.390   1.517
  903SOL    HW3 3643   3.042   2.373   1.523
  903SOL    MW4 3644   3.114   2.402   1.482
  904SOL     OW 3645   3.100   2.683   1.544
  904SOL    HW2 3646   3.187   2.720   1.528
  904SOL    HW3 3647   3.106   2.593   1.513
  904SOL    MW4 3648   3.112   2.676   1.538
  905SOL     OW 3649   3.334   2.817   1.486
  905SOL    HW2 3650   3.332   2.909   1.511
  905SOL    HW3 3651   3.339   2.819   1.390
  905SOL    MW4 3652   3.334   2.830   1.476
  906SOL     OW 3653   3.352   3.067   1.595
  906SOL    HW2 3654   3.342   3.062   1.690
  906SOL    HW3 3655   3.428   3.124   1.582
  906SOL    MW4 3656   3.361   3.074   1.606
  907SOL     OW 3657   3.146   3.226   1.495
  907SOL    HW2 3658   3.221   3.186   1.539
  907SOL    HW3 3659   3.169   3.223   1.402
  907SOL    MW4 3660   3.159   3.221   1.488
  908SOL     OW 3661   3.152   3.490   1.599
  908SOL    HW2 3662   3.159   3.406   1.553
  908SOL    HW3 3663   3.060   3.513   1.593
  908SOL    MW4 3664   3.141   3.482   1.592
  909SOL     OW 3665   3.379   3.619   1.504
  909SOL    HW2 3666   3.456   3.575   1.538
  909SOL    HW3 3667   3.306   3.579   1.551
  909SOL    MW4 3668   3.379   3.608   1.515
  910SOL     OW 3669   3.359   3.888   1.592
  910SOL    HW2 3670   3.270   3.911   1.564
  910SOL    HW3 3671   3.377   3.804   1.551
  910SOL    MW4 3672   3.350   3.880   1.583
  911SOL     OW 3673   3.126   3.979   1.487
  911SOL    HW2 3674   3.126   4.071   1.515
  911SOL    HW3 3675   3.071   3.934   1.551
  911SOL    MW4 3676   3.119   3.985   1.499
  912SOL     OW 3677   3.134   4.250   1.565
  912SOL    HW2 3678   3.123   4.249   1.661
  912SOL    HW3 3679   3.048   4.278   1.532
  912SOL    MW4 3680   3.121   4.254   1.574
  913SOL     OW 3681   3.366   4.419   1.525
  913SOL    HW2 3682   3.293   4.361   1.547
  913SOL    HW3 3683   3.369   4.418   1.429
  913SOL    MW4 3684   3.356   4.411   1.515
  914SOL     OW 3685   3.817   0.024   1.588
  914SOL    HW2 3686   3.814   0.007   1.682
  914SOL    HW3 3687   3.907   0.052   1.572
  914SOL    MW4 3688   3.828   0.025   1.599
  915SOL     OW 3689   3.581   0.126   1.504
  915SOL    HW2 3690   3.669   0.093   1.520
  915SOL    HW3 3691   3.574   0.130   1.409
  915SOL    MW4 3692   3.592   0.123   1.494
  916SOL     OW 3693   3.591   0.384   1.588
  916SOL    HW2 3694   3.591   0.300   1.541
  916SOL    HW3 3695   3.507   0.424   1.565
  916SOL    MW4 3696   3.580   0.378   1.578
  917SOL     OW 3697   3.800   0.551   1.495
  917SOL    HW2 3698   3.729   0.495   1.524
  917SOL    HW3 3699   3.815   0.526   1.404
  917SOL    MW4 3700   3.793   0.540   1.487
  918SOL     OW 3701   3.831   0.778   1.652
  918SOL    HW2 3702   3.752   0.824   1.623
  918SOL    HW3 3703   3.823   0.691   1.614
  918SOL    MW4 3704   3.819   0.773   1.643
  919SOL     OW 3705   3.626   0.906   1.528
  919SOL    HW2 3706   3.543   0.862   1.547
  919SOL    HW3 3707   3.631   0.908   1.433
  919SOL    MW4 3708   3.616   0.900   1.518
  920SOL     OW 3709   3.584   1.164   1.657
  920SOL    HW2 3710   3.669   1.202   1.633
  920SOL    HW3 3711   3.579   1.082   1.608
  920SOL    MW4 3712   3.595   1.158   1.648
  921SOL     OW 3713   3.815   1.272   1.569
  921SOL    HW2 3714   3.900   1.237   1.596
  921SOL    HW3 3715   3.828   1.367   1.564
  921SOL    MW4 3716   3.828   1.280   1.572
  922SOL     OW 3717   3.838   1.548   1.613
  922SOL    HW2 3718   3.821   1.530   1.705
  922SOL    HW3 3719   3.758   1.589   1.581
  922SOL    MW4 3720   3.826   1.551   1.621
  923SOL     OW 3721   3.604   1.659   1.525
  923SOL    HW2 3722   3.536   1.610   1.572
  923SOL    HW3 3723   3.571   1.667   1.436
  923SOL    MW4 3724   3.591   1.653   1.520
  924SOL     OW 3725   3.573   1.937   1.656
  924SOL    HW2 3726   3.603   1.852   1.624
  924SOL    HW3 3727   3.491   1.952   1.609
  924SOL    MW4 3728   3.567   1.928   1.645
  925SOL     OW 3729   3.803   2.058   1.543
  925SOL    HW2 3730   3.809   2.152   1.558
  925SOL    HW3 3731   3.735   2.028   1.603
  925SOL    MW4 3732   3.795   2.066   1.553
  926SOL     OW 3733   3.801   2.319   1.597
  926SOL    HW2 3734   3.801   2.316   1.692
  926SOL    HW3 3735   3.883   2.365   1.575
  926SOL    MW4 3736   3.812   2.325   1.606
  927SOL     OW 3737   3.552   2.460   1.497
  927SOL    HW2 3738   3.568   2.551   1.522
  927SOL    HW3 3739   3.624   2.411   1.537
  927SOL    MW4 3740   3.563   2.465   1.506
  928SOL     OW 3741   3.582   2.709   1.587
  928SOL    HW2 3742   3.580   2.700   1.682
  928SOL    HW3 3743   3.498   2.749   1.564
  928SOL    MW4 3744   3.571   2.713   1.596
  929SOL     OW 3745   3.799   2.855   1.471
  929SOL    HW2 3746   3.876   2.831   1.522
  929SOL    HW3 3747   3.729   2.801   1.507
  929SOL    MW4 3748   3.800   2.845   1.482
  930SOL     OW 3749   3.802   3.116   1.609
  930SOL    HW2 3750   3.881   3.164   1.587
  930SOL    HW3 3751   3.803   3.040   1.550
  930SOL    MW4 3752   3.812   3.112   1.598
  931SOL     OW 3753   3.568   3.243   1.522
  931SOL    HW2 3754   3.650   3.208   1.558
  931SOL    HW3 3755   3.573   3.221   1.429
  931SOL    MW4 3756   3.580   3.235   1.515
  932SOL     OW 3757   3.626   3.518   1.609
  932SOL    HW2 3758   3.708   3.551   1.572
  932SOL    HW3 3759   3.624   3.426   1.584
  932SOL    MW4 3760   3.636   3.510   1.601
  933SOL     OW 3761   3.832   3.632   1.461
  933SOL    HW2 3762   3.903   3.583   1.503
  933SOL    HW3 3763   3.838   3.720   1.499
  933SOL    MW4 3764   3.842   3.637   1.472
  934SOL     OW 3765   3.820   3.875   1.601
  934SOL    HW2 3766   3.887   3.937   1.573
  934SOL    HW3 3767   3.739   3.925   1.601
  934SOL    MW4 3768   3.819   3.889   1.597
  935SOL     OW 3769   3.599   4.032   1.546
  935SOL    HW2 3770   3.587   4.106   1.605
  935SOL    HW3 3771   3.522   3.978   1.560
  935SOL    MW4 3772   3.587   4.034   1.556
  936SOL     OW 3773   3.598   4.305   1.658
  936SOL    HW2 3774   3.598   4.303   1.754
  936SOL    HW3 3775   3.509   4.331   1.635
  936SOL    MW4 3776   3.587   4.308   1.668
  937SOL     OW 3777   3.802   4.423   1.522
  937SOL    HW2 3778   3.728   4.383   1.567
  937SOL    HW3 3779   3.793   4.516   1.539
  937SOL    MW4 3780   3.791   4.430   1.531
  938SOL     OW 3781   4.285   0.021   1.615
  938SOL    HW2 3782   4.261   0.000   1.705
  938SOL    HW3 3783   4.274  -0.062   1.567
  938SOL    MW4 3784   4.280   0.007   1.620
  939SOL     OW 3785   4.049   0.137   1.523
  939SOL    HW2 3786   4.046   0.230   1.547
  939SOL    HW3 3787   4.123   0.102   1.573
  939SOL    MW4 3788   4.059   0.145   1.533
  940SOL     OW 3789   4.023   0.398   1.612
  940SOL    HW2 3790   4.018   0.390   1.707
  940SOL    HW3 3791   3.968   0.474   1.592
  940SOL    MW4 3792   4.015   0.407   1.622
  941SOL     OW 3793   4.246   0.513   1.510
  941SOL    HW2 3794   4.173   0.461   1.545
  941SOL    HW3 3795   4.324   0.471   1.546
  941SOL    MW4 3796   4.246   0.500   1.520
  942SOL     OW 3797   4.251   0.788   1.571
  942SOL    HW2 3798   4.245   0.695   1.552
  942SOL    HW3 3799   4.340   0.812   1.545
  942SOL    MW4 3800   4.262   0.779   1.565
  943SOL     OW 3801   4.027   0.908   1.517
  943SOL    HW2 3802   4.101   0.854   1.544
  943SOL    HW3 3803   3.951   0.869   1.560
  943SOL    MW4 3804   4.027   0.896   1.526
  944SOL     OW 3805   4.066   1.148   1.641
  944SOL    HW2 3806   4.063   1.144   1.736
  944SOL    HW3 3807   4.051   1.058   1.612
  944SOL    MW4 3808   4.064   1.136   1.649
  945SOL     OW 3809   4.262   1.269   1.486
  945SOL    HW2 3810   4.182   1.234   1.526
  945SOL    HW3 3811   4.330   1.207   1.510
  945SOL    MW4 3812   4.260   1.256   1.494
  946SOL     OW 3813   4.271   1.516   1.606
  946SOL    HW2 3814   4.271   1.427   1.571
  946SOL    HW3 3815   4.348   1.558   1.568
  946SOL    MW4 3816   4.281   1.510   1.596
  947SOL     OW 3817   4.082   1.703   1.525
  947SOL    HW2 3818   4.148   1.646   1.565
  947SOL    HW3 3819   4.000   1.677   1.567
  947SOL    MW4 3820   4.080   1.692   1.536
  948SOL     OW 3821   4.048   1.947   1.645
  948SOL    HW2 3822   4.051   1.859   1.607
  948SOL    HW3 3823   3.968   1.985   1.609
  948SOL    MW4 3824   4.038   1.940   1.635
  949SOL     OW 3825   4.237   2.099   1.507
  949SOL    HW2 3826   4.173   2.054   1.562
  949SOL    HW3 3827   4.223   2.063   1.420
  949SOL    MW4 3828   4.227   2.088   1.503
  950SOL     OW 3829   4.257   2.350   1.619
  950SOL    HW2 3830   4.252   2.328   1.712
  950SOL    HW3 3831   4.279   2.267   1.577
  950SOL    MW4 3832   4.259   2.336   1.626
  951SOL     OW 3833   4.022   2.473   1.539
  951SOL    HW2 3834   4.005   2.561   1.573
  951SOL    HW3 3835   4.106   2.448   1.578
  951SOL    MW4 3836   4.031   2.482   1.549
  952SOL     OW 3837   4.022   2.748   1.634
  952SOL    HW2 3838   4.042   2.729   1.726
  952SOL    HW3 3839   4.104   2.779   1.597
  952SOL    MW4 3840   4.035   2.750   1.641
  953SOL     OW 3841   4.282   2.836   1.536
  953SOL    HW2 3842   4.298   2.929   1.555
  953SOL    HW3 3843   4.274   2.832   1.441
  953SOL    MW4 3844   4.283   2.848   1.526
  954SOL     OW 3845   4.276   3.109   1.599
  954SOL    HW2 3846   4.285   3.120   1.693
  954SOL    HW3 3847   4.346   3.162   1.561
  954SOL    MW4 3848   4.287   3.117   1.606
  955SOL     OW 3849   4.016   3.245   1.518
  955SOL    HW2 3850   4.023   3.338   1.536
  955SOL    HW3 3851   4.101   3.209   1.544
  955SOL    MW4 3852   4.028   3.252   1.524
  956SOL     OW 3853   4.040   3.506   1.583
  956SOL    HW2 3854   4.057   3.516   1.677
  956SOL    HW3 3855   4.113   3.551   1.540
  956SOL    MW4 3856   4.052   3.513   1.590
  957SOL     OW 3857   4.276   3.638   1.516
  957SOL    HW2 3858   4.290   3.732   1.531
  957SOL    HW3 3859   4.274   3.629   1.421
  957SOL    MW4 3860   4.278   3.650   1.505
  958SOL     OW 3861   4.255   3.902   1.628
  958SOL    HW2 3862   4.179   3.955   1.604
  958SOL    HW3 3863   4.326   3.937   1.575
  958SOL    MW4 3864   4.254   3.914   1.618
  959SOL     OW 3865   4.027   4.032   1.514
  959SOL    HW2 3866   4.045   4.122   1.543
  959SOL    HW3 3867   4.054   4.030   1.423
  959SOL    MW4 3868   4.033   4.044   1.506
  960SOL     OW 3869   4.061   4.303   1.603
  960SOL    HW2 3870   4.058   4.291   1.698
  960SOL    HW3 3871   3.987   4.361   1.584
  960SOL    MW4 3872   4.051   4.309   1.613
  961SOL     OW 3873   4.271   4.445   1.508
  961SOL    HW2 3874   4.216   4.377   1.548
  961SOL    HW3 3875   4.274   4.423   1.415
  961SOL    MW4 3876   4.264   4.433   1.501
  962SOL     OW 3877   0.242   4.619   1.863
  962SOL    HW2 3878   0.305   4.674   1.909
  962SOL    HW3 3879   0.260   4.634   1.770
  962SOL    MW4 3880   0.253   4.628   1.856
  963SOL     OW 3881   0.006   0.094   1.961
  963SOL    HW2 3882   0.003   0.180   1.919
  963SOL    HW3 3883   0.084   0.052   1.925
  963SOL    MW4 3884   0.016   0.100   1.950
  964SOL     OW 3885   4.491   0.362   1.841
  964SOL    HW2 3886   4.409   0.397   1.877
  964SOL    HW3 3887   4.560   0.415   1.880
  964SOL    MW4 3888   4.489   0.373   1.851
  965SOL     OW 3889   0.238   0.473   1.937
  965SOL    HW2 3890   0.309   0.423   1.897
  965SOL    HW3 3891   0.230   0.551   1.882
  965SOL    MW4 3892   0.246   0.477   1.925
  966SOL     OW 3893   0.202   0.738   1.859
  966SOL    HW2 3894   0.273   0.789   1.897
  966SOL    HW3 3895   0.207   0.757   1.765
  966SOL    MW4 3896   0.212   0.747   1.851
  967SOL     OW 3897   4.485   0.873   1.986
  967SOL    HW2 3898   4.401   0.847   1.949
  967SOL    HW3 3899   4.550   0.820   1.940
  967SOL    MW4 3900   4.482   0.863   1.975
  968SOL     OW 3901   4.472   1.118   1.837
  968SOL    HW2 3902   4.404   1.173   1.878
  968SOL    HW3 3903   4.475   1.039   1.891
  968SOL    MW4 3904   4.463   1.115   1.849
  969SOL     OW 3905   0.190   1.256   1.963
  969SOL    HW2 3906   0.188   1.344   1.925
  969SOL    HW3 3907   0.114   1.212   1.926
  969SOL    MW4 3908   0.180   1.262   1.953
  970SOL     OW 3909   0.224   1.500   1.854
  970SOL    HW2 3910   0.306   1.540   1.883
  970SOL    HW3 3911   0.158   1.567   1.873
  970SOL    MW4 3912   0.226   1.514   1.861
  971SOL     OW 3913   0.008   1.666   1.985
  971SOL    HW2 3914   0.012   1.683   2.079
  971SOL    HW3 3915  -0.066   1.605   1.975
  971SOL    MW4 3916  -0.001   1.660   1.996
  972SOL     OW 3917   4.475   1.899   1.866
  972SOL    HW2 3918   4.398   1.935   1.909
  972SOL    HW3 3919   4.475   1.806   1.890
  972SOL    MW4 3920   4.465   1.892   1.875
  973SOL     OW 3921   0.197   2.063   1.978
  973SOL    HW2 3922   0.186   2.154   1.950
  973SOL    HW3 3923   0.126   2.016   1.935
  973SOL    MW4 3924   0.186   2.069   1.969
  974SOL     OW 3925   0.171   2.327   1.902
  974SOL    HW2 3926   0.247   2.380   1.928
  974SOL    HW3 3927   0.097   2.374   1.939
  974SOL    MW4 3928   0.172   2.341   1.910
  975SOL     OW 3929   4.427   2.439   2.013
  975SOL    HW2 3930   4.444   2.455   2.106
  975SOL    HW3 3931   4.436   2.526   1.972
  975SOL    MW4 3932   4.430   2.453   2.020
  976SOL     OW 3933   0.028   2.698   1.920
  976SOL    HW2 3934  -0.046   2.757   1.934
  976SOL    HW3 3935   0.042   2.698   1.826
  976SOL    MW4 3936   0.020   2.706   1.910
  977SOL     OW 3937   0.246   2.841   1.997
  977SOL    HW2 3938   0.214   2.930   1.979
  977SOL    HW3 3939   0.172   2.785   1.976
  977SOL    MW4 3940   0.232   2.845   1.992
  978SOL     OW 3941   0.184   3.099   1.943
  978SOL    HW2 3942   0.263   3.151   1.958
  978SOL    HW3 3943   0.180   3.090   1.848
  978SOL    MW4 3944   0.194   3.104   1.933
  979SOL     OW 3945   4.451   3.255   2.032
  979SOL    HW2 3946   4.380   3.213   1.983
  979SOL    HW3 3947   4.530   3.209   2.004
  979SOL    MW4 3948   4.452   3.243   2.021
  980SOL     OW 3949   4.467   3.486   1.903
  980SOL    HW2 3950   4.545   3.541   1.916
  980SOL    HW3 3951   4.481   3.411   1.961
  980SOL    MW4 3952   4.479   3.483   1.912
  981SOL     OW 3953   0.212   3.620   1.986
  981SOL    HW2 3954   0.217   3.654   2.075
  981SOL    HW3 3955   0.295   3.576   1.972
  981SOL    MW4 3956   0.224   3.619   1.996
  982SOL     OW 3957   0.203   3.866   1.861
  982SOL    HW2 3958   0.284   3.902   1.896
  982SOL    HW3 3959   0.198   3.778   1.900
  982SOL    MW4 3960   0.213   3.859   1.871
  983SOL     OW 3961   4.441   3.993   1.961
  983SOL    HW2 3962   4.444   4.081   1.923
  983SOL    HW3 3963   4.509   3.944   1.914
  983SOL    MW4 3964   4.451   3.998   1.950
  984SOL     OW 3965   4.451   4.254   1.874
  984SOL    HW2 3966   4.375   4.305   1.902
  984SOL    HW3 3967   4.525   4.296   1.917
  984SOL    MW4 3968   4.450   4.267   1.883
  985SOL     OW 3969   0.195   4.367   1.968
  985SOL    HW2 3970   0.199   4.381   2.062
  985SOL    HW3 3971   0.215   4.452   1.930
  985SOL    MW4 3972   0.198   4.380   1.975
  986SOL     OW 3973   0.651   4.645   1.875
  986SOL    HW2 3974   0.650   4.550   1.888
  986SOL    HW3 3975   0.667   4.656   1.781
  986SOL    MW4 3976   0.653   4.634   1.864
  987SOL     OW 3977   0.428   0.110   1.988
  987SOL    HW2 3978   0.430   0.201   1.959
  987SOL    HW3 3979   0.507   0.071   1.949
  987SOL    MW4 3980   0.439   0.117   1.979
  988SOL     OW 3981   0.461   0.365   1.826
  988SOL    HW2 3982   0.505   0.434   1.875
  988SOL    HW3 3983   0.483   0.383   1.734
  988SOL    MW4 3984   0.470   0.376   1.820
  989SOL     OW 3985   0.624   0.550   1.949
  989SOL    HW2 3986   0.616   0.524   2.041
  989SOL    HW3 3987   0.697   0.498   1.916
  989SOL    MW4 3988   0.632   0.540   1.957
  990SOL     OW 3989   0.673   0.808   1.827
  990SOL    HW2 3990   0.745   0.826   1.887
  990SOL    HW3 3991   0.643   0.720   1.851
  990SOL    MW4 3992   0.679   0.799   1.838
  991SOL     OW 3993   0.423   0.885   1.948
  991SOL    HW2 3994   0.420   0.972   1.908
  991SOL    HW3 3995   0.511   0.854   1.928
  991SOL    MW4 3996   0.435   0.893   1.940
  992SOL     OW 3997   0.431   1.155   1.866
  992SOL    HW2 3998   0.347   1.186   1.902
  992SOL    HW3 3999   0.420   1.160   1.771
  992SOL    MW4 4000   0.418   1.160   1.859
  993SOL     OW 4001   0.697   1.274   1.912
  993SOL    HW2 4002   0.715   1.288   2.005
  993SOL    HW3 4003   0.610   1.234   1.909
  993SOL    MW4 4004   0.688   1.271   1.924
  994SOL     OW 4005   0.672   1.545   1.843
  994SOL    HW2 4006   0.673   1.459   1.884
  994SOL    HW3 4007   0.653   1.529   1.751
  994SOL    MW4 4008   0.670   1.532   1.836
  995SOL     OW 4009   0.435   1.640   1.953
  995SOL    HW2 4010   0.453   1.653   2.046
  995SOL    HW3 4011   0.517   1.609   1.917
  995SOL    MW4 4012   0.448   1.637   1.961
  996SOL     OW 4013   0.418   1.921   1.892
  996SOL    HW2 4014   0.405   1.827   1.900
  996SOL    HW3 4015   0.336   1.959   1.923
  996SOL    MW4 4016   0.406   1.914   1.897
  997SOL     OW 4017   0.655   2.055   1.965
  997SOL    HW2 4018   0.656   2.083   2.057
  997SOL    HW3 4019   0.568   2.018   1.952
  997SOL    MW4 4020   0.644   2.054   1.976
  998SOL     OW 4021   0.664   2.322   1.861
  998SOL    HW2 4022   0.659   2.230   1.886
  998SOL    HW3 4023   0.707   2.321   1.775
  998SOL    MW4 4024   0.669   2.310   1.853
  999SOL     OW 4025   0.430   2.470   1.934
  999SOL    HW2 4026   0.443   2.478   2.029
  999SOL    HW3 4027   0.502   2.413   1.905
  999SOL    MW4 4028   0.441   2.464   1.943
 1000SOL     OW 4029   0.489   2.731   1.875
 1000SOL    HW2 4030   0.483   2.635   1.876
 1000SOL    HW3 4031   0.411   2.760   1.923
 1000SOL    MW4 4032   0.478   2.722   1.882
 1001SOL     OW 4033   0.721   2.834   1.996
 1001SOL    HW2 4034   0.706   2.834   2.090
 1001SOL    HW3 4035   0.637   2.807   1.958
 1001SOL    MW4 4036   0.708   2.830   2.003
 1002SOL     OW 4037   0.621   3.082   1.874
 1002SOL    HW2 4038   0.643   2.993   1.900
 1002SOL    HW3 4039   0.634   3.083   1.779
 1002SOL    MW4 4040   0.625   3.070   1.865
 1003SOL     OW 4041   0.409   3.230   2.023
 1003SOL    HW2 4042   0.424   3.324   2.011
 1003SOL    HW3 4043   0.482   3.188   1.978
 1003SOL    MW4 4044   0.420   3.237   2.015
 1004SOL     OW 4045   0.452   3.490   1.929
 1004SOL    HW2 4046   0.525   3.538   1.969
 1004SOL    HW3 4047   0.465   3.501   1.835
 1004SOL    MW4 4048   0.464   3.498   1.922
 1005SOL     OW 4049   0.667   3.641   2.022
 1005SOL    HW2 4050   0.744   3.589   2.000
 1005SOL    HW3 4051   0.674   3.719   1.967
 1005SOL    MW4 4052   0.678   3.644   2.012
 1006SOL     OW 4053   0.662   3.876   1.874
 1006SOL    HW2 4054   0.734   3.938   1.883
 1006SOL    HW3 4055   0.630   3.889   1.785
 1006SOL    MW4 4056   0.667   3.886   1.863
 1007SOL     OW 4057   0.429   3.984   2.004
 1007SOL    HW2 4058   0.422   4.071   1.964
 1007SOL    HW3 4059   0.512   3.949   1.971
 1007SOL    MW4 4060   0.439   3.991   1.994
 1008SOL     OW 4061   0.433   4.219   1.857
 1008SOL    HW2 4062   0.355   4.261   1.892
 1008SOL    HW3 4063   0.428   4.233   1.763
 1008SOL    MW4 4064   0.422   4.226   1.849
 1009SOL     OW 4065   0.637   4.373   1.980
 1009SOL    HW2 4066   0.728   4.348   1.963
 1009SOL    HW3 4067   0.586   4.295   1.957
 1009SOL    MW4 4068   0.642   4.359   1.974
 1010SOL     OW 4069   1.101   0.001   1.931
 1010SOL    HW2 4070   1.182   0.050   1.943
 1010SOL    HW3 4071   1.119  -0.086   1.966
 1010SOL    MW4 4072   1.114  -0.004   1.937
 1011SOL     OW 4073   0.870   0.136   1.997
 1011SOL    HW2 4074   0.955   0.106   1.965
 1011SOL    HW3 4075   0.807   0.076   1.957
 1011SOL    MW4 4076   0.873   0.124   1.987
 1012SOL     OW 4077   0.846   0.385   1.856
 1012SOL    HW2 4078   0.911   0.439   1.901
 1012SOL    HW3 4079   0.838   0.307   1.911
 1012SOL    MW4 4080   0.853   0.382   1.869
 1013SOL     OW 4081   1.068   0.479   2.004
 1013SOL    HW2 4082   1.151   0.446   1.970
 1013SOL    HW3 4083   1.065   0.570   1.976
 1013SOL    MW4 4084   1.079   0.487   1.996
 1014SOL     OW 4085   1.105   0.725   1.854
 1014SOL    HW2 4086   1.185   0.752   1.898
 1014SOL    HW3 4087   1.036   0.776   1.896
 1014SOL    MW4 4088   1.107   0.735   1.865
 1015SOL     OW 4089   0.891   0.866   1.978
 1015SOL    HW2 4090   0.890   0.875   2.073
 1015SOL    HW3 4091   0.886   0.956   1.945
 1015SOL    MW4 4092   0.891   0.879   1.986
 1016SOL     OW 4093   0.916   1.122   1.836
 1016SOL    HW2 4094   0.846   1.184   1.855
 1016SOL    HW3 4095   0.942   1.141   1.746
 1016SOL    MW4 4096   0.911   1.133   1.827
 1017SOL     OW 4097   1.124   1.233   1.977
 1017SOL    HW2 4098   1.140   1.315   1.930
 1017SOL    HW3 4099   1.043   1.199   1.937
 1017SOL    MW4 4100   1.115   1.239   1.965
 1018SOL     OW 4101   1.118   1.503   1.897
 1018SOL    HW2 4102   1.044   1.555   1.928
 1018SOL    HW3 4103   1.124   1.521   1.803
 1018SOL    MW4 4104   1.109   1.512   1.889
 1019SOL     OW 4105   0.902   1.666   1.981
 1019SOL    HW2 4106   0.894   1.757   1.953
 1019SOL    HW3 4107   0.828   1.622   1.939
 1019SOL    MW4 4108   0.891   1.672   1.972
 1020SOL     OW 4109   0.896   1.915   1.886
 1020SOL    HW2 4110   0.814   1.956   1.911
 1020SOL    HW3 4111   0.895   1.912   1.791
 1020SOL    MW4 4112   0.885   1.920   1.877
 1021SOL     OW 4113   1.110   2.052   1.993
 1021SOL    HW2 4114   1.104   2.140   1.955
 1021SOL    HW3 4115   1.030   2.008   1.963
 1021SOL    MW4 4116   1.098   2.058   1.984
 1022SOL     OW 4117   1.121   2.297   1.881
 1022SOL    HW2 4118   1.203   2.339   1.910
 1022SOL    HW3 4119   1.136   2.278   1.788
 1022SOL    MW4 4120   1.134   2.300   1.872
 1023SOL     OW 4121   0.902   2.441   1.982
 1023SOL    HW2 4122   0.972   2.388   1.944
 1023SOL    HW3 4123   0.822   2.405   1.943
 1023SOL    MW4 4124   0.900   2.429   1.972
 1024SOL     OW 4125   0.934   2.714   1.897
 1024SOL    HW2 4126   0.932   2.622   1.924
 1024SOL    HW3 4127   0.853   2.752   1.931
 1024SOL    MW4 4128   0.923   2.707   1.905
 1025SOL     OW 4129   1.157   2.859   1.955
 1025SOL    HW2 4130   1.155   2.865   2.050
 1025SOL    HW3 4131   1.077   2.812   1.932
 1025SOL    MW4 4132   1.146   2.854   1.964
 1026SOL     OW 4133   1.105   3.123   1.861
 1026SOL    HW2 4134   1.028   3.142   1.915
 1026SOL    HW3 4135   1.128   3.033   1.884
 1026SOL    MW4 4136   1.098   3.114   1.871
 1027SOL     OW 4137   0.875   3.226   1.974
 1027SOL    HW2 4138   0.874   3.221   2.069
 1027SOL    HW3 4139   0.797   3.177   1.946
 1027SOL    MW4 4140   0.865   3.219   1.983
 1028SOL     OW 4141   0.868   3.482   1.929
 1028SOL    HW2 4142   0.877   3.388   1.946
 1028SOL    HW3 4143   0.865   3.489   1.833
 1028SOL    MW4 4144   0.869   3.471   1.918
 1029SOL     OW 4145   1.119   3.639   1.975
 1029SOL    HW2 4146   1.150   3.625   2.064
 1029SOL    HW3 4147   1.036   3.591   1.971
 1029SOL    MW4 4148   1.112   3.631   1.986
 1030SOL     OW 4149   1.108   3.868   1.829
 1030SOL    HW2 4150   1.117   3.779   1.864
 1030SOL    HW3 4151   1.102   3.856   1.735
 1030SOL    MW4 4152   1.108   3.855   1.822
 1031SOL     OW 4153   0.911   4.028   1.936
 1031SOL    HW2 4154   0.930   4.026   2.030
 1031SOL    HW3 4155   0.977   3.969   1.897
 1031SOL    MW4 4156   0.923   4.020   1.943
 1032SOL     OW 4157   0.879   4.300   1.892
 1032SOL    HW2 4158   0.960   4.345   1.914
 1032SOL    HW3 4159   0.893   4.209   1.917
 1032SOL    MW4 4160   0.891   4.293   1.898
 1033SOL     OW 4161   1.126   4.409   2.002
 1033SOL    HW2 4162   1.127   4.411   2.098
 1033SOL    HW3 4163   1.203   4.358   1.978
 1033SOL    MW4 4164   1.136   4.402   2.012
 1034SOL     OW 4165   1.557   0.028   1.886
 1034SOL    HW2 4166   1.648   0.055   1.902
 1034SOL    HW3 4167   1.555  -0.065   1.908
 1034SOL    MW4 4168   1.569   0.019   1.891
 1035SOL     OW 4169   1.320   0.126   2.011
 1035SOL    HW2 4170   1.312   0.123   2.106
 1035SOL    HW3 4171   1.405   0.087   1.993
 1035SOL    MW4 4172   1.330   0.120   2.021
 1036SOL     OW 4173   1.318   0.406   1.912
 1036SOL    HW2 4174   1.325   0.312   1.929
 1036SOL    HW3 4175   1.315   0.414   1.817
 1036SOL    MW4 4176   1.319   0.395   1.902
 1037SOL     OW 4177   1.569   0.515   2.000
 1037SOL    HW2 4178   1.646   0.468   1.968
 1037SOL    HW3 4179   1.495   0.465   1.967
 1037SOL    MW4 4180   1.570   0.502   1.991
 1038SOL     OW 4181   1.529   0.742   1.866
 1038SOL    HW2 4182   1.598   0.797   1.905
 1038SOL    HW3 4183   1.541   0.656   1.906
 1038SOL    MW4 4184   1.540   0.738   1.876
 1039SOL     OW 4185   1.312   0.839   1.998
 1039SOL    HW2 4186   1.335   0.848   2.091
 1039SOL    HW3 4187   1.389   0.798   1.958
 1039SOL    MW4 4188   1.325   0.835   2.005
 1040SOL     OW 4189   1.363   1.096   1.919
 1040SOL    HW2 4190   1.353   1.008   1.956
 1040SOL    HW3 4191   1.279   1.138   1.936
 1040SOL    MW4 4192   1.350   1.090   1.926
 1041SOL     OW 4193   1.564   1.256   2.027
 1041SOL    HW2 4194   1.561   1.341   1.984
 1041SOL    HW3 4195   1.489   1.208   1.990
 1041SOL    MW4 4196   1.553   1.261   2.016
 1042SOL     OW 4197   1.548   1.516   1.891
 1042SOL    HW2 4198   1.618   1.569   1.931
 1042SOL    HW3 4199   1.467   1.555   1.924
 1042SOL    MW4 4200   1.547   1.528   1.901
 1043SOL     OW 4201   1.330   1.644   1.988
 1043SOL    HW2 4202   1.324   1.654   2.083
 1043SOL    HW3 4203   1.258   1.586   1.965
 1043SOL    MW4 4204   1.320   1.638   1.998
 1044SOL     OW 4205   1.331   1.898   1.889
 1044SOL    HW2 4206   1.325   1.816   1.938
 1044SOL    HW3 4207   1.256   1.949   1.919
 1044SOL    MW4 4208   1.320   1.894   1.899
 1045SOL     OW 4209   1.527   2.062   2.007
 1045SOL    HW2 4210   1.524   2.151   1.972
 1045SOL    HW3 4211   1.461   2.014   1.957
 1045SOL    MW4 4212   1.518   2.067   1.996
 1046SOL     OW 4213   1.564   2.307   1.891
 1046SOL    HW2 4214   1.648   2.338   1.926
 1046SOL    HW3 4215   1.572   2.316   1.796
 1046SOL    MW4 4216   1.576   2.313   1.883
 1047SOL     OW 4217   1.338   2.466   1.980
 1047SOL    HW2 4218   1.336   2.545   1.926
 1047SOL    HW3 4219   1.416   2.420   1.950
 1047SOL    MW4 4220   1.348   2.471   1.969
 1048SOL     OW 4221   1.381   2.715   1.871
 1048SOL    HW2 4222   1.310   2.770   1.904
 1048SOL    HW3 4223   1.370   2.718   1.776
 1048SOL    MW4 4224   1.370   2.723   1.863
 1049SOL     OW 4225   1.600   2.876   1.985
 1049SOL    HW2 4226   1.665   2.812   1.959
 1049SOL    HW3 4227   1.516   2.837   1.960
 1049SOL    MW4 4228   1.597   2.863   1.978
 1050SOL     OW 4229   1.532   3.127   1.893
 1050SOL    HW2 4230   1.575   3.053   1.937
 1050SOL    HW3 4231   1.543   3.109   1.799
 1050SOL    MW4 4232   1.539   3.115   1.886
 1051SOL     OW 4233   1.301   3.242   2.011
 1051SOL    HW2 4234   1.374   3.207   1.961
 1051SOL    HW3 4235   1.224   3.199   1.974
 1051SOL    MW4 4236   1.300   3.232   2.000
 1052SOL     OW 4237   1.288   3.486   1.844
 1052SOL    HW2 4238   1.288   3.407   1.898
 1052SOL    HW3 4239   1.214   3.538   1.877
 1052SOL    MW4 4240   1.278   3.483   1.856
 1053SOL     OW 4241   1.553   3.610   1.948
 1053SOL    HW2 4242   1.542   3.614   2.043
 1053SOL    HW3 4243   1.471   3.572   1.915
 1053SOL    MW4 4244   1.541   3.605   1.956
 1054SOL     OW 4245   1.550   3.879   1.888
 1054SOL    HW2 4246   1.639   3.908   1.907
 1054SOL    HW3 4247   1.552   3.785   1.903
 1054SOL    MW4 4248   1.562   3.870   1.892
 1055SOL     OW 4249   1.324   3.996   1.964
 1055SOL    HW2 4250   1.394   3.942   1.927
 1055SOL    HW3 4251   1.244   3.962   1.924
 1055SOL    MW4 4252   1.322   3.984   1.954
 1056SOL     OW 4253   1.330   4.252   1.878
 1056SOL    HW2 4254   1.317   4.166   1.918
 1056SOL    HW3 4255   1.307   4.240   1.786
 1056SOL    MW4 4256   1.325   4.239   1.871
 1057SOL     OW 4257   1.572   4.394   1.917
 1057SOL    HW2 4258   1.569   4.395   2.013
 1057SOL    HW3 4259   1.489   4.353   1.891
 1057SOL    MW4 4260   1.561   4.389   1.926
 1058SOL     OW 4261   2.052   4.635   1.866
 1058SOL    HW2 4262   2.126   4.682   1.904
 1058SOL    HW3 4263   2.055   4.549   1.908
 1058SOL    MW4 4264   2.062   4.630   1.877
 1059SOL     OW 4265   1.815   0.098   1.957
 1059SOL    HW2 4266   1.809   0.089   2.052
 1059SOL    HW3 4267   1.893   0.048   1.933
 1059SOL    MW4 4268   1.824   0.090   1.966
 1060SOL     OW 4269   1.791   0.368   1.912
 1060SOL    HW2 4270   1.808   0.277   1.937
 1060SOL    HW3 4271   1.758   0.362   1.822
 1060SOL    MW4 4272   1.789   0.355   1.904
 1061SOL     OW 4273   2.014   0.506   1.983
 1061SOL    HW2 4274   2.014   0.599   1.959
 1061SOL    HW3 4275   1.930   0.473   1.950
 1061SOL    MW4 4276   2.003   0.514   1.975
 1062SOL     OW 4277   2.009   0.755   1.866
 1062SOL    HW2 4278   2.091   0.799   1.888
 1062SOL    HW3 4279   2.006   0.757   1.770
 1062SOL    MW4 4280   2.019   0.761   1.856
 1063SOL     OW 4281   1.773   0.883   1.968
 1063SOL    HW2 4282   1.763   0.973   1.935
 1063SOL    HW3 4283   1.852   0.851   1.926
 1063SOL    MW4 4284   1.782   0.891   1.958
 1064SOL     OW 4285   1.777   1.146   1.915
 1064SOL    HW2 4286   1.688   1.176   1.935
 1064SOL    HW3 4287   1.784   1.156   1.820
 1064SOL    MW4 4288   1.766   1.152   1.905
 1065SOL     OW 4289   1.993   1.281   2.065
 1065SOL    HW2 4290   2.053   1.246   2.000
 1065SOL    HW3 4291   1.908   1.242   2.043
 1065SOL    MW4 4292   1.989   1.272   2.053
 1066SOL     OW 4293   1.993   1.531   1.939
 1066SOL    HW2 4294   2.004   1.444   1.978
 1066SOL    HW3 4295   2.024   1.521   1.849
 1066SOL    MW4 4296   1.998   1.518   1.932
 1067SOL     OW 4297   1.752   1.676   2.012
 1067SOL    HW2 4298   1.750   1.765   1.976
 1067SOL    HW3 4299   1.832   1.638   1.976
 1067SOL    MW4 4300   1.762   1.683   2.003
 1068SOL     OW 4301   1.771   1.934   1.921
 1068SOL    HW2 4302   1.692   1.984   1.940
 1068SOL    HW3 4303   1.780   1.938   1.826
 1068SOL    MW4 4304   1.762   1.941   1.911
 1069SOL     OW 4305   1.996   2.059   1.988
 1069SOL    HW2 4306   2.074   2.022   1.947
 1069SOL    HW3 4307   1.925   2.000   1.962
 1069SOL    MW4 4308   1.997   2.046   1.979
 1070SOL     OW 4309   1.982   2.307   1.874
 1070SOL    HW2 4310   2.049   2.342   1.933
 1070SOL    HW3 4311   1.958   2.223   1.913
 1070SOL    MW4 4312   1.988   2.300   1.887
 1071SOL     OW 4313   1.766   2.444   1.988
 1071SOL    HW2 4314   1.768   2.451   2.083
 1071SOL    HW3 4315   1.846   2.396   1.966
 1071SOL    MW4 4316   1.777   2.439   1.997
 1072SOL     OW 4317   1.813   2.697   1.890
 1072SOL    HW2 4318   1.791   2.607   1.913
 1072SOL    HW3 4319   1.820   2.697   1.794
 1072SOL    MW4 4320   1.811   2.685   1.880
 1073SOL     OW 4321   2.018   2.812   2.028
 1073SOL    HW2 4322   2.004   2.810   2.123
 1073SOL    HW3 4323   1.937   2.777   1.991
 1073SOL    MW4 4324   2.006   2.807   2.036
 1074SOL     OW 4325   2.021   3.077   1.916
 1074SOL    HW2 4326   1.938   3.112   1.947
 1074SOL    HW3 4327   2.031   2.993   1.962
 1074SOL    MW4 4328   2.012   3.071   1.926
 1075SOL     OW 4329   1.804   3.221   2.010
 1075SOL    HW2 4330   1.795   3.252   2.100
 1075SOL    HW3 4331   1.714   3.204   1.982
 1075SOL    MW4 4332   1.791   3.223   2.018
 1076SOL     OW 4333   1.792   3.478   1.911
 1076SOL    HW2 4334   1.795   3.390   1.949
 1076SOL    HW3 4335   1.701   3.505   1.921
 1076SOL    MW4 4336   1.781   3.470   1.917
 1077SOL     OW 4337   2.034   3.593   2.001
 1077SOL    HW2 4338   2.020   3.686   1.980
 1077SOL    HW3 4339   1.951   3.551   1.979
 1077SOL    MW4 4340   2.022   3.600   1.995
 1078SOL     OW 4341   2.024   3.855   1.928
 1078SOL    HW2 4342   2.108   3.897   1.946
 1078SOL    HW3 4343   2.023   3.842   1.833
 1078SOL    MW4 4344   2.035   3.859   1.917
 1079SOL     OW 4345   1.780   4.008   1.983
 1079SOL    HW2 4346   1.785   4.095   1.942
 1079SOL    HW3 4347   1.854   3.960   1.947
 1079SOL    MW4 4348   1.790   4.013   1.973
 1080SOL     OW 4349   1.810   4.262   1.859
 1080SOL    HW2 4350   1.723   4.295   1.880
 1080SOL    HW3 4351   1.808   4.249   1.764
 1080SOL    MW4 4352   1.798   4.264   1.849
 1081SOL     OW 4353   2.045   4.389   1.971
 1081SOL    HW2 4354   2.122   4.343   1.938
 1081SOL    HW3 4355   1.971   4.350   1.924
 1081SOL    MW4 4356   2.045   4.378   1.961
 1082SOL     OW 4357   2.452   4.616   1.870
 1082SOL    HW2 4358   2.524   4.664   1.910
 1082SOL    HW3 4359   2.463   4.526   1.900
 1082SOL    MW4 4360   2.463   4.611   1.879
 1083SOL     OW 4361   2.243   0.112   2.000
 1083SOL    HW2 4362   2.271   0.100   2.091
 1083SOL    HW3 4363   2.307   0.063   1.949
 1083SOL    MW4 4364   2.255   0.104   2.005
 1084SOL     OW 4365   2.225   0.355   1.886
 1084SOL    HW2 4366   2.230   0.275   1.938
 1084SOL    HW3 4367   2.153   0.405   1.925
 1084SOL    MW4 4368   2.216   0.351   1.898
 1085SOL     OW 4369   2.439   0.506   2.001
 1085SOL    HW2 4370   2.513   0.463   1.959
 1085SOL    HW3 4371   2.362   0.466   1.961
 1085SOL    MW4 4372   2.439   0.495   1.990
 1086SOL     OW 4373   2.474   0.765   1.905
 1086SOL    HW2 4374   2.461   0.685   1.955
 1086SOL    HW3 4375   2.473   0.738   1.814
 1086SOL    MW4 4376   2.473   0.751   1.900
 1087SOL     OW 4377   2.238   0.897   1.911
 1087SOL    HW2 4378   2.232   0.902   2.006
 1087SOL    HW3 4379   2.323   0.856   1.894
 1087SOL    MW4 4380   2.249   0.892   1.921
 1088SOL     OW 4381   2.213   1.165   1.887
 1088SOL    HW2 4382   2.296   1.205   1.915
 1088SOL    HW3 4383   2.224   1.072   1.904
 1088SOL    MW4 4384   2.225   1.158   1.893
 1089SOL     OW 4385   2.442   1.285   1.965
 1089SOL    HW2 4386   2.437   1.285   2.061
 1089SOL    HW3 4387   2.452   1.378   1.943
 1089SOL    MW4 4388   2.443   1.298   1.975
 1090SOL     OW 4389   2.479   1.544   1.889
 1090SOL    HW2 4390   2.398   1.582   1.924
 1090SOL    HW3 4391   2.471   1.555   1.794
 1090SOL    MW4 4392   2.467   1.551   1.881
 1091SOL     OW 4393   2.247   1.647   2.007
 1091SOL    HW2 4394   2.249   1.669   2.101
 1091SOL    HW3 4395   2.158   1.614   1.993
 1091SOL    MW4 4396   2.235   1.646   2.018
 1092SOL     OW 4397   2.216   1.922   1.889
 1092SOL    HW2 4398   2.288   1.955   1.942
 1092SOL    HW3 4399   2.198   1.835   1.926
 1092SOL    MW4 4400   2.223   1.915   1.901
 1093SOL     OW 4401   2.447   2.039   2.015
 1093SOL    HW2 4402   2.519   1.983   1.984
 1093SOL    HW3 4403   2.462   2.122   1.971
 1093SOL    MW4 4404   2.459   2.042   2.005
 1094SOL     OW 4405   2.430   2.305   1.899
 1094SOL    HW2 4406   2.497   2.353   1.947
 1094SOL    HW3 4407   2.350   2.321   1.948
 1094SOL    MW4 4408   2.428   2.314   1.911
 1095SOL     OW 4409   2.188   2.403   2.014
 1095SOL    HW2 4410   2.190   2.420   2.109
 1095SOL    HW3 4411   2.211   2.487   1.974
 1095SOL    MW4 4412   2.191   2.416   2.022
 1096SOL     OW 4413   2.236   2.649   1.908
 1096SOL    HW2 4414   2.168   2.691   1.959
 1096SOL    HW3 4415   2.228   2.686   1.821
 1096SOL    MW4 4416   2.226   2.659   1.903
 1097SOL     OW 4417   2.465   2.789   2.002
 1097SOL    HW2 4418   2.462   2.879   1.969
 1097SOL    HW3 4419   2.388   2.747   1.966
 1097SOL    MW4 4420   2.455   2.795   1.993
 1098SOL     OW 4421   2.464   3.044   1.907
 1098SOL    HW2 4422   2.401   3.092   1.961
 1098SOL    HW3 4423   2.436   3.060   1.817
 1098SOL    MW4 4424   2.452   3.053   1.903
 1099SOL     OW 4425   2.271   3.231   1.988
 1099SOL    HW2 4426   2.269   3.234   2.084
 1099SOL    HW3 4427   2.184   3.202   1.963
 1099SOL    MW4 4428   2.260   3.227   1.997
 1100SOL     OW 4429   2.269   3.496   1.900
 1100SOL    HW2 4430   2.285   3.409   1.938
 1100SOL    HW3 4431   2.196   3.531   1.951
 1100SOL    MW4 4432   2.261   3.489   1.912
 1101SOL     OW 4433   2.496   3.614   1.980
 1101SOL    HW2 4434   2.492   3.615   2.076
 1101SOL    HW3 4435   2.413   3.574   1.953
 1101SOL    MW4 4436   2.484   3.609   1.989
 1102SOL     OW 4437   2.502   3.879   1.901
 1102SOL    HW2 4438   2.419   3.916   1.932
 1102SOL    HW3 4439   2.504   3.791   1.937
 1102SOL    MW4 4440   2.491   3.872   1.910
 1103SOL     OW 4441   2.252   3.977   2.028
 1103SOL    HW2 4442   2.246   4.000   2.121
 1103SOL    HW3 4443   2.252   4.061   1.982
 1103SOL    MW4 4444   2.251   3.991   2.034
 1104SOL     OW 4445   2.264   4.214   1.897
 1104SOL    HW2 4446   2.336   4.276   1.911
 1104SOL    HW3 4447   2.245   4.221   1.803
 1104SOL    MW4 4448   2.271   4.223   1.886
 1105SOL     OW 4449   2.494   4.373   1.967
 1105SOL    HW2 4450   2.507   4.393   2.060
 1105SOL    HW3 4451   2.576   4.332   1.939
 1105SOL    MW4 4452   2.506   4.370   1.975
 1106SOL     OW 4453   2.880   4.648   1.908
 1106SOL    HW2 4454   2.962   4.692   1.928
 1106SOL    HW3 4455   2.892   4.559   1.939
 1106SOL    MW4 4456   2.892   4.642   1.915
 1107SOL     OW 4457   2.650   0.087   2.002
 1107SOL    HW2 4458   2.657   0.105   2.095
 1107SOL    HW3 4459   2.735   0.051   1.978
 1107SOL    MW4 4460   2.662   0.085   2.011
 1108SOL     OW 4461   2.654   0.369   1.916
 1108SOL    HW2 4462   2.733   0.415   1.945
 1108SOL    HW3 4463   2.661   0.282   1.955
 1108SOL    MW4 4464   2.665   0.364   1.925
 1109SOL     OW 4465   2.881   0.525   2.010
 1109SOL    HW2 4466   2.960   0.476   1.987
 1109SOL    HW3 4467   2.898   0.613   1.975
 1109SOL    MW4 4468   2.894   0.530   2.002
 1110SOL     OW 4469   2.910   0.766   1.885
 1110SOL    HW2 4470   2.989   0.804   1.924
 1110SOL    HW3 4471   2.838   0.818   1.920
 1110SOL    MW4 4472   2.911   0.778   1.895
 1111SOL     OW 4473   2.703   0.906   2.007
 1111SOL    HW2 4474   2.692   0.995   1.971
 1111SOL    HW3 4475   2.638   0.854   1.960
 1111SOL    MW4 4476   2.693   0.911   1.996
 1112SOL     OW 4477   2.687   1.175   1.896
 1112SOL    HW2 4478   2.602   1.218   1.905
 1112SOL    HW3 4479   2.707   1.181   1.802
 1112SOL    MW4 4480   2.679   1.181   1.885
 1113SOL     OW 4481   2.941   1.239   2.026
 1113SOL    HW2 4482   2.975   1.318   1.984
 1113SOL    HW3 4483   2.862   1.218   1.976
 1113SOL    MW4 4484   2.935   1.246   2.014
 1114SOL     OW 4485   2.936   1.503   1.866
 1114SOL    HW2 4486   2.997   1.564   1.908
 1114SOL    HW3 4487   2.945   1.521   1.772
 1114SOL    MW4 4488   2.945   1.513   1.859
 1115SOL     OW 4489   2.718   1.649   1.976
 1115SOL    HW2 4490   2.791   1.595   1.945
 1115SOL    HW3 4491   2.640   1.605   1.942
 1115SOL    MW4 4492   2.718   1.636   1.967
 1116SOL     OW 4493   2.659   1.916   1.871
 1116SOL    HW2 4494   2.726   1.967   1.916
 1116SOL    HW3 4495   2.673   1.826   1.900
 1116SOL    MW4 4496   2.669   1.911   1.881
 1117SOL     OW 4497   2.884   2.051   1.971
 1117SOL    HW2 4498   2.905   2.055   2.065
 1117SOL    HW3 4499   2.958   2.004   1.933
 1117SOL    MW4 4500   2.897   2.046   1.979
 1118SOL     OW 4501   2.898   2.313   1.898
 1118SOL    HW2 4502   2.985   2.341   1.924
 1118SOL    HW3 4503   2.894   2.220   1.921
 1118SOL    MW4 4504   2.909   2.305   1.904
 1119SOL     OW 4505   2.669   2.423   2.001
 1119SOL    HW2 4506   2.677   2.508   1.958
 1119SOL    HW3 4507   2.742   2.371   1.965
 1119SOL    MW4 4508   2.680   2.427   1.990
 1120SOL     OW 4509   2.705   2.684   1.903
 1120SOL    HW2 4510   2.632   2.725   1.950
 1120SOL    HW3 4511   2.686   2.701   1.811
 1120SOL    MW4 4512   2.693   2.692   1.897
 1121SOL     OW 4513   2.924   2.808   1.995
 1121SOL    HW2 4514   2.908   2.892   1.951
 1121SOL    HW3 4515   2.845   2.757   1.977
 1121SOL    MW4 4516   2.911   2.813   1.986
 1122SOL     OW 4517   2.914   3.055   1.878
 1122SOL    HW2 4518   2.983   3.099   1.927
 1122SOL    HW3 4519   2.833   3.091   1.914
 1122SOL    MW4 4520   2.912   3.066   1.889
 1123SOL     OW 4521   2.696   3.190   1.988
 1123SOL    HW2 4522   2.703   3.275   1.944
 1123SOL    HW3 4523   2.625   3.145   1.943
 1123SOL    MW4 4524   2.687   3.195   1.976
 1124SOL     OW 4525   2.686   3.441   1.871
 1124SOL    HW2 4526   2.762   3.485   1.910
 1124SOL    HW3 4527   2.612   3.498   1.890
 1124SOL    MW4 4528   2.686   3.454   1.879
 1125SOL     OW 4529   2.903   3.596   1.965
 1125SOL    HW2 4530   2.917   3.594   2.060
 1125SOL    HW3 4531   2.979   3.552   1.929
 1125SOL    MW4 4532   2.915   3.590   1.973
 1126SOL     OW 4533   2.918   3.875   1.935
 1126SOL    HW2 4534   2.918   3.783   1.963
 1126SOL    HW3 4535   2.914   3.870   1.839
 1126SOL    MW4 4536   2.917   3.862   1.926
 1127SOL     OW 4537   2.711   4.012   2.025
 1127SOL    HW2 4538   2.783   3.957   1.992
 1127SOL    HW3 4539   2.636   3.985   1.973
 1127SOL    MW4 4540   2.711   4.001   2.014
 1128SOL     OW 4541   2.750   4.258   1.890
 1128SOL    HW2 4542   2.749   4.168   1.924
 1128SOL    HW3 4543   2.722   4.250   1.799
 1128SOL    MW4 4544   2.746   4.245   1.883
 1129SOL     OW 4545   2.941   4.405   2.010
 1129SOL    HW2 4546   2.924   4.399   2.104
 1129SOL    HW3 4547   2.875   4.348   1.970
 1129SOL    MW4 4548   2.930   4.397   2.017
 1130SOL     OW 4549   3.371   0.007   1.926
 1130SOL    HW2 4550   3.362  -0.084   1.955
 1130SOL    HW3 4551   3.359   0.003   1.831
 1130SOL    MW4 4552   3.368  -0.006   1.918
 1131SOL     OW 4553   3.120   0.098   1.980
 1131SOL    HW2 4554   3.118   0.100   2.076
 1131SOL    HW3 4555   3.197   0.044   1.959
 1131SOL    MW4 4556   3.130   0.091   1.990
 1132SOL     OW 4557   3.119   0.390   1.936
 1132SOL    HW2 4558   3.134   0.303   1.972
 1132SOL    HW3 4559   3.136   0.381   1.842
 1132SOL    MW4 4560   3.123   0.377   1.928
 1133SOL     OW 4561   3.370   0.490   2.015
 1133SOL    HW2 4562   3.425   0.433   1.961
 1133SOL    HW3 4563   3.282   0.455   2.003
 1133SOL    MW4 4564   3.366   0.477   2.006
 1134SOL     OW 4565   3.377   0.743   1.888
 1134SOL    HW2 4566   3.296   0.783   1.920
 1134SOL    HW3 4567   3.375   0.654   1.922
 1134SOL    MW4 4568   3.366   0.737   1.897
 1135SOL     OW 4569   3.141   0.872   1.967
 1135SOL    HW2 4570   3.120   0.886   2.060
 1135SOL    HW3 4571   3.137   0.959   1.928
 1135SOL    MW4 4572   3.138   0.885   1.974
 1136SOL     OW 4573   3.155   1.133   1.873
 1136SOL    HW2 4574   3.224   1.181   1.919
 1136SOL    HW3 4575   3.074   1.159   1.918
 1136SOL    MW4 4576   3.153   1.143   1.885
 1137SOL     OW 4577   3.333   1.253   2.020
 1137SOL    HW2 4578   3.310   1.251   2.113
 1137SOL    HW3 4579   3.351   1.345   2.002
 1137SOL    MW4 4580   3.332   1.265   2.030
 1138SOL     OW 4581   3.338   1.518   1.927
 1138SOL    HW2 4582   3.416   1.573   1.928
 1138SOL    HW3 4583   3.266   1.577   1.948
 1138SOL    MW4 4584   3.339   1.533   1.930
 1139SOL     OW 4585   3.117   1.665   1.997
 1139SOL    HW2 4586   3.136   1.661   2.091
 1139SOL    HW3 4587   3.100   1.758   1.980
 1139SOL    MW4 4588   3.117   1.677   2.007
 1140SOL     OW 4589   3.118   1.919   1.877
 1140SOL    HW2 4590   3.201   1.958   1.905
 1140SOL    HW3 4591   3.125   1.913   1.781
 1140SOL    MW4 4592   3.130   1.923   1.868
 1141SOL     OW 4593   3.359   2.023   1.986
 1141SOL    HW2 4594   3.446   1.989   1.966
 1141SOL    HW3 4595   3.363   2.115   1.958
 1141SOL    MW4 4596   3.371   2.031   1.980
 1142SOL     OW 4597   3.375   2.281   1.890
 1142SOL    HW2 4598   3.292   2.325   1.910
 1142SOL    HW3 4599   3.381   2.282   1.795
 1142SOL    MW4 4600   3.365   2.287   1.880
 1143SOL     OW 4601   3.150   2.426   1.947
 1143SOL    HW2 4602   3.158   2.423   2.043
 1143SOL    HW3 4603   3.141   2.519   1.926
 1143SOL    MW4 4604   3.150   2.438   1.957
 1144SOL     OW 4605   3.123   2.690   1.842
 1144SOL    HW2 4606   3.042   2.732   1.870
 1144SOL    HW3 4607   3.121   2.692   1.747
 1144SOL    MW4 4608   3.112   2.696   1.833
 1145SOL     OW 4609   3.350   2.808   1.945
 1145SOL    HW2 4610   3.347   2.815   2.040
 1145SOL    HW3 4611   3.267   2.766   1.921
 1145SOL    MW4 4612   3.339   2.803   1.954
 1146SOL     OW 4613   3.297   3.071   1.877
 1146SOL    HW2 4614   3.376   3.120   1.897
 1146SOL    HW3 4615   3.311   2.985   1.918
 1146SOL    MW4 4616   3.309   3.066   1.885
 1147SOL     OW 4617   3.107   3.227   1.991
 1147SOL    HW2 4618   3.120   3.313   1.951
 1147SOL    HW3 4619   3.175   3.172   1.952
 1147SOL    MW4 4620   3.118   3.231   1.980
 1148SOL     OW 4621   3.132   3.473   1.882
 1148SOL    HW2 4622   3.216   3.513   1.907
 1148SOL    HW3 4623   3.133   3.474   1.786
 1148SOL    MW4 4624   3.143   3.478   1.872
 1149SOL     OW 4625   3.368   3.575   1.981
 1149SOL    HW2 4626   3.442   3.535   1.936
 1149SOL    HW3 4627   3.366   3.665   1.948
 1149SOL    MW4 4628   3.378   3.582   1.971
 1150SOL     OW 4629   3.374   3.832   1.882
 1150SOL    HW2 4630   3.295   3.880   1.909
 1150SOL    HW3 4631   3.366   3.825   1.787
 1150SOL    MW4 4632   3.362   3.838   1.873
 1151SOL     OW 4633   3.171   4.010   1.951
 1151SOL    HW2 4634   3.182   4.025   2.045
 1151SOL    HW3 4635   3.096   3.951   1.945
 1151SOL    MW4 4636   3.163   4.004   1.963
 1152SOL     OW 4637   3.149   4.262   1.865
 1152SOL    HW2 4638   3.144   4.177   1.908
 1152SOL    HW3 4639   3.107   4.322   1.927
 1152SOL    MW4 4640   3.143   4.259   1.879
 1153SOL     OW 4641   3.352   4.416   2.007
 1153SOL    HW2 4642   3.442   4.386   1.990
 1153SOL    HW3 4643   3.298   4.361   1.950
 1153SOL    MW4 4644   3.357   4.405   1.997
 1154SOL     OW 4645   3.819   4.666   1.859
 1154SOL    HW2 4646   3.819   4.580   1.900
 1154SOL    HW3 4647   3.748   4.714   1.902
 1154SOL    MW4 4648   3.810   4.661   1.870
 1155SOL     OW 4649   3.605   0.118   1.983
 1155SOL    HW2 4650   3.591   0.143   2.074
 1155SOL    HW3 4651   3.524   0.074   1.957
 1155SOL    MW4 4652   3.593   0.115   1.992
 1156SOL     OW 4653   3.569   0.367   1.877
 1156SOL    HW2 4654   3.589   0.275   1.895
 1156SOL    HW3 4655   3.574   0.375   1.782
 1156SOL    MW4 4656   3.572   0.356   1.867
 1157SOL     OW 4657   3.754   0.493   2.045
 1157SOL    HW2 4658   3.787   0.577   2.014
 1157SOL    HW3 4659   3.683   0.471   1.985
 1157SOL    MW4 4660   3.749   0.501   2.033
 1158SOL     OW 4661   3.817   0.727   1.919
 1158SOL    HW2 4662   3.737   0.759   1.961
 1158SOL    HW3 4663   3.813   0.763   1.830
 1158SOL    MW4 4664   3.806   0.736   1.913
 1159SOL     OW 4665   3.598   0.869   2.031
 1159SOL    HW2 4666   3.595   0.954   1.986
 1159SOL    HW3 4667   3.518   0.825   2.004
 1159SOL    MW4 4668   3.587   0.875   2.021
 1160SOL     OW 4669   3.568   1.124   1.926
 1160SOL    HW2 4670   3.489   1.173   1.951
 1160SOL    HW3 4671   3.571   1.130   1.831
 1160SOL    MW4 4672   3.558   1.131   1.917
 1161SOL     OW 4673   3.786   1.264   1.971
 1161SOL    HW2 4674   3.787   1.250   2.066
 1161SOL    HW3 4675   3.706   1.221   1.941
 1161SOL    MW4 4676   3.776   1.256   1.980
 1162SOL     OW 4677   3.798   1.514   1.885
 1162SOL    HW2 4678   3.862   1.566   1.932
 1162SOL    HW3 4679   3.799   1.428   1.927
 1162SOL    MW4 4680   3.806   1.509   1.896
 1163SOL     OW 4681   3.576   1.637   1.973
 1163SOL    HW2 4682   3.611   1.726   1.967
 1163SOL    HW3 4683   3.645   1.582   1.937
 1163SOL    MW4 4684   3.590   1.642   1.967
 1164SOL     OW 4685   3.591   1.901   1.932
 1164SOL    HW2 4686   3.670   1.949   1.954
 1164SOL    HW3 4687   3.581   1.912   1.838
 1164SOL    MW4 4688   3.600   1.909   1.923
 1165SOL     OW 4689   3.831   2.034   2.013
 1165SOL    HW2 4690   3.914   1.993   1.988
 1165SOL    HW3 4691   3.832   2.118   1.968
 1165SOL    MW4 4692   3.842   2.040   2.004
 1166SOL     OW 4693   3.815   2.271   1.865
 1166SOL    HW2 4694   3.893   2.325   1.880
 1166SOL    HW3 4695   3.746   2.314   1.916
 1166SOL    MW4 4696   3.816   2.284   1.874
 1167SOL     OW 4697   3.600   2.410   1.970
 1167SOL    HW2 4698   3.579   2.501   1.947
 1167SOL    HW3 4699   3.522   2.360   1.945
 1167SOL    MW4 4700   3.587   2.415   1.964
 1168SOL     OW 4701   3.590   2.693   1.859
 1168SOL    HW2 4702   3.664   2.741   1.897
 1168SOL    HW3 4703   3.512   2.738   1.894
 1168SOL    MW4 4704   3.589   2.705   1.869
 1169SOL     OW 4705   3.787   2.851   1.961
 1169SOL    HW2 4706   3.788   2.860   2.056
 1169SOL    HW3 4707   3.774   2.940   1.928
 1169SOL    MW4 4708   3.785   2.864   1.969
 1170SOL     OW 4709   3.785   3.115   1.900
 1170SOL    HW2 4710   3.704   3.153   1.934
 1170SOL    HW3 4711   3.775   3.115   1.805
 1170SOL    MW4 4712   3.773   3.120   1.892
 1171SOL     OW 4713   3.534   3.190   1.950
 1171SOL    HW2 4714   3.547   3.190   2.045
 1171SOL    HW3 4715   3.542   3.282   1.925
 1171SOL    MW4 4716   3.537   3.202   1.960
 1172SOL     OW 4717   3.581   3.454   1.871
 1172SOL    HW2 4718   3.665   3.485   1.906
 1172SOL    HW3 4719   3.577   3.493   1.783
 1172SOL    MW4 4720   3.592   3.463   1.864
 1173SOL     OW 4721   3.824   3.581   1.970
 1173SOL    HW2 4722   3.909   3.543   1.948
 1173SOL    HW3 4723   3.820   3.662   1.920
 1173SOL    MW4 4724   3.834   3.586   1.961
 1174SOL     OW 4725   3.807   3.845   1.868
 1174SOL    HW2 4726   3.743   3.914   1.887
 1174SOL    HW3 4727   3.824   3.854   1.774
 1174SOL    MW4 4728   3.801   3.856   1.858
 1175SOL     OW 4729   3.584   4.010   1.956
 1175SOL    HW2 4730   3.586   4.030   2.049
 1175SOL    HW3 4731   3.508   3.953   1.945
 1175SOL    MW4 4732   3.574   4.005   1.967
 1176SOL     OW 4733   3.591   4.288   1.925
 1176SOL    HW2 4734   3.681   4.319   1.940
 1176SOL    HW3 4735   3.596   4.193   1.934
 1176SOL    MW4 4736   3.604   4.280   1.928
 1177SOL     OW 4737   3.830   4.408   1.993
 1177SOL    HW2 4738   3.828   4.405   2.089
 1177SOL    HW3 4739   3.909   4.360   1.969
 1177SOL    MW4 4740   3.840   4.401   2.002
 1178SOL     OW 4741   4.243   0.008   1.892
 1178SOL    HW2 4742   4.180   0.064   1.937
 1178SOL    HW3 4743   4.329   0.041   1.918
 1178SOL    MW4 4744   4.246   0.019   1.901
 1179SOL     OW 4745   4.036   0.159   2.013
 1179SOL    HW2 4746   4.016   0.187   2.103
 1179SOL    HW3 4747   3.961   0.106   1.987
 1179SOL    MW4 4748   4.023   0.156   2.021
 1180SOL     OW 4749   3.974   0.393   1.881
 1180SOL    HW2 4750   3.993   0.305   1.912
 1180SOL    HW3 4751   3.912   0.428   1.944
 1180SOL    MW4 4752   3.968   0.386   1.893
 1181SOL     OW 4753   4.261   0.506   1.931
 1181SOL    HW2 4754   4.254   0.513   2.026
 1181SOL    HW3 4755   4.175   0.474   1.903
 1181SOL    MW4 4756   4.249   0.503   1.940
 1182SOL     OW 4757   4.260   0.776   1.839
 1182SOL    HW2 4758   4.263   0.681   1.854
 1182SOL    HW3 4759   4.255   0.784   1.744
 1182SOL    MW4 4760   4.260   0.764   1.829
 1183SOL     OW 4761   4.039   0.853   1.979
 1183SOL    HW2 4762   4.112   0.801   1.945
 1183SOL    HW3 4763   3.961   0.802   1.959
 1183SOL    MW4 4764   4.039   0.840   1.972
 1184SOL     OW 4765   4.048   1.133   1.910
 1184SOL    HW2 4766   4.045   1.041   1.937
 1184SOL    HW3 4767   3.967   1.170   1.946
 1184SOL    MW4 4768   4.037   1.125   1.918
 1185SOL     OW 4769   4.282   1.273   1.988
 1185SOL    HW2 4770   4.277   1.270   2.084
 1185SOL    HW3 4771   4.196   1.243   1.959
 1185SOL    MW4 4772   4.270   1.269   1.997
 1186SOL     OW 4773   4.286   1.531   1.879
 1186SOL    HW2 4774   4.290   1.439   1.905
 1186SOL    HW3 4775   4.270   1.528   1.785
 1186SOL    MW4 4776   4.284   1.518   1.870
 1187SOL     OW 4777   4.046   1.646   1.971
 1187SOL    HW2 4778   4.064   1.661   2.064
 1187SOL    HW3 4779   4.128   1.608   1.937
 1187SOL    MW4 4780   4.059   1.643   1.979
 1188SOL     OW 4781   4.046   1.908   1.911
 1188SOL    HW2 4782   4.036   1.813   1.921
 1188SOL    HW3 4783   4.048   1.922   1.816
 1188SOL    MW4 4784   4.045   1.897   1.900
 1189SOL     OW 4785   4.275   2.041   2.015
 1189SOL    HW2 4786   4.272   2.040   2.110
 1189SOL    HW3 4787   4.192   2.002   1.988
 1189SOL    MW4 4788   4.263   2.036   2.024
 1190SOL     OW 4789   4.238   2.296   1.895
 1190SOL    HW2 4790   4.250   2.208   1.929
 1190SOL    HW3 4791   4.292   2.352   1.952
 1190SOL    MW4 4792   4.247   2.292   1.907
 1191SOL     OW 4793   4.016   2.443   1.941
 1191SOL    HW2 4794   4.007   2.448   2.036
 1191SOL    HW3 4795   4.103   2.408   1.926
 1191SOL    MW4 4796   4.026   2.439   1.952
 1192SOL     OW 4797   4.040   2.714   1.897
 1192SOL    HW2 4798   4.013   2.625   1.919
 1192SOL    HW3 4799   3.967   2.769   1.926
 1192SOL    MW4 4800   4.027   2.709   1.904
 1193SOL     OW 4801   4.282   2.840   1.961
 1193SOL    HW2 4802   4.273   2.848   2.056
 1193SOL    HW3 4803   4.198   2.802   1.933
 1193SOL    MW4 4804   4.269   2.836   1.969
 1194SOL     OW 4805   4.279   3.114   1.875
 1194SOL    HW2 4806   4.202   3.142   1.923
 1194SOL    HW3 4807   4.298   3.027   1.911
 1194SOL    MW4 4808   4.271   3.106   1.886
 1195SOL     OW 4809   4.047   3.211   1.994
 1195SOL    HW2 4810   4.045   3.213   2.090
 1195SOL    HW3 4811   3.968   3.163   1.969
 1195SOL    MW4 4812   4.036   3.205   2.003
 1196SOL     OW 4813   4.064   3.466   1.885
 1196SOL    HW2 4814   4.128   3.500   1.948
 1196SOL    HW3 4815   4.060   3.372   1.904
 1196SOL    MW4 4816   4.072   3.458   1.896
 1197SOL     OW 4817   4.253   3.601   2.034
 1197SOL    HW2 4818   4.229   3.678   1.983
 1197SOL    HW3 4819   4.332   3.567   1.990
 1197SOL    MW4 4820   4.260   3.606   2.021
 1198SOL     OW 4821   4.209   3.838   1.911
 1198SOL    HW2 4822   4.281   3.890   1.949
 1198SOL    HW3 4823   4.210   3.860   1.818
 1198SOL    MW4 4824   4.219   3.848   1.904
 1199SOL     OW 4825   4.009   4.003   1.975
 1199SOL    HW2 4826   4.081   3.944   1.952
 1199SOL    HW3 4827   3.931   3.960   1.941
 1199SOL    MW4 4828   4.008   3.990   1.968
 1200SOL     OW 4829   4.036   4.261   1.870
 1200SOL    HW2 4830   4.103   4.309   1.918
 1200SOL    HW3 4831   4.042   4.171   1.904
 1200SOL    MW4 4832   4.046   4.255   1.881
 1201SOL     OW 4833   4.252   4.422   1.992
 1201SOL    HW2 4834   4.261   4.429   2.087
 1201SOL    HW3 4835   4.245   4.513   1.962
 1201SOL    MW4 4836   4.252   4.435   2.001
 1202SOL     OW 4837   0.165   4.613   2.374
 1202SOL    HW2 4838   0.163   4.626   2.469
 1202SOL    HW3 4839   0.251   4.645   2.347
 1202SOL    MW4 4840   0.176   4.619   2.383
 1203SOL     OW 4841   0.012   0.140   2.250
 1203SOL    HW2 4842   0.070   0.075   2.290
 1203SOL    HW3 4843   0.018   0.121   2.156
 1203SOL    MW4 4844   0.020   0.129   2.243
 1204SOL     OW 4845   4.464   0.400   2.324
 1204SOL    HW2 4846   4.546   0.444   2.300
 1204SOL    HW3 4847   4.475   0.310   2.294
 1204SOL    MW4 4848   4.476   0.394   2.317
 1205SOL     OW 4849   0.229   0.494   2.253
 1205SOL    HW2 4850   0.291   0.436   2.297
 1205SOL    HW3 4851   0.249   0.485   2.160
 1205SOL    MW4 4852   0.240   0.485   2.246
 1206SOL     OW 4853   0.228   0.765   2.306
 1206SOL    HW2 4854   0.230   0.779   2.400
 1206SOL    HW3 4855   0.227   0.670   2.296
 1206SOL    MW4 4856   0.228   0.754   2.317
 1207SOL     OW 4857   4.482   0.895   2.260
 1207SOL    HW2 4858   4.559   0.842   2.282
 1207SOL    HW3 4859   4.476   0.890   2.165
 1207SOL    MW4 4860   4.492   0.888   2.250
 1208SOL     OW 4861   0.027   1.150   2.368
 1208SOL    HW2 4862   0.027   1.134   2.462
 1208SOL    HW3 4863   0.019   1.063   2.329
 1208SOL    MW4 4864   0.026   1.136   2.375
 1209SOL     OW 4865   0.258   1.286   2.251
 1209SOL    HW2 4866   0.182   1.240   2.287
 1209SOL    HW3 4867   0.251   1.274   2.156
 1209SOL    MW4 4868   0.247   1.278   2.243
 1210SOL     OW 4869   0.198   1.559   2.342
 1210SOL    HW2 4870   0.226   1.554   2.433
 1210SOL    HW3 4871   0.212   1.471   2.308
 1210SOL    MW4 4872   0.204   1.547   2.349
 1211SOL     OW 4873   4.476   1.704   2.256
 1211SOL    HW2 4874   4.472   1.775   2.320
 1211SOL    HW3 4875   4.551   1.651   2.283
 1211SOL    MW4 4876   4.485   1.706   2.268
 1212SOL     OW 4877   4.469   1.955   2.406
 1212SOL    HW2 4878   4.389   1.997   2.375
 1212SOL    HW3 4879   4.539   1.997   2.356
 1212SOL    MW4 4880   4.468   1.966   2.395
 1213SOL     OW 4881   0.202   2.070   2.254
 1213SOL    HW2 4882   0.290   2.040   2.277
 1213SOL    HW3 4883   0.189   2.039   2.164
 1213SOL    MW4 4884   0.212   2.062   2.245
 1214SOL     OW 4885   0.217   2.336   2.290
 1214SOL    HW2 4886   0.227   2.333   2.386
 1214SOL    HW3 4887   0.211   2.244   2.264
 1214SOL    MW4 4888   0.218   2.323   2.300
 1215SOL     OW 4889   4.456   2.449   2.292
 1215SOL    HW2 4890   4.473   2.543   2.298
 1215SOL    HW3 4891   4.544   2.409   2.294
 1215SOL    MW4 4892   4.470   2.456   2.293
 1216SOL     OW 4893   4.486   2.719   2.331
 1216SOL    HW2 4894   4.478   2.736   2.425
 1216SOL    HW3 4895   4.574   2.750   2.309
 1216SOL    MW4 4896   4.497   2.726   2.340
 1217SOL     OW 4897   0.225   2.843   2.258
 1217SOL    HW2 4898   0.307   2.805   2.290
 1217SOL    HW3 4899   0.237   2.848   2.163
 1217SOL    MW4 4900   0.238   2.839   2.250
 1218SOL     OW 4901   0.241   3.092   2.382
 1218SOL    HW2 4902   0.161   3.137   2.353
 1218SOL    HW3 4903   0.237   3.007   2.337
 1218SOL    MW4 4904   0.230   3.087   2.372
 1219SOL     OW 4905   0.008   3.253   2.310
 1219SOL    HW2 4906   0.037   3.343   2.324
 1219SOL    HW3 4907  -0.014   3.249   2.217
 1219SOL    MW4 4908   0.009   3.265   2.300
 1220SOL     OW 4909   0.047   3.520   2.392
 1220SOL    HW2 4910   0.051   3.511   2.487
 1220SOL    HW3 4911  -0.041   3.554   2.374
 1220SOL    MW4 4912   0.036   3.524   2.402
 1221SOL     OW 4913   0.241   3.667   2.262
 1221SOL    HW2 4914   0.316   3.625   2.304
 1221SOL    HW3 4915   0.165   3.626   2.303
 1221SOL    MW4 4916   0.241   3.656   2.273
 1222SOL     OW 4917   0.230   3.914   2.383
 1222SOL    HW2 4918   0.159   3.958   2.337
 1222SOL    HW3 4919   0.240   3.831   2.337
 1222SOL    MW4 4920   0.222   3.909   2.371
 1223SOL     OW 4921   4.474   3.974   2.240
 1223SOL    HW2 4922   4.468   4.064   2.271
 1223SOL    HW3 4923   4.482   3.982   2.145
 1223SOL    MW4 4924   4.474   3.987   2.231
 1224SOL     OW 4925   4.455   4.239   2.362
 1224SOL    HW2 4926   4.470   4.240   2.456
 1224SOL    HW3 4927   4.525   4.295   2.326
 1224SOL    MW4 4928   4.466   4.247   2.370
 1225SOL     OW 4929   0.167   4.374   2.254
 1225SOL    HW2 4930   0.249   4.337   2.287
 1225SOL    HW3 4931   0.152   4.451   2.308
 1225SOL    MW4 4932   0.176   4.379   2.266
 1226SOL     OW 4933   0.645   4.661   2.368
 1226SOL    HW2 4934   0.653   4.653   2.463
 1226SOL    HW3 4935   0.716   4.720   2.343
 1226SOL    MW4 4936   0.655   4.668   2.377
 1227SOL     OW 4937   0.396   0.077   2.256
 1227SOL    HW2 4938   0.476   0.049   2.301
 1227SOL    HW3 4939   0.423   0.091   2.165
 1227SOL    MW4 4940   0.410   0.075   2.250
 1228SOL     OW 4941   0.428   0.320   2.353
 1228SOL    HW2 4942   0.458   0.318   2.444
 1228SOL    HW3 4943   0.418   0.228   2.329
 1228SOL    MW4 4944   0.431   0.308   2.362
 1229SOL     OW 4945   0.605   0.483   2.209
 1229SOL    HW2 4946   0.615   0.563   2.260
 1229SOL    HW3 4947   0.535   0.435   2.253
 1229SOL    MW4 4948   0.597   0.487   2.222
 1230SOL     OW 4949   0.640   0.725   2.326
 1230SOL    HW2 4950   0.632   0.713   2.421
 1230SOL    HW3 4951   0.568   0.784   2.303
 1230SOL    MW4 4952   0.629   0.731   2.336
 1231SOL     OW 4953   0.456   0.896   2.234
 1231SOL    HW2 4954   0.368   0.868   2.259
 1231SOL    HW3 4955   0.456   0.891   2.139
 1231SOL    MW4 4956   0.444   0.892   2.225
 1232SOL     OW 4957   0.501   1.157   2.317
 1232SOL    HW2 4958   0.489   1.064   2.299
 1232SOL    HW3 4959   0.414   1.195   2.301
 1232SOL    MW4 4960   0.488   1.150   2.313
 1233SOL     OW 4961   0.718   1.298   2.179
 1233SOL    HW2 4962   0.705   1.383   2.221
 1233SOL    HW3 4963   0.642   1.247   2.203
 1233SOL    MW4 4964   0.707   1.303   2.187
 1234SOL     OW 4965   0.687   1.531   2.319
 1234SOL    HW2 4966   0.671   1.548   2.412
 1234SOL    HW3 4967   0.773   1.569   2.302
 1234SOL    MW4 4968   0.696   1.538   2.329
 1235SOL     OW 4969   0.453   1.662   2.234
 1235SOL    HW2 4970   0.529   1.619   2.274
 1235SOL    HW3 4971   0.379   1.637   2.289
 1235SOL    MW4 4972   0.454   1.653   2.246
 1236SOL     OW 4973   0.459   1.928   2.276
 1236SOL    HW2 4974   0.540   1.967   2.244
 1236SOL    HW3 4975   0.460   1.839   2.243
 1236SOL    MW4 4976   0.470   1.922   2.267
 1237SOL     OW 4977   0.687   2.094   2.230
 1237SOL    HW2 4978   0.761   2.046   2.268
 1237SOL    HW3 4979   0.681   2.174   2.282
 1237SOL    MW4 4980   0.696   2.098   2.242
 1238SOL     OW 4981   0.658   2.350   2.339
 1238SOL    HW2 4982   0.662   2.351   2.434
 1238SOL    HW3 4983   0.745   2.379   2.311
 1238SOL    MW4 4984   0.670   2.354   2.348
 1239SOL     OW 4985   0.432   2.486   2.217
 1239SOL    HW2 4986   0.500   2.451   2.274
 1239SOL    HW3 4987   0.353   2.437   2.241
 1239SOL    MW4 4988   0.430   2.475   2.228
 1240SOL     OW 4989   0.426   2.717   2.374
 1240SOL    HW2 4990   0.432   2.697   2.467
 1240SOL    HW3 4991   0.427   2.631   2.331
 1240SOL    MW4 4992   0.427   2.703   2.380
 1241SOL     OW 4993   0.673   2.858   2.273
 1241SOL    HW2 4994   0.757   2.826   2.306
 1241SOL    HW3 4995   0.607   2.803   2.316
 1241SOL    MW4 4996   0.675   2.847   2.283
 1242SOL     OW 4997   0.689   3.092   2.393
 1242SOL    HW2 4998   0.618   3.136   2.345
 1242SOL    HW3 4999   0.685   3.001   2.362
 1242SOL    MW4 5000   0.679   3.085   2.382
 1243SOL     OW 5001   0.472   3.230   2.296
 1243SOL    HW2 5002   0.405   3.175   2.338
 1243SOL    HW3 5003   0.453   3.224   2.203
 1243SOL    MW4 5004   0.460   3.222   2.290
 1244SOL     OW 5005   0.457   3.515   2.374
 1244SOL    HW2 5006   0.544   3.552   2.358
 1244SOL    HW3 5007   0.457   3.433   2.324
 1244SOL    MW4 5008   0.469   3.509   2.366
 1245SOL     OW 5009   0.709   3.633   2.292
 1245SOL    HW2 5010   0.727   3.726   2.311
 1245SOL    HW3 5011   0.697   3.630   2.197
 1245SOL    MW4 5012   0.710   3.645   2.282
 1246SOL     OW 5013   0.730   3.919   2.374
 1246SOL    HW2 5014   0.695   3.903   2.462
 1246SOL    HW3 5015   0.659   3.964   2.328
 1246SOL    MW4 5016   0.716   3.923   2.379
 1247SOL     OW 5017   0.469   4.019   2.285
 1247SOL    HW2 5018   0.387   3.989   2.325
 1247SOL    HW3 5019   0.455   4.007   2.191
 1247SOL    MW4 5020   0.456   4.014   2.278
 1248SOL     OW 5021   0.414   4.280   2.335
 1248SOL    HW2 5022   0.496   4.328   2.322
 1248SOL    HW3 5023   0.433   4.190   2.309
 1248SOL    MW4 5024   0.427   4.275   2.330
 1249SOL     OW 5025   0.664   4.393   2.262
 1249SOL    HW2 5026   0.671   4.485   2.285
 1249SOL    HW3 5027   0.638   4.393   2.170
 1249SOL    MW4 5028   0.661   4.405   2.253
 1250SOL     OW 5029   1.102   4.644   2.395
 1250SOL    HW2 5030   1.115   4.649   2.490
 1250SOL    HW3 5031   1.026   4.700   2.378
 1250SOL    MW4 5032   1.093   4.652   2.405
 1251SOL     OW 5033   0.878   0.128   2.296
 1251SOL    HW2 5034   0.867   0.222   2.308
 1251SOL    HW3 5035   0.892   0.118   2.201
 1251SOL    MW4 5036   0.878   0.139   2.285
 1252SOL     OW 5037   0.825   0.404   2.362
 1252SOL    HW2 5038   0.903   0.445   2.326
 1252SOL    HW3 5039   0.754   0.431   2.303
 1252SOL    MW4 5040   0.826   0.413   2.349
 1253SOL     OW 5041   1.056   0.511   2.284
 1253SOL    HW2 5042   1.136   0.472   2.318
 1253SOL    HW3 5043   1.062   0.499   2.189
 1253SOL    MW4 5044   1.067   0.504   2.276
 1254SOL     OW 5045   1.104   0.773   2.361
 1254SOL    HW2 5046   1.036   0.815   2.309
 1254SOL    HW3 5047   1.094   0.680   2.344
 1254SOL    MW4 5048   1.094   0.767   2.352
 1255SOL     OW 5049   0.857   0.881   2.242
 1255SOL    HW2 5050   0.852   0.965   2.288
 1255SOL    HW3 5051   0.775   0.837   2.263
 1255SOL    MW4 5052   0.846   0.886   2.251
 1256SOL     OW 5053   0.864   1.141   2.359
 1256SOL    HW2 5054   0.948   1.188   2.363
 1256SOL    HW3 5055   0.807   1.200   2.310
 1256SOL    MW4 5056   0.868   1.155   2.353
 1257SOL     OW 5057   1.111   1.266   2.274
 1257SOL    HW2 5058   1.185   1.211   2.299
 1257SOL    HW3 5059   1.118   1.274   2.179
 1257SOL    MW4 5060   1.122   1.260   2.264
 1258SOL     OW 5061   1.131   1.556   2.391
 1258SOL    HW2 5062   1.055   1.603   2.356
 1258SOL    HW3 5063   1.129   1.471   2.346
 1258SOL    MW4 5064   1.121   1.551   2.380
 1259SOL     OW 5065   0.918   1.688   2.265
 1259SOL    HW2 5066   0.921   1.778   2.295
 1259SOL    HW3 5067   0.895   1.694   2.172
 1259SOL    MW4 5068   0.915   1.701   2.257
 1260SOL     OW 5069   0.904   1.973   2.330
 1260SOL    HW2 5070   0.891   1.966   2.425
 1260SOL    HW3 5071   0.992   2.009   2.321
 1260SOL    MW4 5072   0.914   1.977   2.342
 1261SOL     OW 5073   1.157   2.066   2.280
 1261SOL    HW2 5074   1.224   2.009   2.318
 1261SOL    HW3 5075   1.166   2.054   2.185
 1261SOL    MW4 5076   1.167   2.057   2.272
 1262SOL     OW 5077   1.098   2.309   2.394
 1262SOL    HW2 5078   1.171   2.365   2.366
 1262SOL    HW3 5079   1.120   2.223   2.359
 1262SOL    MW4 5080   1.111   2.305   2.386
 1263SOL     OW 5081   0.914   2.454   2.270
 1263SOL    HW2 5082   0.983   2.402   2.312
 1263SOL    HW3 5083   0.932   2.446   2.176
 1263SOL    MW4 5084   0.926   2.446   2.263
 1264SOL     OW 5085   0.905   2.736   2.378
 1264SOL    HW2 5086   0.894   2.741   2.473
 1264SOL    HW3 5087   0.903   2.643   2.358
 1264SOL    MW4 5088   0.903   2.725   2.388
 1265SOL     OW 5089   1.147   2.862   2.246
 1265SOL    HW2 5090   1.222   2.823   2.291
 1265SOL    HW3 5091   1.071   2.820   2.287
 1265SOL    MW4 5092   1.146   2.851   2.258
 1266SOL     OW 5093   1.106   3.090   2.389
 1266SOL    HW2 5094   1.034   3.130   2.339
 1266SOL    HW3 5095   1.116   3.003   2.351
 1266SOL    MW4 5096   1.098   3.084   2.377
 1267SOL     OW 5097   0.890   3.227   2.276
 1267SOL    HW2 5098   0.917   3.308   2.320
 1267SOL    HW3 5099   0.814   3.197   2.325
 1267SOL    MW4 5100   0.884   3.234   2.288
 1268SOL     OW 5101   0.948   3.485   2.340
 1268SOL    HW2 5102   0.943   3.478   2.435
 1268SOL    HW3 5103   0.878   3.545   2.316
 1268SOL    MW4 5104   0.938   3.492   2.349
 1269SOL     OW 5105   1.171   3.607   2.244
 1269SOL    HW2 5106   1.234   3.556   2.294
 1269SOL    HW3 5107   1.085   3.573   2.272
 1269SOL    MW4 5108   1.168   3.596   2.254
 1270SOL     OW 5109   1.152   3.867   2.330
 1270SOL    HW2 5110   1.234   3.910   2.305
 1270SOL    HW3 5111   1.160   3.779   2.294
 1270SOL    MW4 5112   1.164   3.861   2.322
 1271SOL     OW 5113   0.942   4.019   2.231
 1271SOL    HW2 5114   1.019   3.979   2.272
 1271SOL    HW3 5115   0.868   3.984   2.281
 1271SOL    MW4 5116   0.942   4.009   2.243
 1272SOL     OW 5117   0.904   4.256   2.354
 1272SOL    HW2 5118   0.911   4.171   2.309
 1272SOL    HW3 5119   0.819   4.290   2.326
 1272SOL    MW4 5120   0.894   4.249   2.344
 1273SOL     OW 5121   1.119   4.400   2.280
 1273SOL    HW2 5122   1.038   4.356   2.307
 1273SOL    HW3 5123   1.118   4.483   2.326
 1273SOL    MW4 5124   1.108   4.405   2.289
 1274SOL     OW 5125   1.563   4.647   2.350
 1274SOL    HW2 5126   1.636   4.699   2.318
 1274SOL    HW3 5127   1.486   4.699   2.331
 1274SOL    MW4 5128   1.563   4.661   2.344
 1275SOL     OW 5129   1.334   0.094   2.284
 1275SOL    HW2 5130   1.324   0.186   2.308
 1275SOL    HW3 5131   1.263   0.050   2.330
 1275SOL    MW4 5132   1.323   0.101   2.293
 1276SOL     OW 5133   1.281   0.368   2.365
 1276SOL    HW2 5134   1.280   0.358   2.460
 1276SOL    HW3 5135   1.368   0.404   2.346
 1276SOL    MW4 5136   1.293   0.371   2.375
 1277SOL     OW 5137   1.535   0.460   2.266
 1277SOL    HW2 5138   1.620   0.426   2.295
 1277SOL    HW3 5139   1.543   0.467   2.170
 1277SOL    MW4 5140   1.547   0.456   2.257
 1278SOL     OW 5141   1.560   0.717   2.374
 1278SOL    HW2 5142   1.641   0.747   2.333
 1278SOL    HW3 5143   1.551   0.626   2.344
 1278SOL    MW4 5144   1.570   0.709   2.365
 1279SOL     OW 5145   1.354   0.861   2.260
 1279SOL    HW2 5146   1.421   0.809   2.304
 1279SOL    HW3 5147   1.271   0.824   2.289
 1279SOL    MW4 5148   1.352   0.850   2.270
 1280SOL     OW 5149   1.311   1.099   2.361
 1280SOL    HW2 5150   1.304   1.091   2.456
 1280SOL    HW3 5151   1.321   1.008   2.331
 1280SOL    MW4 5152   1.312   1.086   2.370
 1281SOL     OW 5153   1.559   1.196   2.319
 1281SOL    HW2 5154   1.472   1.158   2.329
 1281SOL    HW3 5155   1.570   1.208   2.225
 1281SOL    MW4 5156   1.549   1.193   2.308
 1282SOL     OW 5157   1.501   1.484   2.365
 1282SOL    HW2 5158   1.589   1.522   2.367
 1282SOL    HW3 5159   1.514   1.392   2.344
 1282SOL    MW4 5160   1.514   1.477   2.362
 1283SOL     OW 5161   1.349   1.697   2.268
 1283SOL    HW2 5162   1.420   1.640   2.300
 1283SOL    HW3 5163   1.272   1.667   2.316
 1283SOL    MW4 5164   1.348   1.685   2.279
 1284SOL     OW 5165   1.372   1.929   2.408
 1284SOL    HW2 5166   1.430   1.993   2.367
 1284SOL    HW3 5167   1.384   1.849   2.357
 1284SOL    MW4 5168   1.381   1.927   2.396
 1285SOL     OW 5169   1.563   2.091   2.273
 1285SOL    HW2 5170   1.632   2.038   2.311
 1285SOL    HW3 5171   1.563   2.069   2.180
 1285SOL    MW4 5172   1.572   2.081   2.266
 1286SOL     OW 5173   1.508   2.351   2.348
 1286SOL    HW2 5174   1.534   2.354   2.440
 1286SOL    HW3 5175   1.512   2.258   2.325
 1286SOL    MW4 5176   1.512   2.339   2.357
 1287SOL     OW 5177   1.285   2.495   2.267
 1287SOL    HW2 5178   1.358   2.445   2.305
 1287SOL    HW3 5179   1.299   2.488   2.172
 1287SOL    MW4 5180   1.297   2.487   2.259
 1288SOL     OW 5181   1.349   2.743   2.394
 1288SOL    HW2 5182   1.428   2.792   2.372
 1288SOL    HW3 5183   1.348   2.670   2.333
 1288SOL    MW4 5184   1.359   2.740   2.383
 1289SOL     OW 5185   1.585   2.879   2.296
 1289SOL    HW2 5186   1.580   2.970   2.326
 1289SOL    HW3 5187   1.597   2.886   2.201
 1289SOL    MW4 5188   1.586   2.892   2.287
 1290SOL     OW 5189   1.594   3.139   2.380
 1290SOL    HW2 5190   1.610   3.123   2.473
 1290SOL    HW3 5191   1.506   3.177   2.377
 1290SOL    MW4 5192   1.584   3.142   2.392
 1291SOL     OW 5193   1.339   3.226   2.293
 1291SOL    HW2 5194   1.267   3.170   2.321
 1291SOL    HW3 5195   1.336   3.222   2.197
 1291SOL    MW4 5196   1.329   3.218   2.284
 1292SOL     OW 5197   1.383   3.488   2.398
 1292SOL    HW2 5198   1.373   3.502   2.492
 1292SOL    HW3 5199   1.384   3.393   2.388
 1292SOL    MW4 5200   1.382   3.477   2.409
 1293SOL     OW 5201   1.576   3.604   2.229
 1293SOL    HW2 5202   1.582   3.696   2.254
 1293SOL    HW3 5203   1.508   3.567   2.285
 1293SOL    MW4 5204   1.568   3.611   2.240
 1294SOL     OW 5205   1.588   3.853   2.331
 1294SOL    HW2 5206   1.567   3.857   2.424
 1294SOL    HW3 5207   1.658   3.917   2.319
 1294SOL    MW4 5208   1.594   3.862   2.341
 1295SOL     OW 5209   1.367   4.026   2.244
 1295SOL    HW2 5210   1.443   3.977   2.276
 1295SOL    HW3 5211   1.368   4.013   2.149
 1295SOL    MW4 5212   1.377   4.018   2.236
 1296SOL     OW 5213   1.371   4.287   2.350
 1296SOL    HW2 5214   1.362   4.202   2.308
 1296SOL    HW3 5215   1.283   4.324   2.348
 1296SOL    MW4 5216   1.358   4.281   2.344
 1297SOL     OW 5217   1.600   4.398   2.200
 1297SOL    HW2 5218   1.527   4.364   2.252
 1297SOL    HW3 5219   1.599   4.492   2.216
 1297SOL    MW4 5220   1.590   4.406   2.209
 1298SOL     OW 5221   2.006   4.644   2.345
 1298SOL    HW2 5222   2.093   4.661   2.309
 1298SOL    HW3 5223   1.994   4.550   2.334
 1298SOL    MW4 5224   2.016   4.634   2.339
 1299SOL     OW 5225   1.799   0.096   2.223
 1299SOL    HW2 5226   1.805   0.183   2.263
 1299SOL    HW3 5227   1.866   0.045   2.269
 1299SOL    MW4 5228   1.809   0.101   2.235
 1300SOL     OW 5229   1.782   0.365   2.334
 1300SOL    HW2 5230   1.784   0.369   2.429
 1300SOL    HW3 5231   1.858   0.416   2.306
 1300SOL    MW4 5232   1.792   0.372   2.343
 1301SOL     OW 5233   2.015   0.509   2.273
 1301SOL    HW2 5234   2.016   0.600   2.303
 1301SOL    HW3 5235   2.011   0.515   2.178
 1301SOL    MW4 5236   2.015   0.522   2.264
 1302SOL     OW 5237   2.007   0.787   2.372
 1302SOL    HW2 5238   2.058   0.854   2.327
 1302SOL    HW3 5239   1.916   0.807   2.350
 1302SOL    MW4 5240   2.002   0.798   2.363
 1303SOL     OW 5241   1.773   0.847   2.234
 1303SOL    HW2 5242   1.785   0.936   2.267
 1303SOL    HW3 5243   1.783   0.854   2.139
 1303SOL    MW4 5244   1.776   0.859   2.226
 1304SOL     OW 5245   1.803   1.075   2.389
 1304SOL    HW2 5246   1.861   1.151   2.384
 1304SOL    HW3 5247   1.716   1.111   2.369
 1304SOL    MW4 5248   1.799   1.090   2.386
 1305SOL     OW 5249   1.982   1.304   2.346
 1305SOL    HW2 5250   1.984   1.398   2.367
 1305SOL    HW3 5251   1.993   1.301   2.251
 1305SOL    MW4 5252   1.984   1.316   2.337
 1306SOL     OW 5253   1.981   1.575   2.391
 1306SOL    HW2 5254   1.983   1.570   2.487
 1306SOL    HW3 5255   1.898   1.619   2.371
 1306SOL    MW4 5256   1.970   1.580   2.401
 1307SOL     OW 5257   1.722   1.665   2.311
 1307SOL    HW2 5258   1.711   1.749   2.356
 1307SOL    HW3 5259   1.737   1.688   2.220
 1307SOL    MW4 5260   1.723   1.679   2.305
 1308SOL     OW 5261   1.769   1.932   2.403
 1308SOL    HW2 5262   1.772   1.925   2.499
 1308SOL    HW3 5263   1.857   1.960   2.378
 1308SOL    MW4 5264   1.781   1.935   2.412
 1309SOL     OW 5265   2.002   2.032   2.281
 1309SOL    HW2 5266   2.085   1.994   2.310
 1309SOL    HW3 5267   2.006   2.027   2.185
 1309SOL    MW4 5268   2.013   2.026   2.272
 1310SOL     OW 5269   1.975   2.291   2.384
 1310SOL    HW2 5270   2.060   2.315   2.348
 1310SOL    HW3 5271   1.971   2.196   2.374
 1310SOL    MW4 5272   1.986   2.282   2.378
 1311SOL     OW 5273   1.769   2.450   2.278
 1311SOL    HW2 5274   1.828   2.382   2.312
 1311SOL    HW3 5275   1.681   2.420   2.301
 1311SOL    MW4 5276   1.765   2.437   2.286
 1312SOL     OW 5277   1.793   2.677   2.416
 1312SOL    HW2 5278   1.799   2.602   2.356
 1312SOL    HW3 5279   1.710   2.719   2.394
 1312SOL    MW4 5280   1.783   2.673   2.405
 1313SOL     OW 5281   2.004   2.823   2.296
 1313SOL    HW2 5282   2.086   2.777   2.314
 1313SOL    HW3 5283   1.935   2.763   2.325
 1313SOL    MW4 5284   2.006   2.809   2.303
 1314SOL     OW 5285   2.010   3.081   2.364
 1314SOL    HW2 5286   2.092   3.106   2.322
 1314SOL    HW3 5287   2.004   2.987   2.351
 1314SOL    MW4 5288   2.020   3.072   2.357
 1315SOL     OW 5289   1.820   3.270   2.274
 1315SOL    HW2 5290   1.893   3.219   2.310
 1315SOL    HW3 5291   1.742   3.229   2.311
 1315SOL    MW4 5292   1.820   3.258   2.284
 1316SOL     OW 5293   1.831   3.539   2.349
 1316SOL    HW2 5294   1.836   3.446   2.326
 1316SOL    HW3 5295   1.742   3.565   2.327
 1316SOL    MW4 5296   1.820   3.530   2.343
 1317SOL     OW 5297   2.069   3.637   2.274
 1317SOL    HW2 5298   1.980   3.612   2.300
 1317SOL    HW3 5299   2.064   3.644   2.179
 1317SOL    MW4 5300   2.056   3.635   2.265
 1318SOL     OW 5301   2.025   3.902   2.374
 1318SOL    HW2 5302   2.039   3.902   2.469
 1318SOL    HW3 5303   2.038   3.811   2.348
 1318SOL    MW4 5304   2.028   3.890   2.383
 1319SOL     OW 5305   1.795   4.013   2.263
 1319SOL    HW2 5306   1.875   3.964   2.282
 1319SOL    HW3 5307   1.788   4.011   2.168
 1319SOL    MW4 5308   1.805   4.006   2.253
 1320SOL     OW 5309   1.773   4.267   2.357
 1320SOL    HW2 5310   1.773   4.175   2.329
 1320SOL    HW3 5311   1.692   4.303   2.321
 1320SOL    MW4 5312   1.762   4.260   2.348
 1321SOL     OW 5313   2.012   4.373   2.254
 1321SOL    HW2 5314   1.932   4.325   2.274
 1321SOL    HW3 5315   2.021   4.366   2.159
 1321SOL    MW4 5316   2.003   4.366   2.244
 1322SOL     OW 5317   2.493   4.633   2.406
 1322SOL    HW2 5318   2.567   4.685   2.373
 1322SOL    HW3 5319   2.498   4.552   2.356
 1322SOL    MW4 5320   2.504   4.630   2.395
 1323SOL     OW 5321   2.267   0.067   2.278
 1323SOL    HW2 5322   2.253   0.152   2.319
 1323SOL    HW3 5323   2.346   0.033   2.320
 1323SOL    MW4 5324   2.275   0.074   2.289
 1324SOL     OW 5325   2.203   0.326   2.355
 1324SOL    HW2 5326   2.284   0.367   2.323
 1324SOL    HW3 5327   2.133   0.380   2.320
 1324SOL    MW4 5328   2.205   0.338   2.346
 1325SOL     OW 5329   2.446   0.451   2.264
 1325SOL    HW2 5330   2.524   0.408   2.299
 1325SOL    HW3 5331   2.458   0.450   2.169
 1325SOL    MW4 5332   2.458   0.445   2.256
 1326SOL     OW 5333   2.415   0.750   2.337
 1326SOL    HW2 5334   2.495   0.800   2.320
 1326SOL    HW3 5335   2.441   0.659   2.325
 1326SOL    MW4 5336   2.429   0.745   2.333
 1327SOL     OW 5337   2.244   0.940   2.185
 1327SOL    HW2 5338   2.232   1.012   2.247
 1327SOL    HW3 5339   2.294   0.874   2.234
 1327SOL    MW4 5340   2.249   0.941   2.200
 1328SOL     OW 5341   2.204   1.150   2.364
 1328SOL    HW2 5342   2.273   1.192   2.313
 1328SOL    HW3 5343   2.128   1.208   2.355
 1328SOL    MW4 5344   2.203   1.163   2.356
 1329SOL     OW 5345   2.422   1.306   2.242
 1329SOL    HW2 5346   2.501   1.263   2.273
 1329SOL    HW3 5347   2.426   1.395   2.277
 1329SOL    MW4 5348   2.433   1.312   2.251
 1330SOL     OW 5349   2.462   1.557   2.354
 1330SOL    HW2 5350   2.474   1.552   2.449
 1330SOL    HW3 5351   2.549   1.576   2.319
 1330SOL    MW4 5352   2.475   1.559   2.362
 1331SOL     OW 5353   2.213   1.666   2.279
 1331SOL    HW2 5354   2.287   1.617   2.315
 1331SOL    HW3 5355   2.136   1.624   2.317
 1331SOL    MW4 5356   2.213   1.654   2.289
 1332SOL     OW 5357   2.234   1.913   2.392
 1332SOL    HW2 5358   2.311   1.956   2.356
 1332SOL    HW3 5359   2.243   1.821   2.367
 1332SOL    MW4 5360   2.245   1.907   2.384
 1333SOL     OW 5361   2.441   2.064   2.279
 1333SOL    HW2 5362   2.525   2.019   2.292
 1333SOL    HW3 5363   2.428   2.065   2.185
 1333SOL    MW4 5364   2.451   2.058   2.269
 1334SOL     OW 5365   2.449   2.333   2.376
 1334SOL    HW2 5366   2.534   2.359   2.341
 1334SOL    HW3 5367   2.442   2.240   2.356
 1334SOL    MW4 5368   2.459   2.324   2.369
 1335SOL     OW 5369   2.191   2.431   2.286
 1335SOL    HW2 5370   2.191   2.519   2.326
 1335SOL    HW3 5371   2.278   2.396   2.307
 1335SOL    MW4 5372   2.202   2.438   2.294
 1336SOL     OW 5373   2.221   2.691   2.365
 1336SOL    HW2 5374   2.228   2.694   2.460
 1336SOL    HW3 5375   2.302   2.731   2.334
 1336SOL    MW4 5376   2.233   2.697   2.374
 1337SOL     OW 5377   2.460   2.800   2.292
 1337SOL    HW2 5378   2.538   2.748   2.308
 1337SOL    HW3 5379   2.455   2.807   2.197
 1337SOL    MW4 5380   2.470   2.794   2.282
 1338SOL     OW 5381   2.480   3.071   2.351
 1338SOL    HW2 5382   2.563   3.104   2.317
 1338SOL    HW3 5383   2.493   2.977   2.359
 1338SOL    MW4 5384   2.492   3.063   2.347
 1339SOL     OW 5385   2.260   3.196   2.263
 1339SOL    HW2 5386   2.267   3.284   2.301
 1339SOL    HW3 5387   2.332   3.147   2.302
 1339SOL    MW4 5388   2.270   3.201   2.273
 1340SOL     OW 5389   2.267   3.477   2.365
 1340SOL    HW2 5390   2.263   3.484   2.460
 1340SOL    HW3 5391   2.204   3.543   2.334
 1340SOL    MW4 5392   2.258   3.487   2.373
 1341SOL     OW 5393   2.499   3.583   2.268
 1341SOL    HW2 5394   2.500   3.663   2.320
 1341SOL    HW3 5395   2.427   3.532   2.305
 1341SOL    MW4 5396   2.489   3.587   2.280
 1342SOL     OW 5397   2.496   3.838   2.357
 1342SOL    HW2 5398   2.484   3.836   2.452
 1342SOL    HW3 5399   2.424   3.893   2.325
 1342SOL    MW4 5400   2.485   3.845   2.365
 1343SOL     OW 5401   2.268   4.006   2.310
 1343SOL    HW2 5402   2.270   4.098   2.338
 1343SOL    HW3 5403   2.177   3.980   2.320
 1343SOL    MW4 5404   2.256   4.015   2.315
 1344SOL     OW 5405   2.252   4.276   2.349
 1344SOL    HW2 5406   2.251   4.303   2.441
 1344SOL    HW3 5407   2.167   4.305   2.315
 1344SOL    MW4 5408   2.241   4.283   2.357
 1345SOL     OW 5409   2.489   4.378   2.257
 1345SOL    HW2 5410   2.556   4.339   2.313
 1345SOL    HW3 5411   2.407   4.339   2.286
 1345SOL    MW4 5412   2.487   4.368   2.268
 1346SOL     OW 5413   2.910   0.005   2.399
 1346SOL    HW2 5414   2.975   0.054   2.348
 1346SOL    HW3 5415   2.909  -0.082   2.358
 1346SOL    MW4 5416   2.919   0.000   2.387
 1347SOL     OW 5417   2.682   0.118   2.276
 1347SOL    HW2 5418   2.684   0.212   2.295
 1347SOL    HW3 5419   2.766   0.085   2.308
 1347SOL    MW4 5420   2.693   0.126   2.283
 1348SOL     OW 5421   2.690   0.369   2.371
 1348SOL    HW2 5422   2.696   0.371   2.467
 1348SOL    HW3 5423   2.753   0.436   2.343
 1348SOL    MW4 5424   2.699   0.378   2.380
 1349SOL     OW 5425   2.893   0.526   2.285
 1349SOL    HW2 5426   2.883   0.615   2.320
 1349SOL    HW3 5427   2.892   0.538   2.190
 1349SOL    MW4 5428   2.892   0.540   2.277
 1350SOL     OW 5429   2.908   0.779   2.398
 1350SOL    HW2 5430   2.914   0.783   2.493
 1350SOL    HW3 5431   2.837   0.840   2.376
 1350SOL    MW4 5432   2.899   0.787   2.408
 1351SOL     OW 5433   2.678   0.920   2.300
 1351SOL    HW2 5434   2.647   1.007   2.323
 1351SOL    HW3 5435   2.702   0.927   2.207
 1351SOL    MW4 5436   2.677   0.932   2.291
 1352SOL     OW 5437   2.641   1.192   2.366
 1352SOL    HW2 5438   2.663   1.171   2.457
 1352SOL    HW3 5439   2.718   1.237   2.332
 1352SOL    MW4 5440   2.654   1.195   2.374
 1353SOL     OW 5441   2.883   1.286   2.292
 1353SOL    HW2 5442   2.941   1.224   2.338
 1353SOL    HW3 5443   2.907   1.276   2.200
 1353SOL    MW4 5444   2.894   1.276   2.286
 1354SOL     OW 5445   2.927   1.539   2.386
 1354SOL    HW2 5446   2.908   1.543   2.479
 1354SOL    HW3 5447   2.920   1.446   2.364
 1354SOL    MW4 5448   2.924   1.527   2.395
 1355SOL     OW 5449   2.702   1.658   2.251
 1355SOL    HW2 5450   2.785   1.614   2.272
 1355SOL    HW3 5451   2.703   1.667   2.156
 1355SOL    MW4 5452   2.713   1.653   2.241
 1356SOL     OW 5453   2.669   1.924   2.330
 1356SOL    HW2 5454   2.683   1.942   2.423
 1356SOL    HW3 5455   2.689   1.831   2.321
 1356SOL    MW4 5456   2.674   1.914   2.341
 1357SOL     OW 5457   2.882   2.070   2.245
 1357SOL    HW2 5458   2.956   2.024   2.285
 1357SOL    HW3 5459   2.806   2.020   2.271
 1357SOL    MW4 5460   2.882   2.058   2.254
 1358SOL     OW 5461   2.941   2.335   2.327
 1358SOL    HW2 5462   2.938   2.338   2.423
 1358SOL    HW3 5463   2.927   2.242   2.306
 1358SOL    MW4 5464   2.939   2.323   2.337
 1359SOL     OW 5465   2.683   2.421   2.266
 1359SOL    HW2 5466   2.775   2.410   2.293
 1359SOL    HW3 5467   2.686   2.416   2.170
 1359SOL    MW4 5468   2.696   2.419   2.257
 1360SOL     OW 5469   2.677   2.676   2.398
 1360SOL    HW2 5470   2.754   2.721   2.364
 1360SOL    HW3 5471   2.681   2.588   2.359
 1360SOL    MW4 5472   2.688   2.670   2.388
 1361SOL     OW 5473   2.883   2.810   2.263
 1361SOL    HW2 5474   2.905   2.892   2.306
 1361SOL    HW3 5475   2.892   2.828   2.169
 1361SOL    MW4 5476   2.887   2.823   2.256
 1362SOL     OW 5477   2.926   3.065   2.383
 1362SOL    HW2 5478   3.004   3.117   2.366
 1362SOL    HW3 5479   2.854   3.116   2.345
 1362SOL    MW4 5480   2.927   3.079   2.376
 1363SOL     OW 5481   2.708   3.191   2.261
 1363SOL    HW2 5482   2.714   3.286   2.275
 1363SOL    HW3 5483   2.705   3.181   2.165
 1363SOL    MW4 5484   2.709   3.202   2.250
 1364SOL     OW 5485   2.744   3.468   2.338
 1364SOL    HW2 5486   2.811   3.518   2.292
 1364SOL    HW3 5487   2.661   3.497   2.300
 1364SOL    MW4 5488   2.742   3.478   2.327
 1365SOL     OW 5489   2.957   3.622   2.226
 1365SOL    HW2 5490   3.036   3.579   2.260
 1365SOL    HW3 5491   2.943   3.697   2.284
 1365SOL    MW4 5492   2.966   3.626   2.238
 1366SOL     OW 5493   2.944   3.863   2.359
 1366SOL    HW2 5494   2.943   3.843   2.452
 1366SOL    HW3 5495   2.865   3.915   2.345
 1366SOL    MW4 5496   2.933   3.867   2.369
 1367SOL     OW 5497   2.708   4.013   2.295
 1367SOL    HW2 5498   2.632   3.957   2.307
 1367SOL    HW3 5499   2.710   4.031   2.201
 1367SOL    MW4 5500   2.698   4.008   2.284
 1368SOL     OW 5501   2.714   4.260   2.404
 1368SOL    HW2 5502   2.710   4.266   2.499
 1368SOL    HW3 5503   2.718   4.166   2.386
 1368SOL    MW4 5504   2.714   4.249   2.414
 1369SOL     OW 5505   2.906   4.415   2.285
 1369SOL    HW2 5506   2.988   4.377   2.317
 1369SOL    HW3 5507   2.837   4.361   2.325
 1369SOL    MW4 5508   2.908   4.403   2.295
 1370SOL     OW 5509   3.362   0.026   2.353
 1370SOL    HW2 5510   3.359   0.031   2.449
 1370SOL    HW3 5511   3.444   0.069   2.330
 1370SOL    MW4 5512   3.372   0.032   2.363
 1371SOL     OW 5513   3.124   0.142   2.259
 1371SOL    HW2 5514   3.113   0.228   2.301
 1371SOL    HW3 5515   3.204   0.107   2.298
 1371SOL    MW4 5516   3.133   0.149   2.270
 1372SOL     OW 5517   3.099   0.382   2.381
 1372SOL    HW2 5518   3.177   0.431   2.355
 1372SOL    HW3 5519   3.026   0.434   2.345
 1372SOL    MW4 5520   3.099   0.395   2.373
 1373SOL     OW 5521   3.337   0.505   2.299
 1373SOL    HW2 5522   3.406   0.449   2.334
 1373SOL    HW3 5523   3.357   0.514   2.206
 1373SOL    MW4 5524   3.349   0.499   2.291
 1374SOL     OW 5525   3.337   0.760   2.418
 1374SOL    HW2 5526   3.403   0.816   2.378
 1374SOL    HW3 5527   3.342   0.677   2.370
 1374SOL    MW4 5528   3.346   0.756   2.406
 1375SOL     OW 5529   3.142   0.885   2.282
 1375SOL    HW2 5530   3.205   0.847   2.343
 1375SOL    HW3 5531   3.057   0.854   2.313
 1375SOL    MW4 5532   3.139   0.876   2.294
 1376SOL     OW 5533   3.085   1.140   2.404
 1376SOL    HW2 5534   3.150   1.198   2.366
 1376SOL    HW3 5535   3.110   1.053   2.373
 1376SOL    MW4 5536   3.097   1.136   2.395
 1377SOL     OW 5537   3.308   1.271   2.318
 1377SOL    HW2 5538   3.394   1.241   2.344
 1377SOL    HW3 5539   3.314   1.367   2.321
 1377SOL    MW4 5540   3.320   1.280   2.322
 1378SOL     OW 5541   3.376   1.545   2.404
 1378SOL    HW2 5542   3.381   1.549   2.500
 1378SOL    HW3 5543   3.294   1.589   2.382
 1378SOL    MW4 5544   3.366   1.551   2.414
 1379SOL     OW 5545   3.140   1.678   2.280
 1379SOL    HW2 5546   3.126   1.768   2.310
 1379SOL    HW3 5547   3.070   1.627   2.321
 1379SOL    MW4 5548   3.129   1.683   2.289
 1380SOL     OW 5549   3.114   1.941   2.354
 1380SOL    HW2 5550   3.113   1.943   2.450
 1380SOL    HW3 5551   3.198   1.981   2.330
 1380SOL    MW4 5552   3.125   1.946   2.364
 1381SOL     OW 5553   3.364   2.057   2.274
 1381SOL    HW2 5554   3.426   1.989   2.299
 1381SOL    HW3 5555   3.366   2.058   2.179
 1381SOL    MW4 5556   3.372   2.048   2.265
 1382SOL     OW 5557   3.373   2.320   2.328
 1382SOL    HW2 5558   3.301   2.352   2.274
 1382SOL    HW3 5559   3.375   2.226   2.314
 1382SOL    MW4 5560   3.364   2.312   2.319
 1383SOL     OW 5561   3.165   2.427   2.211
 1383SOL    HW2 5562   3.166   2.517   2.244
 1383SOL    HW3 5563   3.085   2.389   2.248
 1383SOL    MW4 5564   3.155   2.434   2.220
 1384SOL     OW 5565   3.132   2.684   2.336
 1384SOL    HW2 5566   3.124   2.702   2.430
 1384SOL    HW3 5567   3.051   2.719   2.298
 1384SOL    MW4 5568   3.121   2.691   2.344
 1385SOL     OW 5569   3.360   2.827   2.230
 1385SOL    HW2 5570   3.364   2.917   2.263
 1385SOL    HW3 5571   3.289   2.787   2.280
 1385SOL    MW4 5572   3.351   2.834   2.241
 1386SOL     OW 5573   3.366   3.092   2.335
 1386SOL    HW2 5574   3.437   3.139   2.291
 1386SOL    HW3 5575   3.286   3.132   2.302
 1386SOL    MW4 5576   3.365   3.103   2.325
 1387SOL     OW 5577   3.114   3.215   2.263
 1387SOL    HW2 5578   3.129   3.307   2.287
 1387SOL    HW3 5579   3.085   3.219   2.171
 1387SOL    MW4 5580   3.112   3.228   2.254
 1388SOL     OW 5581   3.185   3.482   2.325
 1388SOL    HW2 5582   3.158   3.488   2.416
 1388SOL    HW3 5583   3.260   3.542   2.318
 1388SOL    MW4 5584   3.192   3.491   2.336
 1389SOL     OW 5585   3.401   3.648   2.267
 1389SOL    HW2 5586   3.468   3.588   2.299
 1389SOL    HW3 5587   3.402   3.636   2.172
 1389SOL    MW4 5588   3.410   3.638   2.259
 1390SOL     OW 5589   3.403   3.895   2.380
 1390SOL    HW2 5590   3.475   3.931   2.328
 1390SOL    HW3 5591   3.388   3.808   2.344
 1390SOL    MW4 5592   3.410   3.888   2.369
 1391SOL     OW 5593   3.183   4.027   2.254
 1391SOL    HW2 5594   3.262   3.994   2.299
 1391SOL    HW3 5595   3.113   3.969   2.285
 1391SOL    MW4 5596   3.185   4.015   2.264
 1392SOL     OW 5597   3.128   4.287   2.374
 1392SOL    HW2 5598   3.188   4.346   2.330
 1392SOL    HW3 5599   3.151   4.200   2.341
 1392SOL    MW4 5600   3.139   4.283   2.364
 1393SOL     OW 5601   3.328   4.442   2.284
 1393SOL    HW2 5602   3.339   4.536   2.301
 1393SOL    HW3 5603   3.333   4.435   2.188
 1393SOL    MW4 5604   3.330   4.454   2.273
 1394SOL     OW 5605   3.802   0.046   2.374
 1394SOL    HW2 5606   3.811   0.057   2.469
 1394SOL    HW3 5607   3.879   0.091   2.338
 1394SOL    MW4 5608   3.814   0.054   2.382
 1395SOL     OW 5609   3.580   0.165   2.260
 1395SOL    HW2 5610   3.584   0.248   2.308
 1395SOL    HW3 5611   3.657   0.117   2.290
 1395SOL    MW4 5612   3.591   0.170   2.270
 1396SOL     OW 5613   3.576   0.391   2.400
 1396SOL    HW2 5614   3.568   0.415   2.492
 1396SOL    HW3 5615   3.663   0.420   2.375
 1396SOL    MW4 5616   3.586   0.398   2.409
 1397SOL     OW 5617   3.822   0.523   2.331
 1397SOL    HW2 5618   3.811   0.616   2.352
 1397SOL    HW3 5619   3.809   0.518   2.236
 1397SOL    MW4 5620   3.819   0.535   2.321
 1398SOL     OW 5621   3.782   0.787   2.396
 1398SOL    HW2 5622   3.793   0.770   2.490
 1398SOL    HW3 5623   3.869   0.812   2.366
 1398SOL    MW4 5624   3.795   0.788   2.405
 1399SOL     OW 5625   3.550   0.905   2.312
 1399SOL    HW2 5626   3.628   0.859   2.342
 1399SOL    HW3 5627   3.557   0.906   2.217
 1399SOL    MW4 5628   3.561   0.899   2.303
 1400SOL     OW 5629   3.564   1.173   2.386
 1400SOL    HW2 5630   3.571   1.179   2.481
 1400SOL    HW3 5631   3.557   1.079   2.369
 1400SOL    MW4 5632   3.564   1.161   2.396
 1401SOL     OW 5633   3.808   1.258   2.249
 1401SOL    HW2 5634   3.828   1.346   2.280
 1401SOL    HW3 5635   3.730   1.232   2.298
 1401SOL    MW4 5636   3.800   1.266   2.259
 1402SOL     OW 5637   3.870   1.520   2.348
 1402SOL    HW2 5638   3.864   1.537   2.442
 1402SOL    HW3 5639   3.783   1.540   2.314
 1402SOL    MW4 5640   3.858   1.525   2.356
 1403SOL     OW 5641   3.612   1.606   2.276
 1403SOL    HW2 5642   3.541   1.592   2.338
 1403SOL    HW3 5643   3.569   1.603   2.190
 1403SOL    MW4 5644   3.597   1.604   2.273
 1404SOL     OW 5645   3.572   1.887   2.368
 1404SOL    HW2 5646   3.643   1.944   2.339
 1404SOL    HW3 5647   3.602   1.799   2.346
 1404SOL    MW4 5648   3.585   1.883   2.361
 1405SOL     OW 5649   3.765   2.052   2.286
 1405SOL    HW2 5650   3.845   2.009   2.315
 1405SOL    HW3 5651   3.774   2.056   2.190
 1405SOL    MW4 5652   3.777   2.047   2.277
 1406SOL     OW 5653   3.804   2.320   2.355
 1406SOL    HW2 5654   3.717   2.354   2.334
 1406SOL    HW3 5655   3.802   2.229   2.325
 1406SOL    MW4 5656   3.792   2.312   2.349
 1407SOL     OW 5657   3.593   2.469   2.250
 1407SOL    HW2 5658   3.516   2.425   2.286
 1407SOL    HW3 5659   3.591   2.450   2.156
 1407SOL    MW4 5660   3.583   2.461   2.243
 1408SOL     OW 5661   3.595   2.727   2.343
 1408SOL    HW2 5662   3.613   2.643   2.301
 1408SOL    HW3 5663   3.507   2.750   2.315
 1408SOL    MW4 5664   3.586   2.719   2.334
 1409SOL     OW 5665   3.823   2.857   2.264
 1409SOL    HW2 5666   3.806   2.948   2.291
 1409SOL    HW3 5667   3.746   2.809   2.294
 1409SOL    MW4 5668   3.810   2.863   2.272
 1410SOL     OW 5669   3.793   3.118   2.348
 1410SOL    HW2 5670   3.804   3.131   2.442
 1410SOL    HW3 5671   3.875   3.150   2.310
 1410SOL    MW4 5672   3.805   3.124   2.355
 1411SOL     OW 5673   3.583   3.243   2.221
 1411SOL    HW2 5674   3.576   3.321   2.276
 1411SOL    HW3 5675   3.650   3.190   2.264
 1411SOL    MW4 5676   3.591   3.247   2.234
 1412SOL     OW 5677   3.600   3.490   2.345
 1412SOL    HW2 5678   3.596   3.497   2.440
 1412SOL    HW3 5679   3.676   3.543   2.321
 1412SOL    MW4 5680   3.609   3.498   2.354
 1413SOL     OW 5681   3.817   3.619   2.262
 1413SOL    HW2 5682   3.807   3.712   2.282
 1413SOL    HW3 5683   3.819   3.615   2.166
 1413SOL    MW4 5684   3.816   3.631   2.252
 1414SOL     OW 5685   3.793   3.891   2.355
 1414SOL    HW2 5686   3.785   3.896   2.450
 1414SOL    HW3 5687   3.876   3.935   2.335
 1414SOL    MW4 5688   3.803   3.898   2.365
 1415SOL     OW 5689   3.598   4.057   2.235
 1415SOL    HW2 5690   3.583   4.133   2.291
 1415SOL    HW3 5691   3.674   4.013   2.274
 1415SOL    MW4 5692   3.606   4.061   2.247
 1416SOL     OW 5693   3.552   4.290   2.359
 1416SOL    HW2 5694   3.626   4.344   2.331
 1416SOL    HW3 5695   3.475   4.340   2.331
 1416SOL    MW4 5696   3.552   4.304   2.352
 1417SOL     OW 5697   3.777   4.423   2.298
 1417SOL    HW2 5698   3.859   4.384   2.329
 1417SOL    HW3 5699   3.775   4.510   2.337
 1417SOL    MW4 5700   3.788   4.429   2.307
 1418SOL     OW 5701   4.263   0.034   2.349
 1418SOL    HW2 5702   4.277   0.025   2.443
 1418SOL    HW3 5703   4.351   0.049   2.313
 1418SOL    MW4 5704   4.277   0.034   2.356
 1419SOL     OW 5705   4.032   0.188   2.301
 1419SOL    HW2 5706   4.037   0.263   2.360
 1419SOL    HW3 5707   4.116   0.143   2.313
 1419SOL    MW4 5708   4.044   0.192   2.310
 1420SOL     OW 5709   4.057   0.442   2.429
 1420SOL    HW2 5710   4.109   0.486   2.362
 1420SOL    HW3 5711   3.966   0.466   2.410
 1420SOL    MW4 5712   4.052   0.451   2.418
 1421SOL     OW 5713   4.242   0.530   2.217
 1421SOL    HW2 5714   4.262   0.612   2.261
 1421SOL    HW3 5715   4.309   0.469   2.249
 1421SOL    MW4 5716   4.254   0.533   2.227
 1422SOL     OW 5717   4.261   0.765   2.372
 1422SOL    HW2 5718   4.186   0.814   2.338
 1422SOL    HW3 5719   4.337   0.812   2.339
 1422SOL    MW4 5720   4.261   0.778   2.363
 1423SOL     OW 5721   4.018   0.881   2.251
 1423SOL    HW2 5722   4.017   0.977   2.256
 1423SOL    HW3 5723   4.003   0.861   2.159
 1423SOL    MW4 5724   4.016   0.891   2.240
 1424SOL     OW 5725   4.046   1.149   2.346
 1424SOL    HW2 5726   4.056   1.140   2.441
 1424SOL    HW3 5727   3.965   1.197   2.334
 1424SOL    MW4 5728   4.037   1.154   2.357
 1425SOL     OW 5729   4.285   1.289   2.268
 1425SOL    HW2 5730   4.208   1.242   2.299
 1425SOL    HW3 5731   4.359   1.245   2.311
 1425SOL    MW4 5732   4.285   1.277   2.278
 1426SOL     OW 5733   4.273   1.549   2.362
 1426SOL    HW2 5734   4.283   1.461   2.326
 1426SOL    HW3 5735   4.347   1.598   2.327
 1426SOL    MW4 5736   4.284   1.544   2.353
 1427SOL     OW 5737   4.070   1.701   2.255
 1427SOL    HW2 5738   4.138   1.645   2.293
 1427SOL    HW3 5739   3.988   1.656   2.273
 1427SOL    MW4 5740   4.068   1.688   2.262
 1428SOL     OW 5741   3.997   1.937   2.382
 1428SOL    HW2 5742   4.004   1.912   2.474
 1428SOL    HW3 5743   4.023   1.859   2.333
 1428SOL    MW4 5744   4.002   1.924   2.387
 1429SOL     OW 5745   4.238   2.071   2.291
 1429SOL    HW2 5746   4.241   2.160   2.327
 1429SOL    HW3 5747   4.158   2.033   2.328
 1429SOL    MW4 5748   4.228   2.078   2.301
 1430SOL     OW 5749   4.209   2.319   2.377
 1430SOL    HW2 5750   4.141   2.367   2.329
 1430SOL    HW3 5751   4.289   2.368   2.360
 1430SOL    MW4 5752   4.210   2.332   2.368
 1431SOL     OW 5753   4.026   2.461   2.230
 1431SOL    HW2 5754   4.025   2.551   2.264
 1431SOL    HW3 5755   3.947   2.421   2.265
 1431SOL    MW4 5756   4.016   2.468   2.239
 1432SOL     OW 5757   4.048   2.729   2.334
 1432SOL    HW2 5758   4.054   2.727   2.430
 1432SOL    HW3 5759   3.961   2.763   2.316
 1432SOL    MW4 5760   4.037   2.733   2.345
 1433SOL     OW 5761   4.281   2.883   2.255
 1433SOL    HW2 5762   4.198   2.839   2.270
 1433SOL    HW3 5763   4.348   2.820   2.282
 1433SOL    MW4 5764   4.279   2.869   2.261
 1434SOL     OW 5765   4.276   3.132   2.389
 1434SOL    HW2 5766   4.293   3.046   2.352
 1434SOL    HW3 5767   4.360   3.178   2.385
 1434SOL    MW4 5768   4.289   3.127   2.384
 1435SOL     OW 5769   4.058   3.232   2.256
 1435SOL    HW2 5770   4.056   3.322   2.287
 1435SOL    HW3 5771   4.141   3.197   2.288
 1435SOL    MW4 5772   4.069   3.239   2.264
 1436SOL     OW 5773   4.041   3.505   2.385
 1436SOL    HW2 5774   4.116   3.564   2.376
 1436SOL    HW3 5775   3.966   3.555   2.352
 1436SOL    MW4 5776   4.041   3.519   2.379
 1437SOL     OW 5777   4.273   3.626   2.316
 1437SOL    HW2 5778   4.271   3.721   2.328
 1437SOL    HW3 5779   4.260   3.613   2.222
 1437SOL    MW4 5780   4.271   3.637   2.305
 1438SOL     OW 5781   4.242   3.892   2.347
 1438SOL    HW2 5782   4.265   3.897   2.440
 1438SOL    HW3 5783   4.322   3.918   2.301
 1438SOL    MW4 5784   4.256   3.896   2.354
 1439SOL     OW 5785   4.023   4.033   2.263
 1439SOL    HW2 5786   4.097   3.979   2.293
 1439SOL    HW3 5787   4.020   4.019   2.169
 1439SOL    MW4 5788   4.032   4.024   2.255
 1440SOL     OW 5789   4.017   4.293   2.357
 1440SOL    HW2 5790   4.101   4.333   2.336
 1440SOL    HW3 5791   4.022   4.205   2.320
 1440SOL    MW4 5792   4.028   4.287   2.349
 1441SOL     OW 5793   4.255   4.398   2.267
 1441SOL    HW2 5794   4.259   4.483   2.312
 1441SOL    HW3 5795   4.332   4.351   2.299
 1441SOL    MW4 5796   4.266   4.403   2.277
 1442SOL     OW 5797   0.205   4.620   2.673
 1442SOL    HW2 5798   0.208   4.536   2.719
 1442SOL    HW3 5799   0.156   4.678   2.731
 1442SOL    MW4 5800   0.199   4.617   2.687
 1443SOL     OW 5801   0.044   0.130   2.771
 1443SOL    HW2 5802   0.052   0.145   2.865
 1443SOL    HW3 5803   0.044   0.218   2.733
 1443SOL    MW4 5804   0.045   0.144   2.778
 1444SOL     OW 5805   0.007   0.386   2.622
 1444SOL    HW2 5806   0.085   0.440   2.637
 1444SOL    HW3 5807  -0.007   0.392   2.527
 1444SOL    MW4 5808   0.016   0.394   2.611
 1445SOL     OW 5809   0.242   0.519   2.700
 1445SOL    HW2 5810   0.251   0.527   2.795
 1445SOL    HW3 5811   0.295   0.443   2.677
 1445SOL    MW4 5812   0.250   0.510   2.710
 1446SOL     OW 5813   0.234   0.765   2.586
 1446SOL    HW2 5814   0.300   0.820   2.628
 1446SOL    HW3 5815   0.241   0.681   2.632
 1446SOL    MW4 5816   0.243   0.761   2.598
 1447SOL     OW 5817   0.020   0.876   2.726
 1447SOL    HW2 5818  -0.064   0.840   2.697
 1447SOL    HW3 5819   0.086   0.831   2.674
 1447SOL    MW4 5820   0.017   0.866   2.715
 1448SOL     OW 5821   4.481   1.131   2.638
 1448SOL    HW2 5822   4.562   1.178   2.661
 1448SOL    HW3 5823   4.494   1.043   2.673
 1448SOL    MW4 5824   4.494   1.125   2.646
 1449SOL     OW 5825   0.223   1.264   2.695
 1449SOL    HW2 5826   0.299   1.220   2.656
 1449SOL    HW3 5827   0.231   1.355   2.666
 1449SOL    MW4 5828   0.234   1.270   2.686
 1450SOL     OW 5829   0.224   1.541   2.619
 1450SOL    HW2 5830   0.289   1.594   2.665
 1450SOL    HW3 5831   0.140   1.574   2.650
 1450SOL    MW4 5832   0.221   1.552   2.629
 1451SOL     OW 5833   4.460   1.662   2.723
 1451SOL    HW2 5834   4.466   1.654   2.818
 1451SOL    HW3 5835   4.466   1.756   2.706
 1451SOL    MW4 5836   4.461   1.674   2.733
 1452SOL     OW 5837   4.471   1.932   2.683
 1452SOL    HW2 5838   4.546   1.988   2.703
 1452SOL    HW3 5839   4.462   1.938   2.588
 1452SOL    MW4 5840   4.480   1.940   2.673
 1453SOL     OW 5841   0.218   2.091   2.686
 1453SOL    HW2 5842   0.289   2.048   2.639
 1453SOL    HW3 5843   0.212   2.179   2.648
 1453SOL    MW4 5844   0.227   2.097   2.675
 1454SOL     OW 5845   0.204   2.346   2.575
 1454SOL    HW2 5846   0.274   2.370   2.636
 1454SOL    HW3 5847   0.126   2.387   2.611
 1454SOL    MW4 5848   0.203   2.354   2.588
 1455SOL     OW 5849   4.473   2.436   2.725
 1455SOL    HW2 5850   4.476   2.436   2.821
 1455SOL    HW3 5851   4.386   2.404   2.703
 1455SOL    MW4 5852   4.462   2.432   2.735
 1456SOL     OW 5853   0.000   2.695   2.616
 1456SOL    HW2 5854  -0.077   2.731   2.660
 1456SOL    HW3 5855   0.000   2.603   2.639
 1456SOL    MW4 5856  -0.010   2.688   2.625
 1457SOL     OW 5857   0.211   2.811   2.744
 1457SOL    HW2 5858   0.228   2.901   2.717
 1457SOL    HW3 5859   0.130   2.787   2.699
 1457SOL    MW4 5860   0.202   2.820   2.735
 1458SOL     OW 5861   0.219   3.062   2.675
 1458SOL    HW2 5862   0.276   3.129   2.712
 1458SOL    HW3 5863   0.227   3.073   2.580
 1458SOL    MW4 5864   0.228   3.073   2.668
 1459SOL     OW 5865   4.489   3.180   2.781
 1459SOL    HW2 5866   4.409   3.144   2.742
 1459SOL    HW3 5867   4.560   3.128   2.742
 1459SOL    MW4 5868   4.488   3.168   2.771
 1460SOL     OW 5869   0.002   3.446   2.665
 1460SOL    HW2 5870   0.074   3.490   2.710
 1460SOL    HW3 5871  -0.008   3.362   2.710
 1460SOL    MW4 5872   0.010   3.441   2.677
 1461SOL     OW 5873   0.211   3.641   2.770
 1461SOL    HW2 5874   0.215   3.624   2.864
 1461SOL    HW3 5875   0.293   3.605   2.735
 1461SOL    MW4 5876   0.223   3.634   2.778
 1462SOL     OW 5877   0.229   3.886   2.661
 1462SOL    HW2 5878   0.206   3.796   2.684
 1462SOL    HW3 5879   0.218   3.891   2.566
 1462SOL    MW4 5880   0.224   3.875   2.652
 1463SOL     OW 5881   0.005   4.012   2.732
 1463SOL    HW2 5882   0.012   4.105   2.707
 1463SOL    HW3 5883   0.090   3.975   2.708
 1463SOL    MW4 5884   0.017   4.020   2.725
 1464SOL     OW 5885   0.000   4.261   2.635
 1464SOL    HW2 5886  -0.081   4.301   2.667
 1464SOL    HW3 5887   0.069   4.299   2.690
 1464SOL    MW4 5888  -0.001   4.271   2.647
 1465SOL     OW 5889   0.221   4.372   2.767
 1465SOL    HW2 5890   0.239   4.375   2.861
 1465SOL    HW3 5891   0.301   4.336   2.728
 1465SOL    MW4 5892   0.234   4.368   2.774
 1466SOL     OW 5893   0.644   4.637   2.638
 1466SOL    HW2 5894   0.710   4.691   2.682
 1466SOL    HW3 5895   0.562   4.663   2.680
 1466SOL    MW4 5896   0.642   4.648   2.650
 1467SOL     OW 5897   0.417   0.085   2.774
 1467SOL    HW2 5898   0.397   0.098   2.867
 1467SOL    HW3 5899   0.341   0.038   2.740
 1467SOL    MW4 5900   0.404   0.080   2.782
 1468SOL     OW 5901   0.429   0.322   2.628
 1468SOL    HW2 5902   0.497   0.373   2.672
 1468SOL    HW3 5903   0.418   0.244   2.682
 1468SOL    MW4 5904   0.437   0.318   2.641
 1469SOL     OW 5905   0.663   0.468   2.714
 1469SOL    HW2 5906   0.677   0.454   2.808
 1469SOL    HW3 5907   0.746   0.446   2.673
 1469SOL    MW4 5908   0.676   0.463   2.721
 1470SOL     OW 5909   0.644   0.720   2.604
 1470SOL    HW2 5910   0.714   0.775   2.639
 1470SOL    HW3 5911   0.661   0.634   2.641
 1470SOL    MW4 5912   0.655   0.716   2.614
 1471SOL     OW 5913   0.447   0.897   2.717
 1471SOL    HW2 5914   0.469   0.987   2.694
 1471SOL    HW3 5915   0.517   0.844   2.679
 1471SOL    MW4 5916   0.459   0.902   2.709
 1472SOL     OW 5917   0.486   1.150   2.616
 1472SOL    HW2 5918   0.528   1.230   2.649
 1472SOL    HW3 5919   0.513   1.144   2.525
 1472SOL    MW4 5920   0.495   1.160   2.609
 1473SOL     OW 5921   0.649   1.335   2.727
 1473SOL    HW2 5922   0.639   1.328   2.822
 1473SOL    HW3 5923   0.715   1.270   2.704
 1473SOL    MW4 5924   0.656   1.326   2.736
 1474SOL     OW 5925   0.632   1.569   2.588
 1474SOL    HW2 5926   0.555   1.616   2.622
 1474SOL    HW3 5927   0.631   1.485   2.634
 1474SOL    MW4 5928   0.622   1.564   2.598
 1475SOL     OW 5929   0.426   1.690   2.713
 1475SOL    HW2 5930   0.462   1.701   2.801
 1475SOL    HW3 5931   0.414   1.780   2.681
 1475SOL    MW4 5932   0.429   1.704   2.720
 1476SOL     OW 5933   0.439   1.951   2.563
 1476SOL    HW2 5934   0.522   1.988   2.593
 1476SOL    HW3 5935   0.446   1.952   2.467
 1476SOL    MW4 5936   0.451   1.956   2.554
 1477SOL     OW 5937   0.676   2.080   2.732
 1477SOL    HW2 5938   0.661   2.064   2.825
 1477SOL    HW3 5939   0.763   2.043   2.715
 1477SOL    MW4 5940   0.686   2.073   2.742
 1478SOL     OW 5941   0.676   2.321   2.609
 1478SOL    HW2 5942   0.750   2.365   2.652
 1478SOL    HW3 5943   0.662   2.241   2.660
 1478SOL    MW4 5944   0.684   2.316   2.622
 1479SOL     OW 5945   0.445   2.419   2.727
 1479SOL    HW2 5946   0.430   2.512   2.711
 1479SOL    HW3 5947   0.525   2.399   2.679
 1479SOL    MW4 5948   0.454   2.429   2.718
 1480SOL     OW 5949   0.424   2.677   2.654
 1480SOL    HW2 5950   0.495   2.723   2.698
 1480SOL    HW3 5951   0.344   2.720   2.686
 1480SOL    MW4 5952   0.423   2.689   2.664
 1481SOL     OW 5953   0.623   2.831   2.774
 1481SOL    HW2 5954   0.612   2.833   2.869
 1481SOL    HW3 5955   0.633   2.923   2.749
 1481SOL    MW4 5956   0.623   2.844   2.783
 1482SOL     OW 5957   0.670   3.086   2.682
 1482SOL    HW2 5958   0.749   3.118   2.726
 1482SOL    HW3 5959   0.689   3.092   2.589
 1482SOL    MW4 5960   0.683   3.091   2.676
 1483SOL     OW 5961   0.444   3.240   2.762
 1483SOL    HW2 5962   0.446   3.231   2.857
 1483SOL    HW3 5963   0.520   3.189   2.732
 1483SOL    MW4 5964   0.454   3.232   2.770
 1484SOL     OW 5965   0.428   3.516   2.653
 1484SOL    HW2 5966   0.435   3.436   2.706
 1484SOL    HW3 5967   0.428   3.485   2.563
 1484SOL    MW4 5968   0.429   3.501   2.648
 1485SOL     OW 5969   0.682   3.604   2.730
 1485SOL    HW2 5970   0.684   3.614   2.825
 1485SOL    HW3 5971   0.594   3.571   2.711
 1485SOL    MW4 5972   0.671   3.601   2.740
 1486SOL     OW 5973   0.664   3.864   2.626
 1486SOL    HW2 5974   0.586   3.892   2.673
 1486SOL    HW3 5975   0.682   3.776   2.659
 1486SOL    MW4 5976   0.656   3.856   2.637
 1487SOL     OW 5977   0.467   4.008   2.750
 1487SOL    HW2 5978   0.446   4.097   2.723
 1487SOL    HW3 5979   0.391   3.956   2.722
 1487SOL    MW4 5980   0.454   4.013   2.743
 1488SOL     OW 5981   0.446   4.269   2.646
 1488SOL    HW2 5982   0.532   4.296   2.677
 1488SOL    HW3 5983   0.449   4.281   2.551
 1488SOL    MW4 5984   0.457   4.274   2.638
 1489SOL     OW 5985   0.669   4.374   2.783
 1489SOL    HW2 5986   0.757   4.347   2.755
 1489SOL    HW3 5987   0.661   4.464   2.752
 1489SOL    MW4 5988   0.679   4.382   2.775
 1490SOL     OW 5989   1.113   4.642   2.668
 1490SOL    HW2 5990   1.195   4.664   2.713
 1490SOL    HW3 5991   1.100   4.549   2.688
 1490SOL    MW4 5992   1.122   4.632   2.677
 1491SOL     OW 5993   0.886   0.132   2.726
 1491SOL    HW2 5994   0.879   0.124   2.821
 1491SOL    HW3 5995   0.965   0.083   2.704
 1491SOL    MW4 5996   0.895   0.125   2.736
 1492SOL     OW 5997   0.912   0.400   2.624
 1492SOL    HW2 5998   0.897   0.307   2.642
 1492SOL    HW3 5999   0.888   0.411   2.532
 1492SOL    MW4 6000   0.907   0.389   2.614
 1493SOL     OW 6001   1.154   0.501   2.736
 1493SOL    HW2 6002   1.135   0.591   2.713
 1493SOL    HW3 6003   1.071   0.455   2.722
 1493SOL    MW4 6004   1.140   0.506   2.731
 1494SOL     OW 6005   1.078   0.778   2.641
 1494SOL    HW2 6006   1.150   0.830   2.676
 1494SOL    HW3 6007   1.091   0.779   2.546
 1494SOL    MW4 6008   1.089   0.785   2.633
 1495SOL     OW 6009   0.833   0.886   2.696
 1495SOL    HW2 6010   0.844   0.881   2.791
 1495SOL    HW3 6011   0.916   0.857   2.661
 1495SOL    MW4 6012   0.845   0.882   2.704
 1496SOL     OW 6013   0.832   1.156   2.628
 1496SOL    HW2 6014   0.845   1.068   2.664
 1496SOL    HW3 6015   0.839   1.144   2.533
 1496SOL    MW4 6016   0.834   1.143   2.620
 1497SOL     OW 6017   1.082   1.253   2.734
 1497SOL    HW2 6018   1.077   1.348   2.721
 1497SOL    HW3 6019   1.006   1.218   2.687
 1497SOL    MW4 6020   1.072   1.261   2.726
 1498SOL     OW 6021   1.083   1.521   2.670
 1498SOL    HW2 6022   0.995   1.558   2.675
 1498SOL    HW3 6023   1.104   1.522   2.576
 1498SOL    MW4 6024   1.074   1.526   2.658
 1499SOL     OW 6025   0.854   1.685   2.683
 1499SOL    HW2 6026   0.858   1.683   2.779
 1499SOL    HW3 6027   0.770   1.645   2.662
 1499SOL    MW4 6028   0.844   1.680   2.693
 1500SOL     OW 6029   0.895   1.933   2.600
 1500SOL    HW2 6030   0.960   1.971   2.659
 1500SOL    HW3 6031   0.899   1.838   2.616
 1500SOL    MW4 6032   0.904   1.925   2.610
 1501SOL     OW 6033   1.071   2.076   2.768
 1501SOL    HW2 6034   1.158   2.052   2.737
 1501SOL    HW3 6035   1.069   2.172   2.763
 1501SOL    MW4 6036   1.082   2.086   2.763
 1502SOL     OW 6037   1.095   2.343   2.667
 1502SOL    HW2 6038   1.178   2.382   2.695
 1502SOL    HW3 6039   1.107   2.325   2.574
 1502SOL    MW4 6040   1.108   2.345   2.659
 1503SOL     OW 6041   0.882   2.458   2.761
 1503SOL    HW2 6042   0.871   2.545   2.723
 1503SOL    HW3 6043   0.958   2.422   2.717
 1503SOL    MW4 6044   0.890   2.465   2.750
 1504SOL     OW 6045   0.838   2.711   2.644
 1504SOL    HW2 6046   0.913   2.757   2.682
 1504SOL    HW3 6047   0.763   2.743   2.693
 1504SOL    MW4 6048   0.838   2.722   2.655
 1505SOL     OW 6049   1.083   2.832   2.731
 1505SOL    HW2 6050   1.106   2.825   2.824
 1505SOL    HW3 6051   1.159   2.795   2.685
 1505SOL    MW4 6052   1.096   2.826   2.737
 1506SOL     OW 6053   1.148   3.096   2.677
 1506SOL    HW2 6054   1.122   3.007   2.700
 1506SOL    HW3 6055   1.136   3.101   2.582
 1506SOL    MW4 6056   1.143   3.085   2.667
 1507SOL     OW 6057   0.919   3.208   2.753
 1507SOL    HW2 6058   0.903   3.286   2.700
 1507SOL    HW3 6059   1.006   3.179   2.726
 1507SOL    MW4 6060   0.928   3.215   2.743
 1508SOL     OW 6061   0.887   3.462   2.609
 1508SOL    HW2 6062   0.961   3.508   2.651
 1508SOL    HW3 6063   0.810   3.512   2.638
 1508SOL    MW4 6064   0.887   3.475   2.619
 1509SOL     OW 6065   1.102   3.599   2.725
 1509SOL    HW2 6066   1.101   3.626   2.817
 1509SOL    HW3 6067   1.100   3.681   2.676
 1509SOL    MW4 6068   1.102   3.613   2.731
 1510SOL     OW 6069   1.098   3.851   2.602
 1510SOL    HW2 6070   1.178   3.889   2.640
 1510SOL    HW3 6071   1.110   3.859   2.507
 1510SOL    MW4 6072   1.110   3.857   2.594
 1511SOL     OW 6073   0.893   4.008   2.718
 1511SOL    HW2 6074   0.958   3.963   2.663
 1511SOL    HW3 6075   0.809   3.970   2.691
 1511SOL    MW4 6076   0.890   3.997   2.707
 1512SOL     OW 6077   0.888   4.266   2.652
 1512SOL    HW2 6078   0.892   4.174   2.677
 1512SOL    HW3 6079   0.884   4.265   2.556
 1512SOL    MW4 6080   0.888   4.254   2.643
 1513SOL     OW 6081   1.144   4.351   2.748
 1513SOL    HW2 6082   1.137   4.378   2.839
 1513SOL    HW3 6083   1.055   4.327   2.722
 1513SOL    MW4 6084   1.131   4.351   2.756
 1514SOL     OW 6085   1.605   4.624   2.645
 1514SOL    HW2 6086   1.587   4.531   2.660
 1514SOL    HW3 6087   1.582   4.639   2.553
 1514SOL    MW4 6088   1.600   4.614   2.635
 1515SOL     OW 6089   1.366   0.059   2.773
 1515SOL    HW2 6090   1.352   0.138   2.721
 1515SOL    HW3 6091   1.434   0.011   2.726
 1515SOL    MW4 6092   1.373   0.063   2.760
 1516SOL     OW 6093   1.304   0.300   2.635
 1516SOL    HW2 6094   1.389   0.332   2.664
 1516SOL    HW3 6095   1.241   0.365   2.666
 1516SOL    MW4 6096   1.307   0.313   2.643
 1517SOL     OW 6097   1.546   0.435   2.702
 1517SOL    HW2 6098   1.638   0.410   2.688
 1517SOL    HW3 6099   1.540   0.523   2.667
 1517SOL    MW4 6100   1.557   0.443   2.695
 1518SOL     OW 6101   1.570   0.711   2.639
 1518SOL    HW2 6102   1.489   0.757   2.662
 1518SOL    HW3 6103   1.569   0.705   2.544
 1518SOL    MW4 6104   1.559   0.716   2.630
 1519SOL     OW 6105   1.338   0.854   2.745
 1519SOL    HW2 6106   1.350   0.844   2.840
 1519SOL    HW3 6107   1.321   0.948   2.733
 1519SOL    MW4 6108   1.337   0.865   2.756
 1520SOL     OW 6109   1.304   1.124   2.638
 1520SOL    HW2 6110   1.378   1.164   2.684
 1520SOL    HW3 6111   1.230   1.181   2.659
 1520SOL    MW4 6112   1.304   1.137   2.647
 1521SOL     OW 6113   1.532   1.248   2.754
 1521SOL    HW2 6114   1.548   1.265   2.847
 1521SOL    HW3 6115   1.614   1.211   2.721
 1521SOL    MW4 6116   1.545   1.245   2.762
 1522SOL     OW 6117   1.508   1.505   2.641
 1522SOL    HW2 6118   1.497   1.418   2.679
 1522SOL    HW3 6119   1.511   1.490   2.547
 1522SOL    MW4 6120   1.507   1.492   2.634
 1523SOL     OW 6121   1.298   1.685   2.742
 1523SOL    HW2 6122   1.375   1.643   2.704
 1523SOL    HW3 6123   1.229   1.620   2.734
 1523SOL    MW4 6124   1.299   1.671   2.736
 1524SOL     OW 6125   1.296   1.953   2.661
 1524SOL    HW2 6126   1.280   1.862   2.688
 1524SOL    HW3 6127   1.320   1.946   2.569
 1524SOL    MW4 6128   1.297   1.940   2.653
 1525SOL     OW 6129   1.537   2.051   2.730
 1525SOL    HW2 6130   1.609   1.988   2.722
 1525SOL    HW3 6131   1.458   1.999   2.710
 1525SOL    MW4 6132   1.536   2.036   2.726
 1526SOL     OW 6133   1.558   2.304   2.625
 1526SOL    HW2 6134   1.638   2.337   2.666
 1526SOL    HW3 6135   1.547   2.216   2.660
 1526SOL    MW4 6136   1.567   2.297   2.635
 1527SOL     OW 6137   1.334   2.454   2.751
 1527SOL    HW2 6138   1.355   2.542   2.719
 1527SOL    HW3 6139   1.408   2.400   2.722
 1527SOL    MW4 6140   1.347   2.458   2.743
 1528SOL     OW 6141   1.327   2.721   2.689
 1528SOL    HW2 6142   1.396   2.780   2.721
 1528SOL    HW3 6143   1.347   2.708   2.597
 1528SOL    MW4 6144   1.339   2.727   2.681
 1529SOL     OW 6145   1.612   2.833   2.765
 1529SOL    HW2 6146   1.614   2.835   2.861
 1529SOL    HW3 6147   1.682   2.772   2.741
 1529SOL    MW4 6148   1.622   2.825   2.774
 1530SOL     OW 6149   1.586   3.069   2.650
 1530SOL    HW2 6150   1.657   3.118   2.691
 1530SOL    HW3 6151   1.595   2.980   2.685
 1530SOL    MW4 6152   1.596   3.064   2.660
 1531SOL     OW 6153   1.362   3.207   2.776
 1531SOL    HW2 6154   1.440   3.162   2.743
 1531SOL    HW3 6155   1.288   3.157   2.740
 1531SOL    MW4 6156   1.363   3.194   2.767
 1532SOL     OW 6157   1.360   3.493   2.668
 1532SOL    HW2 6158   1.374   3.403   2.699
 1532SOL    HW3 6159   1.276   3.518   2.706
 1532SOL    MW4 6160   1.351   3.484   2.677
 1533SOL     OW 6161   1.586   3.643   2.726
 1533SOL    HW2 6162   1.671   3.601   2.714
 1533SOL    HW3 6163   1.524   3.581   2.689
 1533SOL    MW4 6164   1.589   3.629   2.720
 1534SOL     OW 6165   1.568   3.888   2.610
 1534SOL    HW2 6166   1.477   3.912   2.627
 1534SOL    HW3 6167   1.579   3.804   2.654
 1534SOL    MW4 6168   1.557   3.880   2.618
 1535SOL     OW 6169   1.322   3.952   2.728
 1535SOL    HW2 6170   1.320   3.964   2.823
 1535SOL    HW3 6171   1.317   4.041   2.692
 1535SOL    MW4 6172   1.321   3.966   2.736
 1536SOL     OW 6173   1.345   4.206   2.629
 1536SOL    HW2 6174   1.272   4.263   2.654
 1536SOL    HW3 6175   1.368   4.233   2.540
 1536SOL    MW4 6176   1.338   4.217   2.621
 1537SOL     OW 6177   1.575   4.359   2.734
 1537SOL    HW2 6178   1.566   4.360   2.829
 1537SOL    HW3 6179   1.500   4.308   2.703
 1537SOL    MW4 6180   1.564   4.352   2.742
 1538SOL     OW 6181   2.025   4.633   2.639
 1538SOL    HW2 6182   2.103   4.677   2.673
 1538SOL    HW3 6183   2.022   4.660   2.547
 1538SOL    MW4 6184   2.035   4.643   2.631
 1539SOL     OW 6185   1.818   0.114   2.759
 1539SOL    HW2 6186   1.900   0.076   2.726
 1539SOL    HW3 6187   1.751   0.049   2.737
 1539SOL    MW4 6188   1.820   0.100   2.752
 1540SOL     OW 6189   1.795   0.360   2.621
 1540SOL    HW2 6190   1.869   0.412   2.653
 1540SOL    HW3 6191   1.807   0.274   2.661
 1540SOL    MW4 6192   1.806   0.355   2.630
 1541SOL     OW 6193   2.012   0.487   2.716
 1541SOL    HW2 6194   2.095   0.448   2.689
 1541SOL    HW3 6195   2.005   0.567   2.665
 1541SOL    MW4 6196   2.022   0.492   2.706
 1542SOL     OW 6197   2.003   0.740   2.648
 1542SOL    HW2 6198   1.920   0.776   2.678
 1542SOL    HW3 6199   2.002   0.752   2.553
 1542SOL    MW4 6200   1.992   0.746   2.639
 1543SOL     OW 6201   1.775   0.873   2.775
 1543SOL    HW2 6202   1.771   0.964   2.745
 1543SOL    HW3 6203   1.694   0.834   2.743
 1543SOL    MW4 6204   1.764   0.880   2.767
 1544SOL     OW 6205   1.754   1.136   2.657
 1544SOL    HW2 6206   1.840   1.168   2.683
 1544SOL    HW3 6207   1.766   1.105   2.567
 1544SOL    MW4 6208   1.767   1.136   2.648
 1545SOL     OW 6209   1.977   1.258   2.716
 1545SOL    HW2 6210   1.985   1.257   2.812
 1545SOL    HW3 6211   2.056   1.213   2.686
 1545SOL    MW4 6212   1.989   1.252   2.725
 1546SOL     OW 6213   1.989   1.542   2.665
 1546SOL    HW2 6214   1.897   1.566   2.673
 1546SOL    HW3 6215   1.989   1.446   2.668
 1546SOL    MW4 6216   1.977   1.532   2.666
 1547SOL     OW 6217   1.732   1.652   2.714
 1547SOL    HW2 6218   1.757   1.627   2.803
 1547SOL    HW3 6219   1.659   1.595   2.692
 1547SOL    MW4 6220   1.726   1.641   2.723
 1548SOL     OW 6221   1.767   1.916   2.682
 1548SOL    HW2 6222   1.838   1.950   2.737
 1548SOL    HW3 6223   1.764   1.823   2.703
 1548SOL    MW4 6224   1.776   1.909   2.692
 1549SOL     OW 6225   2.014   2.026   2.776
 1549SOL    HW2 6226   2.026   2.024   2.871
 1549SOL    HW3 6227   2.018   2.119   2.754
 1549SOL    MW4 6228   2.016   2.038   2.786
 1550SOL     OW 6229   2.025   2.273   2.664
 1550SOL    HW2 6230   2.079   2.349   2.686
 1550SOL    HW3 6231   2.013   2.279   2.569
 1550SOL    MW4 6232   2.030   2.284   2.654
 1551SOL     OW 6233   1.790   2.401   2.768
 1551SOL    HW2 6234   1.789   2.389   2.863
 1551SOL    HW3 6235   1.864   2.349   2.738
 1551SOL    MW4 6236   1.800   2.393   2.777
 1552SOL     OW 6237   1.829   2.684   2.700
 1552SOL    HW2 6238   1.820   2.592   2.722
 1552SOL    HW3 6239   1.816   2.688   2.606
 1552SOL    MW4 6240   1.826   2.673   2.691
 1553SOL     OW 6241   2.038   2.868   2.744
 1553SOL    HW2 6242   2.117   2.823   2.715
 1553SOL    HW3 6243   1.969   2.802   2.735
 1553SOL    MW4 6244   2.039   2.853   2.739
 1554SOL     OW 6245   2.031   3.139   2.642
 1554SOL    HW2 6246   2.023   3.053   2.683
 1554SOL    HW3 6247   2.027   3.120   2.548
 1554SOL    MW4 6248   2.029   3.125   2.635
 1555SOL     OW 6249   1.803   3.260   2.757
 1555SOL    HW2 6250   1.809   3.343   2.708
 1555SOL    HW3 6251   1.870   3.205   2.717
 1555SOL    MW4 6252   1.813   3.264   2.745
 1556SOL     OW 6253   1.807   3.502   2.614
 1556SOL    HW2 6254   1.888   3.536   2.652
 1556SOL    HW3 6255   1.817   3.517   2.520
 1556SOL    MW4 6256   1.819   3.508   2.607
 1557SOL     OW 6257   2.030   3.626   2.704
 1557SOL    HW2 6258   2.037   3.641   2.799
 1557SOL    HW3 6259   2.117   3.596   2.678
 1557SOL    MW4 6260   2.042   3.624   2.713
 1558SOL     OW 6261   2.035   3.900   2.650
 1558SOL    HW2 6262   1.950   3.939   2.673
 1558SOL    HW3 6263   2.026   3.808   2.675
 1558SOL    MW4 6264   2.022   3.893   2.656
 1559SOL     OW 6265   1.784   3.983   2.730
 1559SOL    HW2 6266   1.791   4.073   2.696
 1559SOL    HW3 6267   1.705   3.948   2.689
 1559SOL    MW4 6268   1.774   3.990   2.720
 1560SOL     OW 6269   1.806   4.260   2.619
 1560SOL    HW2 6270   1.723   4.288   2.658
 1560SOL    HW3 6271   1.790   4.262   2.525
 1560SOL    MW4 6272   1.793   4.264   2.612
 1561SOL     OW 6273   2.013   4.382   2.753
 1561SOL    HW2 6274   1.944   4.330   2.711
 1561SOL    HW3 6275   2.004   4.469   2.715
 1561SOL    MW4 6276   2.003   4.386   2.742
 1562SOL     OW 6277   2.497   0.004   2.686
 1562SOL    HW2 6278   2.565   0.061   2.720
 1562SOL    HW3 6279   2.514  -0.003   2.592
 1562SOL    MW4 6280   2.508   0.010   2.678
 1563SOL     OW 6281   2.247   0.129   2.751
 1563SOL    HW2 6282   2.251   0.110   2.845
 1563SOL    HW3 6283   2.335   0.109   2.719
 1563SOL    MW4 6284   2.259   0.124   2.759
 1564SOL     OW 6285   2.249   0.377   2.626
 1564SOL    HW2 6286   2.244   0.293   2.672
 1564SOL    HW3 6287   2.223   0.356   2.536
 1564SOL    MW4 6288   2.245   0.363   2.620
 1565SOL     OW 6289   2.434   0.543   2.748
 1565SOL    HW2 6290   2.454   0.623   2.700
 1565SOL    HW3 6291   2.366   0.500   2.697
 1565SOL    MW4 6292   2.428   0.548   2.735
 1566SOL     OW 6293   2.458   0.789   2.611
 1566SOL    HW2 6294   2.374   0.825   2.640
 1566SOL    HW3 6295   2.450   0.784   2.515
 1566SOL    MW4 6296   2.446   0.793   2.602
 1567SOL     OW 6297   2.234   0.888   2.727
 1567SOL    HW2 6298   2.251   0.883   2.821
 1567SOL    HW3 6299   2.164   0.825   2.712
 1567SOL    MW4 6300   2.227   0.879   2.737
 1568SOL     OW 6301   2.217   1.157   2.638
 1568SOL    HW2 6302   2.214   1.069   2.675
 1568SOL    HW3 6303   2.210   1.143   2.543
 1568SOL    MW4 6304   2.216   1.143   2.630
 1569SOL     OW 6305   2.460   1.285   2.752
 1569SOL    HW2 6306   2.527   1.237   2.703
 1569SOL    HW3 6307   2.382   1.279   2.698
 1569SOL    MW4 6308   2.459   1.278   2.738
 1570SOL     OW 6309   2.464   1.554   2.633
 1570SOL    HW2 6310   2.381   1.586   2.668
 1570SOL    HW3 6311   2.471   1.465   2.667
 1570SOL    MW4 6312   2.454   1.547   2.642
 1571SOL     OW 6313   2.228   1.664   2.733
 1571SOL    HW2 6314   2.238   1.758   2.717
 1571SOL    HW3 6315   2.134   1.648   2.725
 1571SOL    MW4 6316   2.217   1.674   2.730
 1572SOL     OW 6317   2.240   1.930   2.674
 1572SOL    HW2 6318   2.157   1.966   2.707
 1572SOL    HW3 6319   2.232   1.935   2.579
 1572SOL    MW4 6320   2.228   1.936   2.666
 1573SOL     OW 6321   2.476   2.065   2.717
 1573SOL    HW2 6322   2.461   2.158   2.698
 1573SOL    HW3 6323   2.395   2.022   2.688
 1573SOL    MW4 6324   2.463   2.072   2.710
 1574SOL     OW 6325   2.457   2.337   2.668
 1574SOL    HW2 6326   2.546   2.366   2.689
 1574SOL    HW3 6327   2.452   2.342   2.573
 1574SOL    MW4 6328   2.468   2.342   2.658
 1575SOL     OW 6329   2.213   2.471   2.740
 1575SOL    HW2 6330   2.213   2.483   2.835
 1575SOL    HW3 6331   2.294   2.422   2.723
 1575SOL    MW4 6332   2.224   2.466   2.750
 1576SOL     OW 6333   2.254   2.722   2.658
 1576SOL    HW2 6334   2.331   2.747   2.708
 1576SOL    HW3 6335   2.235   2.632   2.685
 1576SOL    MW4 6336   2.261   2.714   2.668
 1577SOL     OW 6337   2.479   2.851   2.783
 1577SOL    HW2 6338   2.550   2.801   2.741
 1577SOL    HW3 6339   2.466   2.926   2.725
 1577SOL    MW4 6340   2.487   2.854   2.770
 1578SOL     OW 6341   2.452   3.075   2.626
 1578SOL    HW2 6342   2.387   3.141   2.648
 1578SOL    HW3 6343   2.463   3.082   2.531
 1578SOL    MW4 6344   2.445   3.085   2.616
 1579SOL     OW 6345   2.260   3.241   2.761
 1579SOL    HW2 6346   2.267   3.215   2.853
 1579SOL    HW3 6347   2.174   3.211   2.735
 1579SOL    MW4 6348   2.250   3.233   2.770
 1580SOL     OW 6349   2.279   3.513   2.660
 1580SOL    HW2 6350   2.362   3.552   2.689
 1580SOL    HW3 6351   2.275   3.428   2.704
 1580SOL    MW4 6352   2.290   3.507   2.669
 1581SOL     OW 6353   2.539   3.606   2.745
 1581SOL    HW2 6354   2.512   3.629   2.834
 1581SOL    HW3 6355   2.553   3.690   2.701
 1581SOL    MW4 6356   2.537   3.620   2.751
 1582SOL     OW 6357   2.487   3.857   2.632
 1582SOL    HW2 6358   2.563   3.905   2.665
 1582SOL    HW3 6359   2.411   3.907   2.662
 1582SOL    MW4 6360   2.487   3.870   2.640
 1583SOL     OW 6361   2.273   4.028   2.720
 1583SOL    HW2 6362   2.288   4.018   2.814
 1583SOL    HW3 6363   2.180   4.006   2.708
 1583SOL    MW4 6364   2.263   4.024   2.731
 1584SOL     OW 6365   2.246   4.310   2.624
 1584SOL    HW2 6366   2.257   4.215   2.637
 1584SOL    HW3 6367   2.168   4.332   2.674
 1584SOL    MW4 6368   2.237   4.300   2.632
 1585SOL     OW 6369   2.470   4.417   2.765
 1585SOL    HW2 6370   2.395   4.383   2.716
 1585SOL    HW3 6371   2.474   4.510   2.740
 1585SOL    MW4 6372   2.460   4.425   2.755
 1586SOL     OW 6373   2.929   0.010   2.682
 1586SOL    HW2 6374   3.004   0.057   2.719
 1586SOL    HW3 6375   2.943   0.014   2.588
 1586SOL    MW4 6376   2.941   0.017   2.675
 1587SOL     OW 6377   2.718   0.137   2.805
 1587SOL    HW2 6378   2.716   0.121   2.899
 1587SOL    HW3 6379   2.782   0.074   2.772
 1587SOL    MW4 6380   2.726   0.126   2.813
 1588SOL     OW 6381   2.667   0.370   2.655
 1588SOL    HW2 6382   2.685   0.289   2.703
 1588SOL    HW3 6383   2.583   0.399   2.690
 1588SOL    MW4 6384   2.658   0.363   2.666
 1589SOL     OW 6385   2.872   0.517   2.771
 1589SOL    HW2 6386   2.880   0.602   2.728
 1589SOL    HW3 6387   2.789   0.481   2.738
 1589SOL    MW4 6388   2.862   0.523   2.761
 1590SOL     OW 6389   2.933   0.769   2.667
 1590SOL    HW2 6390   2.993   0.814   2.726
 1590SOL    HW3 6391   2.847   0.804   2.690
 1590SOL    MW4 6392   2.930   0.780   2.678
 1591SOL     OW 6393   2.678   0.875   2.754
 1591SOL    HW2 6394   2.674   0.879   2.849
 1591SOL    HW3 6395   2.595   0.836   2.728
 1591SOL    MW4 6396   2.667   0.870   2.763
 1592SOL     OW 6397   2.665   1.144   2.637
 1592SOL    HW2 6398   2.740   1.198   2.662
 1592SOL    HW3 6399   2.680   1.061   2.681
 1592SOL    MW4 6400   2.677   1.140   2.646
 1593SOL     OW 6401   2.884   1.285   2.711
 1593SOL    HW2 6402   2.861   1.280   2.804
 1593SOL    HW3 6403   2.975   1.256   2.708
 1593SOL    MW4 6404   2.893   1.281   2.723
 1594SOL     OW 6405   2.911   1.564   2.672
 1594SOL    HW2 6406   2.826   1.601   2.696
 1594SOL    HW3 6407   2.907   1.473   2.702
 1594SOL    MW4 6408   2.899   1.557   2.679
 1595SOL     OW 6409   2.674   1.691   2.734
 1595SOL    HW2 6410   2.678   1.665   2.826
 1595SOL    HW3 6411   2.592   1.653   2.702
 1595SOL    MW4 6412   2.664   1.683   2.742
 1596SOL     OW 6413   2.699   1.935   2.612
 1596SOL    HW2 6414   2.714   1.852   2.657
 1596SOL    HW3 6415   2.617   1.967   2.647
 1596SOL    MW4 6416   2.690   1.928   2.622
 1597SOL     OW 6417   2.919   2.078   2.725
 1597SOL    HW2 6418   2.925   2.158   2.672
 1597SOL    HW3 6419   2.848   2.027   2.685
 1597SOL    MW4 6420   2.910   2.082   2.713
 1598SOL     OW 6421   2.923   2.316   2.601
 1598SOL    HW2 6422   3.007   2.351   2.628
 1598SOL    HW3 6423   2.858   2.369   2.648
 1598SOL    MW4 6424   2.925   2.328   2.610
 1599SOL     OW 6425   2.711   2.434   2.737
 1599SOL    HW2 6426   2.716   2.400   2.826
 1599SOL    HW3 6427   2.699   2.529   2.749
 1599SOL    MW4 6428   2.710   2.442   2.751
 1600SOL     OW 6429   2.676   2.721   2.670
 1600SOL    HW2 6430   2.766   2.755   2.674
 1600SOL    HW3 6431   2.662   2.705   2.576
 1600SOL    MW4 6432   2.686   2.724   2.658
 1601SOL     OW 6433   2.910   2.819   2.744
 1601SOL    HW2 6434   2.917   2.826   2.839
 1601SOL    HW3 6435   2.925   2.908   2.712
 1601SOL    MW4 6436   2.913   2.832   2.752
 1602SOL     OW 6437   2.938   3.088   2.660
 1602SOL    HW2 6438   2.863   3.138   2.691
 1602SOL    HW3 6439   2.932   3.092   2.564
 1602SOL    MW4 6440   2.928   3.095   2.651
 1603SOL     OW 6441   2.687   3.209   2.733
 1603SOL    HW2 6442   2.691   3.296   2.695
 1603SOL    HW3 6443   2.603   3.174   2.703
 1603SOL    MW4 6444   2.677   3.216   2.724
 1604SOL     OW 6445   2.741   3.477   2.621
 1604SOL    HW2 6446   2.659   3.521   2.645
 1604SOL    HW3 6447   2.738   3.473   2.526
 1604SOL    MW4 6448   2.730   3.483   2.612
 1605SOL     OW 6449   2.932   3.630   2.752
 1605SOL    HW2 6450   2.904   3.613   2.842
 1605SOL    HW3 6451   2.880   3.569   2.699
 1605SOL    MW4 6452   2.921   3.619   2.757
 1606SOL     OW 6453   2.917   3.878   2.636
 1606SOL    HW2 6454   2.999   3.921   2.662
 1606SOL    HW3 6455   2.915   3.797   2.688
 1606SOL    MW4 6456   2.928   3.873   2.647
 1607SOL     OW 6457   2.694   3.995   2.754
 1607SOL    HW2 6458   2.687   4.087   2.730
 1607SOL    HW3 6459   2.776   3.965   2.712
 1607SOL    MW4 6460   2.704   4.003   2.745
 1608SOL     OW 6461   2.688   4.265   2.693
 1608SOL    HW2 6462   2.762   4.317   2.724
 1608SOL    HW3 6463   2.611   4.318   2.712
 1608SOL    MW4 6464   2.687   4.279   2.700
 1609SOL     OW 6465   2.912   4.411   2.776
 1609SOL    HW2 6466   2.898   4.417   2.870
 1609SOL    HW3 6467   2.928   4.501   2.748
 1609SOL    MW4 6468   2.912   4.424   2.785
 1610SOL     OW 6469   3.383   0.013   2.628
 1610SOL    HW2 6470   3.390  -0.082   2.641
 1610SOL    HW3 6471   3.305   0.038   2.677
 1610SOL    MW4 6472   3.374   0.004   2.636
 1611SOL     OW 6473   3.172   0.127   2.780
 1611SOL    HW2 6474   3.164   0.133   2.876
 1611SOL    HW3 6475   3.159   0.217   2.749
 1611SOL    MW4 6476   3.169   0.140   2.789
 1612SOL     OW 6477   3.079   0.395   2.657
 1612SOL    HW2 6478   3.003   0.441   2.693
 1612SOL    HW3 6479   3.063   0.391   2.563
 1612SOL    MW4 6480   3.067   0.400   2.650
 1613SOL     OW 6481   3.292   0.509   2.792
 1613SOL    HW2 6482   3.312   0.596   2.756
 1613SOL    HW3 6483   3.214   0.481   2.745
 1613SOL    MW4 6484   3.285   0.517   2.781
 1614SOL     OW 6485   3.361   0.781   2.690
 1614SOL    HW2 6486   3.451   0.809   2.707
 1614SOL    HW3 6487   3.357   0.770   2.595
 1614SOL    MW4 6488   3.372   0.783   2.680
 1615SOL     OW 6489   3.140   0.931   2.785
 1615SOL    HW2 6490   3.139   0.916   2.879
 1615SOL    HW3 6491   3.216   0.882   2.754
 1615SOL    MW4 6492   3.150   0.923   2.793
 1616SOL     OW 6493   3.141   1.180   2.667
 1616SOL    HW2 6494   3.136   1.095   2.711
 1616SOL    HW3 6495   3.125   1.161   2.575
 1616SOL    MW4 6496   3.138   1.167   2.661
 1617SOL     OW 6497   3.373   1.303   2.765
 1617SOL    HW2 6498   3.362   1.285   2.858
 1617SOL    HW3 6499   3.307   1.249   2.722
 1617SOL    MW4 6500   3.363   1.294   2.772
 1618SOL     OW 6501   3.361   1.568   2.673
 1618SOL    HW2 6502   3.300   1.622   2.722
 1618SOL    HW3 6503   3.357   1.482   2.715
 1618SOL    MW4 6504   3.353   1.564   2.685
 1619SOL     OW 6505   3.143   1.699   2.774
 1619SOL    HW2 6506   3.128   1.779   2.724
 1619SOL    HW3 6507   3.066   1.644   2.757
 1619SOL    MW4 6508   3.131   1.702   2.765
 1620SOL     OW 6509   3.120   1.923   2.617
 1620SOL    HW2 6510   3.199   1.963   2.654
 1620SOL    HW3 6511   3.048   1.975   2.652
 1620SOL    MW4 6512   3.121   1.935   2.627
 1621SOL     OW 6513   3.349   2.026   2.734
 1621SOL    HW2 6514   3.365   2.039   2.827
 1621SOL    HW3 6515   3.350   2.115   2.697
 1621SOL    MW4 6516   3.351   2.040   2.741
 1622SOL     OW 6517   3.356   2.272   2.606
 1622SOL    HW2 6518   3.431   2.320   2.640
 1622SOL    HW3 6519   3.358   2.290   2.512
 1622SOL    MW4 6520   3.366   2.281   2.598
 1623SOL     OW 6521   3.155   2.437   2.702
 1623SOL    HW2 6522   3.168   2.527   2.674
 1623SOL    HW3 6523   3.235   2.392   2.674
 1623SOL    MW4 6524   3.167   2.443   2.694
 1624SOL     OW 6525   3.145   2.702   2.619
 1624SOL    HW2 6526   3.218   2.759   2.642
 1624SOL    HW3 6527   3.068   2.745   2.657
 1624SOL    MW4 6528   3.144   2.715   2.627
 1625SOL     OW 6529   3.364   2.853   2.710
 1625SOL    HW2 6530   3.369   2.835   2.804
 1625SOL    HW3 6531   3.442   2.812   2.674
 1625SOL    MW4 6532   3.375   2.845   2.717
 1626SOL     OW 6533   3.364   3.107   2.607
 1626SOL    HW2 6534   3.363   3.015   2.635
 1626SOL    HW3 6535   3.370   3.102   2.511
 1626SOL    MW4 6536   3.365   3.094   2.598
 1627SOL     OW 6537   3.140   3.246   2.748
 1627SOL    HW2 6538   3.218   3.201   2.713
 1627SOL    HW3 6539   3.067   3.193   2.719
 1627SOL    MW4 6540   3.141   3.233   2.739
 1628SOL     OW 6541   3.128   3.501   2.604
 1628SOL    HW2 6542   3.123   3.414   2.645
 1628SOL    HW3 6543   3.070   3.556   2.657
 1628SOL    MW4 6544   3.119   3.497   2.616
 1629SOL     OW 6545   3.339   3.631   2.747
 1629SOL    HW2 6546   3.321   3.620   2.840
 1629SOL    HW3 6547   3.274   3.577   2.703
 1629SOL    MW4 6548   3.328   3.622   2.754
 1630SOL     OW 6549   3.389   3.885   2.666
 1630SOL    HW2 6550   3.370   3.797   2.701
 1630SOL    HW3 6551   3.391   3.873   2.571
 1630SOL    MW4 6552   3.387   3.872   2.658
 1631SOL     OW 6553   3.157   4.004   2.768
 1631SOL    HW2 6554   3.173   4.090   2.729
 1631SOL    HW3 6555   3.235   3.953   2.745
 1631SOL    MW4 6556   3.169   4.009   2.760
 1632SOL     OW 6557   3.141   4.272   2.676
 1632SOL    HW2 6558   3.069   4.323   2.712
 1632SOL    HW3 6559   3.131   4.279   2.581
 1632SOL    MW4 6560   3.130   4.279   2.668
 1633SOL     OW 6561   3.379   4.408   2.726
 1633SOL    HW2 6562   3.381   4.429   2.819
 1633SOL    HW3 6563   3.299   4.357   2.715
 1633SOL    MW4 6564   3.369   4.404   2.737
 1634SOL     OW 6565   3.822   0.035   2.646
 1634SOL    HW2 6566   3.810  -0.059   2.661
 1634SOL    HW3 6567   3.746   0.076   2.687
 1634SOL    MW4 6568   3.811   0.028   2.654
 1635SOL     OW 6569   3.604   0.144   2.757
 1635SOL    HW2 6570   3.584   0.235   2.735
 1635SOL    HW3 6571   3.537   0.093   2.711
 1635SOL    MW4 6572   3.593   0.149   2.748
 1636SOL     OW 6573   3.528   0.415   2.683
 1636SOL    HW2 6574   3.601   0.462   2.723
 1636SOL    HW3 6575   3.451   0.446   2.731
 1636SOL    MW4 6576   3.527   0.425   2.695
 1637SOL     OW 6577   3.777   0.501   2.781
 1637SOL    HW2 6578   3.783   0.507   2.876
 1637SOL    HW3 6579   3.858   0.456   2.754
 1637SOL    MW4 6580   3.789   0.496   2.790
 1638SOL     OW 6581   3.830   0.754   2.653
 1638SOL    HW2 6582   3.757   0.805   2.689
 1638SOL    HW3 6583   3.832   0.674   2.706
 1638SOL    MW4 6584   3.821   0.750   2.664
 1639SOL     OW 6585   3.633   0.910   2.741
 1639SOL    HW2 6586   3.600   0.914   2.831
 1639SOL    HW3 6587   3.636   1.002   2.713
 1639SOL    MW4 6588   3.629   0.923   2.749
 1640SOL     OW 6589   3.621   1.171   2.656
 1640SOL    HW2 6590   3.696   1.225   2.681
 1640SOL    HW3 6591   3.547   1.209   2.704
 1640SOL    MW4 6592   3.621   1.183   2.666
 1641SOL     OW 6593   3.838   1.302   2.758
 1641SOL    HW2 6594   3.912   1.259   2.715
 1641SOL    HW3 6595   3.831   1.386   2.713
 1641SOL    MW4 6596   3.847   1.308   2.746
 1642SOL     OW 6597   3.825   1.543   2.618
 1642SOL    HW2 6598   3.898   1.568   2.675
 1642SOL    HW3 6599   3.751   1.593   2.651
 1642SOL    MW4 6600   3.825   1.553   2.630
 1643SOL     OW 6601   3.614   1.662   2.741
 1643SOL    HW2 6602   3.611   1.754   2.717
 1643SOL    HW3 6603   3.531   1.626   2.709
 1643SOL    MW4 6604   3.603   1.669   2.734
 1644SOL     OW 6605   3.583   1.914   2.649
 1644SOL    HW2 6606   3.516   1.969   2.689
 1644SOL    HW3 6607   3.570   1.926   2.555
 1644SOL    MW4 6608   3.573   1.923   2.642
 1645SOL     OW 6609   3.795   2.045   2.748
 1645SOL    HW2 6610   3.880   2.009   2.724
 1645SOL    HW3 6611   3.732   1.980   2.717
 1645SOL    MW4 6612   3.798   2.032   2.741
 1646SOL     OW 6613   3.778   2.307   2.632
 1646SOL    HW2 6614   3.793   2.216   2.658
 1646SOL    HW3 6615   3.788   2.306   2.536
 1646SOL    MW4 6616   3.782   2.295   2.623
 1647SOL     OW 6617   3.534   2.437   2.716
 1647SOL    HW2 6618   3.540   2.435   2.811
 1647SOL    HW3 6619   3.616   2.399   2.686
 1647SOL    MW4 6620   3.546   2.432   2.724
 1648SOL     OW 6621   3.565   2.700   2.617
 1648SOL    HW2 6622   3.542   2.613   2.648
 1648SOL    HW3 6623   3.561   2.693   2.522
 1648SOL    MW4 6624   3.561   2.688   2.609
 1649SOL     OW 6625   3.808   2.836   2.684
 1649SOL    HW2 6626   3.894   2.806   2.654
 1649SOL    HW3 6627   3.748   2.766   2.659
 1649SOL    MW4 6628   3.811   2.823   2.677
 1650SOL     OW 6629   3.823   3.104   2.656
 1650SOL    HW2 6630   3.744   3.133   2.700
 1650SOL    HW3 6631   3.818   3.008   2.656
 1650SOL    MW4 6632   3.812   3.095   2.662
 1651SOL     OW 6633   3.592   3.212   2.746
 1651SOL    HW2 6634   3.601   3.291   2.693
 1651SOL    HW3 6635   3.517   3.166   2.709
 1651SOL    MW4 6636   3.584   3.216   2.734
 1652SOL     OW 6637   3.556   3.474   2.617
 1652SOL    HW2 6638   3.627   3.522   2.661
 1652SOL    HW3 6639   3.477   3.504   2.661
 1652SOL    MW4 6640   3.555   3.484   2.629
 1653SOL     OW 6641   3.765   3.622   2.774
 1653SOL    HW2 6642   3.852   3.583   2.761
 1653SOL    HW3 6643   3.770   3.706   2.728
 1653SOL    MW4 6644   3.777   3.628   2.766
 1654SOL     OW 6645   3.809   3.888   2.643
 1654SOL    HW2 6646   3.895   3.923   2.667
 1654SOL    HW3 6647   3.747   3.939   2.695
 1654SOL    MW4 6648   3.812   3.899   2.653
 1655SOL     OW 6649   3.592   4.038   2.756
 1655SOL    HW2 6650   3.583   4.124   2.715
 1655SOL    HW3 6651   3.522   3.986   2.718
 1655SOL    MW4 6652   3.582   4.042   2.745
 1656SOL     OW 6653   3.613   4.290   2.639
 1656SOL    HW2 6654   3.534   4.336   2.667
 1656SOL    HW3 6655   3.599   4.273   2.546
 1656SOL    MW4 6656   3.601   4.294   2.630
 1657SOL     OW 6657   3.840   4.433   2.715
 1657SOL    HW2 6658   3.918   4.384   2.691
 1657SOL    HW3 6659   3.767   4.376   2.690
 1657SOL    MW4 6660   3.841   4.419   2.709
 1658SOL     OW 6661   4.331   4.659   2.631
 1658SOL    HW2 6662   4.249   4.692   2.668
 1658SOL    HW3 6663   4.399   4.713   2.672
 1658SOL    MW4 6664   4.329   4.670   2.642
 1659SOL     OW 6665   4.089   0.090   2.728
 1659SOL    HW2 6666   4.092   0.103   2.823
 1659SOL    HW3 6667   3.999   0.060   2.712
 1659SOL    MW4 6668   4.077   0.088   2.738
 1660SOL     OW 6669   3.997   0.352   2.701
 1660SOL    HW2 6670   4.026   0.261   2.714
 1660SOL    HW3 6671   4.016   0.371   2.609
 1660SOL    MW4 6672   4.004   0.343   2.691
 1661SOL     OW 6673   4.259   0.511   2.748
 1661SOL    HW2 6674   4.172   0.473   2.732
 1661SOL    HW3 6675   4.320   0.452   2.703
 1661SOL    MW4 6676   4.255   0.498   2.740
 1662SOL     OW 6677   4.253   0.762   2.642
 1662SOL    HW2 6678   4.236   0.672   2.670
 1662SOL    HW3 6679   4.231   0.763   2.549
 1662SOL    MW4 6680   4.248   0.750   2.634
 1663SOL     OW 6681   4.042   0.896   2.737
 1663SOL    HW2 6682   4.115   0.848   2.698
 1663SOL    HW3 6683   3.965   0.863   2.692
 1663SOL    MW4 6684   4.042   0.885   2.726
 1664SOL     OW 6685   4.033   1.159   2.623
 1664SOL    HW2 6686   4.114   1.188   2.663
 1664SOL    HW3 6687   4.014   1.075   2.664
 1664SOL    MW4 6688   4.041   1.152   2.633
 1665SOL     OW 6689   4.260   1.258   2.751
 1665SOL    HW2 6690   4.246   1.342   2.707
 1665SOL    HW3 6691   4.338   1.222   2.710
 1665SOL    MW4 6692   4.268   1.265   2.740
 1666SOL     OW 6693   4.238   1.514   2.634
 1666SOL    HW2 6694   4.316   1.559   2.665
 1666SOL    HW3 6695   4.239   1.527   2.539
 1666SOL    MW4 6696   4.248   1.522   2.625
 1667SOL     OW 6697   4.021   1.670   2.759
 1667SOL    HW2 6698   4.031   1.664   2.854
 1667SOL    HW3 6699   4.100   1.628   2.724
 1667SOL    MW4 6700   4.033   1.664   2.767
 1668SOL     OW 6701   4.018   1.922   2.653
 1668SOL    HW2 6702   4.085   1.972   2.702
 1668SOL    HW3 6703   4.012   1.839   2.700
 1668SOL    MW4 6704   4.026   1.918   2.666
 1669SOL     OW 6705   4.224   2.057   2.770
 1669SOL    HW2 6706   4.222   2.144   2.730
 1669SOL    HW3 6707   4.307   2.020   2.742
 1669SOL    MW4 6708   4.235   2.064   2.761
 1670SOL     OW 6709   4.215   2.319   2.660
 1670SOL    HW2 6710   4.136   2.369   2.681
 1670SOL    HW3 6711   4.219   2.322   2.564
 1670SOL    MW4 6712   4.205   2.326   2.650
 1671SOL     OW 6713   3.982   2.458   2.708
 1671SOL    HW2 6714   3.996   2.467   2.803
 1671SOL    HW3 6715   3.910   2.396   2.700
 1671SOL    MW4 6716   3.975   2.451   2.720
 1672SOL     OW 6717   4.035   2.698   2.607
 1672SOL    HW2 6718   4.109   2.732   2.657
 1672SOL    HW3 6719   4.025   2.608   2.637
 1672SOL    MW4 6720   4.043   2.691   2.617
 1673SOL     OW 6721   4.268   2.803   2.738
 1673SOL    HW2 6722   4.244   2.803   2.831
 1673SOL    HW3 6723   4.268   2.895   2.713
 1673SOL    MW4 6724   4.265   2.815   2.747
 1674SOL     OW 6725   4.255   3.070   2.661
 1674SOL    HW2 6726   4.191   3.125   2.707
 1674SOL    HW3 6727   4.246   3.094   2.569
 1674SOL    MW4 6728   4.245   3.080   2.655
 1675SOL     OW 6729   4.056   3.230   2.763
 1675SOL    HW2 6730   4.031   3.311   2.720
 1675SOL    HW3 6731   3.987   3.168   2.741
 1675SOL    MW4 6732   4.044   3.233   2.754
 1676SOL     OW 6733   4.021   3.502   2.684
 1676SOL    HW2 6734   4.104   3.547   2.702
 1676SOL    HW3 6735   4.010   3.510   2.589
 1676SOL    MW4 6736   4.031   3.509   2.674
 1677SOL     OW 6737   4.265   3.619   2.712
 1677SOL    HW2 6738   4.273   3.617   2.807
 1677SOL    HW3 6739   4.328   3.554   2.681
 1677SOL    MW4 6740   4.274   3.610   2.720
 1678SOL     OW 6741   4.273   3.882   2.622
 1678SOL    HW2 6742   4.284   3.794   2.658
 1678SOL    HW3 6743   4.348   3.932   2.656
 1678SOL    MW4 6744   4.285   3.877   2.631
 1679SOL     OW 6745   4.055   4.016   2.748
 1679SOL    HW2 6746   4.045   3.992   2.840
 1679SOL    HW3 6747   4.136   3.973   2.720
 1679SOL    MW4 6748   4.064   4.007   2.756
 1680SOL     OW 6749   4.071   4.292   2.644
 1680SOL    HW2 6750   4.062   4.205   2.682
 1680SOL    HW3 6751   4.064   4.278   2.550
 1680SOL    MW4 6752   4.069   4.279   2.637
 1681SOL     OW 6753   4.298   4.414   2.750
 1681SOL    HW2 6754   4.215   4.385   2.712
 1681SOL    HW3 6755   4.313   4.501   2.712
 1681SOL    MW4 6756   4.289   4.422   2.740
 1682SOL     OW 6757   0.256   4.627   3.163
 1682SOL    HW2 6758   0.249   4.632   3.258
 1682SOL    HW3 6759   0.184   4.682   3.130
 1682SOL    MW4 6760   0.245   4.635   3.171
 1683SOL     OW 6761   0.051   0.127   3.044
 1683SOL    HW2 6762  -0.028   0.075   3.062
 1683SOL    HW3 6763   0.037   0.208   3.092
 1683SOL    MW4 6764   0.039   0.131   3.052
 1684SOL     OW 6765   0.042   0.393   3.121
 1684SOL    HW2 6766   0.032   0.387   3.216
 1684SOL    HW3 6767  -0.042   0.428   3.091
 1684SOL    MW4 6768   0.030   0.397   3.130
 1685SOL     OW 6769   0.243   0.519   2.975
 1685SOL    HW2 6770   0.316   0.464   3.003
 1685SOL    HW3 6771   0.170   0.492   3.031
 1685SOL    MW4 6772   0.243   0.508   2.986
 1686SOL     OW 6773   0.245   0.763   3.115
 1686SOL    HW2 6774   0.256   0.741   3.207
 1686SOL    HW3 6775   0.259   0.680   3.069
 1686SOL    MW4 6776   0.248   0.749   3.121
 1687SOL     OW 6777   0.034   0.918   3.015
 1687SOL    HW2 6778   0.093   0.856   3.057
 1687SOL    HW3 6779   0.024   0.885   2.925
 1687SOL    MW4 6780   0.040   0.906   3.009
 1688SOL     OW 6781   0.028   1.175   3.122
 1688SOL    HW2 6782  -0.053   1.211   3.087
 1688SOL    HW3 6783   0.034   1.088   3.082
 1688SOL    MW4 6784   0.018   1.168   3.112
 1689SOL     OW 6785   0.225   1.310   2.980
 1689SOL    HW2 6786   0.156   1.265   3.028
 1689SOL    HW3 6787   0.235   1.259   2.899
 1689SOL    MW4 6788   0.217   1.297   2.975
 1690SOL     OW 6789   0.235   1.550   3.091
 1690SOL    HW2 6790   0.151   1.583   3.060
 1690SOL    HW3 6791   0.248   1.467   3.045
 1690SOL    MW4 6792   0.226   1.543   3.081
 1691SOL     OW 6793   4.473   1.670   2.999
 1691SOL    HW2 6794   4.398   1.633   3.044
 1691SOL    HW3 6795   4.488   1.755   3.041
 1691SOL    MW4 6796   4.465   1.677   3.010
 1692SOL     OW 6797   0.004   1.924   3.124
 1692SOL    HW2 6798  -0.077   1.974   3.113
 1692SOL    HW3 6799   0.065   1.962   3.061
 1692SOL    MW4 6800   0.002   1.935   3.114
 1693SOL     OW 6801   0.203   2.047   2.956
 1693SOL    HW2 6802   0.199   2.134   2.995
 1693SOL    HW3 6803   0.213   2.064   2.862
 1693SOL    MW4 6804   0.204   2.061   2.949
 1694SOL     OW 6805   0.183   2.303   3.059
 1694SOL    HW2 6806   0.190   2.309   3.154
 1694SOL    HW3 6807   0.264   2.342   3.026
 1694SOL    MW4 6808   0.195   2.309   3.067
 1695SOL     OW 6809   4.441   2.455   3.007
 1695SOL    HW2 6810   4.446   2.545   3.041
 1695SOL    HW3 6811   4.530   2.420   3.019
 1695SOL    MW4 6812   4.454   2.463   3.013
 1696SOL     OW 6813   4.428   2.727   3.110
 1696SOL    HW2 6814   4.435   2.706   3.204
 1696SOL    HW3 6815   4.512   2.767   3.088
 1696SOL    MW4 6816   4.440   2.729   3.120
 1697SOL     OW 6817   0.184   2.842   3.041
 1697SOL    HW2 6818   0.222   2.762   3.079
 1697SOL    HW3 6819   0.198   2.833   2.947
 1697SOL    MW4 6820   0.191   2.830   3.034
 1698SOL     OW 6821   0.223   3.101   3.131
 1698SOL    HW2 6822   0.144   3.148   3.105
 1698SOL    HW3 6823   0.204   3.009   3.112
 1698SOL    MW4 6824   0.210   3.095   3.125
 1699SOL     OW 6825   4.474   3.243   3.060
 1699SOL    HW2 6826   4.396   3.199   3.094
 1699SOL    HW3 6827   4.474   3.224   2.966
 1699SOL    MW4 6828   4.464   3.234   3.052
 1700SOL     OW 6829   4.475   3.515   3.121
 1700SOL    HW2 6830   4.388   3.536   3.087
 1700SOL    HW3 6831   4.486   3.422   3.102
 1700SOL    MW4 6832   4.465   3.505   3.114
 1701SOL     OW 6833   0.226   3.618   3.032
 1701SOL    HW2 6834   0.253   3.703   3.066
 1701SOL    HW3 6835   0.141   3.602   3.072
 1701SOL    MW4 6836   0.219   3.627   3.042
 1702SOL     OW 6837   0.259   3.893   3.109
 1702SOL    HW2 6838   0.250   3.893   3.204
 1702SOL    HW3 6839   0.336   3.948   3.092
 1702SOL    MW4 6840   0.268   3.900   3.119
 1703SOL     OW 6841   0.016   3.976   3.029
 1703SOL    HW2 6842   0.102   3.939   3.050
 1703SOL    HW3 6843   0.015   3.982   2.934
 1703SOL    MW4 6844   0.027   3.972   3.019
 1704SOL     OW 6845   4.486   4.236   3.131
 1704SOL    HW2 6846   4.476   4.232   3.226
 1704SOL    HW3 6847   4.494   4.145   3.103
 1704SOL    MW4 6848   4.486   4.224   3.140
 1705SOL     OW 6849   0.230   4.374   3.052
 1705SOL    HW2 6850   0.153   4.330   3.087
 1705SOL    HW3 6851   0.226   4.462   3.089
 1705SOL    MW4 6852   0.219   4.380   3.061
 1706SOL     OW 6853   0.712   0.009   3.178
 1706SOL    HW2 6854   0.720  -0.083   3.151
 1706SOL    HW3 6855   0.624   0.034   3.150
 1706SOL    MW4 6856   0.701   0.000   3.170
 1707SOL     OW 6857   0.477   0.095   3.059
 1707SOL    HW2 6858   0.472   0.187   3.083
 1707SOL    HW3 6859   0.397   0.056   3.095
 1707SOL    MW4 6860   0.466   0.102   3.067
 1708SOL     OW 6861   0.429   0.369   3.101
 1708SOL    HW2 6862   0.439   0.379   3.195
 1708SOL    HW3 6863   0.509   0.407   3.064
 1708SOL    MW4 6864   0.441   0.376   3.108
 1709SOL     OW 6865   0.666   0.471   2.989
 1709SOL    HW2 6866   0.743   0.441   3.036
 1709SOL    HW3 6867   0.667   0.566   2.999
 1709SOL    MW4 6868   0.676   0.479   2.996
 1710SOL     OW 6869   0.631   0.733   3.094
 1710SOL    HW2 6870   0.657   0.743   3.185
 1710SOL    HW3 6871   0.562   0.799   3.082
 1710SOL    MW4 6872   0.625   0.743   3.104
 1711SOL     OW 6873   0.443   0.916   3.005
 1711SOL    HW2 6874   0.363   0.876   3.040
 1711SOL    HW3 6875   0.439   0.901   2.911
 1711SOL    MW4 6876   0.432   0.909   2.997
 1712SOL     OW 6877   0.436   1.172   3.128
 1712SOL    HW2 6878   0.435   1.084   3.090
 1712SOL    HW3 6879   0.352   1.211   3.104
 1712SOL    MW4 6880   0.425   1.165   3.120
 1713SOL     OW 6881   0.644   1.293   2.996
 1713SOL    HW2 6882   0.707   1.240   3.044
 1713SOL    HW3 6883   0.558   1.259   3.022
 1713SOL    MW4 6884   0.641   1.282   3.006
 1714SOL     OW 6885   0.675   1.573   3.115
 1714SOL    HW2 6886   0.691   1.565   3.209
 1714SOL    HW3 6887   0.659   1.483   3.085
 1714SOL    MW4 6888   0.675   1.560   3.123
 1715SOL     OW 6889   0.449   1.701   2.995
 1715SOL    HW2 6890   0.520   1.650   3.036
 1715SOL    HW3 6891   0.369   1.663   3.030
 1715SOL    MW4 6892   0.448   1.689   3.005
 1716SOL     OW 6893   0.405   1.932   3.129
 1716SOL    HW2 6894   0.421   1.848   3.087
 1716SOL    HW3 6895   0.351   1.981   3.067
 1716SOL    MW4 6896   0.400   1.928   3.116
 1717SOL     OW 6897   0.618   2.078   3.021
 1717SOL    HW2 6898   0.694   2.024   3.042
 1717SOL    HW3 6899   0.545   2.034   3.062
 1717SOL    MW4 6900   0.619   2.065   3.029
 1718SOL     OW 6901   0.690   2.322   3.126
 1718SOL    HW2 6902   0.679   2.319   3.221
 1718SOL    HW3 6903   0.669   2.233   3.097
 1718SOL    MW4 6904   0.686   2.310   3.135
 1719SOL     OW 6905   0.464   2.419   2.999
 1719SOL    HW2 6906   0.544   2.378   3.031
 1719SOL    HW3 6907   0.476   2.421   2.904
 1719SOL    MW4 6908   0.476   2.414   2.990
 1720SOL     OW 6909   0.390   2.661   3.146
 1720SOL    HW2 6910   0.453   2.725   3.112
 1720SOL    HW3 6911   0.410   2.580   3.099
 1720SOL    MW4 6912   0.401   2.659   3.135
 1721SOL     OW 6913   0.599   2.818   3.060
 1721SOL    HW2 6914   0.678   2.770   3.086
 1721SOL    HW3 6915   0.618   2.909   3.082
 1721SOL    MW4 6916   0.612   2.823   3.066
 1722SOL     OW 6917   0.676   3.090   3.131
 1722SOL    HW2 6918   0.676   3.100   3.227
 1722SOL    HW3 6919   0.597   3.136   3.103
 1722SOL    MW4 6920   0.666   3.098   3.140
 1723SOL     OW 6921   0.456   3.214   3.038
 1723SOL    HW2 6922   0.457   3.297   3.086
 1723SOL    HW3 6923   0.384   3.165   3.078
 1723SOL    MW4 6924   0.447   3.219   3.050
 1724SOL     OW 6925   0.443   3.479   3.138
 1724SOL    HW2 6926   0.441   3.484   3.234
 1724SOL    HW3 6927   0.356   3.507   3.111
 1724SOL    MW4 6928   0.431   3.483   3.147
 1725SOL     OW 6929   0.657   3.597   3.022
 1725SOL    HW2 6930   0.728   3.545   3.060
 1725SOL    HW3 6931   0.577   3.559   3.057
 1725SOL    MW4 6932   0.656   3.585   3.031
 1726SOL     OW 6933   0.702   3.855   3.100
 1726SOL    HW2 6934   0.681   3.856   3.194
 1726SOL    HW3 6935   0.686   3.765   3.073
 1726SOL    MW4 6936   0.697   3.843   3.109
 1727SOL     OW 6937   0.503   4.038   3.046
 1727SOL    HW2 6938   0.567   3.970   3.071
 1727SOL    HW3 6939   0.493   4.028   2.952
 1727SOL    MW4 6940   0.510   4.028   3.037
 1728SOL     OW 6941   0.467   4.290   3.167
 1728SOL    HW2 6942   0.491   4.202   3.139
 1728SOL    HW3 6943   0.382   4.306   3.126
 1728SOL    MW4 6944   0.459   4.281   3.158
 1729SOL     OW 6945   0.699   4.428   3.058
 1729SOL    HW2 6946   0.624   4.374   3.083
 1729SOL    HW3 6947   0.704   4.420   2.963
 1729SOL    MW4 6948   0.690   4.420   3.049
 1730SOL     OW 6949   1.133   4.639   3.151
 1730SOL    HW2 6950   1.198   4.696   3.110
 1730SOL    HW3 6951   1.049   4.680   3.131
 1730SOL    MW4 6952   1.131   4.652   3.143
 1731SOL     OW 6953   0.911   0.097   3.021
 1731SOL    HW2 6954   0.918   0.187   3.052
 1731SOL    HW3 6955   0.836   0.061   3.068
 1731SOL    MW4 6956   0.902   0.104   3.031
 1732SOL     OW 6957   0.867   0.366   3.152
 1732SOL    HW2 6958   0.892   0.342   3.241
 1732SOL    HW3 6959   0.933   0.429   3.124
 1732SOL    MW4 6960   0.879   0.371   3.160
 1733SOL     OW 6961   1.075   0.484   3.007
 1733SOL    HW2 6962   1.151   0.440   3.045
 1733SOL    HW3 6963   1.100   0.500   2.916
 1733SOL    MW4 6964   1.088   0.481   3.000
 1734SOL     OW 6965   1.068   0.740   3.121
 1734SOL    HW2 6966   1.087   0.729   3.215
 1734SOL    HW3 6967   1.068   0.652   3.086
 1734SOL    MW4 6968   1.071   0.727   3.129
 1735SOL     OW 6969   0.865   0.866   2.992
 1735SOL    HW2 6970   0.941   0.822   3.030
 1735SOL    HW3 6971   0.790   0.829   3.039
 1735SOL    MW4 6972   0.865   0.855   3.003
 1736SOL     OW 6973   0.855   1.115   3.106
 1736SOL    HW2 6974   0.927   1.168   3.072
 1736SOL    HW3 6975   0.866   1.030   3.063
 1736SOL    MW4 6976   0.866   1.110   3.096
 1737SOL     OW 6977   1.053   1.264   3.006
 1737SOL    HW2 6978   1.120   1.206   3.042
 1737SOL    HW3 6979   1.064   1.257   2.911
 1737SOL    MW4 6980   1.063   1.256   2.998
 1738SOL     OW 6981   1.096   1.540   3.087
 1738SOL    HW2 6982   1.188   1.559   3.066
 1738SOL    HW3 6983   1.088   1.446   3.072
 1738SOL    MW4 6984   1.107   1.530   3.082
 1739SOL     OW 6985   0.885   1.685   2.974
 1739SOL    HW2 6986   0.949   1.622   3.008
 1739SOL    HW3 6987   0.800   1.650   3.000
 1739SOL    MW4 6988   0.883   1.672   2.982
 1740SOL     OW 6989   0.855   1.936   3.103
 1740SOL    HW2 6990   0.871   1.926   3.197
 1740SOL    HW3 6991   0.850   1.846   3.071
 1740SOL    MW4 6992   0.856   1.923   3.111
 1741SOL     OW 6993   1.094   2.061   3.046
 1741SOL    HW2 6994   1.011   2.020   3.068
 1741SOL    HW3 6995   1.094   2.067   2.950
 1741SOL    MW4 6996   1.083   2.056   3.036
 1742SOL     OW 6997   1.122   2.325   3.136
 1742SOL    HW2 6998   1.048   2.368   3.092
 1742SOL    HW3 6999   1.105   2.232   3.124
 1742SOL    MW4 7000   1.110   2.318   3.129
 1743SOL     OW 7001   0.897   2.458   3.032
 1743SOL    HW2 7002   0.825   2.400   3.058
 1743SOL    HW3 7003   0.891   2.462   2.937
 1743SOL    MW4 7004   0.886   2.451   3.023
 1744SOL     OW 7005   0.881   2.713   3.124
 1744SOL    HW2 7006   0.890   2.718   3.219
 1744SOL    HW3 7007   0.897   2.622   3.102
 1744SOL    MW4 7008   0.884   2.702   3.134
 1745SOL     OW 7009   1.103   2.844   3.004
 1745SOL    HW2 7010   1.121   2.926   3.050
 1745SOL    HW3 7011   1.022   2.811   3.045
 1745SOL    MW4 7012   1.094   2.851   3.016
 1746SOL     OW 7013   1.160   3.068   3.151
 1746SOL    HW2 7014   1.241   3.109   3.118
 1746SOL    HW3 7015   1.090   3.125   3.118
 1746SOL    MW4 7016   1.162   3.081   3.142
 1747SOL     OW 7017   0.958   3.240   3.052
 1747SOL    HW2 7018   0.888   3.181   3.082
 1747SOL    HW3 7019   0.947   3.244   2.957
 1747SOL    MW4 7020   0.947   3.233   3.043
 1748SOL     OW 7021   0.885   3.493   3.127
 1748SOL    HW2 7022   0.951   3.556   3.098
 1748SOL    HW3 7023   0.919   3.408   3.097
 1748SOL    MW4 7024   0.898   3.490   3.119
 1749SOL     OW 7025   1.089   3.640   3.043
 1749SOL    HW2 7026   1.154   3.578   3.076
 1749SOL    HW3 7027   1.108   3.722   3.090
 1749SOL    MW4 7028   1.100   3.643   3.053
 1750SOL     OW 7029   1.124   3.900   3.170
 1750SOL    HW2 7030   1.099   3.898   3.263
 1750SOL    HW3 7031   1.063   3.961   3.130
 1750SOL    MW4 7032   1.113   3.908   3.177
 1751SOL     OW 7033   0.919   4.005   3.014
 1751SOL    HW2 7034   0.848   3.949   3.048
 1751SOL    HW3 7035   0.910   3.999   2.919
 1751SOL    MW4 7036   0.908   3.997   3.006
 1752SOL     OW 7037   0.910   4.271   3.147
 1752SOL    HW2 7038   0.914   4.188   3.099
 1752SOL    HW3 7039   0.850   4.325   3.095
 1752SOL    MW4 7040   0.902   4.267   3.134
 1753SOL     OW 7041   1.139   4.392   3.029
 1753SOL    HW2 7042   1.057   4.349   3.054
 1753SOL    HW3 7043   1.139   4.473   3.080
 1753SOL    MW4 7044   1.128   4.397   3.039
 1754SOL     OW 7045   1.611   4.644   3.107
 1754SOL    HW2 7046   1.615   4.615   3.198
 1754SOL    HW3 7047   1.521   4.676   3.096
 1754SOL    MW4 7048   1.599   4.644   3.117
 1755SOL     OW 7049   1.371   0.079   3.036
 1755SOL    HW2 7050   1.353   0.173   3.036
 1755SOL    HW3 7051   1.380   0.056   2.944
 1755SOL    MW4 7052   1.370   0.088   3.024
 1756SOL     OW 7053   1.301   0.344   3.089
 1756SOL    HW2 7054   1.298   0.337   3.184
 1756SOL    HW3 7055   1.388   0.380   3.071
 1756SOL    MW4 7056   1.312   0.347   3.099
 1757SOL     OW 7057   1.538   0.463   2.996
 1757SOL    HW2 7058   1.531   0.557   3.013
 1757SOL    HW3 7059   1.528   0.455   2.902
 1757SOL    MW4 7060   1.536   0.474   2.986
 1758SOL     OW 7061   1.539   0.749   3.095
 1758SOL    HW2 7062   1.542   0.756   3.190
 1758SOL    HW3 7063   1.451   0.779   3.071
 1758SOL    MW4 7064   1.527   0.754   3.104
 1759SOL     OW 7065   1.303   0.848   3.019
 1759SOL    HW2 7066   1.303   0.940   3.046
 1759SOL    HW3 7067   1.227   0.810   3.063
 1759SOL    MW4 7068   1.293   0.855   3.028
 1760SOL     OW 7069   1.306   1.118   3.082
 1760SOL    HW2 7070   1.294   1.134   3.176
 1760SOL    HW3 7071   1.386   1.166   3.060
 1760SOL    MW4 7072   1.315   1.127   3.092
 1761SOL     OW 7073   1.537   1.264   3.030
 1761SOL    HW2 7074   1.617   1.223   3.064
 1761SOL    HW3 7075   1.548   1.357   3.049
 1761SOL    MW4 7076   1.549   1.271   3.037
 1762SOL     OW 7077   1.597   1.533   3.104
 1762SOL    HW2 7078   1.663   1.562   3.041
 1762SOL    HW3 7079   1.515   1.570   3.072
 1762SOL    MW4 7080   1.595   1.542   3.091
 1763SOL     OW 7081   1.367   1.656   3.015
 1763SOL    HW2 7082   1.362   1.748   3.039
 1763SOL    HW3 7083   1.333   1.653   2.925
 1763SOL    MW4 7084   1.362   1.667   3.006
 1764SOL     OW 7085   1.323   1.924   3.102
 1764SOL    HW2 7086   1.324   1.918   3.197
 1764SOL    HW3 7087   1.233   1.949   3.080
 1764SOL    MW4 7088   1.311   1.926   3.112
 1765SOL     OW 7089   1.557   2.077   3.014
 1765SOL    HW2 7090   1.490   2.025   3.058
 1765SOL    HW3 7091   1.546   2.057   2.921
 1765SOL    MW4 7092   1.546   2.068   3.008
 1766SOL     OW 7093   1.542   2.313   3.142
 1766SOL    HW2 7094   1.467   2.363   3.111
 1766SOL    HW3 7095   1.549   2.239   3.082
 1766SOL    MW4 7096   1.533   2.310   3.130
 1767SOL     OW 7097   1.345   2.436   3.025
 1767SOL    HW2 7098   1.271   2.385   3.056
 1767SOL    HW3 7099   1.339   2.433   2.929
 1767SOL    MW4 7100   1.335   2.429   3.016
 1768SOL     OW 7101   1.346   2.718   3.095
 1768SOL    HW2 7102   1.341   2.625   3.073
 1768SOL    HW3 7103   1.264   2.755   3.061
 1768SOL    MW4 7104   1.334   2.711   3.088
 1769SOL     OW 7105   1.607   2.792   3.043
 1769SOL    HW2 7106   1.669   2.723   3.067
 1769SOL    HW3 7107   1.521   2.754   3.062
 1769SOL    MW4 7108   1.604   2.778   3.049
 1770SOL     OW 7109   1.653   3.067   3.098
 1770SOL    HW2 7110   1.642   3.091   3.190
 1770SOL    HW3 7111   1.641   2.972   3.097
 1770SOL    MW4 7112   1.650   3.058   3.110
 1771SOL     OW 7113   1.383   3.198   3.048
 1771SOL    HW2 7114   1.462   3.147   3.065
 1771SOL    HW3 7115   1.381   3.208   2.953
 1771SOL    MW4 7116   1.393   3.193   3.038
 1772SOL     OW 7117   1.304   3.470   3.083
 1772SOL    HW2 7118   1.326   3.488   3.174
 1772SOL    HW3 7119   1.333   3.380   3.068
 1772SOL    MW4 7120   1.311   3.460   3.093
 1773SOL     OW 7121   1.560   3.619   3.014
 1773SOL    HW2 7122   1.485   3.564   3.037
 1773SOL    HW3 7123   1.564   3.615   2.918
 1773SOL    MW4 7124   1.550   3.611   3.004
 1774SOL     OW 7125   1.581   3.859   3.130
 1774SOL    HW2 7126   1.659   3.893   3.086
 1774SOL    HW3 7127   1.569   3.771   3.094
 1774SOL    MW4 7128   1.590   3.852   3.119
 1775SOL     OW 7129   1.340   3.995   3.023
 1775SOL    HW2 7130   1.416   3.958   3.068
 1775SOL    HW3 7131   1.265   3.962   3.072
 1775SOL    MW4 7132   1.340   3.986   3.036
 1776SOL     OW 7133   1.377   4.261   3.125
 1776SOL    HW2 7134   1.367   4.173   3.089
 1776SOL    HW3 7135   1.299   4.308   3.095
 1776SOL    MW4 7136   1.366   4.256   3.116
 1777SOL     OW 7137   1.591   4.384   3.007
 1777SOL    HW2 7138   1.521   4.347   3.060
 1777SOL    HW3 7139   1.591   4.477   3.028
 1777SOL    MW4 7140   1.582   4.391   3.017
 1778SOL     OW 7141   2.037   4.655   3.142
 1778SOL    HW2 7142   2.033   4.650   3.237
 1778SOL    HW3 7143   1.965   4.714   3.118
 1778SOL    MW4 7144   2.027   4.662   3.151
 1779SOL     OW 7145   1.828   0.141   3.050
 1779SOL    HW2 7146   1.750   0.087   3.065
 1779SOL    HW3 7147   1.834   0.149   2.955
 1779SOL    MW4 7148   1.818   0.135   3.039
 1780SOL     OW 7149   1.794   0.412   3.092
 1780SOL    HW2 7150   1.816   0.319   3.085
 1780SOL    HW3 7151   1.709   0.419   3.048
 1780SOL    MW4 7152   1.785   0.401   3.085
 1781SOL     OW 7153   2.012   0.542   2.989
 1781SOL    HW2 7154   1.936   0.496   3.025
 1781SOL    HW3 7155   2.020   0.509   2.899
 1781SOL    MW4 7156   2.003   0.531   2.982
 1782SOL     OW 7157   2.034   0.787   3.101
 1782SOL    HW2 7158   1.954   0.836   3.079
 1782SOL    HW3 7159   2.021   0.701   3.061
 1782SOL    MW4 7160   2.021   0.782   3.093
 1783SOL     OW 7161   1.788   0.901   3.065
 1783SOL    HW2 7162   1.704   0.857   3.080
 1783SOL    HW3 7163   1.796   0.904   2.969
 1783SOL    MW4 7164   1.778   0.895   3.054
 1784SOL     OW 7165   1.760   1.157   3.167
 1784SOL    HW2 7166   1.748   1.143   3.260
 1784SOL    HW3 7167   1.780   1.071   3.131
 1784SOL    MW4 7168   1.761   1.144   3.174
 1785SOL     OW 7169   1.991   1.231   2.987
 1785SOL    HW2 7170   2.070   1.200   3.031
 1785SOL    HW3 7171   1.921   1.214   3.051
 1785SOL    MW4 7172   1.992   1.224   3.001
 1786SOL     OW 7173   2.005   1.493   3.120
 1786SOL    HW2 7174   2.006   1.484   3.216
 1786SOL    HW3 7175   2.027   1.406   3.087
 1786SOL    MW4 7176   2.008   1.481   3.129
 1787SOL     OW 7177   1.816   1.621   2.971
 1787SOL    HW2 7178   1.799   1.702   3.018
 1787SOL    HW3 7179   1.882   1.576   3.024
 1787SOL    MW4 7180   1.822   1.626   2.984
 1788SOL     OW 7181   1.775   1.891   3.072
 1788SOL    HW2 7182   1.854   1.942   3.054
 1788SOL    HW3 7183   1.704   1.954   3.061
 1788SOL    MW4 7184   1.776   1.906   3.068
 1789SOL     OW 7185   2.025   2.016   3.050
 1789SOL    HW2 7186   2.099   1.975   3.095
 1789SOL    HW3 7187   2.024   2.107   3.082
 1789SOL    MW4 7188   2.034   2.023   3.060
 1790SOL     OW 7189   2.033   2.282   3.142
 1790SOL    HW2 7190   2.096   2.341   3.100
 1790SOL    HW3 7191   1.948   2.318   3.118
 1790SOL    MW4 7192   2.030   2.294   3.133
 1791SOL     OW 7193   1.786   2.398   3.046
 1791SOL    HW2 7194   1.808   2.470   3.105
 1791SOL    HW3 7195   1.695   2.376   3.069
 1791SOL    MW4 7196   1.777   2.405   3.057
 1792SOL     OW 7197   1.860   2.655   3.150
 1792SOL    HW2 7198   1.862   2.690   3.238
 1792SOL    HW3 7199   1.928   2.703   3.103
 1792SOL    MW4 7200   1.869   2.666   3.155
 1793SOL     OW 7201   2.039   2.822   3.013
 1793SOL    HW2 7202   2.048   2.910   3.049
 1793SOL    HW3 7203   2.040   2.834   2.918
 1793SOL    MW4 7204   2.040   2.835   3.006
 1794SOL     OW 7205   2.061   3.104   3.096
 1794SOL    HW2 7206   2.062   3.096   3.191
 1794SOL    HW3 7207   1.978   3.147   3.077
 1794SOL    MW4 7208   2.050   3.109   3.106
 1795SOL     OW 7209   1.841   3.244   3.027
 1795SOL    HW2 7210   1.768   3.194   3.064
 1795SOL    HW3 7211   1.814   3.262   2.937
 1795SOL    MW4 7212   1.828   3.240   3.020
 1796SOL     OW 7213   1.813   3.519   3.113
 1796SOL    HW2 7214   1.830   3.432   3.078
 1796SOL    HW3 7215   1.726   3.541   3.080
 1796SOL    MW4 7216   1.804   3.511   3.104
 1797SOL     OW 7217   2.028   3.652   2.980
 1797SOL    HW2 7218   2.037   3.743   3.011
 1797SOL    HW3 7219   1.942   3.624   3.013
 1797SOL    MW4 7220   2.018   3.661   2.989
 1798SOL     OW 7221   2.045   3.903   3.075
 1798SOL    HW2 7222   2.044   3.897   3.171
 1798SOL    HW3 7223   1.958   3.935   3.052
 1798SOL    MW4 7224   2.033   3.907   3.085
 1799SOL     OW 7225   1.790   3.960   3.008
 1799SOL    HW2 7226   1.799   4.045   3.050
 1799SOL    HW3 7227   1.790   3.979   2.914
 1799SOL    MW4 7228   1.791   3.974   3.001
 1800SOL     OW 7229   1.809   4.225   3.129
 1800SOL    HW2 7230   1.883   4.269   3.088
 1800SOL    HW3 7231   1.733   4.276   3.103
 1800SOL    MW4 7232   1.809   4.237   3.120
 1801SOL     OW 7233   2.031   4.401   3.031
 1801SOL    HW2 7234   2.009   4.488   3.065
 1801SOL    HW3 7235   2.033   4.412   2.936
 1801SOL    MW4 7236   2.028   4.414   3.023
 1802SOL     OW 7237   2.483   4.649   3.173
 1802SOL    HW2 7238   2.493   4.565   3.128
 1802SOL    HW3 7239   2.397   4.682   3.146
 1802SOL    MW4 7240   2.473   4.642   3.163
 1803SOL     OW 7241   2.259   0.103   3.035
 1803SOL    HW2 7242   2.247   0.195   3.057
 1803SOL    HW3 7243   2.176   0.061   3.059
 1803SOL    MW4 7244   2.247   0.109   3.041
 1804SOL     OW 7245   2.212   0.375   3.109
 1804SOL    HW2 7246   2.205   0.398   3.201
 1804SOL    HW3 7247   2.147   0.431   3.065
 1804SOL    MW4 7248   2.202   0.385   3.115
 1805SOL     OW 7249   2.462   0.479   3.037
 1805SOL    HW2 7250   2.377   0.439   3.055
 1805SOL    HW3 7251   2.465   0.489   2.942
 1805SOL    MW4 7252   2.451   0.475   3.027
 1806SOL     OW 7253   2.451   0.770   3.172
 1806SOL    HW2 7254   2.523   0.800   3.117
 1806SOL    HW3 7255   2.441   0.677   3.149
 1806SOL    MW4 7256   2.459   0.762   3.162
 1807SOL     OW 7257   2.271   0.888   3.010
 1807SOL    HW2 7258   2.337   0.843   3.062
 1807SOL    HW3 7259   2.188   0.852   3.041
 1807SOL    MW4 7260   2.269   0.877   3.021
 1808SOL     OW 7261   2.204   1.143   3.136
 1808SOL    HW2 7262   2.215   1.148   3.231
 1808SOL    HW3 7263   2.226   1.052   3.114
 1808SOL    MW4 7264   2.208   1.132   3.146
 1809SOL     OW 7265   2.447   1.250   3.035
 1809SOL    HW2 7266   2.368   1.203   3.062
 1809SOL    HW3 7267   2.445   1.248   2.939
 1809SOL    MW4 7268   2.436   1.244   3.026
 1810SOL     OW 7269   2.464   1.537   3.121
 1810SOL    HW2 7270   2.382   1.573   3.088
 1810SOL    HW3 7271   2.463   1.445   3.092
 1810SOL    MW4 7272   2.453   1.530   3.113
 1811SOL     OW 7273   2.203   1.656   3.012
 1811SOL    HW2 7274   2.121   1.620   3.046
 1811SOL    HW3 7275   2.201   1.636   2.919
 1811SOL    MW4 7276   2.192   1.649   3.004
 1812SOL     OW 7277   2.251   1.894   3.135
 1812SOL    HW2 7278   2.320   1.942   3.091
 1812SOL    HW3 7279   2.234   1.819   3.078
 1812SOL    MW4 7280   2.258   1.890   3.122
 1813SOL     OW 7281   2.468   2.050   2.994
 1813SOL    HW2 7282   2.544   2.002   3.029
 1813SOL    HW3 7283   2.473   2.037   2.900
 1813SOL    MW4 7284   2.479   2.042   2.986
 1814SOL     OW 7285   2.479   2.308   3.129
 1814SOL    HW2 7286   2.492   2.293   3.222
 1814SOL    HW3 7287   2.487   2.221   3.090
 1814SOL    MW4 7288   2.482   2.294   3.136
 1815SOL     OW 7289   2.234   2.440   3.026
 1815SOL    HW2 7290   2.229   2.514   3.086
 1815SOL    HW3 7291   2.319   2.401   3.043
 1815SOL    MW4 7292   2.245   2.445   3.036
 1816SOL     OW 7293   2.242   2.688   3.145
 1816SOL    HW2 7294   2.312   2.748   3.120
 1816SOL    HW3 7295   2.164   2.722   3.101
 1816SOL    MW4 7296   2.241   2.700   3.136
 1817SOL     OW 7297   2.474   2.826   3.067
 1817SOL    HW2 7298   2.467   2.921   3.078
 1817SOL    HW3 7299   2.460   2.812   2.973
 1817SOL    MW4 7300   2.471   2.836   3.056
 1818SOL     OW 7301   2.472   3.098   3.178
 1818SOL    HW2 7302   2.551   3.126   3.132
 1818SOL    HW3 7303   2.410   3.170   3.165
 1818SOL    MW4 7304   2.474   3.111   3.170
 1819SOL     OW 7305   2.292   3.265   3.054
 1819SOL    HW2 7306   2.264   3.352   3.082
 1819SOL    HW3 7307   2.212   3.212   3.058
 1819SOL    MW4 7308   2.278   3.270   3.058
 1820SOL     OW 7309   2.251   3.581   3.148
 1820SOL    HW2 7310   2.330   3.608   3.101
 1820SOL    HW3 7311   2.180   3.619   3.097
 1820SOL    MW4 7312   2.252   3.589   3.135
 1821SOL     OW 7313   2.462   3.635   2.996
 1821SOL    HW2 7314   2.526   3.578   3.039
 1821SOL    HW3 7315   2.477   3.721   3.035
 1821SOL    MW4 7316   2.472   3.639   3.007
 1822SOL     OW 7317   2.498   3.877   3.127
 1822SOL    HW2 7318   2.499   3.876   3.223
 1822SOL    HW3 7319   2.570   3.936   3.104
 1822SOL    MW4 7320   2.508   3.885   3.137
 1823SOL     OW 7321   2.282   4.040   3.003
 1823SOL    HW2 7322   2.355   3.984   3.030
 1823SOL    HW3 7323   2.204   3.991   3.025
 1823SOL    MW4 7324   2.282   4.026   3.009
 1824SOL     OW 7325   2.261   4.297   3.144
 1824SOL    HW2 7326   2.261   4.213   3.098
 1824SOL    HW3 7327   2.191   4.347   3.103
 1824SOL    MW4 7328   2.252   4.293   3.133
 1825SOL     OW 7329   2.481   4.416   3.062
 1825SOL    HW2 7330   2.414   4.357   3.097
 1825SOL    HW3 7331   2.458   4.426   2.969
 1825SOL    MW4 7332   2.469   4.409   3.054
 1826SOL     OW 7333   2.944   0.022   3.206
 1826SOL    HW2 7334   3.008   0.073   3.157
 1826SOL    HW3 7335   2.938  -0.061   3.158
 1826SOL    MW4 7336   2.951   0.018   3.193
 1827SOL     OW 7337   2.694   0.136   3.083
 1827SOL    HW2 7338   2.773   0.107   3.128
 1827SOL    HW3 7339   2.624   0.081   3.119
 1827SOL    MW4 7340   2.695   0.125   3.093
 1828SOL     OW 7341   2.658   0.384   3.184
 1828SOL    HW2 7342   2.675   0.296   3.152
 1828SOL    HW3 7343   2.581   0.414   3.135
 1828SOL    MW4 7344   2.650   0.377   3.173
 1829SOL     OW 7345   2.883   0.466   3.064
 1829SOL    HW2 7346   2.799   0.436   3.100
 1829SOL    HW3 7347   2.873   0.456   2.969
 1829SOL    MW4 7348   2.870   0.461   3.056
 1830SOL     OW 7349   2.888   0.725   3.144
 1830SOL    HW2 7350   2.905   0.717   3.238
 1830SOL    HW3 7351   2.889   0.635   3.112
 1830SOL    MW4 7352   2.891   0.712   3.152
 1831SOL     OW 7353   2.684   0.876   3.043
 1831SOL    HW2 7354   2.682   0.963   3.083
 1831SOL    HW3 7355   2.765   0.837   3.074
 1831SOL    MW4 7356   2.694   0.882   3.052
 1832SOL     OW 7357   2.660   1.127   3.144
 1832SOL    HW2 7358   2.723   1.172   3.088
 1832SOL    HW3 7359   2.574   1.158   3.113
 1832SOL    MW4 7360   2.657   1.137   3.133
 1833SOL     OW 7361   2.861   1.264   3.010
 1833SOL    HW2 7362   2.935   1.216   3.047
 1833SOL    HW3 7363   2.874   1.354   3.040
 1833SOL    MW4 7364   2.873   1.270   3.019
 1834SOL     OW 7365   2.910   1.524   3.119
 1834SOL    HW2 7366   2.907   1.531   3.214
 1834SOL    HW3 7367   2.987   1.575   3.094
 1834SOL    MW4 7368   2.920   1.532   3.128
 1835SOL     OW 7369   2.685   1.662   3.042
 1835SOL    HW2 7370   2.762   1.620   3.081
 1835SOL    HW3 7371   2.612   1.606   3.070
 1835SOL    MW4 7372   2.685   1.649   3.051
 1836SOL     OW 7373   2.709   1.940   3.081
 1836SOL    HW2 7374   2.795   1.972   3.055
 1836SOL    HW3 7375   2.699   1.857   3.034
 1836SOL    MW4 7376   2.719   1.933   3.072
 1837SOL     OW 7377   2.947   2.083   3.014
 1837SOL    HW2 7378   2.931   2.166   3.058
 1837SOL    HW3 7379   2.933   2.102   2.921
 1837SOL    MW4 7380   2.943   2.096   3.007
 1838SOL     OW 7381   2.916   2.325   3.133
 1838SOL    HW2 7382   2.989   2.372   3.092
 1838SOL    HW3 7383   2.839   2.359   3.088
 1838SOL    MW4 7384   2.915   2.336   3.122
 1839SOL     OW 7385   2.686   2.446   3.019
 1839SOL    HW2 7386   2.680   2.535   3.054
 1839SOL    HW3 7387   2.611   2.400   3.057
 1839SOL    MW4 7388   2.675   2.452   3.029
 1840SOL     OW 7389   2.713   2.707   3.142
 1840SOL    HW2 7390   2.704   2.698   3.236
 1840SOL    HW3 7391   2.633   2.752   3.114
 1840SOL    MW4 7392   2.701   2.712   3.150
 1841SOL     OW 7393   2.944   2.854   3.024
 1841SOL    HW2 7394   3.015   2.801   3.059
 1841SOL    HW3 7395   2.865   2.815   3.062
 1841SOL    MW4 7396   2.943   2.842   3.034
 1842SOL     OW 7397   2.955   3.109   3.123
 1842SOL    HW2 7398   2.867   3.141   3.105
 1842SOL    HW3 7399   2.959   3.024   3.080
 1842SOL    MW4 7400   2.944   3.102   3.115
 1843SOL     OW 7401   2.705   3.205   3.054
 1843SOL    HW2 7402   2.689   3.293   3.089
 1843SOL    HW3 7403   2.698   3.215   2.959
 1843SOL    MW4 7404   2.702   3.218   3.046
 1844SOL     OW 7405   2.652   3.463   3.123
 1844SOL    HW2 7406   2.656   3.470   3.218
 1844SOL    HW3 7407   2.729   3.510   3.091
 1844SOL    MW4 7408   2.663   3.470   3.131
 1845SOL     OW 7409   2.865   3.576   3.026
 1845SOL    HW2 7410   2.946   3.538   3.059
 1845SOL    HW3 7411   2.865   3.666   3.061
 1845SOL    MW4 7412   2.876   3.583   3.035
 1846SOL     OW 7413   2.878   3.835   3.152
 1846SOL    HW2 7414   2.861   3.845   3.246
 1846SOL    HW3 7415   2.822   3.901   3.111
 1846SOL    MW4 7416   2.869   3.845   3.159
 1847SOL     OW 7417   2.717   4.012   3.028
 1847SOL    HW2 7418   2.720   4.106   3.044
 1847SOL    HW3 7419   2.718   4.003   2.933
 1847SOL    MW4 7420   2.718   4.023   3.018
 1848SOL     OW 7421   2.721   4.264   3.147
 1848SOL    HW2 7422   2.717   4.271   3.242
 1848SOL    HW3 7423   2.652   4.322   3.115
 1848SOL    MW4 7424   2.712   4.273   3.155
 1849SOL     OW 7425   2.909   4.433   3.063
 1849SOL    HW2 7426   2.988   4.382   3.077
 1849SOL    HW3 7427   2.841   4.385   3.110
 1849SOL    MW4 7428   2.910   4.420   3.071
 1850SOL     OW 7429   3.384   0.007   3.125
 1850SOL    HW2 7430   3.467   0.044   3.094
 1850SOL    HW3 7431   3.376  -0.076   3.078
 1850SOL    MW4 7432   3.394   0.001   3.115
 1851SOL     OW 7433   3.131   0.143   3.067
 1851SOL    HW2 7434   3.131   0.231   3.105
 1851SOL    HW3 7435   3.220   0.111   3.081
 1851SOL    MW4 7436   3.143   0.150   3.074
 1852SOL     OW 7437   3.106   0.371   3.203
 1852SOL    HW2 7438   3.176   0.436   3.192
 1852SOL    HW3 7439   3.026   0.418   3.181
 1852SOL    MW4 7440   3.105   0.386   3.199
 1853SOL     OW 7441   3.323   0.512   3.065
 1853SOL    HW2 7442   3.409   0.469   3.067
 1853SOL    HW3 7443   3.302   0.521   2.972
 1853SOL    MW4 7444   3.331   0.507   3.053
 1854SOL     OW 7445   3.344   0.785   3.141
 1854SOL    HW2 7446   3.342   0.777   3.236
 1854SOL    HW3 7447   3.354   0.695   3.109
 1854SOL    MW4 7448   3.345   0.772   3.149
 1855SOL     OW 7449   3.106   0.920   3.055
 1855SOL    HW2 7450   3.186   0.888   3.097
 1855SOL    HW3 7451   3.038   0.859   3.083
 1855SOL    MW4 7452   3.108   0.907   3.064
 1856SOL     OW 7453   3.086   1.171   3.137
 1856SOL    HW2 7454   3.171   1.210   3.112
 1856SOL    HW3 7455   3.090   1.082   3.103
 1856SOL    MW4 7456   3.098   1.165   3.129
 1857SOL     OW 7457   3.327   1.251   3.031
 1857SOL    HW2 7458   3.396   1.196   3.068
 1857SOL    HW3 7459   3.339   1.336   3.073
 1857SOL    MW4 7460   3.338   1.255   3.041
 1858SOL     OW 7461   3.368   1.512   3.104
 1858SOL    HW2 7462   3.377   1.520   3.199
 1858SOL    HW3 7463   3.440   1.566   3.070
 1858SOL    MW4 7464   3.379   1.520   3.112
 1859SOL     OW 7465   3.138   1.678   3.053
 1859SOL    HW2 7466   3.201   1.611   3.082
 1859SOL    HW3 7467   3.152   1.685   2.959
 1859SOL    MW4 7468   3.148   1.670   3.044
 1860SOL     OW 7469   3.163   1.941   3.142
 1860SOL    HW2 7470   3.143   1.848   3.131
 1860SOL    HW3 7471   3.090   1.986   3.100
 1860SOL    MW4 7472   3.151   1.935   3.135
 1861SOL     OW 7473   3.369   2.061   3.016
 1861SOL    HW2 7474   3.446   2.023   3.059
 1861SOL    HW3 7475   3.296   2.007   3.044
 1861SOL    MW4 7476   3.370   2.049   3.025
 1862SOL     OW 7477   3.358   2.296   3.143
 1862SOL    HW2 7478   3.364   2.281   3.238
 1862SOL    HW3 7479   3.354   2.208   3.106
 1862SOL    MW4 7480   3.358   2.282   3.151
 1863SOL     OW 7481   3.131   2.433   3.002
 1863SOL    HW2 7482   3.196   2.375   3.041
 1863SOL    HW3 7483   3.157   2.440   2.910
 1863SOL    MW4 7484   3.143   2.426   2.995
 1864SOL     OW 7485   3.151   2.699   3.122
 1864SOL    HW2 7486   3.148   2.701   3.218
 1864SOL    HW3 7487   3.134   2.607   3.100
 1864SOL    MW4 7488   3.148   2.687   3.132
 1865SOL     OW 7489   3.369   2.815   2.987
 1865SOL    HW2 7490   3.359   2.905   3.018
 1865SOL    HW3 7491   3.295   2.768   3.026
 1865SOL    MW4 7492   3.358   2.820   2.996
 1866SOL     OW 7493   3.391   3.085   3.120
 1866SOL    HW2 7494   3.375   3.087   3.214
 1866SOL    HW3 7495   3.319   3.136   3.082
 1866SOL    MW4 7496   3.379   3.092   3.127
 1867SOL     OW 7497   3.186   3.219   3.029
 1867SOL    HW2 7498   3.108   3.174   3.060
 1867SOL    HW3 7499   3.174   3.228   2.935
 1867SOL    MW4 7500   3.174   3.214   3.021
 1868SOL     OW 7501   3.119   3.461   3.119
 1868SOL    HW2 7502   3.187   3.513   3.077
 1868SOL    HW3 7503   3.146   3.370   3.105
 1868SOL    MW4 7504   3.132   3.456   3.112
 1869SOL     OW 7505   3.323   3.597   3.025
 1869SOL    HW2 7506   3.403   3.558   3.060
 1869SOL    HW3 7507   3.312   3.678   3.075
 1869SOL    MW4 7508   3.332   3.603   3.036
 1870SOL     OW 7509   3.353   3.864   3.133
 1870SOL    HW2 7510   3.355   3.865   3.229
 1870SOL    HW3 7511   3.267   3.899   3.111
 1870SOL    MW4 7512   3.341   3.869   3.143
 1871SOL     OW 7513   3.123   4.001   3.055
 1871SOL    HW2 7514   3.032   3.974   3.069
 1871SOL    HW3 7515   3.135   3.997   2.961
 1871SOL    MW4 7516   3.112   3.997   3.045
 1872SOL     OW 7517   3.145   4.279   3.132
 1872SOL    HW2 7518   3.140   4.277   3.227
 1872SOL    HW3 7519   3.144   4.186   3.106
 1872SOL    MW4 7520   3.144   4.266   3.141
 1873SOL     OW 7521   3.373   4.416   3.015
 1873SOL    HW2 7522   3.455   4.383   3.052
 1873SOL    HW3 7523   3.306   4.359   3.052
 1873SOL    MW4 7524   3.375   4.404   3.025
 1874SOL     OW 7525   3.862   4.661   3.108
 1874SOL    HW2 7526   3.851   4.575   3.067
 1874SOL    HW3 7527   3.784   4.710   3.081
 1874SOL    MW4 7528   3.850   4.656   3.099
 1875SOL     OW 7529   3.615   0.109   3.030
 1875SOL    HW2 7530   3.616   0.197   3.068
 1875SOL    HW3 7531   3.615   0.123   2.935
 1875SOL    MW4 7532   3.615   0.123   3.023
 1876SOL     OW 7533   3.581   0.368   3.119
 1876SOL    HW2 7534   3.573   0.358   3.214
 1876SOL    HW3 7535   3.673   0.390   3.105
 1876SOL    MW4 7536   3.592   0.369   3.130
 1877SOL     OW 7537   3.818   0.486   3.067
 1877SOL    HW2 7538   3.901   0.458   3.106
 1877SOL    HW3 7539   3.799   0.570   3.108
 1877SOL    MW4 7540   3.826   0.493   3.078
 1878SOL     OW 7541   3.779   0.749   3.139
 1878SOL    HW2 7542   3.787   0.745   3.234
 1878SOL    HW3 7543   3.866   0.776   3.109
 1878SOL    MW4 7544   3.792   0.752   3.147
 1879SOL     OW 7545   3.566   0.899   3.002
 1879SOL    HW2 7546   3.636   0.848   3.043
 1879SOL    HW3 7547   3.486   0.870   3.045
 1879SOL    MW4 7548   3.565   0.889   3.013
 1880SOL     OW 7549   3.565   1.126   3.140
 1880SOL    HW2 7550   3.639   1.175   3.104
 1880SOL    HW3 7551   3.577   1.037   3.107
 1880SOL    MW4 7552   3.576   1.121   3.131
 1881SOL     OW 7553   3.809   1.244   3.033
 1881SOL    HW2 7554   3.843   1.327   3.069
 1881SOL    HW3 7555   3.797   1.262   2.940
 1881SOL    MW4 7556   3.812   1.257   3.025
 1882SOL     OW 7557   3.828   1.504   3.117
 1882SOL    HW2 7558   3.820   1.500   3.212
 1882SOL    HW3 7559   3.745   1.539   3.087
 1882SOL    MW4 7560   3.816   1.508   3.126
 1883SOL     OW 7561   3.605   1.640   3.023
 1883SOL    HW2 7562   3.589   1.732   3.047
 1883SOL    HW3 7563   3.594   1.637   2.928
 1883SOL    MW4 7564   3.602   1.652   3.014
 1884SOL     OW 7565   3.589   1.904   3.109
 1884SOL    HW2 7566   3.601   1.892   3.204
 1884SOL    HW3 7567   3.665   1.954   3.081
 1884SOL    MW4 7568   3.601   1.909   3.118
 1885SOL     OW 7569   3.834   2.031   3.022
 1885SOL    HW2 7570   3.808   2.111   3.067
 1885SOL    HW3 7571   3.818   2.049   2.929
 1885SOL    MW4 7572   3.828   2.044   3.016
 1886SOL     OW 7573   3.753   2.286   3.124
 1886SOL    HW2 7574   3.759   2.320   3.214
 1886SOL    HW3 7575   3.677   2.331   3.087
 1886SOL    MW4 7576   3.743   2.297   3.131
 1887SOL     OW 7577   3.532   2.437   2.995
 1887SOL    HW2 7578   3.550   2.519   3.041
 1887SOL    HW3 7579   3.464   2.394   3.046
 1887SOL    MW4 7580   3.526   2.442   3.008
 1888SOL     OW 7581   3.593   2.705   3.090
 1888SOL    HW2 7582   3.669   2.744   3.045
 1888SOL    HW3 7583   3.518   2.751   3.053
 1888SOL    MW4 7584   3.593   2.717   3.079
 1889SOL     OW 7585   3.813   2.819   2.974
 1889SOL    HW2 7586   3.828   2.908   3.006
 1889SOL    HW3 7587   3.815   2.828   2.879
 1889SOL    MW4 7588   3.815   2.832   2.966
 1890SOL     OW 7589   3.801   3.076   3.097
 1890SOL    HW2 7590   3.880   3.130   3.091
 1890SOL    HW3 7591   3.729   3.137   3.083
 1890SOL    MW4 7592   3.802   3.091   3.094
 1891SOL     OW 7593   3.597   3.242   3.028
 1891SOL    HW2 7594   3.531   3.181   3.062
 1891SOL    HW3 7595   3.591   3.234   2.933
 1891SOL    MW4 7596   3.587   3.233   3.020
 1892SOL     OW 7597   3.576   3.510   3.118
 1892SOL    HW2 7598   3.658   3.557   3.102
 1892SOL    HW3 7599   3.599   3.417   3.109
 1892SOL    MW4 7600   3.590   3.504   3.114
 1893SOL     OW 7601   3.807   3.625   3.061
 1893SOL    HW2 7602   3.814   3.717   3.086
 1893SOL    HW3 7603   3.795   3.626   2.966
 1893SOL    MW4 7604   3.806   3.637   3.052
 1894SOL     OW 7605   3.791   3.889   3.142
 1894SOL    HW2 7606   3.784   3.880   3.237
 1894SOL    HW3 7607   3.710   3.934   3.117
 1894SOL    MW4 7608   3.779   3.894   3.151
 1895SOL     OW 7609   3.568   4.003   3.034
 1895SOL    HW2 7610   3.486   3.956   3.049
 1895SOL    HW3 7611   3.584   3.995   2.940
 1895SOL    MW4 7612   3.560   3.996   3.024
 1896SOL     OW 7613   3.604   4.291   3.124
 1896SOL    HW2 7614   3.678   4.334   3.083
 1896SOL    HW3 7615   3.605   4.202   3.088
 1896SOL    MW4 7616   3.614   4.285   3.114
 1897SOL     OW 7617   3.833   4.414   2.991
 1897SOL    HW2 7618   3.893   4.343   3.017
 1897SOL    HW3 7619   3.843   4.421   2.897
 1897SOL    MW4 7620   3.842   4.405   2.982
 1898SOL     OW 7621   4.318   4.649   3.099
 1898SOL    HW2 7622   4.298   4.648   3.193
 1898SOL    HW3 7623   4.294   4.562   3.068
 1898SOL    MW4 7624   4.312   4.638   3.107
 1899SOL     OW 7625   4.095   0.117   3.000
 1899SOL    HW2 7626   4.166   0.071   3.045
 1899SOL    HW3 7627   4.015   0.074   3.033
 1899SOL    MW4 7628   4.094   0.105   3.011
 1900SOL     OW 7629   4.074   0.366   3.157
 1900SOL    HW2 7630   4.149   0.407   3.113
 1900SOL    HW3 7631   4.074   0.276   3.125
 1900SOL    MW4 7632   4.084   0.359   3.147
 1901SOL     OW 7633   4.290   0.503   3.034
 1901SOL    HW2 7634   4.301   0.592   3.068
 1901SOL    HW3 7635   4.284   0.514   2.939
 1901SOL    MW4 7636   4.291   0.516   3.026
 1902SOL     OW 7637   4.292   0.761   3.115
 1902SOL    HW2 7638   4.206   0.768   3.073
 1902SOL    HW3 7639   4.339   0.839   3.087
 1902SOL    MW4 7640   4.287   0.772   3.106
 1903SOL     OW 7641   4.040   0.837   3.022
 1903SOL    HW2 7642   4.030   0.930   3.043
 1903SOL    HW3 7643   4.054   0.835   2.927
 1903SOL    MW4 7644   4.041   0.849   3.012
 1904SOL     OW 7645   4.043   1.093   3.117
 1904SOL    HW2 7646   4.053   1.106   3.211
 1904SOL    HW3 7647   3.965   1.144   3.094
 1904SOL    MW4 7648   4.034   1.101   3.126
 1905SOL     OW 7649   4.254   1.261   3.029
 1905SOL    HW2 7650   4.193   1.189   3.043
 1905SOL    HW3 7651   4.266   1.264   2.934
 1905SOL    MW4 7652   4.247   1.252   3.018
 1906SOL     OW 7653   4.277   1.511   3.142
 1906SOL    HW2 7654   4.199   1.553   3.105
 1906SOL    HW3 7655   4.273   1.421   3.110
 1906SOL    MW4 7656   4.266   1.505   3.133
 1907SOL     OW 7657   4.052   1.647   3.018
 1907SOL    HW2 7658   4.047   1.730   3.065
 1907SOL    HW3 7659   3.978   1.596   3.052
 1907SOL    MW4 7660   4.041   1.651   3.029
 1908SOL     OW 7661   4.052   1.889   3.155
 1908SOL    HW2 7662   4.127   1.938   3.122
 1908SOL    HW3 7663   3.976   1.933   3.117
 1908SOL    MW4 7664   4.052   1.901   3.146
 1909SOL     OW 7665   4.259   2.039   3.046
 1909SOL    HW2 7666   4.239   2.130   3.067
 1909SOL    HW3 7667   4.256   2.036   2.951
 1909SOL    MW4 7668   4.256   2.051   3.036
 1910SOL     OW 7669   4.204   2.296   3.111
 1910SOL    HW2 7670   4.129   2.333   3.064
 1910SOL    HW3 7671   4.280   2.341   3.075
 1910SOL    MW4 7672   4.204   2.307   3.100
 1911SOL     OW 7673   3.981   2.420   3.012
 1911SOL    HW2 7674   3.999   2.505   3.054
 1911SOL    HW3 7675   3.901   2.389   3.056
 1911SOL    MW4 7676   3.973   2.427   3.024
 1912SOL     OW 7677   4.037   2.689   3.085
 1912SOL    HW2 7678   4.020   2.675   3.178
 1912SOL    HW3 7679   3.964   2.743   3.056
 1912SOL    MW4 7680   4.025   2.694   3.094
 1913SOL     OW 7681   4.226   2.863   2.999
 1913SOL    HW2 7682   4.154   2.816   3.040
 1913SOL    HW3 7683   4.303   2.836   3.047
 1913SOL    MW4 7684   4.226   2.853   3.010
 1914SOL     OW 7685   4.244   3.111   3.150
 1914SOL    HW2 7686   4.171   3.162   3.116
 1914SOL    HW3 7687   4.232   3.023   3.115
 1914SOL    MW4 7688   4.233   3.106   3.141
 1915SOL     OW 7689   4.001   3.244   3.045
 1915SOL    HW2 7690   4.017   3.334   3.071
 1915SOL    HW3 7691   4.017   3.243   2.950
 1915SOL    MW4 7692   4.005   3.255   3.036
 1916SOL     OW 7693   4.057   3.504   3.139
 1916SOL    HW2 7694   4.065   3.501   3.234
 1916SOL    HW3 7695   3.976   3.553   3.123
 1916SOL    MW4 7696   4.047   3.510   3.149
 1917SOL     OW 7697   4.258   3.604   2.982
 1917SOL    HW2 7698   4.271   3.689   3.024
 1917SOL    HW3 7699   4.183   3.566   3.028
 1917SOL    MW4 7700   4.250   3.610   2.993
 1918SOL     OW 7701   4.264   3.843   3.099
 1918SOL    HW2 7702   4.182   3.885   3.074
 1918SOL    HW3 7703   4.332   3.906   3.075
 1918SOL    MW4 7704   4.262   3.857   3.093
 1919SOL     OW 7705   4.020   3.972   3.024
 1919SOL    HW2 7706   4.025   4.060   3.062
 1919SOL    HW3 7707   3.937   3.937   3.056
 1919SOL    MW4 7708   4.010   3.979   3.033
 1920SOL     OW 7709   4.023   4.233   3.096
 1920SOL    HW2 7710   4.018   4.252   3.189
 1920SOL    HW3 7711   4.088   4.295   3.063
 1920SOL    MW4 7712   4.031   4.244   3.104
 1921SOL     OW 7713   4.267   4.386   3.023
 1921SOL    HW2 7714   4.344   4.340   3.055
 1921SOL    HW3 7715   4.277   4.385   2.928
 1921SOL    MW4 7716   4.278   4.380   3.015
 1922SOL     OW 7717   0.257   4.659   3.436
 1922SOL    HW2 7718   0.328   4.704   3.483
 1922SOL    HW3 7719   0.249   4.574   3.481
 1922SOL    MW4 7720   0.265   4.653   3.448
 1923SOL     OW 7721   0.005   0.085   3.499
 1923SOL    HW2 7722  -0.008   0.174   3.469
 1923SOL    HW3 7723   0.094   0.062   3.470
 1923SOL    MW4 7724   0.015   0.093   3.491
 1924SOL     OW 7725   0.014   0.365   3.404
 1924SOL    HW2 7726  -0.061   0.412   3.442
 1924SOL    HW3 7727   0.090   0.402   3.448
 1924SOL    MW4 7728   0.014   0.376   3.415
 1925SOL     OW 7729   0.243   0.465   3.530
 1925SOL    HW2 7730   0.325   0.428   3.499
 1925SOL    HW3 7731   0.239   0.553   3.491
 1925SOL    MW4 7732   0.253   0.472   3.521
 1926SOL     OW 7733   0.261   0.717   3.389
 1926SOL    HW2 7734   0.329   0.760   3.441
 1926SOL    HW3 7735   0.180   0.760   3.415
 1926SOL    MW4 7736   0.260   0.728   3.399
 1927SOL     OW 7737   0.024   0.871   3.527
 1927SOL    HW2 7738  -0.003   0.874   3.619
 1927SOL    HW3 7739   0.035   0.963   3.503
 1927SOL    MW4 7740   0.022   0.883   3.536
 1928SOL     OW 7741   0.013   1.121   3.388
 1928SOL    HW2 7742   0.077   1.174   3.435
 1928SOL    HW3 7743   0.014   1.156   3.299
 1928SOL    MW4 7744   0.022   1.132   3.382
 1929SOL     OW 7745   0.210   1.259   3.517
 1929SOL    HW2 7746   0.286   1.229   3.467
 1929SOL    HW3 7747   0.213   1.354   3.512
 1929SOL    MW4 7748   0.221   1.267   3.509
 1930SOL     OW 7749   0.226   1.551   3.376
 1930SOL    HW2 7750   0.302   1.595   3.413
 1930SOL    HW3 7751   0.247   1.542   3.283
 1930SOL    MW4 7752   0.239   1.556   3.368
 1931SOL     OW 7753   4.490   1.655   3.498
 1931SOL    HW2 7754   4.425   1.592   3.465
 1931SOL    HW3 7755   4.572   1.630   3.454
 1931SOL    MW4 7756   4.493   1.643   3.488
 1932SOL     OW 7757   4.483   1.931   3.406
 1932SOL    HW2 7758   4.471   1.844   3.444
 1932SOL    HW3 7759   4.499   1.915   3.313
 1932SOL    MW4 7760   4.483   1.918   3.398
 1933SOL     OW 7761   0.214   2.067   3.512
 1933SOL    HW2 7762   0.212   2.057   3.607
 1933SOL    HW3 7763   0.129   2.032   3.483
 1933SOL    MW4 7764   0.202   2.061   3.521
 1934SOL     OW 7765   0.208   2.288   3.329
 1934SOL    HW2 7766   0.150   2.357   3.360
 1934SOL    HW3 7767   0.200   2.218   3.395
 1934SOL    MW4 7768   0.200   2.288   3.342
 1935SOL     OW 7769   0.003   2.429   3.492
 1935SOL    HW2 7770   0.025   2.424   3.585
 1935SOL    HW3 7771  -0.086   2.394   3.486
 1935SOL    MW4 7772  -0.006   2.424   3.503
 1936SOL     OW 7773   4.484   2.687   3.382
 1936SOL    HW2 7774   4.550   2.732   3.435
 1936SOL    HW3 7775   4.491   2.595   3.407
 1936SOL    MW4 7776   4.494   2.681   3.392
 1937SOL     OW 7777   0.207   2.820   3.503
 1937SOL    HW2 7778   0.296   2.784   3.504
 1937SOL    HW3 7779   0.217   2.910   3.472
 1937SOL    MW4 7780   0.220   2.827   3.499
 1938SOL     OW 7781   0.196   3.079   3.404
 1938SOL    HW2 7782   0.118   3.121   3.441
 1938SOL    HW3 7783   0.190   3.096   3.310
 1938SOL    MW4 7784   0.185   3.087   3.396
 1939SOL     OW 7785   0.002   3.231   3.536
 1939SOL    HW2 7786  -0.088   3.205   3.515
 1939SOL    HW3 7787   0.011   3.319   3.498
 1939SOL    MW4 7788  -0.009   3.239   3.528
 1940SOL     OW 7789   0.011   3.481   3.407
 1940SOL    HW2 7790  -0.064   3.537   3.431
 1940SOL    HW3 7791   0.003   3.470   3.312
 1940SOL    MW4 7792   0.000   3.487   3.398
 1941SOL     OW 7793   0.220   3.656   3.508
 1941SOL    HW2 7794   0.221   3.638   3.602
 1941SOL    HW3 7795   0.136   3.620   3.478
 1941SOL    MW4 7796   0.209   3.649   3.516
 1942SOL     OW 7797   0.241   3.898   3.388
 1942SOL    HW2 7798   0.161   3.950   3.399
 1942SOL    HW3 7799   0.221   3.815   3.430
 1942SOL    MW4 7800   0.228   3.894   3.395
 1943SOL     OW 7801   4.484   3.997   3.480
 1943SOL    HW2 7802   4.491   3.991   3.576
 1943SOL    HW3 7803   4.464   4.089   3.463
 1943SOL    MW4 7804   4.482   4.008   3.491
 1944SOL     OW 7805   4.446   4.273   3.416
 1944SOL    HW2 7806   4.374   4.326   3.450
 1944SOL    HW3 7807   4.525   4.314   3.452
 1944SOL    MW4 7808   4.447   4.286   3.425
 1945SOL     OW 7809   0.206   4.387   3.538
 1945SOL    HW2 7810   0.209   4.369   3.632
 1945SOL    HW3 7811   0.284   4.344   3.503
 1945SOL    MW4 7812   0.217   4.379   3.546
 1946SOL     OW 7813   0.723   4.659   3.453
 1946SOL    HW2 7814   0.805   4.693   3.490
 1946SOL    HW3 7815   0.730   4.677   3.360
 1946SOL    MW4 7816   0.735   4.666   3.446
 1947SOL     OW 7817   0.483   0.115   3.523
 1947SOL    HW2 7818   0.477   0.092   3.616
 1947SOL    HW3 7819   0.564   0.074   3.494
 1947SOL    MW4 7820   0.493   0.106   3.532
 1948SOL     OW 7821   0.456   0.344   3.390
 1948SOL    HW2 7822   0.546   0.371   3.409
 1948SOL    HW3 7823   0.444   0.261   3.436
 1948SOL    MW4 7824   0.466   0.337   3.398
 1949SOL     OW 7825   0.710   0.459   3.482
 1949SOL    HW2 7826   0.708   0.446   3.577
 1949SOL    HW3 7827   0.782   0.402   3.453
 1949SOL    MW4 7828   0.720   0.450   3.491
 1950SOL     OW 7829   0.713   0.717   3.364
 1950SOL    HW2 7830   0.645   0.757   3.418
 1950SOL    HW3 7831   0.722   0.628   3.399
 1950SOL    MW4 7832   0.706   0.711   3.376
 1951SOL     OW 7833   0.501   0.872   3.506
 1951SOL    HW2 7834   0.514   0.883   3.600
 1951SOL    HW3 7835   0.481   0.960   3.474
 1951SOL    MW4 7836   0.500   0.885   3.514
 1952SOL     OW 7837   0.441   1.140   3.404
 1952SOL    HW2 7838   0.526   1.183   3.419
 1952SOL    HW3 7839   0.422   1.157   3.312
 1952SOL    MW4 7840   0.450   1.148   3.394
 1953SOL     OW 7841   0.673   1.273   3.462
 1953SOL    HW2 7842   0.740   1.217   3.423
 1953SOL    HW3 7843   0.702   1.363   3.442
 1953SOL    MW4 7844   0.686   1.278   3.454
 1954SOL     OW 7845   0.705   1.542   3.383
 1954SOL    HW2 7846   0.781   1.594   3.409
 1954SOL    HW3 7847   0.631   1.586   3.425
 1954SOL    MW4 7848   0.705   1.555   3.392
 1955SOL     OW 7849   0.482   1.674   3.487
 1955SOL    HW2 7850   0.455   1.666   3.578
 1955SOL    HW3 7851   0.458   1.764   3.463
 1955SOL    MW4 7852   0.475   1.685   3.496
 1956SOL     OW 7853   0.433   1.926   3.407
 1956SOL    HW2 7854   0.360   1.970   3.452
 1956SOL    HW3 7855   0.408   1.928   3.314
 1956SOL    MW4 7856   0.420   1.932   3.401
 1957SOL     OW 7857   0.655   2.065   3.495
 1957SOL    HW2 7858   0.655   2.064   3.591
 1957SOL    HW3 7859   0.576   2.017   3.470
 1957SOL    MW4 7860   0.645   2.058   3.504
 1958SOL     OW 7861   0.626   2.325   3.403
 1958SOL    HW2 7862   0.713   2.357   3.427
 1958SOL    HW3 7863   0.621   2.236   3.438
 1958SOL    MW4 7864   0.637   2.318   3.411
 1959SOL     OW 7865   0.380   2.436   3.499
 1959SOL    HW2 7866   0.463   2.400   3.469
 1959SOL    HW3 7867   0.314   2.396   3.442
 1959SOL    MW4 7868   0.382   2.426   3.488
 1960SOL     OW 7869   0.457   2.681   3.411
 1960SOL    HW2 7870   0.417   2.596   3.430
 1960SOL    HW3 7871   0.439   2.696   3.318
 1960SOL    MW4 7872   0.449   2.672   3.402
 1961SOL     OW 7873   0.660   2.821   3.507
 1961SOL    HW2 7874   0.742   2.785   3.474
 1961SOL    HW3 7875   0.592   2.764   3.471
 1961SOL    MW4 7876   0.662   2.809   3.498
 1962SOL     OW 7877   0.671   3.083   3.401
 1962SOL    HW2 7878   0.595   3.127   3.440
 1962SOL    HW3 7879   0.672   2.997   3.441
 1962SOL    MW4 7880   0.661   3.078   3.411
 1963SOL     OW 7881   0.439   3.224   3.488
 1963SOL    HW2 7882   0.426   3.212   3.582
 1963SOL    HW3 7883   0.366   3.178   3.448
 1963SOL    MW4 7884   0.427   3.217   3.495
 1964SOL     OW 7885   0.424   3.500   3.421
 1964SOL    HW2 7886   0.402   3.417   3.464
 1964SOL    HW3 7887   0.349   3.557   3.439
 1964SOL    MW4 7888   0.411   3.496   3.429
 1965SOL     OW 7889   0.655   3.612   3.512
 1965SOL    HW2 7890   0.734   3.575   3.474
 1965SOL    HW3 7891   0.583   3.563   3.472
 1965SOL    MW4 7892   0.656   3.601   3.502
 1966SOL     OW 7893   0.620   3.858   3.368
 1966SOL    HW2 7894   0.559   3.915   3.415
 1966SOL    HW3 7895   0.631   3.782   3.425
 1966SOL    MW4 7896   0.613   3.856   3.382
 1967SOL     OW 7897   0.469   4.024   3.517
 1967SOL    HW2 7898   0.465   4.119   3.514
 1967SOL    HW3 7899   0.385   3.995   3.483
 1967SOL    MW4 7900   0.457   4.032   3.512
 1968SOL     OW 7901   0.466   4.285   3.462
 1968SOL    HW2 7902   0.541   4.328   3.504
 1968SOL    HW3 7903   0.484   4.292   3.368
 1968SOL    MW4 7904   0.479   4.291   3.455
 1969SOL     OW 7905   0.697   4.400   3.522
 1969SOL    HW2 7906   0.766   4.349   3.481
 1969SOL    HW3 7907   0.717   4.491   3.499
 1969SOL    MW4 7908   0.708   4.405   3.514
 1970SOL     OW 7909   1.165   4.610   3.427
 1970SOL    HW2 7910   1.253   4.645   3.445
 1970SOL    HW3 7911   1.153   4.625   3.333
 1970SOL    MW4 7912   1.175   4.617   3.417
 1971SOL     OW 7913   0.953   0.084   3.552
 1971SOL    HW2 7914   0.933   0.091   3.645
 1971SOL    HW3 7915   1.030   0.027   3.549
 1971SOL    MW4 7916   0.960   0.077   3.564
 1972SOL     OW 7917   0.966   0.309   3.402
 1972SOL    HW2 7918   1.022   0.368   3.452
 1972SOL    HW3 7919   0.976   0.224   3.446
 1972SOL    MW4 7920   0.975   0.306   3.415
 1973SOL     OW 7921   1.141   0.472   3.527
 1973SOL    HW2 7922   1.131   0.494   3.620
 1973SOL    HW3 7923   1.144   0.557   3.483
 1973SOL    MW4 7924   1.140   0.486   3.534
 1974SOL     OW 7925   1.113   0.714   3.383
 1974SOL    HW2 7926   1.182   0.778   3.399
 1974SOL    HW3 7927   1.036   0.751   3.426
 1974SOL    MW4 7928   1.112   0.727   3.391
 1975SOL     OW 7929   0.894   0.854   3.520
 1975SOL    HW2 7930   0.882   0.940   3.481
 1975SOL    HW3 7931   0.835   0.797   3.471
 1975SOL    MW4 7932   0.885   0.858   3.509
 1976SOL     OW 7933   0.863   1.101   3.370
 1976SOL    HW2 7934   0.933   1.164   3.391
 1976SOL    HW3 7935   0.852   1.109   3.275
 1976SOL    MW4 7936   0.871   1.110   3.360
 1977SOL     OW 7937   1.064   1.297   3.423
 1977SOL    HW2 7938   1.077   1.300   3.518
 1977SOL    HW3 7939   1.079   1.387   3.393
 1977SOL    MW4 7940   1.068   1.309   3.432
 1978SOL     OW 7941   1.105   1.571   3.366
 1978SOL    HW2 7942   1.193   1.598   3.392
 1978SOL    HW3 7943   1.110   1.559   3.272
 1978SOL    MW4 7944   1.117   1.573   3.357
 1979SOL     OW 7945   0.892   1.693   3.494
 1979SOL    HW2 7946   0.880   1.777   3.451
 1979SOL    HW3 7947   0.975   1.660   3.461
 1979SOL    MW4 7948   0.901   1.700   3.484
 1980SOL     OW 7949   0.870   1.936   3.377
 1980SOL    HW2 7950   0.940   1.988   3.416
 1980SOL    HW3 7951   0.789   1.972   3.415
 1980SOL    MW4 7952   0.868   1.948   3.387
 1981SOL     OW 7953   1.091   2.062   3.493
 1981SOL    HW2 7954   1.150   2.010   3.439
 1981SOL    HW3 7955   1.107   2.153   3.466
 1981SOL    MW4 7956   1.101   2.067   3.483
 1982SOL     OW 7957   1.143   2.324   3.411
 1982SOL    HW2 7958   1.219   2.374   3.443
 1982SOL    HW3 7959   1.152   2.324   3.316
 1982SOL    MW4 7960   1.155   2.331   3.403
 1983SOL     OW 7961   0.885   2.433   3.472
 1983SOL    HW2 7962   0.875   2.440   3.567
 1983SOL    HW3 7963   0.974   2.399   3.460
 1983SOL    MW4 7964   0.895   2.429   3.483
 1984SOL     OW 7965   0.880   2.710   3.410
 1984SOL    HW2 7966   0.957   2.744   3.454
 1984SOL    HW3 7967   0.880   2.616   3.431
 1984SOL    MW4 7968   0.890   2.702   3.418
 1985SOL     OW 7969   1.099   2.841   3.499
 1985SOL    HW2 7970   1.106   2.833   3.594
 1985SOL    HW3 7971   1.177   2.797   3.465
 1985SOL    MW4 7972   1.110   2.834   3.507
 1986SOL     OW 7973   1.157   3.097   3.414
 1986SOL    HW2 7974   1.131   3.010   3.443
 1986SOL    HW3 7975   1.176   3.087   3.321
 1986SOL    MW4 7976   1.156   3.085   3.406
 1987SOL     OW 7977   0.919   3.232   3.475
 1987SOL    HW2 7978   0.995   3.179   3.453
 1987SOL    HW3 7979   0.847   3.195   3.423
 1987SOL    MW4 7980   0.919   3.220   3.465
 1988SOL     OW 7981   0.884   3.491   3.406
 1988SOL    HW2 7982   0.896   3.398   3.427
 1988SOL    HW3 7983   0.878   3.493   3.311
 1988SOL    MW4 7984   0.885   3.479   3.397
 1989SOL     OW 7985   1.124   3.619   3.454
 1989SOL    HW2 7986   1.136   3.611   3.548
 1989SOL    HW3 7987   1.046   3.568   3.435
 1989SOL    MW4 7988   1.115   3.611   3.464
 1990SOL     OW 7989   1.080   3.896   3.437
 1990SOL    HW2 7990   1.169   3.930   3.438
 1990SOL    HW3 7991   1.090   3.802   3.457
 1990SOL    MW4 7992   1.093   3.888   3.440
 1991SOL     OW 7993   0.829   3.992   3.495
 1991SOL    HW2 7994   0.900   3.933   3.471
 1991SOL    HW3 7995   0.751   3.952   3.456
 1991SOL    MW4 7996   0.828   3.979   3.487
 1992SOL     OW 7997   0.920   4.258   3.443
 1992SOL    HW2 7998   0.894   4.169   3.467
 1992SOL    HW3 7999   0.921   4.257   3.347
 1992SOL    MW4 8000   0.917   4.246   3.433
 1993SOL     OW 8001   1.176   4.338   3.526
 1993SOL    HW2 8002   1.093   4.300   3.496
 1993SOL    HW3 8003   1.180   4.424   3.485
 1993SOL    MW4 8004   1.165   4.344   3.517
 1994SOL     OW 8005   1.616   4.610   3.381
 1994SOL    HW2 8006   1.620   4.534   3.439
 1994SOL    HW3 8007   1.534   4.653   3.405
 1994SOL    MW4 8008   1.605   4.606   3.392
 1995SOL     OW 8009   1.398   0.079   3.490
 1995SOL    HW2 8010   1.381   0.083   3.584
 1995SOL    HW3 8011   1.405   0.171   3.463
 1995SOL    MW4 8012   1.397   0.092   3.499
 1996SOL     OW 8013   1.363   0.336   3.388
 1996SOL    HW2 8014   1.428   0.405   3.405
 1996SOL    HW3 8015   1.288   0.361   3.441
 1996SOL    MW4 8016   1.362   0.348   3.397
 1997SOL     OW 8017   1.560   0.495   3.475
 1997SOL    HW2 8018   1.548   0.468   3.566
 1997SOL    HW3 8019   1.637   0.445   3.445
 1997SOL    MW4 8020   1.569   0.485   3.483
 1998SOL     OW 8021   1.558   0.759   3.401
 1998SOL    HW2 8022   1.472   0.794   3.426
 1998SOL    HW3 8023   1.556   0.667   3.429
 1998SOL    MW4 8024   1.546   0.751   3.408
 1999SOL     OW 8025   1.323   0.894   3.445
 1999SOL    HW2 8026   1.339   0.927   3.533
 1999SOL    HW3 8027   1.294   0.971   3.395
 1999SOL    MW4 8028   1.321   0.908   3.450
 2000SOL     OW 8029   1.271   1.144   3.359
 2000SOL    HW2 8030   1.349   1.177   3.405
 2000SOL    HW3 8031   1.204   1.211   3.377
 2000SOL    MW4 8032   1.273   1.157   3.368
 2001SOL     OW 8033   1.489   1.258   3.493
 2001SOL    HW2 8034   1.484   1.296   3.581
 2001SOL    HW3 8035   1.571   1.209   3.492
 2001SOL    MW4 8036   1.499   1.257   3.505
 2002SOL     OW 8037   1.555   1.529   3.382
 2002SOL    HW2 8038   1.543   1.438   3.408
 2002SOL    HW3 8039   1.583   1.524   3.290
 2002SOL    MW4 8040   1.557   1.516   3.373
 2003SOL     OW 8041   1.350   1.672   3.467
 2003SOL    HW2 8042   1.360   1.677   3.562
 2003SOL    HW3 8043   1.426   1.621   3.437
 2003SOL    MW4 8044   1.362   1.666   3.475
 2004SOL     OW 8045   1.311   1.930   3.375
 2004SOL    HW2 8046   1.374   1.988   3.419
 2004SOL    HW3 8047   1.323   1.845   3.417
 2004SOL    MW4 8048   1.321   1.927   3.387
 2005SOL     OW 8049   1.551   2.069   3.488
 2005SOL    HW2 8050   1.623   2.022   3.446
 2005SOL    HW3 8051   1.565   2.161   3.466
 2005SOL    MW4 8052   1.562   2.075   3.480
 2006SOL     OW 8053   1.621   2.358   3.417
 2006SOL    HW2 8054   1.539   2.385   3.459
 2006SOL    HW3 8055   1.603   2.364   3.323
 2006SOL    MW4 8056   1.608   2.362   3.410
 2007SOL     OW 8057   1.367   2.467   3.487
 2007SOL    HW2 8058   1.365   2.470   3.583
 2007SOL    HW3 8059   1.348   2.556   3.459
 2007SOL    MW4 8060   1.365   2.479   3.496
 2008SOL     OW 8061   1.367   2.749   3.378
 2008SOL    HW2 8062   1.457   2.779   3.393
 2008SOL    HW3 8063   1.356   2.752   3.283
 2008SOL    MW4 8064   1.377   2.754   3.367
 2009SOL     OW 8065   1.611   2.852   3.482
 2009SOL    HW2 8066   1.695   2.813   3.456
 2009SOL    HW3 8067   1.601   2.927   3.424
 2009SOL    MW4 8068   1.621   2.857   3.471
 2010SOL     OW 8069   1.597   3.114   3.370
 2010SOL    HW2 8070   1.670   3.153   3.418
 2010SOL    HW3 8071   1.519   3.147   3.414
 2010SOL    MW4 8072   1.597   3.123   3.382
 2011SOL     OW 8073   1.362   3.253   3.483
 2011SOL    HW2 8074   1.349   3.263   3.577
 2011SOL    HW3 8075   1.292   3.193   3.455
 2011SOL    MW4 8076   1.351   3.246   3.491
 2012SOL     OW 8077   1.356   3.513   3.349
 2012SOL    HW2 8078   1.356   3.436   3.406
 2012SOL    HW3 8079   1.282   3.565   3.381
 2012SOL    MW4 8080   1.346   3.510   3.361
 2013SOL     OW 8081   1.593   3.602   3.489
 2013SOL    HW2 8082   1.587   3.590   3.583
 2013SOL    HW3 8083   1.511   3.566   3.455
 2013SOL    MW4 8084   1.581   3.596   3.497
 2014SOL     OW 8085   1.583   3.876   3.400
 2014SOL    HW2 8086   1.580   3.788   3.439
 2014SOL    HW3 8087   1.590   3.860   3.306
 2014SOL    MW4 8088   1.583   3.862   3.393
 2015SOL     OW 8089   1.340   3.999   3.470
 2015SOL    HW2 8090   1.359   4.090   3.448
 2015SOL    HW3 8091   1.424   3.954   3.458
 2015SOL    MW4 8092   1.354   4.005   3.466
 2016SOL     OW 8093   1.392   4.262   3.394
 2016SOL    HW2 8094   1.314   4.290   3.442
 2016SOL    HW3 8095   1.365   4.263   3.302
 2016SOL    MW4 8096   1.378   4.266   3.388
 2017SOL     OW 8097   1.616   4.363   3.518
 2017SOL    HW2 8098   1.698   4.331   3.481
 2017SOL    HW3 8099   1.548   4.313   3.472
 2017SOL    MW4 8100   1.618   4.352   3.507
 2018SOL     OW 8101   2.035   4.638   3.427
 2018SOL    HW2 8102   2.098   4.690   3.477
 2018SOL    HW3 8103   1.952   4.685   3.437
 2018SOL    MW4 8104   2.033   4.651   3.435
 2019SOL     OW 8105   1.810   0.114   3.464
 2019SOL    HW2 8106   1.815   0.100   3.559
 2019SOL    HW3 8107   1.736   0.061   3.436
 2019SOL    MW4 8108   1.801   0.105   3.473
 2020SOL     OW 8109   1.820   0.386   3.376
 2020SOL    HW2 8110   1.793   0.295   3.391
 2020SOL    HW3 8111   1.811   0.398   3.281
 2020SOL    MW4 8112   1.815   0.375   3.365
 2021SOL     OW 8113   2.005   0.518   3.533
 2021SOL    HW2 8114   1.988   0.601   3.488
 2021SOL    HW3 8115   1.937   0.460   3.501
 2021SOL    MW4 8116   1.994   0.522   3.523
 2022SOL     OW 8117   2.005   0.757   3.382
 2022SOL    HW2 8118   2.079   0.802   3.421
 2022SOL    HW3 8119   2.013   0.773   3.288
 2022SOL    MW4 8120   2.016   0.765   3.375
 2023SOL     OW 8121   1.796   0.880   3.512
 2023SOL    HW2 8122   1.869   0.837   3.466
 2023SOL    HW3 8123   1.717   0.842   3.473
 2023SOL    MW4 8124   1.795   0.869   3.501
 2024SOL     OW 8125   1.747   1.150   3.455
 2024SOL    HW2 8126   1.826   1.198   3.477
 2024SOL    HW3 8127   1.759   1.064   3.497
 2024SOL    MW4 8128   1.759   1.145   3.464
 2025SOL     OW 8129   1.985   1.267   3.515
 2025SOL    HW2 8130   2.001   1.277   3.609
 2025SOL    HW3 8131   1.995   1.356   3.479
 2025SOL    MW4 8132   1.988   1.280   3.523
 2026SOL     OW 8133   2.001   1.524   3.411
 2026SOL    HW2 8134   2.058   1.592   3.447
 2026SOL    HW3 8135   1.912   1.558   3.426
 2026SOL    MW4 8136   1.997   1.537   3.418
 2027SOL     OW 8137   1.759   1.681   3.470
 2027SOL    HW2 8138   1.756   1.765   3.425
 2027SOL    HW3 8139   1.681   1.634   3.439
 2027SOL    MW4 8140   1.748   1.686   3.460
 2028SOL     OW 8141   1.761   1.954   3.353
 2028SOL    HW2 8142   1.846   1.990   3.379
 2028SOL    HW3 8143   1.773   1.928   3.262
 2028SOL    MW4 8144   1.774   1.955   3.345
 2029SOL     OW 8145   2.002   2.067   3.458
 2029SOL    HW2 8146   2.087   2.035   3.427
 2029SOL    HW3 8147   2.003   2.160   3.438
 2029SOL    MW4 8148   2.013   2.075   3.451
 2030SOL     OW 8149   2.020   2.352   3.394
 2030SOL    HW2 8150   2.109   2.368   3.426
 2030SOL    HW3 8151   2.030   2.347   3.299
 2030SOL    MW4 8152   2.033   2.353   3.386
 2031SOL     OW 8153   1.834   2.464   3.570
 2031SOL    HW2 8154   1.917   2.433   3.532
 2031SOL    HW3 8155   1.767   2.429   3.512
 2031SOL    MW4 8156   1.836   2.456   3.557
 2032SOL     OW 8157   1.862   2.710   3.424
 2032SOL    HW2 8158   1.940   2.745   3.465
 2032SOL    HW3 8159   1.837   2.636   3.479
 2032SOL    MW4 8160   1.869   2.705   3.436
 2033SOL     OW 8161   2.094   2.822   3.504
 2033SOL    HW2 8162   2.083   2.838   3.598
 2033SOL    HW3 8163   2.078   2.907   3.463
 2033SOL    MW4 8164   2.090   2.835   3.511
 2034SOL     OW 8165   2.061   3.097   3.387
 2034SOL    HW2 8166   2.141   3.135   3.424
 2034SOL    HW3 8167   1.990   3.141   3.434
 2034SOL    MW4 8168   2.063   3.108   3.398
 2035SOL     OW 8169   1.833   3.217   3.486
 2035SOL    HW2 8170   1.843   3.236   3.579
 2035SOL    HW3 8171   1.847   3.301   3.442
 2035SOL    MW4 8172   1.836   3.230   3.492
 2036SOL     OW 8173   1.843   3.490   3.396
 2036SOL    HW2 8174   1.759   3.527   3.423
 2036SOL    HW3 8175   1.843   3.495   3.301
 2036SOL    MW4 8176   1.832   3.496   3.387
 2037SOL     OW 8177   2.035   3.621   3.531
 2037SOL    HW2 8178   2.118   3.584   3.500
 2037SOL    HW3 8179   1.968   3.578   3.478
 2037SOL    MW4 8180   2.037   3.610   3.520
 2038SOL     OW 8181   2.018   3.834   3.357
 2038SOL    HW2 8182   1.936   3.877   3.381
 2038SOL    HW3 8183   2.020   3.754   3.410
 2038SOL    MW4 8184   2.007   3.829   3.367
 2039SOL     OW 8185   1.822   3.990   3.487
 2039SOL    HW2 8186   1.814   4.002   3.582
 2039SOL    HW3 8187   1.735   3.963   3.459
 2039SOL    MW4 8188   1.809   3.988   3.496
 2040SOL     OW 8189   1.846   4.239   3.402
 2040SOL    HW2 8190   1.846   4.144   3.416
 2040SOL    HW3 8191   1.826   4.248   3.309
 2040SOL    MW4 8192   1.843   4.227   3.391
 2041SOL     OW 8193   2.040   4.382   3.549
 2041SOL    HW2 8194   1.976   4.337   3.494
 2041SOL    HW3 8195   2.055   4.465   3.505
 2041SOL    MW4 8196   2.034   4.387   3.536
 2042SOL     OW 8197   2.442   4.640   3.451
 2042SOL    HW2 8198   2.444   4.547   3.471
 2042SOL    HW3 8199   2.454   4.646   3.356
 2042SOL    MW4 8200   2.444   4.629   3.441
 2043SOL     OW 8201   2.225   0.148   3.554
 2043SOL    HW2 8202   2.228   0.232   3.508
 2043SOL    HW3 8203   2.302   0.100   3.523
 2043SOL    MW4 8204   2.236   0.153   3.544
 2044SOL     OW 8205   2.210   0.395   3.408
 2044SOL    HW2 8206   2.289   0.440   3.439
 2044SOL    HW3 8207   2.138   0.437   3.455
 2044SOL    MW4 8208   2.211   0.406   3.419
 2045SOL     OW 8209   2.429   0.508   3.532
 2045SOL    HW2 8210   2.521   0.487   3.519
 2045SOL    HW3 8211   2.423   0.601   3.512
 2045SOL    MW4 8212   2.440   0.518   3.528
 2046SOL     OW 8213   2.439   0.775   3.450
 2046SOL    HW2 8214   2.506   0.836   3.481
 2046SOL    HW3 8215   2.448   0.777   3.354
 2046SOL    MW4 8216   2.449   0.784   3.441
 2047SOL     OW 8217   2.204   0.881   3.512
 2047SOL    HW2 8218   2.210   0.969   3.476
 2047SOL    HW3 8219   2.287   0.839   3.490
 2047SOL    MW4 8220   2.215   0.887   3.505
 2048SOL     OW 8221   2.216   1.140   3.407
 2048SOL    HW2 8222   2.284   1.195   3.445
 2048SOL    HW3 8223   2.134   1.184   3.431
 2048SOL    MW4 8224   2.214   1.153   3.415
 2049SOL     OW 8225   2.437   1.297   3.487
 2049SOL    HW2 8226   2.447   1.296   3.582
 2049SOL    HW3 8227   2.518   1.256   3.455
 2049SOL    MW4 8228   2.449   1.291   3.496
 2050SOL     OW 8229   2.430   1.552   3.415
 2050SOL    HW2 8230   2.430   1.461   3.443
 2050SOL    HW3 8231   2.427   1.549   3.319
 2050SOL    MW4 8232   2.430   1.540   3.406
 2051SOL     OW 8233   2.211   1.704   3.510
 2051SOL    HW2 8234   2.218   1.692   3.604
 2051SOL    HW3 8235   2.289   1.661   3.474
 2051SOL    MW4 8236   2.222   1.696   3.518
 2052SOL     OW 8237   2.256   1.952   3.418
 2052SOL    HW2 8238   2.242   1.870   3.465
 2052SOL    HW3 8239   2.245   1.928   3.325
 2052SOL    MW4 8240   2.252   1.938   3.412
 2053SOL     OW 8241   2.512   2.012   3.513
 2053SOL    HW2 8242   2.508   2.017   3.608
 2053SOL    HW3 8243   2.422   1.995   3.486
 2053SOL    MW4 8244   2.500   2.010   3.522
 2054SOL     OW 8245   2.496   2.259   3.400
 2054SOL    HW2 8246   2.551   2.318   3.450
 2054SOL    HW3 8247   2.505   2.174   3.443
 2054SOL    MW4 8248   2.504   2.255   3.412
 2055SOL     OW 8249   2.273   2.400   3.475
 2055SOL    HW2 8250   2.302   2.489   3.455
 2055SOL    HW3 8251   2.348   2.344   3.450
 2055SOL    MW4 8252   2.287   2.404   3.469
 2056SOL     OW 8253   2.300   2.661   3.414
 2056SOL    HW2 8254   2.224   2.711   3.443
 2056SOL    HW3 8255   2.296   2.666   3.318
 2056SOL    MW4 8256   2.290   2.668   3.405
 2057SOL     OW 8257   2.512   2.791   3.540
 2057SOL    HW2 8258   2.506   2.882   3.511
 2057SOL    HW3 8259   2.432   2.750   3.508
 2057SOL    MW4 8260   2.501   2.798   3.532
 2058SOL     OW 8261   2.474   3.043   3.450
 2058SOL    HW2 8262   2.536   3.112   3.470
 2058SOL    HW3 8263   2.470   3.041   3.354
 2058SOL    MW4 8264   2.482   3.052   3.440
 2059SOL     OW 8265   2.280   3.228   3.465
 2059SOL    HW2 8266   2.274   3.225   3.560
 2059SOL    HW3 8267   2.363   3.183   3.445
 2059SOL    MW4 8268   2.290   3.222   3.475
 2060SOL     OW 8269   2.252   3.503   3.411
 2060SOL    HW2 8270   2.284   3.412   3.411
 2060SOL    HW3 8271   2.234   3.522   3.319
 2060SOL    MW4 8272   2.254   3.493   3.399
 2061SOL     OW 8273   2.460   3.640   3.538
 2061SOL    HW2 8274   2.472   3.728   3.504
 2061SOL    HW3 8275   2.386   3.605   3.489
 2061SOL    MW4 8276   2.452   3.647   3.527
 2062SOL     OW 8277   2.465   3.879   3.396
 2062SOL    HW2 8278   2.522   3.941   3.441
 2062SOL    HW3 8279   2.377   3.900   3.427
 2062SOL    MW4 8280   2.461   3.890   3.406
 2063SOL     OW 8281   2.226   3.971   3.484
 2063SOL    HW2 8282   2.218   4.064   3.460
 2063SOL    HW3 8283   2.152   3.929   3.440
 2063SOL    MW4 8284   2.215   3.978   3.475
 2064SOL     OW 8285   2.246   4.246   3.429
 2064SOL    HW2 8286   2.173   4.285   3.476
 2064SOL    HW3 8287   2.249   4.294   3.346
 2064SOL    MW4 8288   2.237   4.257   3.424
 2065SOL     OW 8289   2.478   4.356   3.566
 2065SOL    HW2 8290   2.474   4.360   3.662
 2065SOL    HW3 8291   2.393   4.321   3.540
 2065SOL    MW4 8292   2.467   4.352   3.575
 2066SOL     OW 8293   2.897   0.039   3.504
 2066SOL    HW2 8294   2.811   0.080   3.513
 2066SOL    HW3 8295   2.914   0.039   3.410
 2066SOL    MW4 8296   2.888   0.045   3.493
 2067SOL     OW 8297   2.641   0.135   3.589
 2067SOL    HW2 8298   2.643   0.221   3.547
 2067SOL    HW3 8299   2.582   0.083   3.535
 2067SOL    MW4 8300   2.634   0.140   3.576
 2068SOL     OW 8301   2.677   0.388   3.472
 2068SOL    HW2 8302   2.759   0.433   3.492
 2068SOL    HW3 8303   2.665   0.400   3.378
 2068SOL    MW4 8304   2.686   0.396   3.462
 2069SOL     OW 8305   2.918   0.504   3.540
 2069SOL    HW2 8306   2.902   0.514   3.634
 2069SOL    HW3 8307   2.903   0.591   3.503
 2069SOL    MW4 8308   2.914   0.517   3.548
 2070SOL     OW 8309   2.901   0.754   3.428
 2070SOL    HW2 8310   2.980   0.799   3.458
 2070SOL    HW3 8311   2.829   0.811   3.455
 2070SOL    MW4 8312   2.902   0.768   3.435
 2071SOL     OW 8313   2.667   0.917   3.523
 2071SOL    HW2 8314   2.664   0.921   3.618
 2071SOL    HW3 8315   2.654   1.008   3.495
 2071SOL    MW4 8316   2.665   0.929   3.532
 2072SOL     OW 8317   2.654   1.172   3.413
 2072SOL    HW2 8318   2.728   1.229   3.433
 2072SOL    HW3 8319   2.664   1.151   3.320
 2072SOL    MW4 8320   2.665   1.177   3.403
 2073SOL     OW 8321   2.885   1.316   3.518
 2073SOL    HW2 8322   2.869   1.310   3.612
 2073SOL    HW3 8323   2.962   1.262   3.503
 2073SOL    MW4 8324   2.893   1.308   3.528
 2074SOL     OW 8325   2.907   1.554   3.394
 2074SOL    HW2 8326   2.832   1.600   3.433
 2074SOL    HW3 8327   2.910   1.470   3.441
 2074SOL    MW4 8328   2.897   1.549   3.405
 2075SOL     OW 8329   2.689   1.679   3.483
 2075SOL    HW2 8330   2.679   1.767   3.447
 2075SOL    HW3 8331   2.613   1.631   3.448
 2075SOL    MW4 8332   2.677   1.684   3.473
 2076SOL     OW 8333   2.728   1.929   3.376
 2076SOL    HW2 8334   2.652   1.967   3.419
 2076SOL    HW3 8335   2.704   1.923   3.283
 2076SOL    MW4 8336   2.715   1.933   3.369
 2077SOL     OW 8337   2.926   2.094   3.491
 2077SOL    HW2 8338   2.904   2.074   3.582
 2077SOL    HW3 8339   2.867   2.040   3.439
 2077SOL    MW4 8340   2.916   2.085   3.497
 2078SOL     OW 8341   2.946   2.364   3.418
 2078SOL    HW2 8342   2.934   2.273   3.444
 2078SOL    HW3 8343   2.941   2.363   3.323
 2078SOL    MW4 8344   2.944   2.352   3.409
 2079SOL     OW 8345   2.689   2.389   3.521
 2079SOL    HW2 8346   2.702   2.396   3.616
 2079SOL    HW3 8347   2.777   2.377   3.486
 2079SOL    MW4 8348   2.702   2.388   3.529
 2080SOL     OW 8349   2.717   2.648   3.428
 2080SOL    HW2 8350   2.712   2.560   3.464
 2080SOL    HW3 8351   2.648   2.697   3.473
 2080SOL    MW4 8352   2.707   2.643   3.439
 2081SOL     OW 8353   2.915   2.829   3.487
 2081SOL    HW2 8354   2.910   2.829   3.582
 2081SOL    HW3 8355   2.850   2.764   3.459
 2081SOL    MW4 8356   2.905   2.820   3.496
 2082SOL     OW 8357   2.900   3.105   3.414
 2082SOL    HW2 8358   2.903   3.014   3.443
 2082SOL    HW3 8359   2.921   3.102   3.321
 2082SOL    MW4 8360   2.903   3.093   3.406
 2083SOL     OW 8361   2.670   3.224   3.530
 2083SOL    HW2 8362   2.684   3.201   3.621
 2083SOL    HW3 8363   2.750   3.196   3.485
 2083SOL    MW4 8364   2.682   3.218   3.536
 2084SOL     OW 8365   2.682   3.486   3.410
 2084SOL    HW2 8366   2.679   3.404   3.460
 2084SOL    HW3 8367   2.611   3.538   3.447
 2084SOL    MW4 8368   2.672   3.482   3.422
 2085SOL     OW 8369   2.899   3.607   3.526
 2085SOL    HW2 8370   2.901   3.701   3.513
 2085SOL    HW3 8371   2.816   3.579   3.485
 2085SOL    MW4 8372   2.888   3.616   3.519
 2086SOL     OW 8373   2.877   3.863   3.435
 2086SOL    HW2 8374   2.949   3.919   3.463
 2086SOL    HW3 8375   2.799   3.902   3.474
 2086SOL    MW4 8376   2.876   3.875   3.444
 2087SOL     OW 8377   2.636   4.038   3.538
 2087SOL    HW2 8378   2.649   4.043   3.632
 2087SOL    HW3 8379   2.645   4.128   3.507
 2087SOL    MW4 8380   2.639   4.051   3.546
 2088SOL     OW 8381   2.692   4.299   3.420
 2088SOL    HW2 8382   2.760   4.357   3.454
 2088SOL    HW3 8383   2.614   4.321   3.471
 2088SOL    MW4 8384   2.691   4.310   3.431
 2089SOL     OW 8385   2.899   4.423   3.538
 2089SOL    HW2 8386   2.876   4.397   3.627
 2089SOL    HW3 8387   2.907   4.518   3.542
 2089SOL    MW4 8388   2.897   4.432   3.550
 2090SOL     OW 8389   3.388   4.647   3.409
 2090SOL    HW2 8390   3.314   4.692   3.450
 2090SOL    HW3 8391   3.376   4.661   3.315
 2090SOL    MW4 8392   3.377   4.654   3.402
 2091SOL     OW 8393   3.168   0.090   3.572
 2091SOL    HW2 8394   3.149   0.181   3.551
 2091SOL    HW3 8395   3.086   0.044   3.556
 2091SOL    MW4 8396   3.155   0.096   3.567
 2092SOL     OW 8397   3.144   0.355   3.481
 2092SOL    HW2 8398   3.072   0.404   3.520
 2092SOL    HW3 8399   3.129   0.362   3.386
 2092SOL    MW4 8400   3.132   0.362   3.473
 2093SOL     OW 8401   3.385   0.478   3.528
 2093SOL    HW2 8402   3.392   0.478   3.623
 2093SOL    HW3 8403   3.296   0.450   3.510
 2093SOL    MW4 8404   3.374   0.475   3.538
 2094SOL     OW 8405   3.372   0.741   3.413
 2094SOL    HW2 8406   3.451   0.781   3.448
 2094SOL    HW3 8407   3.373   0.652   3.448
 2094SOL    MW4 8408   3.383   0.734   3.422
 2095SOL     OW 8409   3.141   0.900   3.520
 2095SOL    HW2 8410   3.158   0.991   3.497
 2095SOL    HW3 8411   3.220   0.852   3.495
 2095SOL    MW4 8412   3.153   0.905   3.513
 2096SOL     OW 8413   3.117   1.177   3.420
 2096SOL    HW2 8414   3.181   1.243   3.447
 2096SOL    HW3 8415   3.112   1.186   3.324
 2096SOL    MW4 8416   3.124   1.187   3.411
 2097SOL     OW 8417   3.333   1.304   3.555
 2097SOL    HW2 8418   3.390   1.231   3.532
 2097SOL    HW3 8419   3.357   1.374   3.494
 2097SOL    MW4 8420   3.344   1.303   3.544
 2098SOL     OW 8421   3.373   1.525   3.389
 2098SOL    HW2 8422   3.447   1.579   3.419
 2098SOL    HW3 8423   3.296   1.571   3.421
 2098SOL    MW4 8424   3.373   1.538   3.397
 2099SOL     OW 8425   3.138   1.673   3.468
 2099SOL    HW2 8426   3.130   1.766   3.446
 2099SOL    HW3 8427   3.050   1.638   3.454
 2099SOL    MW4 8428   3.125   1.681   3.463
 2100SOL     OW 8429   3.163   1.951   3.417
 2100SOL    HW2 8430   3.091   2.007   3.445
 2100SOL    HW3 8431   3.169   1.965   3.323
 2100SOL    MW4 8432   3.154   1.960   3.409
 2101SOL     OW 8433   3.413   2.023   3.511
 2101SOL    HW2 8434   3.420   2.110   3.471
 2101SOL    HW3 8435   3.329   1.989   3.481
 2101SOL    MW4 8436   3.403   2.030   3.502
 2102SOL     OW 8437   3.421   2.299   3.426
 2102SOL    HW2 8438   3.493   2.345   3.468
 2102SOL    HW3 8439   3.343   2.346   3.455
 2102SOL    MW4 8440   3.420   2.311   3.435
 2103SOL     OW 8441   3.195   2.433   3.531
 2103SOL    HW2 8442   3.187   2.520   3.491
 2103SOL    HW3 8443   3.113   2.389   3.509
 2103SOL    MW4 8444   3.183   2.439   3.523
 2104SOL     OW 8445   3.151   2.687   3.407
 2104SOL    HW2 8446   3.229   2.733   3.440
 2104SOL    HW3 8447   3.077   2.738   3.439
 2104SOL    MW4 8448   3.152   2.700   3.416
 2105SOL     OW 8449   3.368   2.840   3.487
 2105SOL    HW2 8450   3.439   2.793   3.444
 2105SOL    HW3 8451   3.367   2.926   3.446
 2105SOL    MW4 8452   3.377   2.845   3.476
 2106SOL     OW 8453   3.359   3.078   3.377
 2106SOL    HW2 8454   3.434   3.119   3.419
 2106SOL    HW3 8455   3.283   3.124   3.414
 2106SOL    MW4 8456   3.359   3.089   3.387
 2107SOL     OW 8457   3.150   3.226   3.484
 2107SOL    HW2 8458   3.153   3.318   3.459
 2107SOL    HW3 8459   3.067   3.194   3.449
 2107SOL    MW4 8460   3.140   3.234   3.476
 2108SOL     OW 8461   3.150   3.508   3.386
 2108SOL    HW2 8462   3.066   3.541   3.417
 2108SOL    HW3 8463   3.137   3.494   3.292
 2108SOL    MW4 8464   3.137   3.511   3.378
 2109SOL     OW 8465   3.383   3.587   3.518
 2109SOL    HW2 8466   3.367   3.679   3.495
 2109SOL    HW3 8467   3.314   3.538   3.473
 2109SOL    MW4 8468   3.372   3.593   3.509
 2110SOL     OW 8469   3.344   3.856   3.420
 2110SOL    HW2 8470   3.412   3.916   3.450
 2110SOL    HW3 8471   3.261   3.900   3.442
 2110SOL    MW4 8472   3.342   3.870   3.427
 2111SOL     OW 8473   3.122   4.010   3.497
 2111SOL    HW2 8474   3.124   4.032   3.590
 2111SOL    HW3 8475   3.122   4.095   3.453
 2111SOL    MW4 8476   3.122   4.024   3.503
 2112SOL     OW 8477   3.107   4.279   3.399
 2112SOL    HW2 8478   3.189   4.309   3.438
 2112SOL    HW3 8479   3.039   4.333   3.442
 2112SOL    MW4 8480   3.109   4.290   3.410
 2113SOL     OW 8481   3.336   4.398   3.530
 2113SOL    HW2 8482   3.352   4.410   3.623
 2113SOL    HW3 8483   3.362   4.481   3.490
 2113SOL    MW4 8484   3.342   4.410   3.537
 2114SOL     OW 8485   3.810   4.630   3.434
 2114SOL    HW2 8486   3.747   4.688   3.477
 2114SOL    HW3 8487   3.796   4.644   3.341
 2114SOL    MW4 8488   3.800   4.640   3.428
 2115SOL     OW 8489   3.605   0.091   3.530
 2115SOL    HW2 8490   3.601   0.177   3.488
 2115SOL    HW3 8491   3.531   0.043   3.493
 2115SOL    MW4 8492   3.595   0.096   3.519
 2116SOL     OW 8493   3.588   0.351   3.391
 2116SOL    HW2 8494   3.660   0.398   3.434
 2116SOL    HW3 8495   3.509   0.392   3.424
 2116SOL    MW4 8496   3.587   0.362   3.401
 2117SOL     OW 8497   3.795   0.489   3.506
 2117SOL    HW2 8498   3.794   0.493   3.602
 2117SOL    HW3 8499   3.874   0.439   3.485
 2117SOL    MW4 8500   3.806   0.483   3.516
 2118SOL     OW 8501   3.829   0.751   3.405
 2118SOL    HW2 8502   3.912   0.784   3.437
 2118SOL    HW3 8503   3.823   0.662   3.438
 2118SOL    MW4 8504   3.839   0.744   3.413
 2119SOL     OW 8505   3.595   0.854   3.516
 2119SOL    HW2 8506   3.607   0.837   3.609
 2119SOL    HW3 8507   3.677   0.825   3.475
 2119SOL    MW4 8508   3.607   0.848   3.523
 2120SOL     OW 8509   3.543   1.120   3.429
 2120SOL    HW2 8510   3.545   1.025   3.434
 2120SOL    HW3 8511   3.546   1.139   3.335
 2120SOL    MW4 8512   3.544   1.110   3.417
 2121SOL     OW 8513   3.781   1.229   3.499
 2121SOL    HW2 8514   3.788   1.210   3.592
 2121SOL    HW3 8515   3.700   1.188   3.471
 2121SOL    MW4 8516   3.771   1.221   3.508
 2122SOL     OW 8517   3.792   1.494   3.392
 2122SOL    HW2 8518   3.869   1.531   3.433
 2122SOL    HW3 8519   3.783   1.407   3.430
 2122SOL    MW4 8520   3.801   1.488   3.402
 2123SOL     OW 8521   3.582   1.658   3.507
 2123SOL    HW2 8522   3.595   1.746   3.471
 2123SOL    HW3 8523   3.650   1.605   3.465
 2123SOL    MW4 8524   3.592   1.663   3.497
 2124SOL     OW 8525   3.621   1.902   3.380
 2124SOL    HW2 8526   3.693   1.954   3.417
 2124SOL    HW3 8527   3.542   1.948   3.407
 2124SOL    MW4 8528   3.620   1.915   3.389
 2125SOL     OW 8529   3.839   2.040   3.497
 2125SOL    HW2 8530   3.822   2.048   3.591
 2125SOL    HW3 8531   3.911   1.978   3.491
 2125SOL    MW4 8532   3.846   2.033   3.509
 2126SOL     OW 8533   3.832   2.303   3.404
 2126SOL    HW2 8534   3.918   2.340   3.424
 2126SOL    HW3 8535   3.837   2.213   3.436
 2126SOL    MW4 8536   3.844   2.296   3.411
 2127SOL     OW 8537   3.621   2.450   3.528
 2127SOL    HW2 8538   3.592   2.519   3.468
 2127SOL    HW3 8539   3.698   2.413   3.486
 2127SOL    MW4 8540   3.628   2.455   3.515
 2128SOL     OW 8541   3.558   2.682   3.360
 2128SOL    HW2 8542   3.644   2.712   3.391
 2128SOL    HW3 8543   3.565   2.687   3.264
 2128SOL    MW4 8544   3.570   2.687   3.351
 2129SOL     OW 8545   3.770   2.802   3.463
 2129SOL    HW2 8546   3.778   2.788   3.557
 2129SOL    HW3 8547   3.782   2.896   3.452
 2129SOL    MW4 8548   3.772   2.813   3.474
 2130SOL     OW 8549   3.801   3.081   3.384
 2130SOL    HW2 8550   3.867   3.138   3.424
 2130SOL    HW3 8551   3.816   3.090   3.290
 2130SOL    MW4 8552   3.812   3.090   3.377
 2131SOL     OW 8553   3.565   3.194   3.500
 2131SOL    HW2 8554   3.568   3.284   3.467
 2131SOL    HW3 8555   3.642   3.152   3.462
 2131SOL    MW4 8556   3.576   3.201   3.490
 2132SOL     OW 8557   3.583   3.454   3.393
 2132SOL    HW2 8558   3.526   3.500   3.454
 2132SOL    HW3 8559   3.562   3.491   3.307
 2132SOL    MW4 8560   3.573   3.465   3.390
 2133SOL     OW 8561   3.815   3.550   3.509
 2133SOL    HW2 8562   3.799   3.546   3.604
 2133SOL    HW3 8563   3.742   3.502   3.471
 2133SOL    MW4 8564   3.803   3.543   3.517
 2134SOL     OW 8565   3.780   3.818   3.414
 2134SOL    HW2 8566   3.705   3.862   3.454
 2134SOL    HW3 8567   3.779   3.730   3.451
 2134SOL    MW4 8568   3.770   3.812   3.424
 2135SOL     OW 8569   3.577   3.968   3.502
 2135SOL    HW2 8570   3.578   3.971   3.598
 2135SOL    HW3 8571   3.570   4.060   3.476
 2135SOL    MW4 8572   3.576   3.981   3.511
 2136SOL     OW 8573   3.545   4.237   3.397
 2136SOL    HW2 8574   3.464   4.283   3.419
 2136SOL    HW3 8575   3.556   4.250   3.303
 2136SOL    MW4 8576   3.536   4.245   3.388
 2137SOL     OW 8577   3.788   4.361   3.490
 2137SOL    HW2 8578   3.704   4.340   3.448
 2137SOL    HW3 8579   3.800   4.454   3.472
 2137SOL    MW4 8580   3.778   4.371   3.482
 2138SOL     OW 8581   4.265   4.655   3.379
 2138SOL    HW2 8582   4.243   4.568   3.412
 2138SOL    HW3 8583   4.345   4.679   3.427
 2138SOL    MW4 8584   4.273   4.647   3.390
 2139SOL     OW 8585   4.071   0.119   3.520
 2139SOL    HW2 8586   4.143   0.078   3.473
 2139SOL    HW3 8587   3.993   0.073   3.488
 2139SOL    MW4 8588   4.070   0.107   3.509
 2140SOL     OW 8589   4.048   0.381   3.457
 2140SOL    HW2 8590   4.061   0.290   3.486
 2140SOL    HW3 8591   4.052   0.376   3.361
 2140SOL    MW4 8592   4.051   0.368   3.448
 2141SOL     OW 8593   4.301   0.497   3.520
 2141SOL    HW2 8594   4.288   0.587   3.489
 2141SOL    HW3 8595   4.218   0.453   3.501
 2141SOL    MW4 8596   4.288   0.503   3.514
 2142SOL     OW 8597   4.273   0.757   3.400
 2142SOL    HW2 8598   4.357   0.793   3.428
 2142SOL    HW3 8599   4.280   0.750   3.305
 2142SOL    MW4 8600   4.285   0.761   3.391
 2143SOL     OW 8601   4.048   0.851   3.513
 2143SOL    HW2 8602   4.046   0.941   3.479
 2143SOL    HW3 8603   4.135   0.819   3.489
 2143SOL    MW4 8604   4.059   0.859   3.506
 2144SOL     OW 8605   4.026   1.130   3.402
 2144SOL    HW2 8606   4.097   1.183   3.437
 2144SOL    HW3 8607   3.946   1.171   3.436
 2144SOL    MW4 8608   4.025   1.142   3.411
 2145SOL     OW 8609   4.269   1.234   3.522
 2145SOL    HW2 8610   4.272   1.327   3.500
 2145SOL    HW3 8611   4.335   1.194   3.467
 2145SOL    MW4 8612   4.278   1.241   3.512
 2146SOL     OW 8613   4.289   1.489   3.404
 2146SOL    HW2 8614   4.207   1.530   3.432
 2146SOL    HW3 8615   4.288   1.498   3.309
 2146SOL    MW4 8616   4.278   1.496   3.395
 2147SOL     OW 8617   4.042   1.588   3.499
 2147SOL    HW2 8618   4.040   1.584   3.595
 2147SOL    HW3 8619   4.046   1.681   3.479
 2147SOL    MW4 8620   4.043   1.600   3.509
 2148SOL     OW 8621   4.046   1.856   3.418
 2148SOL    HW2 8622   4.123   1.901   3.453
 2148SOL    HW3 8623   4.058   1.860   3.323
 2148SOL    MW4 8624   4.058   1.863   3.410
 2149SOL     OW 8625   4.246   2.040   3.497
 2149SOL    HW2 8626   4.229   2.129   3.466
 2149SOL    HW3 8627   4.335   2.021   3.469
 2149SOL    MW4 8628   4.255   2.049   3.489
 2150SOL     OW 8629   4.262   2.306   3.407
 2150SOL    HW2 8630   4.193   2.359   3.448
 2150SOL    HW3 8631   4.229   2.288   3.319
 2150SOL    MW4 8632   4.248   2.311   3.401
 2151SOL     OW 8633   4.046   2.444   3.484
 2151SOL    HW2 8634   4.020   2.435   3.576
 2151SOL    HW3 8635   4.010   2.528   3.457
 2151SOL    MW4 8636   4.038   2.454   3.492
 2152SOL     OW 8637   4.018   2.710   3.366
 2152SOL    HW2 8638   4.096   2.752   3.403
 2152SOL    HW3 8639   3.945   2.762   3.399
 2152SOL    MW4 8640   4.019   2.723   3.376
 2153SOL     OW 8641   4.256   2.804   3.488
 2153SOL    HW2 8642   4.262   2.787   3.582
 2153SOL    HW3 8643   4.336   2.766   3.451
 2153SOL    MW4 8644   4.268   2.797   3.495
 2154SOL     OW 8645   4.253   3.099   3.431
 2154SOL    HW2 8646   4.267   3.007   3.450
 2154SOL    HW3 8647   4.263   3.107   3.336
 2154SOL    MW4 8648   4.256   3.088   3.421
 2155SOL     OW 8649   4.032   3.218   3.536
 2155SOL    HW2 8650   4.038   3.301   3.488
 2155SOL    HW3 8651   4.096   3.161   3.493
 2155SOL    MW4 8652   4.041   3.222   3.524
 2156SOL     OW 8653   4.052   3.464   3.408
 2156SOL    HW2 8654   4.126   3.505   3.452
 2156SOL    HW3 8655   3.975   3.496   3.454
 2156SOL    MW4 8656   4.052   3.474   3.420
 2157SOL     OW 8657   4.271   3.591   3.521
 2157SOL    HW2 8658   4.263   3.590   3.617
 2157SOL    HW3 8659   4.254   3.682   3.497
 2157SOL    MW4 8660   4.268   3.603   3.531
 2158SOL     OW 8661   4.234   3.844   3.381
 2158SOL    HW2 8662   4.308   3.899   3.407
 2158SOL    HW3 8663   4.240   3.839   3.286
 2158SOL    MW4 8664   4.244   3.851   3.372
 2159SOL     OW 8665   4.017   3.986   3.498
 2159SOL    HW2 8666   4.085   3.929   3.462
 2159SOL    HW3 8667   3.935   3.943   3.474
 2159SOL    MW4 8668   4.015   3.973   3.490
 2160SOL     OW 8669   4.009   4.242   3.373
 2160SOL    HW2 8670   4.018   4.157   3.416
 2160SOL    HW3 8671   3.933   4.282   3.414
 2160SOL    MW4 8672   4.000   4.236   3.384
 2161SOL     OW 8673   4.219   4.410   3.475
 2161SOL    HW2 8674   4.217   4.395   3.569
 2161SOL    HW3 8675   4.147   4.357   3.441
 2161SOL    MW4 8676   4.210   4.401   3.483
 2162SOL     OW 8677   0.271   4.595   3.897
 2162SOL    HW2 8678   0.253   4.587   3.991
 2162SOL    HW3 8679   0.194   4.641   3.862
 2162SOL    MW4 8680   0.258   4.600   3.905
 2163SOL     OW 8681   0.034   0.076   3.788
 2163SOL    HW2 8682   0.039   0.165   3.824
 2163SOL    HW3 8683   0.032   0.089   3.693
 2163SOL    MW4 8684   0.034   0.090   3.780
 2164SOL     OW 8685   0.018   0.338   3.876
 2164SOL    HW2 8686  -0.060   0.388   3.850
 2164SOL    HW3 8687   0.091   0.398   3.861
 2164SOL    MW4 8688   0.017   0.352   3.871
 2165SOL     OW 8689   0.245   0.493   3.807
 2165SOL    HW2 8690   0.253   0.582   3.839
 2165SOL    HW3 8691   0.235   0.503   3.712
 2165SOL    MW4 8692   0.245   0.506   3.799
 2166SOL     OW 8693   0.229   0.758   3.872
 2166SOL    HW2 8694   0.224   0.752   3.968
 2166SOL    HW3 8695   0.146   0.798   3.847
 2166SOL    MW4 8696   0.217   0.762   3.881
 2167SOL     OW 8697   4.447   0.872   3.808
 2167SOL    HW2 8698   4.374   0.829   3.852
 2167SOL    HW3 8699   4.449   0.960   3.844
 2167SOL    MW4 8700   4.438   0.878   3.818
 2168SOL     OW 8701   4.444   1.129   3.871
 2168SOL    HW2 8702   4.372   1.175   3.829
 2168SOL    HW3 8703   4.522   1.177   3.846
 2168SOL    MW4 8704   4.444   1.141   3.863
 2169SOL     OW 8705   0.202   1.227   3.783
 2169SOL    HW2 8706   0.197   1.316   3.817
 2169SOL    HW3 8707   0.198   1.238   3.688
 2169SOL    MW4 8708   0.201   1.240   3.775
 2170SOL     OW 8709   0.213   1.495   3.875
 2170SOL    HW2 8710   0.222   1.510   3.969
 2170SOL    HW3 8711   0.131   1.538   3.851
 2170SOL    MW4 8712   0.204   1.503   3.884
 2171SOL     OW 8713   4.472   1.620   3.784
 2171SOL    HW2 8714   4.500   1.709   3.806
 2171SOL    HW3 8715   4.483   1.613   3.689
 2171SOL    MW4 8716   4.477   1.631   3.774
 2172SOL     OW 8717   4.490   1.910   3.856
 2172SOL    HW2 8718   4.497   1.920   3.951
 2172SOL    HW3 8719   4.405   1.946   3.834
 2172SOL    MW4 8720   4.480   1.916   3.866
 2173SOL     OW 8721   0.252   2.020   3.796
 2173SOL    HW2 8722   0.242   2.108   3.832
 2173SOL    HW3 8723   0.175   1.973   3.826
 2173SOL    MW4 8724   0.241   2.026   3.805
 2174SOL     OW 8725   0.211   2.272   3.883
 2174SOL    HW2 8726   0.212   2.292   3.977
 2174SOL    HW3 8727   0.130   2.310   3.851
 2174SOL    MW4 8728   0.201   2.279   3.891
 2175SOL     OW 8729   4.472   2.404   3.783
 2175SOL    HW2 8730   4.388   2.362   3.802
 2175SOL    HW3 8731   4.465   2.491   3.824
 2175SOL    MW4 8732   4.460   2.410   3.791
 2176SOL     OW 8733   4.456   2.653   3.905
 2176SOL    HW2 8734   4.468   2.662   3.999
 2176SOL    HW3 8735   4.535   2.691   3.866
 2176SOL    MW4 8736   4.468   2.659   3.912
 2177SOL     OW 8737   0.184   2.787   3.790
 2177SOL    HW2 8738   0.272   2.759   3.815
 2177SOL    HW3 8739   0.189   2.801   3.695
 2177SOL    MW4 8740   0.196   2.785   3.780
 2178SOL     OW 8741   0.237   3.050   3.883
 2178SOL    HW2 8742   0.222   3.049   3.977
 2178SOL    HW3 8743   0.210   2.963   3.854
 2178SOL    MW4 8744   0.232   3.038   3.891
 2179SOL     OW 8745   0.012   3.202   3.817
 2179SOL    HW2 8746   0.090   3.152   3.841
 2179SOL    HW3 8747   0.024   3.222   3.724
 2179SOL    MW4 8748   0.024   3.198   3.808
 2180SOL     OW 8749   4.483   3.459   3.930
 2180SOL    HW2 8750   4.544   3.502   3.869
 2180SOL    HW3 8751   4.479   3.369   3.900
 2180SOL    MW4 8752   4.491   3.453   3.918
 2181SOL     OW 8753   0.193   3.577   3.780
 2181SOL    HW2 8754   0.275   3.534   3.804
 2181SOL    HW3 8755   0.203   3.666   3.813
 2181SOL    MW4 8756   0.205   3.583   3.787
 2182SOL     OW 8757   0.213   3.830   3.937
 2182SOL    HW2 8758   0.222   3.830   4.033
 2182SOL    HW3 8759   0.287   3.882   3.906
 2182SOL    MW4 8760   0.224   3.837   3.946
 2183SOL     OW 8761   0.014   3.952   3.785
 2183SOL    HW2 8762  -0.075   3.931   3.817
 2183SOL    HW3 8763   0.071   3.892   3.832
 2183SOL    MW4 8764   0.010   3.941   3.795
 2184SOL     OW 8765   4.465   4.220   3.859
 2184SOL    HW2 8766   4.546   4.270   3.854
 2184SOL    HW3 8767   4.490   4.131   3.834
 2184SOL    MW4 8768   4.479   4.215   3.855
 2185SOL     OW 8769   0.207   4.343   3.824
 2185SOL    HW2 8770   0.289   4.294   3.824
 2185SOL    HW3 8771   0.233   4.431   3.855
 2185SOL    MW4 8772   0.222   4.348   3.828
 2186SOL     OW 8773   0.705   4.594   3.926
 2186SOL    HW2 8774   0.698   4.504   3.895
 2186SOL    HW3 8775   0.620   4.633   3.907
 2186SOL    MW4 8776   0.693   4.587   3.920
 2187SOL     OW 8777   0.478   0.050   3.782
 2187SOL    HW2 8778   0.485   0.139   3.816
 2187SOL    HW3 8779   0.407   0.010   3.832
 2187SOL    MW4 8780   0.470   0.056   3.793
 2188SOL     OW 8781   0.462   0.333   3.887
 2188SOL    HW2 8782   0.540   0.377   3.852
 2188SOL    HW3 8783   0.389   0.390   3.861
 2188SOL    MW4 8784   0.463   0.347   3.879
 2189SOL     OW 8785   0.674   0.469   3.760
 2189SOL    HW2 8786   0.745   0.426   3.809
 2189SOL    HW3 8787   0.671   0.557   3.797
 2189SOL    MW4 8788   0.683   0.475   3.772
 2190SOL     OW 8789   0.712   0.701   3.892
 2190SOL    HW2 8790   0.780   0.760   3.859
 2190SOL    HW3 8791   0.629   0.743   3.869
 2190SOL    MW4 8792   0.710   0.714   3.885
 2191SOL     OW 8793   0.492   0.847   3.782
 2191SOL    HW2 8794   0.467   0.935   3.810
 2191SOL    HW3 8795   0.418   0.792   3.807
 2191SOL    MW4 8796   0.479   0.851   3.789
 2192SOL     OW 8797   0.470   1.128   3.854
 2192SOL    HW2 8798   0.538   1.191   3.829
 2192SOL    HW3 8799   0.391   1.159   3.810
 2192SOL    MW4 8800   0.469   1.140   3.845
 2193SOL     OW 8801   0.687   1.277   3.737
 2193SOL    HW2 8802   0.761   1.224   3.765
 2193SOL    HW3 8803   0.681   1.264   3.643
 2193SOL    MW4 8804   0.696   1.269   3.728
 2194SOL     OW 8805   0.673   1.525   3.856
 2194SOL    HW2 8806   0.735   1.577   3.805
 2194SOL    HW3 8807   0.676   1.438   3.818
 2194SOL    MW4 8808   0.682   1.521   3.844
 2195SOL     OW 8809   0.434   1.638   3.772
 2195SOL    HW2 8810   0.515   1.599   3.806
 2195SOL    HW3 8811   0.365   1.580   3.805
 2195SOL    MW4 8812   0.436   1.625   3.780
 2196SOL     OW 8813   0.475   1.896   3.900
 2196SOL    HW2 8814   0.473   1.807   3.863
 2196SOL    HW3 8815   0.394   1.937   3.869
 2196SOL    MW4 8816   0.464   1.889   3.891
 2197SOL     OW 8817   0.684   2.062   3.762
 2197SOL    HW2 8818   0.692   2.143   3.812
 2197SOL    HW3 8819   0.610   2.016   3.802
 2197SOL    MW4 8820   0.676   2.066   3.774
 2198SOL     OW 8821   0.672   2.308   3.896
 2198SOL    HW2 8822   0.741   2.350   3.844
 2198SOL    HW3 8823   0.591   2.349   3.865
 2198SOL    MW4 8824   0.671   2.319   3.885
 2199SOL     OW 8825   0.429   2.421   3.776
 2199SOL    HW2 8826   0.366   2.366   3.823
 2199SOL    HW3 8827   0.397   2.424   3.687
 2199SOL    MW4 8828   0.417   2.414   3.771
 2200SOL     OW 8829   0.416   2.678   3.869
 2200SOL    HW2 8830   0.505   2.706   3.849
 2200SOL    HW3 8831   0.416   2.584   3.848
 2200SOL    MW4 8832   0.428   2.669   3.864
 2201SOL     OW 8833   0.664   2.797   3.781
 2201SOL    HW2 8834   0.751   2.765   3.804
 2201SOL    HW3 8835   0.660   2.792   3.686
 2201SOL    MW4 8836   0.675   2.792   3.772
 2202SOL     OW 8837   0.675   3.059   3.841
 2202SOL    HW2 8838   0.675   3.070   3.936
 2202SOL    HW3 8839   0.674   2.964   3.829
 2202SOL    MW4 8840   0.675   3.048   3.852
 2203SOL     OW 8841   0.447   3.193   3.766
 2203SOL    HW2 8842   0.530   3.154   3.793
 2203SOL    HW3 8843   0.380   3.138   3.807
 2203SOL    MW4 8844   0.449   3.181   3.775
 2204SOL     OW 8845   0.433   3.452   3.902
 2204SOL    HW2 8846   0.509   3.499   3.868
 2204SOL    HW3 8847   0.434   3.368   3.856
 2204SOL    MW4 8848   0.443   3.447   3.892
 2205SOL     OW 8849   0.692   3.573   3.799
 2205SOL    HW2 8850   0.658   3.654   3.835
 2205SOL    HW3 8851   0.673   3.580   3.705
 2205SOL    MW4 8852   0.685   3.585   3.791
 2206SOL     OW 8853   0.640   3.808   3.900
 2206SOL    HW2 8854   0.654   3.812   3.995
 2206SOL    HW3 8855   0.720   3.844   3.862
 2206SOL    MW4 8856   0.652   3.814   3.908
 2207SOL     OW 8857   0.422   3.957   3.779
 2207SOL    HW2 8858   0.489   3.899   3.816
 2207SOL    HW3 8859   0.446   3.965   3.687
 2207SOL    MW4 8860   0.434   3.951   3.772
 2208SOL     OW 8861   0.458   4.219   3.859
 2208SOL    HW2 8862   0.540   4.256   3.827
 2208SOL    HW3 8863   0.460   4.128   3.832
 2208SOL    MW4 8864   0.469   4.212   3.851
 2209SOL     OW 8865   0.687   4.348   3.786
 2209SOL    HW2 8866   0.769   4.303   3.809
 2209SOL    HW3 8867   0.703   4.381   3.697
 2209SOL    MW4 8868   0.700   4.346   3.777
 2210SOL     OW 8869   1.126   4.620   3.911
 2210SOL    HW2 8870   1.198   4.667   3.869
 2210SOL    HW3 8871   1.121   4.537   3.864
 2210SOL    MW4 8872   1.135   4.615   3.899
 2211SOL     OW 8873   0.908   0.098   3.831
 2211SOL    HW2 8874   0.985   0.066   3.878
 2211SOL    HW3 8875   0.834   0.059   3.877
 2211SOL    MW4 8876   0.909   0.089   3.844
 2212SOL     OW 8877   0.888   0.362   3.883
 2212SOL    HW2 8878   0.880   0.366   3.978
 2212SOL    HW3 8879   0.902   0.269   3.864
 2212SOL    MW4 8880   0.889   0.350   3.893
 2213SOL     OW 8881   1.119   0.507   3.801
 2213SOL    HW2 8882   1.172   0.431   3.825
 2213SOL    HW3 8883   1.035   0.493   3.843
 2213SOL    MW4 8884   1.115   0.495   3.810
 2214SOL     OW 8885   1.174   0.772   3.867
 2214SOL    HW2 8886   1.161   0.771   3.961
 2214SOL    HW3 8887   1.170   0.679   3.841
 2214SOL    MW4 8888   1.172   0.760   3.876
 2215SOL     OW 8889   0.918   0.857   3.791
 2215SOL    HW2 8890   1.010   0.836   3.806
 2215SOL    HW3 8891   0.906   0.849   3.697
 2215SOL    MW4 8892   0.928   0.853   3.781
 2216SOL     OW 8893   0.929   1.133   3.820
 2216SOL    HW2 8894   0.917   1.148   3.914
 2216SOL    HW3 8895   0.932   1.038   3.811
 2216SOL    MW4 8896   0.928   1.122   3.832
 2217SOL     OW 8897   1.107   1.305   3.688
 2217SOL    HW2 8898   1.116   1.393   3.724
 2217SOL    HW3 8899   1.037   1.265   3.739
 2217SOL    MW4 8900   1.099   1.311   3.700
 2218SOL     OW 8901   1.151   1.529   3.843
 2218SOL    HW2 8902   1.156   1.537   3.939
 2218SOL    HW3 8903   1.234   1.564   3.812
 2218SOL    MW4 8904   1.163   1.534   3.852
 2219SOL     OW 8905   0.889   1.675   3.761
 2219SOL    HW2 8906   0.975   1.644   3.789
 2219SOL    HW3 8907   0.894   1.679   3.665
 2219SOL    MW4 8908   0.901   1.672   3.752
 2220SOL     OW 8909   0.898   1.921   3.882
 2220SOL    HW2 8910   0.896   1.843   3.828
 2220SOL    HW3 8911   0.820   1.970   3.857
 2220SOL    MW4 8912   0.887   1.917   3.872
 2221SOL     OW 8913   1.118   2.054   3.762
 2221SOL    HW2 8914   1.046   1.999   3.794
 2221SOL    HW3 8915   1.109   2.052   3.667
 2221SOL    MW4 8916   1.107   2.047   3.754
 2222SOL     OW 8917   1.120   2.316   3.870
 2222SOL    HW2 8918   1.128   2.325   3.965
 2222SOL    HW3 8919   1.128   2.222   3.854
 2222SOL    MW4 8920   1.122   2.305   3.880
 2223SOL     OW 8921   0.882   2.431   3.747
 2223SOL    HW2 8922   0.877   2.522   3.776
 2223SOL    HW3 8923   0.969   2.402   3.772
 2223SOL    MW4 8924   0.893   2.439   3.754
 2224SOL     OW 8925   0.912   2.690   3.870
 2224SOL    HW2 8926   0.910   2.667   3.963
 2224SOL    HW3 8927   0.993   2.739   3.859
 2224SOL    MW4 8928   0.922   2.694   3.881
 2225SOL     OW 8929   1.155   2.831   3.796
 2225SOL    HW2 8930   1.245   2.823   3.827
 2225SOL    HW3 8931   1.132   2.922   3.812
 2225SOL    MW4 8932   1.164   2.842   3.803
 2226SOL     OW 8933   1.135   3.119   3.861
 2226SOL    HW2 8934   1.218   3.160   3.838
 2226SOL    HW3 8935   1.069   3.165   3.809
 2226SOL    MW4 8936   1.137   3.130   3.851
 2227SOL     OW 8937   0.907   3.204   3.747
 2227SOL    HW2 8938   0.847   3.137   3.778
 2227SOL    HW3 8939   0.887   3.213   3.654
 2227SOL    MW4 8940   0.896   3.196   3.739
 2228SOL     OW 8941   0.949   3.460   3.856
 2228SOL    HW2 8942   0.928   3.373   3.824
 2228SOL    HW3 8943   0.877   3.515   3.823
 2228SOL    MW4 8944   0.937   3.456   3.847
 2229SOL     OW 8945   1.161   3.581   3.739
 2229SOL    HW2 8946   1.156   3.672   3.769
 2229SOL    HW3 8947   1.088   3.537   3.784
 2229SOL    MW4 8948   1.151   3.587   3.749
 2230SOL     OW 8949   1.121   3.846   3.818
 2230SOL    HW2 8950   1.104   3.854   3.911
 2230SOL    HW3 8951   1.193   3.906   3.801
 2230SOL    MW4 8952   1.128   3.855   3.828
 2231SOL     OW 8953   0.858   3.943   3.768
 2231SOL    HW2 8954   0.935   3.888   3.782
 2231SOL    HW3 8955   0.847   3.948   3.673
 2231SOL    MW4 8956   0.866   3.936   3.758
 2232SOL     OW 8957   0.916   4.210   3.831
 2232SOL    HW2 8958   0.907   4.202   3.926
 2232SOL    HW3 8959   0.902   4.122   3.797
 2232SOL    MW4 8960   0.913   4.198   3.839
 2233SOL     OW 8961   1.130   4.364   3.795
 2233SOL    HW2 8962   1.048   4.314   3.798
 2233SOL    HW3 8963   1.159   4.357   3.704
 2233SOL    MW4 8964   1.123   4.356   3.783
 2234SOL     OW 8965   1.581   4.614   3.850
 2234SOL    HW2 8966   1.579   4.635   3.943
 2234SOL    HW3 8967   1.576   4.519   3.847
 2234SOL    MW4 8968   1.580   4.604   3.862
 2235SOL     OW 8969   1.350   0.058   3.766
 2235SOL    HW2 8970   1.343   0.145   3.804
 2235SOL    HW3 8971   1.428   0.020   3.805
 2235SOL    MW4 8972   1.359   0.065   3.776
 2236SOL     OW 8973   1.320   0.317   3.864
 2236SOL    HW2 8974   1.321   0.309   3.960
 2236SOL    HW3 8975   1.394   0.375   3.844
 2236SOL    MW4 8976   1.330   0.323   3.874
 2237SOL     OW 8977   1.533   0.480   3.764
 2237SOL    HW2 8978   1.616   0.436   3.784
 2237SOL    HW3 8979   1.553   0.573   3.774
 2237SOL    MW4 8980   1.547   0.486   3.768
 2238SOL     OW 8981   1.583   0.761   3.835
 2238SOL    HW2 8982   1.657   0.812   3.801
 2238SOL    HW3 8983   1.506   0.810   3.806
 2238SOL    MW4 8984   1.582   0.774   3.827
 2239SOL     OW 8985   1.380   0.918   3.738
 2239SOL    HW2 8986   1.384   1.010   3.764
 2239SOL    HW3 8987   1.300   0.885   3.780
 2239SOL    MW4 8988   1.370   0.926   3.747
 2240SOL     OW 8989   1.333   1.183   3.807
 2240SOL    HW2 8990   1.408   1.241   3.790
 2240SOL    HW3 8991   1.266   1.213   3.745
 2240SOL    MW4 8992   1.334   1.195   3.797
 2241SOL     OW 8993   1.575   1.336   3.744
 2241SOL    HW2 8994   1.650   1.283   3.771
 2241SOL    HW3 8995   1.584   1.418   3.794
 2241SOL    MW4 8996   1.586   1.340   3.754
 2242SOL     OW 8997   1.579   1.571   3.894
 2242SOL    HW2 8998   1.587   1.573   3.989
 2242SOL    HW3 8999   1.665   1.597   3.862
 2242SOL    MW4 9000   1.591   1.575   3.902
 2243SOL     OW 9001   1.373   1.673   3.745
 2243SOL    HW2 9002   1.367   1.763   3.777
 2243SOL    HW3 9003   1.443   1.634   3.796
 2243SOL    MW4 9004   1.382   1.680   3.756
 2244SOL     OW 9005   1.351   1.936   3.840
 2244SOL    HW2 9006   1.352   1.920   3.934
 2244SOL    HW3 9007   1.271   1.986   3.825
 2244SOL    MW4 9008   1.341   1.940   3.850
 2245SOL     OW 9009   1.617   2.049   3.772
 2245SOL    HW2 9010   1.533   2.007   3.789
 2245SOL    HW3 9011   1.623   2.054   3.676
 2245SOL    MW4 9012   1.607   2.044   3.761
 2246SOL     OW 9013   1.557   2.279   3.909
 2246SOL    HW2 9014   1.637   2.333   3.905
 2246SOL    HW3 9015   1.581   2.197   3.866
 2246SOL    MW4 9016   1.571   2.276   3.902
 2247SOL     OW 9017   1.370   2.462   3.769
 2247SOL    HW2 9018   1.435   2.397   3.795
 2247SOL    HW3 9019   1.287   2.429   3.804
 2247SOL    MW4 9020   1.367   2.449   3.777
 2248SOL     OW 9021   1.419   2.720   3.889
 2248SOL    HW2 9022   1.416   2.707   3.984
 2248SOL    HW3 9023   1.410   2.632   3.853
 2248SOL    MW4 9024   1.418   2.706   3.897
 2249SOL     OW 9025   1.594   2.892   3.747
 2249SOL    HW2 9026   1.527   2.834   3.782
 2249SOL    HW3 9027   1.597   2.871   3.654
 2249SOL    MW4 9028   1.586   2.882   3.739
 2250SOL     OW 9029   1.603   3.140   3.902
 2250SOL    HW2 9030   1.587   3.119   3.994
 2250SOL    HW3 9031   1.599   3.056   3.857
 2250SOL    MW4 9032   1.600   3.126   3.908
 2251SOL     OW 9033   1.371   3.234   3.776
 2251SOL    HW2 9034   1.384   3.323   3.809
 2251SOL    HW3 9035   1.447   3.185   3.808
 2251SOL    MW4 9036   1.383   3.239   3.784
 2252SOL     OW 9037   1.379   3.479   3.870
 2252SOL    HW2 9038   1.446   3.535   3.830
 2252SOL    HW3 9039   1.298   3.504   3.826
 2252SOL    MW4 9040   1.377   3.489   3.859
 2253SOL     OW 9041   1.603   3.609   3.779
 2253SOL    HW2 9042   1.681   3.571   3.819
 2253SOL    HW3 9043   1.595   3.695   3.819
 2253SOL    MW4 9044   1.612   3.615   3.790
 2254SOL     OW 9045   1.566   3.853   3.896
 2254SOL    HW2 9046   1.572   3.875   3.989
 2254SOL    HW3 9047   1.504   3.916   3.860
 2254SOL    MW4 9048   1.559   3.864   3.903
 2255SOL     OW 9049   1.348   3.999   3.768
 2255SOL    HW2 9050   1.348   4.082   3.817
 2255SOL    HW3 9051   1.349   4.026   3.676
 2255SOL    MW4 9052   1.348   4.014   3.762
 2256SOL     OW 9053   1.344   4.247   3.912
 2256SOL    HW2 9054   1.415   4.294   3.869
 2256SOL    HW3 9055   1.265   4.292   3.883
 2256SOL    MW4 9056   1.343   4.259   3.903
 2257SOL     OW 9057   1.566   4.338   3.789
 2257SOL    HW2 9058   1.641   4.301   3.837
 2257SOL    HW3 9059   1.598   4.346   3.699
 2257SOL    MW4 9060   1.580   4.334   3.784
 2258SOL     OW 9061   1.959   4.632   3.939
 2258SOL    HW2 9062   2.043   4.676   3.926
 2258SOL    HW3 9063   1.970   4.547   3.897
 2258SOL    MW4 9064   1.972   4.627   3.931
 2259SOL     OW 9065   1.807   0.090   3.738
 2259SOL    HW2 9066   1.874   0.060   3.800
 2259SOL    HW3 9067   1.729   0.042   3.763
 2259SOL    MW4 9068   1.806   0.080   3.750
 2260SOL     OW 9069   1.770   0.327   3.850
 2260SOL    HW2 9070   1.755   0.328   3.944
 2260SOL    HW3 9071   1.763   0.235   3.825
 2260SOL    MW4 9072   1.767   0.315   3.859
 2261SOL     OW 9073   1.974   0.517   3.804
 2261SOL    HW2 9074   1.901   0.457   3.820
 2261SOL    HW3 9075   1.972   0.532   3.710
 2261SOL    MW4 9076   1.964   0.511   3.794
 2262SOL     OW 9077   1.955   0.770   3.896
 2262SOL    HW2 9078   1.947   0.771   3.991
 2262SOL    HW3 9079   1.975   0.679   3.874
 2262SOL    MW4 9080   1.957   0.758   3.906
 2263SOL     OW 9081   1.774   0.941   3.767
 2263SOL    HW2 9082   1.848   0.892   3.801
 2263SOL    HW3 9083   1.774   0.923   3.673
 2263SOL    MW4 9084   1.784   0.932   3.759
 2264SOL     OW 9085   1.793   1.216   3.863
 2264SOL    HW2 9086   1.794   1.195   3.956
 2264SOL    HW3 9087   1.795   1.131   3.819
 2264SOL    MW4 9088   1.794   1.202   3.869
 2265SOL     OW 9089   2.061   1.288   3.776
 2265SOL    HW2 9090   2.123   1.215   3.784
 2265SOL    HW3 9091   1.984   1.260   3.826
 2265SOL    MW4 9092   2.059   1.274   3.784
 2266SOL     OW 9093   2.036   1.529   3.895
 2266SOL    HW2 9094   1.965   1.563   3.840
 2266SOL    HW3 9095   2.065   1.451   3.849
 2266SOL    MW4 9096   2.030   1.524   3.881
 2267SOL     OW 9097   1.825   1.630   3.746
 2267SOL    HW2 9098   1.829   1.725   3.755
 2267SOL    HW3 9099   1.790   1.615   3.658
 2267SOL    MW4 9100   1.821   1.640   3.735
 2268SOL     OW 9101   1.837   1.890   3.847
 2268SOL    HW2 9102   1.883   1.904   3.930
 2268SOL    HW3 9103   1.759   1.944   3.854
 2268SOL    MW4 9104   1.833   1.899   3.859
 2269SOL     OW 9105   2.011   2.069   3.735
 2269SOL    HW2 9106   1.941   2.008   3.760
 2269SOL    HW3 9107   2.011   2.069   3.640
 2269SOL    MW4 9108   2.002   2.061   3.726
 2270SOL     OW 9109   2.040   2.312   3.888
 2270SOL    HW2 9110   1.953   2.352   3.890
 2270SOL    HW3 9111   2.028   2.232   3.838
 2270SOL    MW4 9112   2.027   2.307   3.882
 2271SOL     OW 9113   1.791   2.434   3.854
 2271SOL    HW2 9114   1.791   2.524   3.887
 2271SOL    HW3 9115   1.798   2.444   3.759
 2271SOL    MW4 9116   1.792   2.447   3.845
 2272SOL     OW 9117   1.784   2.725   3.881
 2272SOL    HW2 9118   1.780   2.764   3.968
 2272SOL    HW3 9119   1.729   2.782   3.827
 2272SOL    MW4 9120   1.776   2.738   3.885
 2273SOL     OW 9121   2.005   2.852   3.783
 2273SOL    HW2 9122   2.075   2.790   3.808
 2273SOL    HW3 9123   1.924   2.806   3.805
 2273SOL    MW4 9124   2.004   2.838   3.789
 2274SOL     OW 9125   2.041   3.109   3.855
 2274SOL    HW2 9126   2.028   3.020   3.822
 2274SOL    HW3 9127   2.119   3.140   3.810
 2274SOL    MW4 9128   2.049   3.101   3.845
 2275SOL     OW 9129   1.810   3.252   3.765
 2275SOL    HW2 9130   1.886   3.206   3.801
 2275SOL    HW3 9131   1.735   3.214   3.811
 2275SOL    MW4 9132   1.810   3.241   3.776
 2276SOL     OW 9133   1.807   3.502   3.923
 2276SOL    HW2 9134   1.890   3.550   3.913
 2276SOL    HW3 9135   1.824   3.416   3.884
 2276SOL    MW4 9136   1.820   3.497   3.917
 2277SOL     OW 9137   2.019   3.608   3.801
 2277SOL    HW2 9138   2.106   3.573   3.820
 2277SOL    HW3 9139   2.015   3.615   3.706
 2277SOL    MW4 9140   2.030   3.604   3.791
 2278SOL     OW 9141   2.022   3.875   3.884
 2278SOL    HW2 9142   2.103   3.916   3.852
 2278SOL    HW3 9143   2.024   3.786   3.849
 2278SOL    MW4 9144   2.033   3.869   3.875
 2279SOL     OW 9145   1.793   4.002   3.772
 2279SOL    HW2 9146   1.875   3.958   3.796
 2279SOL    HW3 9147   1.725   3.942   3.802
 2279SOL    MW4 9148   1.795   3.988   3.779
 2280SOL     OW 9149   1.782   4.220   3.943
 2280SOL    HW2 9150   1.855   4.270   3.907
 2280SOL    HW3 9151   1.774   4.144   3.886
 2280SOL    MW4 9152   1.791   4.217   3.931
 2281SOL     OW 9153   1.971   4.356   3.815
 2281SOL    HW2 9154   2.052   4.314   3.845
 2281SOL    HW3 9155   1.982   4.364   3.720
 2281SOL    MW4 9156   1.983   4.352   3.807
 2282SOL     OW 9157   2.435   4.638   3.928
 2282SOL    HW2 9158   2.448   4.623   4.022
 2282SOL    HW3 9159   2.512   4.687   3.900
 2282SOL    MW4 9160   2.447   4.643   3.937
 2283SOL     OW 9161   2.197   0.099   3.869
 2283SOL    HW2 9162   2.277   0.055   3.895
 2283SOL    HW3 9163   2.209   0.117   3.775
 2283SOL    MW4 9164   2.209   0.095   3.860
 2284SOL     OW 9165   2.200   0.370   3.912
 2284SOL    HW2 9166   2.191   0.276   3.894
 2284SOL    HW3 9167   2.115   0.407   3.890
 2284SOL    MW4 9168   2.187   0.362   3.907
 2285SOL     OW 9169   2.452   0.496   3.805
 2285SOL    HW2 9170   2.368   0.461   3.833
 2285SOL    HW3 9171   2.454   0.481   3.710
 2285SOL    MW4 9172   2.441   0.490   3.796
 2286SOL     OW 9173   2.459   0.762   3.908
 2286SOL    HW2 9174   2.376   0.801   3.880
 2286SOL    HW3 9175   2.459   0.675   3.866
 2286SOL    MW4 9176   2.448   0.756   3.899
 2287SOL     OW 9177   2.213   0.839   3.817
 2287SOL    HW2 9178   2.123   0.829   3.849
 2287SOL    HW3 9179   2.205   0.840   3.722
 2287SOL    MW4 9180   2.200   0.838   3.809
 2288SOL     OW 9181   2.253   1.111   3.864
 2288SOL    HW2 9182   2.239   1.146   3.952
 2288SOL    HW3 9183   2.250   1.016   3.876
 2288SOL    MW4 9184   2.251   1.103   3.877
 2289SOL     OW 9185   2.440   1.296   3.755
 2289SOL    HW2 9186   2.433   1.376   3.806
 2289SOL    HW3 9187   2.382   1.234   3.799
 2289SOL    MW4 9188   2.432   1.298   3.768
 2290SOL     OW 9189   2.439   1.538   3.874
 2290SOL    HW2 9190   2.513   1.572   3.823
 2290SOL    HW3 9191   2.364   1.591   3.846
 2290SOL    MW4 9192   2.439   1.550   3.864
 2291SOL     OW 9193   2.234   1.683   3.785
 2291SOL    HW2 9194   2.223   1.775   3.810
 2291SOL    HW3 9195   2.158   1.638   3.821
 2291SOL    MW4 9196   2.223   1.689   3.793
 2292SOL     OW 9197   2.224   1.944   3.868
 2292SOL    HW2 9198   2.225   1.964   3.962
 2292SOL    HW3 9199   2.155   2.001   3.833
 2292SOL    MW4 9200   2.215   1.954   3.876
 2293SOL     OW 9201   2.480   2.025   3.785
 2293SOL    HW2 9202   2.495   2.114   3.819
 2293SOL    HW3 9203   2.402   1.995   3.830
 2293SOL    MW4 9204   2.472   2.033   3.795
 2294SOL     OW 9205   2.523   2.291   3.872
 2294SOL    HW2 9206   2.587   2.358   3.850
 2294SOL    HW3 9207   2.440   2.326   3.840
 2294SOL    MW4 9208   2.520   2.304   3.865
 2295SOL     OW 9209   2.268   2.418   3.768
 2295SOL    HW2 9210   2.196   2.379   3.818
 2295SOL    HW3 9211   2.250   2.395   3.677
 2295SOL    MW4 9212   2.256   2.410   3.763
 2296SOL     OW 9213   2.239   2.674   3.861
 2296SOL    HW2 9214   2.214   2.668   3.953
 2296SOL    HW3 9215   2.255   2.583   3.835
 2296SOL    MW4 9216   2.238   2.661   3.870
 2297SOL     OW 9217   2.466   2.809   3.835
 2297SOL    HW2 9218   2.383   2.768   3.859
 2297SOL    HW3 9219   2.473   2.795   3.741
 2297SOL    MW4 9220   2.456   2.802   3.826
 2298SOL     OW 9221   2.478   3.083   3.873
 2298SOL    HW2 9222   2.484   3.094   3.968
 2298SOL    HW3 9223   2.477   2.988   3.861
 2298SOL    MW4 9224   2.479   3.072   3.884
 2299SOL     OW 9225   2.264   3.240   3.755
 2299SOL    HW2 9226   2.257   3.323   3.803
 2299SOL    HW3 9227   2.344   3.200   3.790
 2299SOL    MW4 9228   2.274   3.246   3.766
 2300SOL     OW 9229   2.242   3.473   3.880
 2300SOL    HW2 9230   2.234   3.482   3.975
 2300SOL    HW3 9231   2.319   3.525   3.858
 2300SOL    MW4 9232   2.251   3.481   3.890
 2301SOL     OW 9233   2.450   3.638   3.812
 2301SOL    HW2 9234   2.525   3.584   3.838
 2301SOL    HW3 9235   2.452   3.635   3.716
 2301SOL    MW4 9236   2.460   3.631   3.802
 2302SOL     OW 9237   2.506   3.892   3.914
 2302SOL    HW2 9238   2.581   3.937   3.874
 2302SOL    HW3 9239   2.504   3.806   3.872
 2302SOL    MW4 9240   2.515   3.887   3.903
 2303SOL     OW 9241   2.252   3.998   3.777
 2303SOL    HW2 9242   2.337   3.959   3.799
 2303SOL    HW3 9243   2.247   3.993   3.682
 2303SOL    MW4 9244   2.263   3.992   3.767
 2304SOL     OW 9245   2.222   4.246   3.898
 2304SOL    HW2 9246   2.227   4.237   3.994
 2304SOL    HW3 9247   2.220   4.156   3.866
 2304SOL    MW4 9248   2.223   4.233   3.907
 2305SOL     OW 9249   2.451   4.388   3.831
 2305SOL    HW2 9250   2.378   4.341   3.870
 2305SOL    HW3 9251   2.440   4.478   3.861
 2305SOL    MW4 9252   2.440   4.394   3.840
 2306SOL     OW 9253   2.885   4.636   3.904
 2306SOL    HW2 9254   2.882   4.633   3.999
 2306SOL    HW3 9255   2.956   4.695   3.883
 2306SOL    MW4 9256   2.894   4.643   3.913
 2307SOL     OW 9257   2.653   0.108   3.854
 2307SOL    HW2 9258   2.725   0.048   3.872
 2307SOL    HW3 9259   2.656   0.122   3.759
 2307SOL    MW4 9260   2.663   0.102   3.844
 2308SOL     OW 9261   2.666   0.387   3.947
 2308SOL    HW2 9262   2.692   0.299   3.919
 2308SOL    HW3 9263   2.582   0.401   3.904
 2308SOL    MW4 9264   2.658   0.377   3.938
 2309SOL     OW 9265   2.872   0.526   3.809
 2309SOL    HW2 9266   2.958   0.487   3.826
 2309SOL    HW3 9267   2.811   0.473   3.860
 2309SOL    MW4 9268   2.875   0.514   3.818
 2310SOL     OW 9269   2.888   0.787   3.933
 2310SOL    HW2 9270   2.977   0.798   3.901
 2310SOL    HW3 9271   2.858   0.705   3.895
 2310SOL    MW4 9272   2.896   0.778   3.924
 2311SOL     OW 9273   2.672   0.915   3.800
 2311SOL    HW2 9274   2.756   0.896   3.841
 2311SOL    HW3 9275   2.610   0.855   3.841
 2311SOL    MW4 9276   2.675   0.905   3.811
 2312SOL     OW 9277   2.656   1.177   3.887
 2312SOL    HW2 9278   2.651   1.082   3.874
 2312SOL    HW3 9279   2.584   1.212   3.834
 2312SOL    MW4 9280   2.645   1.169   3.878
 2313SOL     OW 9281   2.884   1.296   3.786
 2313SOL    HW2 9282   2.890   1.388   3.812
 2313SOL    HW3 9283   2.804   1.265   3.829
 2313SOL    MW4 9284   2.874   1.304   3.795
 2314SOL     OW 9285   2.866   1.548   3.875
 2314SOL    HW2 9286   2.883   1.559   3.968
 2314SOL    HW3 9287   2.938   1.595   3.832
 2314SOL    MW4 9288   2.878   1.556   3.882
 2315SOL     OW 9289   2.652   1.668   3.753
 2315SOL    HW2 9290   2.734   1.623   3.774
 2315SOL    HW3 9291   2.664   1.697   3.662
 2315SOL    MW4 9292   2.665   1.666   3.744
 2316SOL     OW 9293   2.683   1.898   3.923
 2316SOL    HW2 9294   2.676   1.810   3.886
 2316SOL    HW3 9295   2.611   1.947   3.882
 2316SOL    MW4 9296   2.672   1.893   3.913
 2317SOL     OW 9297   2.913   2.002   3.773
 2317SOL    HW2 9298   2.933   2.086   3.814
 2317SOL    HW3 9299   2.844   1.965   3.829
 2317SOL    MW4 9300   2.906   2.008   3.786
 2318SOL     OW 9301   2.941   2.239   3.898
 2318SOL    HW2 9302   2.914   2.267   3.986
 2318SOL    HW3 9303   3.002   2.307   3.870
 2318SOL    MW4 9304   2.946   2.252   3.906
 2319SOL     OW 9305   2.755   2.435   3.785
 2319SOL    HW2 9306   2.752   2.516   3.836
 2319SOL    HW3 9307   2.822   2.382   3.827
 2319SOL    MW4 9308   2.763   2.439   3.797
 2320SOL     OW 9309   2.717   2.682   3.917
 2320SOL    HW2 9310   2.698   2.652   4.006
 2320SOL    HW3 9311   2.632   2.711   3.884
 2320SOL    MW4 9312   2.703   2.682   3.925
 2321SOL     OW 9313   2.938   2.831   3.765
 2321SOL    HW2 9314   2.949   2.921   3.796
 2321SOL    HW3 9315   2.868   2.795   3.821
 2321SOL    MW4 9316   2.930   2.838   3.777
 2322SOL     OW 9317   2.927   3.063   3.938
 2322SOL    HW2 9318   3.000   3.106   3.894
 2322SOL    HW3 9319   2.849   3.109   3.907
 2322SOL    MW4 9320   2.926   3.075   3.928
 2323SOL     OW 9321   2.728   3.193   3.795
 2323SOL    HW2 9322   2.711   3.282   3.827
 2323SOL    HW3 9323   2.649   3.144   3.816
 2323SOL    MW4 9324   2.715   3.199   3.802
 2324SOL     OW 9325   2.678   3.463   3.870
 2324SOL    HW2 9326   2.669   3.458   3.965
 2324SOL    HW3 9327   2.758   3.514   3.856
 2324SOL    MW4 9328   2.688   3.469   3.881
 2325SOL     OW 9329   2.896   3.612   3.810
 2325SOL    HW2 9330   2.960   3.547   3.837
 2325SOL    HW3 9331   2.893   3.606   3.715
 2325SOL    MW4 9332   2.904   3.603   3.801
 2326SOL     OW 9333   2.914   3.895   3.912
 2326SOL    HW2 9334   2.926   3.888   4.007
 2326SOL    HW3 9335   2.900   3.805   3.883
 2326SOL    MW4 9336   2.913   3.882   3.921
 2327SOL     OW 9337   2.709   4.055   3.800
 2327SOL    HW2 9338   2.686   4.128   3.858
 2327SOL    HW3 9339   2.786   4.015   3.841
 2327SOL    MW4 9340   2.716   4.059   3.813
 2328SOL     OW 9341   2.676   4.310   3.948
 2328SOL    HW2 9342   2.755   4.347   3.908
 2328SOL    HW3 9343   2.604   4.354   3.902
 2328SOL    MW4 9344   2.677   4.321   3.937
 2329SOL     OW 9345   2.901   4.386   3.826
 2329SOL    HW2 9346   2.990   4.357   3.846
 2329SOL    HW3 9347   2.899   4.477   3.853
 2329SOL    MW4 9348   2.913   4.394   3.832
 2330SOL     OW 9349   3.326   4.657   3.929
 2330SOL    HW2 9350   3.321   4.639   4.023
 2330SOL    HW3 9351   3.413   4.693   3.916
 2330SOL    MW4 9352   3.337   4.659   3.939
 2331SOL     OW 9353   3.107   0.107   3.831
 2331SOL    HW2 9354   3.175   0.053   3.871
 2331SOL    HW3 9355   3.132   0.110   3.738
 2331SOL    MW4 9356   3.120   0.100   3.824
 2332SOL     OW 9357   3.113   0.381   3.868
 2332SOL    HW2 9358   3.134   0.388   3.962
 2332SOL    HW3 9359   3.123   0.288   3.848
 2332SOL    MW4 9360   3.117   0.370   3.878
 2333SOL     OW 9361   3.376   0.499   3.798
 2333SOL    HW2 9362   3.440   0.447   3.846
 2333SOL    HW3 9363   3.292   0.458   3.817
 2333SOL    MW4 9364   3.373   0.487   3.807
 2334SOL     OW 9365   3.348   0.746   3.911
 2334SOL    HW2 9366   3.361   0.744   4.006
 2334SOL    HW3 9367   3.357   0.654   3.884
 2334SOL    MW4 9368   3.351   0.734   3.920
 2335SOL     OW 9369   3.115   0.883   3.809
 2335SOL    HW2 9370   3.200   0.845   3.833
 2335SOL    HW3 9371   3.123   0.901   3.715
 2335SOL    MW4 9372   3.127   0.880   3.799
 2336SOL     OW 9373   3.090   1.161   3.915
 2336SOL    HW2 9374   3.090   1.073   3.879
 2336SOL    HW3 9375   3.017   1.205   3.871
 2336SOL    MW4 9376   3.080   1.155   3.905
 2337SOL     OW 9377   3.329   1.273   3.841
 2337SOL    HW2 9378   3.243   1.232   3.853
 2337SOL    HW3 9379   3.324   1.312   3.753
 2337SOL    MW4 9380   3.317   1.273   3.831
 2338SOL     OW 9381   3.347   1.548   3.904
 2338SOL    HW2 9382   3.263   1.569   3.862
 2338SOL    HW3 9383   3.341   1.454   3.924
 2338SOL    MW4 9384   3.335   1.538   3.901
 2339SOL     OW 9385   3.103   1.648   3.760
 2339SOL    HW2 9386   3.122   1.732   3.801
 2339SOL    HW3 9387   3.121   1.661   3.667
 2339SOL    MW4 9388   3.108   1.661   3.753
 2340SOL     OW 9389   3.154   1.905   3.865
 2340SOL    HW2 9390   3.146   1.914   3.959
 2340SOL    HW3 9391   3.072   1.938   3.830
 2340SOL    MW4 9392   3.142   1.911   3.872
 2341SOL     OW 9393   3.404   2.011   3.785
 2341SOL    HW2 9394   3.313   1.985   3.798
 2341SOL    HW3 9395   3.417   2.005   3.690
 2341SOL    MW4 9396   3.394   2.007   3.774
 2342SOL     OW 9397   3.378   2.266   3.860
 2342SOL    HW2 9398   3.289   2.293   3.836
 2342SOL    HW3 9399   3.392   2.185   3.812
 2342SOL    MW4 9400   3.368   2.259   3.851
 2343SOL     OW 9401   3.130   2.408   3.795
 2343SOL    HW2 9402   3.147   2.490   3.842
 2343SOL    HW3 9403   3.162   2.424   3.706
 2343SOL    MW4 9404   3.137   2.421   3.790
 2344SOL     OW 9405   3.161   2.677   3.881
 2344SOL    HW2 9406   3.160   2.684   3.977
 2344SOL    HW3 9407   3.071   2.694   3.855
 2344SOL    MW4 9408   3.149   2.680   3.891
 2345SOL     OW 9409   3.372   2.814   3.770
 2345SOL    HW2 9410   3.290   2.774   3.797
 2345SOL    HW3 9411   3.358   2.839   3.679
 2345SOL    MW4 9412   3.359   2.812   3.762
 2346SOL     OW 9413   3.352   3.068   3.893
 2346SOL    HW2 9414   3.438   3.105   3.877
 2346SOL    HW3 9415   3.355   2.981   3.853
 2346SOL    MW4 9416   3.364   3.062   3.885
 2347SOL     OW 9417   3.111   3.193   3.765
 2347SOL    HW2 9418   3.198   3.161   3.790
 2347SOL    HW3 9419   3.114   3.198   3.670
 2347SOL    MW4 9420   3.123   3.189   3.756
 2348SOL     OW 9421   3.114   3.438   3.895
 2348SOL    HW2 9422   3.191   3.480   3.856
 2348SOL    HW3 9423   3.104   3.356   3.848
 2348SOL    MW4 9424   3.123   3.433   3.884
 2349SOL     OW 9425   3.333   3.613   3.812
 2349SOL    HW2 9426   3.318   3.703   3.842
 2349SOL    HW3 9427   3.342   3.621   3.717
 2349SOL    MW4 9428   3.332   3.626   3.803
 2350SOL     OW 9429   3.344   3.869   3.902
 2350SOL    HW2 9430   3.423   3.895   3.855
 2350SOL    HW3 9431   3.279   3.934   3.877
 2350SOL    MW4 9432   3.346   3.881   3.892
 2351SOL     OW 9433   3.112   4.012   3.775
 2351SOL    HW2 9434   3.117   4.093   3.825
 2351SOL    HW3 9435   3.046   3.960   3.822
 2351SOL    MW4 9436   3.104   4.016   3.788
 2352SOL     OW 9437   3.159   4.270   3.912
 2352SOL    HW2 9438   3.167   4.276   4.008
 2352SOL    HW3 9439   3.231   4.324   3.879
 2352SOL    MW4 9440   3.169   4.278   3.921
 2353SOL     OW 9441   3.372   4.415   3.803
 2353SOL    HW2 9442   3.450   4.379   3.845
 2353SOL    HW3 9443   3.359   4.500   3.845
 2353SOL    MW4 9444   3.381   4.421   3.814
 2354SOL     OW 9445   3.828   4.646   3.858
 2354SOL    HW2 9446   3.912   4.688   3.841
 2354SOL    HW3 9447   3.833   4.561   3.813
 2354SOL    MW4 9448   3.840   4.640   3.850
 2355SOL     OW 9449   3.566   0.056   3.808
 2355SOL    HW2 9450   3.653   0.038   3.843
 2355SOL    HW3 9451   3.582   0.092   3.721
 2355SOL    MW4 9452   3.580   0.058   3.801
 2356SOL     OW 9453   3.578   0.331   3.898
 2356SOL    HW2 9454   3.665   0.356   3.869
 2356SOL    HW3 9455   3.569   0.240   3.870
 2356SOL    MW4 9456   3.588   0.322   3.891
 2357SOL     OW 9457   3.806   0.451   3.818
 2357SOL    HW2 9458   3.886   0.418   3.857
 2357SOL    HW3 9459   3.796   0.539   3.853
 2357SOL    MW4 9460   3.815   0.458   3.828
 2358SOL     OW 9461   3.793   0.726   3.926
 2358SOL    HW2 9462   3.875   0.768   3.898
 2358SOL    HW3 9463   3.725   0.786   3.894
 2358SOL    MW4 9464   3.795   0.740   3.918
 2359SOL     OW 9465   3.582   0.852   3.800
 2359SOL    HW2 9466   3.577   0.937   3.844
 2359SOL    HW3 9467   3.501   0.808   3.825
 2359SOL    MW4 9468   3.571   0.858   3.809
 2360SOL     OW 9469   3.547   1.099   3.891
 2360SOL    HW2 9470   3.621   1.138   3.844
 2360SOL    HW3 9471   3.471   1.150   3.863
 2360SOL    MW4 9472   3.547   1.111   3.882
 2361SOL     OW 9473   3.778   1.188   3.783
 2361SOL    HW2 9474   3.855   1.150   3.825
 2361SOL    HW3 9475   3.781   1.281   3.808
 2361SOL    MW4 9476   3.789   1.195   3.792
 2362SOL     OW 9477   3.806   1.477   3.867
 2362SOL    HW2 9478   3.824   1.501   3.958
 2362SOL    HW3 9479   3.726   1.525   3.844
 2362SOL    MW4 9480   3.798   1.486   3.876
 2363SOL     OW 9481   3.598   1.633   3.800
 2363SOL    HW2 9482   3.513   1.613   3.839
 2363SOL    HW3 9483   3.579   1.652   3.708
 2363SOL    MW4 9484   3.585   1.633   3.793
 2364SOL     OW 9485   3.624   1.899   3.921
 2364SOL    HW2 9486   3.619   1.816   3.875
 2364SOL    HW3 9487   3.548   1.948   3.891
 2364SOL    MW4 9488   3.614   1.895   3.911
 2365SOL     OW 9489   3.818   2.051   3.770
 2365SOL    HW2 9490   3.896   1.999   3.791
 2365SOL    HW3 9491   3.746   2.002   3.810
 2365SOL    MW4 9492   3.819   2.037   3.778
 2366SOL     OW 9493   3.815   2.274   3.933
 2366SOL    HW2 9494   3.733   2.306   3.897
 2366SOL    HW3 9495   3.820   2.182   3.905
 2366SOL    MW4 9496   3.805   2.266   3.925
 2367SOL     OW 9497   3.597   2.419   3.821
 2367SOL    HW2 9498   3.516   2.368   3.824
 2367SOL    HW3 9499   3.615   2.430   3.728
 2367SOL    MW4 9500   3.589   2.413   3.809
 2368SOL     OW 9501   3.603   2.692   3.894
 2368SOL    HW2 9502   3.609   2.598   3.878
 2368SOL    HW3 9503   3.528   2.720   3.842
 2368SOL    MW4 9504   3.594   2.683   3.885
 2369SOL     OW 9505   3.812   2.809   3.742
 2369SOL    HW2 9506   3.896   2.778   3.776
 2369SOL    HW3 9507   3.747   2.774   3.802
 2369SOL    MW4 9508   3.815   2.800   3.754
 2370SOL     OW 9509   3.844   3.064   3.840
 2370SOL    HW2 9510   3.758   3.105   3.828
 2370SOL    HW3 9511   3.835   2.978   3.800
 2370SOL    MW4 9512   3.832   3.058   3.833
 2371SOL     OW 9513   3.587   3.179   3.790
 2371SOL    HW2 9514   3.575   3.267   3.826
 2371SOL    HW3 9515   3.581   3.191   3.695
 2371SOL    MW4 9516   3.585   3.192   3.782
 2372SOL     OW 9517   3.553   3.446   3.888
 2372SOL    HW2 9518   3.569   3.477   3.977
 2372SOL    HW3 9519   3.493   3.510   3.850
 2372SOL    MW4 9520   3.547   3.458   3.895
 2373SOL     OW 9521   3.783   3.538   3.792
 2373SOL    HW2 9522   3.781   3.630   3.820
 2373SOL    HW3 9523   3.698   3.503   3.819
 2373SOL    MW4 9524   3.771   3.546   3.799
 2374SOL     OW 9525   3.804   3.804   3.892
 2374SOL    HW2 9526   3.807   3.796   3.987
 2374SOL    HW3 9527   3.872   3.869   3.872
 2374SOL    MW4 9528   3.813   3.812   3.902
 2375SOL     OW 9529   3.585   3.967   3.777
 2375SOL    HW2 9530   3.577   4.062   3.789
 2375SOL    HW3 9531   3.657   3.941   3.835
 2375SOL    MW4 9532   3.593   3.976   3.786
 2376SOL     OW 9533   3.587   4.251   3.881
 2376SOL    HW2 9534   3.605   4.248   3.975
 2376SOL    HW3 9535   3.664   4.294   3.843
 2376SOL    MW4 9536   3.600   4.256   3.888
 2377SOL     OW 9537   3.804   4.372   3.770
 2377SOL    HW2 9538   3.880   4.323   3.802
 2377SOL    HW3 9539   3.802   4.354   3.676
 2377SOL    MW4 9540   3.813   4.363   3.762
 2378SOL     OW 9541   4.294   4.628   3.866
 2378SOL    HW2 9542   4.290   4.643   3.961
 2378SOL    HW3 9543   4.372   4.676   3.838
 2378SOL    MW4 9544   4.304   4.636   3.875
 2379SOL     OW 9545   4.058   0.096   3.781
 2379SOL    HW2 9546   4.138   0.052   3.807
 2379SOL    HW3 9547   4.067   0.109   3.687
 2379SOL    MW4 9548   4.070   0.092   3.772
 2380SOL     OW 9549   4.056   0.366   3.905
 2380SOL    HW2 9550   4.038   0.359   3.999
 2380SOL    HW3 9551   4.071   0.276   3.877
 2380SOL    MW4 9552   4.056   0.353   3.914
 2381SOL     OW 9553   4.287   0.509   3.810
 2381SOL    HW2 9554   4.210   0.456   3.831
 2381SOL    HW3 9555   4.295   0.504   3.715
 2381SOL    MW4 9556   4.278   0.502   3.801
 2382SOL     OW 9557   4.252   0.744   3.955
 2382SOL    HW2 9558   4.157   0.760   3.956
 2382SOL    HW3 9559   4.261   0.659   3.911
 2382SOL    MW4 9560   4.241   0.735   3.949
 2383SOL     OW 9561   4.016   0.859   3.803
 2383SOL    HW2 9562   4.011   0.953   3.816
 2383SOL    HW3 9563   4.030   0.848   3.709
 2383SOL    MW4 9564   4.017   0.870   3.792
 2384SOL     OW 9565   4.003   1.114   3.916
 2384SOL    HW2 9566   3.995   1.123   4.011
 2384SOL    HW3 9567   4.088   1.155   3.895
 2384SOL    MW4 9568   4.013   1.121   3.926
 2385SOL     OW 9569   4.214   1.247   3.802
 2385SOL    HW2 9570   4.216   1.339   3.825
 2385SOL    HW3 9571   4.211   1.246   3.706
 2385SOL    MW4 9572   4.214   1.259   3.792
 2386SOL     OW 9573   4.241   1.508   3.876
 2386SOL    HW2 9574   4.172   1.554   3.828
 2386SOL    HW3 9575   4.322   1.547   3.843
 2386SOL    MW4 9576   4.242   1.520   3.865
 2387SOL     OW 9577   4.017   1.628   3.773
 2387SOL    HW2 9578   4.013   1.719   3.804
 2387SOL    HW3 9579   3.928   1.594   3.789
 2387SOL    MW4 9580   4.004   1.635   3.779
 2388SOL     OW 9581   4.014   1.899   3.865
 2388SOL    HW2 9582   4.014   1.920   3.958
 2388SOL    HW3 9583   4.091   1.945   3.830
 2388SOL    MW4 9584   4.024   1.908   3.872
 2389SOL     OW 9585   4.245   2.027   3.787
 2389SOL    HW2 9586   4.244   2.121   3.807
 2389SOL    HW3 9587   4.247   2.023   3.691
 2389SOL    MW4 9588   4.245   2.039   3.777
 2390SOL     OW 9589   4.219   2.291   3.821
 2390SOL    HW2 9590   4.222   2.285   3.916
 2390SOL    HW3 9591   4.139   2.341   3.803
 2390SOL    MW4 9592   4.209   2.297   3.831
 2391SOL     OW 9593   3.975   2.435   3.761
 2391SOL    HW2 9594   3.978   2.516   3.813
 2391SOL    HW3 9595   3.916   2.377   3.810
 2391SOL    MW4 9596   3.967   2.438   3.774
 2392SOL     OW 9597   4.043   2.682   3.876
 2392SOL    HW2 9598   4.040   2.719   3.964
 2392SOL    HW3 9599   4.131   2.701   3.844
 2392SOL    MW4 9600   4.054   2.689   3.883
 2393SOL     OW 9601   4.266   2.792   3.761
 2393SOL    HW2 9602   4.262   2.874   3.811
 2393SOL    HW3 9603   4.323   2.735   3.813
 2393SOL    MW4 9604   4.273   2.795   3.775
 2394SOL     OW 9605   4.284   3.058   3.893
 2394SOL    HW2 9606   4.214   3.118   3.868
 2394SOL    HW3 9607   4.365   3.107   3.874
 2394SOL    MW4 9608   4.286   3.073   3.887
 2395SOL     OW 9609   4.070   3.236   3.803
 2395SOL    HW2 9610   3.992   3.189   3.831
 2395SOL    HW3 9611   4.067   3.233   3.707
 2395SOL    MW4 9612   4.059   3.230   3.794
 2396SOL     OW 9613   4.045   3.484   3.928
 2396SOL    HW2 9614   4.054   3.398   3.887
 2396SOL    HW3 9615   3.972   3.525   3.882
 2396SOL    MW4 9616   4.037   3.478   3.916
 2397SOL     OW 9617   4.259   3.589   3.793
 2397SOL    HW2 9618   4.176   3.558   3.830
 2397SOL    HW3 9619   4.326   3.542   3.842
 2397SOL    MW4 9620   4.257   3.578   3.804
 2398SOL     OW 9621   4.247   3.860   3.924
 2398SOL    HW2 9622   4.185   3.918   3.880
 2398SOL    HW3 9623   4.232   3.774   3.884
 2398SOL    MW4 9624   4.237   3.856   3.913
 2399SOL     OW 9625   4.014   3.987   3.803
 2399SOL    HW2 9626   4.004   4.080   3.826
 2399SOL    HW3 9627   4.016   3.987   3.707
 2399SOL    MW4 9628   4.013   3.999   3.793
 2400SOL     OW 9629   4.016   4.247   3.889
 2400SOL    HW2 9630   4.027   4.238   3.984
 2400SOL    HW3 9631   4.097   4.290   3.860
 2400SOL    MW4 9632   4.028   4.252   3.898
 2401SOL     OW 9633   4.242   4.362   3.756
 2401SOL    HW2 9634   4.270   4.447   3.791
 2401SOL    HW3 9635   4.297   4.298   3.802
 2401SOL    MW4 9636   4.253   4.365   3.767
 2402SOL     OW 9637   0.206   4.610   4.178
 2402SOL    HW2 9638   0.295   4.642   4.190
 2402SOL    HW3 9639   0.204   4.525   4.223
 2402SOL    MW4 9640   0.217   4.603   4.186
 2403SOL     OW 9641   4.456   0.081   4.266
 2403SOL    HW2 9642   4.427   0.073   4.357
 2403SOL    HW3 9643   4.545   0.043   4.265
 2403SOL    MW4 9644   4.464   0.075   4.278
 2404SOL     OW 9645   4.471   0.325   4.157
 2404SOL    HW2 9646   4.484   0.233   4.180
 2404SOL    HW3 9647   4.468   0.325   4.062
 2404SOL    MW4 9648   4.472   0.313   4.148
 2405SOL     OW 9649   0.205   0.479   4.230
 2405SOL    HW2 9650   0.273   0.429   4.184
 2405SOL    HW3 9651   0.126   0.426   4.218
 2405SOL    MW4 9652   0.204   0.465   4.222
 2406SOL     OW 9653   0.202   0.742   4.153
 2406SOL    HW2 9654   0.149   0.808   4.196
 2406SOL    HW3 9655   0.191   0.663   4.205
 2406SOL    MW4 9656   0.194   0.740   4.165
 2407SOL     OW 9657   0.010   0.892   4.288
 2407SOL    HW2 9658  -0.052   0.821   4.267
 2407SOL    HW3 9659  -0.028   0.969   4.246
 2407SOL    MW4 9660  -0.003   0.893   4.280
 2408SOL     OW 9661   4.446   1.129   4.151
 2408SOL    HW2 9662   4.530   1.175   4.161
 2408SOL    HW3 9663   4.435   1.121   4.056
 2408SOL    MW4 9664   4.456   1.134   4.140
 2409SOL     OW 9665   0.189   1.258   4.174
 2409SOL    HW2 9666   0.181   1.286   4.265
 2409SOL    HW3 9667   0.272   1.210   4.172
 2409SOL    MW4 9668   0.199   1.255   4.186
 2410SOL     OW 9669   0.020   1.770   4.469
 2410SOL    HW2 9670   0.050   1.740   4.383
 2410SOL    HW3 9671  -0.033   1.848   4.450
 2410SOL    MW4 9672   0.017   1.776   4.455
 2411SOL     OW 9673   0.008   1.662   4.191
 2411SOL    HW2 9674  -0.085   1.639   4.181
 2411SOL    HW3 9675   0.012   1.755   4.165
 2411SOL    MW4 9676  -0.004   1.671   4.186
 2412SOL     OW 9677   0.236   2.069   4.278
 2412SOL    HW2 9678   0.230   2.104   4.368
 2412SOL    HW3 9679   0.315   2.016   4.278
 2412SOL    MW4 9680   0.245   2.067   4.290
 2413SOL     OW 9681   0.732   1.716   4.682
 2413SOL    HW2 9682   0.660   1.770   4.713
 2413SOL    HW3 9683   0.811   1.764   4.710
 2413SOL    MW4 9684   0.733   1.730   4.690
 2414SOL     OW 9685   0.244   2.311   4.156
 2414SOL    HW2 9686   0.309   2.358   4.208
 2414SOL    HW3 9687   0.252   2.220   4.184
 2414SOL    MW4 9688   0.254   2.305   4.166
 2415SOL     OW 9689   4.480   2.400   4.234
 2415SOL    HW2 9690   4.418   2.345   4.185
 2415SOL    HW3 9691   4.566   2.365   4.211
 2415SOL    MW4 9692   4.483   2.388   4.224
 2416SOL     OW 9693   4.476   2.676   4.192
 2416SOL    HW2 9694   4.559   2.698   4.234
 2416SOL    HW3 9695   4.467   2.581   4.205
 2416SOL    MW4 9696   4.485   2.666   4.200
 2417SOL     OW 9697   0.217   2.781   4.272
 2417SOL    HW2 9698   0.293   2.727   4.249
 2417SOL    HW3 9699   0.222   2.857   4.215
 2417SOL    MW4 9700   0.227   2.784   4.262
 2418SOL     OW 9701   0.235   3.030   4.160
 2418SOL    HW2 9702   0.313   3.074   4.193
 2418SOL    HW3 9703   0.162   3.082   4.193
 2418SOL    MW4 9704   0.235   3.043   4.168
 2419SOL     OW 9705   0.038   3.207   4.264
 2419SOL    HW2 9706  -0.037   3.186   4.209
 2419SOL    HW3 9707   0.049   3.302   4.254
 2419SOL    MW4 9708   0.030   3.217   4.256
 2420SOL     OW 9709   0.027   3.477   4.198
 2420SOL    HW2 9710  -0.059   3.507   4.230
 2420SOL    HW3 9711   0.016   3.471   4.103
 2420SOL    MW4 9712   0.014   3.481   4.190
 2421SOL     OW 9713   0.250   3.600   4.332
 2421SOL    HW2 9714   0.320   3.549   4.290
 2421SOL    HW3 9715   0.169   3.564   4.297
 2421SOL    MW4 9716   0.249   3.589   4.322
 2422SOL     OW 9717   0.226   3.860   4.221
 2422SOL    HW2 9718   0.147   3.901   4.255
 2422SOL    HW3 9719   0.234   3.778   4.269
 2422SOL    MW4 9720   0.217   3.855   4.232
 2423SOL     OW 9721   4.458   3.955   4.306
 2423SOL    HW2 9722   4.453   3.953   4.402
 2423SOL    HW3 9723   4.382   3.904   4.277
 2423SOL    MW4 9724   4.448   3.948   4.315
 2424SOL     OW 9725   4.484   4.177   4.160
 2424SOL    HW2 9726   4.476   4.097   4.211
 2424SOL    HW3 9727   4.494   4.148   4.070
 2424SOL    MW4 9728   4.484   4.163   4.155
 2425SOL     OW 9729   0.188   4.346   4.288
 2425SOL    HW2 9730   0.161   4.337   4.379
 2425SOL    HW3 9731   0.124   4.293   4.239
 2425SOL    MW4 9732   0.176   4.338   4.294
 2426SOL     OW 9733   0.718   4.612   4.193
 2426SOL    HW2 9734   0.637   4.661   4.212
 2426SOL    HW3 9735   0.713   4.593   4.099
 2426SOL    MW4 9736   0.706   4.616   4.183
 2427SOL     OW 9737   0.443   0.059   4.257
 2427SOL    HW2 9738   0.424   0.066   4.351
 2427SOL    HW3 9739   0.451   0.150   4.228
 2427SOL    MW4 9740   0.441   0.072   4.266
 2428SOL     OW 9741   0.427   0.317   4.174
 2428SOL    HW2 9742   0.464   0.398   4.210
 2428SOL    HW3 9743   0.455   0.318   4.083
 2428SOL    MW4 9744   0.436   0.328   4.167
 2429SOL     OW 9745   0.765   0.511   4.340
 2429SOL    HW2 9746   0.797   0.457   4.268
 2429SOL    HW3 9747   0.731   0.590   4.297
 2429SOL    MW4 9748   0.765   0.514   4.324
 2430SOL     OW 9749   0.675   0.723   4.164
 2430SOL    HW2 9750   0.594   0.767   4.189
 2430SOL    HW3 9751   0.671   0.716   4.069
 2430SOL    MW4 9752   0.664   0.728   4.155
 2431SOL     OW 9753   0.449   0.855   4.238
 2431SOL    HW2 9754   0.430   0.943   4.205
 2431SOL    HW3 9755   0.371   0.804   4.214
 2431SOL    MW4 9756   0.436   0.860   4.230
 2432SOL     OW 9757   0.420   1.112   4.126
 2432SOL    HW2 9758   0.496   1.159   4.160
 2432SOL    HW3 9759   0.426   1.122   4.031
 2432SOL    MW4 9760   0.431   1.120   4.118
 2433SOL     OW 9761   0.644   1.254   4.204
 2433SOL    HW2 9762   0.662   1.235   4.296
 2433SOL    HW3 9763   0.635   1.350   4.201
 2433SOL    MW4 9764   0.645   1.264   4.216
 2434SOL     OW 9765   0.673   1.530   4.136
 2434SOL    HW2 9766   0.750   1.571   4.176
 2434SOL    HW3 9767   0.681   1.550   4.043
 2434SOL    MW4 9768   0.684   1.538   4.129
 2435SOL     OW 9769   0.257   1.538   4.137
 2435SOL    HW2 9770   0.222   1.450   4.149
 2435SOL    HW3 9771   0.188   1.596   4.170
 2435SOL    MW4 9772   0.243   1.534   4.143
 2436SOL     OW 9773   0.452   1.877   4.208
 2436SOL    HW2 9774   0.456   1.789   4.245
 2436SOL    HW3 9775   0.460   1.865   4.114
 2436SOL    MW4 9776   0.454   1.864   4.201
 2437SOL     OW 9777   0.709   1.996   4.260
 2437SOL    HW2 9778   0.725   2.028   4.349
 2437SOL    HW3 9779   0.621   1.957   4.265
 2437SOL    MW4 9780   0.699   1.995   4.273
 2438SOL     OW 9781   0.696   2.254   4.156
 2438SOL    HW2 9782   0.712   2.161   4.173
 2438SOL    HW3 9783   0.687   2.259   4.061
 2438SOL    MW4 9784   0.697   2.242   4.146
 2439SOL     OW 9785   0.477   2.399   4.301
 2439SOL    HW2 9786   0.479   2.495   4.299
 2439SOL    HW3 9787   0.560   2.372   4.263
 2439SOL    MW4 9788   0.488   2.408   4.296
 2440SOL     OW 9789   0.450   2.659   4.177
 2440SOL    HW2 9790   0.505   2.731   4.207
 2440SOL    HW3 9791   0.456   2.662   4.081
 2440SOL    MW4 9792   0.458   2.669   4.168
 2441SOL     OW 9793   0.652   2.824   4.272
 2441SOL    HW2 9794   0.702   2.824   4.354
 2441SOL    HW3 9795   0.671   2.909   4.233
 2441SOL    MW4 9796   0.661   2.835   4.278
 2442SOL     OW 9797   0.666   3.087   4.110
 2442SOL    HW2 9798   0.740   3.132   4.150
 2442SOL    HW3 9799   0.592   3.109   4.166
 2442SOL    MW4 9800   0.666   3.095   4.123
 2443SOL     OW 9801   0.456   3.171   4.257
 2443SOL    HW2 9802   0.431   3.167   4.350
 2443SOL    HW3 9803   0.436   3.260   4.231
 2443SOL    MW4 9804   0.450   3.182   4.266
 2444SOL     OW 9805   0.423   3.452   4.189
 2444SOL    HW2 9806   0.512   3.482   4.207
 2444SOL    HW3 9807   0.407   3.479   4.098
 2444SOL    MW4 9808   0.433   3.459   4.179
 2445SOL     OW 9809   0.675   3.581   4.232
 2445SOL    HW2 9810   0.675   3.544   4.320
 2445SOL    HW3 9811   0.740   3.530   4.184
 2445SOL    MW4 9812   0.684   3.569   4.237
 2446SOL     OW 9813   0.713   3.845   4.153
 2446SOL    HW2 9814   0.643   3.902   4.185
 2446SOL    HW3 9815   0.701   3.763   4.201
 2446SOL    MW4 9816   0.702   3.842   4.163
 2447SOL     OW 9817   0.504   3.989   4.235
 2447SOL    HW2 9818   0.476   4.072   4.196
 2447SOL    HW3 9819   0.427   3.932   4.230
 2447SOL    MW4 9820   0.490   3.992   4.229
 2448SOL     OW 9821   0.420   4.259   4.143
 2448SOL    HW2 9822   0.344   4.306   4.176
 2448SOL    HW3 9823   0.399   4.240   4.052
 2448SOL    MW4 9824   0.407   4.263   4.136
 2449SOL     OW 9825   0.678   4.325   4.237
 2449SOL    HW2 9826   0.593   4.316   4.195
 2449SOL    HW3 9827   0.693   4.420   4.241
 2449SOL    MW4 9828   0.669   4.337   4.232
 2450SOL     OW 9829   1.165   4.598   4.207
 2450SOL    HW2 9830   1.140   4.516   4.250
 2450SOL    HW3 9831   1.138   4.586   4.116
 2450SOL    MW4 9832   1.158   4.586   4.201
 2451SOL     OW 9833   0.927   0.098   4.248
 2451SOL    HW2 9834   1.011   0.053   4.239
 2451SOL    HW3 9835   0.862   0.030   4.231
 2451SOL    MW4 9836   0.930   0.083   4.244
 2452SOL     OW 9837   0.907   0.355   4.156
 2452SOL    HW2 9838   0.980   0.398   4.201
 2452SOL    HW3 9839   0.907   0.266   4.191
 2452SOL    MW4 9840   0.916   0.349   4.167
 2453SOL     OW 9841   1.116   0.502   4.254
 2453SOL    HW2 9842   1.140   0.516   4.345
 2453SOL    HW3 9843   1.184   0.445   4.219
 2453SOL    MW4 9844   1.128   0.497   4.261
 2454SOL     OW 9845   1.093   0.763   4.145
 2454SOL    HW2 9846   1.173   0.794   4.187
 2454SOL    HW3 9847   1.076   0.678   4.184
 2454SOL    MW4 9848   1.101   0.756   4.156
 2455SOL     OW 9849   0.869   0.908   4.240
 2455SOL    HW2 9850   0.957   0.881   4.211
 2455SOL    HW3 9851   0.811   0.838   4.209
 2455SOL    MW4 9852   0.873   0.895   4.232
 2456SOL     OW 9853   0.885   1.157   4.104
 2456SOL    HW2 9854   0.882   1.075   4.153
 2456SOL    HW3 9855   0.808   1.206   4.133
 2456SOL    MW4 9856   0.875   1.153   4.115
 2457SOL     OW 9857   1.121   1.253   4.203
 2457SOL    HW2 9858   1.110   1.285   4.292
 2457SOL    HW3 9859   1.038   1.211   4.181
 2457SOL    MW4 9860   1.109   1.252   4.212
 2458SOL     OW 9861   1.155   1.517   4.150
 2458SOL    HW2 9862   1.071   1.558   4.170
 2458SOL    HW3 9863   1.142   1.424   4.172
 2458SOL    MW4 9864   1.142   1.510   4.155
 2459SOL     OW 9865   0.907   1.641   4.238
 2459SOL    HW2 9866   0.919   1.631   4.332
 2459SOL    HW3 9867   0.938   1.729   4.218
 2459SOL    MW4 9868   0.912   1.651   4.247
 2460SOL     OW 9869   0.949   1.921   4.153
 2460SOL    HW2 9870   0.864   1.945   4.190
 2460SOL    HW3 9871   0.933   1.913   4.059
 2460SOL    MW4 9872   0.936   1.923   4.145
 2461SOL     OW 9873   1.182   2.052   4.223
 2461SOL    HW2 9874   1.179   2.044   4.318
 2461SOL    HW3 9875   1.098   2.017   4.193
 2461SOL    MW4 9876   1.170   2.046   4.231
 2462SOL     OW 9877   1.148   2.319   4.136
 2462SOL    HW2 9878   1.208   2.378   4.181
 2462SOL    HW3 9879   1.175   2.231   4.164
 2462SOL    MW4 9880   1.160   2.315   4.146
 2463SOL     OW 9881   0.898   2.427   4.266
 2463SOL    HW2 9882   0.986   2.402   4.237
 2463SOL    HW3 9883   0.840   2.365   4.223
 2463SOL    MW4 9884   0.902   2.415   4.257
 2464SOL     OW 9885   0.892   2.687   4.144
 2464SOL    HW2 9886   0.906   2.598   4.175
 2464SOL    HW3 9887   0.810   2.715   4.185
 2464SOL    MW4 9888   0.883   2.679   4.153
 2465SOL     OW 9889   1.127   2.810   4.213
 2465SOL    HW2 9890   1.129   2.898   4.173
 2465SOL    HW3 9891   1.036   2.782   4.204
 2465SOL    MW4 9892   1.116   2.818   4.206
 2466SOL     OW 9893   1.112   3.071   4.132
 2466SOL    HW2 9894   1.192   3.100   4.176
 2466SOL    HW3 9895   1.125   3.096   4.040
 2466SOL    MW4 9896   1.125   3.078   4.125
 2467SOL     OW 9897   0.890   3.199   4.240
 2467SOL    HW2 9898   0.882   3.199   4.335
 2467SOL    HW3 9899   0.980   3.172   4.222
 2467SOL    MW4 9900   0.901   3.196   4.250
 2468SOL     OW 9901   0.894   3.465   4.131
 2468SOL    HW2 9902   0.895   3.377   4.169
 2468SOL    HW3 9903   0.912   3.451   4.038
 2468SOL    MW4 9904   0.896   3.451   4.124
 2469SOL     OW 9905   1.130   3.625   4.158
 2469SOL    HW2 9906   1.119   3.716   4.130
 2469SOL    HW3 9907   1.043   3.586   4.147
 2469SOL    MW4 9908   1.117   3.632   4.153
 2470SOL     OW 9909   1.087   3.890   4.081
 2470SOL    HW2 9910   1.169   3.923   4.118
 2470SOL    HW3 9911   1.019   3.925   4.139
 2470SOL    MW4 9912   1.089   3.899   4.094
 2471SOL     OW 9913   0.922   4.007   4.245
 2471SOL    HW2 9914   0.915   4.085   4.190
 2471SOL    HW3 9915   0.843   3.956   4.224
 2471SOL    MW4 9916   0.910   4.010   4.235
 2472SOL     OW 9917   0.902   4.247   4.114
 2472SOL    HW2 9918   0.974   4.283   4.166
 2472SOL    HW3 9919   0.824   4.258   4.169
 2472SOL    MW4 9920   0.901   4.253   4.128
 2473SOL     OW 9921   1.105   4.352   4.290
 2473SOL    HW2 9922   1.098   4.340   4.384
 2473SOL    HW3 9923   1.187   4.311   4.265
 2473SOL    MW4 9924   1.115   4.345   4.299
 2474SOL     OW 9925   1.534   0.020   4.100
 2474SOL    HW2 9926   1.611   0.045   4.151
 2474SOL    HW3 9927   1.459   0.045   4.154
 2474SOL    MW4 9928   1.534   0.027   4.113
 2475SOL     OW 9929   1.311   0.139   4.301
 2475SOL    HW2 9930   1.273   0.147   4.389
 2475SOL    HW3 9931   1.257   0.073   4.258
 2475SOL    MW4 9932   1.299   0.131   4.307
 2476SOL     OW 9933   1.312   0.360   4.144
 2476SOL    HW2 9934   1.399   0.393   4.168
 2476SOL    HW3 9935   1.305   0.276   4.191
 2476SOL    MW4 9936   1.323   0.353   4.153
 2477SOL     OW 9937   1.551   0.488   4.236
 2477SOL    HW2 9938   1.530   0.495   4.329
 2477SOL    HW3 9939   1.546   0.578   4.204
 2477SOL    MW4 9940   1.548   0.501   4.244
 2478SOL     OW 9941   1.575   0.749   4.119
 2478SOL    HW2 9942   1.649   0.792   4.161
 2478SOL    HW3 9943   1.588   0.765   4.025
 2478SOL    MW4 9944   1.586   0.757   4.112
 2479SOL     OW 9945   1.346   0.866   4.216
 2479SOL    HW2 9946   1.344   0.958   4.190
 2479SOL    HW3 9947   1.416   0.828   4.164
 2479SOL    MW4 9948   1.355   0.873   4.206
 2480SOL     OW 9949   1.341   1.112   4.097
 2480SOL    HW2 9950   1.264   1.161   4.127
 2480SOL    HW3 9951   1.339   1.121   4.002
 2480SOL    MW4 9952   1.330   1.120   4.088
 2481SOL     OW 9953   1.546   1.266   4.196
 2481SOL    HW2 9954   1.519   1.258   4.288
 2481SOL    HW3 9955   1.487   1.209   4.148
 2481SOL    MW4 9956   1.535   1.258   4.202
 2482SOL     OW 9957   1.631   1.537   4.178
 2482SOL    HW2 9958   1.548   1.569   4.213
 2482SOL    HW3 9959   1.613   1.446   4.154
 2482SOL    MW4 9960   1.618   1.529   4.180
 2483SOL     OW 9961   1.377   1.637   4.256
 2483SOL    HW2 9962   1.386   1.719   4.207
 2483SOL    HW3 9963   1.297   1.597   4.222
 2483SOL    MW4 9964   1.368   1.643   4.245
 2484SOL     OW 9965   1.395   1.893   4.106
 2484SOL    HW2 9966   1.472   1.942   4.134
 2484SOL    HW3 9967   1.323   1.934   4.154
 2484SOL    MW4 9968   1.395   1.905   4.116
 2485SOL     OW 9969   1.606   2.009   4.233
 2485SOL    HW2 9970   1.592   1.997   4.327
 2485SOL    HW3 9971   1.579   2.099   4.216
 2485SOL    MW4 9972   1.600   2.019   4.243
 2486SOL     OW 9973   1.494   2.258   4.180
 2486SOL    HW2 9974   1.561   2.301   4.233
 2486SOL    HW3 9975   1.519   2.276   4.090
 2486SOL    MW4 9976   1.506   2.266   4.175
 2487SOL     OW 9977   1.506   2.837   4.404
 2487SOL    HW2 9978   1.475   2.920   4.441
 2487SOL    HW3 9979   1.600   2.838   4.418
 2487SOL    MW4 9980   1.514   2.848   4.411
 2488SOL     OW 9981   1.385   2.697   4.169
 2488SOL    HW2 9982   1.427   2.722   4.251
 2488SOL    HW3 9983   1.293   2.720   4.181
 2488SOL    MW4 9984   1.378   2.704   4.181
 2489SOL     OW 9985   1.525   2.676   4.622
 2489SOL    HW2 9986   1.620   2.662   4.627
 2489SOL    HW3 9987   1.512   2.723   4.540
 2489SOL    MW4 9988   1.536   2.680   4.612
 2490SOL     OW 9989   1.598   3.095   4.182
 2490SOL    HW2 9990   1.654   3.141   4.244
 2490SOL    HW3 9991   1.635   3.008   4.175
 2490SOL    MW4 9992   1.610   3.090   4.189
 2491SOL     OW 9993   1.330   3.176   4.225
 2491SOL    HW2 9994   1.420   3.146   4.219
 2491SOL    HW3 9995   1.332   3.266   4.192
 2491SOL    MW4 9996   1.342   3.184   4.220
 2492SOL     OW 9997   1.336   3.437   4.152
 2492SOL    HW2 9998   1.256   3.490   4.146
 2492SOL    HW3 9999   1.368   3.432   4.062
 2492SOL    MW410000   1.330   3.443   4.139
 2493SOL     OW10001   1.511   3.602   4.309
 2493SOL    HW210002   1.525   3.568   4.398
 2493SOL    HW310003   1.465   3.531   4.264
 2493SOL    MW410004   1.507   3.588   4.315
 2494SOL     OW10005   1.566   3.880   4.201
 2494SOL    HW210006   1.489   3.936   4.207
 2494SOL    HW310007   1.535   3.793   4.227
 2494SOL    MW410008   1.552   3.876   4.205
 2495SOL     OW10009   1.305   3.985   4.216
 2495SOL    HW210010   1.314   3.942   4.301
 2495SOL    HW310011   1.315   4.078   4.234
 2495SOL    MW410012   1.307   3.991   4.229
 2496SOL     OW10013   1.348   4.273   4.194
 2496SOL    HW210014   1.418   4.336   4.215
 2496SOL    HW310015   1.349   4.268   4.098
 2496SOL    MW410016   1.358   4.281   4.184
 2497SOL     OW10017   1.513   4.463   4.300
 2497SOL    HW210018   1.524   4.537   4.240
 2497SOL    HW310019   1.594   4.413   4.291
 2497SOL    MW410020   1.526   4.466   4.291
 2498SOL     OW10021   2.000   4.620   4.218
 2498SOL    HW210022   1.924   4.650   4.269
 2498SOL    HW310023   1.971   4.623   4.127
 2498SOL    MW410024   1.986   4.625   4.213
 2499SOL     OW10025   1.777   0.096   4.253
 2499SOL    HW210026   1.732   0.115   4.335
 2499SOL    HW310027   1.797   0.183   4.217
 2499SOL    MW410028   1.774   0.110   4.259
 2500SOL     OW10029   1.767   0.368   4.127
 2500SOL    HW210030   1.835   0.422   4.167
 2500SOL    HW310031   1.685   0.408   4.155
 2500SOL    MW410032   1.765   0.380   4.136
 2501SOL     OW10033   1.973   0.485   4.249
 2501SOL    HW210034   1.953   0.481   4.342
 2501SOL    HW310035   2.065   0.460   4.243
 2501SOL    MW410036   1.982   0.481   4.260
 2502SOL     OW10037   2.020   0.752   4.173
 2502SOL    HW210038   2.095   0.805   4.200
 2502SOL    HW310039   2.028   0.671   4.224
 2502SOL    MW410040   2.031   0.748   4.183
 2503SOL     OW10041   1.776   0.891   4.245
 2503SOL    HW210042   1.779   0.981   4.213
 2503SOL    HW310043   1.862   0.855   4.225
 2503SOL    MW410044   1.787   0.898   4.238
 2504SOL     OW10045   1.800   1.137   4.131
 2504SOL    HW210046   1.871   1.189   4.169
 2504SOL    HW310047   1.720   1.181   4.161
 2504SOL    MW410048   1.799   1.150   4.140
 2505SOL     OW10049   2.020   1.242   4.231
 2505SOL    HW210050   2.097   1.198   4.195
 2505SOL    HW310051   2.033   1.334   4.209
 2505SOL    MW410052   2.032   1.248   4.223
 2506SOL     OW10053   2.080   1.504   4.170
 2506SOL    HW210054   2.133   1.575   4.207
 2506SOL    HW310055   2.083   1.518   4.076
 2506SOL    MW410056   2.087   1.515   4.163
 2507SOL     OW10057   1.857   1.644   4.277
 2507SOL    HW210058   1.919   1.585   4.235
 2507SOL    HW310059   1.771   1.618   4.243
 2507SOL    MW410060   1.854   1.633   4.267
 2508SOL     OW10061   1.843   1.915   4.139
 2508SOL    HW210062   1.864   1.849   4.206
 2508SOL    HW310063   1.752   1.939   4.157
 2508SOL    MW410064   1.834   1.909   4.150
 2509SOL     OW10065   1.679   2.358   4.346
 2509SOL    HW210066   1.741   2.430   4.335
 2509SOL    HW310067   1.721   2.301   4.410
 2509SOL    MW410068   1.693   2.360   4.353
 2510SOL     OW10069   2.093   2.349   4.147
 2510SOL    HW210070   2.073   2.261   4.179
 2510SOL    HW310071   2.089   2.341   4.051
 2510SOL    MW410072   2.090   2.336   4.138
 2511SOL     OW10073   1.777   2.810   4.397
 2511SOL    HW210074   1.818   2.726   4.377
 2511SOL    HW310075   1.851   2.868   4.416
 2511SOL    MW410076   1.792   2.806   4.397
 2512SOL     OW10077   1.754   2.873   4.122
 2512SOL    HW210078   1.774   2.842   4.210
 2512SOL    HW310079   1.832   2.923   4.096
 2512SOL    MW410080   1.767   2.876   4.130
 2513SOL     OW10081   2.030   3.113   4.348
 2513SOL    HW210082   2.037   3.042   4.412
 2513SOL    HW310083   2.024   3.068   4.263
 2513SOL    MW410084   2.030   3.097   4.345
 2514SOL     OW10085   2.158   2.731   4.114
 2514SOL    HW210086   2.097   2.711   4.185
 2514SOL    HW310087   2.242   2.744   4.158
 2514SOL    MW410088   2.161   2.730   4.129
 2515SOL     OW10089   1.768   3.237   4.374
 2515SOL    HW210090   1.768   3.321   4.329
 2515SOL    HW310091   1.860   3.208   4.370
 2515SOL    MW410092   1.780   3.244   4.368
 2516SOL     OW10093   1.751   3.489   4.226
 2516SOL    HW210094   1.677   3.544   4.251
 2516SOL    HW310095   1.758   3.500   4.131
 2516SOL    MW410096   1.742   3.498   4.217
 2517SOL     OW10097   1.997   3.643   4.247
 2517SOL    HW210098   1.976   3.732   4.218
 2517SOL    HW310099   1.919   3.592   4.227
 2517SOL    MW410100   1.984   3.648   4.241
 2518SOL     OW10101   2.049   3.929   4.158
 2518SOL    HW210102   1.964   3.964   4.187
 2518SOL    HW310103   2.029   3.883   4.076
 2518SOL    MW410104   2.035   3.927   4.151
 2519SOL     OW10105   1.809   4.015   4.302
 2519SOL    HW210106   1.789   4.107   4.283
 2519SOL    HW310107   1.731   3.968   4.275
 2519SOL    MW410108   1.796   4.021   4.296
 2520SOL     OW10109   1.756   4.277   4.222
 2520SOL    HW210110   1.843   4.305   4.252
 2520SOL    HW310111   1.766   4.264   4.128
 2520SOL    MW410112   1.769   4.279   4.214
 2521SOL     OW10113   2.020   4.340   4.289
 2521SOL    HW210114   2.033   4.328   4.383
 2521SOL    HW310115   2.014   4.435   4.278
 2521SOL    MW410116   2.021   4.351   4.300
 2522SOL     OW10117   2.442   4.602   4.224
 2522SOL    HW210118   2.519   4.647   4.259
 2522SOL    HW310119   2.447   4.514   4.260
 2522SOL    MW410120   2.453   4.596   4.233
 2523SOL     OW10121   2.220   0.101   4.254
 2523SOL    HW210122   2.296   0.047   4.236
 2523SOL    HW310123   2.145   0.045   4.236
 2523SOL    MW410124   2.220   0.087   4.250
 2524SOL     OW10125   2.229   0.379   4.212
 2524SOL    HW210126   2.232   0.285   4.230
 2524SOL    HW310127   2.229   0.385   4.116
 2524SOL    MW410128   2.229   0.367   4.202
 2525SOL     OW10129   2.439   0.502   4.340
 2525SOL    HW210130   2.420   0.501   4.433
 2525SOL    HW310131   2.373   0.445   4.301
 2525SOL    MW410132   2.428   0.495   4.347
 2526SOL     OW10133   2.462   0.743   4.216
 2526SOL    HW210134   2.442   0.660   4.258
 2526SOL    HW310135   2.469   0.722   4.123
 2526SOL    MW410136   2.461   0.729   4.209
 2527SOL     OW10137   2.223   0.884   4.285
 2527SOL    HW210138   2.209   0.907   4.377
 2527SOL    HW310139   2.300   0.828   4.285
 2527SOL    MW410140   2.231   0.880   4.297
 2528SOL     OW10141   2.238   1.114   4.140
 2528SOL    HW210142   2.304   1.172   4.179
 2528SOL    HW310143   2.238   1.037   4.197
 2528SOL    MW410144   2.247   1.112   4.153
 2529SOL     OW10145   2.434   1.310   4.207
 2529SOL    HW210146   2.429   1.326   4.301
 2529SOL    HW310147   2.520   1.269   4.193
 2529SOL    MW410148   2.445   1.307   4.217
 2530SOL     OW10149   2.474   1.605   4.150
 2530SOL    HW210150   2.445   1.514   4.160
 2530SOL    HW310151   2.453   1.627   4.059
 2530SOL    MW410152   2.468   1.596   4.139
 2531SOL     OW10153   2.248   1.722   4.265
 2531SOL    HW210154   2.330   1.685   4.232
 2531SOL    HW310155   2.246   1.811   4.231
 2531SOL    MW410156   2.259   1.729   4.256
 2532SOL     OW10157   2.252   1.989   4.148
 2532SOL    HW210158   2.331   2.022   4.189
 2532SOL    HW310159   2.180   2.034   4.193
 2532SOL    MW410160   2.253   1.999   4.159
 2533SOL     OW10161   2.464   2.096   4.308
 2533SOL    HW210162   2.462   2.081   4.402
 2533SOL    HW310163   2.537   2.042   4.277
 2533SOL    MW410164   2.474   2.087   4.316
 2534SOL     OW10165   2.516   2.354   4.182
 2534SOL    HW210166   2.513   2.275   4.236
 2534SOL    HW310167   2.507   2.321   4.092
 2534SOL    MW410168   2.515   2.339   4.177
 2535SOL     OW10169   2.457   2.513   4.515
 2535SOL    HW210170   2.372   2.518   4.472
 2535SOL    HW310171   2.467   2.598   4.559
 2535SOL    MW410172   2.447   2.525   4.515
 2536SOL     OW10173   1.890   2.539   4.232
 2536SOL    HW210174   1.941   2.588   4.296
 2536SOL    HW310175   1.952   2.478   4.193
 2536SOL    MW410176   1.905   2.537   4.235
 2537SOL     OW10177   2.409   2.735   4.288
 2537SOL    HW210178   2.390   2.643   4.303
 2537SOL    HW310179   2.347   2.782   4.344
 2537SOL    MW410180   2.399   2.729   4.297
 2538SOL     OW10181   2.534   3.091   4.149
 2538SOL    HW210182   2.598   3.154   4.182
 2538SOL    HW310183   2.475   3.075   4.222
 2538SOL    MW410184   2.535   3.097   4.163
 2539SOL     OW10185   2.016   2.972   4.091
 2539SOL    HW210186   2.041   3.016   4.010
 2539SOL    HW310187   2.064   2.889   4.089
 2539SOL    MW410188   2.026   2.967   4.080
 2540SOL     OW10189   2.249   3.507   4.162
 2540SOL    HW210190   2.242   3.421   4.204
 2540SOL    HW310191   2.161   3.544   4.170
 2540SOL    MW410192   2.237   3.500   4.169
 2541SOL     OW10193   2.471   3.600   4.308
 2541SOL    HW210194   2.405   3.576   4.243
 2541SOL    HW310195   2.498   3.688   4.283
 2541SOL    MW410196   2.466   3.608   4.296
 2542SOL     OW10197   2.516   3.854   4.199
 2542SOL    HW210198   2.576   3.919   4.236
 2542SOL    HW310199   2.527   3.862   4.105
 2542SOL    MW410200   2.525   3.864   4.192
 2543SOL     OW10201   2.277   3.987   4.274
 2543SOL    HW210202   2.351   3.942   4.233
 2543SOL    HW310203   2.201   3.959   4.223
 2543SOL    MW410204   2.276   3.977   4.262
 2544SOL     OW10205   2.269   4.257   4.176
 2544SOL    HW210206   2.270   4.164   4.196
 2544SOL    HW310207   2.185   4.288   4.211
 2544SOL    MW410208   2.258   4.249   4.183
 2545SOL     OW10209   2.470   4.365   4.342
 2545SOL    HW210210   2.556   4.326   4.326
 2545SOL    HW310211   2.413   4.326   4.276
 2545SOL    MW410212   2.474   4.355   4.331
 2546SOL     OW10213   2.900   0.000   4.168
 2546SOL    HW210214   2.973   0.055   4.196
 2546SOL    HW310215   2.912  -0.082   4.215
 2546SOL    MW410216   2.911  -0.004   4.178
 2547SOL     OW10217   2.657   0.142   4.279
 2547SOL    HW210218   2.668   0.236   4.269
 2547SOL    HW310219   2.736   0.104   4.241
 2547SOL    MW410220   2.669   0.149   4.273
 2548SOL     OW10221   2.694   0.433   4.233
 2548SOL    HW210222   2.613   0.467   4.271
 2548SOL    HW310223   2.680   0.439   4.138
 2548SOL    MW410224   2.682   0.439   4.225
 2549SOL     OW10225   2.937   0.537   4.301
 2549SOL    HW210226   2.935   0.629   4.276
 2549SOL    HW310227   2.853   0.502   4.273
 2549SOL    MW410228   2.926   0.545   4.294
 2550SOL     OW10229   2.900   0.804   4.206
 2550SOL    HW210230   2.989   0.835   4.223
 2550SOL    HW310231   2.897   0.789   4.111
 2550SOL    MW410232   2.911   0.806   4.196
 2551SOL     OW10233   2.673   0.950   4.274
 2551SOL    HW210234   2.755   0.911   4.244
 2551SOL    HW310235   2.606   0.887   4.248
 2551SOL    MW410236   2.675   0.936   4.266
 2552SOL     OW10237   2.703   1.215   4.175
 2552SOL    HW210238   2.706   1.128   4.215
 2552SOL    HW310239   2.696   1.198   4.081
 2552SOL    MW410240   2.702   1.201   4.168
 2553SOL     OW10241   2.924   1.341   4.306
 2553SOL    HW210242   2.986   1.285   4.260
 2553SOL    HW310243   2.839   1.302   4.287
 2553SOL    MW410244   2.921   1.328   4.298
 2554SOL     OW10245   2.907   1.590   4.157
 2554SOL    HW210246   2.982   1.642   4.186
 2554SOL    HW310247   2.913   1.509   4.207
 2554SOL    MW410248   2.918   1.586   4.167
 2555SOL     OW10249   2.695   1.676   4.291
 2555SOL    HW210250   2.775   1.643   4.251
 2555SOL    HW310251   2.624   1.628   4.248
 2555SOL    MW410252   2.696   1.666   4.280
 2556SOL     OW10253   2.650   1.940   4.197
 2556SOL    HW210254   2.653   1.854   4.239
 2556SOL    HW310255   2.663   1.922   4.104
 2556SOL    MW410256   2.652   1.927   4.190
 2557SOL     OW10257   2.902   2.079   4.252
 2557SOL    HW210258   2.899   2.173   4.234
 2557SOL    HW310259   2.819   2.046   4.219
 2557SOL    MW410260   2.891   2.087   4.245
 2558SOL     OW10261   2.849   2.329   4.158
 2558SOL    HW210262   2.928   2.373   4.187
 2558SOL    HW310263   2.779   2.393   4.173
 2558SOL    MW410264   2.850   2.343   4.164
 2559SOL     OW10265   2.681   2.563   4.167
 2559SOL    HW210266   2.616   2.497   4.193
 2559SOL    HW310267   2.715   2.597   4.250
 2559SOL    MW410268   2.677   2.559   4.182
 2560SOL     OW10269   2.647   2.852   4.215
 2560SOL    HW210270   2.580   2.784   4.220
 2560SOL    HW310271   2.602   2.927   4.175
 2560SOL    MW410272   2.632   2.853   4.210
 2561SOL     OW10273   2.939   2.858   4.120
 2561SOL    HW210274   2.852   2.837   4.152
 2561SOL    HW310275   2.924   2.922   4.051
 2561SOL    MW410276   2.926   2.864   4.115
 2562SOL     OW10277   2.963   3.076   4.307
 2562SOL    HW210278   2.975   3.036   4.394
 2562SOL    HW310279   2.979   3.004   4.246
 2562SOL    MW410280   2.967   3.061   4.311
 2563SOL     OW10281   2.718   3.270   4.300
 2563SOL    HW210282   2.703   3.301   4.390
 2563SOL    HW310283   2.795   3.214   4.307
 2563SOL    MW410284   2.726   3.267   4.313
 2564SOL     OW10285   2.661   3.498   4.154
 2564SOL    HW210286   2.678   3.411   4.189
 2564SOL    HW310287   2.600   3.538   4.216
 2564SOL    MW410288   2.655   3.491   4.167
 2565SOL     OW10289   2.903   3.571   4.280
 2565SOL    HW210290   2.886   3.571   4.374
 2565SOL    HW310291   2.825   3.530   4.241
 2565SOL    MW410292   2.891   3.566   4.287
 2566SOL     OW10293   2.927   3.834   4.191
 2566SOL    HW210294   3.014   3.864   4.215
 2566SOL    HW310295   2.925   3.741   4.215
 2566SOL    MW410296   2.938   3.826   4.197
 2567SOL     OW10297   2.724   3.992   4.308
 2567SOL    HW210298   2.742   4.085   4.293
 2567SOL    HW310299   2.796   3.946   4.263
 2567SOL    MW410300   2.736   3.998   4.300
 2568SOL     OW10301   2.729   4.283   4.230
 2568SOL    HW210302   2.805   4.328   4.266
 2568SOL    HW310303   2.741   4.287   4.136
 2568SOL    MW410304   2.740   4.290   4.223
 2569SOL     OW10305   2.949   4.421   4.311
 2569SOL    HW210306   2.952   4.396   4.403
 2569SOL    HW310307   3.023   4.373   4.271
 2569SOL    MW410308   2.959   4.411   4.318
 2570SOL     OW10309   3.329   4.614   4.212
 2570SOL    HW210310   3.408   4.657   4.245
 2570SOL    HW310311   3.339   4.523   4.238
 2570SOL    MW410312   3.341   4.608   4.220
 2571SOL     OW10313   3.131   0.128   4.259
 2571SOL    HW210314   3.141   0.150   4.352
 2571SOL    HW310315   3.194   0.057   4.245
 2571SOL    MW410316   3.140   0.122   4.270
 2572SOL     OW10317   3.142   0.384   4.155
 2572SOL    HW210318   3.140   0.291   4.181
 2572SOL    HW310319   3.058   0.418   4.185
 2572SOL    MW410320   3.130   0.376   4.163
 2573SOL     OW10321   3.376   0.482   4.249
 2573SOL    HW210322   3.441   0.421   4.214
 2573SOL    HW310323   3.293   0.454   4.210
 2573SOL    MW410324   3.373   0.471   4.239
 2574SOL     OW10325   3.373   0.760   4.184
 2574SOL    HW210326   3.305   0.812   4.227
 2574SOL    HW310327   3.367   0.674   4.225
 2574SOL    MW410328   3.363   0.755   4.195
 2575SOL     OW10329   3.154   0.901   4.291
 2575SOL    HW210330   3.168   0.897   4.386
 2575SOL    HW310331   3.156   0.994   4.271
 2575SOL    MW410332   3.156   0.913   4.301
 2576SOL     OW10333   3.112   1.178   4.194
 2576SOL    HW210334   3.195   1.225   4.208
 2576SOL    HW310335   3.106   1.170   4.099
 2576SOL    MW410336   3.122   1.183   4.183
 2577SOL     OW10337   3.348   1.307   4.265
 2577SOL    HW210338   3.367   1.294   4.357
 2577SOL    HW310339   3.355   1.402   4.252
 2577SOL    MW410340   3.351   1.318   4.275
 2578SOL     OW10341   3.389   1.574   4.255
 2578SOL    HW210342   3.426   1.575   4.343
 2578SOL    HW310343   3.300   1.608   4.266
 2578SOL    MW410344   3.382   1.579   4.268
 2579SOL     OW10345   3.160   1.713   4.249
 2579SOL    HW210346   3.109   1.719   4.330
 2579SOL    HW310347   3.147   1.798   4.207
 2579SOL    MW410348   3.151   1.725   4.254
 2580SOL     OW10349   3.170   1.988   4.142
 2580SOL    HW210350   3.242   2.030   4.190
 2580SOL    HW310351   3.092   2.036   4.168
 2580SOL    MW410352   3.169   2.000   4.152
 2581SOL     OW10353   3.391   2.086   4.311
 2581SOL    HW210354   3.484   2.063   4.300
 2581SOL    HW310355   3.382   2.170   4.266
 2581SOL    MW410356   3.402   2.094   4.303
 2582SOL     OW10357   3.305   2.301   4.131
 2582SOL    HW210358   3.378   2.358   4.154
 2582SOL    HW310359   3.328   2.266   4.044
 2582SOL    MW410360   3.318   2.304   4.122
 2583SOL     OW10361   3.099   2.431   4.252
 2583SOL    HW210362   3.115   2.524   4.233
 2583SOL    HW310363   3.168   2.385   4.204
 2583SOL    MW410364   3.110   2.437   4.243
 2584SOL     OW10365   3.142   2.689   4.156
 2584SOL    HW210366   3.211   2.747   4.188
 2584SOL    HW310367   3.068   2.747   4.137
 2584SOL    MW410368   3.141   2.704   4.158
 2585SOL     OW10369   3.360   2.808   4.286
 2585SOL    HW210370   3.434   2.753   4.261
 2585SOL    HW310371   3.380   2.894   4.249
 2585SOL    MW410372   3.373   2.812   4.278
 2586SOL     OW10373   3.404   3.068   4.185
 2586SOL    HW210374   3.356   3.130   4.240
 2586SOL    HW310375   3.369   3.081   4.097
 2586SOL    MW410376   3.393   3.078   4.181
 2587SOL     OW10377   3.227   3.247   4.331
 2587SOL    HW210378   3.217   3.321   4.271
 2587SOL    HW310379   3.140   3.207   4.333
 2587SOL    MW410380   3.214   3.252   4.323
 2588SOL     OW10381   3.136   3.472   4.174
 2588SOL    HW210382   3.060   3.514   4.214
 2588SOL    HW310383   3.115   3.469   4.081
 2588SOL    MW410384   3.123   3.477   4.167
 2589SOL     OW10385   3.337   3.621   4.297
 2589SOL    HW210386   3.341   3.595   4.389
 2589SOL    HW310387   3.262   3.573   4.262
 2589SOL    MW410388   3.328   3.611   4.305
 2590SOL     OW10389   3.406   3.879   4.176
 2590SOL    HW210390   3.403   3.790   4.209
 2590SOL    HW310391   3.388   3.870   4.082
 2590SOL    MW410392   3.404   3.866   4.168
 2591SOL     OW10393   3.156   3.953   4.256
 2591SOL    HW210394   3.155   3.986   4.346
 2591SOL    HW310395   3.241   3.911   4.247
 2591SOL    MW410396   3.167   3.952   4.267
 2592SOL     OW10397   3.173   4.240   4.217
 2592SOL    HW210398   3.255   4.263   4.260
 2592SOL    HW310399   3.165   4.145   4.228
 2592SOL    MW410400   3.182   4.231   4.224
 2593SOL     OW10401   3.406   4.349   4.285
 2593SOL    HW210402   3.446   4.366   4.370
 2593SOL    HW310403   3.476   4.311   4.233
 2593SOL    MW410404   3.420   4.346   4.289
 2594SOL     OW10405   3.799   4.622   4.118
 2594SOL    HW210406   3.862   4.681   4.158
 2594SOL    HW310407   3.820   4.622   4.025
 2594SOL    MW410408   3.810   4.629   4.111
 2595SOL     OW10409   3.579   0.057   4.287
 2595SOL    HW210410   3.570   0.149   4.260
 2595SOL    HW310411   3.646   0.022   4.228
 2595SOL    MW410412   3.587   0.065   4.276
 2596SOL     OW10413   3.600   0.309   4.176
 2596SOL    HW210414   3.673   0.362   4.206
 2596SOL    HW310415   3.597   0.323   4.081
 2596SOL    MW410416   3.609   0.318   4.167
 2597SOL     OW10417   3.780   0.459   4.306
 2597SOL    HW210418   3.755   0.469   4.398
 2597SOL    HW310419   3.780   0.549   4.271
 2597SOL    MW410420   3.776   0.472   4.314
 2598SOL     OW10421   3.796   0.727   4.223
 2598SOL    HW210422   3.733   0.787   4.263
 2598SOL    HW310423   3.779   0.735   4.129
 2598SOL    MW410424   3.785   0.736   4.215
 2599SOL     OW10425   3.601   0.904   4.327
 2599SOL    HW210426   3.608   0.987   4.279
 2599SOL    HW310427   3.544   0.850   4.273
 2599SOL    MW410428   3.594   0.908   4.314
 2600SOL     OW10429   3.577   1.136   4.184
 2600SOL    HW210430   3.490   1.173   4.194
 2600SOL    HW310431   3.583   1.112   4.092
 2600SOL    MW410432   3.566   1.138   4.173
 2601SOL     OW10433   3.772   1.311   4.293
 2601SOL    HW210434   3.714   1.242   4.262
 2601SOL    HW310435   3.773   1.376   4.222
 2601SOL    MW410436   3.765   1.311   4.279
 2602SOL     OW10437   3.823   1.533   4.138
 2602SOL    HW210438   3.895   1.591   4.163
 2602SOL    HW310439   3.745   1.587   4.144
 2602SOL    MW410440   3.822   1.547   4.142
 2603SOL     OW10441   3.681   2.033   4.346
 2603SOL    HW210442   3.704   1.942   4.323
 2603SOL    HW310443   3.647   2.028   4.435
 2603SOL    MW410444   3.680   2.020   4.354
 2604SOL     OW10445   3.612   1.705   4.137
 2604SOL    HW210446   3.521   1.678   4.143
 2604SOL    HW310447   3.610   1.785   4.084
 2604SOL    MW410448   3.600   1.712   4.131
 2605SOL     OW10449   3.933   2.142   4.320
 2605SOL    HW210450   3.950   2.162   4.412
 2605SOL    HW310451   3.842   2.114   4.317
 2605SOL    MW410452   3.923   2.141   4.331
 2606SOL     OW10453   3.815   2.376   4.201
 2606SOL    HW210454   3.853   2.295   4.235
 2606SOL    HW310455   3.811   2.363   4.106
 2606SOL    MW410456   3.819   2.363   4.193
 2607SOL     OW10457   3.546   2.415   4.222
 2607SOL    HW210458   3.541   2.429   4.317
 2607SOL    HW310459   3.638   2.396   4.205
 2607SOL    MW410460   3.557   2.414   4.232
 2608SOL     OW10461   3.570   2.678   4.170
 2608SOL    HW210462   3.562   2.583   4.175
 2608SOL    HW310463   3.568   2.697   4.076
 2608SOL    MW410464   3.568   2.668   4.158
 2609SOL     OW10465   3.794   2.835   4.238
 2609SOL    HW210466   3.796   2.851   4.333
 2609SOL    HW310467   3.716   2.781   4.224
 2609SOL    MW410468   3.784   2.830   4.249
 2610SOL     OW10469   3.864   3.085   4.134
 2610SOL    HW210470   3.837   2.996   4.157
 2610SOL    HW310471   3.866   3.085   4.039
 2610SOL    MW410472   3.861   3.073   4.125
 2611SOL     OW10473   3.642   3.242   4.272
 2611SOL    HW210474   3.712   3.187   4.237
 2611SOL    HW310475   3.564   3.187   4.266
 2611SOL    MW410476   3.641   3.227   4.267
 2612SOL     OW10477   3.574   3.485   4.160
 2612SOL    HW210478   3.584   3.406   4.213
 2612SOL    HW310479   3.505   3.535   4.203
 2612SOL    MW410480   3.567   3.481   4.173
 2613SOL     OW10481   3.796   3.578   4.275
 2613SOL    HW210482   3.876   3.536   4.245
 2613SOL    HW310483   3.727   3.536   4.223
 2613SOL    MW410484   3.797   3.567   4.264
 2614SOL     OW10485   3.815   3.848   4.193
 2614SOL    HW210486   3.748   3.902   4.235
 2614SOL    HW310487   3.802   3.761   4.230
 2614SOL    MW410488   3.804   3.844   4.204
 2615SOL     OW10489   3.613   4.000   4.312
 2615SOL    HW210490   3.590   4.034   4.399
 2615SOL    HW310491   3.530   3.969   4.276
 2615SOL    MW410492   3.599   4.000   4.319
 2616SOL     OW10493   3.609   4.223   4.146
 2616SOL    HW210494   3.679   4.278   4.180
 2616SOL    HW310495   3.615   4.142   4.195
 2616SOL    MW410496   3.619   4.219   4.157
 2617SOL     OW10497   3.812   4.383   4.266
 2617SOL    HW210498   3.893   4.342   4.234
 2617SOL    HW310499   3.810   4.469   4.224
 2617SOL    MW410500   3.823   4.389   4.256
 2618SOL     OW10501   4.249   4.641   4.143
 2618SOL    HW210502   4.264   4.546   4.146
 2618SOL    HW310503   4.324   4.679   4.187
 2618SOL    MW410504   4.261   4.633   4.149
 2619SOL     OW10505   4.011   0.092   4.262
 2619SOL    HW210506   4.025   0.185   4.251
 2619SOL    HW310507   4.081   0.050   4.211
 2619SOL    MW410508   4.022   0.098   4.254
 2620SOL     OW10509   4.008   0.356   4.181
 2620SOL    HW210510   4.083   0.413   4.195
 2620SOL    HW310511   3.937   0.397   4.231
 2620SOL    MW410512   4.008   0.369   4.189
 2621SOL     OW10513   4.250   0.472   4.228
 2621SOL    HW210514   4.267   0.564   4.209
 2621SOL    HW310515   4.330   0.427   4.201
 2621SOL    MW410516   4.263   0.478   4.222
 2622SOL     OW10517   4.283   0.756   4.216
 2622SOL    HW210518   4.211   0.810   4.250
 2622SOL    HW310519   4.282   0.772   4.122
 2622SOL    MW410520   4.273   0.765   4.208
 2623SOL     OW10521   4.033   0.875   4.286
 2623SOL    HW210522   4.005   0.954   4.240
 2623SOL    HW310523   3.960   0.814   4.274
 2623SOL    MW410524   4.019   0.877   4.278
 2624SOL     OW10525   3.964   1.128   4.190
 2624SOL    HW210526   4.044   1.181   4.192
 2624SOL    HW310527   3.899   1.181   4.236
 2624SOL    MW410528   3.966   1.142   4.196
 2625SOL     OW10529   4.203   1.272   4.244
 2625SOL    HW210530   4.204   1.303   4.335
 2625SOL    HW310531   4.270   1.203   4.243
 2625SOL    MW410532   4.212   1.267   4.256
 2626SOL     OW10533   4.230   1.527   4.156
 2626SOL    HW210534   4.234   1.434   4.180
 2626SOL    HW310535   4.230   1.528   4.061
 2626SOL    MW410536   4.230   1.515   4.147
 2627SOL     OW10537   4.024   1.700   4.220
 2627SOL    HW210538   4.027   1.721   4.313
 2627SOL    HW310539   4.108   1.658   4.202
 2627SOL    MW410540   4.036   1.698   4.230
 2628SOL     OW10541   4.036   1.953   4.135
 2628SOL    HW210542   4.025   1.861   4.160
 2628SOL    HW310543   3.976   2.000   4.193
 2628SOL    MW410544   4.026   1.947   4.146
 2629SOL     OW10545   0.030   1.932   4.130
 2629SOL    HW210546   0.091   1.962   4.198
 2629SOL    HW310547  -0.053   1.976   4.150
 2629SOL    MW410548   0.027   1.942   4.141
 2630SOL     OW10549   4.236   2.308   4.100
 2630SOL    HW210550   4.179   2.357   4.159
 2630SOL    HW310551   4.237   2.219   4.135
 2630SOL    MW410552   4.229   2.302   4.112
 2631SOL     OW10553   4.079   2.498   4.254
 2631SOL    HW210554   4.094   2.519   4.346
 2631SOL    HW310555   3.989   2.465   4.251
 2631SOL    MW410556   4.069   2.497   4.266
 2632SOL     OW10557   4.051   2.752   4.150
 2632SOL    HW210558   4.061   2.669   4.197
 2632SOL    HW310559   3.968   2.787   4.182
 2632SOL    MW410560   4.041   2.746   4.160
 2633SOL     OW10561   4.253   2.857   4.299
 2633SOL    HW210562   4.177   2.824   4.250
 2633SOL    HW310563   4.326   2.804   4.270
 2633SOL    MW410564   4.252   2.846   4.289
 2634SOL     OW10565   4.286   3.105   4.169
 2634SOL    HW210566   4.270   3.017   4.206
 2634SOL    HW310567   4.278   3.093   4.075
 2634SOL    MW410568   4.283   3.092   4.162
 2635SOL     OW10569   4.067   3.213   4.292
 2635SOL    HW210570   4.150   3.178   4.259
 2635SOL    HW310571   4.000   3.165   4.242
 2635SOL    MW410572   4.069   3.202   4.281
 2636SOL     OW10573   4.042   3.463   4.209
 2636SOL    HW210574   4.055   3.372   4.235
 2636SOL    HW310575   4.040   3.460   4.113
 2636SOL    MW410576   4.044   3.450   4.200
 2637SOL     OW10577   4.286   3.562   4.340
 2637SOL    HW210578   4.265   3.652   4.315
 2637SOL    HW310579   4.206   3.513   4.323
 2637SOL    MW410580   4.273   3.568   4.334
 2638SOL     OW10581   4.239   3.825   4.218
 2638SOL    HW210582   4.167   3.868   4.264
 2638SOL    HW310583   4.222   3.844   4.125
 2638SOL    MW410584   4.227   3.833   4.212
 2639SOL     OW10585   4.030   4.006   4.268
 2639SOL    HW210586   4.047   3.990   4.361
 2639SOL    HW310587   3.950   3.956   4.250
 2639SOL    MW410588   4.021   3.997   4.278
 2640SOL     OW10589   4.047   4.260   4.155
 2640SOL    HW210590   4.133   4.299   4.170
 2640SOL    HW310591   4.053   4.173   4.194
 2640SOL    MW410592   4.059   4.254   4.162
 2641SOL     OW10593   4.055   4.385   4.589
 2641SOL    HW210594   3.960   4.388   4.580
 2641SOL    HW310595   4.077   4.466   4.635
 2641SOL    MW410596   4.046   4.396   4.594
 2642SOL     OW10597   4.192   0.231   4.745
 2642SOL    HW210598   4.280   0.259   4.723
 2642SOL    HW310599   4.137   0.265   4.674
 2642SOL    MW410600   4.196   0.239   4.733
 2643SOL     OW10601   4.306   4.445   4.461
 2643SOL    HW210602   4.321   4.539   4.460
 2643SOL    HW310603   4.217   4.435   4.495
 2643SOL    MW410604   4.296   4.456   4.465
 2644SOL     OW10605   3.923   0.104   4.533
 2644SOL    HW210606   3.932   0.086   4.439
 2644SOL    HW310607   3.833   0.079   4.554
 2644SOL    MW410608   3.913   0.098   4.523
 2645SOL     OW10609   4.286   1.663   4.722
 2645SOL    HW210610   4.351   1.604   4.684
 2645SOL    HW310611   4.202   1.627   4.696
 2645SOL    MW410612   4.284   1.651   4.713
 2646SOL     OW10613   0.395   0.043   4.536
 2646SOL    HW210614   0.313  -0.001   4.561
 2646SOL    HW310615   0.464  -0.018   4.563
 2646SOL    MW410616   0.393   0.029   4.543
 2647SOL     OW10617   0.248   0.731   4.644
 2647SOL    HW210618   0.155   0.752   4.651
 2647SOL    HW310619   0.250   0.641   4.612
 2647SOL    MW410620   0.236   0.722   4.640
 2648SOL     OW10621   4.477   0.656   4.604
 2648SOL    HW210622   4.387   0.626   4.593
 2648SOL    HW310623   4.531   0.582   4.573
 2648SOL    MW410624   4.472   0.642   4.599
 2649SOL     OW10625   0.617   1.445   4.642
 2649SOL    HW210626   0.652   1.528   4.675
 2649SOL    HW310627   0.527   1.465   4.616
 2649SOL    MW410628   0.610   1.459   4.643
 2650SOL     OW10629   1.145   2.065   4.528
 2650SOL    HW210630   1.228   2.095   4.566
 2650SOL    HW310631   1.078   2.094   4.590
 2650SOL    MW410632   1.147   2.073   4.541
 2651SOL     OW10633   4.208   1.350   4.506
 2651SOL    HW210634   4.220   1.263   4.542
 2651SOL    HW310635   4.285   1.399   4.534
 2651SOL    MW410636   4.220   1.345   4.514
 2652SOL     OW10637   0.267   1.821   4.575
 2652SOL    HW210638   0.177   1.805   4.547
 2652SOL    HW310639   0.274   1.916   4.579
 2652SOL    MW410640   0.256   1.832   4.572
 2653SOL     OW10641   0.481   1.618   4.291
 2653SOL    HW210642   0.405   1.588   4.241
 2653SOL    HW310643   0.557   1.582   4.244
 2653SOL    MW410644   0.481   1.610   4.278
 2654SOL     OW10645   0.282   2.091   4.554
 2654SOL    HW210646   0.347   2.160   4.566
 2654SOL    HW310647   0.197   2.135   4.560
 2654SOL    MW410648   0.279   2.106   4.556
 2655SOL     OW10649   4.131   2.393   4.659
 2655SOL    HW210650   4.181   2.329   4.710
 2655SOL    HW310651   4.196   2.436   4.604
 2655SOL    MW410652   4.146   2.390   4.659
 2656SOL     OW10653   0.444   2.945   4.626
 2656SOL    HW210654   0.436   2.897   4.708
 2656SOL    HW310655   0.444   2.878   4.559
 2656SOL    MW410656   0.443   2.930   4.628
 2657SOL     OW10657   0.334   3.180   4.506
 2657SOL    HW210658   0.379   3.106   4.547
 2657SOL    HW310659   0.363   3.257   4.555
 2657SOL    MW410660   0.344   3.181   4.518
 2658SOL     OW10661   4.475   2.505   4.493
 2658SOL    HW210662   4.483   2.489   4.399
 2658SOL    HW310663   4.542   2.571   4.511
 2658SOL    MW410664   4.485   2.511   4.483
 2659SOL     OW10665   4.351   3.345   4.690
 2659SOL    HW210666   4.400   3.294   4.626
 2659SOL    HW310667   4.262   3.350   4.654
 2659SOL    MW410668   4.345   3.339   4.677
 2660SOL     OW10669   0.410   3.432   4.618
 2660SOL    HW210670   0.446   3.439   4.707
 2660SOL    HW310671   0.364   3.515   4.604
 2660SOL    MW410672   0.409   3.444   4.628
 2661SOL     OW10673   4.301   3.824   4.708
 2661SOL    HW210674   4.242   3.861   4.642
 2661SOL    HW310675   4.353   3.759   4.659
 2661SOL    MW410676   4.300   3.820   4.693
 2662SOL     OW10677   4.354   0.049   4.522
 2662SOL    HW210678   4.278   0.025   4.574
 2662SOL    HW310679   4.364   0.143   4.537
 2662SOL    MW410680   4.345   0.058   4.531
 2663SOL     OW10681   3.736   0.496   4.571
 2663SOL    HW210682   3.649   0.473   4.605
 2663SOL    HW310683   3.743   0.590   4.586
 2663SOL    MW410684   3.725   0.506   4.577
 2664SOL     OW10685   3.890   3.841   4.894
 2664SOL    HW210686   3.985   3.855   4.901
 2664SOL    HW310687   3.857   3.862   4.982
 2664SOL    MW410688   3.898   3.845   4.907
 2665SOL     OW10689   4.060   4.130   4.722
 2665SOL    HW210690   4.075   4.221   4.695
 2665SOL    HW310691   3.970   4.112   4.695
 2665SOL    MW410692   4.050   4.140   4.715
 2666SOL     OW10693   0.601   4.551   4.624
 2666SOL    HW210694   0.680   4.570   4.573
 2666SOL    HW310695   0.628   4.562   4.715
 2666SOL    MW410696   0.615   4.555   4.629
 2667SOL     OW10697   4.237   1.102   4.613
 2667SOL    HW210698   4.318   1.052   4.607
 2667SOL    HW310699   4.231   1.125   4.706
 2667SOL    MW410700   4.247   1.098   4.625
 2668SOL     OW10701   1.193   0.903   4.624
 2668SOL    HW210702   1.183   0.860   4.709
 2668SOL    HW310703   1.104   0.908   4.589
 2668SOL    MW410704   1.180   0.898   4.630
 2669SOL     OW10705   0.373   0.327   4.633
 2669SOL    HW210706   0.389   0.249   4.580
 2669SOL    HW310707   0.430   0.394   4.596
 2669SOL    MW410708   0.382   0.326   4.621
 2670SOL     OW10709   0.927   0.916   4.503
 2670SOL    HW210710   0.931   0.926   4.408
 2670SOL    HW310711   0.843   0.954   4.528
 2670SOL    MW410712   0.917   0.922   4.493
 2671SOL     OW10713   0.466   0.854   4.530
 2671SOL    HW210714   0.395   0.807   4.573
 2671SOL    HW310715   0.443   0.852   4.437
 2671SOL    MW410716   0.454   0.847   4.523
 2672SOL     OW10717   1.961   1.151   4.495
 2672SOL    HW210718   1.974   1.167   4.401
 2672SOL    HW310719   2.019   1.214   4.538
 2672SOL    MW410720   1.970   1.162   4.488
 2673SOL     OW10721   0.355   1.551   4.545
 2673SOL    HW210722   0.312   1.628   4.582
 2673SOL    HW310723   0.397   1.582   4.465
 2673SOL    MW410724   0.355   1.565   4.539
 2674SOL     OW10725   1.262   1.176   4.582
 2674SOL    HW210726   1.234   1.085   4.593
 2674SOL    HW310727   1.190   1.217   4.535
 2674SOL    MW410728   1.249   1.169   4.577
 2675SOL     OW10729   0.970   1.629   4.503
 2675SOL    HW210730   0.893   1.652   4.556
 2675SOL    HW310731   1.041   1.681   4.541
 2675SOL    MW410732   0.969   1.639   4.515
 2676SOL     OW10733   0.788   2.185   4.541
 2676SOL    HW210734   0.817   2.276   4.537
 2676SOL    HW310735   0.826   2.151   4.621
 2676SOL    MW410736   0.797   2.192   4.551
 2677SOL     OW10737   1.173   1.787   4.584
 2677SOL    HW210738   1.252   1.752   4.543
 2677SOL    HW310739   1.180   1.882   4.573
 2677SOL    MW410740   1.184   1.795   4.577
 2678SOL     OW10741   0.507   2.281   4.551
 2678SOL    HW210742   0.594   2.243   4.544
 2678SOL    HW310743   0.491   2.320   4.465
 2678SOL    MW410744   0.516   2.281   4.539
 2679SOL     OW10745   1.103   2.763   4.703
 2679SOL    HW210746   1.114   2.816   4.624
 2679SOL    HW310747   1.182   2.782   4.755
 2679SOL    MW410748   1.115   2.773   4.699
 2680SOL     OW10749   0.724   2.631   4.667
 2680SOL    HW210750   0.761   2.627   4.756
 2680SOL    HW310751   0.765   2.559   4.621
 2680SOL    MW410752   0.734   2.621   4.673
 2681SOL     OW10753   1.091   3.418   4.570
 2681SOL    HW210754   1.000   3.390   4.559
 2681SOL    HW310755   1.143   3.340   4.552
 2681SOL    MW410756   1.086   3.404   4.566
 2682SOL     OW10757   0.857   3.288   4.500
 2682SOL    HW210758   0.793   3.358   4.485
 2682SOL    HW310759   0.805   3.213   4.527
 2682SOL    MW410760   0.842   3.287   4.501
 2683SOL     OW10761   1.154   4.570   4.600
 2683SOL    HW210762   1.109   4.489   4.577
 2683SOL    HW310763   1.247   4.550   4.589
 2683SOL    MW410764   1.160   4.557   4.595
 2684SOL     OW10765   0.178   2.719   4.525
 2684SOL    HW210766   0.270   2.695   4.540
 2684SOL    HW310767   0.174   2.742   4.432
 2684SOL    MW410768   0.190   2.719   4.515
 2685SOL     OW10769   4.420   3.603   4.574
 2685SOL    HW210770   4.404   3.519   4.617
 2685SOL    HW310771   4.384   3.593   4.486
 2685SOL    MW410772   4.413   3.591   4.568
 2686SOL     OW10773   1.262   4.103   4.780
 2686SOL    HW210774   1.324   4.045   4.736
 2686SOL    HW310775   1.177   4.082   4.740
 2686SOL    MW410776   1.259   4.093   4.769
 2687SOL     OW10777   0.036   4.307   4.546
 2687SOL    HW210778   0.007   4.218   4.564
 2687SOL    HW310779  -0.044   4.354   4.522
 2687SOL    MW410780   0.022   4.302   4.545
 2688SOL     OW10781   4.484   4.009   4.592
 2688SOL    HW210782   4.576   3.983   4.584
 2688SOL    HW310783   4.453   3.963   4.670
 2688SOL    MW410784   4.493   3.999   4.601
 2689SOL     OW10785   0.118   4.592   4.571
 2689SOL    HW210786   0.027   4.619   4.563
 2689SOL    HW310787   0.114   4.499   4.593
 2689SOL    MW410788   0.106   4.583   4.573
 2690SOL     OW10789   0.875   4.622   4.517
 2690SOL    HW210790   0.962   4.610   4.555
 2690SOL    HW310791   0.890   4.678   4.441
 2690SOL    MW410792   0.889   4.628   4.512
 2691SOL     OW10793   1.132   4.286   4.555
 2691SOL    HW210794   1.218   4.266   4.592
 2691SOL    HW310795   1.071   4.237   4.610
 2691SOL    MW410796   1.135   4.277   4.567
 2692SOL     OW10797   0.547   0.533   4.504
 2692SOL    HW210798   0.630   0.501   4.469
 2692SOL    HW310799   0.553   0.628   4.498
 2692SOL    MW410800   0.559   0.541   4.499
 2693SOL     OW10801   1.426   0.805   4.479
 2693SOL    HW210802   1.407   0.841   4.393
 2693SOL    HW310803   1.353   0.832   4.534
 2693SOL    MW410804   1.414   0.813   4.475
 2694SOL     OW10805   1.693   0.866   4.522
 2694SOL    HW210806   1.600   0.841   4.520
 2694SOL    HW310807   1.723   0.851   4.432
 2694SOL    MW410808   1.685   0.861   4.509
 2695SOL     OW10809   0.176   1.115   4.542
 2695SOL    HW210810   0.250   1.055   4.541
 2695SOL    HW310811   0.100   1.060   4.558
 2695SOL    MW410812   0.176   1.100   4.544
 2696SOL     OW10813   0.952   2.090   4.776
 2696SOL    HW210814   1.028   2.141   4.802
 2696SOL    HW310815   0.980   1.999   4.781
 2696SOL    MW410816   0.965   2.085   4.780
 2697SOL     OW10817   0.745   1.279   4.458
 2697SOL    HW210818   0.710   1.337   4.526
 2697SOL    HW310819   0.733   1.191   4.493
 2697SOL    MW410820   0.739   1.275   4.472
 2698SOL     OW10821   1.692   1.127   4.599
 2698SOL    HW210822   1.684   1.032   4.589
 2698SOL    HW310823   1.785   1.144   4.589
 2698SOL    MW410824   1.703   1.117   4.596
 2699SOL     OW10825   1.027   1.357   4.458
 2699SOL    HW210826   0.945   1.311   4.473
 2699SOL    HW310827   1.005   1.450   4.469
 2699SOL    MW410828   1.013   1.363   4.461
 2700SOL     OW10829   1.118   2.461   4.680
 2700SOL    HW210830   1.106   2.556   4.690
 2700SOL    HW310831   1.198   2.453   4.628
 2700SOL    MW410832   1.127   2.473   4.675
 2701SOL     OW10833   1.562   2.954   4.924
 2701SOL    HW210834   1.575   3.040   4.962
 2701SOL    HW310835   1.650   2.915   4.922
 2701SOL    MW410836   1.575   2.960   4.929
 2702SOL     OW10837   1.456   3.057   4.620
 2702SOL    HW210838   1.534   3.111   4.626
 2702SOL    HW310839   1.455   3.005   4.700
 2702SOL    MW410840   1.466   3.057   4.631
 2703SOL     OW10841   1.317   3.554   4.735
 2703SOL    HW210842   1.247   3.498   4.701
 2703SOL    HW310843   1.276   3.639   4.748
 2703SOL    MW410844   1.303   3.558   4.732
 2704SOL     OW10845   0.835   2.818   4.480
 2704SOL    HW210846   0.922   2.858   4.471
 2704SOL    HW310847   0.847   2.751   4.547
 2704SOL    MW410848   0.848   2.815   4.488
 2705SOL     OW10849   0.517   4.008   4.528
 2705SOL    HW210850   0.550   4.098   4.530
 2705SOL    HW310851   0.515   3.986   4.435
 2705SOL    MW410852   0.522   4.017   4.516
 2706SOL     OW10853   1.136   2.904   4.482
 2706SOL    HW210854   1.136   2.886   4.388
 2706SOL    HW310855   1.158   2.997   4.488
 2706SOL    MW410856   1.139   2.914   4.470
 2707SOL     OW10857   0.708   3.054   4.580
 2707SOL    HW210858   0.620   3.044   4.617
 2707SOL    HW310859   0.737   2.965   4.561
 2707SOL    MW410860   0.700   3.041   4.583
 2708SOL     OW10861   1.580   3.590   4.567
 2708SOL    HW210862   1.647   3.532   4.604
 2708SOL    HW310863   1.505   3.580   4.626
 2708SOL    MW410864   1.579   3.581   4.580
 2709SOL     OW10865   0.654   3.488   4.508
 2709SOL    HW210866   0.651   3.584   4.519
 2709SOL    HW310867   0.570   3.458   4.543
 2709SOL    MW410868   0.642   3.497   4.514
 2710SOL     OW10869   0.268   3.928   4.618
 2710SOL    HW210870   0.356   3.963   4.604
 2710SOL    HW310871   0.282   3.836   4.638
 2710SOL    MW410872   0.281   3.920   4.619
 2711SOL     OW10873   1.011   4.059   4.707
 2711SOL    HW210874   0.972   4.031   4.790
 2711SOL    HW310875   0.974   3.999   4.642
 2711SOL    MW410876   1.001   4.047   4.709
 2712SOL     OW10877   0.618   4.261   4.533
 2712SOL    HW210878   0.587   4.339   4.579
 2712SOL    HW310879   0.633   4.290   4.443
 2712SOL    MW410880   0.616   4.275   4.527
 2713SOL     OW10881   2.118   3.828   4.627
 2713SOL    HW210882   2.109   3.749   4.574
 2713SOL    HW310883   2.040   3.879   4.609
 2713SOL    MW410884   2.107   3.824   4.618
 2714SOL     OW10885   1.426   4.553   4.567
 2714SOL    HW210886   1.433   4.468   4.611
 2714SOL    HW310887   1.437   4.533   4.474
 2714SOL    MW410888   1.429   4.539   4.561
 2715SOL     OW10889   1.424   4.301   4.666
 2715SOL    HW210890   1.500   4.250   4.637
 2715SOL    HW310891   1.380   4.245   4.730
 2715SOL    MW410892   1.428   4.287   4.671
 2716SOL     OW10893   0.951   0.624   4.505
 2716SOL    HW210894   0.932   0.715   4.525
 2716SOL    HW310895   0.876   0.594   4.454
 2716SOL    MW410896   0.939   0.632   4.501
 2717SOL     OW10897   1.660   0.048   4.501
 2717SOL    HW210898   1.579   0.004   4.527
 2717SOL    HW310899   1.730  -0.009   4.533
 2717SOL    MW410900   1.658   0.034   4.508
 2718SOL     OW10901   1.176   0.459   4.534
 2718SOL    HW210902   1.095   0.511   4.528
 2718SOL    HW310903   1.146   0.368   4.538
 2718SOL    MW410904   1.161   0.454   4.534
 2719SOL     OW10905   1.877   1.599   4.559
 2719SOL    HW210906   1.793   1.554   4.565
 2719SOL    HW310907   1.884   1.626   4.468
 2719SOL    MW410908   1.867   1.597   4.548
 2720SOL     OW10909   0.678   1.030   4.578
 2720SOL    HW210910   0.611   0.973   4.543
 2720SOL    HW310911   0.657   1.039   4.671
 2720SOL    MW410912   0.667   1.024   4.585
 2721SOL     OW10913   1.945   0.446   4.519
 2721SOL    HW210914   2.004   0.386   4.565
 2721SOL    HW310915   1.863   0.398   4.513
 2721SOL    MW410916   1.942   0.432   4.524
 2722SOL     OW10917   1.499   1.263   4.460
 2722SOL    HW210918   1.416   1.241   4.502
 2722SOL    HW310919   1.564   1.212   4.508
 2722SOL    MW410920   1.497   1.254   4.472
 2723SOL     OW10921   1.474   1.705   4.506
 2723SOL    HW210922   1.507   1.622   4.542
 2723SOL    HW310923   1.452   1.684   4.415
 2723SOL    MW410924   1.475   1.691   4.499
 2724SOL     OW10925   1.355   2.803   4.823
 2724SOL    HW210926   1.412   2.767   4.754
 2724SOL    HW310927   1.416   2.844   4.885
 2724SOL    MW410928   1.371   2.804   4.822
 2725SOL     OW10929   2.238   2.497   4.351
 2725SOL    HW210930   2.200   2.471   4.267
 2725SOL    HW310931   2.176   2.561   4.386
 2725SOL    MW410932   2.225   2.502   4.344
 2726SOL     OW10933   0.867   2.454   4.529
 2726SOL    HW210934   0.957   2.443   4.561
 2726SOL    HW310935   0.877   2.462   4.434
 2726SOL    MW410936   0.881   2.454   4.521
 2727SOL     OW10937   1.341   3.799   4.451
 2727SOL    HW210938   1.254   3.762   4.438
 2727SOL    HW310939   1.401   3.733   4.415
 2727SOL    MW410940   1.338   3.785   4.445
 2728SOL     OW10941   1.332   2.463   4.299
 2728SOL    HW210942   1.354   2.537   4.242
 2728SOL    HW310943   1.377   2.388   4.259
 2728SOL    MW410944   1.341   2.463   4.286
 2729SOL     OW10945   1.388   2.417   4.579
 2729SOL    HW210946   1.370   2.445   4.489
 2729SOL    HW310947   1.441   2.488   4.616
 2729SOL    MW410948   1.393   2.430   4.572
 2730SOL     OW10949   1.218   3.183   4.488
 2730SOL    HW210950   1.250   3.202   4.400
 2730SOL    HW310951   1.294   3.151   4.535
 2730SOL    MW410952   1.232   3.181   4.483
 2731SOL     OW10953   1.092   3.661   4.431
 2731SOL    HW210954   1.114   3.572   4.458
 2731SOL    HW310955   1.096   3.658   4.335
 2731SOL    MW410956   1.096   3.649   4.422
 2732SOL     OW10957   0.671   3.777   4.519
 2732SOL    HW210958   0.617   3.854   4.533
 2732SOL    HW310959   0.760   3.811   4.509
 2732SOL    MW410960   0.676   3.791   4.520
 2733SOL     OW10961   2.024   3.575   4.510
 2733SOL    HW210962   2.030   3.589   4.416
 2733SOL    HW310963   2.075   3.496   4.527
 2733SOL    MW410964   2.031   3.567   4.500
 2734SOL     OW10965   1.701   3.202   4.632
 2734SOL    HW210966   1.748   3.277   4.669
 2734SOL    HW310967   1.716   3.209   4.537
 2734SOL    MW410968   1.710   3.212   4.624
 2735SOL     OW10969   2.241   3.288   4.321
 2735SOL    HW210970   2.164   3.235   4.338
 2735SOL    HW310971   2.311   3.225   4.305
 2735SOL    MW410972   2.240   3.273   4.321
 2736SOL     OW10973   0.930   3.880   4.511
 2736SOL    HW210974   0.927   3.921   4.424
 2736SOL    HW310975   0.982   3.801   4.498
 2736SOL    MW410976   0.937   3.875   4.498
 2737SOL     OW10977   1.901   4.001   4.583
 2737SOL    HW210978   1.869   3.983   4.495
 2737SOL    HW310979   1.933   4.092   4.579
 2737SOL    MW410980   1.901   4.011   4.571
 2738SOL     OW10981   2.190   0.326   4.633
 2738SOL    HW210982   2.258   0.391   4.613
 2738SOL    HW310983   2.203   0.306   4.726
 2738SOL    MW410984   2.201   0.332   4.643
 2739SOL     OW10985   1.230   0.175   4.576
 2739SOL    HW210986   1.286   0.182   4.653
 2739SOL    HW310987   1.197   0.085   4.577
 2739SOL    MW410988   1.233   0.164   4.586
 2740SOL     OW10989   1.701   0.333   4.515
 2740SOL    HW210990   1.684   0.244   4.544
 2740SOL    HW310991   1.615   0.370   4.497
 2740SOL    MW410992   1.688   0.326   4.517
 2741SOL     OW10993   2.283   0.066   4.527
 2741SOL    HW210994   2.246   0.073   4.439
 2741SOL    HW310995   2.266   0.152   4.567
 2741SOL    MW410996   2.276   0.078   4.521
 2742SOL     OW10997   1.977   0.742   4.566
 2742SOL    HW210998   1.974   0.647   4.577
 2742SOL    HW310999   1.885   0.768   4.565
 2742SOL    MW411000   1.964   0.733   4.567
 2743SOL     OW11001   1.444   0.529   4.497
 2743SOL    HW211002   1.437   0.624   4.495
 2743SOL    HW311003   1.353   0.499   4.506
 2743SOL    MW411004   1.431   0.537   4.498
 2744SOL     OW11005   2.140   1.583   4.656
 2744SOL    HW211006   2.164   1.490   4.652
 2744SOL    HW311007   2.052   1.586   4.619
 2744SOL    MW411008   2.131   1.571   4.651
 2745SOL     OW11009   0.984   1.770   4.784
 2745SOL    HW211010   1.055   1.771   4.721
 2745SOL    HW311011   1.013   1.708   4.852
 2745SOL    MW411012   0.997   1.762   4.785
 2746SOL     OW11013   1.605   1.478   4.600
 2746SOL    HW211014   1.577   1.407   4.543
 2746SOL    HW311015   1.612   1.438   4.687
 2746SOL    MW411016   1.602   1.463   4.604
 2747SOL     OW11017   1.183   2.224   4.853
 2747SOL    HW211018   1.258   2.202   4.797
 2747SOL    HW311019   1.177   2.320   4.848
 2747SOL    MW411020   1.192   2.234   4.845
 2748SOL     OW11021   1.544   1.994   4.517
 2748SOL    HW211022   1.637   1.976   4.507
 2748SOL    HW311023   1.503   1.908   4.523
 2748SOL    MW411024   1.551   1.981   4.517
 2749SOL     OW11025   2.008   2.112   4.258
 2749SOL    HW211026   1.972   2.152   4.338
 2749SOL    HW311027   1.941   2.050   4.230
 2749SOL    MW411028   1.994   2.109   4.265
 2750SOL     OW11029   1.375   2.152   4.674
 2750SOL    HW211030   1.433   2.095   4.625
 2750SOL    HW311031   1.395   2.240   4.642
 2750SOL    MW411032   1.385   2.156   4.663
 2751SOL     OW11033   2.398   3.061   4.380
 2751SOL    HW211034   2.429   3.079   4.468
 2751SOL    HW311035   2.334   2.991   4.391
 2751SOL    MW411036   2.394   3.054   4.393
 2752SOL     OW11037   1.800   2.836   4.865
 2752SOL    HW211038   1.780   2.766   4.803
 2752SOL    HW311039   1.830   2.909   4.810
 2752SOL    MW411040   1.802   2.837   4.849
 2753SOL     OW11041   1.693   3.806   4.721
 2753SOL    HW211042   1.678   3.749   4.646
 2753SOL    HW311043   1.771   3.857   4.698
 2753SOL    MW411044   1.701   3.805   4.708
 2754SOL     OW11045   2.579   3.100   4.600
 2754SOL    HW211046   2.625   3.029   4.555
 2754SOL    HW311047   2.544   3.059   4.679
 2754SOL    MW411048   2.581   3.085   4.604
 2755SOL     OW11049   2.191   3.354   4.593
 2755SOL    HW211050   2.224   3.322   4.509
 2755SOL    HW311051   2.175   3.275   4.644
 2755SOL    MW411052   2.193   3.340   4.589
 2756SOL     OW11053   2.684   3.904   4.587
 2756SOL    HW211054   2.598   3.876   4.619
 2756SOL    HW311055   2.667   3.932   4.497
 2756SOL    MW411056   2.670   3.904   4.579
 2757SOL     OW11057   2.454   3.798   4.686
 2757SOL    HW211058   2.461   3.703   4.691
 2757SOL    HW311059   2.360   3.816   4.682
 2757SOL    MW411060   2.443   3.788   4.686
 2758SOL     OW11061   2.446   3.498   4.565
 2758SOL    HW211062   2.361   3.463   4.592
 2758SOL    HW311063   2.429   3.544   4.483
 2758SOL    MW411064   2.433   3.499   4.558
 2759SOL     OW11065   1.812   3.487   4.684
 2759SOL    HW211066   1.860   3.521   4.607
 2759SOL    HW311067   1.808   3.562   4.744
 2759SOL    MW411068   1.818   3.502   4.682
 2760SOL     OW11069   2.050   4.236   4.562
 2760SOL    HW211070   2.113   4.164   4.555
 2760SOL    HW311071   2.102   4.309   4.596
 2760SOL    MW411072   2.065   4.237   4.566
 2761SOL     OW11073   1.629   4.131   4.550
 2761SOL    HW211074   1.717   4.099   4.568
 2761SOL    HW311075   1.572   4.063   4.587
 2761SOL    MW411076   1.633   4.118   4.557
 2762SOL     OW11077   1.879   4.527   4.573
 2762SOL    HW211078   1.868   4.433   4.585
 2762SOL    HW311079   1.964   4.547   4.613
 2762SOL    MW411080   1.889   4.517   4.580
 2763SOL     OW11081   2.173   4.490   4.653
 2763SOL    HW211082   2.246   4.436   4.683
 2763SOL    HW311083   2.214   4.561   4.603
 2763SOL    MW411084   2.188   4.492   4.651
 2764SOL     OW11085   1.669   1.310   4.816
 2764SOL    HW211086   1.641   1.233   4.766
 2764SOL    HW311087   1.764   1.298   4.827
 2764SOL    MW411088   1.678   1.298   4.811
 2765SOL     OW11089   2.561   0.071   4.555
 2765SOL    HW211090   2.470   0.077   4.529
 2765SOL    HW311091   2.610   0.108   4.481
 2765SOL    MW411092   2.556   0.077   4.542
 2766SOL     OW11093   2.438   0.782   4.703
 2766SOL    HW211094   2.411   0.861   4.750
 2766SOL    HW311095   2.507   0.812   4.644
 2766SOL    MW411096   2.444   0.796   4.701
 2767SOL     OW11097   2.919   0.760   4.585
 2767SOL    HW211098   3.006   0.801   4.582
 2767SOL    HW311099   2.935   0.669   4.561
 2767SOL    MW411100   2.933   0.754   4.581
 2768SOL     OW11101   2.152   1.306   4.620
 2768SOL    HW211102   2.185   1.234   4.673
 2768SOL    HW311103   2.219   1.319   4.552
 2768SOL    MW411104   2.165   1.298   4.618
 2769SOL     OW11105   2.400   1.341   4.472
 2769SOL    HW211106   2.446   1.269   4.515
 2769SOL    HW311107   2.429   1.420   4.520
 2769SOL    MW411108   2.410   1.342   4.484
 2770SOL     OW11109   2.503   1.574   4.590
 2770SOL    HW211110   2.587   1.620   4.585
 2770SOL    HW311111   2.437   1.643   4.582
 2770SOL    MW411112   2.505   1.589   4.588
 2771SOL     OW11113   2.300   1.761   4.536
 2771SOL    HW211114   2.275   1.751   4.444
 2771SOL    HW311115   2.239   1.705   4.583
 2771SOL    MW411116   2.289   1.753   4.530
 2772SOL     OW11117   2.247   2.193   4.443
 2772SOL    HW211118   2.307   2.155   4.380
 2772SOL    HW311119   2.240   2.285   4.417
 2772SOL    MW411120   2.254   2.200   4.431
 2773SOL     OW11121   2.428   2.007   4.581
 2773SOL    HW211122   2.397   1.917   4.570
 2773SOL    HW311123   2.348   2.060   4.580
 2773SOL    MW411124   2.413   2.002   4.579
 2774SOL     OW11125   2.726   2.392   4.465
 2774SOL    HW211126   2.644   2.417   4.507
 2774SOL    HW311127   2.779   2.472   4.466
 2774SOL    MW411128   2.722   2.406   4.470
 2775SOL     OW11129   1.811   2.663   4.645
 2775SOL    HW211130   1.838   2.734   4.586
 2775SOL    HW311131   1.893   2.620   4.669
 2775SOL    MW411132   1.825   2.667   4.640
 2776SOL     OW11133   2.198   3.056   4.687
 2776SOL    HW211134   2.109   3.076   4.716
 2776SOL    HW311135   2.186   2.998   4.612
 2776SOL    MW411136   2.185   3.051   4.681
 2777SOL     OW11137   2.697   3.370   4.569
 2777SOL    HW211138   2.668   3.280   4.584
 2777SOL    HW311139   2.616   3.421   4.570
 2777SOL    MW411140   2.682   3.365   4.571
 2778SOL     OW11141   2.432   3.010   4.812
 2778SOL    HW211142   2.425   3.014   4.908
 2778SOL    HW311143   2.343   3.030   4.781
 2778SOL    MW411144   2.419   3.013   4.821
 2779SOL     OW11145   1.465   3.946   4.665
 2779SOL    HW211146   1.437   3.884   4.597
 2779SOL    HW311147   1.540   3.903   4.706
 2779SOL    MW411148   1.471   3.932   4.662
 2780SOL     OW11149   2.681   4.198   4.614
 2780SOL    HW211150   2.590   4.229   4.622
 2780SOL    HW311151   2.677   4.106   4.641
 2780SOL    MW411152   2.668   4.190   4.619
 2781SOL     OW11153   1.919   3.045   4.723
 2781SOL    HW211154   1.957   2.996   4.650
 2781SOL    HW311155   1.847   3.094   4.685
 2781SOL    MW411156   1.915   3.045   4.709
 2782SOL     OW11157   3.190   3.859   4.805
 2782SOL    HW211158   3.198   3.953   4.818
 2782SOL    HW311159   3.100   3.845   4.776
 2782SOL    MW411160   3.180   3.869   4.803
 2783SOL     OW11161   3.110   4.038   4.528
 2783SOL    HW211162   3.064   3.966   4.571
 2783SOL    HW311163   3.166   4.074   4.596
 2783SOL    MW411164   3.111   4.033   4.542
 2784SOL     OW11165   2.255   4.061   4.548
 2784SOL    HW211166   2.219   3.979   4.583
 2784SOL    HW311167   2.270   4.042   4.455
 2784SOL    MW411168   2.252   4.047   4.540
 2785SOL     OW11169   2.391   4.300   4.626
 2785SOL    HW211170   2.346   4.216   4.617
 2785SOL    HW311171   2.411   4.326   4.536
 2785SOL    MW411172   2.388   4.292   4.613
 2786SOL     OW11173   3.036   0.465   4.538
 2786SOL    HW211174   3.003   0.478   4.449
 2786SOL    HW311175   3.128   0.491   4.534
 2786SOL    MW411176   3.043   0.470   4.525
 2787SOL     OW11177   2.591   0.328   4.705
 2787SOL    HW211178   2.586   0.253   4.646
 2787SOL    HW311179   2.613   0.291   4.790
 2787SOL    MW411180   2.593   0.313   4.708
 2788SOL     OW11181   3.133   0.181   4.532
 2788SOL    HW211182   3.094   0.113   4.586
 2788SOL    HW311183   3.099   0.263   4.569
 2788SOL    MW411184   3.123   0.183   4.544
 2789SOL     OW11185   2.666   0.911   4.550
 2789SOL    HW211186   2.748   0.872   4.579
 2789SOL    HW311187   2.674   0.918   4.455
 2789SOL    MW411188   2.678   0.907   4.541
 2790SOL     OW11189   3.506   0.647   4.823
 2790SOL    HW211190   3.504   0.558   4.787
 2790SOL    HW311191   3.592   0.654   4.865
 2790SOL    MW411192   3.517   0.636   4.824
 2791SOL     OW11193   2.157   0.944   4.539
 2791SOL    HW211194   2.088   1.005   4.513
 2791SOL    HW311195   2.110   0.868   4.574
 2791SOL    MW411196   2.141   0.942   4.540
 2792SOL     OW11197   2.533   1.144   4.647
 2792SOL    HW211198   2.589   1.204   4.697
 2792SOL    HW311199   2.592   1.072   4.622
 2792SOL    MW411200   2.548   1.142   4.651
 2793SOL     OW11201   2.922   1.390   4.576
 2793SOL    HW211202   2.837   1.365   4.613
 2793SOL    HW311203   2.906   1.395   4.482
 2793SOL    MW411204   2.909   1.387   4.568
 2794SOL     OW11205   3.012   1.648   4.491
 2794SOL    HW211206   2.928   1.689   4.514
 2794SOL    HW311207   3.004   1.558   4.521
 2794SOL    MW411208   3.000   1.641   4.498
 2795SOL     OW11209   2.732   1.697   4.563
 2795SOL    HW211210   2.721   1.790   4.581
 2795SOL    HW311211   2.711   1.689   4.470
 2795SOL    MW411212   2.728   1.708   4.553
 2796SOL     OW11213   2.727   1.982   4.601
 2796SOL    HW211214   2.786   2.052   4.573
 2796SOL    HW311215   2.642   2.024   4.610
 2796SOL    MW411216   2.724   1.996   4.598
 2797SOL     OW11217   2.900   2.190   4.493
 2797SOL    HW211218   2.832   2.256   4.484
 2797SOL    HW311219   2.903   2.145   4.408
 2797SOL    MW411220   2.891   2.193   4.481
 2798SOL     OW11221   3.127   2.193   4.658
 2798SOL    HW211222   3.108   2.174   4.750
 2798SOL    HW311223   3.044   2.179   4.612
 2798SOL    MW411224   3.113   2.189   4.664
 2799SOL     OW11225   2.445   2.784   4.621
 2799SOL    HW211226   2.424   2.841   4.695
 2799SOL    HW311227   2.367   2.787   4.566
 2799SOL    MW411228   2.432   2.792   4.623
 2800SOL     OW11229   3.583   3.068   4.587
 2800SOL    HW211230   3.494   3.034   4.581
 2800SOL    HW311231   3.572   3.163   4.593
 2800SOL    MW411232   3.570   3.076   4.587
 2801SOL     OW11233   2.682   2.834   4.492
 2801SOL    HW211234   2.602   2.793   4.525
 2801SOL    HW311235   2.669   2.840   4.398
 2801SOL    MW411236   2.670   2.829   4.484
 2802SOL     OW11237   2.933   3.526   4.572
 2802SOL    HW211238   3.003   3.462   4.580
 2802SOL    HW311239   2.854   3.479   4.597
 2802SOL    MW411240   2.932   3.511   4.576
 2803SOL     OW11241   2.946   2.929   4.551
 2803SOL    HW211242   2.995   2.847   4.550
 2803SOL    HW311243   2.854   2.901   4.547
 2803SOL    MW411244   2.941   2.914   4.550
 2804SOL     OW11245   2.711   4.517   4.640
 2804SOL    HW211246   2.670   4.435   4.667
 2804SOL    HW311247   2.639   4.572   4.609
 2804SOL    MW411248   2.696   4.514   4.639
 2805SOL     OW11249   3.376   3.834   4.605
 2805SOL    HW211250   3.384   3.739   4.592
 2805SOL    HW311251   3.318   3.843   4.681
 2805SOL    MW411252   3.369   3.823   4.614
 2806SOL     OW11253   3.959   3.710   4.626
 2806SOL    HW211254   3.935   3.712   4.718
 2806SOL    HW311255   3.928   3.625   4.594
 2806SOL    MW411256   3.952   3.699   4.634
 2807SOL     OW11257   2.951   3.825   4.643
 2807SOL    HW211258   2.866   3.858   4.614
 2807SOL    HW311259   2.946   3.730   4.632
 2807SOL    MW411260   2.939   3.817   4.637
 2808SOL     OW11261   2.937   4.272   4.570
 2808SOL    HW211262   2.847   4.247   4.591
 2808SOL    HW311263   2.981   4.190   4.548
 2808SOL    MW411264   2.931   4.258   4.570
 2809SOL     OW11265   2.929   0.028   4.670
 2809SOL    HW211266   2.894   0.117   4.672
 2809SOL    HW311267   2.851  -0.028   4.674
 2809SOL    MW411268   2.914   0.032   4.671
 2810SOL     OW11269   3.316   0.533   4.505
 2810SOL    HW211270   3.333   0.503   4.415
 2810SOL    HW311271   3.355   0.620   4.508
 2810SOL    MW411272   3.324   0.540   4.493
 2811SOL     OW11273   2.402   0.502   4.605
 2811SOL    HW211274   2.472   0.452   4.647
 2811SOL    HW311275   2.406   0.588   4.647
 2811SOL    MW411276   2.412   0.507   4.616
 2812SOL     OW11277   2.276   1.080   4.745
 2812SOL    HW211278   2.363   1.107   4.714
 2812SOL    HW311279   2.244   1.020   4.678
 2812SOL    MW411280   2.283   1.076   4.732
 2813SOL     OW11281   2.862   0.303   4.652
 2813SOL    HW211282   2.773   0.338   4.647
 2813SOL    HW311283   2.919   0.377   4.633
 2813SOL    MW411284   2.858   0.317   4.649
 2814SOL     OW11285   3.409   0.795   4.619
 2814SOL    HW211286   3.463   0.874   4.623
 2814SOL    HW311287   3.443   0.739   4.689
 2814SOL    MW411288   3.421   0.798   4.629
 2815SOL     OW11289   3.384   1.261   4.529
 2815SOL    HW211290   3.316   1.255   4.596
 2815SOL    HW311291   3.442   1.187   4.546
 2815SOL    MW411292   3.383   1.251   4.540
 2816SOL     OW11293   2.664   1.381   4.717
 2816SOL    HW211294   2.704   1.427   4.790
 2816SOL    HW311295   2.612   1.448   4.672
 2816SOL    MW411296   2.662   1.396   4.720
 2817SOL     OW11297   3.991   0.933   4.561
 2817SOL    HW211298   4.005   0.923   4.467
 2817SOL    HW311299   4.059   0.993   4.589
 2817SOL    MW411300   4.002   0.940   4.552
 2818SOL     OW11301   3.494   1.528   4.521
 2818SOL    HW211302   3.414   1.575   4.544
 2818SOL    HW311303   3.475   1.437   4.542
 2818SOL    MW411304   3.481   1.522   4.527
 2819SOL     OW11305   3.291   1.710   4.568
 2819SOL    HW211306   3.302   1.804   4.551
 2819SOL    HW311307   3.200   1.693   4.546
 2819SOL    MW411308   3.281   1.720   4.563
 2820SOL     OW11309   3.286   1.998   4.552
 2820SOL    HW211310   3.231   2.063   4.595
 2820SOL    HW311311   3.310   2.038   4.468
 2820SOL    MW411312   3.282   2.012   4.546
 2821SOL     OW11313   3.670   1.799   4.665
 2821SOL    HW211314   3.613   1.738   4.712
 2821SOL    HW311315   3.684   1.758   4.580
 2821SOL    MW411316   3.664   1.786   4.660
 2822SOL     OW11317   2.853   2.636   4.403
 2822SOL    HW211318   2.797   2.695   4.453
 2822SOL    HW311319   2.942   2.666   4.421
 2822SOL    MW411320   2.857   2.648   4.412
 2823SOL     OW11321   3.493   2.471   4.492
 2823SOL    HW211322   3.398   2.461   4.487
 2823SOL    HW311323   3.506   2.559   4.529
 2823SOL    MW411324   3.482   2.482   4.496
 2824SOL     OW11325   3.218   2.434   4.503
 2824SOL    HW211326   3.163   2.434   4.425
 2824SOL    HW311327   3.194   2.354   4.549
 2824SOL    MW411328   3.208   2.424   4.499
 2825SOL     OW11329   3.606   2.705   4.610
 2825SOL    HW211330   3.685   2.730   4.564
 2825SOL    HW311331   3.636   2.645   4.679
 2825SOL    MW411332   3.620   2.700   4.613
 2826SOL     OW11333   3.034   3.146   4.701
 2826SOL    HW211334   3.095   3.115   4.768
 2826SOL    HW311335   3.000   3.067   4.659
 2826SOL    MW411336   3.038   3.132   4.704
 2827SOL     OW11337   3.372   2.862   4.558
 2827SOL    HW211338   3.377   2.849   4.463
 2827SOL    HW311339   3.450   2.818   4.592
 2827SOL    MW411340   3.383   2.854   4.550
 2828SOL     OW11341   4.213   2.589   4.487
 2828SOL    HW211342   4.307   2.572   4.491
 2828SOL    HW311343   4.201   2.671   4.535
 2828SOL    MW411344   4.224   2.598   4.494
 2829SOL     OW11345   3.594   3.343   4.528
 2829SOL    HW211346   3.671   3.388   4.562
 2829SOL    HW311347   3.627   3.294   4.453
 2829SOL    MW411348   3.608   3.343   4.522
 2830SOL     OW11349   3.539   4.068   4.575
 2830SOL    HW211350   3.607   4.049   4.640
 2830SOL    HW311351   3.479   3.995   4.583
 2830SOL    MW411352   3.540   4.056   4.585
 2831SOL     OW11353   3.240   4.138   4.757
 2831SOL    HW211354   3.318   4.164   4.707
 2831SOL    HW311355   3.213   4.219   4.802
 2831SOL    MW411356   3.247   4.152   4.756
 2832SOL     OW11357   3.093   4.432   4.734
 2832SOL    HW211358   3.040   4.373   4.681
 2832SOL    HW311359   3.034   4.503   4.758
 2832SOL    MW411360   3.078   4.434   4.730
 2833SOL     OW11361   3.509   4.338   4.538
 2833SOL    HW211362   3.520   4.243   4.548
 2833SOL    HW311363   3.598   4.373   4.535
 2833SOL    MW411364   3.522   4.330   4.539
 2834SOL     OW11365   3.796   3.984   4.656
 2834SOL    HW211366   3.803   3.904   4.604
 2834SOL    HW311367   3.829   3.960   4.742
 2834SOL    MW411368   3.801   3.971   4.661
 2835SOL     OW11369   3.397   0.139   4.633
 2835SOL    HW211370   3.387   0.048   4.661
 2835SOL    HW311371   3.315   0.159   4.588
 2835SOL    MW411372   3.385   0.130   4.631
 2836SOL     OW11373   3.162   0.898   4.561
 2836SOL    HW211374   3.157   0.983   4.605
 2836SOL    HW311375   3.243   0.859   4.595
 2836SOL    MW411376   3.172   0.904   4.572
 2837SOL     OW11377   3.145   1.202   4.683
 2837SOL    HW211378   3.134   1.242   4.769
 2837SOL    HW311379   3.083   1.248   4.626
 2837SOL    MW411380   3.136   1.213   4.687
 2838SOL     OW11381   4.040   1.500   4.652
 2838SOL    HW211382   4.089   1.439   4.596
 2838SOL    HW311383   3.949   1.473   4.643
 2838SOL    MW411384   4.035   1.488   4.643
 2839SOL     OW11385   3.809   1.153   4.574
 2839SOL    HW211386   3.839   1.228   4.521
 2839SOL    HW311387   3.865   1.081   4.547
 2839SOL    MW411388   3.820   1.154   4.563
 2840SOL     OW11389   4.458   0.927   4.546
 2840SOL    HW211390   4.459   0.915   4.451
 2840SOL    HW311391   4.447   0.839   4.581
 2840SOL    MW411392   4.457   0.914   4.538
 2841SOL     OW11393   4.230   0.524   4.525
 2841SOL    HW211394   4.230   0.528   4.429
 2841SOL    HW311395   4.144   0.491   4.548
 2841SOL    MW411396   4.219   0.520   4.515
 2842SOL     OW11397   3.734   1.750   4.397
 2842SOL    HW211398   3.805   1.686   4.394
 2842SOL    HW311399   3.680   1.730   4.320
 2842SOL    MW411400   3.736   1.739   4.387
 2843SOL     OW11401   3.928   1.938   4.672
 2843SOL    HW211402   3.845   1.891   4.673
 2843SOL    HW311403   3.906   2.025   4.637
 2843SOL    MW411404   3.914   1.944   4.667
 2844SOL     OW11405   3.560   2.054   4.614
 2844SOL    HW211406   3.603   1.971   4.636
 2844SOL    HW311407   3.467   2.035   4.622
 2844SOL    MW411408   3.553   2.041   4.618
 2845SOL     OW11409   4.311   2.195   4.775
 2845SOL    HW211410   4.299   2.100   4.764
 2845SOL    HW311411   4.318   2.207   4.869
 2845SOL    MW411412   4.311   2.184   4.786
 2846SOL     OW11413   4.220   1.949   4.703
 2846SOL    HW211414   4.125   1.947   4.709
 2846SOL    HW311415   4.248   1.864   4.738
 2846SOL    MW411416   4.211   1.937   4.709
 2847SOL     OW11417   3.909   2.212   4.605
 2847SOL    HW211418   3.972   2.275   4.640
 2847SOL    HW311419   3.825   2.240   4.642
 2847SOL    MW411420   3.906   2.224   4.614
 2848SOL     OW11421   3.658   2.551   4.843
 2848SOL    HW211422   3.646   2.461   4.814
 2848SOL    HW311423   3.640   2.549   4.937
 2848SOL    MW411424   3.654   2.539   4.851
 2849SOL     OW11425   3.789   2.918   4.501
 2849SOL    HW211426   3.859   2.968   4.543
 2849SOL    HW311427   3.709   2.967   4.521
 2849SOL    MW411428   3.788   2.931   4.509
 2850SOL     OW11429   3.997   3.046   4.643
 2850SOL    HW211430   3.953   2.999   4.714
 2850SOL    HW311431   4.068   2.988   4.616
 2850SOL    MW411432   4.000   3.032   4.649
 2851SOL     OW11433   3.146   3.347   4.572
 2851SOL    HW211434   3.119   3.272   4.627
 2851SOL    HW311435   3.184   3.306   4.494
 2851SOL    MW411436   3.148   3.331   4.569
 2852SOL     OW11437   4.072   3.310   4.558
 2852SOL    HW211438   4.051   3.227   4.600
 2852SOL    HW311439   4.094   3.286   4.468
 2852SOL    MW411440   4.072   3.296   4.551
 2853SOL     OW11441   3.379   3.533   4.556
 2853SOL    HW211442   3.299   3.483   4.564
 2853SOL    HW311443   3.449   3.468   4.559
 2853SOL    MW411444   3.378   3.518   4.557
 2854SOL     OW11445   3.846   3.467   4.557
 2854SOL    HW211446   3.837   3.507   4.470
 2854SOL    HW311447   3.925   3.413   4.550
 2854SOL    MW411448   3.855   3.465   4.545
 2855SOL     OW11449   4.480   2.906   4.622
 2855SOL    HW211450   4.548   2.854   4.580
 2855SOL    HW311451   4.507   2.997   4.607
 2855SOL    MW411452   4.493   2.911   4.615
 2856SOL     OW11453   4.118   3.936   4.524
 2856SOL    HW211454   4.105   4.013   4.580
 2856SOL    HW311455   4.055   3.872   4.557
 2856SOL    MW411456   4.108   3.938   4.536
 2857SOL     OW11457   3.782   4.426   4.542
 2857SOL    HW211458   3.794   4.407   4.449
 2857SOL    HW311459   3.759   4.519   4.545
 2857SOL    MW411460   3.780   4.436   4.530
 2858SOL     OW11461   3.349   4.543   4.666
 2858SOL    HW211462   3.379   4.487   4.594
 2858SOL    HW311463   3.282   4.491   4.710
 2858SOL    MW411464   3.344   4.528   4.663
 2859SOL     OW11465   3.572   1.039   4.573
 2859SOL    HW211466   3.652   1.090   4.574
 2859SOL    HW311467   3.571   0.997   4.487
 2859SOL    MW411468   3.582   1.040   4.562
 2860SOL     OW11469   3.758   0.782   4.622
 2860SOL    HW211470   3.842   0.819   4.594
 2860SOL    HW311471   3.706   0.857   4.647
 2860SOL    MW411472   3.762   0.796   4.622
 2861SOL     OW11473   4.421   0.307   4.540
 2861SOL    HW211474   4.507   0.348   4.544
 2861SOL    HW311475   4.359   0.380   4.544
 2861SOL    MW411476   4.424   0.322   4.541
 2862SOL     OW11477   0.170   0.472   4.526
 2862SOL    HW211478   0.230   0.421   4.580
 2862SOL    HW311479   0.202   0.462   4.437
 2862SOL    MW411480   0.182   0.464   4.521
 2863SOL     OW11481   4.002   0.379   4.577
 2863SOL    HW211482   3.923   0.428   4.600
 2863SOL    HW311483   3.969   0.295   4.546
 2863SOL    MW411484   3.987   0.375   4.576
 2864SOL     OW11485   3.779   1.462   4.538
 2864SOL    HW211486   3.766   1.413   4.457
 2864SOL    HW311487   3.691   1.484   4.568
 2864SOL    MW411488   3.766   1.459   4.531
 2865SOL     OW11489   4.450   1.498   4.556
 2865SOL    HW211490   4.505   1.446   4.498
 2865SOL    HW311491   4.461   1.588   4.526
 2865SOL    MW411492   4.459   1.503   4.545
 2866SOL     OW11493   0.185   1.368   4.429
 2866SOL    HW211494   0.179   1.298   4.494
 2866SOL    HW311495   0.243   1.433   4.469
 2866SOL    MW411496   0.192   1.367   4.443
 2867SOL     OW11497   4.042   1.735   4.491
 2867SOL    HW211498   4.052   1.649   4.531
 2867SOL    HW311499   4.008   1.791   4.561
 2867SOL    MW411500   4.039   1.731   4.506
 2868SOL     OW11501   3.133   2.704   4.512
 2868SOL    HW211502   3.212   2.756   4.530
 2868SOL    HW311503   3.162   2.613   4.522
 2868SOL    MW411504   3.147   2.699   4.516
 2869SOL     OW11505   4.278   2.051   4.200
 2869SOL    HW211506   4.194   2.013   4.173
 2869SOL    HW311507   4.284   2.032   4.294
 2869SOL    MW411508   4.268   2.043   4.209
 2870SOL     OW11509   0.028   2.226   4.565
 2870SOL    HW211510  -0.019   2.220   4.648
 2870SOL    HW311511   0.016   2.317   4.537
 2870SOL    MW411512   0.020   2.237   4.572
 2871SOL     OW11513   4.360   1.997   4.455
 2871SOL    HW211514   4.290   1.974   4.516
 2871SOL    HW311515   4.413   2.061   4.502
 2871SOL    MW411516   4.358   2.002   4.470
 2872SOL     OW11517   3.634   2.319   4.670
 2872SOL    HW211518   3.596   2.360   4.592
 2872SOL    HW311519   3.608   2.227   4.663
 2872SOL    MW411520   3.625   2.312   4.659
 2873SOL     OW11521   0.471   2.626   4.556
 2873SOL    HW211522   0.447   2.533   4.555
 2873SOL    HW311523   0.560   2.628   4.590
 2873SOL    MW411524   0.480   2.614   4.560
 2874SOL     OW11525   4.202   2.869   4.577
 2874SOL    HW211526   4.292   2.882   4.606
 2874SOL    HW311527   4.206   2.882   4.482
 2874SOL    MW411528   4.215   2.872   4.568
 2875SOL     OW11529   0.049   3.179   4.541
 2875SOL    HW211530   0.038   3.195   4.448
 2875SOL    HW311531   0.144   3.179   4.555
 2875SOL    MW411532   0.060   3.181   4.531
 2876SOL     OW11533   0.224   3.624   4.606
 2876SOL    HW211534   0.223   3.623   4.510
 2876SOL    HW311535   0.135   3.598   4.631
 2876SOL    MW411536   0.212   3.620   4.597
 2877SOL     OW11537   4.138   4.642   4.653
 2877SOL    HW211538   4.064   4.692   4.617
 2877SOL    HW311539   4.155   4.682   4.738
 2877SOL    MW411540   4.130   4.654   4.659
 2878SOL     OW11541   3.655   0.018   4.538
 2878SOL    HW211542   3.593   0.061   4.597
 2878SOL    HW311543   3.620   0.035   4.450
 2878SOL    MW411544   3.642   0.026   4.534
 2879SOL     OW11545   4.149   3.923   4.920
 2879SOL    HW211546   4.136   4.010   4.881
 2879SOL    HW311547   4.207   3.878   4.859
 2879SOL    MW411548   4.155   3.929   4.906
 2880SOL     OW11549   3.479   0.415   4.672
 2880SOL    HW211550   3.409   0.453   4.619
 2880SOL    HW311551   3.455   0.322   4.680
 2880SOL    MW411552   3.467   0.407   4.666
 2881SOL     OW11553   4.302   4.376   4.190
 2881SOL    HW211554   4.372   4.316   4.163
 2881SOL    HW311555   4.310   4.381   4.286
 2881SOL    MW411556   4.312   4.369   4.199
 2882NA      NA11557   2.558   4.354   0.614
 2883NA      NA11558   0.709   2.527   0.370
   4.49070   4.66690  10.00000
