Gromacs Runs On Most of All Computer Systems in water t= 600.00000 step= 600000
11558
    1RG35     P    1   2.135   2.858   4.445
    1RG35   O1P    2   2.131   2.776   4.326
    1RG35   O2P    3   2.076   2.990   4.428
    1RG35   O5'    4   2.061   2.783   4.563
    1RG35   C5'    5   1.923   2.766   4.558
    1RG35  H5'1    6   1.891   2.753   4.454
    1RG35  H5'2    7   1.888   2.862   4.597
    1RG35   C4'    8   1.867   2.655   4.647
    1RG35   H4'    9   1.767   2.689   4.675
    1RG35   O4'   10   1.865   2.537   4.569
    1RG35   C1'   11   1.937   2.442   4.650
    1RG35   H1'   12   1.865   2.389   4.711
    1RG35    N9   13   2.005   2.354   4.558
    1RG35    C8   14   2.087   2.390   4.454
    1RG35    H8   15   2.121   2.491   4.435
    1RG35    N7   16   2.102   2.290   4.368
    1RG35    C5   17   2.036   2.182   4.419
    1RG35    C6   18   2.019   2.043   4.377
    1RG35    O6   19   2.068   1.986   4.283
    1RG35    N1   20   1.938   1.972   4.461
    1RG35    H1   21   1.945   1.873   4.443
    1RG35    C2   22   1.872   2.022   4.567
    1RG35    N2   23   1.792   1.949   4.637
    1RG35   H21   24   1.769   1.855   4.607
    1RG35   H22   25   1.734   1.999   4.702
    1RG35    N3   26   1.891   2.144   4.611
    1RG35    C4   27   1.973   2.221   4.533
    1RG35   C3'   28   1.947   2.633   4.779
    1RG35   H3'   29   2.008   2.720   4.805
    1RG35   C2'   30   2.036   2.518   4.742
    1RG35  H2'1   31   2.120   2.560   4.686
    1RG35   O2'   32   2.072   2.429   4.852
    1RG35  HO'2   33   2.153   2.387   4.823
    1RG35   O3'   34   1.864   2.592   4.888
    1RG35   H3T   35   1.919   2.527   4.934
    1RG35   O3P   36   2.273   2.870   4.500
    2SOL     OW   37   0.484   0.090   0.287
    2SOL    HW2   38   0.490   0.002   0.322
    2SOL    HW3   39   0.567   0.132   0.312
    2SOL    MW4   40   0.496   0.084   0.295
    3SOL     OW   41   4.090   0.081   0.484
    3SOL    HW2   42   4.173   0.112   0.450
    3SOL    HW3   43   4.096  -0.015   0.480
    3SOL    MW4   44   4.102   0.072   0.479
    4SOL     OW   45   3.834   0.464   0.485
    4SOL    HW2   46   3.764   0.521   0.454
    4SOL    HW3   47   3.853   0.496   0.574
    4SOL    MW4   48   3.827   0.476   0.493
    5SOL     OW   49   0.649   1.503   0.406
    5SOL    HW2   50   0.700   1.422   0.403
    5SOL    HW3   51   0.559   1.475   0.392
    5SOL    MW4   52   0.644   1.489   0.404
    6SOL     OW   53   1.387   0.790   0.472
    6SOL    HW2   54   1.366   0.842   0.549
    6SOL    HW3   55   1.476   0.814   0.449
    6SOL    MW4   56   1.396   0.800   0.479
    7SOL     OW   57   0.252   0.473   0.485
    7SOL    HW2   58   0.256   0.487   0.579
    7SOL    HW3   59   0.275   0.381   0.473
    7SOL    MW4   60   0.256   0.463   0.496
    8SOL     OW   61   0.437   0.949   0.448
    8SOL    HW2   62   0.448   0.935   0.542
    8SOL    HW3   63   0.458   0.865   0.409
    8SOL    MW4   64   0.441   0.936   0.455
    9SOL     OW   65   0.897   0.834   0.428
    9SOL    HW2   66   0.902   0.829   0.524
    9SOL    HW3   67   0.845   0.913   0.411
    9SOL    MW4   68   0.891   0.844   0.438
   10SOL     OW   69   0.705   1.027   0.337
   10SOL    HW2   70   0.681   1.030   0.244
   10SOL    HW3   71   0.621   1.022   0.383
   10SOL    MW4   72   0.691   1.026   0.331
   11SOL     OW   73   4.384   1.627   0.284
   11SOL    HW2   74   4.300   1.673   0.293
   11SOL    HW3   75   4.359   1.536   0.265
   11SOL    MW4   76   4.369   1.621   0.283
   12SOL     OW   77   4.102   2.372   0.587
   12SOL    HW2   78   4.009   2.355   0.603
   12SOL    HW3   79   4.104   2.458   0.546
   12SOL    MW4   80   4.090   2.381   0.584
   13SOL     OW   81   0.135   1.586   0.472
   13SOL    HW2   82   0.110   1.612   0.561
   13SOL    HW3   83   0.057   1.603   0.419
   13SOL    MW4   84   0.121   1.592   0.477
   14SOL     OW   85   0.679   2.325   0.237
   14SOL    HW2   86   0.771   2.332   0.263
   14SOL    HW3   87   0.659   2.408   0.194
   14SOL    MW4   88   0.688   2.337   0.234
   15SOL     OW   89   0.221   2.731   0.440
   15SOL    HW2   90   0.202   2.824   0.427
   15SOL    HW3   91   0.313   2.722   0.418
   15SOL    MW4   92   0.230   2.742   0.435
   16SOL     OW   93   4.153   3.363   0.452
   16SOL    HW2   94   4.198   3.312   0.385
   16SOL    HW3   95   4.146   3.304   0.527
   16SOL    MW4   96   4.158   3.348   0.453
   17SOL     OW   97   0.217   3.018   0.432
   17SOL    HW2   98   0.306   3.046   0.455
   17SOL    HW3   99   0.170   3.100   0.415
   17SOL    MW4  100   0.222   3.033   0.433
   18SOL     OW  101   0.619   3.288   0.348
   18SOL    HW2  102   0.707   3.265   0.376
   18SOL    HW3  103   0.600   3.369   0.395
   18SOL    MW4  104   0.628   3.296   0.358
   19SOL     OW  105   0.746   3.743   0.431
   19SOL    HW2  106   0.799   3.785   0.363
   19SOL    HW3  107   0.696   3.815   0.471
   19SOL    MW4  108   0.747   3.758   0.428
   20SOL     OW  109   4.215   3.874   0.427
   20SOL    HW2  110   4.243   3.911   0.510
   20SOL    HW3  111   4.229   3.780   0.436
   20SOL    MW4  112   4.221   3.866   0.439
   21SOL     OW  113   0.153   3.812   0.206
   21SOL    HW2  114   0.216   3.847   0.269
   21SOL    HW3  115   0.201   3.813   0.122
   21SOL    MW4  116   0.168   3.816   0.203
   22SOL     OW  117   4.477   4.492   0.429
   22SOL    HW2  118   4.432   4.445   0.359
   22SOL    HW3  119   4.422   4.479   0.506
   22SOL    MW4  120   4.463   4.484   0.430
   23SOL     OW  121   4.313   4.303   0.286
   23SOL    HW2  122   4.346   4.223   0.246
   23SOL    HW3  123   4.222   4.283   0.307
   23SOL    MW4  124   4.305   4.290   0.283
   24SOL     OW  125   4.430   3.998   0.249
   24SOL    HW2  126   4.360   3.959   0.302
   24SOL    HW3  127   4.492   3.927   0.235
   24SOL    MW4  128   4.429   3.983   0.254
   25SOL     OW  129   0.480   3.071   0.496
   25SOL    HW2  130   0.465   3.125   0.573
   25SOL    HW3  131   0.496   3.134   0.425
   25SOL    MW4  132   0.480   3.087   0.497
   26SOL     OW  133   0.500   4.480   0.394
   26SOL    HW2  134   0.496   4.545   0.464
   26SOL    HW3  135   0.423   4.425   0.408
   26SOL    MW4  136   0.489   4.481   0.405
   27SOL     OW  137   0.288   0.171   0.473
   27SOL    HW2  138   0.202   0.140   0.446
   27SOL    HW3  139   0.345   0.155   0.398
   27SOL    MW4  140   0.284   0.165   0.460
   28SOL     OW  141   0.035   0.606   0.410
   28SOL    HW2  142   0.060   0.615   0.319
   28SOL    HW3  143   0.111   0.567   0.453
   28SOL    MW4  144   0.048   0.602   0.404
   29SOL     OW  145   1.172   4.543   0.387
   29SOL    HW2  146   1.158   4.448   0.392
   29SOL    HW3  147   1.212   4.557   0.302
   29SOL    MW4  148   1.175   4.532   0.377
   30SOL     OW  149   1.164   0.871   0.308
   30SOL    HW2  150   1.084   0.837   0.349
   30SOL    HW3  151   1.235   0.829   0.355
   30SOL    MW4  152   1.163   0.861   0.319
   31SOL     OW  153   0.689   0.495   0.402
   31SOL    HW2  154   0.764   0.538   0.362
   31SOL    HW3  155   0.703   0.402   0.385
   31SOL    MW4  156   0.701   0.488   0.395
   32SOL     OW  157   0.312   1.195   0.424
   32SOL    HW2  158   0.341   1.105   0.410
   32SOL    HW3  159   0.218   1.193   0.409
   32SOL    MW4  160   0.304   1.183   0.420
   33SOL     OW  161   0.111   2.168   0.400
   33SOL    HW2  162   0.053   2.240   0.374
   33SOL    HW3  163   0.093   2.099   0.336
   33SOL    MW4  164   0.101   2.169   0.388
   34SOL     OW  165   0.489   1.895   0.236
   34SOL    HW2  166   0.406   1.866   0.273
   34SOL    HW3  167   0.550   1.823   0.253
   34SOL    MW4  168   0.486   1.882   0.243
   35SOL     OW  169   0.942   2.613   0.206
   35SOL    HW2  170   1.024   2.565   0.218
   35SOL    HW3  171   0.964   2.704   0.228
   35SOL    MW4  172   0.956   2.619   0.211
   36SOL     OW  173   0.651   2.590   0.165
   36SOL    HW2  174   0.632   2.638   0.085
   36SOL    HW3  175   0.744   2.606   0.181
   36SOL    MW4  176   0.661   2.598   0.157
   37SOL     OW  177   3.906   2.167   0.217
   37SOL    HW2  178   3.880   2.076   0.202
   37SOL    HW3  179   3.991   2.161   0.259
   37SOL    MW4  180   3.914   2.154   0.220
   38SOL     OW  181   1.464   2.488   0.393
   38SOL    HW2  182   1.433   2.411   0.442
   38SOL    HW3  183   1.507   2.451   0.315
   38SOL    MW4  184   1.465   2.473   0.389
   39SOL     OW  185   0.513   2.416   0.491
   39SOL    HW2  186   0.512   2.509   0.472
   39SOL    HW3  187   0.604   2.390   0.481
   39SOL    MW4  188   0.525   2.425   0.487
   40SOL     OW  189   4.319   3.188   0.268
   40SOL    HW2  190   4.365   3.135   0.203
   40SOL    HW3  191   4.252   3.130   0.304
   40SOL    MW4  192   4.316   3.174   0.264
   41SOL     OW  193   0.506   2.691   0.416
   41SOL    HW2  194   0.548   2.668   0.334
   41SOL    HW3  195   0.565   2.754   0.457
   41SOL    MW4  196   0.519   2.696   0.411
   42SOL     OW  197   0.921   0.356   0.095
   42SOL    HW2  198   0.979   0.355   0.019
   42SOL    HW3  199   0.923   0.447   0.126
   42SOL    MW4  200   0.929   0.368   0.089
   43SOL     OW  201   0.280   3.641   0.554
   43SOL    HW2  202   0.300   3.733   0.537
   43SOL    HW3  203   0.363   3.596   0.538
   43SOL    MW4  204   0.294   3.647   0.550
   44SOL     OW  205   0.544   3.543   0.511
   44SOL    HW2  206   0.576   3.616   0.459
   44SOL    HW3  207   0.583   3.557   0.598
   44SOL    MW4  208   0.553   3.555   0.516
   45SOL     OW  209   1.176   3.691   0.518
   45SOL    HW2  210   1.107   3.629   0.494
   45SOL    HW3  211   1.258   3.643   0.502
   45SOL    MW4  212   1.178   3.676   0.513
   46SOL     OW  213   0.247   4.367   0.457
   46SOL    HW2  214   0.162   4.413   0.451
   46SOL    HW3  215   0.225   4.275   0.445
   46SOL    MW4  216   0.233   4.361   0.455
   47SOL     OW  217   0.940   3.537   0.498
   47SOL    HW2  218   0.884   3.606   0.463
   47SOL    HW3  219   0.918   3.533   0.591
   47SOL    MW4  220   0.930   3.545   0.506
   48SOL     OW  221   0.687   4.238   0.460
   48SOL    HW2  222   0.635   4.285   0.394
   48SOL    HW3  223   0.680   4.292   0.539
   48SOL    MW4  224   0.679   4.251   0.462
   49SOL     OW  225   0.724   0.223   0.326
   49SOL    HW2  226   0.785   0.153   0.352
   49SOL    HW3  227   0.741   0.236   0.233
   49SOL    MW4  228   0.734   0.215   0.317
   50SOL     OW  229   0.919   0.600   0.262
   50SOL    HW2  230   0.915   0.684   0.308
   50SOL    HW3  231   0.975   0.545   0.317
   50SOL    MW4  232   0.926   0.604   0.275
   51SOL     OW  233   0.454   0.671   0.377
   51SOL    HW2  234   0.376   0.616   0.384
   51SOL    HW3  235   0.527   0.610   0.387
   51SOL    MW4  236   0.453   0.656   0.379
   52SOL     OW  237   1.377   0.508   0.451
   52SOL    HW2  238   1.418   0.486   0.535
   52SOL    HW3  239   1.384   0.603   0.446
   52SOL    MW4  240   1.384   0.517   0.462
   53SOL     OW  241   1.911   0.832   0.430
   53SOL    HW2  242   1.886   0.847   0.521
   53SOL    HW3  243   1.832   0.852   0.379
   53SOL    MW4  244   1.897   0.837   0.435
   54SOL     OW  245   1.469   0.041   0.143
   54SOL    HW2  246   1.462   0.121   0.194
   54SOL    HW3  247   1.555   0.005   0.166
   54SOL    MW4  248   1.480   0.047   0.153
   55SOL     OW  249   0.884   1.655   0.436
   55SOL    HW2  250   0.806   1.603   0.418
   55SOL    HW3  251   0.896   1.647   0.531
   55SOL    MW4  252   0.875   1.647   0.446
   56SOL     OW  253   0.810   1.287   0.405
   56SOL    HW2  254   0.792   1.197   0.380
   56SOL    HW3  255   0.906   1.291   0.410
   56SOL    MW4  256   0.821   1.276   0.403
   57SOL     OW  257   1.325   1.538   0.161
   57SOL    HW2  258   1.286   1.537   0.074
   57SOL    HW3  259   1.251   1.554   0.220
   57SOL    MW4  260   1.310   1.540   0.158
   58SOL     OW  261   1.089   1.311   0.430
   58SOL    HW2  262   1.130   1.256   0.364
   58SOL    HW3  263   1.135   1.395   0.422
   58SOL    MW4  264   1.101   1.315   0.420
   59SOL     OW  265   1.158   1.584   0.371
   59SOL    HW2  266   1.214   1.660   0.381
   59SOL    HW3  267   1.070   1.615   0.394
   59SOL    MW4  268   1.154   1.598   0.375
   60SOL     OW  269   4.436   2.367   0.287
   60SOL    HW2  270   4.436   2.435   0.354
   60SOL    HW3  271   4.440   2.414   0.204
   60SOL    MW4  272   4.437   2.382   0.285
   61SOL     OW  273   0.017   1.899   0.296
   61SOL    HW2  274   0.099   1.873   0.339
   61SOL    HW3  275  -0.005   1.826   0.238
   61SOL    MW4  276   0.025   1.886   0.294
   62SOL     OW  277   0.668   2.061   0.477
   62SOL    HW2  278   0.706   2.143   0.507
   62SOL    HW3  279   0.743   2.003   0.462
   62SOL    MW4  280   0.683   2.064   0.479
   63SOL     OW  281   0.768   2.032   0.140
   63SOL    HW2  282   0.827   2.085   0.086
   63SOL    HW3  283   0.826   1.995   0.207
   63SOL    MW4  284   0.784   2.034   0.142
   64SOL     OW  285   0.798   2.300   0.552
   64SOL    HW2  286   0.871   2.317   0.492
   64SOL    HW3  287   0.829   2.333   0.637
   64SOL    MW4  288   0.812   2.306   0.556
   65SOL     OW  289   0.999   2.271   0.352
   65SOL    HW2  290   1.053   2.192   0.358
   65SOL    HW3  291   1.062   2.342   0.337
   65SOL    MW4  292   1.014   2.270   0.351
   66SOL     OW  293   0.686   2.873   0.523
   66SOL    HW2  294   0.621   2.942   0.513
   66SOL    HW3  295   0.706   2.872   0.616
   66SOL    MW4  296   0.680   2.882   0.534
   67SOL     OW  297   0.872   3.239   0.460
   67SOL    HW2  298   0.862   3.213   0.551
   67SOL    HW3  299   0.888   3.334   0.464
   67SOL    MW4  300   0.872   3.248   0.472
   68SOL     OW  301   2.174   3.623   0.473
   68SOL    HW2  302   2.140   3.637   0.562
   68SOL    HW3  303   2.118   3.554   0.437
   68SOL    MW4  304   2.162   3.615   0.480
   69SOL     OW  305   0.946   4.127   0.448
   69SOL    HW2  306   0.861   4.169   0.434
   69SOL    HW3  307   0.936   4.081   0.532
   69SOL    MW4  308   0.933   4.126   0.457
   70SOL     OW  309   0.586   3.990   0.499
   70SOL    HW2  310   0.551   3.990   0.588
   70SOL    HW3  311   0.624   4.077   0.488
   70SOL    MW4  312   0.586   4.002   0.509
   71SOL     OW  313   1.182   4.275   0.479
   71SOL    HW2  314   1.101   4.226   0.466
   71SOL    HW3  315   1.184   4.296   0.572
   71SOL    MW4  316   1.172   4.271   0.489
   72SOL     OW  317   1.107   0.479   0.429
   72SOL    HW2  318   1.103   0.395   0.384
   72SOL    HW3  319   1.197   0.485   0.460
   72SOL    MW4  320   1.118   0.469   0.428
   73SOL     OW  321   0.941   0.052   0.414
   73SOL    HW2  322   0.984  -0.034   0.407
   73SOL    HW3  323   0.953   0.077   0.506
   73SOL    MW4  324   0.948   0.044   0.425
   74SOL     OW  325   1.365   0.290   0.275
   74SOL    HW2  326   1.271   0.282   0.256
   74SOL    HW3  327   1.372   0.371   0.326
   74SOL    MW4  328   1.353   0.300   0.279
   75SOL     OW  329   2.008   4.570   0.231
   75SOL    HW2  330   2.038   4.480   0.221
   75SOL    HW3  331   1.913   4.565   0.224
   75SOL    MW4  332   2.000   4.558   0.229
   76SOL     OW  333   1.075   0.248   0.278
   76SOL    HW2  334   1.034   0.169   0.314
   76SOL    HW3  335   1.013   0.279   0.211
   76SOL    MW4  336   1.061   0.242   0.274
   77SOL     OW  337   2.103   0.322   0.379
   77SOL    HW2  338   2.056   0.397   0.414
   77SOL    HW3  339   2.071   0.312   0.290
   77SOL    MW4  340   2.093   0.330   0.372
   78SOL     OW  341   2.387   1.109   0.504
   78SOL    HW2  342   2.360   1.196   0.534
   78SOL    HW3  343   2.306   1.059   0.501
   78SOL    MW4  344   2.373   1.114   0.508
   79SOL     OW  345   1.473   1.175   0.404
   79SOL    HW2  346   1.384   1.147   0.386
   79SOL    HW3  347   1.483   1.257   0.356
   79SOL    MW4  348   1.463   1.182   0.396
   80SOL     OW  349   1.630   0.920   0.407
   80SOL    HW2  350   1.680   0.935   0.487
   80SOL    HW3  351   1.590   1.005   0.388
   80SOL    MW4  352   1.631   0.933   0.415
   81SOL     OW  353   1.235   1.127   0.269
   81SOL    HW2  354   1.202   1.037   0.273
   81SOL    HW3  355   1.278   1.133   0.184
   81SOL    MW4  356   1.236   1.116   0.259
   82SOL     OW  357   1.704   1.590   0.394
   82SOL    HW2  358   1.783   1.639   0.414
   82SOL    HW3  359   1.655   1.588   0.476
   82SOL    MW4  360   1.708   1.596   0.407
   83SOL     OW  361   1.182   2.505   0.339
   83SOL    HW2  362   1.277   2.512   0.331
   83SOL    HW3  363   1.158   2.571   0.404
   83SOL    MW4  364   1.191   2.514   0.346
   84SOL     OW  365   1.604   2.338   0.181
   84SOL    HW2  366   1.655   2.273   0.230
   84SOL    HW3  367   1.666   2.377   0.120
   84SOL    MW4  368   1.619   2.334   0.179
   85SOL     OW  369   2.221   1.562   0.516
   85SOL    HW2  370   2.287   1.498   0.540
   85SOL    HW3  371   2.267   1.623   0.458
   85SOL    MW4  372   2.236   1.562   0.511
   86SOL     OW  373   1.549   2.031   0.456
   86SOL    HW2  374   1.633   2.074   0.438
   86SOL    HW3  375   1.540   1.966   0.386
   86SOL    MW4  376   1.559   2.028   0.444
   87SOL     OW  377   0.909   1.932   0.366
   87SOL    HW2  378   0.919   1.840   0.390
   87SOL    HW3  379   0.994   1.971   0.387
   87SOL    MW4  380   0.921   1.925   0.372
   88SOL     OW  381   0.920   2.955   0.364
   88SOL    HW2  382   0.936   3.048   0.384
   88SOL    HW3  383   0.832   2.939   0.398
   88SOL    MW4  384   0.910   2.965   0.371
   89SOL     OW  385   1.998   2.012   0.437
   89SOL    HW2  386   2.001   2.031   0.531
   89SOL    HW3  387   2.081   2.046   0.404
   89SOL    MW4  388   2.009   2.019   0.445
   90SOL     OW  389   1.964   0.540   0.473
   90SOL    HW2  390   1.967   0.634   0.453
   90SOL    HW3  391   1.875   0.513   0.448
   90SOL    MW4  392   1.953   0.549   0.467
   91SOL     OW  393   1.129   3.906   0.361
   91SOL    HW2  394   1.140   3.832   0.420
   91SOL    HW3  395   1.061   3.959   0.402
   91SOL    MW4  396   1.122   3.903   0.374
   92SOL     OW  397   2.077   2.592   0.402
   92SOL    HW2  398   2.042   2.679   0.422
   92SOL    HW3  399   2.108   2.559   0.486
   92SOL    MW4  400   2.076   2.599   0.416
   93SOL     OW  401   1.400   4.012   0.391
   93SOL    HW2  402   1.316   3.974   0.362
   93SOL    HW3  403   1.402   4.099   0.351
   93SOL    MW4  404   1.389   4.018   0.382
   94SOL     OW  405   1.743   2.940   0.503
   94SOL    HW2  406   1.828   2.941   0.460
   94SOL    HW3  407   1.701   2.858   0.474
   94SOL    MW4  408   1.748   2.929   0.494
   95SOL     OW  409   2.240   3.891   0.431
   95SOL    HW2  410   2.231   3.797   0.416
   95SOL    HW3  411   2.329   3.912   0.401
   95SOL    MW4  412   2.251   3.881   0.425
   96SOL     OW  413   0.913   3.796   0.215
   96SOL    HW2  414   0.920   3.758   0.127
   96SOL    HW3  415   0.998   3.837   0.230
   96SOL    MW4  416   0.925   3.796   0.205
   97SOL     OW  417   1.706   4.620   0.264
   97SOL    HW2  418   1.692   4.683   0.334
   97SOL    HW3  419   1.685   4.535   0.303
   97SOL    MW4  420   1.701   4.617   0.279
   98SOL     OW  421   1.994   4.625   0.683
   98SOL    HW2  422   1.995   4.529   0.678
   98SOL    HW3  423   2.014   4.654   0.595
   98SOL    MW4  424   1.997   4.616   0.671
   99SOL     OW  425   2.608   4.421   0.276
   99SOL    HW2  426   2.656   4.435   0.358
   99SOL    HW3  427   2.619   4.503   0.227
   99SOL    MW4  428   2.616   4.434   0.280
  100SOL     OW  429   1.404   4.291   0.296
  100SOL    HW2  430   1.322   4.286   0.345
  100SOL    HW3  431   1.391   4.363   0.234
  100SOL    MW4  432   1.392   4.300   0.294
  101SOL     OW  433   2.415   0.327   0.427
  101SOL    HW2  434   2.325   0.342   0.397
  101SOL    HW3  435   2.469   0.378   0.366
  101SOL    MW4  436   2.410   0.336   0.415
  102SOL     OW  437   1.545   1.802   0.282
  102SOL    HW2  438   1.573   1.798   0.190
  102SOL    HW3  439   1.594   1.731   0.325
  102SOL    MW4  440   1.555   1.792   0.276
  103SOL     OW  441   2.050   1.328   0.493
  103SOL    HW2  442   1.961   1.362   0.492
  103SOL    HW3  443   2.106   1.406   0.491
  103SOL    MW4  444   2.046   1.343   0.493
  104SOL     OW  445   2.641   1.010   0.459
  104SOL    HW2  446   2.687   1.091   0.434
  104SOL    HW3  447   2.550   1.037   0.469
  104SOL    MW4  448   2.635   1.025   0.457
  105SOL     OW  449   2.355   1.800   0.402
  105SOL    HW2  450   2.393   1.809   0.314
  105SOL    HW3  451   2.391   1.873   0.452
  105SOL    MW4  452   2.365   1.810   0.397
  106SOL     OW  453   1.543   1.399   0.273
  106SOL    HW2  454   1.474   1.438   0.221
  106SOL    HW3  455   1.599   1.472   0.300
  106SOL    MW4  456   1.542   1.413   0.270
  107SOL     OW  457   1.303   1.813   0.426
  107SOL    HW2  458   1.385   1.819   0.377
  107SOL    HW3  459   1.328   1.775   0.510
  107SOL    MW4  460   1.317   1.809   0.431
  108SOL     OW  461   2.208   2.208   0.376
  108SOL    HW2  462   2.214   2.272   0.305
  108SOL    HW3  463   2.216   2.260   0.456
  108SOL    MW4  464   2.210   2.223   0.377
  109SOL     OW  465   1.465   3.012   0.545
  109SOL    HW2  466   1.543   2.989   0.494
  109SOL    HW3  467   1.461   2.945   0.613
  109SOL    MW4  468   1.475   3.000   0.547
  110SOL     OW  469   1.059   2.740   0.468
  110SOL    HW2  470   1.026   2.818   0.422
  110SOL    HW3  471   0.980   2.692   0.492
  110SOL    MW4  472   1.044   2.744   0.465
  111SOL     OW  473   1.322   3.244   0.521
  111SOL    HW2  474   1.377   3.166   0.514
  111SOL    HW3  475   1.254   3.230   0.455
  111SOL    MW4  476   1.320   3.232   0.511
  112SOL     OW  477   1.151   2.048   0.431
  112SOL    HW2  478   1.135   2.069   0.523
  112SOL    HW3  479   1.220   1.981   0.434
  112SOL    MW4  480   1.158   2.041   0.444
  113SOL     OW  481   3.504   1.573   0.456
  113SOL    HW2  482   3.421   1.528   0.444
  113SOL    HW3  483   3.531   1.551   0.545
  113SOL    MW4  484   3.497   1.564   0.466
  114SOL     OW  485   1.774   2.186   0.383
  114SOL    HW2  486   1.852   2.131   0.381
  114SOL    HW3  487   1.802   2.266   0.427
  114SOL    MW4  488   1.788   2.189   0.388
  115SOL     OW  489   1.380   2.243   0.498
  115SOL    HW2  490   1.437   2.167   0.489
  115SOL    HW3  491   1.298   2.217   0.457
  115SOL    MW4  492   1.377   2.230   0.492
  116SOL     OW  493   1.400   3.530   0.468
  116SOL    HW2  494   1.457   3.553   0.542
  116SOL    HW3  495   1.391   3.435   0.473
  116SOL    MW4  496   1.406   3.521   0.478
  117SOL     OW  497   2.449   3.538   0.497
  117SOL    HW2  498   2.355   3.559   0.493
  117SOL    HW3  499   2.476   3.567   0.584
  117SOL    MW4  500   2.440   3.545   0.508
  118SOL     OW  501   1.650   4.393   0.412
  118SOL    HW2  502   1.633   4.407   0.505
  118SOL    HW3  503   1.573   4.346   0.380
  118SOL    MW4  504   1.638   4.389   0.420
  119SOL     OW  505   1.670   3.803   0.520
  119SOL    HW2  506   1.616   3.856   0.462
  119SOL    HW3  507   1.759   3.809   0.484
  119SOL    MW4  508   1.675   3.810   0.508
  120SOL     OW  509   1.270   4.510   0.138
  120SOL    HW2  510   1.343   4.572   0.131
  120SOL    HW3  511   1.232   4.508   0.051
  120SOL    MW4  512   1.275   4.518   0.126
  121SOL     OW  513   1.368   0.086   0.495
  121SOL    HW2  514   1.356   0.152   0.427
  121SOL    HW3  515   1.304   0.019   0.474
  121SOL    MW4  516   1.358   0.086   0.483
  122SOL     OW  517   2.332   4.608   0.533
  122SOL    HW2  518   2.324   4.610   0.628
  122SOL    HW3  519   2.257   4.660   0.502
  122SOL    MW4  520   2.321   4.615   0.541
  123SOL     OW  521   2.077   0.061   0.448
  123SOL    HW2  522   2.092   0.153   0.426
  123SOL    HW3  523   2.054   0.019   0.365
  123SOL    MW4  524   2.076   0.067   0.434
  124SOL     OW  525   2.597   1.450   0.396
  124SOL    HW2  526   2.555   1.399   0.327
  124SOL    HW3  527   2.680   1.405   0.411
  124SOL    MW4  528   2.603   1.437   0.388
  125SOL     OW  529   2.967   0.410   0.464
  125SOL    HW2  530   2.917   0.377   0.390
  125SOL    HW3  531   3.026   0.476   0.426
  125SOL    MW4  532   2.968   0.415   0.449
  126SOL     OW  533   2.108   1.032   0.506
  126SOL    HW2  534   2.088   1.125   0.498
  126SOL    HW3  535   2.058   0.990   0.436
  126SOL    MW4  536   2.099   1.039   0.496
  127SOL     OW  537   2.782   1.270   0.469
  127SOL    HW2  538   2.858   1.217   0.446
  127SOL    HW3  539   2.788   1.282   0.564
  127SOL    MW4  540   2.793   1.265   0.478
  128SOL     OW  541   2.746   1.697   0.464
  128SOL    HW2  542   2.678   1.637   0.435
  128SOL    HW3  543   2.727   1.712   0.557
  128SOL    MW4  544   2.735   1.691   0.472
  129SOL     OW  545   3.114   1.878   0.477
  129SOL    HW2  546   3.117   1.952   0.539
  129SOL    HW3  547   3.203   1.875   0.440
  129SOL    MW4  548   3.126   1.887   0.480
  130SOL     OW  549   2.937   4.629   0.400
  130SOL    HW2  550   2.996   4.691   0.443
  130SOL    HW3  551   2.991   4.551   0.385
  130SOL    MW4  552   2.952   4.627   0.404
  131SOL     OW  553   1.947   1.719   0.426
  131SOL    HW2  554   1.967   1.813   0.420
  131SOL    HW3  555   2.033   1.676   0.421
  131SOL    MW4  556   1.961   1.726   0.425
  132SOL     OW  557   1.566   1.535   0.627
  132SOL    HW2  558   1.635   1.554   0.690
  132SOL    HW3  559   1.487   1.572   0.666
  132SOL    MW4  560   1.565   1.543   0.640
  133SOL     OW  561   2.424   2.046   0.488
  133SOL    HW2  562   2.365   2.108   0.445
  133SOL    HW3  563   2.512   2.081   0.472
  133SOL    MW4  564   2.428   2.059   0.480
  134SOL     OW  565   2.693   2.110   0.432
  134SOL    HW2  566   2.752   2.070   0.369
  134SOL    HW3  567   2.733   2.093   0.517
  134SOL    MW4  568   2.706   2.102   0.435
  135SOL     OW  569   2.500   2.570   0.414
  135SOL    HW2  570   2.566   2.508   0.385
  135SOL    HW3  571   2.417   2.535   0.381
  135SOL    MW4  572   2.498   2.557   0.406
  136SOL     OW  573   1.826   2.449   0.473
  136SOL    HW2  574   1.754   2.512   0.477
  136SOL    HW3  575   1.900   2.499   0.440
  136SOL    MW4  576   1.826   2.464   0.469
  137SOL     OW  577   1.630   2.682   0.479
  137SOL    HW2  578   1.604   2.708   0.567
  137SOL    HW3  579   1.571   2.610   0.456
  137SOL    MW4  580   1.619   2.676   0.488
  138SOL     OW  581   2.104   4.005   0.233
  138SOL    HW2  582   2.125   3.940   0.167
  138SOL    HW3  583   2.160   3.982   0.308
  138SOL    MW4  584   2.114   3.994   0.234
  139SOL     OW  585   2.489   3.958   0.373
  139SOL    HW2  586   2.526   3.877   0.337
  139SOL    HW3  587   2.520   4.026   0.313
  139SOL    MW4  588   2.498   3.956   0.360
  140SOL     OW  589   1.899   3.947   0.431
  140SOL    HW2  590   1.861   4.035   0.422
  140SOL    HW3  591   1.978   3.949   0.377
  140SOL    MW4  592   1.904   3.959   0.423
  141SOL     OW  593   2.082   3.380   0.360
  141SOL    HW2  594   2.113   3.300   0.404
  141SOL    HW3  595   2.000   3.354   0.319
  141SOL    MW4  596   2.075   3.366   0.361
  142SOL     OW  597   2.354   4.353   0.396
  142SOL    HW2  598   2.423   4.386   0.338
  142SOL    HW3  599   2.329   4.429   0.449
  142SOL    MW4  600   2.360   4.367   0.396
  143SOL     OW  601   2.085   4.288   0.313
  143SOL    HW2  602   2.098   4.199   0.279
  143SOL    HW3  603   2.173   4.318   0.334
  143SOL    MW4  604   2.098   4.280   0.311
  144SOL     OW  605   3.110   0.168   0.507
  144SOL    HW2  606   3.076   0.257   0.507
  144SOL    HW3  607   3.118   0.145   0.600
  144SOL    MW4  608   3.107   0.176   0.519
  145SOL     OW  609   2.612   3.712   0.334
  145SOL    HW2  610   2.559   3.654   0.388
  145SOL    HW3  611   2.654   3.654   0.270
  145SOL    MW4  612   2.611   3.696   0.333
  146SOL     OW  613   2.542   4.182   0.511
  146SOL    HW2  614   2.468   4.238   0.487
  146SOL    HW3  615   2.513   4.093   0.490
  146SOL    MW4  616   2.528   4.178   0.505
  147SOL     OW  617   2.563   0.091   0.474
  147SOL    HW2  618   2.514   0.173   0.466
  147SOL    HW3  619   2.498   0.026   0.499
  147SOL    MW4  620   2.548   0.094   0.476
  148SOL     OW  621   1.721   0.416   0.399
  148SOL    HW2  622   1.704   0.327   0.367
  148SOL    HW3  623   1.638   0.442   0.440
  148SOL    MW4  624   1.708   0.407   0.400
  149SOL     OW  625   3.168   0.576   0.347
  149SOL    HW2  626   3.174   0.669   0.369
  149SOL    HW3  627   3.249   0.557   0.300
  149SOL    MW4  628   3.179   0.586   0.344
  150SOL     OW  629   2.414   1.375   0.598
  150SOL    HW2  630   2.452   1.350   0.682
  150SOL    HW3  631   2.488   1.407   0.547
  150SOL    MW4  632   2.429   1.376   0.602
  151SOL     OW  633   2.618   0.525   0.307
  151SOL    HW2  634   2.632   0.608   0.353
  151SOL    HW3  635   2.704   0.483   0.306
  151SOL    MW4  636   2.631   0.531   0.313
  152SOL     OW  637   3.015   1.595   0.463
  152SOL    HW2  638   2.921   1.609   0.474
  152SOL    HW3  639   3.049   1.679   0.434
  152SOL    MW4  640   3.007   1.608   0.460
  153SOL     OW  641   3.531   1.106   0.492
  153SOL    HW2  642   3.591   1.043   0.451
  153SOL    HW3  643   3.550   1.101   0.585
  153SOL    MW4  644   3.541   1.097   0.499
  154SOL     OW  645   3.685   1.968   0.457
  154SOL    HW2  646   3.668   2.060   0.435
  154SOL    HW3  647   3.701   1.968   0.551
  154SOL    MW4  648   3.685   1.980   0.466
  155SOL     OW  649   2.626   0.101   0.743
  155SOL    HW2  650   2.624   0.191   0.774
  155SOL    HW3  651   2.630   0.109   0.647
  155SOL    MW4  652   2.627   0.114   0.734
  156SOL     OW  653   3.135   2.048   0.685
  156SOL    HW2  654   3.040   2.054   0.681
  156SOL    HW3  655   3.152   1.988   0.757
  156SOL    MW4  656   3.125   2.041   0.694
  157SOL     OW  657   2.706   2.374   0.371
  157SOL    HW2  658   2.791   2.400   0.406
  157SOL    HW3  659   2.703   2.279   0.382
  157SOL    MW4  660   2.717   2.365   0.377
  158SOL     OW  661   2.844   1.905   0.271
  158SOL    HW2  662   2.939   1.917   0.263
  158SOL    HW3  663   2.834   1.837   0.338
  158SOL    MW4  664   2.855   1.897   0.279
  159SOL     OW  665   2.273   2.477   0.252
  159SOL    HW2  666   2.202   2.534   0.281
  159SOL    HW3  667   2.315   2.525   0.181
  159SOL    MW4  668   2.269   2.491   0.246
  160SOL     OW  669   2.597   2.840   0.489
  160SOL    HW2  670   2.563   2.759   0.451
  160SOL    HW3  671   2.551   2.849   0.573
  160SOL    MW4  672   2.587   2.831   0.495
  161SOL     OW  673   3.124   3.176   0.556
  161SOL    HW2  674   3.128   3.087   0.521
  161SOL    HW3  675   3.131   3.164   0.651
  161SOL    MW4  676   3.125   3.163   0.564
  162SOL     OW  677   3.423   3.202   0.563
  162SOL    HW2  678   3.441   3.133   0.627
  162SOL    HW3  679   3.329   3.193   0.544
  162SOL    MW4  680   3.413   3.191   0.569
  163SOL     OW  681   2.173   3.150   0.478
  163SOL    HW2  682   2.179   3.164   0.572
  163SOL    HW3  683   2.260   3.121   0.452
  163SOL    MW4  684   2.185   3.148   0.487
  164SOL     OW  685   1.877   4.237   0.461
  164SOL    HW2  686   1.807   4.297   0.433
  164SOL    HW3  687   1.948   4.254   0.399
  164SOL    MW4  688   1.877   4.248   0.449
  165SOL     OW  689   3.389   4.115   0.414
  165SOL    HW2  690   3.316   4.104   0.354
  165SOL    HW3  691   3.371   4.053   0.485
  165SOL    MW4  692   3.377   4.106   0.416
  166SOL     OW  693   2.924   3.379   0.538
  166SOL    HW2  694   2.840   3.342   0.512
  166SOL    HW3  695   2.986   3.307   0.529
  166SOL    MW4  696   2.921   3.365   0.534
  167SOL     OW  697   2.640   3.282   0.491
  167SOL    HW2  698   2.644   3.244   0.579
  167SOL    HW3  699   2.575   3.351   0.497
  167SOL    MW4  700   2.632   3.286   0.503
  168SOL     OW  701   3.685   4.214   0.652
  168SOL    HW2  702   3.753   4.149   0.668
  168SOL    HW3  703   3.683   4.224   0.557
  168SOL    MW4  704   3.693   4.207   0.642
  169SOL     OW  705   3.147   4.133   0.274
  169SOL    HW2  706   3.133   4.228   0.281
  169SOL    HW3  707   3.058   4.096   0.277
  169SOL    MW4  708   3.133   4.141   0.275
  170SOL     OW  709   3.366   0.304   0.519
  170SOL    HW2  710   3.304   0.239   0.486
  170SOL    HW3  711   3.450   0.258   0.523
  170SOL    MW4  712   3.369   0.290   0.516
  171SOL     OW  713   2.722   0.040   0.234
  171SOL    HW2  714   2.656   0.063   0.299
  171SOL    HW3  715   2.801   0.021   0.286
  171SOL    MW4  716   2.724   0.040   0.250
  172SOL     OW  717   2.843   4.052   0.289
  172SOL    HW2  718   2.811   3.979   0.342
  172SOL    HW3  719   2.765   4.089   0.248
  172SOL    MW4  720   2.829   4.047   0.290
  173SOL     OW  721   2.818   0.342   0.241
  173SOL    HW2  722   2.879   0.375   0.175
  173SOL    HW3  723   2.797   0.254   0.212
  173SOL    MW4  724   2.823   0.335   0.228
  174SOL     OW  725   3.001   0.827   0.488
  174SOL    HW2  726   3.035   0.833   0.577
  174SOL    HW3  727   2.995   0.918   0.459
  174SOL    MW4  728   3.005   0.840   0.496
  175SOL     OW  729   3.428   0.447   0.274
  175SOL    HW2  730   3.402   0.392   0.348
  175SOL    HW3  731   3.509   0.407   0.242
  175SOL    MW4  732   3.436   0.434   0.279
  176SOL     OW  733   3.695   0.858   0.464
  176SOL    HW2  734   3.684   0.779   0.411
  176SOL    HW3  735   3.632   0.848   0.535
  176SOL    MW4  736   3.685   0.846   0.466
  177SOL     OW  737   3.681   0.316   0.208
  177SOL    HW2  738   3.728   0.386   0.162
  177SOL    HW3  739   3.749   0.273   0.260
  177SOL    MW4  740   3.696   0.320   0.209
  178SOL     OW  741   3.471   1.828   0.745
  178SOL    HW2  742   3.450   1.842   0.653
  178SOL    HW3  743   3.387   1.837   0.790
  178SOL    MW4  744   3.457   1.831   0.739
  179SOL     OW  745   3.416   1.846   0.444
  179SOL    HW2  746   3.434   1.752   0.449
  179SOL    HW3  747   3.491   1.883   0.397
  179SOL    MW4  748   3.428   1.839   0.439
  180SOL     OW  749   3.268   1.162   0.478
  180SOL    HW2  750   3.358   1.133   0.464
  180SOL    HW3  751   3.265   1.184   0.571
  180SOL    MW4  752   3.280   1.161   0.488
  181SOL     OW  753   3.872   1.838   0.284
  181SOL    HW2  754   3.833   1.752   0.273
  181SOL    HW3  755   3.831   1.874   0.362
  181SOL    MW4  756   3.862   1.832   0.293
  182SOL     OW  757   3.284   2.296   0.637
  182SOL    HW2  758   3.246   2.208   0.638
  182SOL    HW3  759   3.346   2.296   0.710
  182SOL    MW4  760   3.287   2.284   0.647
  183SOL     OW  761   3.534   2.676   0.553
  183SOL    HW2  762   3.555   2.674   0.646
  183SOL    HW3  763   3.501   2.588   0.533
  183SOL    MW4  764   3.533   2.664   0.562
  184SOL     OW  765   2.028   2.873   0.448
  184SOL    HW2  766   2.010   2.864   0.541
  184SOL    HW3  767   2.079   2.954   0.441
  184SOL    MW4  768   2.032   2.883   0.459
  185SOL     OW  769   3.208   2.594   0.327
  185SOL    HW2  770   3.239   2.600   0.237
  185SOL    HW3  771   3.281   2.557   0.375
  185SOL    MW4  772   3.221   2.590   0.321
  186SOL     OW  773   2.864   2.766   0.794
  186SOL    HW2  774   2.846   2.773   0.700
  186SOL    HW3  775   2.952   2.727   0.799
  186SOL    MW4  776   2.873   2.762   0.782
  187SOL     OW  777   2.717   0.748   0.498
  187SOL    HW2  778   2.813   0.743   0.500
  187SOL    HW3  779   2.698   0.840   0.481
  187SOL    MW4  780   2.727   0.759   0.496
  188SOL     OW  781   2.921   4.219   0.521
  188SOL    HW2  782   2.901   4.163   0.446
  188SOL    HW3  783   2.988   4.172   0.570
  188SOL    MW4  784   2.927   4.205   0.517
  189SOL     OW  785   3.297   3.667   0.538
  189SOL    HW2  786   3.340   3.657   0.453
  189SOL    HW3  787   3.326   3.593   0.590
  189SOL    MW4  788   3.306   3.656   0.534
  190SOL     OW  789   3.844   3.389   0.411
  190SOL    HW2  790   3.936   3.366   0.398
  190SOL    HW3  791   3.846   3.464   0.470
  190SOL    MW4  792   3.857   3.396   0.417
  191SOL     OW  793   3.793   3.291   0.726
  191SOL    HW2  794   3.888   3.298   0.739
  191SOL    HW3  795   3.784   3.254   0.638
  191SOL    MW4  796   3.804   3.287   0.716
  192SOL     OW  797   2.776   3.860   0.511
  192SOL    HW2  798   2.861   3.820   0.531
  192SOL    HW3  799   2.737   3.803   0.445
  192SOL    MW4  800   2.782   3.847   0.505
  193SOL     OW  801   2.445   3.085   0.467
  193SOL    HW2  802   2.493   3.002   0.473
  193SOL    HW3  803   2.512   3.150   0.448
  193SOL    MW4  804   2.460   3.082   0.465
  194SOL     OW  805   0.045   0.076   0.351
  194SOL    HW2  806   0.081   0.057   0.264
  194SOL    HW3  807   0.037  -0.009   0.393
  194SOL    MW4  808   0.049   0.062   0.345
  195SOL     OW  809   3.840   0.205   0.399
  195SOL    HW2  810   3.854   0.287   0.446
  195SOL    HW3  811   3.918   0.152   0.419
  195SOL    MW4  812   3.852   0.209   0.408
  196SOL     OW  813   3.638   0.638   0.326
  196SOL    HW2  814   3.555   0.591   0.317
  196SOL    HW3  815   3.682   0.626   0.242
  196SOL    MW4  816   3.633   0.631   0.313
  197SOL     OW  817   3.842   0.622   0.134
  197SOL    HW2  818   3.924   0.633   0.182
  197SOL    HW3  819   3.850   0.682   0.060
  197SOL    MW4  820   3.854   0.632   0.131
  198SOL     OW  821   4.047   0.591   0.347
  198SOL    HW2  822   4.121   0.544   0.383
  198SOL    HW3  823   3.970   0.550   0.387
  198SOL    MW4  824   4.046   0.580   0.357
  199SOL     OW  825   4.450   0.898   0.460
  199SOL    HW2  826   4.359   0.867   0.461
  199SOL    HW3  827   4.501   0.819   0.440
  199SOL    MW4  828   4.444   0.883   0.458
  200SOL     OW  829   3.930   0.977   0.492
  200SOL    HW2  830   3.906   1.068   0.476
  200SOL    HW3  831   3.854   0.926   0.463
  200SOL    MW4  832   3.917   0.982   0.486
  201SOL     OW  833   4.110   1.475   0.502
  201SOL    HW2  834   4.108   1.550   0.443
  201SOL    HW3  835   4.200   1.443   0.498
  201SOL    MW4  836   4.122   1.481   0.493
  202SOL     OW  837   3.656   1.345   0.371
  202SOL    HW2  838   3.608   1.271   0.406
  202SOL    HW3  839   3.596   1.419   0.379
  202SOL    MW4  840   3.642   1.345   0.376
  203SOL     OW  841   3.266   1.443   0.429
  203SOL    HW2  842   3.179   1.483   0.429
  203SOL    HW3  843   3.249   1.349   0.427
  203SOL    MW4  844   3.252   1.436   0.429
  204SOL     OW  845   3.011   1.100   0.392
  204SOL    HW2  846   3.101   1.112   0.420
  204SOL    HW3  847   3.016   1.071   0.301
  204SOL    MW4  848   3.023   1.098   0.384
  205SOL     OW  849   3.660   2.264   0.397
  205SOL    HW2  850   3.709   2.261   0.314
  205SOL    HW3  851   3.727   2.278   0.464
  205SOL    MW4  852   3.676   2.265   0.395
  206SOL     OW  853   4.115   3.040   0.394
  206SOL    HW2  854   4.158   2.955   0.404
  206SOL    HW3  855   4.034   3.033   0.444
  206SOL    MW4  856   4.110   3.028   0.402
  207SOL     OW  857   2.941   2.528   0.455
  207SOL    HW2  858   2.977   2.502   0.539
  207SOL    HW3  859   3.017   2.529   0.396
  207SOL    MW4  860   2.956   2.525   0.458
  208SOL     OW  861   2.997   3.693   0.504
  208SOL    HW2  862   3.085   3.664   0.526
  208SOL    HW3  863   2.951   3.612   0.481
  208SOL    MW4  864   3.002   3.679   0.504
  209SOL     OW  865   3.146   2.881   0.464
  209SOL    HW2  866   3.177   2.805   0.414
  209SOL    HW3  867   3.054   2.862   0.482
  209SOL    MW4  868   3.138   2.869   0.460
  210SOL     OW  869   3.878   2.984   0.522
  210SOL    HW2  870   3.844   2.906   0.478
  210SOL    HW3  871   3.819   3.054   0.496
  210SOL    MW4  872   3.866   2.983   0.513
  211SOL     OW  873   3.751   2.748   0.380
  211SOL    HW2  874   3.713   2.749   0.292
  211SOL    HW3  875   3.676   2.733   0.438
  211SOL    MW4  876   3.736   2.746   0.376
  212SOL     OW  877   3.877   4.068   0.284
  212SOL    HW2  878   3.897   4.010   0.357
  212SOL    HW3  879   3.880   4.012   0.207
  212SOL    MW4  880   3.880   4.053   0.283
  213SOL     OW  881   3.436   2.448   0.438
  213SOL    HW2  882   3.391   2.401   0.508
  213SOL    HW3  883   3.505   2.388   0.410
  213SOL    MW4  884   3.439   2.434   0.444
  214SOL     OW  885   3.328   3.933   0.628
  214SOL    HW2  886   3.393   3.933   0.698
  214SOL    HW3  887   3.299   3.842   0.622
  214SOL    MW4  888   3.333   3.921   0.636
  215SOL     OW  889   4.293   3.973   0.667
  215SOL    HW2  890   4.263   3.937   0.750
  215SOL    HW3  891   4.257   4.062   0.664
  215SOL    MW4  892   4.284   3.980   0.677
  216SOL     OW  893   3.644   4.250   0.376
  216SOL    HW2  894   3.712   4.193   0.340
  216SOL    HW3  895   3.566   4.196   0.379
  216SOL    MW4  896   3.643   4.236   0.372
  217SOL     OW  897   3.601   4.514   0.475
  217SOL    HW2  898   3.607   4.450   0.405
  217SOL    HW3  899   3.672   4.491   0.535
  217SOL    MW4  900   3.611   4.503   0.474
  218SOL     OW  901   4.362   0.205   0.526
  218SOL    HW2  902   4.423   0.169   0.462
  218SOL    HW3  903   4.403   0.188   0.611
  218SOL    MW4  904   4.376   0.198   0.529
  219SOL     OW  905   4.183   0.823   0.470
  219SOL    HW2  906   4.111   0.883   0.487
  219SOL    HW3  907   4.143   0.749   0.424
  219SOL    MW4  908   4.169   0.821   0.466
  220SOL     OW  909   0.262   1.826   0.400
  220SOL    HW2  910   0.323   1.852   0.469
  220SOL    HW3  911   0.232   1.739   0.426
  220SOL    MW4  912   0.266   1.818   0.412
  221SOL     OW  913   4.284   0.474   0.489
  221SOL    HW2  914   4.306   0.381   0.502
  221SOL    HW3  915   4.369   0.516   0.477
  221SOL    MW4  916   4.298   0.467   0.489
  222SOL     OW  917   4.364   1.377   0.499
  222SOL    HW2  918   4.456   1.403   0.500
  222SOL    HW3  919   4.344   1.358   0.590
  222SOL    MW4  920   4.374   1.378   0.511
  223SOL     OW  921   3.597   0.121   0.516
  223SOL    HW2  922   3.589   0.028   0.493
  223SOL    HW3  923   3.673   0.151   0.466
  223SOL    MW4  924   3.606   0.113   0.506
  224SOL     OW  925   3.902   1.258   0.474
  224SOL    HW2  926   3.967   1.328   0.475
  224SOL    HW3  927   3.823   1.299   0.439
  224SOL    MW4  928   3.900   1.273   0.470
  225SOL     OW  929   0.040   1.165   0.407
  225SOL    HW2  930  -0.031   1.224   0.432
  225SOL    HW3  931  -0.003   1.079   0.399
  225SOL    MW4  932   0.025   1.161   0.409
  226SOL     OW  933   4.190   2.212   0.383
  226SOL    HW2  934   4.152   2.276   0.444
  226SOL    HW3  935   4.275   2.249   0.360
  226SOL    MW4  936   4.196   2.226   0.388
  227SOL     OW  937   0.378   1.457   0.421
  227SOL    HW2  938   0.371   1.364   0.399
  227SOL    HW3  939   0.289   1.483   0.445
  227SOL    MW4  940   0.365   1.448   0.421
  228SOL     OW  941   0.385   2.171   0.385
  228SOL    HW2  942   0.292   2.188   0.372
  228SOL    HW3  943   0.416   2.247   0.434
  228SOL    MW4  944   0.377   2.183   0.390
  229SOL     OW  945   4.277   1.946   0.447
  229SOL    HW2  946   4.359   1.938   0.398
  229SOL    HW3  947   4.242   2.032   0.423
  229SOL    MW4  948   4.283   1.956   0.438
  230SOL     OW  949   4.456   2.569   0.466
  230SOL    HW2  950   4.531   2.629   0.466
  230SOL    HW3  951   4.448   2.540   0.557
  230SOL    MW4  952   4.465   2.573   0.478
  231SOL     OW  953   4.267   3.614   0.482
  231SOL    HW2  954   4.350   3.608   0.435
  231SOL    HW3  955   4.218   3.537   0.454
  231SOL    MW4  956   4.272   3.603   0.472
  232SOL     OW  957   4.262   2.805   0.446
  232SOL    HW2  958   4.182   2.761   0.474
  232SOL    HW3  959   4.330   2.737   0.451
  232SOL    MW4  960   4.260   2.791   0.450
  233SOL     OW  961   0.338   3.907   0.404
  233SOL    HW2  962   0.278   3.981   0.394
  233SOL    HW3  963   0.421   3.946   0.429
  233SOL    MW4  964   0.341   3.922   0.406
  234SOL     OW  965   0.071   3.593   0.377
  234SOL    HW2  966   0.085   3.646   0.299
  234SOL    HW3  967   0.143   3.617   0.436
  234SOL    MW4  968   0.083   3.603   0.374
  235SOL     OW  969   0.084   3.279   0.374
  235SOL    HW2  970   0.090   3.374   0.360
  235SOL    HW3  971  -0.004   3.256   0.342
  235SOL    MW4  972   0.073   3.289   0.368
  236SOL     OW  973   3.928   3.884   0.496
  236SOL    HW2  974   3.894   3.800   0.528
  236SOL    HW3  975   4.022   3.871   0.488
  236SOL    MW4  976   3.936   3.871   0.499
  237SOL     OW  977   3.704   3.181   0.497
  237SOL    HW2  978   3.755   3.248   0.450
  237SOL    HW3  979   3.613   3.202   0.478
  237SOL    MW4  980   3.699   3.192   0.488
  238SOL     OW  981   0.162   4.110   0.414
  238SOL    HW2  982   0.131   4.078   0.498
  238SOL    HW3  983   0.090   4.093   0.354
  238SOL    MW4  984   0.149   4.103   0.417
  239SOL     OW  985   4.077   4.212   0.404
  239SOL    HW2  986   4.012   4.158   0.360
  239SOL    HW3  987   4.033   4.297   0.416
  239SOL    MW4  988   4.063   4.216   0.400
  240SOL     OW  989   4.169   4.219   0.675
  240SOL    HW2  990   4.222   4.299   0.677
  240SOL    HW3  991   4.140   4.213   0.584
  240SOL    MW4  992   4.172   4.229   0.663
  241SOL     OW  993   4.073   4.474   0.510
  241SOL    HW2  994   4.143   4.455   0.573
  241SOL    HW3  995   3.992   4.462   0.559
  241SOL    MW4  996   4.072   4.470   0.525
  242SOL     OW  997   0.203   4.655   0.866
  242SOL    HW2  998   0.195   4.570   0.823
  242SOL    HW3  999   0.131   4.706   0.830
  242SOL    MW4 1000   0.192   4.650   0.856
  243SOL     OW 1001   4.471   0.133   0.768
  243SOL    HW2 1002   4.398   0.076   0.795
  243SOL    HW3 1003   4.452   0.217   0.808
  243SOL    MW4 1004   4.459   0.136   0.777
  244SOL     OW 1005   4.458   0.388   0.869
  244SOL    HW2 1006   4.472   0.390   0.963
  244SOL    HW3 1007   4.544   0.409   0.831
  244SOL    MW4 1008   4.471   0.391   0.876
  245SOL     OW 1009   0.214   0.477   0.765
  245SOL    HW2 1010   0.287   0.428   0.804
  245SOL    HW3 1011   0.221   0.565   0.803
  245SOL    MW4 1012   0.225   0.482   0.775
  246SOL     OW 1013   0.246   0.740   0.847
  246SOL    HW2 1014   0.222   0.748   0.939
  246SOL    HW3 1015   0.171   0.778   0.800
  246SOL    MW4 1016   0.233   0.746   0.853
  247SOL     OW 1017   4.477   0.839   0.738
  247SOL    HW2 1018   4.388   0.809   0.756
  247SOL    HW3 1019   4.477   0.860   0.645
  247SOL    MW4 1020   4.466   0.838   0.728
  248SOL     OW 1021   0.018   1.119   0.817
  248SOL    HW2 1022   0.037   1.117   0.911
  248SOL    HW3 1023   0.020   1.027   0.790
  248SOL    MW4 1024   0.021   1.106   0.826
  249SOL     OW 1025   0.243   1.223   0.714
  249SOL    HW2 1026   0.161   1.182   0.741
  249SOL    HW3 1027   0.259   1.190   0.626
  249SOL    MW4 1028   0.235   1.214   0.706
  250SOL     OW 1029   0.268   1.496   0.781
  250SOL    HW2 1030   0.353   1.530   0.753
  250SOL    HW3 1031   0.270   1.404   0.756
  250SOL    MW4 1032   0.279   1.489   0.774
  251SOL     OW 1033   0.048   1.656   0.721
  251SOL    HW2 1034  -0.030   1.619   0.763
  251SOL    HW3 1035   0.119   1.598   0.748
  251SOL    MW4 1036   0.047   1.643   0.730
  252SOL     OW 1037   0.016   1.930   0.826
  252SOL    HW2 1038   0.077   1.982   0.773
  252SOL    HW3 1039   0.029   1.840   0.795
  252SOL    MW4 1040   0.026   1.925   0.815
  253SOL     OW 1041   0.179   2.099   0.676
  253SOL    HW2 1042   0.203   2.181   0.719
  253SOL    HW3 1043   0.161   2.123   0.585
  253SOL    MW4 1044   0.180   2.113   0.670
  254SOL     OW 1045   0.214   2.353   0.791
  254SOL    HW2 1046   0.220   2.331   0.884
  254SOL    HW3 1047   0.299   2.392   0.769
  254SOL    MW4 1048   0.226   2.355   0.800
  255SOL     OW 1049   4.475   2.502   0.740
  255SOL    HW2 1050   4.404   2.442   0.763
  255SOL    HW3 1051   4.555   2.457   0.769
  255SOL    MW4 1052   4.476   2.488   0.747
  256SOL     OW 1053   0.005   2.759   0.844
  256SOL    HW2 1054   0.026   2.762   0.937
  256SOL    HW3 1055  -0.015   2.667   0.826
  256SOL    MW4 1056   0.005   2.747   0.854
  257SOL     OW 1057   0.248   2.803   0.735
  257SOL    HW2 1058   0.168   2.781   0.784
  257SOL    HW3 1059   0.229   2.775   0.646
  257SOL    MW4 1060   0.235   2.797   0.730
  258SOL     OW 1061   0.234   3.093   0.805
  258SOL    HW2 1062   0.224   3.086   0.900
  258SOL    HW3 1063   0.241   3.002   0.775
  258SOL    MW4 1064   0.233   3.080   0.814
  259SOL     OW 1065   0.015   3.234   0.676
  259SOL    HW2 1066   0.098   3.191   0.694
  259SOL    HW3 1067   0.022   3.262   0.585
  259SOL    MW4 1068   0.027   3.232   0.666
  260SOL     OW 1069   4.471   3.449   0.838
  260SOL    HW2 1070   4.386   3.478   0.806
  260SOL    HW3 1071   4.484   3.363   0.797
  260SOL    MW4 1072   4.461   3.441   0.829
  261SOL     OW 1073   0.208   3.614   0.815
  261SOL    HW2 1074   0.132   3.560   0.836
  261SOL    HW3 1075   0.217   3.608   0.720
  261SOL    MW4 1076   0.199   3.606   0.805
  262SOL     OW 1077   0.239   3.887   0.879
  262SOL    HW2 1078   0.248   3.897   0.974
  262SOL    HW3 1079   0.223   3.794   0.866
  262SOL    MW4 1080   0.238   3.876   0.890
  263SOL     OW 1081   0.070   4.033   0.667
  263SOL    HW2 1082  -0.022   4.005   0.660
  263SOL    HW3 1083   0.109   3.972   0.729
  263SOL    MW4 1084   0.063   4.021   0.674
  264SOL     OW 1085   4.488   4.259   0.801
  264SOL    HW2 1086   4.473   4.240   0.894
  264SOL    HW3 1087   4.517   4.176   0.764
  264SOL    MW4 1088   4.490   4.246   0.809
  265SOL     OW 1089   0.226   4.408   0.732
  265SOL    HW2 1090   0.145   4.359   0.746
  265SOL    HW3 1091   0.229   4.421   0.637
  265SOL    MW4 1092   0.216   4.403   0.721
  266SOL     OW 1093   0.656   4.622   0.825
  266SOL    HW2 1094   0.643   4.637   0.918
  266SOL    HW3 1095   0.571   4.642   0.785
  266SOL    MW4 1096   0.643   4.626   0.832
  267SOL     OW 1097   0.413   0.044   0.703
  267SOL    HW2 1098   0.345   0.017   0.765
  267SOL    HW3 1099   0.365   0.064   0.623
  267SOL    MW4 1100   0.397   0.043   0.701
  268SOL     OW 1101   0.436   0.302   0.824
  268SOL    HW2 1102   0.487   0.356   0.764
  268SOL    HW3 1103   0.426   0.218   0.779
  268SOL    MW4 1104   0.441   0.298   0.810
  269SOL     OW 1105   0.605   0.446   0.686
  269SOL    HW2 1106   0.689   0.442   0.732
  269SOL    HW3 1107   0.626   0.483   0.600
  269SOL    MW4 1108   0.618   0.451   0.681
  270SOL     OW 1109   0.647   0.710   0.843
  270SOL    HW2 1110   0.576   0.770   0.820
  270SOL    HW3 1111   0.656   0.653   0.767
  270SOL    MW4 1112   0.639   0.711   0.830
  271SOL     OW 1113   0.460   0.894   0.740
  271SOL    HW2 1114   0.459   0.980   0.782
  271SOL    HW3 1115   0.391   0.845   0.784
  271SOL    MW4 1116   0.451   0.899   0.751
  272SOL     OW 1117   0.480   1.180   0.834
  272SOL    HW2 1118   0.546   1.207   0.770
  272SOL    HW3 1119   0.396   1.198   0.791
  272SOL    MW4 1120   0.478   1.186   0.820
  273SOL     OW 1121   0.686   1.227   0.670
  273SOL    HW2 1122   0.699   1.307   0.720
  273SOL    HW3 1123   0.729   1.243   0.586
  273SOL    MW4 1124   0.693   1.239   0.666
  274SOL     OW 1125   0.713   1.484   0.776
  274SOL    HW2 1126   0.705   1.490   0.871
  274SOL    HW3 1127   0.648   1.546   0.743
  274SOL    MW4 1128   0.703   1.493   0.784
  275SOL     OW 1129   0.499   1.624   0.666
  275SOL    HW2 1130   0.506   1.713   0.634
  275SOL    HW3 1131   0.513   1.569   0.589
  275SOL    MW4 1132   0.501   1.628   0.652
  276SOL     OW 1133   0.427   1.946   0.594
  276SOL    HW2 1134   0.361   2.004   0.633
  276SOL    HW3 1135   0.488   2.005   0.550
  276SOL    MW4 1136   0.426   1.961   0.593
  277SOL     OW 1137   0.615   1.953   0.816
  277SOL    HW2 1138   0.570   1.935   0.898
  277SOL    HW3 1139   0.548   1.942   0.748
  277SOL    MW4 1140   0.600   1.949   0.818
  278SOL     OW 1141   0.633   2.240   0.835
  278SOL    HW2 1142   0.640   2.246   0.930
  278SOL    HW3 1143   0.620   2.147   0.818
  278SOL    MW4 1144   0.632   2.229   0.845
  279SOL     OW 1145   0.467   2.453   0.760
  279SOL    HW2 1146   0.520   2.382   0.797
  279SOL    HW3 1147   0.475   2.441   0.666
  279SOL    MW4 1148   0.475   2.442   0.753
  280SOL     OW 1149   0.464   2.718   0.857
  280SOL    HW2 1150   0.473   2.632   0.815
  280SOL    HW3 1151   0.383   2.753   0.820
  280SOL    MW4 1152   0.454   2.711   0.846
  281SOL     OW 1153   0.711   2.847   0.816
  281SOL    HW2 1154   0.782   2.792   0.851
  281SOL    HW3 1155   0.631   2.796   0.833
  281SOL    MW4 1156   0.710   2.833   0.823
  282SOL     OW 1157   0.685   3.117   0.875
  282SOL    HW2 1158   0.603   3.138   0.830
  282SOL    HW3 1159   0.695   3.022   0.863
  282SOL    MW4 1160   0.676   3.107   0.867
  283SOL     OW 1161   0.471   3.206   0.724
  283SOL    HW2 1162   0.473   3.296   0.755
  283SOL    HW3 1163   0.387   3.172   0.756
  283SOL    MW4 1164   0.460   3.213   0.733
  284SOL     OW 1165   0.428   3.469   0.875
  284SOL    HW2 1166   0.450   3.492   0.966
  284SOL    HW3 1167   0.349   3.519   0.856
  284SOL    MW4 1168   0.420   3.478   0.885
  285SOL     OW 1169   0.635   3.629   0.762
  285SOL    HW2 1170   0.562   3.595   0.815
  285SOL    HW3 1171   0.661   3.710   0.806
  285SOL    MW4 1172   0.628   3.635   0.775
  286SOL     OW 1173   0.742   3.876   0.854
  286SOL    HW2 1174   0.811   3.912   0.798
  286SOL    HW3 1175   0.661   3.915   0.821
  286SOL    MW4 1176   0.740   3.886   0.842
  287SOL     OW 1177   0.507   3.986   0.778
  287SOL    HW2 1178   0.488   4.078   0.793
  287SOL    HW3 1179   0.435   3.940   0.823
  287SOL    MW4 1180   0.495   3.992   0.786
  288SOL     OW 1181   0.463   4.259   0.821
  288SOL    HW2 1182   0.460   4.277   0.915
  288SOL    HW3 1183   0.388   4.306   0.786
  288SOL    MW4 1184   0.453   4.268   0.829
  289SOL     OW 1185   0.684   4.371   0.723
  289SOL    HW2 1186   0.600   4.345   0.761
  289SOL    HW3 1187   0.693   4.463   0.746
  289SOL    MW4 1188   0.674   4.380   0.731
  290SOL     OW 1189   1.086   4.648   0.862
  290SOL    HW2 1190   1.161   4.699   0.833
  290SOL    HW3 1191   1.011   4.686   0.816
  290SOL    MW4 1192   1.086   4.659   0.852
  291SOL     OW 1193   0.896   0.110   0.716
  291SOL    HW2 1194   0.902   0.195   0.759
  291SOL    HW3 1195   0.812   0.074   0.747
  291SOL    MW4 1196   0.886   0.116   0.726
  292SOL     OW 1197   0.844   0.389   0.826
  292SOL    HW2 1198   0.866   0.385   0.919
  292SOL    HW3 1199   0.918   0.435   0.787
  292SOL    MW4 1200   0.857   0.395   0.833
  293SOL     OW 1201   1.061   0.518   0.687
  293SOL    HW2 1202   1.133   0.465   0.721
  293SOL    HW3 1203   1.060   0.499   0.593
  293SOL    MW4 1204   1.070   0.508   0.679
  294SOL     OW 1205   1.144   0.734   0.826
  294SOL    HW2 1206   1.131   0.715   0.919
  294SOL    HW3 1207   1.137   0.649   0.783
  294SOL    MW4 1208   1.141   0.721   0.832
  295SOL     OW 1209   0.891   0.829   0.736
  295SOL    HW2 1210   0.967   0.803   0.789
  295SOL    HW3 1211   0.817   0.784   0.776
  295SOL    MW4 1212   0.892   0.820   0.748
  296SOL     OW 1213   0.905   1.097   0.786
  296SOL    HW2 1214   0.886   1.005   0.766
  296SOL    HW3 1215   0.830   1.145   0.751
  296SOL    MW4 1216   0.893   1.091   0.779
  297SOL     OW 1217   1.095   1.279   0.722
  297SOL    HW2 1218   1.028   1.221   0.757
  297SOL    HW3 1219   1.071   1.292   0.630
  297SOL    MW4 1220   1.083   1.273   0.714
  298SOL     OW 1221   1.123   1.534   0.824
  298SOL    HW2 1222   1.053   1.584   0.783
  298SOL    HW3 1223   1.112   1.445   0.790
  298SOL    MW4 1224   1.113   1.529   0.814
  299SOL     OW 1225   0.916   1.661   0.715
  299SOL    HW2 1226   0.901   1.747   0.753
  299SOL    HW3 1227   0.838   1.610   0.737
  299SOL    MW4 1228   0.904   1.665   0.723
  300SOL     OW 1229   0.887   1.909   0.835
  300SOL    HW2 1230   0.906   1.912   0.929
  300SOL    HW3 1231   0.792   1.913   0.830
  300SOL    MW4 1232   0.877   1.910   0.847
  301SOL     OW 1233   1.115   2.065   0.709
  301SOL    HW2 1234   1.119   2.143   0.765
  301SOL    HW3 1235   1.047   2.011   0.749
  301SOL    MW4 1236   1.107   2.068   0.722
  302SOL     OW 1237   1.117   2.272   0.885
  302SOL    HW2 1238   1.104   2.287   0.978
  302SOL    HW3 1239   1.208   2.298   0.869
  302SOL    MW4 1240   1.127   2.277   0.895
  303SOL     OW 1241   0.884   2.380   0.804
  303SOL    HW2 1242   0.962   2.340   0.840
  303SOL    HW3 1243   0.811   2.333   0.845
  303SOL    MW4 1244   0.884   2.369   0.814
  304SOL     OW 1245   0.928   2.669   0.874
  304SOL    HW2 1246   0.903   2.678   0.966
  304SOL    HW3 1247   0.905   2.579   0.851
  304SOL    MW4 1248   0.922   2.659   0.883
  305SOL     OW 1249   1.130   2.805   0.725
  305SOL    HW2 1250   1.061   2.753   0.766
  305SOL    HW3 1251   1.118   2.791   0.631
  305SOL    MW4 1252   1.119   2.796   0.718
  306SOL     OW 1253   1.081   3.062   0.838
  306SOL    HW2 1254   1.016   3.105   0.783
  306SOL    HW3 1255   1.087   2.973   0.803
  306SOL    MW4 1256   1.073   3.056   0.826
  307SOL     OW 1257   0.883   3.216   0.727
  307SOL    HW2 1258   0.898   3.309   0.744
  307SOL    HW3 1259   0.815   3.191   0.788
  307SOL    MW4 1260   0.876   3.225   0.737
  308SOL     OW 1261   0.891   3.487   0.772
  308SOL    HW2 1262   0.975   3.531   0.790
  308SOL    HW3 1263   0.826   3.557   0.776
  308SOL    MW4 1264   0.894   3.502   0.775
  309SOL     OW 1265   1.154   3.641   0.789
  309SOL    HW2 1266   1.235   3.606   0.824
  309SOL    HW3 1267   1.167   3.643   0.694
  309SOL    MW4 1268   1.166   3.637   0.781
  310SOL     OW 1269   1.171   3.908   0.791
  310SOL    HW2 1270   1.169   3.915   0.886
  310SOL    HW3 1271   1.178   3.814   0.774
  310SOL    MW4 1272   1.171   3.897   0.801
  311SOL     OW 1273   0.931   3.991   0.695
  311SOL    HW2 1274   0.922   4.074   0.742
  311SOL    HW3 1275   1.010   3.951   0.733
  311SOL    MW4 1276   0.940   3.997   0.706
  312SOL     OW 1277   0.911   4.241   0.832
  312SOL    HW2 1278   0.976   4.306   0.806
  312SOL    HW3 1279   0.828   4.272   0.795
  312SOL    MW4 1280   0.909   4.253   0.824
  313SOL     OW 1281   1.136   4.369   0.740
  313SOL    HW2 1282   1.212   4.336   0.787
  313SOL    HW3 1283   1.113   4.450   0.786
  313SOL    MW4 1284   1.143   4.376   0.752
  314SOL     OW 1285   1.539   0.021   0.838
  314SOL    HW2 1286   1.546  -0.003   0.931
  314SOL    HW3 1287   1.455   0.066   0.831
  314SOL    MW4 1288   1.529   0.024   0.850
  315SOL     OW 1289   1.297   0.150   0.766
  315SOL    HW2 1290   1.317   0.239   0.796
  315SOL    HW3 1291   1.326   0.148   0.675
  315SOL    MW4 1292   1.304   0.161   0.758
  316SOL     OW 1293   1.276   0.435   0.819
  316SOL    HW2 1294   1.294   0.407   0.908
  316SOL    HW3 1295   1.355   0.480   0.791
  316SOL    MW4 1296   1.289   0.437   0.827
  317SOL     OW 1297   1.537   0.521   0.695
  317SOL    HW2 1298   1.560   0.612   0.716
  317SOL    HW3 1299   1.609   0.469   0.731
  317SOL    MW4 1300   1.550   0.526   0.702
  318SOL     OW 1301   1.568   0.795   0.772
  318SOL    HW2 1302   1.642   0.838   0.729
  318SOL    HW3 1303   1.500   0.862   0.777
  318SOL    MW4 1304   1.569   0.809   0.767
  319SOL     OW 1305   1.315   0.921   0.725
  319SOL    HW2 1306   1.311   1.004   0.773
  319SOL    HW3 1307   1.257   0.862   0.772
  319SOL    MW4 1308   1.307   0.924   0.737
  320SOL     OW 1309   1.319   1.168   0.829
  320SOL    HW2 1310   1.396   1.205   0.785
  320SOL    HW3 1311   1.245   1.211   0.787
  320SOL    MW4 1312   1.319   1.178   0.817
  321SOL     OW 1313   1.529   1.241   0.674
  321SOL    HW2 1314   1.541   1.335   0.656
  321SOL    HW3 1315   1.510   1.202   0.589
  321SOL    MW4 1316   1.528   1.249   0.660
  322SOL     OW 1317   1.699   1.670   0.816
  322SOL    HW2 1318   1.645   1.655   0.894
  322SOL    HW3 1319   1.769   1.604   0.823
  322SOL    MW4 1320   1.701   1.659   0.827
  323SOL     OW 1321   1.338   1.692   0.699
  323SOL    HW2 1322   1.343   1.757   0.768
  323SOL    HW3 1323   1.264   1.637   0.723
  323SOL    MW4 1324   1.329   1.693   0.711
  324SOL     OW 1325   1.357   1.958   0.824
  324SOL    HW2 1326   1.340   1.953   0.918
  324SOL    HW3 1327   1.279   2.000   0.788
  324SOL    MW4 1328   1.344   1.963   0.832
  325SOL     OW 1329   1.611   2.021   0.704
  325SOL    HW2 1330   1.530   1.979   0.732
  325SOL    HW3 1331   1.603   2.029   0.609
  325SOL    MW4 1332   1.600   2.017   0.695
  326SOL     OW 1333   1.605   2.276   0.809
  326SOL    HW2 1334   1.519   2.314   0.788
  326SOL    HW3 1335   1.598   2.185   0.781
  326SOL    MW4 1336   1.592   2.269   0.803
  327SOL     OW 1337   1.349   2.374   0.776
  327SOL    HW2 1338   1.340   2.469   0.768
  327SOL    HW3 1339   1.350   2.342   0.686
  327SOL    MW4 1340   1.348   2.382   0.763
  328SOL     OW 1341   1.337   2.643   0.819
  328SOL    HW2 1342   1.332   2.652   0.914
  328SOL    HW3 1343   1.267   2.699   0.786
  328SOL    MW4 1344   1.327   2.651   0.827
  329SOL     OW 1345   1.559   2.790   0.757
  329SOL    HW2 1346   1.555   2.871   0.808
  329SOL    HW3 1347   1.487   2.737   0.790
  329SOL    MW4 1348   1.549   2.794   0.768
  330SOL     OW 1349   1.528   3.058   0.886
  330SOL    HW2 1350   1.556   3.078   0.975
  330SOL    HW3 1351   1.446   3.106   0.876
  330SOL    MW4 1352   1.521   3.067   0.896
  331SOL     OW 1353   1.307   3.230   0.790
  331SOL    HW2 1354   1.227   3.183   0.813
  331SOL    HW3 1355   1.310   3.229   0.695
  331SOL    MW4 1356   1.297   3.224   0.781
  332SOL     OW 1357   1.387   3.511   0.859
  332SOL    HW2 1358   1.445   3.548   0.792
  332SOL    HW3 1359   1.380   3.418   0.835
  332SOL    MW4 1360   1.394   3.503   0.847
  333SOL     OW 1361   1.577   3.617   0.677
  333SOL    HW2 1362   1.646   3.555   0.702
  333SOL    HW3 1363   1.621   3.680   0.621
  333SOL    MW4 1364   1.592   3.617   0.673
  334SOL     OW 1365   1.570   3.883   0.818
  334SOL    HW2 1366   1.519   3.944   0.765
  334SOL    HW3 1367   1.560   3.799   0.775
  334SOL    MW4 1368   1.562   3.880   0.806
  335SOL     OW 1369   1.388   4.033   0.673
  335SOL    HW2 1370   1.312   3.983   0.701
  335SOL    HW3 1371   1.388   4.026   0.578
  335SOL    MW4 1372   1.378   4.026   0.664
  336SOL     OW 1373   1.402   4.257   0.840
  336SOL    HW2 1374   1.464   4.320   0.804
  336SOL    HW3 1375   1.392   4.191   0.771
  336SOL    MW4 1376   1.409   4.257   0.826
  337SOL     OW 1377   1.574   4.424   0.693
  337SOL    HW2 1378   1.650   4.383   0.734
  337SOL    HW3 1379   1.570   4.511   0.732
  337SOL    MW4 1380   1.583   4.430   0.704
  338SOL     OW 1381   1.768   0.122   0.705
  338SOL    HW2 1382   1.837   0.056   0.708
  338SOL    HW3 1383   1.694   0.083   0.750
  338SOL    MW4 1384   1.767   0.108   0.711
  339SOL     OW 1385   1.635   0.150   0.445
  339SOL    HW2 1386   1.550   0.112   0.471
  339SOL    HW3 1387   1.679   0.168   0.529
  339SOL    MW4 1388   1.629   0.148   0.460
  340SOL     OW 1389   1.724   0.357   0.826
  340SOL    HW2 1390   1.741   0.275   0.781
  340SOL    HW3 1391   1.806   0.406   0.818
  340SOL    MW4 1392   1.737   0.352   0.819
  341SOL     OW 1393   1.959   0.507   0.771
  341SOL    HW2 1394   1.965   0.507   0.675
  341SOL    HW3 1395   2.042   0.471   0.800
  341SOL    MW4 1396   1.970   0.502   0.762
  342SOL     OW 1397   1.994   0.773   0.841
  342SOL    HW2 1398   2.072   0.798   0.792
  342SOL    HW3 1399   1.979   0.681   0.817
  342SOL    MW4 1400   2.002   0.764   0.831
  343SOL     OW 1401   1.803   0.902   0.692
  343SOL    HW2 1402   1.792   0.987   0.734
  343SOL    HW3 1403   1.866   0.855   0.748
  343SOL    MW4 1404   1.810   0.907   0.705
  344SOL     OW 1405   1.776   1.165   0.809
  344SOL    HW2 1406   1.850   1.211   0.769
  344SOL    HW3 1407   1.699   1.208   0.772
  344SOL    MW4 1408   1.776   1.177   0.799
  345SOL     OW 1409   2.016   1.260   0.757
  345SOL    HW2 1410   2.097   1.222   0.794
  345SOL    HW3 1411   2.041   1.290   0.670
  345SOL    MW4 1412   2.030   1.259   0.751
  346SOL     OW 1413   1.943   1.521   0.846
  346SOL    HW2 1414   2.014   1.576   0.812
  346SOL    HW3 1415   1.962   1.434   0.812
  346SOL    MW4 1416   1.955   1.517   0.837
  347SOL     OW 1417   1.778   1.346   0.485
  347SOL    HW2 1418   1.732   1.422   0.449
  347SOL    HW3 1419   1.727   1.270   0.456
  347SOL    MW4 1420   1.765   1.346   0.477
  348SOL     OW 1421   1.805   1.916   0.863
  348SOL    HW2 1422   1.786   1.826   0.837
  348SOL    HW3 1423   1.740   1.969   0.817
  348SOL    MW4 1424   1.794   1.911   0.853
  349SOL     OW 1425   1.991   2.055   0.715
  349SOL    HW2 1426   2.014   2.138   0.757
  349SOL    HW3 1427   1.925   2.017   0.772
  349SOL    MW4 1428   1.985   2.061   0.728
  350SOL     OW 1429   2.068   2.295   0.830
  350SOL    HW2 1430   2.038   2.298   0.921
  350SOL    HW3 1431   2.006   2.351   0.783
  350SOL    MW4 1432   2.056   2.303   0.836
  351SOL     OW 1433   1.846   2.435   0.746
  351SOL    HW2 1434   1.772   2.383   0.778
  351SOL    HW3 1435   1.842   2.428   0.651
  351SOL    MW4 1436   1.835   2.428   0.738
  352SOL     OW 1437   1.801   2.705   0.855
  352SOL    HW2 1438   1.814   2.616   0.821
  352SOL    HW3 1439   1.711   2.727   0.831
  352SOL    MW4 1440   1.791   2.696   0.847
  353SOL     OW 1441   2.009   2.857   0.719
  353SOL    HW2 1442   2.091   2.809   0.733
  353SOL    HW3 1443   1.942   2.803   0.760
  353SOL    MW4 1444   2.011   2.844   0.726
  354SOL     OW 1445   1.962   3.119   0.838
  354SOL    HW2 1446   1.892   3.151   0.781
  354SOL    HW3 1447   1.981   3.031   0.806
  354SOL    MW4 1448   1.955   3.112   0.826
  355SOL     OW 1449   1.691   3.178   0.668
  355SOL    HW2 1450   1.627   3.144   0.731
  355SOL    HW3 1451   1.710   3.105   0.610
  355SOL    MW4 1452   1.685   3.164   0.669
  356SOL     OW 1453   1.773   3.444   0.769
  356SOL    HW2 1454   1.775   3.437   0.865
  356SOL    HW3 1455   1.747   3.357   0.740
  356SOL    MW4 1456   1.770   3.432   0.778
  357SOL     OW 1457   2.044   3.614   0.727
  357SOL    HW2 1458   2.034   3.699   0.770
  357SOL    HW3 1459   1.957   3.575   0.730
  357SOL    MW4 1460   2.031   3.620   0.733
  358SOL     OW 1461   2.054   3.854   0.848
  358SOL    HW2 1462   2.056   3.872   0.942
  358SOL    HW3 1463   1.974   3.896   0.817
  358SOL    MW4 1464   2.044   3.862   0.857
  359SOL     OW 1465   1.835   3.982   0.744
  359SOL    HW2 1466   1.749   3.941   0.758
  359SOL    HW3 1467   1.849   3.975   0.650
  359SOL    MW4 1468   1.825   3.976   0.733
  360SOL     OW 1469   1.802   4.263   0.814
  360SOL    HW2 1470   1.806   4.275   0.909
  360SOL    HW3 1471   1.817   4.170   0.800
  360SOL    MW4 1472   1.804   4.252   0.824
  361SOL     OW 1473   2.041   4.331   0.687
  361SOL    HW2 1474   1.978   4.315   0.757
  361SOL    HW3 1475   2.003   4.289   0.610
  361SOL    MW4 1476   2.028   4.324   0.686
  362SOL     OW 1477   2.409   4.601   0.795
  362SOL    HW2 1478   2.413   4.591   0.891
  362SOL    HW3 1479   2.484   4.657   0.774
  362SOL    MW4 1480   2.419   4.607   0.805
  363SOL     OW 1481   2.171   0.080   0.853
  363SOL    HW2 1482   2.251   0.028   0.852
  363SOL    HW3 1483   2.111   0.033   0.795
  363SOL    MW4 1484   2.173   0.067   0.845
  364SOL     OW 1485   2.195   0.374   0.823
  364SOL    HW2 1486   2.274   0.403   0.776
  364SOL    HW3 1487   2.197   0.279   0.816
  364SOL    MW4 1488   2.206   0.365   0.816
  365SOL     OW 1489   2.419   0.459   0.682
  365SOL    HW2 1490   2.417   0.423   0.594
  365SOL    HW3 1491   2.508   0.442   0.713
  365SOL    MW4 1492   2.430   0.452   0.675
  366SOL     OW 1493   2.478   0.727   0.650
  366SOL    HW2 1494   2.565   0.727   0.611
  366SOL    HW3 1495   2.461   0.636   0.673
  366SOL    MW4 1496   2.487   0.715   0.648
  367SOL     OW 1497   2.229   0.878   0.711
  367SOL    HW2 1498   2.296   0.829   0.664
  367SOL    HW3 1499   2.187   0.932   0.645
  367SOL    MW4 1500   2.232   0.879   0.696
  368SOL     OW 1501   2.259   1.138   0.843
  368SOL    HW2 1502   2.238   1.117   0.934
  368SOL    HW3 1503   2.263   1.054   0.799
  368SOL    MW4 1504   2.257   1.124   0.849
  369SOL     OW 1505   2.504   1.274   0.856
  369SOL    HW2 1506   2.426   1.218   0.864
  369SOL    HW3 1507   2.570   1.217   0.817
  369SOL    MW4 1508   2.502   1.259   0.852
  370SOL     OW 1509   2.462   1.554   0.902
  370SOL    HW2 1510   2.538   1.588   0.856
  370SOL    HW3 1511   2.471   1.459   0.898
  370SOL    MW4 1512   2.473   1.546   0.895
  371SOL     OW 1513   2.184   1.640   0.794
  371SOL    HW2 1514   2.268   1.611   0.830
  371SOL    HW3 1515   2.195   1.637   0.699
  371SOL    MW4 1516   2.197   1.636   0.786
  372SOL     OW 1517   2.175   1.915   0.881
  372SOL    HW2 1518   2.188   1.828   0.844
  372SOL    HW3 1519   2.124   1.962   0.815
  372SOL    MW4 1520   2.170   1.910   0.867
  373SOL     OW 1521   2.420   2.072   0.759
  373SOL    HW2 1522   2.331   2.054   0.788
  373SOL    HW3 1523   2.419   2.053   0.665
  373SOL    MW4 1524   2.408   2.067   0.750
  374SOL     OW 1525   2.593   2.257   0.843
  374SOL    HW2 1526   2.578   2.338   0.796
  374SOL    HW3 1527   2.523   2.198   0.813
  374SOL    MW4 1528   2.582   2.260   0.833
  375SOL     OW 1529   2.229   2.390   0.608
  375SOL    HW2 1530   2.323   2.398   0.625
  375SOL    HW3 1531   2.194   2.347   0.686
  375SOL    MW4 1532   2.237   2.385   0.620
  376SOL     OW 1533   2.239   2.715   0.773
  376SOL    HW2 1534   2.234   2.721   0.868
  376SOL    HW3 1535   2.238   2.621   0.755
  376SOL    MW4 1536   2.238   2.703   0.783
  377SOL     OW 1537   2.493   2.826   0.766
  377SOL    HW2 1538   2.547   2.762   0.813
  377SOL    HW3 1539   2.406   2.785   0.763
  377SOL    MW4 1540   2.488   2.812   0.772
  378SOL     OW 1541   2.422   3.087   0.867
  378SOL    HW2 1542   2.442   3.095   0.961
  378SOL    HW3 1543   2.466   3.006   0.840
  378SOL    MW4 1544   2.431   3.077   0.876
  379SOL     OW 1545   2.215   3.201   0.759
  379SOL    HW2 1546   2.139   3.167   0.806
  379SOL    HW3 1547   2.289   3.152   0.794
  379SOL    MW4 1548   2.214   3.190   0.770
  380SOL     OW 1549   2.275   3.463   0.825
  380SOL    HW2 1550   2.263   3.371   0.800
  380SOL    HW3 1551   2.195   3.507   0.797
  380SOL    MW4 1552   2.263   3.457   0.818
  381SOL     OW 1553   2.512   3.622   0.784
  381SOL    HW2 1554   2.584   3.572   0.824
  381SOL    HW3 1555   2.434   3.571   0.803
  381SOL    MW4 1556   2.511   3.609   0.792
  382SOL     OW 1557   2.506   3.909   0.796
  382SOL    HW2 1558   2.424   3.922   0.747
  382SOL    HW3 1559   2.514   3.814   0.804
  382SOL    MW4 1560   2.496   3.898   0.790
  383SOL     OW 1561   2.257   3.967   0.691
  383SOL    HW2 1562   2.182   3.927   0.734
  383SOL    HW3 1563   2.255   3.934   0.601
  383SOL    MW4 1564   2.247   3.958   0.685
  384SOL     OW 1565   2.290   4.223   0.771
  384SOL    HW2 1566   2.272   4.134   0.742
  384SOL    HW3 1567   2.217   4.275   0.737
  384SOL    MW4 1568   2.278   4.218   0.763
  385SOL     OW 1569   2.528   4.361   0.783
  385SOL    HW2 1570   2.484   4.446   0.784
  385SOL    HW3 1571   2.458   4.297   0.776
  385SOL    MW4 1572   2.513   4.364   0.782
  386SOL     OW 1573   2.865   4.633   0.836
  386SOL    HW2 1574   2.854   4.539   0.822
  386SOL    HW3 1575   2.784   4.672   0.804
  386SOL    MW4 1576   2.853   4.626   0.830
  387SOL     OW 1577   2.702   4.492   0.536
  387SOL    HW2 1578   2.763   4.546   0.486
  387SOL    HW3 1579   2.629   4.550   0.557
  387SOL    MW4 1580   2.701   4.507   0.532
  388SOL     OW 1581   2.656   0.381   0.815
  388SOL    HW2 1582   2.668   0.387   0.910
  388SOL    HW3 1583   2.739   0.410   0.778
  388SOL    MW4 1584   2.668   0.385   0.823
  389SOL     OW 1585   2.894   0.503   0.728
  389SOL    HW2 1586   2.962   0.447   0.766
  389SOL    HW3 1587   2.902   0.491   0.634
  389SOL    MW4 1588   2.904   0.494   0.721
  390SOL     OW 1589   2.830   0.732   0.874
  390SOL    HW2 1590   2.863   0.722   0.963
  390SOL    HW3 1591   2.858   0.652   0.829
  390SOL    MW4 1592   2.838   0.720   0.880
  391SOL     OW 1593   2.568   0.842   0.881
  391SOL    HW2 1594   2.653   0.797   0.882
  391SOL    HW3 1595   2.520   0.801   0.809
  391SOL    MW4 1596   2.573   0.831   0.871
  392SOL     OW 1597   2.679   1.071   0.741
  392SOL    HW2 1598   2.668   0.993   0.796
  392SOL    HW3 1599   2.669   1.039   0.652
  392SOL    MW4 1600   2.676   1.056   0.737
  393SOL     OW 1601   2.854   1.279   0.748
  393SOL    HW2 1602   2.939   1.247   0.778
  393SOL    HW3 1603   2.795   1.205   0.759
  393SOL    MW4 1604   2.858   1.265   0.753
  394SOL     OW 1605   2.871   1.546   0.835
  394SOL    HW2 1606   2.958   1.562   0.799
  394SOL    HW3 1607   2.853   1.454   0.816
  394SOL    MW4 1608   2.880   1.536   0.828
  395SOL     OW 1609   2.643   1.649   0.729
  395SOL    HW2 1610   2.643   1.738   0.765
  395SOL    HW3 1611   2.716   1.605   0.772
  395SOL    MW4 1612   2.653   1.655   0.739
  396SOL     OW 1613   2.645   1.900   0.815
  396SOL    HW2 1614   2.651   1.913   0.909
  396SOL    HW3 1615   2.579   1.963   0.786
  396SOL    MW4 1616   2.637   1.910   0.823
  397SOL     OW 1617   2.852   2.053   0.683
  397SOL    HW2 1618   2.836   2.132   0.735
  397SOL    HW3 1619   2.792   1.988   0.718
  397SOL    MW4 1620   2.842   2.055   0.695
  398SOL     OW 1621   2.867   2.280   0.833
  398SOL    HW2 1622   2.902   2.263   0.921
  398SOL    HW3 1623   2.772   2.283   0.845
  398SOL    MW4 1624   2.859   2.278   0.846
  399SOL     OW 1625   2.500   2.480   0.687
  399SOL    HW2 1626   2.514   2.530   0.606
  399SOL    HW3 1627   2.536   2.535   0.756
  399SOL    MW4 1628   2.507   2.494   0.685
  400SOL     OW 1629   2.651   2.608   0.879
  400SOL    HW2 1630   2.644   2.608   0.975
  400SOL    HW3 1631   2.736   2.648   0.861
  400SOL    MW4 1632   2.661   2.613   0.890
  401SOL     OW 1633   2.875   2.799   0.513
  401SOL    HW2 1634   2.887   2.711   0.479
  401SOL    HW3 1635   2.788   2.825   0.485
  401SOL    MW4 1636   2.865   2.791   0.505
  402SOL     OW 1637   2.891   3.050   0.864
  402SOL    HW2 1638   2.812   3.084   0.821
  402SOL    HW3 1639   2.889   2.956   0.846
  402SOL    MW4 1640   2.880   3.042   0.856
  403SOL     OW 1641   2.667   3.198   0.764
  403SOL    HW2 1642   2.690   3.289   0.784
  403SOL    HW3 1643   2.589   3.181   0.818
  403SOL    MW4 1644   2.660   3.208   0.774
  404SOL     OW 1645   2.736   3.458   0.855
  404SOL    HW2 1646   2.744   3.447   0.950
  404SOL    HW3 1647   2.820   3.497   0.829
  404SOL    MW4 1648   2.748   3.462   0.864
  405SOL     OW 1649   2.971   3.554   0.779
  405SOL    HW2 1650   2.968   3.650   0.772
  405SOL    HW3 1651   2.974   3.524   0.689
  405SOL    MW4 1652   2.971   3.563   0.766
  406SOL     OW 1653   2.913   3.837   0.818
  406SOL    HW2 1654   2.916   3.842   0.914
  406SOL    HW3 1655   2.840   3.893   0.793
  406SOL    MW4 1656   2.904   3.845   0.827
  407SOL     OW 1657   2.735   4.034   0.725
  407SOL    HW2 1658   2.653   4.002   0.763
  407SOL    HW3 1659   2.738   3.993   0.638
  407SOL    MW4 1660   2.724   4.024   0.719
  408SOL     OW 1661   2.867   4.355   0.823
  408SOL    HW2 1662   2.810   4.331   0.896
  408SOL    HW3 1663   2.956   4.336   0.854
  408SOL    MW4 1664   2.871   4.349   0.837
  409SOL     OW 1665   3.080   4.411   0.387
  409SOL    HW2 1666   3.168   4.398   0.423
  409SOL    HW3 1667   3.024   4.354   0.440
  409SOL    MW4 1668   3.085   4.402   0.399
  410SOL     OW 1669   3.370   0.010   0.873
  410SOL    HW2 1670   3.362   0.001   0.968
  410SOL    HW3 1671   3.288   0.052   0.846
  410SOL    MW4 1672   3.358   0.015   0.882
  411SOL     OW 1673   3.104   0.088   0.765
  411SOL    HW2 1674   3.090   0.155   0.833
  411SOL    HW3 1675   3.025   0.035   0.769
  411SOL    MW4 1676   3.091   0.090   0.775
  412SOL     OW 1677   3.076   0.358   0.878
  412SOL    HW2 1678   3.097   0.370   0.971
  412SOL    HW3 1679   3.150   0.398   0.832
  412SOL    MW4 1680   3.089   0.365   0.884
  413SOL     OW 1681   3.307   0.458   0.746
  413SOL    HW2 1682   3.392   0.449   0.788
  413SOL    HW3 1683   3.318   0.417   0.660
  413SOL    MW4 1684   3.320   0.451   0.740
  414SOL     OW 1685   3.300   0.734   0.845
  414SOL    HW2 1686   3.220   0.780   0.819
  414SOL    HW3 1687   3.285   0.643   0.817
  414SOL    MW4 1688   3.287   0.728   0.838
  415SOL     OW 1689   3.056   0.841   0.766
  415SOL    HW2 1690   3.047   0.931   0.798
  415SOL    HW3 1691   2.980   0.796   0.800
  415SOL    MW4 1692   3.045   0.847   0.775
  416SOL     OW 1693   3.065   1.097   0.855
  416SOL    HW2 1694   3.078   1.116   0.948
  416SOL    HW3 1695   3.145   1.126   0.813
  416SOL    MW4 1696   3.077   1.103   0.862
  417SOL     OW 1697   3.326   1.209   0.761
  417SOL    HW2 1698   3.410   1.178   0.795
  417SOL    HW3 1699   3.324   1.302   0.782
  417SOL    MW4 1700   3.337   1.217   0.768
  418SOL     OW 1701   3.293   1.483   0.815
  418SOL    HW2 1702   3.308   1.494   0.909
  418SOL    HW3 1703   3.378   1.499   0.775
  418SOL    MW4 1704   3.306   1.486   0.822
  419SOL     OW 1705   3.105   1.660   0.745
  419SOL    HW2 1706   3.167   1.588   0.758
  419SOL    HW3 1707   3.085   1.659   0.652
  419SOL    MW4 1708   3.111   1.651   0.735
  420SOL     OW 1709   3.234   1.863   0.870
  420SOL    HW2 1710   3.179   1.892   0.942
  420SOL    HW3 1711   3.187   1.789   0.832
  420SOL    MW4 1712   3.220   1.857   0.874
  421SOL     OW 1713   3.587   2.024   0.911
  421SOL    HW2 1714   3.558   2.112   0.885
  421SOL    HW3 1715   3.527   1.965   0.866
  421SOL    MW4 1716   3.575   2.028   0.902
  422SOL     OW 1717   3.465   2.268   0.851
  422SOL    HW2 1718   3.424   2.282   0.936
  422SOL    HW3 1719   3.542   2.325   0.852
  422SOL    MW4 1720   3.469   2.278   0.862
  423SOL     OW 1721   3.070   2.455   0.685
  423SOL    HW2 1722   3.142   2.406   0.648
  423SOL    HW3 1723   3.024   2.392   0.741
  423SOL    MW4 1724   3.073   2.440   0.688
  424SOL     OW 1725   3.141   2.685   0.819
  424SOL    HW2 1726   3.129   2.600   0.777
  424SOL    HW3 1727   3.223   2.718   0.783
  424SOL    MW4 1728   3.150   2.678   0.809
  425SOL     OW 1729   3.330   2.825   0.659
  425SOL    HW2 1730   3.259   2.852   0.600
  425SOL    HW3 1731   3.393   2.780   0.603
  425SOL    MW4 1732   3.329   2.823   0.644
  426SOL     OW 1733   3.448   3.030   0.788
  426SOL    HW2 1734   3.424   3.019   0.881
  426SOL    HW3 1735   3.411   2.952   0.745
  426SOL    MW4 1736   3.440   3.018   0.795
  427SOL     OW 1737   3.153   3.162   0.850
  427SOL    HW2 1738   3.216   3.120   0.910
  427SOL    HW3 1739   3.068   3.129   0.878
  427SOL    MW4 1740   3.151   3.152   0.862
  428SOL     OW 1741   3.203   3.422   0.882
  428SOL    HW2 1742   3.180   3.333   0.855
  428SOL    HW3 1743   3.127   3.475   0.858
  428SOL    MW4 1744   3.190   3.417   0.876
  429SOL     OW 1745   3.355   4.391   0.496
  429SOL    HW2 1746   3.374   4.299   0.477
  429SOL    HW3 1747   3.436   4.437   0.474
  429SOL    MW4 1748   3.368   4.385   0.490
  430SOL     OW 1749   3.480   3.948   0.875
  430SOL    HW2 1750   3.476   4.042   0.890
  430SOL    HW3 1751   3.431   3.909   0.947
  430SOL    MW4 1752   3.473   3.955   0.886
  431SOL     OW 1753   3.065   4.051   0.691
  431SOL    HW2 1754   3.149   4.010   0.673
  431SOL    HW3 1755   3.014   3.983   0.735
  431SOL    MW4 1756   3.069   4.036   0.695
  432SOL     OW 1757   3.125   4.242   0.887
  432SOL    HW2 1758   3.182   4.304   0.842
  432SOL    HW3 1759   3.103   4.176   0.820
  432SOL    MW4 1760   3.129   4.241   0.872
  433SOL     OW 1761   3.322   4.425   0.776
  433SOL    HW2 1762   3.333   4.520   0.785
  433SOL    HW3 1763   3.317   4.411   0.682
  433SOL    MW4 1764   3.323   4.436   0.765
  434SOL     OW 1765   3.809   4.646   0.834
  434SOL    HW2 1766   3.892   4.691   0.821
  434SOL    HW3 1767   3.742   4.713   0.819
  434SOL    MW4 1768   3.811   4.660   0.830
  435SOL     OW 1769   3.585   0.149   0.793
  435SOL    HW2 1770   3.509   0.099   0.822
  435SOL    HW3 1771   3.587   0.137   0.698
  435SOL    MW4 1772   3.575   0.141   0.784
  436SOL     OW 1773   3.581   0.431   0.832
  436SOL    HW2 1774   3.601   0.429   0.926
  436SOL    HW3 1775   3.583   0.339   0.805
  436SOL    MW4 1776   3.584   0.418   0.841
  437SOL     OW 1777   3.821   0.537   0.768
  437SOL    HW2 1778   3.816   0.624   0.809
  437SOL    HW3 1779   3.735   0.499   0.784
  437SOL    MW4 1780   3.809   0.544   0.776
  438SOL     OW 1781   3.761   0.793   0.853
  438SOL    HW2 1782   3.785   0.793   0.945
  438SOL    HW3 1783   3.828   0.847   0.811
  438SOL    MW4 1784   3.773   0.800   0.860
  439SOL     OW 1785   3.531   0.823   0.705
  439SOL    HW2 1786   3.603   0.799   0.763
  439SOL    HW3 1787   3.453   0.790   0.749
  439SOL    MW4 1788   3.530   0.816   0.718
  440SOL     OW 1789   3.586   1.088   0.800
  440SOL    HW2 1790   3.596   1.092   0.895
  440SOL    HW3 1791   3.572   0.995   0.782
  440SOL    MW4 1792   3.585   1.076   0.810
  441SOL     OW 1793   3.803   1.260   0.730
  441SOL    HW2 1794   3.739   1.190   0.746
  441SOL    HW3 1795   3.838   1.241   0.643
  441SOL    MW4 1796   3.799   1.249   0.720
  442SOL     OW 1797   3.808   1.515   0.877
  442SOL    HW2 1798   3.885   1.560   0.841
  442SOL    HW3 1799   3.815   1.426   0.843
  442SOL    MW4 1800   3.819   1.509   0.867
  443SOL     OW 1801   3.552   1.554   0.753
  443SOL    HW2 1802   3.533   1.646   0.767
  443SOL    HW3 1803   3.637   1.540   0.797
  443SOL    MW4 1804   3.561   1.564   0.761
  444SOL     OW 1805   3.778   2.025   0.710
  444SOL    HW2 1806   3.834   1.956   0.744
  444SOL    HW3 1807   3.717   2.045   0.781
  444SOL    MW4 1808   3.777   2.019   0.724
  445SOL     OW 1809   3.831   2.304   0.623
  445SOL    HW2 1810   3.795   2.345   0.702
  445SOL    HW3 1811   3.853   2.215   0.650
  445SOL    MW4 1812   3.829   2.298   0.637
  446SOL     OW 1813   4.132   1.739   0.327
  446SOL    HW2 1814   4.049   1.774   0.293
  446SOL    HW3 1815   4.177   1.815   0.363
  446SOL    MW4 1816   4.127   1.754   0.327
  447SOL     OW 1817   3.697   2.419   0.837
  447SOL    HW2 1818   3.694   2.514   0.849
  447SOL    HW3 1819   3.735   2.385   0.918
  447SOL    MW4 1820   3.701   2.427   0.849
  448SOL     OW 1821   3.622   2.706   0.822
  448SOL    HW2 1822   3.602   2.709   0.915
  448SOL    HW3 1823   3.685   2.776   0.809
  448SOL    MW4 1824   3.627   2.715   0.832
  449SOL     OW 1825   3.806   2.898   0.773
  449SOL    HW2 1826   3.774   2.977   0.817
  449SOL    HW3 1827   3.851   2.930   0.695
  449SOL    MW4 1828   3.807   2.913   0.769
  450SOL     OW 1829   3.692   3.116   0.898
  450SOL    HW2 1830   3.722   3.189   0.843
  450SOL    HW3 1831   3.612   3.086   0.856
  450SOL    MW4 1832   3.686   3.122   0.885
  451SOL     OW 1833   3.404   3.437   0.703
  451SOL    HW2 1834   3.433   3.349   0.678
  451SOL    HW3 1835   3.329   3.422   0.760
  451SOL    MW4 1836   3.398   3.423   0.707
  452SOL     OW 1837   3.650   3.529   0.806
  452SOL    HW2 1838   3.686   3.448   0.771
  452SOL    HW3 1839   3.556   3.523   0.787
  452SOL    MW4 1840   3.642   3.518   0.799
  453SOL     OW 1841   3.845   3.602   0.612
  453SOL    HW2 1842   3.758   3.579   0.644
  453SOL    HW3 1843   3.897   3.614   0.692
  453SOL    MW4 1844   3.841   3.600   0.627
  454SOL     OW 1845   3.724   3.808   0.905
  454SOL    HW2 1846   3.639   3.851   0.897
  454SOL    HW3 1847   3.707   3.716   0.883
  454SOL    MW4 1848   3.711   3.801   0.901
  455SOL     OW 1849   2.607   4.148   0.209
  455SOL    HW2 1850   2.591   4.176   0.119
  455SOL    HW3 1851   2.608   4.230   0.259
  455SOL    MW4 1852   2.605   4.163   0.204
  456SOL     OW 1853   3.487   4.212   0.863
  456SOL    HW2 1854   3.542   4.213   0.785
  456SOL    HW3 1855   3.429   4.288   0.851
  456SOL    MW4 1856   3.486   4.222   0.851
  457SOL     OW 1857   3.815   4.456   0.627
  457SOL    HW2 1858   3.773   4.380   0.667
  457SOL    HW3 1859   3.815   4.522   0.696
  457SOL    MW4 1860   3.810   4.454   0.642
  458SOL     OW 1861   4.256   4.636   0.845
  458SOL    HW2 1862   4.266   4.636   0.940
  458SOL    HW3 1863   4.185   4.699   0.829
  458SOL    MW4 1864   4.248   4.645   0.855
  459SOL     OW 1865   4.024   0.120   0.761
  459SOL    HW2 1866   4.009   0.208   0.795
  459SOL    HW3 1867   4.022   0.130   0.665
  459SOL    MW4 1868   4.022   0.133   0.752
  460SOL     OW 1869   4.028   0.391   0.849
  460SOL    HW2 1870   4.107   0.429   0.811
  460SOL    HW3 1871   3.958   0.451   0.824
  460SOL    MW4 1872   4.029   0.404   0.840
  461SOL     OW 1873   4.250   0.536   0.751
  461SOL    HW2 1874   4.327   0.493   0.788
  461SOL    HW3 1875   4.261   0.529   0.656
  461SOL    MW4 1876   4.261   0.529   0.744
  462SOL     OW 1877   4.225   0.794   0.833
  462SOL    HW2 1878   4.150   0.846   0.805
  462SOL    HW3 1879   4.214   0.710   0.789
  462SOL    MW4 1880   4.214   0.790   0.824
  463SOL     OW 1881   3.992   0.930   0.764
  463SOL    HW2 1882   4.009   1.018   0.797
  463SOL    HW3 1883   3.976   0.942   0.670
  463SOL    MW4 1884   3.992   0.943   0.756
  464SOL     OW 1885   4.059   1.187   0.839
  464SOL    HW2 1886   4.076   1.202   0.932
  464SOL    HW3 1887   3.971   1.222   0.825
  464SOL    MW4 1888   4.050   1.194   0.849
  465SOL     OW 1889   4.307   1.294   0.768
  465SOL    HW2 1890   4.223   1.249   0.773
  465SOL    HW3 1891   4.372   1.227   0.789
  465SOL    MW4 1892   4.304   1.279   0.771
  466SOL     OW 1893   4.297   1.561   0.856
  466SOL    HW2 1894   4.262   1.563   0.945
  466SOL    HW3 1895   4.297   1.468   0.832
  466SOL    MW4 1896   4.293   1.549   0.865
  467SOL     OW 1897   4.039   1.611   0.748
  467SOL    HW2 1898   4.120   1.590   0.795
  467SOL    HW3 1899   4.039   1.553   0.672
  467SOL    MW4 1900   4.050   1.601   0.744
  468SOL     OW 1901   3.989   1.883   0.830
  468SOL    HW2 1902   4.015   1.796   0.799
  468SOL    HW3 1903   4.068   1.936   0.819
  468SOL    MW4 1904   4.003   1.878   0.824
  469SOL     OW 1905   4.248   2.004   0.728
  469SOL    HW2 1906   4.329   1.970   0.767
  469SOL    HW3 1907   4.246   1.966   0.640
  469SOL    MW4 1908   4.258   1.994   0.722
  470SOL     OW 1909   4.278   2.279   0.786
  470SOL    HW2 1910   4.205   2.314   0.735
  470SOL    HW3 1911   4.270   2.184   0.775
  470SOL    MW4 1912   4.267   2.271   0.777
  471SOL     OW 1913   4.037   2.636   0.541
  471SOL    HW2 1914   4.006   2.634   0.632
  471SOL    HW3 1915   3.957   2.639   0.489
  471SOL    MW4 1916   4.022   2.636   0.546
  472SOL     OW 1917   4.001   2.723   0.809
  472SOL    HW2 1918   4.072   2.779   0.777
  472SOL    HW3 1919   3.927   2.782   0.820
  472SOL    MW4 1920   4.001   2.738   0.806
  473SOL     OW 1921   4.253   2.852   0.749
  473SOL    HW2 1922   4.337   2.818   0.781
  473SOL    HW3 1923   4.263   2.857   0.654
  473SOL    MW4 1924   4.265   2.849   0.741
  474SOL     OW 1925   4.301   3.124   0.837
  474SOL    HW2 1926   4.295   3.038   0.794
  474SOL    HW3 1927   4.379   3.164   0.798
  474SOL    MW4 1928   4.311   3.118   0.826
  475SOL     OW 1929   4.089   3.292   0.787
  475SOL    HW2 1930   4.131   3.379   0.781
  475SOL    HW3 1931   4.158   3.236   0.823
  475SOL    MW4 1932   4.104   3.296   0.791
  476SOL     OW 1933   3.994   3.643   0.839
  476SOL    HW2 1934   4.003   3.585   0.915
  476SOL    HW3 1935   4.021   3.729   0.871
  476SOL    MW4 1936   3.998   3.647   0.853
  477SOL     OW 1937   4.226   3.538   0.757
  477SOL    HW2 1938   4.152   3.593   0.783
  477SOL    HW3 1939   4.246   3.565   0.667
  477SOL    MW4 1940   4.219   3.549   0.749
  478SOL     OW 1941   4.151   3.875   0.893
  478SOL    HW2 1942   4.207   3.864   0.970
  478SOL    HW3 1943   4.115   3.963   0.902
  478SOL    MW4 1944   4.154   3.885   0.905
  479SOL     OW 1945   3.842   4.005   0.719
  479SOL    HW2 1946   3.789   3.942   0.768
  479SOL    HW3 1947   3.868   3.958   0.640
  479SOL    MW4 1948   3.838   3.991   0.715
  480SOL     OW 1949   4.026   4.106   0.900
  480SOL    HW2 1950   4.068   4.152   0.827
  480SOL    HW3 1951   3.949   4.065   0.862
  480SOL    MW4 1952   4.022   4.107   0.886
  481SOL     OW 1953   4.343   4.445   0.680
  481SOL    HW2 1954   4.329   4.520   0.737
  481SOL    HW3 1955   4.396   4.385   0.732
  481SOL    MW4 1956   4.348   4.447   0.694
  482SOL     OW 1957   0.235   4.603   1.135
  482SOL    HW2 1958   0.302   4.660   1.173
  482SOL    HW3 1959   0.238   4.621   1.041
  482SOL    MW4 1960   0.244   4.613   1.128
  483SOL     OW 1961   0.017   0.091   1.191
  483SOL    HW2 1962  -0.062   0.044   1.164
  483SOL    HW3 1963   0.090   0.037   1.161
  483SOL    MW4 1964   0.016   0.078   1.184
  484SOL     OW 1965   0.008   0.374   1.138
  484SOL    HW2 1966  -0.070   0.422   1.167
  484SOL    HW3 1967  -0.007   0.284   1.169
  484SOL    MW4 1968  -0.005   0.368   1.146
  485SOL     OW 1969   0.255   0.495   1.203
  485SOL    HW2 1970   0.235   0.587   1.184
  485SOL    HW3 1971   0.177   0.447   1.174
  485SOL    MW4 1972   0.242   0.501   1.196
  486SOL     OW 1973   0.196   0.780   1.112
  486SOL    HW2 1974   0.268   0.828   1.154
  486SOL    HW3 1975   0.117   0.817   1.152
  486SOL    MW4 1976   0.195   0.791   1.123
  487SOL     OW 1977   4.466   0.907   1.230
  487SOL    HW2 1978   4.471   0.878   1.321
  487SOL    HW3 1979   4.393   0.857   1.193
  487SOL    MW4 1980   4.457   0.896   1.237
  488SOL     OW 1981   0.042   1.141   1.107
  488SOL    HW2 1982  -0.036   1.191   1.132
  488SOL    HW3 1983   0.033   1.058   1.153
  488SOL    MW4 1984   0.031   1.137   1.116
  489SOL     OW 1985   0.259   1.289   1.181
  489SOL    HW2 1986   0.341   1.240   1.168
  489SOL    HW3 1987   0.191   1.231   1.147
  489SOL    MW4 1988   0.261   1.275   1.175
  490SOL     OW 1989   0.256   1.536   1.054
  490SOL    HW2 1990   0.235   1.448   1.084
  490SOL    HW3 1991   0.248   1.531   0.958
  490SOL    MW4 1992   0.252   1.524   1.045
  491SOL     OW 1993   0.030   1.682   1.178
  491SOL    HW2 1994   0.036   1.772   1.146
  491SOL    HW3 1995   0.095   1.634   1.126
  491SOL    MW4 1996   0.039   1.688   1.167
  492SOL     OW 1997   0.018   1.960   1.103
  492SOL    HW2 1998  -0.064   1.997   1.136
  492SOL    HW3 1999   0.005   1.954   1.008
  492SOL    MW4 2000   0.006   1.964   1.095
  493SOL     OW 2001   0.268   2.067   1.160
  493SOL    HW2 2002   0.266   2.160   1.138
  493SOL    HW3 2003   0.180   2.035   1.140
  493SOL    MW4 2004   0.256   2.075   1.155
  494SOL     OW 2005   0.254   2.328   1.086
  494SOL    HW2 2006   0.324   2.377   1.130
  494SOL    HW3 2007   0.174   2.373   1.112
  494SOL    MW4 2008   0.253   2.340   1.095
  495SOL     OW 2009   0.011   2.454   1.162
  495SOL    HW2 2010   0.009   2.473   1.256
  495SOL    HW3 2011  -0.058   2.389   1.149
  495SOL    MW4 2012   0.001   2.448   1.172
  496SOL     OW 2013   0.038   2.730   1.125
  496SOL    HW2 2014  -0.040   2.777   1.155
  496SOL    HW3 2015   0.014   2.637   1.134
  496SOL    MW4 2016   0.024   2.724   1.130
  497SOL     OW 2017   0.267   2.822   1.231
  497SOL    HW2 2018   0.249   2.828   1.325
  497SOL    HW3 2019   0.198   2.765   1.198
  497SOL    MW4 2020   0.255   2.815   1.239
  498SOL     OW 2021   0.243   3.062   1.066
  498SOL    HW2 2022   0.306   3.123   1.104
  498SOL    HW3 2023   0.251   2.983   1.120
  498SOL    MW4 2024   0.252   3.059   1.078
  499SOL     OW 2025   0.023   3.211   1.180
  499SOL    HW2 2026  -0.057   3.164   1.155
  499SOL    HW3 2027   0.094   3.149   1.166
  499SOL    MW4 2028   0.021   3.197   1.175
  500SOL     OW 2029   4.473   3.483   1.108
  500SOL    HW2 2030   4.477   3.393   1.140
  500SOL    HW3 2031   4.470   3.474   1.012
  500SOL    MW4 2032   4.473   3.470   1.099
  501SOL     OW 2033   0.183   3.652   1.212
  501SOL    HW2 2034   0.190   3.638   1.307
  501SOL    HW3 2035   0.111   3.596   1.184
  501SOL    MW4 2036   0.175   3.643   1.221
  502SOL     OW 2037   0.245   3.926   1.160
  502SOL    HW2 2038   0.166   3.977   1.174
  502SOL    HW3 2039   0.222   3.837   1.188
  502SOL    MW4 2040   0.232   3.921   1.166
  503SOL     OW 2041   4.480   4.013   1.222
  503SOL    HW2 2042   4.486   4.005   1.317
  503SOL    HW3 2043   4.405   3.958   1.198
  503SOL    MW4 2044   4.471   4.005   1.232
  504SOL     OW 2045   4.483   4.252   1.098
  504SOL    HW2 2046   4.546   4.307   1.145
  504SOL    HW3 2047   4.487   4.167   1.143
  504SOL    MW4 2048   4.492   4.248   1.110
  505SOL     OW 2049   0.218   4.360   1.239
  505SOL    HW2 2050   0.234   4.377   1.331
  505SOL    HW3 2051   0.234   4.445   1.196
  505SOL    MW4 2052   0.222   4.374   1.245
  506SOL     OW 2053   0.636   4.645   1.103
  506SOL    HW2 2054   0.715   4.691   1.129
  506SOL    HW3 2055   0.649   4.556   1.135
  506SOL    MW4 2056   0.648   4.639   1.111
  507SOL     OW 2057   0.432   0.112   1.243
  507SOL    HW2 2058   0.441   0.193   1.193
  507SOL    HW3 2059   0.507   0.059   1.216
  507SOL    MW4 2060   0.443   0.116   1.233
  508SOL     OW 2061   0.460   0.340   1.105
  508SOL    HW2 2062   0.385   0.398   1.123
  508SOL    HW3 2063   0.465   0.337   1.010
  508SOL    MW4 2064   0.451   0.347   1.095
  509SOL     OW 2065   0.664   0.468   1.245
  509SOL    HW2 2066   0.655   0.558   1.215
  509SOL    HW3 2067   0.596   0.420   1.197
  509SOL    MW4 2068   0.654   0.473   1.235
  510SOL     OW 2069   0.654   0.726   1.120
  510SOL    HW2 2070   0.584   0.787   1.145
  510SOL    HW3 2071   0.641   0.712   1.027
  510SOL    MW4 2072   0.643   0.732   1.111
  511SOL     OW 2073   0.450   0.868   1.202
  511SOL    HW2 2074   0.470   0.866   1.296
  511SOL    HW3 2075   0.480   0.954   1.173
  511SOL    MW4 2076   0.456   0.879   1.211
  512SOL     OW 2077   0.495   1.140   1.123
  512SOL    HW2 2078   0.572   1.189   1.153
  512SOL    HW3 2079   0.496   1.150   1.028
  512SOL    MW4 2080   0.505   1.148   1.115
  513SOL     OW 2081   0.717   1.284   1.210
  513SOL    HW2 2082   0.796   1.246   1.172
  513SOL    HW3 2083   0.708   1.369   1.167
  513SOL    MW4 2084   0.726   1.290   1.200
  514SOL     OW 2085   0.695   1.550   1.046
  514SOL    HW2 2086   0.766   1.597   1.090
  514SOL    HW3 2087   0.617   1.574   1.095
  514SOL    MW4 2088   0.694   1.559   1.058
  515SOL     OW 2089   0.482   1.663   1.164
  515SOL    HW2 2090   0.462   1.678   1.256
  515SOL    HW3 2091   0.413   1.604   1.134
  515SOL    MW4 2092   0.470   1.657   1.172
  516SOL     OW 2093   0.495   1.915   1.053
  516SOL    HW2 2094   0.494   1.826   1.089
  516SOL    HW3 2095   0.413   1.954   1.084
  516SOL    MW4 2096   0.484   1.909   1.062
  517SOL     OW 2097   0.683   2.047   1.202
  517SOL    HW2 2098   0.661   2.054   1.295
  517SOL    HW3 2099   0.607   2.006   1.161
  517SOL    MW4 2100   0.670   2.042   1.209
  518SOL     OW 2101   0.699   2.308   1.113
  518SOL    HW2 2102   0.620   2.345   1.153
  518SOL    HW3 2103   0.698   2.216   1.137
  518SOL    MW4 2104   0.689   2.301   1.121
  519SOL     OW 2105   0.467   2.437   1.219
  519SOL    HW2 2106   0.421   2.427   1.303
  519SOL    HW3 2107   0.470   2.532   1.205
  519SOL    MW4 2108   0.461   2.448   1.228
  520SOL     OW 2109   0.482   2.696   1.126
  520SOL    HW2 2110   0.405   2.739   1.165
  520SOL    HW3 2111   0.472   2.708   1.032
  520SOL    MW4 2112   0.471   2.703   1.119
  521SOL     OW 2113   0.684   2.842   1.238
  521SOL    HW2 2114   0.695   2.934   1.214
  521SOL    HW3 2115   0.605   2.814   1.191
  521SOL    MW4 2116   0.675   2.850   1.228
  522SOL     OW 2117   0.681   3.128   1.155
  522SOL    HW2 2118   0.763   3.162   1.192
  522SOL    HW3 2119   0.687   3.148   1.062
  522SOL    MW4 2120   0.693   3.135   1.148
  523SOL     OW 2121   0.424   3.218   1.217
  523SOL    HW2 2122   0.429   3.307   1.182
  523SOL    HW3 2123   0.510   3.180   1.198
  523SOL    MW4 2124   0.436   3.225   1.210
  524SOL     OW 2125   0.431   3.483   1.154
  524SOL    HW2 2126   0.507   3.503   1.209
  524SOL    HW3 2127   0.365   3.548   1.180
  524SOL    MW4 2128   0.433   3.494   1.164
  525SOL     OW 2129   0.701   3.603   1.218
  525SOL    HW2 2130   0.687   3.601   1.313
  525SOL    HW3 2131   0.682   3.693   1.193
  525SOL    MW4 2132   0.697   3.615   1.227
  526SOL     OW 2133   0.691   3.859   1.140
  526SOL    HW2 2134   0.617   3.914   1.167
  526SOL    HW3 2135   0.695   3.868   1.045
  526SOL    MW4 2136   0.682   3.868   1.131
  527SOL     OW 2137   0.485   4.052   1.209
  527SOL    HW2 2138   0.476   4.135   1.162
  527SOL    HW3 2139   0.400   4.010   1.201
  527SOL    MW4 2140   0.473   4.058   1.202
  528SOL     OW 2141   0.449   4.292   1.089
  528SOL    HW2 2142   0.532   4.322   1.126
  528SOL    HW3 2143   0.382   4.328   1.148
  528SOL    MW4 2144   0.451   4.301   1.102
  529SOL     OW 2145   0.672   4.396   1.205
  529SOL    HW2 2146   0.676   4.403   1.300
  529SOL    HW3 2147   0.757   4.358   1.180
  529SOL    MW4 2148   0.684   4.392   1.214
  530SOL     OW 2149   1.110   4.660   1.137
  530SOL    HW2 2150   1.123   4.568   1.160
  530SOL    HW3 2151   1.112   4.661   1.041
  530SOL    MW4 2152   1.112   4.648   1.127
  531SOL     OW 2153   0.871   0.130   1.195
  531SOL    HW2 2154   0.899   0.146   1.285
  531SOL    HW3 2155   0.945   0.084   1.155
  531SOL    MW4 2156   0.884   0.126   1.201
  532SOL     OW 2157   0.889   0.402   1.096
  532SOL    HW2 2158   0.895   0.313   1.132
  532SOL    HW3 2159   0.817   0.443   1.144
  532SOL    MW4 2160   0.880   0.395   1.107
  533SOL     OW 2161   1.122   0.470   1.235
  533SOL    HW2 2162   1.112   0.489   1.328
  533SOL    HW3 2163   1.036   0.441   1.206
  533SOL    MW4 2164   1.110   0.469   1.243
  534SOL     OW 2165   1.108   0.726   1.090
  534SOL    HW2 2166   1.027   0.763   1.126
  534SOL    HW3 2167   1.113   0.638   1.127
  534SOL    MW4 2168   1.098   0.720   1.100
  535SOL     OW 2169   0.867   0.889   1.227
  535SOL    HW2 2170   0.890   0.967   1.176
  535SOL    HW3 2171   0.810   0.839   1.168
  535SOL    MW4 2172   0.862   0.892   1.212
  536SOL     OW 2173   0.915   1.118   1.070
  536SOL    HW2 2174   0.988   1.175   1.092
  536SOL    HW3 2175   0.915   1.115   0.974
  536SOL    MW4 2176   0.924   1.125   1.060
  537SOL     OW 2177   1.118   1.259   1.172
  537SOL    HW2 2178   1.108   1.274   1.266
  537SOL    HW3 2179   1.203   1.214   1.165
  537SOL    MW4 2180   1.128   1.255   1.183
  538SOL     OW 2181   1.108   1.533   1.095
  538SOL    HW2 2182   1.110   1.437   1.098
  538SOL    HW3 2183   1.114   1.553   1.001
  538SOL    MW4 2184   1.109   1.523   1.083
  539SOL     OW 2185   0.907   1.633   1.223
  539SOL    HW2 2186   0.913   1.719   1.181
  539SOL    HW3 2187   0.982   1.584   1.190
  539SOL    MW4 2188   0.918   1.638   1.213
  540SOL     OW 2189   0.919   1.894   1.116
  540SOL    HW2 2190   0.987   1.940   1.166
  540SOL    HW3 2191   0.840   1.946   1.129
  540SOL    MW4 2192   0.918   1.907   1.124
  541SOL     OW 2193   1.119   2.032   1.247
  541SOL    HW2 2194   1.116   2.035   1.342
  541SOL    HW3 2195   1.133   2.122   1.220
  541SOL    MW4 2196   1.121   2.044   1.256
  542SOL     OW 2197   1.104   2.303   1.151
  542SOL    HW2 2198   1.187   2.346   1.170
  542SOL    HW3 2199   1.039   2.353   1.200
  542SOL    MW4 2200   1.106   2.315   1.160
  543SOL     OW 2201   0.903   2.462   1.252
  543SOL    HW2 2202   0.897   2.450   1.347
  543SOL    HW3 2203   0.828   2.413   1.218
  543SOL    MW4 2204   0.892   2.454   1.260
  544SOL     OW 2205   0.901   2.725   1.138
  544SOL    HW2 2206   0.903   2.637   1.174
  544SOL    HW3 2207   0.818   2.762   1.169
  544SOL    MW4 2208   0.891   2.718   1.147
  545SOL     OW 2209   1.129   2.834   1.222
  545SOL    HW2 2210   1.139   2.820   1.316
  545SOL    HW3 2211   1.046   2.793   1.199
  545SOL    MW4 2212   1.120   2.827   1.231
  546SOL     OW 2213   1.145   3.090   1.119
  546SOL    HW2 2214   1.156   3.003   1.157
  546SOL    HW3 2215   1.112   3.074   1.031
  546SOL    MW4 2216   1.142   3.077   1.113
  547SOL     OW 2217   0.927   3.220   1.266
  547SOL    HW2 2218   0.925   3.296   1.208
  547SOL    HW3 2219   1.010   3.176   1.247
  547SOL    MW4 2220   0.938   3.224   1.256
  548SOL     OW 2221   0.899   3.441   1.071
  548SOL    HW2 2222   0.827   3.495   1.102
  548SOL    HW3 2223   0.885   3.433   0.977
  548SOL    MW4 2224   0.888   3.447   1.063
  549SOL     OW 2225   1.115   3.642   1.171
  549SOL    HW2 2226   1.193   3.599   1.138
  549SOL    HW3 2227   1.043   3.583   1.147
  549SOL    MW4 2228   1.116   3.629   1.163
  550SOL     OW 2229   1.116   3.907   1.066
  550SOL    HW2 2230   1.039   3.949   1.105
  550SOL    HW3 2231   1.110   3.816   1.094
  550SOL    MW4 2232   1.105   3.901   1.075
  551SOL     OW 2233   0.920   4.024   1.222
  551SOL    HW2 2234   0.924   4.020   1.317
  551SOL    HW3 2235   0.847   3.967   1.198
  551SOL    MW4 2236   0.911   4.016   1.231
  552SOL     OW 2237   0.903   4.289   1.091
  552SOL    HW2 2238   0.898   4.203   1.132
  552SOL    HW3 2239   0.901   4.272   0.997
  552SOL    MW4 2240   0.902   4.276   1.084
  553SOL     OW 2241   1.145   4.389   1.179
  553SOL    HW2 2242   1.138   4.392   1.274
  553SOL    HW3 2243   1.059   4.360   1.149
  553SOL    MW4 2244   1.132   4.386   1.188
  554SOL     OW 2245   1.544   4.622   1.109
  554SOL    HW2 2246   1.623   4.670   1.132
  554SOL    HW3 2247   1.561   4.532   1.137
  554SOL    MW4 2248   1.557   4.616   1.115
  555SOL     OW 2249   1.352   0.110   1.205
  555SOL    HW2 2250   1.405   0.038   1.170
  555SOL    HW3 2251   1.262   0.078   1.199
  555SOL    MW4 2252   1.347   0.096   1.200
  556SOL     OW 2253   1.334   0.375   1.087
  556SOL    HW2 2254   1.334   0.283   1.113
  556SOL    HW3 2255   1.256   0.411   1.129
  556SOL    MW4 2256   1.324   0.368   1.096
  557SOL     OW 2257   1.551   0.494   1.218
  557SOL    HW2 2258   1.538   0.584   1.186
  557SOL    HW3 2259   1.486   0.442   1.172
  557SOL    MW4 2260   1.541   0.499   1.208
  558SOL     OW 2261   1.539   0.745   1.068
  558SOL    HW2 2262   1.598   0.817   1.092
  558SOL    HW3 2263   1.547   0.738   0.973
  558SOL    MW4 2264   1.548   0.754   1.059
  559SOL     OW 2265   1.324   0.868   1.211
  559SOL    HW2 2266   1.403   0.820   1.185
  559SOL    HW3 2267   1.252   0.821   1.168
  559SOL    MW4 2268   1.325   0.855   1.202
  560SOL     OW 2269   1.368   1.147   1.131
  560SOL    HW2 2270   1.372   1.057   1.162
  560SOL    HW3 2271   1.350   1.140   1.037
  560SOL    MW4 2272   1.366   1.134   1.123
  561SOL     OW 2273   1.565   1.318   1.191
  561SOL    HW2 2274   1.643   1.269   1.164
  561SOL    HW3 2275   1.492   1.260   1.173
  561SOL    MW4 2276   1.566   1.304   1.185
  562SOL     OW 2277   1.557   1.601   1.060
  562SOL    HW2 2278   1.626   1.625   1.121
  562SOL    HW3 2279   1.540   1.508   1.078
  562SOL    MW4 2280   1.564   1.592   1.071
  563SOL     OW 2281   1.306   1.682   1.176
  563SOL    HW2 2282   1.369   1.645   1.114
  563SOL    HW3 2283   1.224   1.636   1.157
  563SOL    MW4 2284   1.303   1.671   1.165
  564SOL     OW 2285   1.341   1.945   1.106
  564SOL    HW2 2286   1.352   1.852   1.128
  564SOL    HW3 2287   1.263   1.971   1.154
  564SOL    MW4 2288   1.332   1.936   1.115
  565SOL     OW 2289   1.558   2.068   1.211
  565SOL    HW2 2290   1.570   2.138   1.147
  565SOL    HW3 2291   1.487   2.014   1.175
  565SOL    MW4 2292   1.550   2.070   1.198
  566SOL     OW 2293   1.606   2.314   1.085
  566SOL    HW2 2294   1.514   2.337   1.097
  566SOL    HW3 2295   1.619   2.312   0.991
  566SOL    MW4 2296   1.596   2.317   1.074
  567SOL     OW 2297   1.363   2.432   1.210
  567SOL    HW2 2298   1.395   2.440   1.300
  567SOL    HW3 2299   1.363   2.522   1.177
  567SOL    MW4 2300   1.368   2.445   1.218
  568SOL     OW 2301   1.346   2.714   1.104
  568SOL    HW2 2302   1.421   2.768   1.129
  568SOL    HW3 2303   1.270   2.764   1.133
  568SOL    MW4 2304   1.346   2.728   1.111
  569SOL     OW 2305   1.555   2.861   1.207
  569SOL    HW2 2306   1.638   2.826   1.174
  569SOL    HW3 2307   1.565   2.956   1.198
  569SOL    MW4 2308   1.568   2.869   1.202
  570SOL     OW 2309   1.567   3.134   1.148
  570SOL    HW2 2310   1.643   3.187   1.174
  570SOL    HW3 2311   1.497   3.163   1.206
  570SOL    MW4 2312   1.568   3.145   1.159
  571SOL     OW 2313   1.330   3.260   1.242
  571SOL    HW2 2314   1.326   3.250   1.337
  571SOL    HW3 2315   1.266   3.197   1.208
  571SOL    MW4 2316   1.321   3.250   1.250
  572SOL     OW 2317   1.357   3.498   1.145
  572SOL    HW2 2318   1.336   3.409   1.172
  572SOL    HW3 2319   1.368   3.492   1.050
  572SOL    MW4 2320   1.356   3.486   1.136
  573SOL     OW 2321   1.589   3.651   1.196
  573SOL    HW2 2322   1.577   3.741   1.165
  573SOL    HW3 2323   1.514   3.603   1.161
  573SOL    MW4 2324   1.577   3.656   1.188
  574SOL     OW 2325   1.551   3.900   1.100
  574SOL    HW2 2326   1.468   3.936   1.134
  574SOL    HW3 2327   1.542   3.907   1.005
  574SOL    MW4 2328   1.539   3.906   1.092
  575SOL     OW 2329   1.316   3.988   1.250
  575SOL    HW2 2330   1.326   4.078   1.219
  575SOL    HW3 2331   1.254   3.948   1.188
  575SOL    MW4 2332   1.309   3.994   1.238
  576SOL     OW 2333   1.371   4.224   1.131
  576SOL    HW2 2334   1.303   4.286   1.157
  576SOL    HW3 2335   1.379   4.236   1.036
  576SOL    MW4 2336   1.363   4.234   1.122
  577SOL     OW 2337   1.587   4.371   1.230
  577SOL    HW2 2338   1.572   4.382   1.324
  577SOL    HW3 2339   1.526   4.303   1.204
  577SOL    MW4 2340   1.577   4.364   1.239
  578SOL     OW 2341   1.986   4.652   1.054
  578SOL    HW2 2342   2.013   4.562   1.074
  578SOL    HW3 2343   2.046   4.680   0.985
  578SOL    MW4 2344   1.997   4.644   1.048
  579SOL     OW 2345   1.773   0.094   1.199
  579SOL    HW2 2346   1.773   0.188   1.178
  579SOL    HW3 2347   1.844   0.058   1.145
  579SOL    MW4 2348   1.782   0.102   1.189
  580SOL     OW 2349   1.765   0.351   1.114
  580SOL    HW2 2350   1.703   0.411   1.154
  580SOL    HW3 2351   1.732   0.336   1.026
  580SOL    MW4 2352   1.752   0.357   1.108
  581SOL     OW 2353   1.986   0.508   1.209
  581SOL    HW2 2354   1.978   0.511   1.304
  581SOL    HW3 2355   1.912   0.454   1.180
  581SOL    MW4 2356   1.975   0.502   1.218
  582SOL     OW 2357   1.965   0.776   1.139
  582SOL    HW2 2358   1.982   0.685   1.163
  582SOL    HW3 2359   1.987   0.781   1.046
  582SOL    MW4 2360   1.970   0.765   1.130
  583SOL     OW 2361   1.740   0.897   1.219
  583SOL    HW2 2362   1.731   0.897   1.314
  583SOL    HW3 2363   1.821   0.848   1.203
  583SOL    MW4 2364   1.749   0.890   1.229
  584SOL     OW 2365   1.783   1.170   1.091
  584SOL    HW2 2366   1.777   1.078   1.115
  584SOL    HW3 2367   1.784   1.170   0.995
  584SOL    MW4 2368   1.782   1.158   1.081
  585SOL     OW 2369   1.992   1.303   1.198
  585SOL    HW2 2370   2.068   1.260   1.159
  585SOL    HW3 2371   1.917   1.264   1.155
  585SOL    MW4 2372   1.992   1.292   1.187
  586SOL     OW 2373   1.987   1.560   1.110
  586SOL    HW2 2374   1.986   1.471   1.146
  586SOL    HW3 2375   1.964   1.549   1.018
  586SOL    MW4 2376   1.984   1.547   1.103
  587SOL     OW 2377   1.756   1.713   1.229
  587SOL    HW2 2378   1.782   1.804   1.213
  587SOL    HW3 2379   1.821   1.661   1.181
  587SOL    MW4 2380   1.768   1.718   1.221
  588SOL     OW 2381   1.814   1.973   1.147
  588SOL    HW2 2382   1.725   2.000   1.171
  588SOL    HW3 2383   1.807   1.947   1.055
  588SOL    MW4 2384   1.801   1.973   1.138
  589SOL     OW 2385   2.010   2.135   1.254
  589SOL    HW2 2386   2.003   2.119   1.348
  589SOL    HW3 2387   1.933   2.094   1.217
  589SOL    MW4 2388   1.999   2.127   1.262
  590SOL     OW 2389   2.026   2.348   1.097
  590SOL    HW2 2390   2.107   2.396   1.115
  590SOL    HW3 2391   2.021   2.283   1.166
  590SOL    MW4 2392   2.036   2.346   1.108
  591SOL     OW 2393   1.810   2.467   1.204
  591SOL    HW2 2394   1.895   2.437   1.171
  591SOL    HW3 2395   1.747   2.409   1.161
  591SOL    MW4 2396   1.813   2.455   1.194
  592SOL     OW 2397   1.792   2.735   1.129
  592SOL    HW2 2398   1.786   2.642   1.154
  592SOL    HW3 2399   1.793   2.734   1.034
  592SOL    MW4 2400   1.792   2.722   1.120
  593SOL     OW 2401   2.020   2.851   1.219
  593SOL    HW2 2402   2.016   2.945   1.201
  593SOL    HW3 2403   1.935   2.818   1.189
  593SOL    MW4 2404   2.008   2.859   1.213
  594SOL     OW 2405   2.023   3.135   1.111
  594SOL    HW2 2406   1.957   3.176   1.167
  594SOL    HW3 2407   1.988   3.146   1.022
  594SOL    MW4 2408   2.009   3.142   1.106
  595SOL     OW 2409   1.796   3.268   1.218
  595SOL    HW2 2410   1.779   3.289   1.309
  595SOL    HW3 2411   1.786   3.351   1.171
  595SOL    MW4 2412   1.793   3.282   1.224
  596SOL     OW 2413   1.782   3.509   1.048
  596SOL    HW2 2414   1.869   3.530   1.084
  596SOL    HW3 2415   1.724   3.573   1.089
  596SOL    MW4 2416   1.786   3.521   1.058
  597SOL     OW 2417   2.010   3.581   1.188
  597SOL    HW2 2418   2.012   3.586   1.284
  597SOL    HW3 2419   2.095   3.545   1.164
  597SOL    MW4 2420   2.021   3.577   1.197
  598SOL     OW 2421   2.025   3.873   1.127
  598SOL    HW2 2422   1.943   3.913   1.154
  598SOL    HW3 2423   2.016   3.781   1.149
  598SOL    MW4 2424   2.013   3.866   1.133
  599SOL     OW 2425   1.799   3.996   1.209
  599SOL    HW2 2426   1.801   3.985   1.304
  599SOL    HW3 2427   1.712   3.967   1.183
  599SOL    MW4 2428   1.788   3.991   1.218
  600SOL     OW 2429   1.825   4.251   1.111
  600SOL    HW2 2430   1.830   4.167   1.156
  600SOL    HW3 2431   1.749   4.294   1.149
  600SOL    MW4 2432   1.816   4.246   1.122
  601SOL     OW 2433   2.069   4.393   1.138
  601SOL    HW2 2434   2.080   4.406   1.232
  601SOL    HW3 2435   1.987   4.345   1.129
  601SOL    MW4 2436   2.060   4.389   1.149
  602SOL     OW 2437   2.451   4.613   1.069
  602SOL    HW2 2438   2.517   4.668   1.112
  602SOL    HW3 2439   2.367   4.650   1.098
  602SOL    MW4 2440   2.448   4.625   1.078
  603SOL     OW 2441   2.212   0.066   1.172
  603SOL    HW2 2442   2.211   0.161   1.163
  603SOL    HW3 2443   2.121   0.039   1.160
  603SOL    MW4 2444   2.200   0.075   1.169
  604SOL     OW 2445   2.202   0.347   1.108
  604SOL    HW2 2446   2.134   0.404   1.143
  604SOL    HW3 2447   2.211   0.373   1.017
  604SOL    MW4 2448   2.194   0.358   1.101
  605SOL     OW 2449   2.445   0.470   1.205
  605SOL    HW2 2450   2.455   0.470   1.300
  605SOL    HW3 2451   2.363   0.423   1.189
  605SOL    MW4 2452   2.435   0.464   1.215
  606SOL     OW 2453   2.432   0.760   1.141
  606SOL    HW2 2454   2.430   0.667   1.162
  606SOL    HW3 2455   2.454   0.763   1.048
  606SOL    MW4 2456   2.434   0.749   1.131
  607SOL     OW 2457   2.207   0.918   1.226
  607SOL    HW2 2458   2.284   0.868   1.198
  607SOL    HW3 2459   2.132   0.864   1.200
  607SOL    MW4 2460   2.207   0.904   1.219
  608SOL     OW 2461   2.226   1.165   1.117
  608SOL    HW2 2462   2.291   1.226   1.153
  608SOL    HW3 2463   2.220   1.096   1.182
  608SOL    MW4 2464   2.234   1.164   1.130
  609SOL     OW 2465   2.444   1.301   1.253
  609SOL    HW2 2466   2.510   1.270   1.190
  609SOL    HW3 2467   2.444   1.396   1.242
  609SOL    MW4 2468   2.453   1.310   1.243
  610SOL     OW 2469   2.445   1.578   1.190
  610SOL    HW2 2470   2.367   1.628   1.213
  610SOL    HW3 2471   2.449   1.580   1.095
  610SOL    MW4 2472   2.435   1.585   1.181
  611SOL     OW 2473   2.194   1.717   1.225
  611SOL    HW2 2474   2.197   1.804   1.185
  611SOL    HW3 2475   2.128   1.670   1.175
  611SOL    MW4 2476   2.186   1.723   1.213
  612SOL     OW 2477   2.202   1.983   1.135
  612SOL    HW2 2478   2.123   2.030   1.162
  612SOL    HW3 2479   2.187   1.962   1.042
  612SOL    MW4 2480   2.189   1.986   1.126
  613SOL     OW 2481   2.459   2.044   1.233
  613SOL    HW2 2482   2.514   1.980   1.189
  613SOL    HW3 2483   2.370   2.023   1.204
  613SOL    MW4 2484   2.454   2.033   1.223
  614SOL     OW 2485   2.491   2.304   1.118
  614SOL    HW2 2486   2.471   2.221   1.160
  614SOL    HW3 2487   2.532   2.280   1.035
  614SOL    MW4 2488   2.494   2.290   1.113
  615SOL     OW 2489   2.267   2.465   1.188
  615SOL    HW2 2490   2.260   2.475   1.283
  615SOL    HW3 2491   2.345   2.412   1.174
  615SOL    MW4 2492   2.276   2.460   1.199
  616SOL     OW 2493   2.202   2.705   1.058
  616SOL    HW2 2494   2.220   2.629   1.113
  616SOL    HW3 2495   2.133   2.752   1.104
  616SOL    MW4 2496   2.195   2.701   1.071
  617SOL     OW 2497   2.412   2.842   1.188
  617SOL    HW2 2498   2.419   2.847   1.284
  617SOL    HW3 2499   2.335   2.789   1.172
  617SOL    MW4 2500   2.403   2.836   1.199
  618SOL     OW 2501   2.454   3.115   1.126
  618SOL    HW2 2502   2.374   3.165   1.142
  618SOL    HW3 2503   2.435   3.027   1.157
  618SOL    MW4 2504   2.441   3.110   1.132
  619SOL     OW 2505   2.246   3.255   1.207
  619SOL    HW2 2506   2.259   3.345   1.176
  619SOL    HW3 2507   2.172   3.222   1.156
  619SOL    MW4 2508   2.238   3.262   1.196
  620SOL     OW 2509   2.261   3.518   1.093
  620SOL    HW2 2510   2.348   3.557   1.108
  620SOL    HW3 2511   2.260   3.498   1.000
  620SOL    MW4 2512   2.273   3.521   1.083
  621SOL     OW 2513   2.474   3.675   1.212
  621SOL    HW2 2514   2.465   3.680   1.307
  621SOL    HW3 2515   2.459   3.764   1.181
  621SOL    MW4 2516   2.471   3.687   1.220
  622SOL     OW 2517   2.510   3.990   1.120
  622SOL    HW2 2518   2.417   4.011   1.128
  622SOL    HW3 2519   2.524   3.974   1.027
  622SOL    MW4 2520   2.500   3.990   1.109
  623SOL     OW 2521   2.235   4.013   1.205
  623SOL    HW2 2522   2.236   4.099   1.163
  623SOL    HW3 2523   2.161   3.968   1.165
  623SOL    MW4 2524   2.226   4.018   1.195
  624SOL     OW 2525   2.290   4.246   1.064
  624SOL    HW2 2526   2.220   4.308   1.082
  624SOL    HW3 2527   2.294   4.240   0.969
  624SOL    MW4 2528   2.281   4.253   1.054
  625SOL     OW 2529   2.500   4.369   1.201
  625SOL    HW2 2530   2.434   4.310   1.164
  625SOL    HW3 2531   2.478   4.455   1.164
  625SOL    MW4 2532   2.488   4.372   1.191
  626SOL     OW 2533   2.922   0.003   1.095
  626SOL    HW2 2534   2.913  -0.088   1.121
  626SOL    HW3 2535   2.903   0.004   1.001
  626SOL    MW4 2536   2.919  -0.009   1.086
  627SOL     OW 2537   2.666   0.109   1.203
  627SOL    HW2 2538   2.666   0.103   1.299
  627SOL    HW3 2539   2.740   0.055   1.176
  627SOL    MW4 2540   2.676   0.101   1.212
  628SOL     OW 2541   2.666   0.379   1.098
  628SOL    HW2 2542   2.664   0.288   1.128
  628SOL    HW3 2543   2.589   0.419   1.139
  628SOL    MW4 2544   2.655   0.372   1.108
  629SOL     OW 2545   2.879   0.489   1.223
  629SOL    HW2 2546   2.885   0.582   1.202
  629SOL    HW3 2547   2.807   0.457   1.168
  629SOL    MW4 2548   2.870   0.497   1.213
  630SOL     OW 2549   2.901   0.754   1.127
  630SOL    HW2 2550   2.976   0.784   1.179
  630SOL    HW3 2551   2.827   0.805   1.160
  630SOL    MW4 2552   2.901   0.765   1.138
  631SOL     OW 2553   2.677   0.902   1.188
  631SOL    HW2 2554   2.656   0.992   1.162
  631SOL    HW3 2555   2.595   0.855   1.179
  631SOL    MW4 2556   2.663   0.908   1.183
  632SOL     OW 2557   2.653   1.156   1.120
  632SOL    HW2 2558   2.738   1.196   1.139
  632SOL    HW3 2559   2.627   1.193   1.036
  632SOL    MW4 2560   2.660   1.166   1.111
  633SOL     OW 2561   2.904   1.291   1.203
  633SOL    HW2 2562   2.921   1.294   1.297
  633SOL    HW3 2563   2.890   1.383   1.179
  633SOL    MW4 2564   2.904   1.304   1.212
  634SOL     OW 2565   2.871   1.556   1.110
  634SOL    HW2 2566   2.951   1.600   1.136
  634SOL    HW3 2567   2.881   1.542   1.016
  634SOL    MW4 2568   2.883   1.560   1.101
  635SOL     OW 2569   2.670   1.703   1.254
  635SOL    HW2 2570   2.737   1.651   1.210
  635SOL    HW3 2571   2.588   1.657   1.235
  635SOL    MW4 2572   2.668   1.690   1.246
  636SOL     OW 2573   2.645   1.922   1.088
  636SOL    HW2 2574   2.714   1.982   1.117
  636SOL    HW3 2575   2.660   1.842   1.139
  636SOL    MW4 2576   2.656   1.919   1.099
  637SOL     OW 2577   2.878   2.048   1.190
  637SOL    HW2 2578   2.852   2.033   1.281
  637SOL    HW3 2579   2.878   2.143   1.181
  637SOL    MW4 2580   2.874   2.059   1.201
  638SOL     OW 2581   2.911   2.306   1.125
  638SOL    HW2 2582   2.988   2.359   1.146
  638SOL    HW3 2583   2.837   2.364   1.140
  638SOL    MW4 2584   2.912   2.321   1.130
  639SOL     OW 2585   2.697   2.456   1.219
  639SOL    HW2 2586   2.696   2.442   1.314
  639SOL    HW3 2587   2.624   2.405   1.186
  639SOL    MW4 2588   2.687   2.447   1.227
  640SOL     OW 2589   2.665   2.718   1.128
  640SOL    HW2 2590   2.665   2.638   1.180
  640SOL    HW3 2591   2.575   2.750   1.135
  640SOL    MW4 2592   2.653   2.711   1.136
  641SOL     OW 2593   2.933   2.812   1.200
  641SOL    HW2 2594   2.924   2.823   1.294
  641SOL    HW3 2595   2.849   2.777   1.171
  641SOL    MW4 2596   2.921   2.809   1.209
  642SOL     OW 2597   2.859   3.063   1.159
  642SOL    HW2 2598   2.883   2.974   1.184
  642SOL    HW3 2599   2.867   3.064   1.063
  642SOL    MW4 2600   2.863   3.052   1.150
  643SOL     OW 2601   2.661   3.221   1.276
  643SOL    HW2 2602   2.731   3.164   1.243
  643SOL    HW3 2603   2.582   3.189   1.233
  643SOL    MW4 2604   2.660   3.209   1.266
  644SOL     OW 2605   2.696   3.472   1.137
  644SOL    HW2 2606   2.702   3.398   1.197
  644SOL    HW3 2607   2.640   3.536   1.182
  644SOL    MW4 2608   2.689   3.471   1.151
  645SOL     OW 2609   2.920   3.607   1.220
  645SOL    HW2 2610   3.000   3.553   1.220
  645SOL    HW3 2611   2.854   3.552   1.178
  645SOL    MW4 2612   2.922   3.593   1.214
  646SOL     OW 2613   2.938   3.872   1.111
  646SOL    HW2 2614   3.019   3.913   1.140
  646SOL    HW3 2615   2.928   3.796   1.167
  646SOL    MW4 2616   2.947   3.868   1.122
  647SOL     OW 2617   2.760   4.067   1.212
  647SOL    HW2 2618   2.829   4.003   1.193
  647SOL    HW3 2619   2.679   4.024   1.183
  647SOL    MW4 2620   2.758   4.053   1.206
  648SOL     OW 2621   2.704   4.274   1.043
  648SOL    HW2 2622   2.718   4.198   1.099
  648SOL    HW3 2623   2.628   4.319   1.080
  648SOL    MW4 2624   2.696   4.270   1.055
  649SOL     OW 2625   2.874   4.420   1.190
  649SOL    HW2 2626   2.949   4.362   1.182
  649SOL    HW3 2627   2.804   4.378   1.139
  649SOL    MW4 2628   2.875   4.407   1.182
  650SOL     OW 2629   3.360   4.641   1.138
  650SOL    HW2 2630   3.435   4.698   1.155
  650SOL    HW3 2631   3.286   4.684   1.181
  650SOL    MW4 2632   3.360   4.654   1.146
  651SOL     OW 2633   3.152   0.108   1.214
  651SOL    HW2 2634   3.141   0.098   1.309
  651SOL    HW3 2635   3.078   0.062   1.177
  651SOL    MW4 2636   3.141   0.101   1.222
  652SOL     OW 2637   3.125   0.377   1.150
  652SOL    HW2 2638   3.135   0.286   1.179
  652SOL    HW3 2639   3.043   0.406   1.190
  652SOL    MW4 2640   3.116   0.369   1.159
  653SOL     OW 2641   3.366   0.520   1.215
  653SOL    HW2 2642   3.369   0.606   1.172
  653SOL    HW3 2643   3.283   0.483   1.187
  653SOL    MW4 2644   3.355   0.527   1.206
  654SOL     OW 2645   3.350   0.782   1.125
  654SOL    HW2 2646   3.279   0.836   1.160
  654SOL    HW3 2647   3.326   0.768   1.033
  654SOL    MW4 2648   3.337   0.787   1.118
  655SOL     OW 2649   3.128   0.895   1.241
  655SOL    HW2 2650   3.131   0.888   1.337
  655SOL    HW3 2651   3.124   0.989   1.224
  655SOL    MW4 2652   3.128   0.906   1.251
  656SOL     OW 2653   3.114   1.145   1.132
  656SOL    HW2 2654   3.187   1.192   1.172
  656SOL    HW3 2655   3.037   1.198   1.153
  656SOL    MW4 2656   3.114   1.158   1.140
  657SOL     OW 2657   3.364   1.281   1.206
  657SOL    HW2 2658   3.394   1.290   1.297
  657SOL    HW3 2659   3.361   1.371   1.173
  657SOL    MW4 2660   3.368   1.294   1.214
  658SOL     OW 2661   3.333   1.531   1.090
  658SOL    HW2 2662   3.401   1.588   1.123
  658SOL    HW3 2663   3.251   1.569   1.124
  658SOL    MW4 2664   3.331   1.543   1.099
  659SOL     OW 2665   3.103   1.657   1.193
  659SOL    HW2 2666   3.117   1.666   1.287
  659SOL    HW3 2667   3.110   1.746   1.159
  659SOL    MW4 2668   3.106   1.670   1.201
  660SOL     OW 2669   3.114   1.911   1.115
  660SOL    HW2 2670   3.189   1.944   1.165
  660SOL    HW3 2671   3.043   1.971   1.137
  660SOL    MW4 2672   3.114   1.924   1.125
  661SOL     OW 2673   3.324   2.042   1.249
  661SOL    HW2 2674   3.415   2.021   1.229
  661SOL    HW3 2675   3.305   2.121   1.197
  661SOL    MW4 2676   3.333   2.050   1.239
  662SOL     OW 2677   3.336   2.278   1.090
  662SOL    HW2 2678   3.415   2.325   1.118
  662SOL    HW3 2679   3.263   2.333   1.118
  662SOL    MW4 2680   3.337   2.291   1.097
  663SOL     OW 2681   3.148   2.459   1.209
  663SOL    HW2 2682   3.149   2.461   1.305
  663SOL    HW3 2683   3.159   2.550   1.183
  663SOL    MW4 2684   3.150   2.471   1.218
  664SOL     OW 2685   3.167   2.709   1.101
  664SOL    HW2 2686   3.083   2.748   1.124
  664SOL    HW3 2687   3.161   2.691   1.007
  664SOL    MW4 2688   3.155   2.711   1.092
  665SOL     OW 2689   3.381   2.835   1.212
  665SOL    HW2 2690   3.382   2.919   1.165
  665SOL    HW3 2691   3.305   2.788   1.177
  665SOL    MW4 2692   3.371   2.840   1.201
  666SOL     OW 2693   3.357   3.068   1.049
  666SOL    HW2 2694   3.429   3.123   1.078
  666SOL    HW3 2695   3.284   3.092   1.106
  666SOL    MW4 2696   3.357   3.078   1.060
  667SOL     OW 2697   3.119   3.172   1.235
  667SOL    HW2 2698   3.114   3.263   1.205
  667SOL    HW3 2699   3.043   3.129   1.195
  667SOL    MW4 2700   3.108   3.179   1.226
  668SOL     OW 2701   3.165   3.452   1.147
  668SOL    HW2 2702   3.233   3.514   1.175
  668SOL    HW3 2703   3.178   3.444   1.053
  668SOL    MW4 2704   3.176   3.459   1.138
  669SOL     OW 2705   3.384   3.606   1.216
  669SOL    HW2 2706   3.410   3.613   1.308
  669SOL    HW3 2707   3.451   3.552   1.176
  669SOL    MW4 2708   3.396   3.600   1.223
  670SOL     OW 2709   3.370   3.864   1.112
  670SOL    HW2 2710   3.296   3.914   1.146
  670SOL    HW3 2711   3.363   3.778   1.154
  670SOL    MW4 2712   3.360   3.859   1.122
  671SOL     OW 2713   3.171   4.008   1.247
  671SOL    HW2 2714   3.165   3.996   1.341
  671SOL    HW3 2715   3.151   4.100   1.232
  671SOL    MW4 2716   3.168   4.019   1.257
  672SOL     OW 2717   3.093   4.263   1.156
  672SOL    HW2 2718   3.185   4.289   1.165
  672SOL    HW3 2719   3.084   4.242   1.063
  672SOL    MW4 2720   3.104   4.264   1.145
  673SOL     OW 2721   3.349   4.375   1.188
  673SOL    HW2 2722   3.440   4.346   1.194
  673SOL    HW3 2723   3.354   4.465   1.155
  673SOL    MW4 2724   3.362   4.383   1.185
  674SOL     OW 2725   3.821   0.001   1.104
  674SOL    HW2 2726   3.821  -0.084   1.146
  674SOL    HW3 2727   3.809  -0.018   1.011
  674SOL    MW4 2728   3.819  -0.013   1.097
  675SOL     OW 2729   3.580   0.138   1.198
  675SOL    HW2 2730   3.590   0.220   1.150
  675SOL    HW3 2731   3.648   0.081   1.163
  675SOL    MW4 2732   3.591   0.141   1.187
  676SOL     OW 2733   3.596   0.401   1.108
  676SOL    HW2 2734   3.668   0.445   1.153
  676SOL    HW3 2735   3.517   0.434   1.150
  676SOL    MW4 2736   3.595   0.411   1.119
  677SOL     OW 2737   3.819   0.498   1.225
  677SOL    HW2 2738   3.878   0.439   1.178
  677SOL    HW3 2739   3.830   0.583   1.180
  677SOL    MW4 2740   3.829   0.502   1.213
  678SOL     OW 2741   3.842   0.752   1.114
  678SOL    HW2 2742   3.911   0.797   1.162
  678SOL    HW3 2743   3.761   0.784   1.152
  678SOL    MW4 2744   3.841   0.762   1.125
  679SOL     OW 2745   3.601   0.880   1.187
  679SOL    HW2 2746   3.612   0.968   1.151
  679SOL    HW3 2747   3.518   0.850   1.152
  679SOL    MW4 2748   3.592   0.888   1.178
  680SOL     OW 2749   3.596   1.142   1.085
  680SOL    HW2 2750   3.670   1.194   1.116
  680SOL    HW3 2751   3.520   1.177   1.133
  680SOL    MW4 2752   3.595   1.154   1.095
  681SOL     OW 2753   3.817   1.281   1.229
  681SOL    HW2 2754   3.824   1.267   1.323
  681SOL    HW3 2755   3.806   1.376   1.220
  681SOL    MW4 2756   3.817   1.292   1.240
  682SOL     OW 2757   3.790   1.563   1.167
  682SOL    HW2 2758   3.867   1.608   1.202
  682SOL    HW3 2759   3.799   1.569   1.072
  682SOL    MW4 2760   3.801   1.570   1.159
  683SOL     OW 2761   3.547   1.677   1.203
  683SOL    HW2 2762   3.570   1.769   1.214
  683SOL    HW3 2763   3.632   1.631   1.204
  683SOL    MW4 2764   3.561   1.683   1.205
  684SOL     OW 2765   3.587   1.961   1.173
  684SOL    HW2 2766   3.672   1.996   1.199
  684SOL    HW3 2767   3.586   1.971   1.077
  684SOL    MW4 2768   3.598   1.967   1.164
  685SOL     OW 2769   3.843   2.091   1.223
  685SOL    HW2 2770   3.857   2.068   1.315
  685SOL    HW3 2771   3.911   2.044   1.176
  685SOL    MW4 2772   3.854   2.082   1.229
  686SOL     OW 2773   3.793   2.338   1.070
  686SOL    HW2 2774   3.864   2.385   1.113
  686SOL    HW3 2775   3.788   2.255   1.116
  686SOL    MW4 2776   3.802   2.334   1.082
  687SOL     OW 2777   3.561   2.405   1.170
  687SOL    HW2 2778   3.574   2.389   1.263
  687SOL    HW3 2779   3.645   2.384   1.130
  687SOL    MW4 2780   3.574   2.400   1.177
  688SOL     OW 2781   3.601   2.684   1.107
  688SOL    HW2 2782   3.588   2.598   1.148
  688SOL    HW3 2783   3.526   2.735   1.137
  688SOL    MW4 2784   3.589   2.679   1.116
  689SOL     OW 2785   3.840   2.818   1.208
  689SOL    HW2 2786   3.830   2.806   1.302
  689SOL    HW3 2787   3.762   2.779   1.170
  689SOL    MW4 2788   3.829   2.811   1.215
  690SOL     OW 2789   3.765   3.080   1.167
  690SOL    HW2 2790   3.806   2.994   1.166
  690SOL    HW3 2791   3.747   3.099   1.075
  690SOL    MW4 2792   3.768   3.071   1.154
  691SOL     OW 2793   3.535   3.220   1.228
  691SOL    HW2 2794   3.537   3.312   1.200
  691SOL    HW3 2795   3.622   3.187   1.207
  691SOL    MW4 2796   3.547   3.228   1.221
  692SOL     OW 2797   3.608   3.464   1.103
  692SOL    HW2 2798   3.669   3.510   1.160
  692SOL    HW3 2799   3.639   3.482   1.015
  692SOL    MW4 2800   3.620   3.472   1.099
  693SOL     OW 2801   3.816   3.564   1.248
  693SOL    HW2 2802   3.827   3.564   1.343
  693SOL    HW3 2803   3.813   3.657   1.225
  693SOL    MW4 2804   3.817   3.576   1.258
  694SOL     OW 2805   3.826   3.846   1.185
  694SOL    HW2 2806   3.746   3.889   1.216
  694SOL    HW3 2807   3.815   3.840   1.090
  694SOL    MW4 2808   3.814   3.851   1.177
  695SOL     OW 2809   3.598   3.972   1.262
  695SOL    HW2 2810   3.581   3.989   1.355
  695SOL    HW3 2811   3.517   3.934   1.229
  695SOL    MW4 2812   3.585   3.969   1.270
  696SOL     OW 2813   3.614   4.238   1.150
  696SOL    HW2 2814   3.622   4.155   1.197
  696SOL    HW3 2815   3.606   4.212   1.058
  696SOL    MW4 2816   3.614   4.223   1.144
  697SOL     OW 2817   3.811   4.406   1.210
  697SOL    HW2 2818   3.800   4.409   1.305
  697SOL    HW3 2819   3.732   4.362   1.178
  697SOL    MW4 2820   3.799   4.401   1.218
  698SOL     OW 2821   4.271   4.627   1.128
  698SOL    HW2 2822   4.261   4.536   1.156
  698SOL    HW3 2823   4.194   4.671   1.163
  698SOL    MW4 2824   4.259   4.620   1.136
  699SOL     OW 2825   4.051   0.109   1.210
  699SOL    HW2 2826   4.046   0.103   1.305
  699SOL    HW3 2827   3.971   0.067   1.179
  699SOL    MW4 2828   4.040   0.102   1.218
  700SOL     OW 2829   4.034   0.374   1.129
  700SOL    HW2 2830   4.045   0.281   1.147
  700SOL    HW3 2831   4.057   0.384   1.037
  700SOL    MW4 2832   4.039   0.363   1.119
  701SOL     OW 2833   4.247   0.506   1.208
  701SOL    HW2 2834   4.249   0.519   1.302
  701SOL    HW3 2835   4.164   0.462   1.191
  701SOL    MW4 2836   4.237   0.502   1.218
  702SOL     OW 2837   4.262   0.771   1.105
  702SOL    HW2 2838   4.263   0.678   1.125
  702SOL    HW3 2839   4.268   0.775   1.009
  702SOL    MW4 2840   4.263   0.760   1.095
  703SOL     OW 2841   4.044   0.922   1.214
  703SOL    HW2 2842   4.061   0.912   1.308
  703SOL    HW3 2843   4.122   0.885   1.172
  703SOL    MW4 2844   4.056   0.916   1.221
  704SOL     OW 2845   4.052   1.182   1.132
  704SOL    HW2 2846   4.048   1.091   1.160
  704SOL    HW3 2847   3.981   1.226   1.180
  704SOL    MW4 2848   4.042   1.176   1.142
  705SOL     OW 2849   4.293   1.291   1.164
  705SOL    HW2 2850   4.313   1.282   1.257
  705SOL    HW3 2851   4.212   1.242   1.152
  705SOL    MW4 2852   4.285   1.283   1.175
  706SOL     OW 2853   4.265   1.562   1.137
  706SOL    HW2 2854   4.280   1.468   1.147
  706SOL    HW3 2855   4.348   1.603   1.161
  706SOL    MW4 2856   4.278   1.555   1.141
  707SOL     OW 2857   4.041   1.676   1.225
  707SOL    HW2 2858   4.035   1.662   1.319
  707SOL    HW3 2859   4.119   1.626   1.199
  707SOL    MW4 2860   4.051   1.667   1.234
  708SOL     OW 2861   4.020   1.928   1.116
  708SOL    HW2 2862   4.026   1.847   1.167
  708SOL    HW3 2863   4.000   1.899   1.027
  708SOL    MW4 2864   4.018   1.914   1.111
  709SOL     OW 2865   4.249   2.059   1.182
  709SOL    HW2 2866   4.258   2.145   1.142
  709SOL    HW3 2867   4.168   2.023   1.144
  709SOL    MW4 2868   4.240   2.065   1.172
  710SOL     OW 2869   4.269   2.329   1.077
  710SOL    HW2 2870   4.181   2.363   1.089
  710SOL    HW3 2871   4.282   2.328   0.982
  710SOL    MW4 2872   4.259   2.333   1.066
  711SOL     OW 2873   4.046   2.449   1.173
  711SOL    HW2 2874   4.029   2.452   1.268
  711SOL    HW3 2875   4.082   2.534   1.152
  711SOL    MW4 2876   4.048   2.460   1.183
  712SOL     OW 2877   4.068   2.723   1.080
  712SOL    HW2 2878   3.994   2.763   1.125
  712SOL    HW3 2879   4.039   2.710   0.990
  712SOL    MW4 2880   4.055   2.726   1.074
  713SOL     OW 2881   4.272   2.860   1.222
  713SOL    HW2 2882   4.275   2.943   1.174
  713SOL    HW3 2883   4.200   2.812   1.182
  713SOL    MW4 2884   4.263   2.865   1.210
  714SOL     OW 2885   4.277   3.119   1.101
  714SOL    HW2 2886   4.186   3.147   1.106
  714SOL    HW3 2887   4.294   3.109   1.007
  714SOL    MW4 2888   4.268   3.122   1.089
  715SOL     OW 2889   4.015   3.203   1.171
  715SOL    HW2 2890   4.047   3.220   1.259
  715SOL    HW3 2891   3.926   3.170   1.183
  715SOL    MW4 2892   4.008   3.201   1.184
  716SOL     OW 2893   4.021   3.482   1.094
  716SOL    HW2 2894   4.026   3.386   1.091
  716SOL    HW3 2895   3.943   3.500   1.147
  716SOL    MW4 2896   4.011   3.472   1.101
  717SOL     OW 2897   4.250   3.592   1.221
  717SOL    HW2 2898   4.164   3.561   1.191
  717SOL    HW3 2899   4.312   3.551   1.161
  717SOL    MW4 2900   4.247   3.583   1.209
  718SOL     OW 2901   4.252   3.866   1.160
  718SOL    HW2 2902   4.172   3.901   1.198
  718SOL    HW3 2903   4.254   3.774   1.188
  718SOL    MW4 2904   4.242   3.858   1.169
  719SOL     OW 2905   4.036   3.977   1.274
  719SOL    HW2 2906   4.021   4.061   1.230
  719SOL    HW3 2907   3.963   3.922   1.246
  719SOL    MW4 2908   4.024   3.981   1.264
  720SOL     OW 2909   4.030   4.223   1.154
  720SOL    HW2 2910   3.959   4.284   1.171
  720SOL    HW3 2911   4.022   4.203   1.061
  720SOL    MW4 2912   4.020   4.228   1.144
  721SOL     OW 2913   4.266   4.359   1.219
  721SOL    HW2 2914   4.195   4.300   1.194
  721SOL    HW3 2915   4.344   4.318   1.181
  721SOL    MW4 2916   4.267   4.346   1.210
  722SOL     OW 2917   0.222   4.660   1.599
  722SOL    HW2 2918   0.304   4.700   1.569
  722SOL    HW3 2919   0.153   4.716   1.563
  722SOL    MW4 2920   0.224   4.673   1.590
  723SOL     OW 2921   4.480   0.104   1.485
  723SOL    HW2 2922   4.396   0.074   1.519
  723SOL    HW3 2923   4.476   0.086   1.391
  723SOL    MW4 2924   4.469   0.098   1.477
  724SOL     OW 2925   4.462   0.361   1.573
  724SOL    HW2 2926   4.486   0.369   1.666
  724SOL    HW3 2927   4.475   0.268   1.553
  724SOL    MW4 2928   4.467   0.350   1.583
  725SOL     OW 2929   0.212   0.474   1.481
  725SOL    HW2 2930   0.128   0.429   1.487
  725SOL    HW3 2931   0.226   0.487   1.387
  725SOL    MW4 2932   0.202   0.470   1.470
  726SOL     OW 2933   0.241   0.714   1.614
  726SOL    HW2 2934   0.317   0.758   1.576
  726SOL    HW3 2935   0.237   0.629   1.570
  726SOL    MW4 2936   0.250   0.709   1.603
  727SOL     OW 2937   0.002   0.843   1.520
  727SOL    HW2 2938   0.010   0.933   1.552
  727SOL    HW3 2939   0.062   0.793   1.575
  727SOL    MW4 2940   0.011   0.849   1.532
  728SOL     OW 2941   4.478   1.118   1.583
  728SOL    HW2 2942   4.493   1.132   1.676
  728SOL    HW3 2943   4.558   1.150   1.541
  728SOL    MW4 2944   4.491   1.124   1.589
  729SOL     OW 2945   0.188   1.274   1.470
  729SOL    HW2 2946   0.191   1.360   1.513
  729SOL    HW3 2947   0.206   1.293   1.378
  729SOL    MW4 2948   0.191   1.288   1.463
  730SOL     OW 2949   0.186   1.538   1.562
  730SOL    HW2 2950   0.194   1.555   1.656
  730SOL    HW3 2951   0.102   1.577   1.538
  730SOL    MW4 2952   0.176   1.546   1.572
  731SOL     OW 2953   4.405   1.660   1.464
  731SOL    HW2 2954   4.419   1.752   1.486
  731SOL    HW3 2955   4.430   1.653   1.372
  731SOL    MW4 2956   4.410   1.671   1.455
  732SOL     OW 2957   0.009   1.928   1.538
  732SOL    HW2 2958   0.003   1.933   1.633
  732SOL    HW3 2959  -0.065   1.980   1.506
  732SOL    MW4 2960  -0.002   1.935   1.546
  733SOL     OW 2961   0.230   2.049   1.438
  733SOL    HW2 2962   0.156   1.992   1.458
  733SOL    HW3 2963   0.242   2.041   1.344
  733SOL    MW4 2964   0.221   2.041   1.429
  734SOL     OW 2965   0.171   2.322   1.556
  734SOL    HW2 2966   0.169   2.314   1.651
  734SOL    HW3 2967   0.178   2.232   1.524
  734SOL    MW4 2968   0.171   2.309   1.564
  735SOL     OW 2969   4.484   2.495   1.444
  735SOL    HW2 2970   4.403   2.447   1.459
  735SOL    HW3 2971   4.552   2.441   1.486
  735SOL    MW4 2972   4.482   2.481   1.452
  736SOL     OW 2973   0.009   2.745   1.578
  736SOL    HW2 2974  -0.077   2.786   1.566
  736SOL    HW3 2975  -0.003   2.656   1.546
  736SOL    MW4 2976  -0.004   2.739   1.572
  737SOL     OW 2977   0.249   2.868   1.518
  737SOL    HW2 2978   0.313   2.808   1.557
  737SOL    HW3 2979   0.164   2.828   1.536
  737SOL    MW4 2980   0.246   2.855   1.526
  738SOL     OW 2981   0.226   3.120   1.633
  738SOL    HW2 2982   0.144   3.147   1.589
  738SOL    HW3 2983   0.250   3.038   1.590
  738SOL    MW4 2984   0.218   3.113   1.621
  739SOL     OW 2985   4.470   3.228   1.487
  739SOL    HW2 2986   4.475   3.311   1.534
  739SOL    HW3 2987   4.505   3.247   1.400
  739SOL    MW4 2988   4.476   3.241   1.482
  740SOL     OW 2989   0.015   3.467   1.595
  740SOL    HW2 2990   0.011   3.460   1.690
  740SOL    HW3 2991  -0.064   3.518   1.572
  740SOL    MW4 2992   0.004   3.473   1.604
  741SOL     OW 2993   0.224   3.624   1.516
  741SOL    HW2 2994   0.222   3.711   1.555
  741SOL    HW3 2995   0.142   3.583   1.543
  741SOL    MW4 2996   0.213   3.630   1.524
  742SOL     OW 2997   0.235   3.877   1.602
  742SOL    HW2 2998   0.219   3.884   1.696
  742SOL    HW3 2999   0.313   3.930   1.586
  742SOL    MW4 3000   0.243   3.885   1.612
  743SOL     OW 3001   0.005   3.993   1.503
  743SOL    HW2 3002  -0.002   4.075   1.551
  743SOL    HW3 3003   0.092   3.959   1.524
  743SOL    MW4 3004   0.015   3.999   1.512
  744SOL     OW 3005   0.005   4.268   1.615
  744SOL    HW2 3006  -0.008   4.264   1.709
  744SOL    HW3 3007  -0.073   4.312   1.582
  744SOL    MW4 3008  -0.007   4.273   1.623
  745SOL     OW 3009   0.250   4.404   1.540
  745SOL    HW2 3010   0.168   4.363   1.565
  745SOL    HW3 3011   0.240   4.496   1.564
  745SOL    MW4 3012   0.238   4.411   1.546
  746SOL     OW 3013   0.728   0.016   1.623
  746SOL    HW2 3014   0.795   0.055   1.566
  746SOL    HW3 3015   0.647   0.061   1.599
  746SOL    MW4 3016   0.726   0.027   1.612
  747SOL     OW 3017   0.454   0.103   1.524
  747SOL    HW2 3018   0.444   0.194   1.552
  747SOL    HW3 3019   0.439   0.105   1.430
  747SOL    MW4 3020   0.451   0.115   1.515
  748SOL     OW 3021   0.426   0.359   1.598
  748SOL    HW2 3022   0.510   0.391   1.564
  748SOL    HW3 3023   0.361   0.399   1.541
  748SOL    MW4 3024   0.428   0.369   1.586
  749SOL     OW 3025   0.660   0.464   1.525
  749SOL    HW2 3026   0.670   0.554   1.556
  749SOL    HW3 3027   0.674   0.469   1.431
  749SOL    MW4 3028   0.663   0.477   1.517
  750SOL     OW 3029   0.686   0.739   1.561
  750SOL    HW2 3030   0.691   0.741   1.656
  750SOL    HW3 3031   0.767   0.782   1.532
  750SOL    MW4 3032   0.698   0.745   1.570
  751SOL     OW 3033   0.461   0.884   1.483
  751SOL    HW2 3034   0.449   0.965   1.533
  751SOL    HW3 3035   0.543   0.848   1.516
  751SOL    MW4 3036   0.470   0.890   1.494
  752SOL     OW 3037   0.419   1.136   1.596
  752SOL    HW2 3038   0.490   1.187   1.557
  752SOL    HW3 3039   0.340   1.171   1.556
  752SOL    MW4 3040   0.418   1.148   1.585
  753SOL     OW 3041   0.661   1.284   1.493
  753SOL    HW2 3042   0.667   1.372   1.530
  753SOL    HW3 3043   0.690   1.294   1.403
  753SOL    MW4 3044   0.666   1.297   1.486
  754SOL     OW 3045   0.642   1.550   1.597
  754SOL    HW2 3046   0.713   1.599   1.555
  754SOL    HW3 3047   0.564   1.576   1.549
  754SOL    MW4 3048   0.641   1.560   1.585
  755SOL     OW 3049   0.436   1.638   1.450
  755SOL    HW2 3050   0.426   1.725   1.489
  755SOL    HW3 3051   0.357   1.591   1.476
  755SOL    MW4 3052   0.424   1.643   1.459
  756SOL     OW 3053   0.433   1.887   1.549
  756SOL    HW2 3054   0.433   1.907   1.642
  756SOL    HW3 3055   0.366   1.944   1.512
  756SOL    MW4 3056   0.424   1.897   1.556
  757SOL     OW 3057   0.646   2.072   1.475
  757SOL    HW2 3058   0.719   2.015   1.499
  757SOL    HW3 3059   0.568   2.023   1.501
  757SOL    MW4 3060   0.646   2.058   1.482
  758SOL     OW 3061   0.642   2.335   1.605
  758SOL    HW2 3062   0.570   2.382   1.563
  758SOL    HW3 3063   0.647   2.252   1.559
  758SOL    MW4 3064   0.633   2.330   1.594
  759SOL     OW 3065   0.396   2.425   1.480
  759SOL    HW2 3066   0.385   2.511   1.521
  759SOL    HW3 3067   0.317   2.377   1.504
  759SOL    MW4 3068   0.384   2.430   1.489
  760SOL     OW 3069   0.431   2.669   1.596
  760SOL    HW2 3070   0.441   2.674   1.691
  760SOL    HW3 3071   0.512   2.709   1.562
  760SOL    MW4 3072   0.443   2.675   1.604
  761SOL     OW 3073   0.634   2.819   1.512
  761SOL    HW2 3074   0.643   2.905   1.552
  761SOL    HW3 3075   0.656   2.833   1.420
  761SOL    MW4 3076   0.638   2.832   1.505
  762SOL     OW 3077   0.660   3.095   1.596
  762SOL    HW2 3078   0.744   3.137   1.581
  762SOL    HW3 3079   0.595   3.158   1.565
  762SOL    MW4 3080   0.662   3.109   1.590
  763SOL     OW 3081   0.433   3.255   1.501
  763SOL    HW2 3082   0.361   3.203   1.537
  763SOL    HW3 3083   0.414   3.259   1.407
  763SOL    MW4 3084   0.421   3.248   1.493
  764SOL     OW 3085   0.440   3.495   1.622
  764SOL    HW2 3086   0.435   3.409   1.581
  764SOL    HW3 3087   0.359   3.539   1.595
  764SOL    MW4 3088   0.428   3.489   1.613
  765SOL     OW 3089   0.660   3.592   1.494
  765SOL    HW2 3090   0.730   3.563   1.552
  765SOL    HW3 3091   0.579   3.560   1.535
  765SOL    MW4 3092   0.658   3.584   1.507
  766SOL     OW 3093   0.674   3.862   1.576
  766SOL    HW2 3094   0.760   3.893   1.547
  766SOL    HW3 3095   0.673   3.770   1.552
  766SOL    MW4 3096   0.685   3.854   1.569
  767SOL     OW 3097   0.464   4.030   1.519
  767SOL    HW2 3098   0.539   3.976   1.540
  767SOL    HW3 3099   0.476   4.055   1.427
  767SOL    MW4 3100   0.475   4.026   1.510
  768SOL     OW 3101   0.476   4.281   1.635
  768SOL    HW2 3102   0.464   4.188   1.619
  768SOL    HW3 3103   0.402   4.323   1.591
  768SOL    MW4 3104   0.465   4.274   1.627
  769SOL     OW 3105   0.684   4.400   1.496
  769SOL    HW2 3106   0.620   4.362   1.556
  769SOL    HW3 3107   0.684   4.493   1.516
  769SOL    MW4 3108   0.676   4.407   1.506
  770SOL     OW 3109   1.134   4.666   1.567
  770SOL    HW2 3110   1.134   4.631   1.655
  770SOL    HW3 3111   1.222   4.702   1.555
  770SOL    MW4 3112   1.146   4.666   1.577
  771SOL     OW 3113   0.911   0.137   1.462
  771SOL    HW2 3114   0.914   0.221   1.509
  771SOL    HW3 3115   0.990   0.091   1.489
  771SOL    MW4 3116   0.921   0.142   1.472
  772SOL     OW 3117   0.919   0.385   1.622
  772SOL    HW2 3118   0.918   0.368   1.716
  772SOL    HW3 3119   0.827   0.400   1.600
  772SOL    MW4 3120   0.907   0.385   1.632
  773SOL     OW 3121   1.127   0.523   1.497
  773SOL    HW2 3122   1.152   0.613   1.519
  773SOL    HW3 3123   1.052   0.504   1.554
  773SOL    MW4 3124   1.120   0.532   1.507
  774SOL     OW 3125   1.162   0.817   1.555
  774SOL    HW2 3126   1.165   0.809   1.650
  774SOL    HW3 3127   1.234   0.876   1.534
  774SOL    MW4 3128   1.172   0.824   1.565
  775SOL     OW 3129   0.917   0.918   1.494
  775SOL    HW2 3130   1.003   0.877   1.504
  775SOL    HW3 3131   0.893   0.902   1.403
  775SOL    MW4 3132   0.926   0.911   1.483
  776SOL     OW 3133   0.896   1.184   1.573
  776SOL    HW2 3134   0.892   1.096   1.536
  776SOL    HW3 3135   0.807   1.218   1.565
  776SOL    MW4 3136   0.884   1.177   1.567
  777SOL     OW 3137   1.089   1.322   1.440
  777SOL    HW2 3138   1.171   1.293   1.480
  777SOL    HW3 3139   1.021   1.273   1.487
  777SOL    MW4 3140   1.090   1.311   1.451
  778SOL     OW 3141   1.100   1.533   1.613
  778SOL    HW2 3142   1.158   1.600   1.575
  778SOL    HW3 3143   1.110   1.457   1.556
  778SOL    MW4 3144   1.109   1.532   1.600
  779SOL     OW 3145   0.889   1.676   1.514
  779SOL    HW2 3146   0.946   1.614   1.560
  779SOL    HW3 3147   0.906   1.659   1.421
  779SOL    MW4 3148   0.899   1.666   1.507
  780SOL     OW 3149   0.878   1.941   1.570
  780SOL    HW2 3150   0.962   1.985   1.552
  780SOL    HW3 3151   0.890   1.852   1.537
  780SOL    MW4 3152   0.891   1.935   1.564
  781SOL     OW 3153   1.122   2.049   1.528
  781SOL    HW2 3154   1.207   2.009   1.542
  781SOL    HW3 3155   1.136   2.143   1.543
  781SOL    MW4 3156   1.135   2.056   1.532
  782SOL     OW 3157   1.143   2.316   1.588
  782SOL    HW2 3158   1.219   2.368   1.560
  782SOL    HW3 3159   1.068   2.372   1.569
  782SOL    MW4 3160   1.143   2.330   1.582
  783SOL     OW 3161   0.879   2.460   1.524
  783SOL    HW2 3162   0.878   2.551   1.556
  783SOL    HW3 3163   0.800   2.421   1.561
  783SOL    MW4 3164   0.868   2.467   1.533
  784SOL     OW 3165   0.896   2.742   1.614
  784SOL    HW2 3166   0.880   2.711   1.703
  784SOL    HW3 3167   0.812   2.777   1.585
  784SOL    MW4 3168   0.883   2.742   1.622
  785SOL     OW 3169   1.135   2.813   1.490
  785SOL    HW2 3170   1.148   2.898   1.531
  785SOL    HW3 3171   1.055   2.779   1.531
  785SOL    MW4 3172   1.126   2.820   1.501
  786SOL     OW 3173   1.132   3.073   1.628
  786SOL    HW2 3174   1.161   3.059   1.718
  786SOL    HW3 3175   1.194   3.136   1.592
  786SOL    MW4 3176   1.144   3.079   1.635
  787SOL     OW 3177   0.889   3.222   1.540
  787SOL    HW2 3178   0.964   3.184   1.586
  787SOL    HW3 3179   0.910   3.210   1.447
  787SOL    MW4 3180   0.902   3.215   1.534
  788SOL     OW 3181   0.886   3.491   1.631
  788SOL    HW2 3182   0.949   3.544   1.583
  788SOL    HW3 3183   0.889   3.405   1.588
  788SOL    MW4 3184   0.895   3.487   1.619
  789SOL     OW 3185   1.063   3.576   1.437
  789SOL    HW2 3186   1.152   3.566   1.471
  789SOL    HW3 3187   1.076   3.594   1.344
  789SOL    MW4 3188   1.076   3.577   1.429
  790SOL     OW 3189   1.081   3.831   1.573
  790SOL    HW2 3190   1.162   3.877   1.552
  790SOL    HW3 3191   1.082   3.753   1.518
  790SOL    MW4 3192   1.092   3.827   1.563
  791SOL     OW 3193   0.892   4.014   1.504
  791SOL    HW2 3194   0.906   4.103   1.537
  791SOL    HW3 3195   0.967   3.964   1.537
  791SOL    MW4 3196   0.904   4.019   1.513
  792SOL     OW 3197   0.907   4.270   1.596
  792SOL    HW2 3198   0.899   4.276   1.691
  792SOL    HW3 3199   0.836   4.325   1.563
  792SOL    MW4 3200   0.896   4.278   1.604
  793SOL     OW 3201   1.109   4.396   1.456
  793SOL    HW2 3202   1.032   4.356   1.497
  793SOL    HW3 3203   1.100   4.490   1.474
  793SOL    MW4 3204   1.098   4.403   1.464
  794SOL     OW 3205   1.597   4.638   1.576
  794SOL    HW2 3206   1.581   4.654   1.670
  794SOL    HW3 3207   1.523   4.680   1.532
  794SOL    MW4 3208   1.585   4.645   1.583
  795SOL     OW 3209   1.372   0.106   1.486
  795SOL    HW2 3210   1.361   0.197   1.512
  795SOL    HW3 3211   1.359   0.106   1.391
  795SOL    MW4 3212   1.368   0.118   1.477
  796SOL     OW 3213   1.333   0.354   1.578
  796SOL    HW2 3214   1.402   0.416   1.553
  796SOL    HW3 3215   1.253   0.392   1.543
  796SOL    MW4 3216   1.332   0.367   1.570
  797SOL     OW 3217   1.552   0.515   1.519
  797SOL    HW2 3218   1.629   0.471   1.556
  797SOL    HW3 3219   1.559   0.500   1.425
  797SOL    MW4 3220   1.563   0.507   1.511
  798SOL     OW 3221   1.540   0.785   1.615
  798SOL    HW2 3222   1.524   0.775   1.709
  798SOL    HW3 3223   1.550   0.696   1.582
  798SOL    MW4 3224   1.539   0.772   1.623
  799SOL     OW 3225   1.385   0.981   1.469
  799SOL    HW2 3226   1.446   0.926   1.518
  799SOL    HW3 3227   1.384   0.944   1.381
  799SOL    MW4 3228   1.393   0.969   1.464
  800SOL     OW 3229   1.323   1.230   1.574
  800SOL    HW2 3230   1.337   1.233   1.668
  800SOL    HW3 3231   1.339   1.139   1.549
  800SOL    MW4 3232   1.327   1.219   1.583
  801SOL     OW 3233   1.563   1.339   1.468
  801SOL    HW2 3234   1.478   1.305   1.495
  801SOL    HW3 3235   1.560   1.338   1.372
  801SOL    MW4 3236   1.551   1.335   1.459
  802SOL     OW 3237   1.584   1.564   1.594
  802SOL    HW2 3238   1.577   1.551   1.689
  802SOL    HW3 3239   1.590   1.476   1.559
  802SOL    MW4 3240   1.584   1.551   1.602
  803SOL     OW 3241   1.344   1.676   1.482
  803SOL    HW2 3242   1.424   1.626   1.498
  803SOL    HW3 3243   1.334   1.675   1.387
  803SOL    MW4 3244   1.354   1.670   1.471
  804SOL     OW 3245   1.357   1.949   1.578
  804SOL    HW2 3246   1.367   1.926   1.670
  804SOL    HW3 3247   1.352   1.865   1.532
  804SOL    MW4 3248   1.358   1.935   1.584
  805SOL     OW 3249   1.574   2.101   1.505
  805SOL    HW2 3250   1.498   2.054   1.540
  805SOL    HW3 3251   1.562   2.097   1.410
  805SOL    MW4 3252   1.562   2.094   1.497
  806SOL     OW 3253   1.584   2.354   1.616
  806SOL    HW2 3254   1.646   2.406   1.566
  806SOL    HW3 3255   1.611   2.263   1.601
  806SOL    MW4 3256   1.596   2.349   1.607
  807SOL     OW 3257   1.369   2.449   1.496
  807SOL    HW2 3258   1.368   2.532   1.543
  807SOL    HW3 3259   1.440   2.399   1.537
  807SOL    MW4 3260   1.379   2.454   1.508
  808SOL     OW 3261   1.367   2.697   1.613
  808SOL    HW2 3262   1.433   2.757   1.578
  808SOL    HW3 3263   1.284   2.728   1.577
  808SOL    MW4 3264   1.365   2.709   1.604
  809SOL     OW 3265   1.561   2.883   1.496
  809SOL    HW2 3266   1.642   2.860   1.541
  809SOL    HW3 3267   1.577   2.860   1.405
  809SOL    MW4 3268   1.574   2.877   1.490
  810SOL     OW 3269   1.572   3.140   1.631
  810SOL    HW2 3270   1.646   3.187   1.592
  810SOL    HW3 3271   1.564   3.061   1.578
  810SOL    MW4 3272   1.581   3.136   1.619
  811SOL     OW 3273   1.335   3.269   1.516
  811SOL    HW2 3274   1.336   3.364   1.525
  811SOL    HW3 3275   1.413   3.240   1.563
  811SOL    MW4 3276   1.345   3.277   1.523
  812SOL     OW 3277   1.307   3.544   1.553
  812SOL    HW2 3278   1.321   3.529   1.647
  812SOL    HW3 3279   1.395   3.557   1.518
  812SOL    MW4 3280   1.321   3.544   1.561
  813SOL     OW 3281   1.551   3.616   1.464
  813SOL    HW2 3282   1.549   3.702   1.505
  813SOL    HW3 3283   1.548   3.634   1.370
  813SOL    MW4 3284   1.550   3.630   1.457
  814SOL     OW 3285   1.549   3.876   1.585
  814SOL    HW2 3286   1.555   3.866   1.680
  814SOL    HW3 3287   1.475   3.936   1.573
  814SOL    MW4 3288   1.540   3.883   1.596
  815SOL     OW 3289   1.299   3.976   1.542
  815SOL    HW2 3290   1.311   4.069   1.564
  815SOL    HW3 3291   1.309   3.973   1.446
  815SOL    MW4 3292   1.302   3.988   1.532
  816SOL     OW 3293   1.330   4.238   1.586
  816SOL    HW2 3294   1.414   4.281   1.570
  816SOL    HW3 3295   1.265   4.304   1.565
  816SOL    MW4 3296   1.333   4.252   1.581
  817SOL     OW 3297   1.548   4.391   1.502
  817SOL    HW2 3298   1.632   4.348   1.521
  817SOL    HW3 3299   1.556   4.477   1.544
  817SOL    MW4 3300   1.560   4.397   1.510
  818SOL     OW 3301   2.031   0.005   1.583
  818SOL    HW2 3302   2.007  -0.004   1.675
  818SOL    HW3 3303   1.960   0.056   1.544
  818SOL    MW4 3304   2.019   0.010   1.590
  819SOL     OW 3305   1.796   0.138   1.471
  819SOL    HW2 3306   1.727   0.091   1.517
  819SOL    HW3 3307   1.772   0.133   1.378
  819SOL    MW4 3308   1.784   0.131   1.464
  820SOL     OW 3309   1.765   0.385   1.602
  820SOL    HW2 3310   1.846   0.434   1.588
  820SOL    HW3 3311   1.783   0.298   1.565
  820SOL    MW4 3312   1.778   0.380   1.596
  821SOL     OW 3313   1.984   0.527   1.496
  821SOL    HW2 3314   2.065   0.478   1.512
  821SOL    HW3 3315   2.003   0.616   1.526
  821SOL    MW4 3316   1.997   0.532   1.502
  822SOL     OW 3317   1.996   0.795   1.593
  822SOL    HW2 3318   2.073   0.833   1.550
  822SOL    HW3 3319   1.922   0.837   1.551
  822SOL    MW4 3320   1.997   0.806   1.582
  823SOL     OW 3321   1.757   0.901   1.491
  823SOL    HW2 3322   1.759   0.992   1.521
  823SOL    HW3 3323   1.691   0.859   1.547
  823SOL    MW4 3324   1.748   0.907   1.502
  824SOL     OW 3325   1.740   1.161   1.556
  824SOL    HW2 3326   1.823   1.194   1.522
  824SOL    HW3 3327   1.675   1.223   1.524
  824SOL    MW4 3328   1.743   1.174   1.548
  825SOL     OW 3329   2.011   1.266   1.499
  825SOL    HW2 3330   2.004   1.355   1.533
  825SOL    HW3 3331   1.991   1.274   1.406
  825SOL    MW4 3332   2.007   1.279   1.491
  826SOL     OW 3333   2.006   1.528   1.608
  826SOL    HW2 3334   2.089   1.573   1.592
  826SOL    HW3 3335   1.939   1.590   1.577
  826SOL    MW4 3336   2.008   1.542   1.602
  827SOL     OW 3337   1.807   1.697   1.500
  827SOL    HW2 3338   1.731   1.647   1.530
  827SOL    HW3 3339   1.795   1.705   1.405
  827SOL    MW4 3340   1.796   1.692   1.491
  828SOL     OW 3341   1.787   1.949   1.617
  828SOL    HW2 3342   1.788   1.860   1.581
  828SOL    HW3 3343   1.716   1.993   1.570
  828SOL    MW4 3344   1.778   1.943   1.606
  829SOL     OW 3345   2.003   2.082   1.530
  829SOL    HW2 3346   2.081   2.027   1.539
  829SOL    HW3 3347   1.931   2.026   1.561
  829SOL    MW4 3348   2.004   2.067   1.535
  830SOL     OW 3349   1.998   2.359   1.588
  830SOL    HW2 3350   1.992   2.364   1.683
  830SOL    HW3 3351   1.987   2.266   1.568
  830SOL    MW4 3352   1.996   2.347   1.598
  831SOL     OW 3353   1.787   2.509   1.486
  831SOL    HW2 3354   1.852   2.452   1.528
  831SOL    HW3 3355   1.795   2.489   1.393
  831SOL    MW4 3356   1.797   2.499   1.479
  832SOL     OW 3357   1.782   2.765   1.612
  832SOL    HW2 3358   1.861   2.808   1.579
  832SOL    HW3 3359   1.776   2.684   1.561
  832SOL    MW4 3360   1.792   2.760   1.601
  833SOL     OW 3361   2.032   2.880   1.515
  833SOL    HW2 3362   2.021   2.973   1.536
  833SOL    HW3 3363   2.032   2.877   1.420
  833SOL    MW4 3364   2.030   2.892   1.505
  834SOL     OW 3365   2.003   3.133   1.581
  834SOL    HW2 3366   2.007   3.128   1.676
  834SOL    HW3 3367   2.086   3.172   1.555
  834SOL    MW4 3368   2.014   3.138   1.590
  835SOL     OW 3369   1.772   3.271   1.492
  835SOL    HW2 3370   1.784   3.357   1.533
  835SOL    HW3 3371   1.859   3.231   1.496
  835SOL    MW4 3372   1.785   3.277   1.498
  836SOL     OW 3373   1.786   3.526   1.595
  836SOL    HW2 3374   1.769   3.520   1.689
  836SOL    HW3 3375   1.703   3.557   1.559
  836SOL    MW4 3376   1.773   3.530   1.603
  837SOL     OW 3377   2.009   3.601   1.462
  837SOL    HW2 3378   2.084   3.575   1.515
  837SOL    HW3 3379   1.932   3.571   1.511
  837SOL    MW4 3380   2.009   3.593   1.475
  838SOL     OW 3381   2.011   3.849   1.560
  838SOL    HW2 3382   2.077   3.891   1.505
  838SOL    HW3 3383   2.002   3.761   1.523
  838SOL    MW4 3384   2.018   3.843   1.548
  839SOL     OW 3385   1.784   3.991   1.485
  839SOL    HW2 3386   1.848   3.929   1.522
  839SOL    HW3 3387   1.699   3.949   1.499
  839SOL    MW4 3388   1.781   3.977   1.492
  840SOL     OW 3389   1.800   4.270   1.558
  840SOL    HW2 3390   1.883   4.309   1.527
  840SOL    HW3 3391   1.807   4.178   1.535
  840SOL    MW4 3392   1.812   4.263   1.551
  841SOL     OW 3393   2.037   4.411   1.464
  841SOL    HW2 3394   2.116   4.383   1.510
  841SOL    HW3 3395   2.021   4.500   1.495
  841SOL    MW4 3396   2.045   4.419   1.475
  842SOL     OW 3397   2.442   4.619   1.573
  842SOL    HW2 3398   2.440   4.637   1.667
  842SOL    HW3 3399   2.368   4.667   1.537
  842SOL    MW4 3400   2.432   4.628   1.581
  843SOL     OW 3401   2.245   0.111   1.453
  843SOL    HW2 3402   2.168   0.074   1.497
  843SOL    HW3 3403   2.230   0.092   1.360
  843SOL    MW4 3404   2.233   0.104   1.447
  844SOL     OW 3405   2.209   0.371   1.540
  844SOL    HW2 3406   2.230   0.368   1.634
  844SOL    HW3 3407   2.220   0.280   1.510
  844SOL    MW4 3408   2.214   0.358   1.549
  845SOL     OW 3409   2.447   0.496   1.468
  845SOL    HW2 3410   2.524   0.459   1.512
  845SOL    HW3 3411   2.374   0.446   1.502
  845SOL    MW4 3412   2.448   0.485   1.479
  846SOL     OW 3413   2.488   0.744   1.584
  846SOL    HW2 3414   2.404   0.784   1.563
  846SOL    HW3 3415   2.486   0.659   1.540
  846SOL    MW4 3416   2.477   0.738   1.575
  847SOL     OW 3417   2.253   0.870   1.499
  847SOL    HW2 3418   2.259   0.958   1.538
  847SOL    HW3 3419   2.222   0.887   1.409
  847SOL    MW4 3420   2.249   0.884   1.492
  848SOL     OW 3421   2.244   1.145   1.593
  848SOL    HW2 3422   2.241   1.176   1.683
  848SOL    HW3 3423   2.172   1.191   1.549
  848SOL    MW4 3424   2.234   1.155   1.599
  849SOL     OW 3425   2.473   1.291   1.532
  849SOL    HW2 3426   2.395   1.236   1.540
  849SOL    HW3 3427   2.490   1.293   1.438
  849SOL    MW4 3428   2.465   1.284   1.521
  850SOL     OW 3429   2.487   1.550   1.612
  850SOL    HW2 3430   2.574   1.584   1.593
  850SOL    HW3 3431   2.487   1.460   1.578
  850SOL    MW4 3432   2.498   1.542   1.605
  851SOL     OW 3433   2.228   1.668   1.518
  851SOL    HW2 3434   2.309   1.619   1.535
  851SOL    HW3 3435   2.226   1.678   1.423
  851SOL    MW4 3436   2.239   1.663   1.508
  852SOL     OW 3437   2.221   1.938   1.595
  852SOL    HW2 3438   2.225   1.940   1.691
  852SOL    HW3 3439   2.198   1.848   1.574
  852SOL    MW4 3440   2.219   1.926   1.605
  853SOL     OW 3441   2.454   2.071   1.511
  853SOL    HW2 3442   2.377   2.018   1.531
  853SOL    HW3 3443   2.475   2.049   1.421
  853SOL    MW4 3444   2.447   2.061   1.502
  854SOL     OW 3445   2.418   2.330   1.611
  854SOL    HW2 3446   2.423   2.316   1.706
  854SOL    HW3 3447   2.403   2.243   1.574
  854SOL    MW4 3448   2.416   2.317   1.619
  855SOL     OW 3449   2.228   2.484   1.470
  855SOL    HW2 3450   2.289   2.430   1.520
  855SOL    HW3 3451   2.141   2.455   1.500
  855SOL    MW4 3452   2.225   2.473   1.481
  856SOL     OW 3453   2.224   2.722   1.650
  856SOL    HW2 3454   2.227   2.651   1.586
  856SOL    HW3 3455   2.150   2.776   1.622
  856SOL    MW4 3456   2.214   2.720   1.637
  857SOL     OW 3457   2.429   2.854   1.474
  857SOL    HW2 3458   2.448   2.941   1.509
  857SOL    HW3 3459   2.366   2.816   1.535
  857SOL    MW4 3460   2.423   2.860   1.486
  858SOL     OW 3461   2.461   3.105   1.596
  858SOL    HW2 3462   2.546   3.147   1.587
  858SOL    HW3 3463   2.398   3.174   1.572
  858SOL    MW4 3464   2.464   3.120   1.591
  859SOL     OW 3465   2.251   3.253   1.480
  859SOL    HW2 3466   2.227   3.343   1.501
  859SOL    HW3 3467   2.263   3.253   1.385
  859SOL    MW4 3468   2.249   3.265   1.470
  860SOL     OW 3469   2.225   3.520   1.597
  860SOL    HW2 3470   2.234   3.544   1.689
  860SOL    HW3 3471   2.299   3.563   1.554
  860SOL    MW4 3472   2.236   3.529   1.604
  861SOL     OW 3473   2.444   3.643   1.494
  861SOL    HW2 3474   2.512   3.581   1.522
  861SOL    HW3 3475   2.461   3.722   1.546
  861SOL    MW4 3476   2.456   3.645   1.505
  862SOL     OW 3477   2.462   3.905   1.598
  862SOL    HW2 3478   2.462   3.934   1.689
  862SOL    HW3 3479   2.540   3.945   1.560
  862SOL    MW4 3480   2.472   3.914   1.605
  863SOL     OW 3481   2.247   4.011   1.480
  863SOL    HW2 3482   2.323   3.958   1.501
  863SOL    HW3 3483   2.245   4.015   1.385
  863SOL    MW4 3484   2.257   4.005   1.471
  864SOL     OW 3485   2.268   4.275   1.584
  864SOL    HW2 3486   2.355   4.301   1.553
  864SOL    HW3 3487   2.260   4.184   1.557
  864SOL    MW4 3488   2.278   4.267   1.576
  865SOL     OW 3489   2.526   4.361   1.478
  865SOL    HW2 3490   2.509   4.449   1.512
  865SOL    HW3 3491   2.521   4.371   1.383
  865SOL    MW4 3492   2.523   4.374   1.470
  866SOL     OW 3493   2.874   4.657   1.581
  866SOL    HW2 3494   2.891   4.667   1.674
  866SOL    HW3 3495   2.784   4.689   1.569
  866SOL    MW4 3496   2.864   4.662   1.592
  867SOL     OW 3497   2.644   0.113   1.483
  867SOL    HW2 3498   2.639   0.189   1.542
  867SOL    HW3 3499   2.564   0.064   1.501
  867SOL    MW4 3500   2.633   0.117   1.493
  868SOL     OW 3501   2.653   0.345   1.611
  868SOL    HW2 3502   2.661   0.344   1.706
  868SOL    HW3 3503   2.736   0.383   1.580
  868SOL    MW4 3504   2.665   0.350   1.619
  869SOL     OW 3505   2.858   0.484   1.508
  869SOL    HW2 3506   2.873   0.570   1.547
  869SOL    HW3 3507   2.870   0.498   1.414
  869SOL    MW4 3508   2.862   0.497   1.501
  870SOL     OW 3509   2.908   0.759   1.609
  870SOL    HW2 3510   2.919   0.767   1.703
  870SOL    HW3 3511   2.834   0.816   1.588
  870SOL    MW4 3512   2.900   0.768   1.618
  871SOL     OW 3513   2.706   0.900   1.468
  871SOL    HW2 3514   2.622   0.866   1.500
  871SOL    HW3 3515   2.700   0.890   1.372
  871SOL    MW4 3516   2.694   0.894   1.459
  872SOL     OW 3517   2.724   1.179   1.574
  872SOL    HW2 3518   2.715   1.091   1.536
  872SOL    HW3 3519   2.638   1.219   1.560
  872SOL    MW4 3520   2.712   1.173   1.567
  873SOL     OW 3521   2.954   1.314   1.475
  873SOL    HW2 3522   3.028   1.261   1.508
  873SOL    HW3 3523   2.877   1.276   1.518
  873SOL    MW4 3524   2.954   1.302   1.485
  874SOL     OW 3525   2.955   1.554   1.616
  874SOL    HW2 3526   2.882   1.600   1.574
  874SOL    HW3 3527   2.974   1.482   1.556
  874SOL    MW4 3528   2.948   1.551   1.602
  875SOL     OW 3529   2.723   1.669   1.529
  875SOL    HW2 3530   2.701   1.761   1.545
  875SOL    HW3 3531   2.711   1.658   1.435
  875SOL    MW4 3532   2.718   1.680   1.519
  876SOL     OW 3533   2.663   1.933   1.594
  876SOL    HW2 3534   2.674   1.946   1.689
  876SOL    HW3 3535   2.583   1.981   1.573
  876SOL    MW4 3536   2.654   1.941   1.604
  877SOL     OW 3537   2.884   2.041   1.471
  877SOL    HW2 3538   2.880   2.135   1.490
  877SOL    HW3 3539   2.813   2.003   1.521
  877SOL    MW4 3540   2.874   2.048   1.480
  878SOL     OW 3541   2.895   2.303   1.543
  878SOL    HW2 3542   2.912   2.305   1.637
  878SOL    HW3 3543   2.822   2.365   1.531
  878SOL    MW4 3544   2.888   2.312   1.553
  879SOL     OW 3545   2.657   2.436   1.498
  879SOL    HW2 3546   2.651   2.520   1.544
  879SOL    HW3 3547   2.587   2.383   1.535
  879SOL    MW4 3548   2.647   2.440   1.509
  880SOL     OW 3549   2.675   2.718   1.575
  880SOL    HW2 3550   2.756   2.757   1.542
  880SOL    HW3 3551   2.606   2.770   1.533
  880SOL    MW4 3552   2.676   2.730   1.565
  881SOL     OW 3553   2.900   2.854   1.484
  881SOL    HW2 3554   2.969   2.808   1.532
  881SOL    HW3 3555   2.900   2.942   1.521
  881SOL    MW4 3556   2.909   2.860   1.495
  882SOL     OW 3557   2.934   3.115   1.597
  882SOL    HW2 3558   2.963   3.127   1.687
  882SOL    HW3 3559   3.003   3.154   1.544
  882SOL    MW4 3560   2.947   3.121   1.602
  883SOL     OW 3561   2.695   3.228   1.548
  883SOL    HW2 3562   2.780   3.188   1.570
  883SOL    HW3 3563   2.691   3.224   1.453
  883SOL    MW4 3564   2.706   3.222   1.539
  884SOL     OW 3565   2.680   3.510   1.603
  884SOL    HW2 3566   2.692   3.537   1.694
  884SOL    HW3 3567   2.671   3.415   1.608
  884SOL    MW4 3568   2.681   3.501   1.616
  885SOL     OW 3569   2.905   3.620   1.486
  885SOL    HW2 3570   2.821   3.583   1.513
  885SOL    HW3 3571   2.902   3.619   1.390
  885SOL    MW4 3572   2.894   3.615   1.477
  886SOL     OW 3573   2.895   3.865   1.614
  886SOL    HW2 3574   2.820   3.911   1.575
  886SOL    HW3 3575   2.892   3.777   1.575
  886SOL    MW4 3576   2.884   3.859   1.604
  887SOL     OW 3577   2.704   3.999   1.486
  887SOL    HW2 3578   2.717   4.077   1.539
  887SOL    HW3 3579   2.702   4.030   1.396
  887SOL    MW4 3580   2.705   4.013   1.481
  888SOL     OW 3581   2.743   4.263   1.598
  888SOL    HW2 3582   2.807   4.307   1.542
  888SOL    HW3 3583   2.658   4.285   1.559
  888SOL    MW4 3584   2.740   4.271   1.585
  889SOL     OW 3585   2.922   4.392   1.452
  889SOL    HW2 3586   2.916   4.483   1.481
  889SOL    HW3 3587   2.901   4.396   1.358
  889SOL    MW4 3588   2.919   4.405   1.443
  890SOL     OW 3589   3.327   0.005   1.581
  890SOL    HW2 3590   3.407   0.047   1.549
  890SOL    HW3 3591   3.327  -0.080   1.537
  890SOL    MW4 3592   3.338  -0.001   1.571
  891SOL     OW 3593   3.098   0.126   1.486
  891SOL    HW2 3594   3.159   0.084   1.546
  891SOL    HW3 3595   3.013   0.085   1.505
  891SOL    MW4 3596   3.095   0.115   1.496
  892SOL     OW 3597   3.110   0.399   1.570
  892SOL    HW2 3598   3.107   0.308   1.541
  892SOL    HW3 3599   3.021   0.431   1.555
  892SOL    MW4 3600   3.098   0.391   1.564
  893SOL     OW 3601   3.357   0.521   1.517
  893SOL    HW2 3602   3.279   0.471   1.542
  893SOL    HW3 3603   3.356   0.520   1.421
  893SOL    MW4 3604   3.347   0.514   1.508
  894SOL     OW 3605   3.388   0.780   1.622
  894SOL    HW2 3606   3.414   0.771   1.713
  894SOL    HW3 3607   3.382   0.691   1.589
  894SOL    MW4 3608   3.391   0.767   1.630
  895SOL     OW 3609   3.149   0.884   1.533
  895SOL    HW2 3610   3.227   0.836   1.562
  895SOL    HW3 3611   3.076   0.833   1.568
  895SOL    MW4 3612   3.150   0.871   1.541
  896SOL     OW 3613   3.183   1.162   1.546
  896SOL    HW2 3614   3.193   1.175   1.640
  896SOL    HW3 3615   3.169   1.068   1.536
  896SOL    MW4 3616   3.182   1.152   1.557
  897SOL     OW 3617   3.428   1.273   1.476
  897SOL    HW2 3618   3.495   1.233   1.531
  897SOL    HW3 3619   3.345   1.238   1.510
  897SOL    MW4 3620   3.426   1.263   1.488
  898SOL     OW 3621   3.366   1.503   1.596
  898SOL    HW2 3622   3.365   1.506   1.692
  898SOL    HW3 3623   3.381   1.411   1.575
  898SOL    MW4 3624   3.368   1.492   1.606
  899SOL     OW 3625   3.155   1.672   1.475
  899SOL    HW2 3626   3.237   1.638   1.512
  899SOL    HW3 3627   3.086   1.627   1.524
  899SOL    MW4 3628   3.157   1.662   1.486
  900SOL     OW 3629   3.099   1.930   1.613
  900SOL    HW2 3630   3.126   1.858   1.556
  900SOL    HW3 3631   3.028   1.973   1.566
  900SOL    MW4 3632   3.094   1.926   1.600
  901SOL     OW 3633   3.323   2.067   1.537
  901SOL    HW2 3634   3.237   2.029   1.558
  901SOL    HW3 3635   3.329   2.060   1.441
  901SOL    MW4 3636   3.312   2.061   1.527
  902SOL     OW 3637   3.358   2.328   1.595
  902SOL    HW2 3638   3.445   2.357   1.570
  902SOL    HW3 3639   3.357   2.234   1.575
  902SOL    MW4 3640   3.369   2.319   1.589
  903SOL     OW 3641   3.132   2.434   1.481
  903SOL    HW2 3642   3.206   2.391   1.523
  903SOL    HW3 3643   3.060   2.371   1.490
  903SOL    MW4 3644   3.132   2.420   1.487
  904SOL     OW 3645   3.092   2.713   1.604
  904SOL    HW2 3646   3.176   2.745   1.570
  904SOL    HW3 3647   3.090   2.621   1.579
  904SOL    MW4 3648   3.103   2.705   1.596
  905SOL     OW 3649   3.332   2.823   1.498
  905SOL    HW2 3650   3.332   2.909   1.541
  905SOL    HW3 3651   3.349   2.842   1.406
  905SOL    MW4 3652   3.334   2.837   1.492
  906SOL     OW 3653   3.334   3.085   1.608
  906SOL    HW2 3654   3.337   3.091   1.704
  906SOL    HW3 3655   3.403   3.144   1.578
  906SOL    MW4 3656   3.343   3.094   1.617
  907SOL     OW 3657   3.145   3.259   1.491
  907SOL    HW2 3658   3.196   3.185   1.525
  907SOL    HW3 3659   3.143   3.246   1.397
  907SOL    MW4 3660   3.151   3.247   1.483
  908SOL     OW 3661   3.141   3.513   1.594
  908SOL    HW2 3662   3.139   3.421   1.570
  908SOL    HW3 3663   3.058   3.548   1.562
  908SOL    MW4 3664   3.130   3.506   1.586
  909SOL     OW 3665   3.387   3.600   1.487
  909SOL    HW2 3666   3.462   3.569   1.537
  909SOL    HW3 3667   3.311   3.567   1.535
  909SOL    MW4 3668   3.387   3.592   1.500
  910SOL     OW 3669   3.383   3.849   1.605
  910SOL    HW2 3670   3.310   3.898   1.565
  910SOL    HW3 3671   3.383   3.765   1.560
  910SOL    MW4 3672   3.373   3.844   1.594
  911SOL     OW 3673   3.131   3.992   1.517
  911SOL    HW2 3674   3.125   4.084   1.544
  911SOL    HW3 3675   3.044   3.956   1.535
  911SOL    MW4 3676   3.118   4.000   1.523
  912SOL     OW 3677   3.134   4.269   1.563
  912SOL    HW2 3678   3.107   4.273   1.655
  912SOL    HW3 3679   3.068   4.320   1.517
  912SOL    MW4 3680   3.121   4.276   1.569
  913SOL     OW 3681   3.342   4.419   1.463
  913SOL    HW2 3682   3.261   4.372   1.482
  913SOL    HW3 3683   3.353   4.410   1.368
  913SOL    MW4 3684   3.332   4.412   1.453
  914SOL     OW 3685   3.781   0.017   1.558
  914SOL    HW2 3686   3.795   0.017   1.653
  914SOL    HW3 3687   3.866   0.041   1.521
  914SOL    MW4 3688   3.794   0.020   1.566
  915SOL     OW 3689   3.551   0.134   1.491
  915SOL    HW2 3690   3.636   0.105   1.522
  915SOL    HW3 3691   3.559   0.138   1.396
  915SOL    MW4 3692   3.563   0.131   1.483
  916SOL     OW 3693   3.580   0.386   1.599
  916SOL    HW2 3694   3.561   0.298   1.568
  916SOL    HW3 3695   3.502   0.437   1.574
  916SOL    MW4 3696   3.567   0.381   1.592
  917SOL     OW 3697   3.809   0.479   1.503
  917SOL    HW2 3698   3.720   0.461   1.532
  917SOL    HW3 3699   3.806   0.465   1.408
  917SOL    MW4 3700   3.797   0.474   1.494
  918SOL     OW 3701   3.841   0.739   1.587
  918SOL    HW2 3702   3.771   0.794   1.550
  918SOL    HW3 3703   3.826   0.653   1.549
  918SOL    MW4 3704   3.830   0.735   1.577
  919SOL     OW 3705   3.610   0.857   1.493
  919SOL    HW2 3706   3.528   0.825   1.531
  919SOL    HW3 3707   3.592   0.863   1.399
  919SOL    MW4 3708   3.597   0.854   1.485
  920SOL     OW 3709   3.618   1.131   1.594
  920SOL    HW2 3710   3.699   1.175   1.567
  920SOL    HW3 3711   3.620   1.047   1.549
  920SOL    MW4 3712   3.629   1.126   1.585
  921SOL     OW 3713   3.825   1.267   1.499
  921SOL    HW2 3714   3.907   1.235   1.537
  921SOL    HW3 3715   3.812   1.353   1.538
  921SOL    MW4 3716   3.834   1.274   1.509
  922SOL     OW 3717   3.799   1.519   1.587
  922SOL    HW2 3718   3.813   1.521   1.682
  922SOL    HW3 3719   3.717   1.566   1.574
  922SOL    MW4 3720   3.790   1.525   1.598
  923SOL     OW 3721   3.587   1.666   1.508
  923SOL    HW2 3722   3.522   1.599   1.529
  923SOL    HW3 3723   3.582   1.677   1.413
  923SOL    MW4 3724   3.578   1.659   1.499
  924SOL     OW 3725   3.551   1.937   1.618
  924SOL    HW2 3726   3.549   1.844   1.597
  924SOL    HW3 3727   3.468   1.971   1.583
  924SOL    MW4 3728   3.540   1.929   1.610
  925SOL     OW 3729   3.821   2.023   1.534
  925SOL    HW2 3730   3.806   2.118   1.526
  925SOL    HW3 3731   3.734   1.985   1.542
  925SOL    MW4 3732   3.808   2.031   1.534
  926SOL     OW 3733   3.822   2.296   1.552
  926SOL    HW2 3734   3.814   2.298   1.647
  926SOL    HW3 3735   3.907   2.335   1.534
  926SOL    MW4 3736   3.832   2.301   1.562
  927SOL     OW 3737   3.590   2.393   1.449
  927SOL    HW2 3738   3.581   2.479   1.489
  927SOL    HW3 3739   3.675   2.360   1.480
  927SOL    MW4 3740   3.600   2.400   1.458
  928SOL     OW 3741   3.550   2.637   1.570
  928SOL    HW2 3742   3.553   2.648   1.665
  928SOL    HW3 3743   3.470   2.682   1.542
  928SOL    MW4 3744   3.540   2.644   1.579
  929SOL     OW 3745   3.795   2.796   1.488
  929SOL    HW2 3746   3.868   2.763   1.539
  929SOL    HW3 3747   3.724   2.734   1.505
  929SOL    MW4 3748   3.795   2.783   1.497
  930SOL     OW 3749   3.810   3.095   1.586
  930SOL    HW2 3750   3.883   3.141   1.544
  930SOL    HW3 3751   3.810   3.009   1.545
  930SOL    MW4 3752   3.820   3.090   1.575
  931SOL     OW 3753   3.556   3.227   1.525
  931SOL    HW2 3754   3.640   3.181   1.529
  931SOL    HW3 3755   3.537   3.234   1.432
  931SOL    MW4 3756   3.564   3.222   1.514
  932SOL     OW 3757   3.587   3.504   1.640
  932SOL    HW2 3758   3.667   3.544   1.605
  932SOL    HW3 3759   3.584   3.418   1.597
  932SOL    MW4 3760   3.597   3.498   1.629
  933SOL     OW 3761   3.825   3.613   1.520
  933SOL    HW2 3762   3.903   3.566   1.550
  933SOL    HW3 3763   3.836   3.702   1.553
  933SOL    MW4 3764   3.837   3.618   1.529
  934SOL     OW 3765   3.831   3.883   1.622
  934SOL    HW2 3766   3.907   3.929   1.585
  934SOL    HW3 3767   3.756   3.935   1.595
  934SOL    MW4 3768   3.831   3.896   1.614
  935SOL     OW 3769   3.588   4.023   1.534
  935SOL    HW2 3770   3.586   4.114   1.563
  935SOL    HW3 3771   3.508   3.985   1.570
  935SOL    MW4 3772   3.577   4.030   1.543
  936SOL     OW 3773   3.576   4.288   1.587
  936SOL    HW2 3774   3.566   4.278   1.682
  936SOL    HW3 3775   3.496   4.332   1.559
  936SOL    MW4 3776   3.564   4.293   1.596
  937SOL     OW 3777   3.810   4.399   1.491
  937SOL    HW2 3778   3.732   4.352   1.521
  937SOL    HW3 3779   3.791   4.491   1.512
  937SOL    MW4 3780   3.797   4.405   1.498
  938SOL     OW 3781   4.259   4.636   1.582
  938SOL    HW2 3782   4.275   4.636   1.676
  938SOL    HW3 3783   4.259   4.544   1.557
  938SOL    MW4 3784   4.261   4.624   1.591
  939SOL     OW 3785   4.031   0.088   1.489
  939SOL    HW2 3786   4.042   0.180   1.511
  939SOL    HW3 3787   4.104   0.044   1.533
  939SOL    MW4 3788   4.042   0.094   1.498
  940SOL     OW 3789   4.047   0.338   1.578
  940SOL    HW2 3790   4.050   0.331   1.673
  940SOL    HW3 3791   3.958   0.368   1.559
  940SOL    MW4 3792   4.036   0.341   1.588
  941SOL     OW 3793   4.232   0.519   1.491
  941SOL    HW2 3794   4.154   0.471   1.519
  941SOL    HW3 3795   4.305   0.460   1.512
  941SOL    MW4 3796   4.231   0.505   1.498
  942SOL     OW 3797   4.265   0.774   1.629
  942SOL    HW2 3798   4.239   0.690   1.593
  942SOL    HW3 3799   4.344   0.798   1.581
  942SOL    MW4 3800   4.272   0.766   1.618
  943SOL     OW 3801   4.054   0.876   1.488
  943SOL    HW2 3802   4.125   0.848   1.545
  943SOL    HW3 3803   3.978   0.827   1.517
  943SOL    MW4 3804   4.053   0.866   1.499
  944SOL     OW 3805   4.055   1.140   1.572
  944SOL    HW2 3806   4.076   1.140   1.665
  944SOL    HW3 3807   4.039   1.048   1.551
  944SOL    MW4 3808   4.056   1.128   1.581
  945SOL     OW 3809   4.283   1.249   1.438
  945SOL    HW2 3810   4.211   1.200   1.477
  945SOL    HW3 3811   4.361   1.218   1.484
  945SOL    MW4 3812   4.284   1.238   1.449
  946SOL     OW 3813   4.237   1.481   1.594
  946SOL    HW2 3814   4.229   1.398   1.546
  946SOL    HW3 3815   4.305   1.529   1.548
  946SOL    MW4 3816   4.245   1.476   1.581
  947SOL     OW 3817   4.037   1.630   1.489
  947SOL    HW2 3818   4.106   1.582   1.534
  947SOL    HW3 3819   3.956   1.585   1.513
  947SOL    MW4 3820   4.035   1.618   1.498
  948SOL     OW 3821   4.076   1.909   1.573
  948SOL    HW2 3822   4.066   1.815   1.558
  948SOL    HW3 3823   3.989   1.946   1.557
  948SOL    MW4 3824   4.063   1.902   1.569
  949SOL     OW 3825   4.273   2.077   1.458
  949SOL    HW2 3826   4.205   2.023   1.499
  949SOL    HW3 3827   4.249   2.078   1.366
  949SOL    MW4 3828   4.261   2.070   1.451
  950SOL     OW 3829   4.271   2.326   1.569
  950SOL    HW2 3830   4.290   2.311   1.662
  950SOL    HW3 3831   4.267   2.238   1.531
  950SOL    MW4 3832   4.273   2.312   1.576
  951SOL     OW 3833   4.041   2.446   1.472
  951SOL    HW2 3834   4.026   2.526   1.522
  951SOL    HW3 3835   4.122   2.410   1.509
  951SOL    MW4 3836   4.050   2.452   1.483
  952SOL     OW 3837   4.037   2.688   1.605
  952SOL    HW2 3838   4.056   2.673   1.698
  952SOL    HW3 3839   4.111   2.741   1.574
  952SOL    MW4 3840   4.049   2.693   1.613
  953SOL     OW 3841   4.236   2.847   1.502
  953SOL    HW2 3842   4.231   2.937   1.535
  953SOL    HW3 3843   4.265   2.856   1.411
  953SOL    MW4 3844   4.239   2.860   1.494
  954SOL     OW 3845   4.232   3.113   1.601
  954SOL    HW2 3846   4.235   3.126   1.696
  954SOL    HW3 3847   4.308   3.161   1.568
  954SOL    MW4 3848   4.242   3.121   1.609
  955SOL     OW 3849   4.025   3.235   1.466
  955SOL    HW2 3850   4.020   3.319   1.512
  955SOL    HW3 3851   4.090   3.184   1.516
  955SOL    MW4 3852   4.033   3.239   1.479
  956SOL     OW 3853   4.071   3.471   1.586
  956SOL    HW2 3854   4.062   3.489   1.679
  956SOL    HW3 3855   4.156   3.508   1.562
  956SOL    MW4 3856   4.081   3.478   1.595
  957SOL     OW 3857   4.300   3.609   1.508
  957SOL    HW2 3858   4.300   3.700   1.536
  957SOL    HW3 3859   4.304   3.612   1.412
  957SOL    MW4 3860   4.300   3.621   1.499
  958SOL     OW 3861   4.273   3.859   1.596
  958SOL    HW2 3862   4.189   3.901   1.579
  958SOL    HW3 3863   4.338   3.926   1.575
  958SOL    MW4 3864   4.270   3.874   1.591
  959SOL     OW 3865   4.058   4.028   1.545
  959SOL    HW2 3866   4.054   4.119   1.575
  959SOL    HW3 3867   4.060   4.034   1.450
  959SOL    MW4 3868   4.058   4.041   1.537
  960SOL     OW 3869   4.046   4.310   1.611
  960SOL    HW2 3870   4.059   4.309   1.706
  960SOL    HW3 3871   3.960   4.349   1.598
  960SOL    MW4 3872   4.037   4.315   1.622
  961SOL     OW 3873   4.279   4.381   1.496
  961SOL    HW2 3874   4.193   4.363   1.533
  961SOL    HW3 3875   4.268   4.368   1.401
  961SOL    MW4 3876   4.266   4.377   1.488
  962SOL     OW 3877   0.232   4.660   1.889
  962SOL    HW2 3878   0.314   4.695   1.923
  962SOL    HW3 3879   0.237   4.672   1.794
  962SOL    MW4 3880   0.243   4.666   1.881
  963SOL     OW 3881   4.478   0.113   1.950
  963SOL    HW2 3882   4.478   0.197   1.903
  963SOL    HW3 3883   4.565   0.076   1.934
  963SOL    MW4 3884   4.489   0.119   1.942
  964SOL     OW 3885   4.487   0.375   1.837
  964SOL    HW2 3886   4.413   0.419   1.878
  964SOL    HW3 3887   4.563   0.401   1.890
  964SOL    MW4 3888   4.487   0.384   1.849
  965SOL     OW 3889   0.195   0.451   1.990
  965SOL    HW2 3890   0.272   0.400   1.965
  965SOL    HW3 3891   0.212   0.539   1.956
  965SOL    MW4 3892   0.208   0.456   1.982
  966SOL     OW 3893   0.239   0.707   1.878
  966SOL    HW2 3894   0.312   0.762   1.907
  966SOL    HW3 3895   0.243   0.712   1.783
  966SOL    MW4 3896   0.249   0.715   1.869
  967SOL     OW 3897   0.022   0.913   2.031
  967SOL    HW2 3898  -0.056   0.867   1.999
  967SOL    HW3 3899   0.096   0.865   1.993
  967SOL    MW4 3900   0.022   0.901   2.022
  968SOL     OW 3901   0.006   1.148   1.851
  968SOL    HW2 3902  -0.072   1.201   1.866
  968SOL    HW3 3903  -0.011   1.067   1.899
  968SOL    MW4 3904  -0.007   1.144   1.859
  969SOL     OW 3905   0.221   1.329   1.940
  969SOL    HW2 3906   0.212   1.421   1.915
  969SOL    HW3 3907   0.150   1.284   1.894
  969SOL    MW4 3908   0.211   1.335   1.930
  970SOL     OW 3909   0.199   1.588   1.830
  970SOL    HW2 3910   0.275   1.631   1.870
  970SOL    HW3 3911   0.124   1.639   1.859
  970SOL    MW4 3912   0.199   1.600   1.839
  971SOL     OW 3913   4.448   1.678   1.961
  971SOL    HW2 3914   4.444   1.672   2.057
  971SOL    HW3 3915   4.369   1.633   1.931
  971SOL    MW4 3916   4.437   1.672   1.970
  972SOL     OW 3917   4.490   1.925   1.824
  972SOL    HW2 3918   4.429   1.989   1.862
  972SOL    HW3 3919   4.472   1.844   1.872
  972SOL    MW4 3920   4.479   1.923   1.835
  973SOL     OW 3921   0.212   2.081   1.930
  973SOL    HW2 3922   0.195   2.168   1.893
  973SOL    HW3 3923   0.145   2.025   1.891
  973SOL    MW4 3924   0.201   2.085   1.920
  974SOL     OW 3925   0.216   2.353   1.821
  974SOL    HW2 3926   0.294   2.391   1.861
  974SOL    HW3 3927   0.143   2.382   1.876
  974SOL    MW4 3928   0.217   2.362   1.833
  975SOL     OW 3929   0.006   2.467   1.944
  975SOL    HW2 3930  -0.007   2.473   2.039
  975SOL    HW3 3931  -0.005   2.556   1.913
  975SOL    MW4 3932   0.003   2.479   1.952
  976SOL     OW 3933   4.486   2.719   1.860
  976SOL    HW2 3934   4.409   2.771   1.886
  976SOL    HW3 3935   4.484   2.720   1.764
  976SOL    MW4 3936   4.475   2.726   1.851
  977SOL     OW 3937   0.241   2.836   1.935
  977SOL    HW2 3938   0.240   2.926   1.903
  977SOL    HW3 3939   0.153   2.803   1.917
  977SOL    MW4 3940   0.229   2.843   1.929
  978SOL     OW 3941   0.200   3.104   1.896
  978SOL    HW2 3942   0.286   3.129   1.931
  978SOL    HW3 3943   0.213   3.104   1.801
  978SOL    MW4 3944   0.213   3.107   1.888
  979SOL     OW 3945   4.463   3.220   1.995
  979SOL    HW2 3946   4.388   3.177   1.955
  979SOL    HW3 3947   4.539   3.175   1.958
  979SOL    MW4 3948   4.463   3.208   1.985
  980SOL     OW 3949   4.479   3.463   1.885
  980SOL    HW2 3950   4.543   3.523   1.923
  980SOL    HW3 3951   4.478   3.388   1.944
  980SOL    MW4 3952   4.487   3.461   1.898
  981SOL     OW 3953   0.195   3.613   1.994
  981SOL    HW2 3954   0.186   3.600   2.089
  981SOL    HW3 3955   0.270   3.559   1.969
  981SOL    MW4 3956   0.203   3.604   2.003
  982SOL     OW 3957   0.224   3.864   1.868
  982SOL    HW2 3958   0.302   3.890   1.916
  982SOL    HW3 3959   0.206   3.775   1.899
  982SOL    MW4 3960   0.232   3.855   1.879
  983SOL     OW 3961   4.481   3.995   1.977
  983SOL    HW2 3962   4.507   4.085   1.956
  983SOL    HW3 3963   4.554   3.942   1.945
  983SOL    MW4 3964   4.494   4.000   1.970
  984SOL     OW 3965   0.006   4.273   1.884
  984SOL    HW2 3966  -0.068   4.290   1.942
  984SOL    HW3 3967   0.083   4.298   1.935
  984SOL    MW4 3968   0.007   4.279   1.899
  985SOL     OW 3969   0.220   4.401   1.997
  985SOL    HW2 3970   0.245   4.405   2.089
  985SOL    HW3 3971   0.228   4.491   1.966
  985SOL    MW4 3972   0.225   4.413   2.005
  986SOL     OW 3973   0.683   4.666   1.892
  986SOL    HW2 3974   0.669   4.574   1.912
  986SOL    HW3 3975   0.704   4.667   1.799
  986SOL    MW4 3976   0.684   4.654   1.882
  987SOL     OW 3977   0.456   0.108   1.996
  987SOL    HW2 3978   0.457   0.192   1.950
  987SOL    HW3 3979   0.541   0.070   1.976
  987SOL    MW4 3980   0.468   0.114   1.988
  988SOL     OW 3981   0.443   0.382   1.890
  988SOL    HW2 3982   0.516   0.432   1.926
  988SOL    HW3 3983   0.447   0.398   1.796
  988SOL    MW4 3984   0.453   0.391   1.882
  989SOL     OW 3985   0.664   0.540   1.965
  989SOL    HW2 3986   0.680   0.552   2.058
  989SOL    HW3 3987   0.745   0.499   1.932
  989SOL    MW4 3988   0.677   0.536   1.973
  990SOL     OW 3989   0.680   0.772   1.831
  990SOL    HW2 3990   0.765   0.805   1.861
  990SOL    HW3 3991   0.674   0.684   1.868
  990SOL    MW4 3992   0.690   0.765   1.840
  991SOL     OW 3993   0.459   0.875   1.964
  991SOL    HW2 3994   0.450   0.965   1.931
  991SOL    HW3 3995   0.531   0.838   1.913
  991SOL    MW4 3996   0.468   0.882   1.953
  992SOL     OW 3997   0.446   1.144   1.891
  992SOL    HW2 3998   0.385   1.207   1.927
  992SOL    HW3 3999   0.430   1.146   1.796
  992SOL    MW4 4000   0.436   1.153   1.883
  993SOL     OW 4001   0.705   1.271   1.952
  993SOL    HW2 4002   0.700   1.274   2.048
  993SOL    HW3 4003   0.633   1.214   1.926
  993SOL    MW4 4004   0.695   1.263   1.961
  994SOL     OW 4005   0.676   1.534   1.867
  994SOL    HW2 4006   0.688   1.442   1.893
  994SOL    HW3 4007   0.655   1.530   1.774
  994SOL    MW4 4008   0.675   1.521   1.858
  995SOL     OW 4009   0.448   1.709   1.921
  995SOL    HW2 4010   0.433   1.703   2.016
  995SOL    HW3 4011   0.515   1.644   1.904
  995SOL    MW4 4012   0.455   1.700   1.932
  996SOL     OW 4013   0.442   1.966   1.814
  996SOL    HW2 4014   0.449   1.881   1.858
  996SOL    HW3 4015   0.376   2.014   1.865
  996SOL    MW4 4016   0.434   1.962   1.827
  997SOL     OW 4017   0.704   2.038   1.916
  997SOL    HW2 4018   0.697   2.022   2.010
  997SOL    HW3 4019   0.619   2.012   1.881
  997SOL    MW4 4020   0.692   2.032   1.924
  998SOL     OW 4021   0.673   2.302   1.907
  998SOL    HW2 4022   0.689   2.208   1.917
  998SOL    HW3 4023   0.650   2.313   1.815
  998SOL    MW4 4024   0.672   2.291   1.896
  999SOL     OW 4025   0.447   2.447   1.979
  999SOL    HW2 4026   0.427   2.428   2.070
  999SOL    HW3 4027   0.513   2.381   1.955
  999SOL    MW4 4028   0.453   2.436   1.988
 1000SOL     OW 4029   0.472   2.687   1.886
 1000SOL    HW2 4030   0.463   2.598   1.919
 1000SOL    HW3 4031   0.395   2.733   1.919
 1000SOL    MW4 4032   0.461   2.682   1.895
 1001SOL     OW 4033   0.700   2.828   2.001
 1001SOL    HW2 4034   0.691   2.836   2.097
 1001SOL    HW3 4035   0.617   2.792   1.972
 1001SOL    MW4 4036   0.688   2.824   2.010
 1002SOL     OW 4037   0.694   3.090   1.879
 1002SOL    HW2 4038   0.679   3.008   1.926
 1002SOL    HW3 4039   0.674   3.070   1.788
 1002SOL    MW4 4040   0.689   3.077   1.873
 1003SOL     OW 4041   0.464   3.197   1.981
 1003SOL    HW2 4042   0.456   3.286   1.948
 1003SOL    HW3 4043   0.554   3.172   1.960
 1003SOL    MW4 4044   0.475   3.205   1.974
 1004SOL     OW 4045   0.414   3.463   1.902
 1004SOL    HW2 4046   0.488   3.511   1.939
 1004SOL    HW3 4047   0.422   3.476   1.807
 1004SOL    MW4 4048   0.425   3.471   1.894
 1005SOL     OW 4049   0.626   3.614   1.985
 1005SOL    HW2 4050   0.704   3.561   1.969
 1005SOL    HW3 4051   0.634   3.687   1.924
 1005SOL    MW4 4052   0.638   3.617   1.975
 1006SOL     OW 4053   0.677   3.864   1.853
 1006SOL    HW2 4054   0.765   3.893   1.874
 1006SOL    HW3 4055   0.675   3.857   1.758
 1006SOL    MW4 4056   0.688   3.867   1.843
 1007SOL     OW 4057   0.462   3.982   1.999
 1007SOL    HW2 4058   0.487   4.071   1.974
 1007SOL    HW3 4059   0.535   3.928   1.970
 1007SOL    MW4 4060   0.475   3.987   1.992
 1008SOL     OW 4061   0.447   4.263   1.912
 1008SOL    HW2 4062   0.368   4.311   1.936
 1008SOL    HW3 4063   0.454   4.275   1.817
 1008SOL    MW4 4064   0.438   4.271   1.903
 1009SOL     OW 4065   0.653   4.409   1.962
 1009SOL    HW2 4066   0.732   4.356   1.948
 1009SOL    HW3 4067   0.581   4.347   1.955
 1009SOL    MW4 4068   0.654   4.394   1.959
 1010SOL     OW 4069   1.141   4.641   1.854
 1010SOL    HW2 4070   1.222   4.688   1.875
 1010SOL    HW3 4071   1.140   4.567   1.915
 1010SOL    MW4 4072   1.152   4.637   1.865
 1011SOL     OW 4073   0.913   0.103   1.991
 1011SOL    HW2 4074   0.988   0.068   1.943
 1011SOL    HW3 4075   0.837   0.059   1.952
 1011SOL    MW4 4076   0.913   0.093   1.979
 1012SOL     OW 4077   0.885   0.376   1.890
 1012SOL    HW2 4078   0.964   0.423   1.916
 1012SOL    HW3 4079   0.891   0.292   1.935
 1012SOL    MW4 4080   0.896   0.371   1.899
 1013SOL     OW 4081   1.132   0.518   1.952
 1013SOL    HW2 4082   1.203   0.464   1.915
 1013SOL    HW3 4083   1.147   0.605   1.914
 1013SOL    MW4 4084   1.143   0.522   1.942
 1014SOL     OW 4085   1.145   0.777   1.826
 1014SOL    HW2 4086   1.202   0.845   1.861
 1014SOL    HW3 4087   1.057   0.801   1.857
 1014SOL    MW4 4088   1.141   0.789   1.835
 1015SOL     OW 4089   0.922   0.892   1.933
 1015SOL    HW2 4090   0.908   0.913   2.026
 1015SOL    HW3 4091   0.933   0.978   1.891
 1015SOL    MW4 4092   0.922   0.906   1.940
 1016SOL     OW 4093   0.943   1.156   1.863
 1016SOL    HW2 4094   0.861   1.202   1.881
 1016SOL    HW3 4095   0.944   1.146   1.767
 1016SOL    MW4 4096   0.933   1.161   1.852
 1017SOL     OW 4097   1.136   1.293   2.003
 1017SOL    HW2 4098   1.122   1.380   1.966
 1017SOL    HW3 4099   1.071   1.238   1.958
 1017SOL    MW4 4100   1.125   1.297   1.992
 1018SOL     OW 4101   1.126   1.551   1.891
 1018SOL    HW2 4102   1.048   1.597   1.921
 1018SOL    HW3 4103   1.109   1.531   1.799
 1018SOL    MW4 4104   1.114   1.555   1.883
 1019SOL     OW 4105   0.895   1.674   1.971
 1019SOL    HW2 4106   0.904   1.759   1.929
 1019SOL    HW3 4107   0.814   1.637   1.935
 1019SOL    MW4 4108   0.885   1.680   1.961
 1020SOL     OW 4109   0.931   1.921   1.854
 1020SOL    HW2 4110   0.849   1.964   1.879
 1020SOL    HW3 4111   0.929   1.919   1.758
 1020SOL    MW4 4112   0.920   1.926   1.845
 1021SOL     OW 4113   1.151   2.031   1.962
 1021SOL    HW2 4114   1.144   2.120   1.927
 1021SOL    HW3 4115   1.067   1.990   1.942
 1021SOL    MW4 4116   1.139   2.037   1.955
 1022SOL     OW 4117   1.163   2.281   1.870
 1022SOL    HW2 4118   1.240   2.335   1.889
 1022SOL    HW3 4119   1.156   2.280   1.775
 1022SOL    MW4 4120   1.172   2.288   1.860
 1023SOL     OW 4121   0.939   2.403   1.974
 1023SOL    HW2 4122   1.013   2.358   1.933
 1023SOL    HW3 4123   0.862   2.359   1.937
 1023SOL    MW4 4124   0.938   2.391   1.964
 1024SOL     OW 4125   0.881   2.673   1.876
 1024SOL    HW2 4126   0.882   2.586   1.916
 1024SOL    HW3 4127   0.819   2.723   1.928
 1024SOL    MW4 4128   0.873   2.668   1.888
 1025SOL     OW 4129   1.140   2.796   1.985
 1025SOL    HW2 4130   1.111   2.821   2.072
 1025SOL    HW3 4131   1.061   2.762   1.943
 1025SOL    MW4 4132   1.126   2.795   1.991
 1026SOL     OW 4133   1.156   3.065   1.900
 1026SOL    HW2 4134   1.071   3.108   1.906
 1026SOL    HW3 4135   1.138   2.974   1.923
 1026SOL    MW4 4136   1.142   3.059   1.904
 1027SOL     OW 4137   0.922   3.214   1.983
 1027SOL    HW2 4138   0.904   3.197   2.075
 1027SOL    HW3 4139   0.847   3.177   1.937
 1027SOL    MW4 4140   0.909   3.207   1.989
 1028SOL     OW 4141   0.843   3.479   1.903
 1028SOL    HW2 4142   0.874   3.393   1.931
 1028SOL    HW3 4143   0.837   3.473   1.808
 1028SOL    MW4 4144   0.846   3.467   1.894
 1029SOL     OW 4145   1.091   3.603   1.954
 1029SOL    HW2 4146   1.089   3.613   2.049
 1029SOL    HW3 4147   1.000   3.587   1.930
 1029SOL    MW4 4148   1.078   3.602   1.963
 1030SOL     OW 4149   1.151   3.850   1.859
 1030SOL    HW2 4150   1.133   3.764   1.896
 1030SOL    HW3 4151   1.137   3.839   1.765
 1030SOL    MW4 4152   1.147   3.837   1.851
 1031SOL     OW 4153   0.908   3.997   1.938
 1031SOL    HW2 4154   0.899   3.989   2.033
 1031SOL    HW3 4155   0.985   3.945   1.917
 1031SOL    MW4 4156   0.917   3.989   1.948
 1032SOL     OW 4157   0.891   4.272   1.895
 1032SOL    HW2 4158   0.956   4.313   1.952
 1032SOL    HW3 4159   0.907   4.178   1.905
 1032SOL    MW4 4160   0.902   4.265   1.904
 1033SOL     OW 4161   1.130   4.381   1.998
 1033SOL    HW2 4162   1.151   4.393   2.091
 1033SOL    HW3 4163   1.210   4.347   1.960
 1033SOL    MW4 4164   1.143   4.378   2.005
 1034SOL     OW 4165   1.562   4.635   1.839
 1034SOL    HW2 4166   1.629   4.677   1.893
 1034SOL    HW3 4167   1.571   4.542   1.856
 1034SOL    MW4 4168   1.572   4.628   1.848
 1035SOL     OW 4169   1.350   0.099   1.976
 1035SOL    HW2 4170   1.344   0.078   2.070
 1035SOL    HW3 4171   1.418   0.041   1.943
 1035SOL    MW4 4172   1.358   0.089   1.984
 1036SOL     OW 4173   1.362   0.354   1.870
 1036SOL    HW2 4174   1.373   0.261   1.888
 1036SOL    HW3 4175   1.384   0.364   1.778
 1036SOL    MW4 4176   1.366   0.343   1.860
 1037SOL     OW 4177   1.546   0.503   2.010
 1037SOL    HW2 4178   1.620   0.450   1.980
 1037SOL    HW3 4179   1.470   0.468   1.965
 1037SOL    MW4 4180   1.546   0.492   2.000
 1038SOL     OW 4181   1.545   0.756   1.891
 1038SOL    HW2 4182   1.620   0.805   1.926
 1038SOL    HW3 4183   1.556   0.667   1.925
 1038SOL    MW4 4184   1.557   0.751   1.900
 1039SOL     OW 4185   1.330   0.915   1.951
 1039SOL    HW2 4186   1.329   0.917   2.047
 1039SOL    HW3 4187   1.396   0.849   1.929
 1039SOL    MW4 4188   1.338   0.907   1.961
 1040SOL     OW 4189   1.328   1.166   1.847
 1040SOL    HW2 4190   1.332   1.074   1.873
 1040SOL    HW3 4191   1.253   1.201   1.895
 1040SOL    MW4 4192   1.318   1.159   1.857
 1041SOL     OW 4193   1.563   1.234   2.003
 1041SOL    HW2 4194   1.567   1.330   1.999
 1041SOL    HW3 4195   1.497   1.210   1.938
 1041SOL    MW4 4196   1.555   1.244   1.994
 1042SOL     OW 4197   1.577   1.513   1.913
 1042SOL    HW2 4198   1.648   1.565   1.951
 1042SOL    HW3 4199   1.497   1.557   1.944
 1042SOL    MW4 4200   1.576   1.526   1.922
 1043SOL     OW 4201   1.367   1.674   2.006
 1043SOL    HW2 4202   1.372   1.684   2.101
 1043SOL    HW3 4203   1.282   1.633   1.990
 1043SOL    MW4 4204   1.356   1.670   2.017
 1044SOL     OW 4205   1.386   1.922   1.855
 1044SOL    HW2 4206   1.364   1.834   1.885
 1044SOL    HW3 4207   1.317   1.978   1.890
 1044SOL    MW4 4208   1.374   1.918   1.863
 1045SOL     OW 4209   1.592   2.052   2.012
 1045SOL    HW2 4210   1.602   2.133   1.962
 1045SOL    HW3 4211   1.521   2.005   1.967
 1045SOL    MW4 4212   1.584   2.056   1.999
 1046SOL     OW 4213   1.609   2.324   1.884
 1046SOL    HW2 4214   1.673   2.390   1.910
 1046SOL    HW3 4215   1.590   2.343   1.792
 1046SOL    MW4 4216   1.615   2.335   1.875
 1047SOL     OW 4217   1.366   2.448   1.942
 1047SOL    HW2 4218   1.373   2.544   1.944
 1047SOL    HW3 4219   1.456   2.418   1.935
 1047SOL    MW4 4220   1.379   2.457   1.941
 1048SOL     OW 4221   1.384   2.717   1.888
 1048SOL    HW2 4222   1.302   2.734   1.934
 1048SOL    HW3 4223   1.361   2.719   1.795
 1048SOL    MW4 4224   1.370   2.719   1.882
 1049SOL     OW 4225   1.582   2.864   1.982
 1049SOL    HW2 4226   1.662   2.831   1.940
 1049SOL    HW3 4227   1.513   2.805   1.952
 1049SOL    MW4 4228   1.584   2.852   1.972
 1050SOL     OW 4229   1.583   3.125   1.906
 1050SOL    HW2 4230   1.582   3.031   1.923
 1050SOL    HW3 4231   1.578   3.132   1.811
 1050SOL    MW4 4232   1.582   3.113   1.896
 1051SOL     OW 4233   1.353   3.252   1.966
 1051SOL    HW2 4234   1.430   3.198   1.954
 1051SOL    HW3 4235   1.279   3.194   1.948
 1051SOL    MW4 4236   1.353   3.237   1.962
 1052SOL     OW 4237   1.289   3.472   1.819
 1052SOL    HW2 4238   1.302   3.397   1.877
 1052SOL    HW3 4239   1.222   3.524   1.862
 1052SOL    MW4 4240   1.282   3.469   1.832
 1053SOL     OW 4241   1.508   3.622   1.941
 1053SOL    HW2 4242   1.494   3.628   2.035
 1053SOL    HW3 4243   1.430   3.578   1.907
 1053SOL    MW4 4244   1.496   3.617   1.949
 1054SOL     OW 4245   1.579   3.878   1.855
 1054SOL    HW2 4246   1.650   3.916   1.907
 1054SOL    HW3 4247   1.559   3.795   1.898
 1054SOL    MW4 4248   1.586   3.872   1.867
 1055SOL     OW 4249   1.357   4.002   1.956
 1055SOL    HW2 4250   1.441   3.968   1.924
 1055SOL    HW3 4251   1.292   3.937   1.930
 1055SOL    MW4 4252   1.360   3.989   1.949
 1056SOL     OW 4253   1.322   4.266   1.858
 1056SOL    HW2 4254   1.323   4.175   1.887
 1056SOL    HW3 4255   1.325   4.262   1.762
 1056SOL    MW4 4256   1.323   4.254   1.849
 1057SOL     OW 4257   1.552   4.374   1.926
 1057SOL    HW2 4258   1.560   4.378   2.021
 1057SOL    HW3 4259   1.468   4.332   1.911
 1057SOL    MW4 4260   1.542   4.369   1.937
 1058SOL     OW 4261   1.999   0.059   1.859
 1058SOL    HW2 4262   2.082   0.098   1.886
 1058SOL    HW3 4263   2.004  -0.032   1.891
 1058SOL    MW4 4264   2.011   0.052   1.867
 1059SOL     OW 4265   1.750   0.137   1.962
 1059SOL    HW2 4266   1.753   0.134   2.058
 1059SOL    HW3 4267   1.834   0.100   1.935
 1059SOL    MW4 4268   1.762   0.131   1.971
 1060SOL     OW 4269   1.786   0.397   1.894
 1060SOL    HW2 4270   1.771   0.309   1.928
 1060SOL    HW3 4271   1.756   0.393   1.803
 1060SOL    MW4 4272   1.780   0.384   1.886
 1061SOL     OW 4273   2.048   0.515   1.967
 1061SOL    HW2 4274   2.042   0.602   1.927
 1061SOL    HW3 4275   1.959   0.480   1.961
 1061SOL    MW4 4276   2.036   0.522   1.961
 1062SOL     OW 4277   2.003   0.781   1.874
 1062SOL    HW2 4278   2.074   0.845   1.884
 1062SOL    HW3 4279   1.975   0.792   1.783
 1062SOL    MW4 4280   2.009   0.791   1.863
 1063SOL     OW 4281   1.769   0.906   1.980
 1063SOL    HW2 4282   1.777   0.993   1.940
 1063SOL    HW3 4283   1.846   0.858   1.950
 1063SOL    MW4 4284   1.780   0.911   1.971
 1064SOL     OW 4285   1.783   1.142   1.839
 1064SOL    HW2 4286   1.711   1.174   1.893
 1064SOL    HW3 4287   1.758   1.166   1.750
 1064SOL    MW4 4288   1.770   1.149   1.835
 1065SOL     OW 4289   1.992   1.302   1.977
 1065SOL    HW2 4290   2.071   1.258   1.945
 1065SOL    HW3 4291   1.920   1.252   1.939
 1065SOL    MW4 4292   1.993   1.289   1.968
 1066SOL     OW 4293   2.020   1.547   1.880
 1066SOL    HW2 4294   2.003   1.464   1.924
 1066SOL    HW3 4295   2.018   1.526   1.787
 1066SOL    MW4 4296   2.018   1.533   1.874
 1067SOL     OW 4297   1.796   1.659   1.990
 1067SOL    HW2 4298   1.793   1.750   1.959
 1067SOL    HW3 4299   1.878   1.625   1.956
 1067SOL    MW4 4300   1.806   1.666   1.982
 1068SOL     OW 4301   1.814   1.929   1.894
 1068SOL    HW2 4302   1.741   1.967   1.943
 1068SOL    HW3 4303   1.781   1.920   1.805
 1068SOL    MW4 4304   1.800   1.932   1.889
 1069SOL     OW 4305   2.025   2.105   1.981
 1069SOL    HW2 4306   2.108   2.071   1.946
 1069SOL    HW3 4307   1.962   2.035   1.963
 1069SOL    MW4 4308   2.028   2.091   1.974
 1070SOL     OW 4309   1.985   2.365   1.858
 1070SOL    HW2 4310   2.074   2.393   1.878
 1070SOL    HW3 4311   1.977   2.279   1.900
 1070SOL    MW4 4312   1.995   2.357   1.867
 1071SOL     OW 4313   1.795   2.513   1.975
 1071SOL    HW2 4314   1.796   2.492   2.068
 1071SOL    HW3 4315   1.862   2.456   1.937
 1071SOL    MW4 4316   1.804   2.503   1.982
 1072SOL     OW 4317   1.821   2.761   1.884
 1072SOL    HW2 4318   1.817   2.672   1.919
 1072SOL    HW3 4319   1.811   2.750   1.789
 1072SOL    MW4 4320   1.819   2.748   1.876
 1073SOL     OW 4321   2.043   2.882   2.021
 1073SOL    HW2 4322   2.035   2.893   2.115
 1073SOL    HW3 4323   1.959   2.847   1.993
 1073SOL    MW4 4324   2.031   2.879   2.030
 1074SOL     OW 4325   2.038   3.125   1.875
 1074SOL    HW2 4326   1.959   3.158   1.917
 1074SOL    HW3 4327   2.044   3.034   1.904
 1074SOL    MW4 4328   2.029   3.117   1.885
 1075SOL     OW 4329   1.810   3.263   1.985
 1075SOL    HW2 4330   1.812   3.261   2.080
 1075SOL    HW3 4331   1.736   3.206   1.961
 1075SOL    MW4 4332   1.800   3.255   1.994
 1076SOL     OW 4333   1.754   3.501   1.866
 1076SOL    HW2 4334   1.760   3.417   1.911
 1076SOL    HW3 4335   1.669   3.536   1.893
 1076SOL    MW4 4336   1.744   3.494   1.875
 1077SOL     OW 4337   1.987   3.617   1.936
 1077SOL    HW2 4338   1.974   3.706   1.902
 1077SOL    HW3 4339   1.909   3.569   1.910
 1077SOL    MW4 4340   1.975   3.622   1.928
 1078SOL     OW 4341   2.001   3.886   1.842
 1078SOL    HW2 4342   2.075   3.941   1.871
 1078SOL    HW3 4343   2.014   3.876   1.748
 1078SOL    MW4 4344   2.012   3.892   1.834
 1079SOL     OW 4345   1.796   4.036   1.963
 1079SOL    HW2 4346   1.787   4.125   1.928
 1079SOL    HW3 4347   1.871   4.000   1.916
 1079SOL    MW4 4348   1.805   4.043   1.952
 1080SOL     OW 4349   1.804   4.292   1.832
 1080SOL    HW2 4350   1.712   4.307   1.852
 1080SOL    HW3 4351   1.808   4.289   1.737
 1080SOL    MW4 4352   1.792   4.294   1.822
 1081SOL     OW 4353   1.994   4.463   1.951
 1081SOL    HW2 4354   2.055   4.415   1.894
 1081SOL    HW3 4355   1.909   4.425   1.932
 1081SOL    MW4 4356   1.991   4.451   1.941
 1082SOL     OW 4357   2.459   4.662   1.843
 1082SOL    HW2 4358   2.535   4.711   1.875
 1082SOL    HW3 4359   2.459   4.581   1.892
 1082SOL    MW4 4360   2.469   4.658   1.854
 1083SOL     OW 4361   2.242   0.145   1.947
 1083SOL    HW2 4362   2.250   0.142   2.042
 1083SOL    HW3 4363   2.303   0.078   1.915
 1083SOL    MW4 4364   2.251   0.135   1.955
 1084SOL     OW 4365   2.275   0.389   1.810
 1084SOL    HW2 4366   2.273   0.299   1.841
 1084SOL    HW3 4367   2.196   0.429   1.848
 1084SOL    MW4 4368   2.264   0.382   1.819
 1085SOL     OW 4369   2.461   0.513   1.963
 1085SOL    HW2 4370   2.541   0.463   1.946
 1085SOL    HW3 4371   2.395   0.472   1.907
 1085SOL    MW4 4372   2.463   0.501   1.954
 1086SOL     OW 4373   2.484   0.768   1.867
 1086SOL    HW2 4374   2.480   0.681   1.908
 1086SOL    HW3 4375   2.496   0.749   1.773
 1086SOL    MW4 4376   2.485   0.754   1.860
 1087SOL     OW 4377   2.238   0.922   1.914
 1087SOL    HW2 4378   2.257   0.921   2.008
 1087SOL    HW3 4379   2.317   0.887   1.872
 1087SOL    MW4 4380   2.251   0.917   1.921
 1088SOL     OW 4381   2.227   1.203   1.878
 1088SOL    HW2 4382   2.299   1.245   1.925
 1088SOL    HW3 4383   2.233   1.111   1.901
 1088SOL    MW4 4384   2.237   1.196   1.887
 1089SOL     OW 4385   2.455   1.299   1.972
 1089SOL    HW2 4386   2.440   1.307   2.067
 1089SOL    HW3 4387   2.446   1.389   1.939
 1089SOL    MW4 4388   2.452   1.312   1.980
 1090SOL     OW 4389   2.466   1.559   1.896
 1090SOL    HW2 4390   2.382   1.598   1.919
 1090SOL    HW3 4391   2.480   1.583   1.805
 1090SOL    MW4 4392   2.457   1.567   1.887
 1091SOL     OW 4393   2.225   1.720   1.963
 1091SOL    HW2 4394   2.238   1.720   2.058
 1091SOL    HW3 4395   2.148   1.665   1.949
 1091SOL    MW4 4396   2.217   1.713   1.974
 1092SOL     OW 4397   2.256   1.976   1.867
 1092SOL    HW2 4398   2.341   2.005   1.902
 1092SOL    HW3 4399   2.244   1.888   1.903
 1092SOL    MW4 4400   2.266   1.969   1.876
 1093SOL     OW 4401   2.477   2.067   2.000
 1093SOL    HW2 4402   2.557   2.036   1.957
 1093SOL    HW3 4403   2.471   2.159   1.974
 1093SOL    MW4 4404   2.487   2.075   1.991
 1094SOL     OW 4405   2.455   2.333   1.880
 1094SOL    HW2 4406   2.532   2.384   1.905
 1094SOL    HW3 4407   2.383   2.375   1.928
 1094SOL    MW4 4408   2.455   2.345   1.890
 1095SOL     OW 4409   2.231   2.469   1.981
 1095SOL    HW2 4410   2.208   2.469   2.074
 1095SOL    HW3 4411   2.252   2.560   1.961
 1095SOL    MW4 4412   2.231   2.481   1.991
 1096SOL     OW 4413   2.261   2.753   1.939
 1096SOL    HW2 4414   2.179   2.788   1.972
 1096SOL    HW3 4415   2.259   2.769   1.845
 1096SOL    MW4 4416   2.250   2.759   1.931
 1097SOL     OW 4417   2.516   2.859   1.988
 1097SOL    HW2 4418   2.507   2.946   1.950
 1097SOL    HW3 4419   2.430   2.819   1.978
 1097SOL    MW4 4420   2.504   2.866   1.982
 1098SOL     OW 4421   2.465   3.098   1.870
 1098SOL    HW2 4422   2.416   3.177   1.892
 1098SOL    HW3 4423   2.439   3.078   1.780
 1098SOL    MW4 4424   2.456   3.106   1.861
 1099SOL     OW 4425   2.304   3.302   1.947
 1099SOL    HW2 4426   2.299   3.305   2.043
 1099SOL    HW3 4427   2.218   3.272   1.919
 1099SOL    MW4 4428   2.292   3.299   1.956
 1100SOL     OW 4429   2.260   3.566   1.871
 1100SOL    HW2 4430   2.273   3.476   1.901
 1100SOL    HW3 4431   2.168   3.586   1.892
 1100SOL    MW4 4432   2.249   3.557   1.878
 1101SOL     OW 4433   2.474   3.714   1.986
 1101SOL    HW2 4434   2.465   3.692   2.079
 1101SOL    HW3 4435   2.399   3.671   1.944
 1101SOL    MW4 4436   2.463   3.706   1.993
 1102SOL     OW 4437   2.472   3.964   1.863
 1102SOL    HW2 4438   2.383   3.995   1.878
 1102SOL    HW3 4439   2.474   3.878   1.904
 1102SOL    MW4 4440   2.461   3.957   1.870
 1103SOL     OW 4441   2.228   4.051   1.947
 1103SOL    HW2 4442   2.237   4.042   2.042
 1103SOL    HW3 4443   2.210   4.144   1.934
 1103SOL    MW4 4444   2.227   4.062   1.958
 1104SOL     OW 4445   2.210   4.320   1.857
 1104SOL    HW2 4446   2.287   4.357   1.901
 1104SOL    HW3 4447   2.233   4.325   1.764
 1104SOL    MW4 4448   2.223   4.326   1.850
 1105SOL     OW 4449   2.446   4.421   1.983
 1105SOL    HW2 4450   2.453   4.421   2.078
 1105SOL    HW3 4451   2.523   4.371   1.953
 1105SOL    MW4 4452   2.457   4.414   1.991
 1106SOL     OW 4453   2.940   4.665   1.863
 1106SOL    HW2 4454   3.000   4.727   1.904
 1106SOL    HW3 4455   2.956   4.582   1.909
 1106SOL    MW4 4456   2.950   4.662   1.874
 1107SOL     OW 4457   2.691   0.105   1.943
 1107SOL    HW2 4458   2.695   0.107   2.039
 1107SOL    HW3 4459   2.775   0.067   1.917
 1107SOL    MW4 4460   2.703   0.100   1.953
 1108SOL     OW 4461   2.693   0.376   1.892
 1108SOL    HW2 4462   2.776   0.410   1.927
 1108SOL    HW3 4463   2.701   0.281   1.900
 1108SOL    MW4 4464   2.705   0.368   1.898
 1109SOL     OW 4465   2.952   0.504   1.956
 1109SOL    HW2 4466   3.033   0.470   1.917
 1109SOL    HW3 4467   2.943   0.592   1.921
 1109SOL    MW4 4468   2.961   0.511   1.946
 1110SOL     OW 4469   2.912   0.774   1.890
 1110SOL    HW2 4470   2.993   0.819   1.912
 1110SOL    HW3 4471   2.843   0.826   1.932
 1110SOL    MW4 4472   2.913   0.787   1.898
 1111SOL     OW 4473   2.685   0.917   1.966
 1111SOL    HW2 4474   2.681   1.001   1.920
 1111SOL    HW3 4475   2.606   0.871   1.938
 1111SOL    MW4 4476   2.674   0.922   1.956
 1112SOL     OW 4477   2.678   1.161   1.851
 1112SOL    HW2 4478   2.604   1.209   1.888
 1112SOL    HW3 4479   2.686   1.194   1.761
 1112SOL    MW4 4480   2.669   1.172   1.844
 1113SOL     OW 4481   2.920   1.285   1.972
 1113SOL    HW2 4482   2.911   1.377   1.946
 1113SOL    HW3 4483   2.839   1.244   1.942
 1113SOL    MW4 4484   2.908   1.292   1.965
 1114SOL     OW 4485   2.921   1.545   1.889
 1114SOL    HW2 4486   3.000   1.588   1.921
 1114SOL    HW3 4487   2.939   1.526   1.797
 1114SOL    MW4 4488   2.934   1.548   1.881
 1115SOL     OW 4489   2.699   1.684   1.972
 1115SOL    HW2 4490   2.768   1.628   1.935
 1115SOL    HW3 4491   2.618   1.637   1.955
 1115SOL    MW4 4492   2.698   1.671   1.964
 1116SOL     OW 4493   2.698   1.947   1.870
 1116SOL    HW2 4494   2.788   1.977   1.877
 1116SOL    HW3 4495   2.698   1.860   1.909
 1116SOL    MW4 4496   2.710   1.940   1.876
 1117SOL     OW 4497   2.935   2.085   1.937
 1117SOL    HW2 4498   2.915   2.097   2.030
 1117SOL    HW3 4499   3.015   2.033   1.937
 1117SOL    MW4 4500   2.943   2.080   1.949
 1118SOL     OW 4501   2.907   2.316   1.815
 1118SOL    HW2 4502   2.974   2.372   1.854
 1118SOL    HW3 4503   2.928   2.228   1.847
 1118SOL    MW4 4504   2.918   2.312   1.825
 1119SOL     OW 4505   2.700   2.460   1.936
 1119SOL    HW2 4506   2.712   2.547   1.898
 1119SOL    HW3 4507   2.761   2.404   1.887
 1119SOL    MW4 4508   2.710   2.464   1.924
 1120SOL     OW 4509   2.717   2.724   1.851
 1120SOL    HW2 4510   2.645   2.775   1.888
 1120SOL    HW3 4511   2.695   2.715   1.759
 1120SOL    MW4 4512   2.705   2.730   1.844
 1121SOL     OW 4513   2.909   2.873   1.999
 1121SOL    HW2 4514   2.922   2.956   1.954
 1121SOL    HW3 4515   2.841   2.828   1.949
 1121SOL    MW4 4516   2.902   2.878   1.986
 1122SOL     OW 4517   2.916   3.110   1.873
 1122SOL    HW2 4518   2.992   3.150   1.916
 1122SOL    HW3 4519   2.842   3.163   1.903
 1122SOL    MW4 4520   2.916   3.122   1.883
 1123SOL     OW 4521   2.685   3.254   1.962
 1123SOL    HW2 4522   2.654   3.338   1.928
 1123SOL    HW3 4523   2.619   3.191   1.934
 1123SOL    MW4 4524   2.672   3.257   1.954
 1124SOL     OW 4525   2.677   3.552   1.876
 1124SOL    HW2 4526   2.759   3.589   1.910
 1124SOL    HW3 4527   2.609   3.609   1.910
 1124SOL    MW4 4528   2.679   3.564   1.885
 1125SOL     OW 4529   2.903   3.653   1.973
 1125SOL    HW2 4530   2.909   3.648   2.068
 1125SOL    HW3 4531   2.978   3.603   1.941
 1125SOL    MW4 4532   2.913   3.645   1.981
 1126SOL     OW 4533   2.886   3.924   1.894
 1126SOL    HW2 4534   2.894   3.836   1.930
 1126SOL    HW3 4535   2.890   3.912   1.799
 1126SOL    MW4 4536   2.888   3.911   1.886
 1127SOL     OW 4537   2.689   4.065   1.996
 1127SOL    HW2 4538   2.767   4.021   1.963
 1127SOL    HW3 4539   2.616   4.025   1.948
 1127SOL    MW4 4540   2.689   4.054   1.986
 1128SOL     OW 4541   2.672   4.307   1.879
 1128SOL    HW2 4542   2.682   4.223   1.924
 1128SOL    HW3 4543   2.696   4.290   1.789
 1128SOL    MW4 4544   2.676   4.294   1.873
 1129SOL     OW 4545   2.930   4.417   1.966
 1129SOL    HW2 4546   2.945   4.400   2.060
 1129SOL    HW3 4547   2.839   4.391   1.951
 1129SOL    MW4 4548   2.920   4.411   1.977
 1130SOL     OW 4549   3.334   4.653   1.864
 1130SOL    HW2 4550   3.342   4.564   1.897
 1130SOL    HW3 4551   3.324   4.643   1.770
 1130SOL    MW4 4552   3.334   4.640   1.856
 1131SOL     OW 4553   3.130   0.155   1.960
 1131SOL    HW2 4554   3.134   0.157   2.056
 1131SOL    HW3 4555   3.206   0.104   1.934
 1131SOL    MW4 4556   3.140   0.149   1.970
 1132SOL     OW 4557   3.165   0.404   1.836
 1132SOL    HW2 4558   3.155   0.318   1.877
 1132SOL    HW3 4559   3.136   0.392   1.746
 1132SOL    MW4 4560   3.160   0.391   1.830
 1133SOL     OW 4561   3.409   0.501   1.970
 1133SOL    HW2 4562   3.480   0.446   1.936
 1133SOL    HW3 4563   3.334   0.479   1.916
 1133SOL    MW4 4564   3.409   0.491   1.958
 1134SOL     OW 4565   3.426   0.764   1.908
 1134SOL    HW2 4566   3.347   0.813   1.933
 1134SOL    HW3 4567   3.408   0.674   1.937
 1134SOL    MW4 4568   3.413   0.759   1.915
 1135SOL     OW 4569   3.173   0.891   1.935
 1135SOL    HW2 4570   3.160   0.908   2.028
 1135SOL    HW3 4571   3.170   0.978   1.894
 1135SOL    MW4 4572   3.171   0.905   1.942
 1136SOL     OW 4573   3.169   1.190   1.838
 1136SOL    HW2 4574   3.234   1.219   1.901
 1136SOL    HW3 4575   3.085   1.204   1.881
 1136SOL    MW4 4576   3.166   1.195   1.852
 1137SOL     OW 4577   3.379   1.280   1.982
 1137SOL    HW2 4578   3.371   1.270   2.077
 1137SOL    HW3 4579   3.372   1.375   1.968
 1137SOL    MW4 4580   3.377   1.291   1.993
 1138SOL     OW 4581   3.368   1.536   1.887
 1138SOL    HW2 4582   3.451   1.576   1.914
 1138SOL    HW3 4583   3.301   1.599   1.914
 1138SOL    MW4 4584   3.370   1.549   1.894
 1139SOL     OW 4585   3.140   1.662   1.984
 1139SOL    HW2 4586   3.146   1.645   2.078
 1139SOL    HW3 4587   3.142   1.758   1.978
 1139SOL    MW4 4588   3.141   1.672   1.996
 1140SOL     OW 4589   3.156   1.939   1.906
 1140SOL    HW2 4590   3.242   1.976   1.925
 1140SOL    HW3 4591   3.153   1.934   1.810
 1140SOL    MW4 4592   3.167   1.943   1.896
 1141SOL     OW 4593   3.396   2.070   1.967
 1141SOL    HW2 4594   3.477   2.040   1.925
 1141SOL    HW3 4595   3.382   2.157   1.931
 1141SOL    MW4 4596   3.405   2.077   1.957
 1142SOL     OW 4597   3.362   2.319   1.873
 1142SOL    HW2 4598   3.278   2.351   1.904
 1142SOL    HW3 4599   3.356   2.326   1.777
 1142SOL    MW4 4600   3.350   2.324   1.864
 1143SOL     OW 4601   3.112   2.453   1.940
 1143SOL    HW2 4602   3.104   2.451   2.036
 1143SOL    HW3 4603   3.121   2.546   1.919
 1143SOL    MW4 4604   3.112   2.465   1.950
 1144SOL     OW 4605   3.150   2.731   1.888
 1144SOL    HW2 4606   3.083   2.782   1.934
 1144SOL    HW3 4607   3.123   2.734   1.796
 1144SOL    MW4 4608   3.137   2.738   1.882
 1145SOL     OW 4609   3.387   2.847   1.962
 1145SOL    HW2 4610   3.397   2.841   2.057
 1145SOL    HW3 4611   3.307   2.798   1.943
 1145SOL    MW4 4612   3.378   2.840   1.972
 1146SOL     OW 4613   3.364   3.124   1.886
 1146SOL    HW2 4614   3.446   3.158   1.919
 1146SOL    HW3 4615   3.365   3.031   1.909
 1146SOL    MW4 4616   3.375   3.116   1.893
 1147SOL     OW 4617   3.130   3.254   1.976
 1147SOL    HW2 4618   3.116   3.346   1.951
 1147SOL    HW3 4619   3.208   3.228   1.928
 1147SOL    MW4 4620   3.138   3.263   1.967
 1148SOL     OW 4621   3.142   3.506   1.870
 1148SOL    HW2 4622   3.223   3.551   1.893
 1148SOL    HW3 4623   3.134   3.515   1.775
 1148SOL    MW4 4624   3.151   3.513   1.861
 1149SOL     OW 4625   3.376   3.628   1.974
 1149SOL    HW2 4626   3.462   3.590   1.957
 1149SOL    HW3 4627   3.385   3.720   1.947
 1149SOL    MW4 4628   3.389   3.635   1.968
 1150SOL     OW 4629   3.371   3.890   1.875
 1150SOL    HW2 4630   3.289   3.938   1.891
 1150SOL    HW3 4631   3.368   3.868   1.782
 1150SOL    MW4 4632   3.360   3.894   1.865
 1151SOL     OW 4633   3.147   4.029   1.943
 1151SOL    HW2 4634   3.137   4.037   2.038
 1151SOL    HW3 4635   3.061   4.000   1.913
 1151SOL    MW4 4636   3.134   4.026   1.952
 1152SOL     OW 4637   3.120   4.277   1.833
 1152SOL    HW2 4638   3.132   4.188   1.864
 1152SOL    HW3 4639   3.047   4.311   1.885
 1152SOL    MW4 4640   3.112   4.270   1.844
 1153SOL     OW 4641   3.345   4.392   1.955
 1153SOL    HW2 4642   3.415   4.344   1.912
 1153SOL    HW3 4643   3.265   4.358   1.915
 1153SOL    MW4 4644   3.344   4.381   1.944
 1154SOL     OW 4645   3.805   4.633   1.843
 1154SOL    HW2 4646   3.794   4.541   1.869
 1154SOL    HW3 4647   3.740   4.680   1.895
 1154SOL    MW4 4648   3.795   4.627   1.853
 1155SOL     OW 4649   3.586   0.080   1.966
 1155SOL    HW2 4650   3.579   0.073   2.061
 1155SOL    HW3 4651   3.500   0.050   1.934
 1155SOL    MW4 4652   3.573   0.075   1.974
 1156SOL     OW 4653   3.646   0.364   1.879
 1156SOL    HW2 4654   3.636   0.272   1.903
 1156SOL    HW3 4655   3.633   0.366   1.784
 1156SOL    MW4 4656   3.643   0.353   1.869
 1157SOL     OW 4657   3.870   0.492   1.989
 1157SOL    HW2 4658   3.875   0.573   1.938
 1157SOL    HW3 4659   3.802   0.440   1.944
 1157SOL    MW4 4660   3.861   0.496   1.976
 1158SOL     OW 4661   3.857   0.738   1.862
 1158SOL    HW2 4662   3.796   0.800   1.901
 1158SOL    HW3 4663   3.829   0.732   1.770
 1158SOL    MW4 4664   3.845   0.745   1.855
 1159SOL     OW 4665   3.669   0.911   1.994
 1159SOL    HW2 4666   3.662   0.982   1.930
 1159SOL    HW3 4667   3.591   0.858   1.979
 1159SOL    MW4 4668   3.658   0.914   1.983
 1160SOL     OW 4669   3.580   1.137   1.871
 1160SOL    HW2 4670   3.506   1.182   1.911
 1160SOL    HW3 4671   3.562   1.138   1.777
 1160SOL    MW4 4672   3.568   1.143   1.864
 1161SOL     OW 4673   3.814   1.269   1.982
 1161SOL    HW2 4674   3.813   1.272   2.078
 1161SOL    HW3 4675   3.737   1.217   1.958
 1161SOL    MW4 4676   3.804   1.263   1.991
 1162SOL     OW 4677   3.852   1.530   1.845
 1162SOL    HW2 4678   3.924   1.573   1.893
 1162SOL    HW3 4679   3.861   1.437   1.867
 1162SOL    MW4 4680   3.863   1.524   1.854
 1163SOL     OW 4681   3.625   1.655   1.964
 1163SOL    HW2 4682   3.624   1.749   1.951
 1163SOL    HW3 4683   3.710   1.626   1.931
 1163SOL    MW4 4684   3.636   1.663   1.958
 1164SOL     OW 4685   3.613   1.912   1.877
 1164SOL    HW2 4686   3.692   1.965   1.888
 1164SOL    HW3 4687   3.599   1.909   1.783
 1164SOL    MW4 4688   3.622   1.919   1.866
 1165SOL     OW 4689   3.846   2.045   1.945
 1165SOL    HW2 4690   3.932   2.016   1.914
 1165SOL    HW3 4691   3.837   2.134   1.910
 1165SOL    MW4 4692   3.856   2.053   1.936
 1166SOL     OW 4693   3.825   2.287   1.852
 1166SOL    HW2 4694   3.895   2.333   1.898
 1166SOL    HW3 4695   3.745   2.337   1.873
 1166SOL    MW4 4696   3.823   2.300   1.861
 1167SOL     OW 4697   3.616   2.408   1.954
 1167SOL    HW2 4698   3.605   2.501   1.933
 1167SOL    HW3 4699   3.532   2.368   1.930
 1167SOL    MW4 4700   3.603   2.415   1.948
 1168SOL     OW 4701   3.578   2.661   1.855
 1168SOL    HW2 4702   3.661   2.705   1.875
 1168SOL    HW3 4703   3.511   2.725   1.880
 1168SOL    MW4 4704   3.580   2.675   1.861
 1169SOL     OW 4705   3.810   2.803   1.944
 1169SOL    HW2 4706   3.806   2.822   2.038
 1169SOL    HW3 4707   3.801   2.889   1.903
 1169SOL    MW4 4708   3.808   2.817   1.951
 1170SOL     OW 4709   3.830   3.073   1.859
 1170SOL    HW2 4710   3.755   3.112   1.904
 1170SOL    HW3 4711   3.806   3.075   1.766
 1170SOL    MW4 4712   3.817   3.078   1.853
 1171SOL     OW 4713   3.611   3.201   2.001
 1171SOL    HW2 4714   3.602   3.200   2.096
 1171SOL    HW3 4715   3.604   3.293   1.977
 1171SOL    MW4 4716   3.608   3.213   2.010
 1172SOL     OW 4717   3.610   3.476   1.917
 1172SOL    HW2 4718   3.692   3.513   1.950
 1172SOL    HW3 4719   3.613   3.492   1.823
 1172SOL    MW4 4720   3.621   3.483   1.909
 1173SOL     OW 4721   3.840   3.599   2.005
 1173SOL    HW2 4722   3.914   3.556   1.961
 1173SOL    HW3 4723   3.838   3.687   1.966
 1173SOL    MW4 4724   3.850   3.605   1.994
 1174SOL     OW 4725   3.832   3.844   1.885
 1174SOL    HW2 4726   3.748   3.881   1.915
 1174SOL    HW3 4727   3.836   3.867   1.792
 1174SOL    MW4 4728   3.821   3.852   1.877
 1175SOL     OW 4729   3.614   3.992   1.973
 1175SOL    HW2 4730   3.607   4.010   2.067
 1175SOL    HW3 4731   3.528   3.958   1.949
 1175SOL    MW4 4732   3.602   3.990   1.983
 1176SOL     OW 4733   3.599   4.250   1.871
 1176SOL    HW2 4734   3.684   4.284   1.899
 1176SOL    HW3 4735   3.590   4.167   1.917
 1176SOL    MW4 4736   3.609   4.244   1.881
 1177SOL     OW 4737   3.818   4.368   1.984
 1177SOL    HW2 4738   3.819   4.362   2.079
 1177SOL    HW3 4739   3.892   4.314   1.955
 1177SOL    MW4 4740   3.828   4.360   1.993
 1178SOL     OW 4741   4.277   4.610   1.867
 1178SOL    HW2 4742   4.200   4.662   1.889
 1178SOL    HW3 4743   4.351   4.663   1.898
 1178SOL    MW4 4744   4.276   4.624   1.874
 1179SOL     OW 4745   4.050   0.066   1.947
 1179SOL    HW2 4746   4.033   0.065   2.041
 1179SOL    HW3 4747   3.975   0.022   1.908
 1179SOL    MW4 4748   4.038   0.060   1.954
 1180SOL     OW 4749   4.049   0.332   1.865
 1180SOL    HW2 4750   4.045   0.244   1.904
 1180SOL    HW3 4751   3.982   0.381   1.911
 1180SOL    MW4 4752   4.040   0.327   1.876
 1181SOL     OW 4753   4.253   0.496   1.969
 1181SOL    HW2 4754   4.249   0.471   2.061
 1181SOL    HW3 4755   4.183   0.445   1.928
 1181SOL    MW4 4756   4.243   0.486   1.976
 1182SOL     OW 4757   4.293   0.782   1.926
 1182SOL    HW2 4758   4.285   0.688   1.940
 1182SOL    HW3 4759   4.288   0.792   1.831
 1182SOL    MW4 4760   4.291   0.771   1.915
 1183SOL     OW 4761   4.060   0.913   1.975
 1183SOL    HW2 4762   4.144   0.866   1.975
 1183SOL    HW3 4763   3.998   0.850   1.938
 1183SOL    MW4 4764   4.063   0.898   1.970
 1184SOL     OW 4765   4.049   1.166   1.855
 1184SOL    HW2 4766   4.060   1.078   1.890
 1184SOL    HW3 4767   3.965   1.196   1.891
 1184SOL    MW4 4768   4.039   1.158   1.865
 1185SOL     OW 4769   4.284   1.253   1.958
 1185SOL    HW2 4770   4.300   1.248   2.052
 1185SOL    HW3 4771   4.193   1.226   1.948
 1185SOL    MW4 4772   4.274   1.249   1.969
 1186SOL     OW 4773   4.235   1.526   1.877
 1186SOL    HW2 4774   4.271   1.441   1.905
 1186SOL    HW3 4775   4.243   1.524   1.782
 1186SOL    MW4 4776   4.241   1.514   1.868
 1187SOL     OW 4777   4.044   1.688   1.983
 1187SOL    HW2 4778   4.044   1.680   2.078
 1187SOL    HW3 4779   4.113   1.628   1.954
 1187SOL    MW4 4780   4.053   1.679   1.991
 1188SOL     OW 4781   4.085   1.936   1.853
 1188SOL    HW2 4782   4.067   1.858   1.906
 1188SOL    HW3 4783   4.086   1.904   1.763
 1188SOL    MW4 4784   4.083   1.921   1.848
 1189SOL     OW 4785   4.306   2.073   1.949
 1189SOL    HW2 4786   4.277   2.095   2.038
 1189SOL    HW3 4787   4.232   2.027   1.910
 1189SOL    MW4 4788   4.292   2.070   1.956
 1190SOL     OW 4789   4.292   2.325   1.847
 1190SOL    HW2 4790   4.293   2.242   1.894
 1190SOL    HW3 4791   4.368   2.373   1.882
 1190SOL    MW4 4792   4.302   2.320   1.858
 1191SOL     OW 4793   4.051   2.421   1.963
 1191SOL    HW2 4794   4.072   2.462   2.047
 1191SOL    HW3 4795   4.136   2.411   1.920
 1191SOL    MW4 4796   4.065   2.425   1.968
 1192SOL     OW 4797   4.045   2.663   1.871
 1192SOL    HW2 4798   4.035   2.571   1.892
 1192SOL    HW3 4799   3.967   2.705   1.908
 1192SOL    MW4 4800   4.033   2.657   1.879
 1193SOL     OW 4801   4.245   2.830   1.938
 1193SOL    HW2 4802   4.247   2.839   2.033
 1193SOL    HW3 4803   4.172   2.771   1.921
 1193SOL    MW4 4804   4.236   2.823   1.948
 1194SOL     OW 4805   4.241   3.121   1.874
 1194SOL    HW2 4806   4.162   3.153   1.916
 1194SOL    HW3 4807   4.236   3.026   1.882
 1194SOL    MW4 4808   4.230   3.113   1.881
 1195SOL     OW 4809   4.013   3.238   1.983
 1195SOL    HW2 4810   4.004   3.232   2.078
 1195SOL    HW3 4811   3.944   3.181   1.949
 1195SOL    MW4 4812   4.003   3.230   1.991
 1196SOL     OW 4813   4.055   3.488   1.854
 1196SOL    HW2 4814   4.127   3.523   1.905
 1196SOL    HW3 4815   4.047   3.397   1.884
 1196SOL    MW4 4816   4.063   3.480   1.864
 1197SOL     OW 4817   4.279   3.589   1.985
 1197SOL    HW2 4818   4.274   3.674   1.940
 1197SOL    HW3 4819   4.350   3.543   1.940
 1197SOL    MW4 4820   4.288   3.594   1.973
 1198SOL     OW 4821   4.254   3.843   1.881
 1198SOL    HW2 4822   4.329   3.888   1.920
 1198SOL    HW3 4823   4.267   3.852   1.786
 1198SOL    MW4 4824   4.266   3.850   1.873
 1199SOL     OW 4825   4.055   3.987   1.992
 1199SOL    HW2 4826   4.127   3.939   1.950
 1199SOL    HW3 4827   3.977   3.934   1.973
 1199SOL    MW4 4828   4.054   3.973   1.984
 1200SOL     OW 4829   4.050   4.239   1.873
 1200SOL    HW2 4830   4.118   4.283   1.923
 1200SOL    HW3 4831   4.051   4.149   1.904
 1200SOL    MW4 4832   4.059   4.233   1.883
 1201SOL     OW 4833   4.245   4.377   2.009
 1201SOL    HW2 4834   4.247   4.400   2.102
 1201SOL    HW3 4835   4.251   4.460   1.963
 1201SOL    MW4 4836   4.246   4.391   2.015
 1202SOL     OW 4837   0.201   4.665   2.386
 1202SOL    HW2 4838   0.188   4.673   2.481
 1202SOL    HW3 4839   0.283   4.710   2.369
 1202SOL    MW4 4840   0.210   4.672   2.397
 1203SOL     OW 4841   0.039   0.159   2.245
 1203SOL    HW2 4842   0.110   0.106   2.281
 1203SOL    HW3 4843   0.036   0.136   2.153
 1203SOL    MW4 4844   0.048   0.149   2.238
 1204SOL     OW 4845   4.457   0.404   2.360
 1204SOL    HW2 4846   4.534   0.459   2.348
 1204SOL    HW3 4847   4.484   0.317   2.331
 1204SOL    MW4 4848   4.471   0.400   2.354
 1205SOL     OW 4849   0.215   0.483   2.268
 1205SOL    HW2 4850   0.294   0.440   2.300
 1205SOL    HW3 4851   0.209   0.456   2.176
 1205SOL    MW4 4852   0.225   0.474   2.260
 1206SOL     OW 4853   0.197   0.740   2.359
 1206SOL    HW2 4854   0.183   0.758   2.452
 1206SOL    HW3 4855   0.195   0.645   2.352
 1206SOL    MW4 4856   0.195   0.730   2.370
 1207SOL     OW 4857   4.459   0.885   2.300
 1207SOL    HW2 4858   4.538   0.836   2.322
 1207SOL    HW3 4859   4.460   0.890   2.204
 1207SOL    MW4 4860   4.469   0.879   2.290
 1208SOL     OW 4861   0.025   1.153   2.339
 1208SOL    HW2 4862   0.015   1.168   2.433
 1208SOL    HW3 4863   0.014   1.059   2.329
 1208SOL    MW4 4864   0.022   1.143   2.350
 1209SOL     OW 4865   0.246   1.308   2.232
 1209SOL    HW2 4866   0.168   1.269   2.273
 1209SOL    HW3 4867   0.227   1.306   2.138
 1209SOL    MW4 4868   0.233   1.303   2.225
 1210SOL     OW 4869   0.213   1.563   2.345
 1210SOL    HW2 4870   0.222   1.561   2.440
 1210SOL    HW3 4871   0.239   1.475   2.317
 1210SOL    MW4 4872   0.218   1.551   2.353
 1211SOL     OW 4873   4.465   1.671   2.244
 1211SOL    HW2 4874   4.449   1.761   2.273
 1211SOL    HW3 4875   4.543   1.644   2.292
 1211SOL    MW4 4876   4.473   1.680   2.254
 1212SOL     OW 4877   4.442   1.922   2.345
 1212SOL    HW2 4878   4.377   1.989   2.324
 1212SOL    HW3 4879   4.525   1.958   2.311
 1212SOL    MW4 4880   4.445   1.936   2.338
 1213SOL     OW 4881   0.172   2.035   2.234
 1213SOL    HW2 4882   0.263   2.017   2.259
 1213SOL    HW3 4883   0.175   2.046   2.139
 1213SOL    MW4 4884   0.184   2.034   2.224
 1214SOL     OW 4885   0.178   2.292   2.349
 1214SOL    HW2 4886   0.192   2.286   2.443
 1214SOL    HW3 4887   0.142   2.206   2.325
 1214SOL    MW4 4888   0.175   2.280   2.358
 1215SOL     OW 4889   4.469   2.455   2.223
 1215SOL    HW2 4890   4.472   2.546   2.253
 1215SOL    HW3 4891   4.533   2.409   2.278
 1215SOL    MW4 4892   4.477   2.461   2.234
 1216SOL     OW 4893   4.446   2.723   2.308
 1216SOL    HW2 4894   4.441   2.732   2.404
 1216SOL    HW3 4895   4.524   2.773   2.283
 1216SOL    MW4 4896   4.456   2.731   2.318
 1217SOL     OW 4897   0.218   2.827   2.234
 1217SOL    HW2 4898   0.282   2.762   2.263
 1217SOL    HW3 4899   0.246   2.850   2.146
 1217SOL    MW4 4900   0.230   2.821   2.227
 1218SOL     OW 4901   0.248   3.066   2.369
 1218SOL    HW2 4902   0.183   3.127   2.336
 1218SOL    HW3 4903   0.234   2.986   2.317
 1218SOL    MW4 4904   0.238   3.063   2.358
 1219SOL     OW 4905   0.030   3.191   2.259
 1219SOL    HW2 4906   0.001   3.274   2.295
 1219SOL    HW3 4907   0.020   3.201   2.164
 1219SOL    MW4 4908   0.025   3.203   2.251
 1220SOL     OW 4909   4.481   3.424   2.377
 1220SOL    HW2 4910   4.460   3.419   2.470
 1220SOL    HW3 4911   4.401   3.457   2.336
 1220SOL    MW4 4912   4.467   3.427   2.384
 1221SOL     OW 4913   0.190   3.571   2.263
 1221SOL    HW2 4914   0.266   3.528   2.303
 1221SOL    HW3 4915   0.114   3.529   2.303
 1221SOL    MW4 4916   0.190   3.559   2.273
 1222SOL     OW 4917   0.208   3.833   2.350
 1222SOL    HW2 4918   0.135   3.882   2.311
 1222SOL    HW3 4919   0.200   3.745   2.313
 1222SOL    MW4 4920   0.197   3.828   2.340
 1223SOL     OW 4921   4.481   4.008   2.253
 1223SOL    HW2 4922   4.478   4.097   2.288
 1223SOL    HW3 4923   4.477   4.020   2.158
 1223SOL    MW4 4924   4.480   4.022   2.245
 1224SOL     OW 4925   0.008   4.274   2.353
 1224SOL    HW2 4926   0.042   4.253   2.440
 1224SOL    HW3 4927   0.074   4.332   2.315
 1224SOL    MW4 4928   0.021   4.279   2.360
 1225SOL     OW 4929   0.241   4.411   2.281
 1225SOL    HW2 4930   0.311   4.358   2.319
 1225SOL    HW3 4931   0.232   4.485   2.341
 1225SOL    MW4 4932   0.249   4.414   2.294
 1226SOL     OW 4933   0.651   4.641   2.398
 1226SOL    HW2 4934   0.666   4.648   2.492
 1226SOL    HW3 4935   0.730   4.677   2.359
 1226SOL    MW4 4936   0.663   4.647   2.405
 1227SOL     OW 4937   0.443   0.122   2.289
 1227SOL    HW2 4938   0.524   0.076   2.307
 1227SOL    HW3 4939   0.430   0.112   2.195
 1227SOL    MW4 4940   0.452   0.115   2.279
 1228SOL     OW 4941   0.486   0.386   2.332
 1228SOL    HW2 4942   0.474   0.394   2.427
 1228SOL    HW3 4943   0.479   0.292   2.315
 1228SOL    MW4 4944   0.484   0.375   2.342
 1229SOL     OW 4945   0.701   0.539   2.229
 1229SOL    HW2 4946   0.681   0.624   2.269
 1229SOL    HW3 4947   0.627   0.483   2.252
 1229SOL    MW4 4948   0.689   0.543   2.238
 1230SOL     OW 4949   0.685   0.800   2.367
 1230SOL    HW2 4950   0.669   0.799   2.461
 1230SOL    HW3 4951   0.604   0.836   2.330
 1230SOL    MW4 4952   0.672   0.805   2.374
 1231SOL     OW 4953   0.441   0.853   2.245
 1231SOL    HW2 4954   0.359   0.819   2.282
 1231SOL    HW3 4955   0.425   0.852   2.150
 1231SOL    MW4 4956   0.428   0.848   2.237
 1232SOL     OW 4957   0.443   1.121   2.336
 1232SOL    HW2 4958   0.423   1.035   2.299
 1232SOL    HW3 4959   0.372   1.177   2.304
 1232SOL    MW4 4960   0.431   1.117   2.327
 1233SOL     OW 4961   0.666   1.266   2.222
 1233SOL    HW2 4962   0.654   1.345   2.274
 1233SOL    HW3 4963   0.596   1.207   2.252
 1233SOL    MW4 4964   0.655   1.269   2.233
 1234SOL     OW 4965   0.640   1.537   2.292
 1234SOL    HW2 4966   0.623   1.525   2.385
 1234SOL    HW3 4967   0.729   1.574   2.288
 1234SOL    MW4 4968   0.650   1.541   2.304
 1235SOL     OW 4969   0.414   1.699   2.203
 1235SOL    HW2 4970   0.493   1.649   2.225
 1235SOL    HW3 4971   0.345   1.660   2.257
 1235SOL    MW4 4972   0.415   1.687   2.213
 1236SOL     OW 4973   0.429   1.956   2.315
 1236SOL    HW2 4974   0.504   1.993   2.270
 1236SOL    HW3 4975   0.422   1.867   2.282
 1236SOL    MW4 4976   0.438   1.949   2.305
 1237SOL     OW 4977   0.668   2.035   2.184
 1237SOL    HW2 4978   0.720   1.988   2.250
 1237SOL    HW3 4979   0.666   2.125   2.216
 1237SOL    MW4 4980   0.675   2.040   2.197
 1238SOL     OW 4981   0.642   2.282   2.320
 1238SOL    HW2 4982   0.654   2.286   2.415
 1238SOL    HW3 4983   0.700   2.350   2.286
 1238SOL    MW4 4984   0.651   2.292   2.328
 1239SOL     OW 4985   0.407   2.416   2.255
 1239SOL    HW2 4986   0.469   2.359   2.301
 1239SOL    HW3 4987   0.321   2.385   2.283
 1239SOL    MW4 4988   0.404   2.404   2.265
 1240SOL     OW 4989   0.472   2.678   2.351
 1240SOL    HW2 4990   0.445   2.682   2.443
 1240SOL    HW3 4991   0.458   2.587   2.326
 1240SOL    MW4 4992   0.466   2.667   2.360
 1241SOL     OW 4993   0.694   2.835   2.290
 1241SOL    HW2 4994   0.768   2.777   2.310
 1241SOL    HW3 4995   0.617   2.785   2.317
 1241SOL    MW4 4996   0.694   2.821   2.296
 1242SOL     OW 4997   0.677   3.100   2.395
 1242SOL    HW2 4998   0.594   3.125   2.354
 1242SOL    HW3 4999   0.687   3.007   2.375
 1242SOL    MW4 5000   0.667   3.091   2.387
 1243SOL     OW 5001   0.453   3.225   2.277
 1243SOL    HW2 5002   0.387   3.163   2.309
 1243SOL    HW3 5003   0.460   3.207   2.183
 1243SOL    MW4 5004   0.445   3.215   2.269
 1244SOL     OW 5005   0.438   3.488   2.368
 1244SOL    HW2 5006   0.503   3.550   2.334
 1244SOL    HW3 5007   0.457   3.406   2.322
 1244SOL    MW4 5008   0.449   3.485   2.357
 1245SOL     OW 5009   0.629   3.665   2.268
 1245SOL    HW2 5010   0.632   3.760   2.277
 1245SOL    HW3 5011   0.621   3.650   2.173
 1245SOL    MW4 5012   0.628   3.675   2.256
 1246SOL     OW 5013   0.698   3.922   2.353
 1246SOL    HW2 5014   0.702   3.901   2.446
 1246SOL    HW3 5015   0.611   3.960   2.340
 1246SOL    MW4 5016   0.687   3.924   2.363
 1247SOL     OW 5017   0.451   4.006   2.284
 1247SOL    HW2 5018   0.393   3.936   2.314
 1247SOL    HW3 5019   0.450   3.999   2.188
 1247SOL    MW4 5020   0.443   3.996   2.275
 1248SOL     OW 5021   0.451   4.260   2.374
 1248SOL    HW2 5022   0.529   4.293   2.330
 1248SOL    HW3 5023   0.433   4.175   2.332
 1248SOL    MW4 5024   0.459   4.253   2.362
 1249SOL     OW 5025   0.662   4.386   2.266
 1249SOL    HW2 5026   0.638   4.465   2.315
 1249SOL    HW3 5027   0.671   4.417   2.175
 1249SOL    MW4 5028   0.660   4.401   2.260
 1250SOL     OW 5029   1.097   4.634   2.396
 1250SOL    HW2 5030   1.104   4.645   2.491
 1250SOL    HW3 5031   1.013   4.675   2.374
 1250SOL    MW4 5032   1.087   4.641   2.405
 1251SOL     OW 5033   0.867   0.105   2.271
 1251SOL    HW2 5034   0.862   0.193   2.308
 1251SOL    HW3 5035   0.897   0.119   2.180
 1251SOL    MW4 5036   0.871   0.118   2.264
 1252SOL     OW 5037   0.872   0.369   2.368
 1252SOL    HW2 5038   0.955   0.405   2.335
 1252SOL    HW3 5039   0.805   0.428   2.333
 1252SOL    MW4 5040   0.874   0.382   2.359
 1253SOL     OW 5041   1.076   0.461   2.237
 1253SOL    HW2 5042   1.146   0.404   2.268
 1253SOL    HW3 5043   1.104   0.489   2.150
 1253SOL    MW4 5044   1.089   0.457   2.230
 1254SOL     OW 5045   1.091   0.725   2.324
 1254SOL    HW2 5046   1.010   0.772   2.303
 1254SOL    HW3 5047   1.072   0.634   2.301
 1254SOL    MW4 5048   1.078   0.719   2.318
 1255SOL     OW 5049   0.895   0.898   2.217
 1255SOL    HW2 5050   0.914   0.981   2.261
 1255SOL    HW3 5051   0.818   0.864   2.262
 1255SOL    MW4 5052   0.887   0.904   2.229
 1256SOL     OW 5053   0.907   1.156   2.322
 1256SOL    HW2 5054   0.986   1.207   2.304
 1256SOL    HW3 5055   0.837   1.206   2.279
 1256SOL    MW4 5056   0.908   1.170   2.314
 1257SOL     OW 5057   1.140   1.319   2.276
 1257SOL    HW2 5058   1.210   1.266   2.313
 1257SOL    HW3 5059   1.146   1.303   2.182
 1257SOL    MW4 5060   1.150   1.310   2.268
 1258SOL     OW 5061   1.144   1.583   2.386
 1258SOL    HW2 5062   1.065   1.627   2.354
 1258SOL    HW3 5063   1.145   1.500   2.340
 1258SOL    MW4 5064   1.134   1.578   2.376
 1259SOL     OW 5065   0.913   1.661   2.246
 1259SOL    HW2 5066   0.896   1.753   2.265
 1259SOL    HW3 5067   0.911   1.655   2.151
 1259SOL    MW4 5068   0.910   1.672   2.236
 1260SOL     OW 5069   0.869   1.926   2.346
 1260SOL    HW2 5070   0.878   1.914   2.440
 1260SOL    HW3 5071   0.945   1.979   2.321
 1260SOL    MW4 5072   0.880   1.932   2.355
 1261SOL     OW 5073   1.115   2.061   2.236
 1261SOL    HW2 5074   1.179   2.012   2.287
 1261SOL    HW3 5075   1.139   2.044   2.145
 1261SOL    MW4 5076   1.127   2.052   2.231
 1262SOL     OW 5077   1.134   2.317   2.337
 1262SOL    HW2 5078   1.206   2.366   2.298
 1262SOL    HW3 5079   1.140   2.230   2.297
 1262SOL    MW4 5080   1.145   2.312   2.327
 1263SOL     OW 5081   0.896   2.418   2.256
 1263SOL    HW2 5082   0.981   2.391   2.291
 1263SOL    HW3 5083   0.913   2.437   2.164
 1263SOL    MW4 5084   0.909   2.417   2.248
 1264SOL     OW 5085   0.923   2.677   2.363
 1264SOL    HW2 5086   0.899   2.666   2.455
 1264SOL    HW3 5087   0.926   2.588   2.329
 1264SOL    MW4 5088   0.920   2.664   2.371
 1265SOL     OW 5089   1.109   2.838   2.273
 1265SOL    HW2 5090   1.195   2.801   2.295
 1265SOL    HW3 5091   1.046   2.777   2.311
 1265SOL    MW4 5092   1.112   2.825   2.281
 1266SOL     OW 5093   1.119   3.108   2.376
 1266SOL    HW2 5094   1.037   3.150   2.349
 1266SOL    HW3 5095   1.108   3.016   2.351
 1266SOL    MW4 5096   1.106   3.102   2.369
 1267SOL     OW 5097   0.893   3.206   2.272
 1267SOL    HW2 5098   0.869   3.298   2.280
 1267SOL    HW3 5099   0.827   3.160   2.323
 1267SOL    MW4 5100   0.881   3.212   2.280
 1268SOL     OW 5101   0.857   3.514   2.351
 1268SOL    HW2 5102   0.859   3.487   2.443
 1268SOL    HW3 5103   0.775   3.563   2.343
 1268SOL    MW4 5104   0.846   3.517   2.362
 1269SOL     OW 5105   1.080   3.614   2.222
 1269SOL    HW2 5106   1.151   3.563   2.261
 1269SOL    HW3 5107   1.000   3.580   2.264
 1269SOL    MW4 5108   1.079   3.603   2.233
 1270SOL     OW 5109   1.126   3.856   2.374
 1270SOL    HW2 5110   1.198   3.895   2.324
 1270SOL    HW3 5111   1.114   3.769   2.336
 1270SOL    MW4 5112   1.134   3.850   2.363
 1271SOL     OW 5113   0.919   4.016   2.224
 1271SOL    HW2 5114   0.989   3.969   2.269
 1271SOL    HW3 5115   0.840   3.994   2.275
 1271SOL    MW4 5116   0.918   4.007   2.237
 1272SOL     OW 5117   0.932   4.254   2.357
 1272SOL    HW2 5118   0.932   4.171   2.310
 1272SOL    HW3 5119   0.854   4.299   2.325
 1272SOL    MW4 5120   0.922   4.249   2.346
 1273SOL     OW 5121   1.174   4.397   2.282
 1273SOL    HW2 5122   1.104   4.334   2.299
 1273SOL    HW3 5123   1.148   4.476   2.328
 1273SOL    MW4 5124   1.162   4.399   2.290
 1274SOL     OW 5125   1.546   4.655   2.370
 1274SOL    HW2 5126   1.587   4.730   2.328
 1274SOL    HW3 5127   1.453   4.663   2.348
 1274SOL    MW4 5128   1.539   4.666   2.362
 1275SOL     OW 5129   1.315   0.054   2.252
 1275SOL    HW2 5130   1.316   0.147   2.275
 1275SOL    HW3 5131   1.238   0.019   2.297
 1275SOL    MW4 5132   1.305   0.062   2.261
 1276SOL     OW 5133   1.300   0.321   2.323
 1276SOL    HW2 5134   1.295   0.333   2.418
 1276SOL    HW3 5135   1.385   0.359   2.299
 1276SOL    MW4 5136   1.310   0.328   2.333
 1277SOL     OW 5137   1.532   0.472   2.286
 1277SOL    HW2 5138   1.616   0.474   2.331
 1277SOL    HW3 5139   1.554   0.486   2.194
 1277SOL    MW4 5140   1.546   0.474   2.280
 1278SOL     OW 5141   1.521   0.759   2.323
 1278SOL    HW2 5142   1.612   0.778   2.299
 1278SOL    HW3 5143   1.508   0.668   2.298
 1278SOL    MW4 5144   1.531   0.750   2.316
 1279SOL     OW 5145   1.287   0.907   2.234
 1279SOL    HW2 5146   1.369   0.872   2.270
 1279SOL    HW3 5147   1.220   0.845   2.262
 1279SOL    MW4 5148   1.289   0.895   2.242
 1280SOL     OW 5149   1.348   1.153   2.372
 1280SOL    HW2 5150   1.356   1.138   2.466
 1280SOL    HW3 5151   1.337   1.066   2.335
 1280SOL    MW4 5152   1.348   1.139   2.380
 1281SOL     OW 5153   1.561   1.265   2.266
 1281SOL    HW2 5154   1.482   1.227   2.304
 1281SOL    HW3 5155   1.557   1.239   2.174
 1281SOL    MW4 5156   1.550   1.257   2.259
 1282SOL     OW 5157   1.589   1.522   2.381
 1282SOL    HW2 5158   1.658   1.580   2.347
 1282SOL    HW3 5159   1.599   1.441   2.330
 1282SOL    MW4 5160   1.600   1.519   2.370
 1283SOL     OW 5161   1.375   1.686   2.286
 1283SOL    HW2 5162   1.448   1.635   2.321
 1283SOL    HW3 5163   1.298   1.652   2.332
 1283SOL    MW4 5164   1.375   1.675   2.297
 1284SOL     OW 5165   1.357   1.955   2.369
 1284SOL    HW2 5166   1.438   2.003   2.349
 1284SOL    HW3 5167   1.367   1.872   2.323
 1284SOL    MW4 5168   1.369   1.950   2.360
 1285SOL     OW 5169   1.585   2.084   2.292
 1285SOL    HW2 5170   1.663   2.032   2.312
 1285SOL    HW3 5171   1.585   2.090   2.196
 1285SOL    MW4 5172   1.596   2.078   2.282
 1286SOL     OW 5173   1.546   2.357   2.327
 1286SOL    HW2 5174   1.562   2.375   2.420
 1286SOL    HW3 5175   1.551   2.262   2.321
 1286SOL    MW4 5176   1.549   2.347   2.339
 1287SOL     OW 5177   1.329   2.479   2.223
 1287SOL    HW2 5178   1.410   2.437   2.251
 1287SOL    HW3 5179   1.322   2.456   2.130
 1287SOL    MW4 5180   1.339   2.470   2.214
 1288SOL     OW 5181   1.350   2.728   2.335
 1288SOL    HW2 5182   1.433   2.760   2.299
 1288SOL    HW3 5183   1.340   2.639   2.299
 1288SOL    MW4 5184   1.360   2.720   2.326
 1289SOL     OW 5185   1.583   2.844   2.254
 1289SOL    HW2 5186   1.559   2.927   2.295
 1289SOL    HW3 5187   1.586   2.864   2.160
 1289SOL    MW4 5188   1.580   2.858   2.247
 1290SOL     OW 5189   1.557   3.087   2.378
 1290SOL    HW2 5190   1.550   3.103   2.472
 1290SOL    HW3 5191   1.488   3.141   2.339
 1290SOL    MW4 5192   1.547   3.097   2.385
 1291SOL     OW 5193   1.350   3.234   2.249
 1291SOL    HW2 5194   1.268   3.188   2.267
 1291SOL    HW3 5195   1.351   3.244   2.154
 1291SOL    MW4 5196   1.339   3.229   2.239
 1292SOL     OW 5197   1.284   3.472   2.362
 1292SOL    HW2 5198   1.300   3.473   2.456
 1292SOL    HW3 5199   1.300   3.382   2.336
 1292SOL    MW4 5200   1.288   3.460   2.371
 1293SOL     OW 5201   1.487   3.599   2.218
 1293SOL    HW2 5202   1.523   3.672   2.269
 1293SOL    HW3 5203   1.428   3.554   2.278
 1293SOL    MW4 5204   1.484   3.603   2.233
 1294SOL     OW 5205   1.578   3.831   2.322
 1294SOL    HW2 5206   1.580   3.837   2.418
 1294SOL    HW3 5207   1.648   3.889   2.293
 1294SOL    MW4 5208   1.588   3.839   2.331
 1295SOL     OW 5209   1.334   3.991   2.251
 1295SOL    HW2 5210   1.410   3.939   2.278
 1295SOL    HW3 5211   1.347   4.003   2.157
 1295SOL    MW4 5212   1.346   3.985   2.242
 1296SOL     OW 5213   1.410   4.258   2.341
 1296SOL    HW2 5214   1.385   4.169   2.317
 1296SOL    HW3 5215   1.329   4.308   2.336
 1296SOL    MW4 5216   1.396   4.253   2.337
 1297SOL     OW 5217   1.588   4.423   2.200
 1297SOL    HW2 5218   1.513   4.380   2.241
 1297SOL    HW3 5219   1.594   4.508   2.244
 1297SOL    MW4 5220   1.579   4.428   2.211
 1298SOL     OW 5221   2.028   4.661   2.351
 1298SOL    HW2 5222   2.114   4.689   2.321
 1298SOL    HW3 5223   2.016   4.574   2.314
 1298SOL    MW4 5224   2.037   4.654   2.342
 1299SOL     OW 5225   1.771   0.144   2.247
 1299SOL    HW2 5226   1.745   0.221   2.298
 1299SOL    HW3 5227   1.854   0.116   2.286
 1299SOL    MW4 5228   1.778   0.150   2.259
 1300SOL     OW 5229   1.811   0.468   2.352
 1300SOL    HW2 5230   1.815   0.451   2.446
 1300SOL    HW3 5231   1.901   0.488   2.327
 1300SOL    MW4 5232   1.823   0.468   2.361
 1301SOL     OW 5233   2.069   0.570   2.272
 1301SOL    HW2 5234   2.055   0.661   2.297
 1301SOL    HW3 5235   2.084   0.573   2.177
 1301SOL    MW4 5236   2.070   0.582   2.263
 1302SOL     OW 5237   2.030   0.830   2.352
 1302SOL    HW2 5238   2.093   0.862   2.288
 1302SOL    HW3 5239   1.944   0.849   2.313
 1302SOL    MW4 5240   2.027   0.837   2.338
 1303SOL     OW 5241   1.791   0.898   2.270
 1303SOL    HW2 5242   1.782   0.988   2.301
 1303SOL    HW3 5243   1.773   0.902   2.176
 1303SOL    MW4 5244   1.788   0.910   2.262
 1304SOL     OW 5245   1.765   1.150   2.407
 1304SOL    HW2 5246   1.837   1.197   2.365
 1304SOL    HW3 5247   1.686   1.186   2.368
 1304SOL    MW4 5248   1.764   1.161   2.397
 1305SOL     OW 5249   1.982   1.289   2.242
 1305SOL    HW2 5250   1.988   1.381   2.267
 1305SOL    HW3 5251   1.982   1.291   2.146
 1305SOL    MW4 5252   1.983   1.302   2.233
 1306SOL     OW 5253   2.028   1.545   2.347
 1306SOL    HW2 5254   2.036   1.543   2.442
 1306SOL    HW3 5255   1.948   1.594   2.330
 1306SOL    MW4 5256   2.019   1.551   2.357
 1307SOL     OW 5257   1.800   1.659   2.265
 1307SOL    HW2 5258   1.806   1.752   2.286
 1307SOL    HW3 5259   1.787   1.657   2.170
 1307SOL    MW4 5260   1.799   1.671   2.255
 1308SOL     OW 5261   1.826   1.925   2.340
 1308SOL    HW2 5262   1.826   1.929   2.435
 1308SOL    HW3 5263   1.889   1.992   2.312
 1308SOL    MW4 5264   1.835   1.934   2.349
 1309SOL     OW 5265   2.014   2.108   2.245
 1309SOL    HW2 5266   2.097   2.063   2.260
 1309SOL    HW3 5267   2.006   2.111   2.149
 1309SOL    MW4 5268   2.024   2.102   2.234
 1310SOL     OW 5269   1.988   2.333   2.402
 1310SOL    HW2 5270   2.058   2.394   2.380
 1310SOL    HW3 5271   2.007   2.254   2.352
 1310SOL    MW4 5272   1.999   2.331   2.393
 1311SOL     OW 5273   1.800   2.467   2.254
 1311SOL    HW2 5274   1.853   2.414   2.314
 1311SOL    HW3 5275   1.711   2.435   2.266
 1311SOL    MW4 5276   1.795   2.456   2.264
 1312SOL     OW 5277   1.818   2.723   2.340
 1312SOL    HW2 5278   1.795   2.632   2.323
 1312SOL    HW3 5279   1.741   2.773   2.314
 1312SOL    MW4 5280   1.805   2.717   2.334
 1313SOL     OW 5281   2.013   2.881   2.281
 1313SOL    HW2 5282   2.093   2.832   2.303
 1313SOL    HW3 5283   1.942   2.820   2.302
 1313SOL    MW4 5284   2.014   2.866   2.287
 1314SOL     OW 5285   2.032   3.163   2.375
 1314SOL    HW2 5286   2.101   3.209   2.327
 1314SOL    HW3 5287   2.028   3.077   2.334
 1314SOL    MW4 5288   2.041   3.158   2.363
 1315SOL     OW 5289   1.782   3.220   2.253
 1315SOL    HW2 5290   1.865   3.204   2.298
 1315SOL    HW3 5291   1.718   3.165   2.299
 1315SOL    MW4 5292   1.784   3.210   2.265
 1316SOL     OW 5293   1.751   3.487   2.332
 1316SOL    HW2 5294   1.755   3.392   2.326
 1316SOL    HW3 5295   1.665   3.509   2.296
 1316SOL    MW4 5296   1.740   3.477   2.326
 1317SOL     OW 5297   1.977   3.637   2.226
 1317SOL    HW2 5298   1.899   3.605   2.271
 1317SOL    HW3 5299   1.957   3.629   2.133
 1317SOL    MW4 5300   1.964   3.632   2.220
 1318SOL     OW 5301   2.039   3.896   2.354
 1318SOL    HW2 5302   2.030   3.893   2.449
 1318SOL    HW3 5303   2.037   3.804   2.326
 1318SOL    MW4 5304   2.037   3.883   2.362
 1319SOL     OW 5305   1.781   4.008   2.244
 1319SOL    HW2 5306   1.862   3.966   2.275
 1319SOL    HW3 5307   1.787   4.002   2.149
 1319SOL    MW4 5308   1.793   4.002   2.236
 1320SOL     OW 5309   1.802   4.283   2.312
 1320SOL    HW2 5310   1.806   4.194   2.278
 1320SOL    HW3 5311   1.728   4.323   2.265
 1320SOL    MW4 5312   1.793   4.277   2.301
 1321SOL     OW 5313   2.035   4.409   2.224
 1321SOL    HW2 5314   1.961   4.351   2.244
 1321SOL    HW3 5315   2.028   4.425   2.130
 1321SOL    MW4 5316   2.024   4.404   2.215
 1322SOL     OW 5317   2.489   0.000   2.317
 1322SOL    HW2 5318   2.565   0.048   2.283
 1322SOL    HW3 5319   2.503  -0.090   2.289
 1322SOL    MW4 5320   2.501  -0.005   2.309
 1323SOL     OW 5321   2.252   0.103   2.233
 1323SOL    HW2 5322   2.257   0.185   2.281
 1323SOL    HW3 5323   2.335   0.058   2.253
 1323SOL    MW4 5324   2.264   0.108   2.242
 1324SOL     OW 5325   2.250   0.352   2.338
 1324SOL    HW2 5326   2.332   0.401   2.342
 1324SOL    HW3 5327   2.183   0.418   2.323
 1324SOL    MW4 5328   2.252   0.367   2.337
 1325SOL     OW 5329   2.452   0.504   2.251
 1325SOL    HW2 5330   2.538   0.467   2.273
 1325SOL    HW3 5331   2.449   0.505   2.155
 1325SOL    MW4 5332   2.463   0.499   2.241
 1326SOL     OW 5333   2.453   0.784   2.329
 1326SOL    HW2 5334   2.542   0.814   2.310
 1326SOL    HW3 5335   2.449   0.696   2.291
 1326SOL    MW4 5336   2.464   0.776   2.321
 1327SOL     OW 5337   2.250   0.918   2.180
 1327SOL    HW2 5338   2.233   1.000   2.226
 1327SOL    HW3 5339   2.323   0.879   2.228
 1327SOL    MW4 5340   2.258   0.924   2.192
 1328SOL     OW 5341   2.200   1.134   2.327
 1328SOL    HW2 5342   2.279   1.184   2.308
 1328SOL    HW3 5343   2.128   1.195   2.312
 1328SOL    MW4 5344   2.201   1.149   2.322
 1329SOL     OW 5345   2.416   1.305   2.266
 1329SOL    HW2 5346   2.493   1.268   2.309
 1329SOL    HW3 5347   2.401   1.388   2.311
 1329SOL    MW4 5348   2.424   1.311   2.278
 1330SOL     OW 5349   2.433   1.572   2.348
 1330SOL    HW2 5350   2.443   1.572   2.443
 1330SOL    HW3 5351   2.510   1.618   2.316
 1330SOL    MW4 5352   2.444   1.578   2.356
 1331SOL     OW 5353   2.231   1.717   2.233
 1331SOL    HW2 5354   2.306   1.671   2.271
 1331SOL    HW3 5355   2.155   1.672   2.269
 1331SOL    MW4 5356   2.231   1.705   2.243
 1332SOL     OW 5357   2.232   1.975   2.340
 1332SOL    HW2 5358   2.321   2.005   2.327
 1332SOL    HW3 5359   2.231   1.885   2.307
 1332SOL    MW4 5360   2.243   1.967   2.334
 1333SOL     OW 5361   2.482   2.074   2.279
 1333SOL    HW2 5362   2.567   2.039   2.307
 1333SOL    HW3 5363   2.485   2.070   2.184
 1333SOL    MW4 5364   2.493   2.069   2.270
 1334SOL     OW 5365   2.451   2.348   2.330
 1334SOL    HW2 5366   2.523   2.406   2.306
 1334SOL    HW3 5367   2.477   2.263   2.295
 1334SOL    MW4 5368   2.464   2.345   2.322
 1335SOL     OW 5369   2.198   2.470   2.271
 1335SOL    HW2 5370   2.218   2.562   2.287
 1335SOL    HW3 5371   2.275   2.422   2.303
 1335SOL    MW4 5372   2.211   2.475   2.277
 1336SOL     OW 5373   2.258   2.749   2.354
 1336SOL    HW2 5374   2.268   2.725   2.447
 1336SOL    HW3 5375   2.336   2.802   2.336
 1336SOL    MW4 5376   2.270   2.753   2.364
 1337SOL     OW 5377   2.483   2.865   2.258
 1337SOL    HW2 5378   2.571   2.839   2.287
 1337SOL    HW3 5379   2.488   2.864   2.163
 1337SOL    MW4 5380   2.495   2.861   2.249
 1338SOL     OW 5381   2.503   3.149   2.292
 1338SOL    HW2 5382   2.592   3.180   2.273
 1338SOL    HW3 5383   2.508   3.054   2.282
 1338SOL    MW4 5384   2.516   3.140   2.289
 1339SOL     OW 5385   2.245   3.281   2.224
 1339SOL    HW2 5386   2.230   3.354   2.284
 1339SOL    HW3 5387   2.316   3.231   2.264
 1339SOL    MW4 5388   2.252   3.284   2.237
 1340SOL     OW 5389   2.207   3.524   2.350
 1340SOL    HW2 5390   2.197   3.509   2.444
 1340SOL    HW3 5391   2.123   3.557   2.321
 1340SOL    MW4 5392   2.195   3.526   2.359
 1341SOL     OW 5393   2.454   3.648   2.247
 1341SOL    HW2 5394   2.471   3.731   2.292
 1341SOL    HW3 5395   2.368   3.621   2.278
 1341SOL    MW4 5396   2.445   3.656   2.257
 1342SOL     OW 5397   2.461   3.893   2.368
 1342SOL    HW2 5398   2.460   3.904   2.463
 1342SOL    HW3 5399   2.384   3.941   2.338
 1342SOL    MW4 5400   2.450   3.901   2.377
 1343SOL     OW 5401   2.234   4.034   2.222
 1343SOL    HW2 5402   2.239   4.127   2.242
 1343SOL    HW3 5403   2.157   4.003   2.271
 1343SOL    MW4 5404   2.224   4.042   2.231
 1344SOL     OW 5405   2.263   4.287   2.339
 1344SOL    HW2 5406   2.263   4.270   2.433
 1344SOL    HW3 5407   2.185   4.341   2.324
 1344SOL    MW4 5408   2.252   4.292   2.349
 1345SOL     OW 5409   2.513   4.396   2.257
 1345SOL    HW2 5410   2.590   4.361   2.301
 1345SOL    HW3 5411   2.442   4.339   2.284
 1345SOL    MW4 5412   2.514   4.384   2.266
 1346SOL     OW 5413   2.933   0.009   2.369
 1346SOL    HW2 5414   2.999   0.066   2.330
 1346SOL    HW3 5415   2.941  -0.074   2.322
 1346SOL    MW4 5416   2.943   0.006   2.358
 1347SOL     OW 5417   2.727   0.115   2.220
 1347SOL    HW2 5418   2.718   0.198   2.267
 1347SOL    HW3 5419   2.794   0.067   2.268
 1347SOL    MW4 5420   2.735   0.120   2.232
 1348SOL     OW 5421   2.694   0.378   2.348
 1348SOL    HW2 5422   2.700   0.369   2.443
 1348SOL    HW3 5423   2.773   0.427   2.324
 1348SOL    MW4 5424   2.706   0.383   2.357
 1349SOL     OW 5425   2.919   0.514   2.234
 1349SOL    HW2 5426   2.928   0.607   2.256
 1349SOL    HW3 5427   2.949   0.508   2.143
 1349SOL    MW4 5428   2.924   0.525   2.225
 1350SOL     OW 5429   2.938   0.789   2.312
 1350SOL    HW2 5430   2.929   0.790   2.408
 1350SOL    HW3 5431   2.850   0.806   2.280
 1350SOL    MW4 5432   2.925   0.791   2.321
 1351SOL     OW 5433   2.687   0.898   2.246
 1351SOL    HW2 5434   2.669   0.988   2.274
 1351SOL    HW3 5435   2.695   0.904   2.151
 1351SOL    MW4 5436   2.686   0.911   2.237
 1352SOL     OW 5437   2.683   1.171   2.334
 1352SOL    HW2 5438   2.689   1.146   2.427
 1352SOL    HW3 5439   2.769   1.207   2.313
 1352SOL    MW4 5440   2.695   1.172   2.344
 1353SOL     OW 5441   2.924   1.289   2.248
 1353SOL    HW2 5442   2.992   1.227   2.273
 1353SOL    HW3 5443   2.932   1.297   2.153
 1353SOL    MW4 5444   2.934   1.282   2.239
 1354SOL     OW 5445   2.906   1.556   2.324
 1354SOL    HW2 5446   2.901   1.551   2.420
 1354SOL    HW3 5447   2.904   1.464   2.296
 1354SOL    MW4 5448   2.905   1.543   2.333
 1355SOL     OW 5449   2.666   1.670   2.244
 1355SOL    HW2 5450   2.746   1.627   2.273
 1355SOL    HW3 5451   2.675   1.679   2.149
 1355SOL    MW4 5452   2.677   1.666   2.235
 1356SOL     OW 5453   2.715   1.921   2.340
 1356SOL    HW2 5454   2.711   1.918   2.436
 1356SOL    HW3 5455   2.700   1.831   2.312
 1356SOL    MW4 5456   2.713   1.909   2.349
 1357SOL     OW 5457   2.918   2.076   2.228
 1357SOL    HW2 5458   2.990   2.020   2.257
 1357SOL    HW3 5459   2.840   2.036   2.267
 1357SOL    MW4 5460   2.917   2.063   2.237
 1358SOL     OW 5461   2.882   2.330   2.314
 1358SOL    HW2 5462   2.881   2.321   2.409
 1358SOL    HW3 5463   2.903   2.243   2.281
 1358SOL    MW4 5464   2.885   2.318   2.322
 1359SOL     OW 5465   2.666   2.488   2.197
 1359SOL    HW2 5466   2.739   2.441   2.237
 1359SOL    HW3 5467   2.677   2.475   2.103
 1359SOL    MW4 5468   2.677   2.480   2.190
 1360SOL     OW 5469   2.696   2.714   2.350
 1360SOL    HW2 5470   2.778   2.759   2.328
 1360SOL    HW3 5471   2.690   2.643   2.286
 1360SOL    MW4 5472   2.706   2.711   2.339
 1361SOL     OW 5473   2.927   2.861   2.264
 1361SOL    HW2 5474   2.928   2.951   2.294
 1361SOL    HW3 5475   2.909   2.867   2.170
 1361SOL    MW4 5476   2.925   2.874   2.256
 1362SOL     OW 5477   2.929   3.121   2.376
 1362SOL    HW2 5478   3.006   3.161   2.334
 1362SOL    HW3 5479   2.854   3.163   2.334
 1362SOL    MW4 5480   2.929   3.132   2.365
 1363SOL     OW 5481   2.740   3.266   2.229
 1363SOL    HW2 5482   2.736   3.352   2.271
 1363SOL    HW3 5483   2.714   3.283   2.138
 1363SOL    MW4 5484   2.736   3.279   2.222
 1364SOL     OW 5485   2.703   3.526   2.348
 1364SOL    HW2 5486   2.767   3.590   2.317
 1364SOL    HW3 5487   2.619   3.559   2.316
 1364SOL    MW4 5488   2.700   3.539   2.340
 1365SOL     OW 5489   2.921   3.660   2.254
 1365SOL    HW2 5490   2.995   3.612   2.292
 1365SOL    HW3 5491   2.910   3.736   2.311
 1365SOL    MW4 5492   2.929   3.663   2.266
 1366SOL     OW 5493   2.935   3.909   2.370
 1366SOL    HW2 5494   2.942   3.897   2.464
 1366SOL    HW3 5495   2.860   3.968   2.359
 1366SOL    MW4 5496   2.926   3.915   2.381
 1367SOL     OW 5497   2.685   4.027   2.270
 1367SOL    HW2 5498   2.610   3.974   2.297
 1367SOL    HW3 5499   2.679   4.031   2.174
 1367SOL    MW4 5500   2.674   4.021   2.261
 1368SOL     OW 5501   2.727   4.276   2.386
 1368SOL    HW2 5502   2.733   4.265   2.481
 1368SOL    HW3 5503   2.723   4.187   2.352
 1368SOL    MW4 5504   2.727   4.263   2.394
 1369SOL     OW 5505   2.949   4.401   2.244
 1369SOL    HW2 5506   3.017   4.370   2.304
 1369SOL    HW3 5507   2.867   4.377   2.287
 1369SOL    MW4 5508   2.947   4.394   2.258
 1370SOL     OW 5509   3.325   4.663   2.360
 1370SOL    HW2 5510   3.341   4.638   2.451
 1370SOL    HW3 5511   3.412   4.676   2.323
 1370SOL    MW4 5512   3.339   4.661   2.367
 1371SOL     OW 5513   3.127   0.139   2.225
 1371SOL    HW2 5514   3.128   0.222   2.274
 1371SOL    HW3 5515   3.192   0.085   2.269
 1371SOL    MW4 5516   3.136   0.143   2.237
 1372SOL     OW 5517   3.143   0.376   2.350
 1372SOL    HW2 5518   3.213   0.432   2.317
 1372SOL    HW3 5519   3.062   0.418   2.320
 1372SOL    MW4 5520   3.142   0.389   2.342
 1373SOL     OW 5521   3.386   0.497   2.244
 1373SOL    HW2 5522   3.437   0.426   2.283
 1373SOL    HW3 5523   3.410   0.497   2.152
 1373SOL    MW4 5524   3.396   0.488   2.237
 1374SOL     OW 5525   3.360   0.760   2.356
 1374SOL    HW2 5526   3.442   0.807   2.339
 1374SOL    HW3 5527   3.371   0.677   2.309
 1374SOL    MW4 5528   3.372   0.755   2.348
 1375SOL     OW 5529   3.162   0.905   2.219
 1375SOL    HW2 5530   3.232   0.861   2.269
 1375SOL    HW3 5531   3.084   0.854   2.238
 1375SOL    MW4 5532   3.161   0.893   2.228
 1376SOL     OW 5533   3.158   1.139   2.370
 1376SOL    HW2 5534   3.235   1.190   2.346
 1376SOL    HW3 5535   3.169   1.056   2.324
 1376SOL    MW4 5536   3.169   1.135   2.361
 1377SOL     OW 5537   3.376   1.268   2.257
 1377SOL    HW2 5538   3.447   1.236   2.312
 1377SOL    HW3 5539   3.360   1.357   2.288
 1377SOL    MW4 5540   3.383   1.276   2.268
 1378SOL     OW 5541   3.399   1.533   2.359
 1378SOL    HW2 5542   3.406   1.558   2.451
 1378SOL    HW3 5543   3.325   1.584   2.326
 1378SOL    MW4 5544   3.391   1.543   2.367
 1379SOL     OW 5545   3.166   1.649   2.270
 1379SOL    HW2 5546   3.152   1.743   2.273
 1379SOL    HW3 5547   3.089   1.612   2.314
 1379SOL    MW4 5548   3.154   1.656   2.276
 1380SOL     OW 5549   3.127   1.920   2.303
 1380SOL    HW2 5550   3.114   1.900   2.395
 1380SOL    HW3 5551   3.215   1.957   2.299
 1380SOL    MW4 5552   3.137   1.922   2.314
 1381SOL     OW 5553   3.353   2.068   2.245
 1381SOL    HW2 5554   3.436   2.026   2.269
 1381SOL    HW3 5555   3.347   2.057   2.150
 1381SOL    MW4 5556   3.363   2.061   2.236
 1382SOL     OW 5557   3.351   2.326   2.328
 1382SOL    HW2 5558   3.270   2.359   2.288
 1382SOL    HW3 5559   3.355   2.234   2.299
 1382SOL    MW4 5560   3.341   2.318   2.319
 1383SOL     OW 5561   3.118   2.422   2.219
 1383SOL    HW2 5562   3.128   2.513   2.248
 1383SOL    HW3 5563   3.029   2.399   2.246
 1383SOL    MW4 5564   3.107   2.431   2.227
 1384SOL     OW 5565   3.149   2.688   2.345
 1384SOL    HW2 5566   3.168   2.688   2.439
 1384SOL    HW3 5567   3.069   2.740   2.337
 1384SOL    MW4 5568   3.141   2.695   2.356
 1385SOL     OW 5569   3.374   2.828   2.239
 1385SOL    HW2 5570   3.363   2.914   2.280
 1385SOL    HW3 5571   3.294   2.781   2.261
 1385SOL    MW4 5572   3.362   2.833   2.248
 1386SOL     OW 5573   3.353   3.081   2.375
 1386SOL    HW2 5574   3.439   3.110   2.347
 1386SOL    HW3 5575   3.293   3.147   2.340
 1386SOL    MW4 5576   3.356   3.093   2.366
 1387SOL     OW 5577   3.155   3.272   2.291
 1387SOL    HW2 5578   3.150   3.364   2.315
 1387SOL    HW3 5579   3.136   3.270   2.197
 1387SOL    MW4 5580   3.152   3.284   2.282
 1388SOL     OW 5581   3.126   3.528   2.386
 1388SOL    HW2 5582   3.135   3.520   2.481
 1388SOL    HW3 5583   3.208   3.566   2.357
 1388SOL    MW4 5584   3.138   3.532   2.394
 1389SOL     OW 5585   3.378   3.625   2.260
 1389SOL    HW2 5586   3.443   3.564   2.294
 1389SOL    HW3 5587   3.376   3.609   2.166
 1389SOL    MW4 5588   3.386   3.615   2.252
 1390SOL     OW 5589   3.380   3.886   2.355
 1390SOL    HW2 5590   3.460   3.930   2.324
 1390SOL    HW3 5591   3.390   3.795   2.326
 1390SOL    MW4 5592   3.392   3.880   2.347
 1391SOL     OW 5593   3.166   4.025   2.235
 1391SOL    HW2 5594   3.244   3.978   2.264
 1391SOL    HW3 5595   3.094   3.981   2.280
 1391SOL    MW4 5596   3.167   4.013   2.244
 1392SOL     OW 5597   3.171   4.272   2.376
 1392SOL    HW2 5598   3.263   4.299   2.368
 1392SOL    HW3 5599   3.169   4.183   2.341
 1392SOL    MW4 5600   3.183   4.264   2.370
 1393SOL     OW 5601   3.392   4.413   2.236
 1393SOL    HW2 5602   3.349   4.490   2.273
 1393SOL    HW3 5603   3.371   4.415   2.143
 1393SOL    MW4 5604   3.384   4.423   2.229
 1394SOL     OW 5605   3.802   4.633   2.321
 1394SOL    HW2 5606   3.812   4.659   2.413
 1394SOL    HW3 5607   3.875   4.676   2.277
 1394SOL    MW4 5608   3.813   4.642   2.328
 1395SOL     OW 5609   3.556   0.048   2.248
 1395SOL    HW2 5610   3.563   0.142   2.267
 1395SOL    HW3 5611   3.638   0.011   2.280
 1395SOL    MW4 5612   3.568   0.056   2.255
 1396SOL     OW 5613   3.564   0.302   2.340
 1396SOL    HW2 5614   3.560   0.312   2.435
 1396SOL    HW3 5615   3.630   0.365   2.312
 1396SOL    MW4 5616   3.572   0.312   2.349
 1397SOL     OW 5617   3.781   0.491   2.261
 1397SOL    HW2 5618   3.789   0.576   2.303
 1397SOL    HW3 5619   3.803   0.506   2.170
 1397SOL    MW4 5620   3.785   0.504   2.255
 1398SOL     OW 5621   3.831   0.748   2.368
 1398SOL    HW2 5622   3.838   0.768   2.461
 1398SOL    HW3 5623   3.895   0.806   2.326
 1398SOL    MW4 5624   3.840   0.759   2.375
 1399SOL     OW 5625   3.625   0.905   2.280
 1399SOL    HW2 5626   3.690   0.843   2.313
 1399SOL    HW3 5627   3.646   0.914   2.187
 1399SOL    MW4 5628   3.636   0.898   2.272
 1400SOL     OW 5629   3.585   1.152   2.396
 1400SOL    HW2 5630   3.585   1.158   2.492
 1400SOL    HW3 5631   3.599   1.059   2.378
 1400SOL    MW4 5632   3.587   1.140   2.406
 1401SOL     OW 5633   3.805   1.285   2.275
 1401SOL    HW2 5634   3.802   1.379   2.294
 1401SOL    HW3 5635   3.727   1.250   2.318
 1401SOL    MW4 5636   3.794   1.293   2.283
 1402SOL     OW 5637   3.836   1.564   2.379
 1402SOL    HW2 5638   3.821   1.556   2.473
 1402SOL    HW3 5639   3.757   1.606   2.345
 1402SOL    MW4 5640   3.824   1.568   2.387
 1403SOL     OW 5641   3.617   1.677   2.238
 1403SOL    HW2 5642   3.531   1.639   2.255
 1403SOL    HW3 5643   3.632   1.661   2.144
 1403SOL    MW4 5644   3.608   1.670   2.228
 1404SOL     OW 5645   3.594   1.942   2.327
 1404SOL    HW2 5646   3.682   1.977   2.319
 1404SOL    HW3 5647   3.599   1.855   2.287
 1404SOL    MW4 5648   3.606   1.935   2.320
 1405SOL     OW 5649   3.839   2.046   2.238
 1405SOL    HW2 5650   3.911   1.999   2.279
 1405SOL    HW3 5651   3.863   2.049   2.145
 1405SOL    MW4 5652   3.852   2.040   2.231
 1406SOL     OW 5653   3.881   2.319   2.367
 1406SOL    HW2 5654   3.790   2.341   2.350
 1406SOL    HW3 5655   3.891   2.230   2.334
 1406SOL    MW4 5656   3.871   2.310   2.360
 1407SOL     OW 5657   3.630   2.420   2.271
 1407SOL    HW2 5658   3.553   2.365   2.275
 1407SOL    HW3 5659   3.639   2.443   2.178
 1407SOL    MW4 5660   3.621   2.416   2.259
 1408SOL     OW 5661   3.613   2.712   2.335
 1408SOL    HW2 5662   3.614   2.619   2.311
 1408SOL    HW3 5663   3.530   2.745   2.300
 1408SOL    MW4 5664   3.602   2.704   2.327
 1409SOL     OW 5665   3.796   2.878   2.223
 1409SOL    HW2 5666   3.787   2.949   2.286
 1409SOL    HW3 5667   3.727   2.817   2.245
 1409SOL    MW4 5668   3.786   2.880   2.234
 1410SOL     OW 5669   3.790   3.100   2.402
 1410SOL    HW2 5670   3.819   3.096   2.493
 1410SOL    HW3 5671   3.869   3.124   2.353
 1410SOL    MW4 5672   3.804   3.103   2.407
 1411SOL     OW 5673   3.581   3.218   2.293
 1411SOL    HW2 5674   3.591   3.310   2.317
 1411SOL    HW3 5675   3.657   3.174   2.331
 1411SOL    MW4 5676   3.592   3.224   2.301
 1412SOL     OW 5677   3.595   3.488   2.354
 1412SOL    HW2 5678   3.589   3.501   2.448
 1412SOL    HW3 5679   3.675   3.533   2.328
 1412SOL    MW4 5680   3.605   3.495   2.363
 1413SOL     OW 5681   3.815   3.626   2.286
 1413SOL    HW2 5682   3.828   3.718   2.309
 1413SOL    HW3 5683   3.818   3.625   2.190
 1413SOL    MW4 5684   3.817   3.638   2.276
 1414SOL     OW 5685   3.815   3.891   2.377
 1414SOL    HW2 5686   3.827   3.870   2.470
 1414SOL    HW3 5687   3.899   3.928   2.351
 1414SOL    MW4 5688   3.828   3.893   2.386
 1415SOL     OW 5689   3.609   4.028   2.248
 1415SOL    HW2 5690   3.608   4.111   2.295
 1415SOL    HW3 5691   3.673   3.975   2.295
 1415SOL    MW4 5692   3.617   4.032   2.260
 1416SOL     OW 5693   3.583   4.272   2.366
 1416SOL    HW2 5694   3.669   4.310   2.347
 1416SOL    HW3 5695   3.521   4.328   2.319
 1416SOL    MW4 5696   3.586   4.285   2.358
 1417SOL     OW 5697   3.807   4.361   2.261
 1417SOL    HW2 5698   3.891   4.330   2.295
 1417SOL    HW3 5699   3.805   4.454   2.281
 1417SOL    MW4 5700   3.818   4.369   2.268
 1418SOL     OW 5701   4.263   0.028   2.353
 1418SOL    HW2 5702   4.254   0.019   2.448
 1418SOL    HW3 5703   4.345   0.077   2.341
 1418SOL    MW4 5704   4.273   0.033   2.364
 1419SOL     OW 5705   4.027   0.096   2.212
 1419SOL    HW2 5706   4.017   0.183   2.252
 1419SOL    HW3 5707   4.104   0.059   2.255
 1419SOL    MW4 5708   4.036   0.103   2.223
 1420SOL     OW 5709   3.988   0.331   2.354
 1420SOL    HW2 5710   4.057   0.380   2.309
 1420SOL    HW3 5711   3.907   0.374   2.328
 1420SOL    MW4 5712   3.986   0.343   2.345
 1421SOL     OW 5713   4.196   0.470   2.264
 1421SOL    HW2 5714   4.196   0.562   2.293
 1421SOL    HW3 5715   4.279   0.435   2.296
 1421SOL    MW4 5716   4.207   0.478   2.272
 1422SOL     OW 5717   4.216   0.732   2.357
 1422SOL    HW2 5718   4.153   0.793   2.319
 1422SOL    HW3 5719   4.301   0.772   2.340
 1422SOL    MW4 5720   4.219   0.745   2.350
 1423SOL     OW 5721   4.031   0.910   2.239
 1423SOL    HW2 5722   4.027   1.001   2.268
 1423SOL    HW3 5723   4.044   0.915   2.145
 1423SOL    MW4 5724   4.032   0.923   2.231
 1424SOL     OW 5725   4.037   1.161   2.370
 1424SOL    HW2 5726   4.033   1.166   2.466
 1424SOL    HW3 5727   3.956   1.203   2.341
 1424SOL    MW4 5728   4.025   1.167   2.379
 1425SOL     OW 5729   4.271   1.256   2.244
 1425SOL    HW2 5730   4.207   1.214   2.302
 1425SOL    HW3 5731   4.356   1.227   2.277
 1425SOL    MW4 5732   4.274   1.247   2.256
 1426SOL     OW 5733   4.257   1.514   2.386
 1426SOL    HW2 5734   4.263   1.432   2.338
 1426SOL    HW3 5735   4.341   1.558   2.370
 1426SOL    MW4 5736   4.269   1.509   2.378
 1427SOL     OW 5737   4.063   1.662   2.255
 1427SOL    HW2 5738   4.128   1.604   2.294
 1427SOL    HW3 5739   3.979   1.619   2.271
 1427SOL    MW4 5740   4.061   1.649   2.262
 1428SOL     OW 5741   4.053   1.921   2.368
 1428SOL    HW2 5742   4.047   1.908   2.463
 1428SOL    HW3 5743   4.070   1.833   2.334
 1428SOL    MW4 5744   4.054   1.908   2.376
 1429SOL     OW 5745   4.264   2.099   2.242
 1429SOL    HW2 5746   4.269   2.187   2.281
 1429SOL    HW3 5747   4.183   2.062   2.277
 1429SOL    MW4 5748   4.254   2.106   2.251
 1430SOL     OW 5749   4.258   2.353   2.367
 1430SOL    HW2 5750   4.183   2.405   2.341
 1430SOL    HW3 5751   4.333   2.394   2.325
 1430SOL    MW4 5752   4.258   2.365   2.358
 1431SOL     OW 5753   4.072   2.496   2.234
 1431SOL    HW2 5754   4.056   2.578   2.281
 1431SOL    HW3 5755   4.001   2.439   2.261
 1431SOL    MW4 5756   4.060   2.500   2.244
 1432SOL     OW 5757   4.018   2.731   2.355
 1432SOL    HW2 5758   4.018   2.738   2.451
 1432SOL    HW3 5759   3.932   2.763   2.329
 1432SOL    MW4 5760   4.007   2.736   2.365
 1433SOL     OW 5761   4.215   2.859   2.216
 1433SOL    HW2 5762   4.145   2.804   2.252
 1433SOL    HW3 5763   4.295   2.821   2.251
 1433SOL    MW4 5764   4.216   2.847   2.226
 1434SOL     OW 5765   4.246   3.132   2.312
 1434SOL    HW2 5766   4.225   3.044   2.280
 1434SOL    HW3 5767   4.334   3.149   2.278
 1434SOL    MW4 5768   4.255   3.122   2.303
 1435SOL     OW 5769   3.980   3.247   2.261
 1435SOL    HW2 5770   3.996   3.333   2.299
 1435SOL    HW3 5771   4.058   3.196   2.284
 1435SOL    MW4 5772   3.992   3.252   2.269
 1436SOL     OW 5773   4.032   3.495   2.398
 1436SOL    HW2 5774   4.116   3.520   2.360
 1436SOL    HW3 5775   3.966   3.529   2.338
 1436SOL    MW4 5776   4.034   3.503   2.385
 1437SOL     OW 5777   4.268   3.570   2.257
 1437SOL    HW2 5778   4.267   3.651   2.306
 1437SOL    HW3 5779   4.287   3.597   2.167
 1437SOL    MW4 5780   4.271   3.584   2.251
 1438SOL     OW 5781   4.279   3.851   2.359
 1438SOL    HW2 5782   4.276   3.859   2.455
 1438SOL    HW3 5783   4.356   3.901   2.333
 1438SOL    MW4 5784   4.289   3.858   2.369
 1439SOL     OW 5785   4.061   3.985   2.272
 1439SOL    HW2 5786   4.132   3.927   2.299
 1439SOL    HW3 5787   4.068   3.988   2.177
 1439SOL    MW4 5788   4.071   3.978   2.263
 1440SOL     OW 5789   4.065   4.256   2.325
 1440SOL    HW2 5790   4.149   4.292   2.298
 1440SOL    HW3 5791   4.072   4.162   2.307
 1440SOL    MW4 5792   4.077   4.248   2.319
 1441SOL     OW 5793   4.281   4.435   2.284
 1441SOL    HW2 5794   4.286   4.526   2.313
 1441SOL    HW3 5795   4.353   4.392   2.330
 1441SOL    MW4 5796   4.291   4.442   2.293
 1442SOL     OW 5797   0.220   0.015   2.649
 1442SOL    HW2 5798   0.228  -0.067   2.698
 1442SOL    HW3 5799   0.142   0.058   2.686
 1442SOL    MW4 5800   0.210   0.010   2.660
 1443SOL     OW 5801   4.489   0.136   2.732
 1443SOL    HW2 5802   4.506   0.147   2.826
 1443SOL    HW3 5803   4.491   0.225   2.697
 1443SOL    MW4 5804   4.492   0.149   2.740
 1444SOL     OW 5805   0.021   0.391   2.627
 1444SOL    HW2 5806   0.106   0.432   2.639
 1444SOL    HW3 5807   0.004   0.398   2.533
 1444SOL    MW4 5808   0.030   0.397   2.616
 1445SOL     OW 5809   0.247   0.601   2.749
 1445SOL    HW2 5810   0.241   0.573   2.840
 1445SOL    HW3 5811   0.311   0.542   2.710
 1445SOL    MW4 5812   0.255   0.590   2.756
 1446SOL     OW 5813   0.171   0.827   2.625
 1446SOL    HW2 5814   0.248   0.883   2.630
 1446SOL    HW3 5815   0.191   0.754   2.683
 1446SOL    MW4 5816   0.184   0.825   2.633
 1447SOL     OW 5817   4.446   0.948   2.725
 1447SOL    HW2 5818   4.368   0.909   2.684
 1447SOL    HW3 5819   4.519   0.897   2.689
 1447SOL    MW4 5820   4.445   0.936   2.715
 1448SOL     OW 5821   4.472   1.187   2.608
 1448SOL    HW2 5822   4.542   1.223   2.662
 1448SOL    HW3 5823   4.463   1.096   2.639
 1448SOL    MW4 5824   4.480   1.180   2.619
 1449SOL     OW 5825   0.222   1.293   2.731
 1449SOL    HW2 5826   0.305   1.252   2.707
 1449SOL    HW3 5827   0.224   1.378   2.687
 1449SOL    MW4 5828   0.233   1.299   2.722
 1450SOL     OW 5829   0.194   1.541   2.618
 1450SOL    HW2 5830   0.271   1.580   2.659
 1450SOL    HW3 5831   0.120   1.576   2.668
 1450SOL    MW4 5832   0.195   1.551   2.630
 1451SOL     OW 5833   4.472   1.665   2.753
 1451SOL    HW2 5834   4.463   1.679   2.847
 1451SOL    HW3 5835   4.468   1.752   2.715
 1451SOL    MW4 5836   4.471   1.678   2.761
 1452SOL     OW 5837   4.459   1.906   2.637
 1452SOL    HW2 5838   4.530   1.963   2.666
 1452SOL    HW3 5839   4.469   1.902   2.542
 1452SOL    MW4 5840   4.470   1.913   2.629
 1453SOL     OW 5841   0.189   2.039   2.717
 1453SOL    HW2 5842   0.278   2.016   2.689
 1453SOL    HW3 5843   0.179   2.130   2.691
 1453SOL    MW4 5844   0.200   2.048   2.710
 1454SOL     OW 5845   0.208   2.296   2.635
 1454SOL    HW2 5846   0.288   2.335   2.673
 1454SOL    HW3 5847   0.143   2.366   2.641
 1454SOL    MW4 5848   0.210   2.311   2.641
 1455SOL     OW 5849   4.479   2.469   2.669
 1455SOL    HW2 5850   4.469   2.482   2.763
 1455SOL    HW3 5851   4.396   2.432   2.640
 1455SOL    MW4 5852   4.467   2.466   2.678
 1456SOL     OW 5853   4.454   2.734   2.598
 1456SOL    HW2 5854   4.371   2.763   2.637
 1456SOL    HW3 5855   4.464   2.644   2.627
 1456SOL    MW4 5856   4.444   2.726   2.607
 1457SOL     OW 5857   0.211   2.829   2.708
 1457SOL    HW2 5858   0.230   2.920   2.687
 1457SOL    HW3 5859   0.138   2.805   2.651
 1457SOL    MW4 5860   0.204   2.838   2.698
 1458SOL     OW 5861   0.244   3.087   2.641
 1458SOL    HW2 5862   0.321   3.134   2.673
 1458SOL    HW3 5863   0.256   3.082   2.546
 1458SOL    MW4 5864   0.256   3.093   2.633
 1459SOL     OW 5865   0.019   3.207   2.750
 1459SOL    HW2 5866  -0.055   3.203   2.688
 1459SOL    HW3 5867   0.093   3.170   2.702
 1459SOL    MW4 5868   0.019   3.202   2.736
 1460SOL     OW 5869   0.009   3.466   2.652
 1460SOL    HW2 5870   0.098   3.501   2.657
 1460SOL    HW3 5871   0.017   3.377   2.687
 1460SOL    MW4 5872   0.022   3.458   2.657
 1461SOL     OW 5873   0.233   3.625   2.745
 1461SOL    HW2 5874   0.221   3.635   2.840
 1461SOL    HW3 5875   0.324   3.596   2.735
 1461SOL    MW4 5876   0.243   3.623   2.756
 1462SOL     OW 5877   0.219   3.881   2.636
 1462SOL    HW2 5878   0.232   3.791   2.667
 1462SOL    HW3 5879   0.206   3.873   2.542
 1462SOL    MW4 5880   0.219   3.868   2.628
 1463SOL     OW 5881   0.018   4.019   2.734
 1463SOL    HW2 5882   0.033   4.105   2.696
 1463SOL    HW3 5883   0.099   3.971   2.717
 1463SOL    MW4 5884   0.031   4.024   2.727
 1464SOL     OW 5885   0.001   4.273   2.633
 1464SOL    HW2 5886  -0.082   4.306   2.667
 1464SOL    HW3 5887   0.067   4.334   2.669
 1464SOL    MW4 5888  -0.001   4.286   2.643
 1465SOL     OW 5889   0.217   4.426   2.756
 1465SOL    HW2 5890   0.221   4.420   2.851
 1465SOL    HW3 5891   0.286   4.368   2.724
 1465SOL    MW4 5892   0.227   4.418   2.764
 1466SOL     OW 5893   0.660   4.640   2.678
 1466SOL    HW2 5894   0.738   4.685   2.711
 1466SOL    HW3 5895   0.589   4.703   2.688
 1466SOL    MW4 5896   0.661   4.654   2.683
 1467SOL     OW 5897   0.444   0.172   2.723
 1467SOL    HW2 5898   0.461   0.154   2.815
 1467SOL    HW3 5899   0.375   0.111   2.698
 1467SOL    MW4 5900   0.437   0.162   2.732
 1468SOL     OW 5901   0.428   0.432   2.597
 1468SOL    HW2 5902   0.496   0.479   2.645
 1468SOL    HW3 5903   0.427   0.344   2.636
 1468SOL    MW4 5904   0.437   0.427   2.609
 1469SOL     OW 5905   0.666   0.555   2.704
 1469SOL    HW2 5906   0.653   0.547   2.798
 1469SOL    HW3 5907   0.736   0.493   2.684
 1469SOL    MW4 5908   0.673   0.546   2.714
 1470SOL     OW 5909   0.640   0.824   2.656
 1470SOL    HW2 5910   0.725   0.864   2.676
 1470SOL    HW3 5911   0.655   0.730   2.669
 1470SOL    MW4 5912   0.653   0.817   2.660
 1471SOL     OW 5913   0.408   0.970   2.731
 1471SOL    HW2 5914   0.440   1.054   2.698
 1471SOL    HW3 5915   0.473   0.906   2.701
 1471SOL    MW4 5916   0.421   0.972   2.723
 1472SOL     OW 5917   0.489   1.218   2.594
 1472SOL    HW2 5918   0.507   1.310   2.575
 1472SOL    HW3 5919   0.474   1.178   2.508
 1472SOL    MW4 5920   0.489   1.225   2.580
 1473SOL     OW 5921   0.758   1.365   2.747
 1473SOL    HW2 5922   0.740   1.347   2.839
 1473SOL    HW3 5923   0.807   1.289   2.716
 1473SOL    MW4 5924   0.762   1.353   2.755
 1474SOL     OW 5925   0.563   1.470   2.558
 1474SOL    HW2 5926   0.513   1.523   2.620
 1474SOL    HW3 5927   0.640   1.443   2.607
 1474SOL    MW4 5928   0.567   1.473   2.573
 1475SOL     OW 5929   0.420   1.662   2.732
 1475SOL    HW2 5930   0.416   1.660   2.827
 1475SOL    HW3 5931   0.428   1.755   2.711
 1475SOL    MW4 5932   0.421   1.674   2.741
 1476SOL     OW 5933   0.435   1.943   2.609
 1476SOL    HW2 5934   0.524   1.966   2.638
 1476SOL    HW3 5935   0.433   1.971   2.517
 1476SOL    MW4 5936   0.447   1.950   2.600
 1477SOL     OW 5937   0.690   2.044   2.700
 1477SOL    HW2 5938   0.689   2.065   2.793
 1477SOL    HW3 5939   0.778   2.010   2.684
 1477SOL    MW4 5940   0.701   2.042   2.710
 1478SOL     OW 5941   0.652   2.293   2.612
 1478SOL    HW2 5942   0.728   2.345   2.639
 1478SOL    HW3 5943   0.669   2.206   2.648
 1478SOL    MW4 5944   0.664   2.288   2.620
 1479SOL     OW 5945   0.436   2.430   2.724
 1479SOL    HW2 5946   0.435   2.524   2.705
 1479SOL    HW3 5947   0.519   2.399   2.688
 1479SOL    MW4 5948   0.447   2.438   2.717
 1480SOL     OW 5949   0.438   2.699   2.625
 1480SOL    HW2 5950   0.509   2.734   2.679
 1480SOL    HW3 5951   0.360   2.745   2.653
 1480SOL    MW4 5952   0.437   2.710   2.636
 1481SOL     OW 5953   0.657   2.800   2.768
 1481SOL    HW2 5954   0.676   2.808   2.861
 1481SOL    HW3 5955   0.672   2.888   2.733
 1481SOL    MW4 5956   0.662   2.813   2.775
 1482SOL     OW 5957   0.673   3.078   2.672
 1482SOL    HW2 5958   0.752   3.123   2.701
 1482SOL    HW3 5959   0.672   3.089   2.577
 1482SOL    MW4 5960   0.683   3.085   2.664
 1483SOL     OW 5961   0.453   3.225   2.762
 1483SOL    HW2 5962   0.437   3.232   2.856
 1483SOL    HW3 5963   0.538   3.180   2.755
 1483SOL    MW4 5964   0.462   3.220   2.773
 1484SOL     OW 5965   0.451   3.490   2.667
 1484SOL    HW2 5966   0.437   3.402   2.700
 1484SOL    HW3 5967   0.437   3.483   2.573
 1484SOL    MW4 5968   0.447   3.478   2.659
 1485SOL     OW 5969   0.690   3.613   2.742
 1485SOL    HW2 5970   0.704   3.613   2.836
 1485SOL    HW3 5971   0.604   3.573   2.730
 1485SOL    MW4 5972   0.681   3.608   2.753
 1486SOL     OW 5973   0.674   3.864   2.630
 1486SOL    HW2 5974   0.597   3.888   2.681
 1486SOL    HW3 5975   0.700   3.778   2.665
 1486SOL    MW4 5976   0.667   3.856   2.642
 1487SOL     OW 5977   0.454   4.015   2.737
 1487SOL    HW2 5978   0.453   4.110   2.724
 1487SOL    HW3 5979   0.380   3.982   2.686
 1487SOL    MW4 5980   0.444   4.023   2.729
 1488SOL     OW 5981   0.409   4.266   2.654
 1488SOL    HW2 5982   0.485   4.308   2.694
 1488SOL    HW3 5983   0.428   4.264   2.560
 1488SOL    MW4 5984   0.421   4.271   2.647
 1489SOL     OW 5985   0.650   4.379   2.748
 1489SOL    HW2 5986   0.729   4.340   2.710
 1489SOL    HW3 5987   0.654   4.471   2.722
 1489SOL    MW4 5988   0.661   4.386   2.740
 1490SOL     OW 5989   1.082   4.622   2.666
 1490SOL    HW2 5990   1.155   4.679   2.692
 1490SOL    HW3 5991   1.111   4.534   2.689
 1490SOL    MW4 5992   1.095   4.618   2.672
 1491SOL     OW 5993   0.882   0.115   2.781
 1491SOL    HW2 5994   0.882   0.114   2.876
 1491SOL    HW3 5995   0.952   0.054   2.756
 1491SOL    MW4 5996   0.891   0.107   2.790
 1492SOL     OW 5997   0.857   0.378   2.636
 1492SOL    HW2 5998   0.866   0.286   2.662
 1492SOL    HW3 5999   0.865   0.376   2.541
 1492SOL    MW4 6000   0.860   0.365   2.627
 1493SOL     OW 6001   1.099   0.478   2.735
 1493SOL    HW2 6002   1.094   0.568   2.705
 1493SOL    HW3 6003   1.015   0.439   2.709
 1493SOL    MW4 6004   1.087   0.485   2.728
 1494SOL     OW 6005   1.102   0.720   2.605
 1494SOL    HW2 6006   1.181   0.772   2.625
 1494SOL    HW3 6007   1.107   0.706   2.511
 1494SOL    MW4 6008   1.113   0.725   2.595
 1495SOL     OW 6009   0.912   0.926   2.698
 1495SOL    HW2 6010   0.913   0.908   2.792
 1495SOL    HW3 6011   0.969   0.859   2.661
 1495SOL    MW4 6012   0.919   0.915   2.706
 1496SOL     OW 6013   0.919   1.182   2.595
 1496SOL    HW2 6014   0.899   1.093   2.621
 1496SOL    HW3 6015   0.906   1.183   2.500
 1496SOL    MW4 6016   0.915   1.171   2.586
 1497SOL     OW 6017   1.150   1.279   2.741
 1497SOL    HW2 6018   1.136   1.373   2.728
 1497SOL    HW3 6019   1.075   1.238   2.698
 1497SOL    MW4 6020   1.138   1.286   2.733
 1498SOL     OW 6021   1.093   1.549   2.668
 1498SOL    HW2 6022   1.016   1.604   2.683
 1498SOL    HW3 6023   1.101   1.545   2.573
 1498SOL    MW4 6024   1.084   1.556   2.658
 1499SOL     OW 6025   0.852   1.678   2.753
 1499SOL    HW2 6026   0.870   1.675   2.847
 1499SOL    HW3 6027   0.781   1.615   2.740
 1499SOL    MW4 6028   0.845   1.669   2.763
 1500SOL     OW 6029   0.941   1.903   2.616
 1500SOL    HW2 6030   1.024   1.932   2.654
 1500SOL    HW3 6031   0.914   1.829   2.670
 1500SOL    MW4 6032   0.948   1.897   2.628
 1501SOL     OW 6033   1.178   2.043   2.713
 1501SOL    HW2 6034   1.270   2.019   2.719
 1501SOL    HW3 6035   1.178   2.130   2.674
 1501SOL    MW4 6036   1.190   2.051   2.709
 1502SOL     OW 6037   1.110   2.303   2.625
 1502SOL    HW2 6038   1.181   2.366   2.639
 1502SOL    HW3 6039   1.100   2.300   2.530
 1502SOL    MW4 6040   1.118   2.311   2.614
 1503SOL     OW 6041   0.866   2.430   2.716
 1503SOL    HW2 6042   0.873   2.517   2.676
 1503SOL    HW3 6043   0.950   2.389   2.698
 1503SOL    MW4 6044   0.878   2.436   2.708
 1504SOL     OW 6045   0.870   2.697   2.629
 1504SOL    HW2 6046   0.938   2.757   2.659
 1504SOL    HW3 6047   0.789   2.732   2.667
 1504SOL    MW4 6048   0.868   2.710   2.638
 1505SOL     OW 6049   1.083   2.832   2.744
 1505SOL    HW2 6050   1.106   2.825   2.837
 1505SOL    HW3 6051   1.159   2.795   2.698
 1505SOL    MW4 6052   1.096   2.826   2.750
 1506SOL     OW 6053   1.148   3.096   2.658
 1506SOL    HW2 6054   1.122   3.007   2.681
 1506SOL    HW3 6055   1.136   3.101   2.563
 1506SOL    MW4 6056   1.143   3.085   2.648
 1507SOL     OW 6057   0.919   3.208   2.751
 1507SOL    HW2 6058   0.903   3.286   2.698
 1507SOL    HW3 6059   1.006   3.179   2.723
 1507SOL    MW4 6060   0.928   3.215   2.740
 1508SOL     OW 6061   0.887   3.462   2.631
 1508SOL    HW2 6062   0.961   3.508   2.671
 1508SOL    HW3 6063   0.810   3.512   2.660
 1508SOL    MW4 6064   0.887   3.475   2.640
 1509SOL     OW 6065   1.102   3.599   2.775
 1509SOL    HW2 6066   1.101   3.626   2.867
 1509SOL    HW3 6067   1.100   3.681   2.726
 1509SOL    MW4 6068   1.102   3.613   2.781
 1510SOL     OW 6069   1.098   3.851   2.636
 1510SOL    HW2 6070   1.178   3.889   2.673
 1510SOL    HW3 6071   1.110   3.859   2.541
 1510SOL    MW4 6072   1.110   3.857   2.628
 1511SOL     OW 6073   0.893   4.008   2.745
 1511SOL    HW2 6074   0.958   3.963   2.691
 1511SOL    HW3 6075   0.809   3.970   2.718
 1511SOL    MW4 6076   0.890   3.997   2.735
 1512SOL     OW 6077   0.888   4.266   2.644
 1512SOL    HW2 6078   0.892   4.174   2.669
 1512SOL    HW3 6079   0.884   4.265   2.548
 1512SOL    MW4 6080   0.888   4.254   2.635
 1513SOL     OW 6081   1.144   4.351   2.736
 1513SOL    HW2 6082   1.137   4.378   2.828
 1513SOL    HW3 6083   1.055   4.327   2.711
 1513SOL    MW4 6084   1.131   4.351   2.745
 1514SOL     OW 6085   1.547   4.640   2.638
 1514SOL    HW2 6086   1.559   4.547   2.660
 1514SOL    HW3 6087   1.553   4.643   2.543
 1514SOL    MW4 6088   1.549   4.628   2.629
 1515SOL     OW 6089   1.304   0.108   2.720
 1515SOL    HW2 6090   1.297   0.198   2.687
 1515SOL    HW3 6091   1.387   0.076   2.684
 1515SOL    MW4 6092   1.314   0.116   2.711
 1516SOL     OW 6093   1.308   0.364   2.606
 1516SOL    HW2 6094   1.389   0.408   2.630
 1516SOL    HW3 6095   1.239   0.416   2.648
 1516SOL    MW4 6096   1.310   0.377   2.615
 1517SOL     OW 6097   1.547   0.485   2.715
 1517SOL    HW2 6098   1.622   0.436   2.683
 1517SOL    HW3 6099   1.566   0.576   2.693
 1517SOL    MW4 6100   1.559   0.490   2.708
 1518SOL     OW 6101   1.575   0.748   2.633
 1518SOL    HW2 6102   1.490   0.788   2.652
 1518SOL    HW3 6103   1.579   0.746   2.537
 1518SOL    MW4 6104   1.564   0.753   2.623
 1519SOL     OW 6105   1.330   0.858   2.682
 1519SOL    HW2 6106   1.318   0.844   2.776
 1519SOL    HW3 6107   1.345   0.953   2.675
 1519SOL    MW4 6108   1.330   0.869   2.694
 1520SOL     OW 6109   1.378   1.146   2.646
 1520SOL    HW2 6110   1.460   1.178   2.682
 1520SOL    HW3 6111   1.310   1.197   2.691
 1520SOL    MW4 6112   1.380   1.157   2.656
 1521SOL     OW 6113   1.585   1.275   2.762
 1521SOL    HW2 6114   1.586   1.271   2.858
 1521SOL    HW3 6115   1.669   1.237   2.736
 1521SOL    MW4 6116   1.596   1.269   2.772
 1522SOL     OW 6117   1.571   1.534   2.647
 1522SOL    HW2 6118   1.564   1.453   2.697
 1522SOL    HW3 6119   1.573   1.507   2.556
 1522SOL    MW4 6120   1.570   1.520   2.642
 1523SOL     OW 6121   1.333   1.676   2.714
 1523SOL    HW2 6122   1.404   1.626   2.675
 1523SOL    HW3 6123   1.253   1.628   2.691
 1523SOL    MW4 6124   1.331   1.663   2.706
 1524SOL     OW 6125   1.431   1.943   2.631
 1524SOL    HW2 6126   1.410   1.855   2.662
 1524SOL    HW3 6127   1.406   1.943   2.538
 1524SOL    MW4 6128   1.425   1.932   2.623
 1525SOL     OW 6129   1.629   2.133   2.709
 1525SOL    HW2 6130   1.709   2.093   2.675
 1525SOL    HW3 6131   1.561   2.069   2.690
 1525SOL    MW4 6132   1.631   2.119   2.702
 1526SOL     OW 6133   1.558   2.383   2.613
 1526SOL    HW2 6134   1.627   2.439   2.650
 1526SOL    HW3 6135   1.585   2.294   2.636
 1526SOL    MW4 6136   1.571   2.379   2.621
 1527SOL     OW 6137   1.316   2.455   2.731
 1527SOL    HW2 6138   1.319   2.548   2.710
 1527SOL    HW3 6139   1.394   2.419   2.688
 1527SOL    MW4 6140   1.327   2.463   2.722
 1528SOL     OW 6141   1.289   2.726   2.616
 1528SOL    HW2 6142   1.373   2.753   2.650
 1528SOL    HW3 6143   1.303   2.718   2.521
 1528SOL    MW4 6144   1.302   2.728   2.608
 1529SOL     OW 6145   1.526   2.829   2.714
 1529SOL    HW2 6146   1.542   2.822   2.808
 1529SOL    HW3 6147   1.604   2.791   2.674
 1529SOL    MW4 6148   1.538   2.823   2.721
 1530SOL     OW 6149   1.553   3.099   2.661
 1530SOL    HW2 6150   1.637   3.119   2.702
 1530SOL    HW3 6151   1.539   3.006   2.681
 1530SOL    MW4 6152   1.562   3.089   2.669
 1531SOL     OW 6153   1.349   3.232   2.781
 1531SOL    HW2 6154   1.431   3.191   2.752
 1531SOL    HW3 6155   1.280   3.184   2.735
 1531SOL    MW4 6156   1.351   3.220   2.771
 1532SOL     OW 6157   1.293   3.474   2.644
 1532SOL    HW2 6158   1.311   3.391   2.688
 1532SOL    HW3 6159   1.217   3.509   2.690
 1532SOL    MW4 6160   1.285   3.468   2.656
 1533SOL     OW 6161   1.528   3.586   2.741
 1533SOL    HW2 6162   1.586   3.532   2.687
 1533SOL    HW3 6163   1.440   3.561   2.714
 1533SOL    MW4 6164   1.524   3.575   2.730
 1534SOL     OW 6165   1.571   3.862   2.623
 1534SOL    HW2 6166   1.503   3.923   2.651
 1534SOL    HW3 6167   1.551   3.780   2.668
 1534SOL    MW4 6168   1.560   3.859   2.633
 1535SOL     OW 6169   1.329   3.962   2.734
 1535SOL    HW2 6170   1.341   3.976   2.828
 1535SOL    HW3 6171   1.319   4.050   2.698
 1535SOL    MW4 6172   1.329   3.975   2.742
 1536SOL     OW 6173   1.358   4.205   2.606
 1536SOL    HW2 6174   1.281   4.253   2.637
 1536SOL    HW3 6175   1.373   4.240   2.518
 1536SOL    MW4 6176   1.350   4.216   2.598
 1537SOL     OW 6177   1.583   4.365   2.687
 1537SOL    HW2 6178   1.581   4.385   2.780
 1537SOL    HW3 6179   1.507   4.309   2.672
 1537SOL    MW4 6180   1.573   4.360   2.697
 1538SOL     OW 6181   2.022   4.633   2.636
 1538SOL    HW2 6182   2.104   4.654   2.680
 1538SOL    HW3 6183   2.038   4.654   2.544
 1538SOL    MW4 6184   2.035   4.638   2.629
 1539SOL     OW 6185   1.792   0.126   2.670
 1539SOL    HW2 6186   1.870   0.071   2.663
 1539SOL    HW3 6187   1.719   0.066   2.655
 1539SOL    MW4 6188   1.792   0.111   2.667
 1540SOL     OW 6189   1.797   0.405   2.624
 1540SOL    HW2 6190   1.874   0.438   2.670
 1540SOL    HW3 6191   1.801   0.310   2.635
 1540SOL    MW4 6192   1.808   0.397   2.631
 1541SOL     OW 6193   2.021   0.505   2.756
 1541SOL    HW2 6194   2.099   0.456   2.730
 1541SOL    HW3 6195   2.031   0.590   2.713
 1541SOL    MW4 6196   2.032   0.510   2.747
 1542SOL     OW 6197   2.005   0.750   2.641
 1542SOL    HW2 6198   1.931   0.800   2.674
 1542SOL    HW3 6199   2.008   0.769   2.547
 1542SOL    MW4 6200   1.996   0.759   2.633
 1543SOL     OW 6201   1.805   0.876   2.797
 1543SOL    HW2 6202   1.777   0.964   2.772
 1543SOL    HW3 6203   1.726   0.823   2.791
 1543SOL    MW4 6204   1.791   0.881   2.793
 1544SOL     OW 6205   1.795   1.128   2.686
 1544SOL    HW2 6206   1.883   1.164   2.700
 1544SOL    HW3 6207   1.784   1.127   2.591
 1544SOL    MW4 6208   1.805   1.133   2.675
 1545SOL     OW 6209   2.025   1.282   2.737
 1545SOL    HW2 6210   2.023   1.291   2.832
 1545SOL    HW3 6211   2.109   1.238   2.719
 1545SOL    MW4 6212   2.036   1.277   2.747
 1546SOL     OW 6213   2.045   1.562   2.626
 1546SOL    HW2 6214   1.978   1.623   2.656
 1546SOL    HW3 6215   2.026   1.481   2.674
 1546SOL    MW4 6216   2.034   1.559   2.636
 1547SOL     OW 6217   1.814   1.679   2.716
 1547SOL    HW2 6218   1.812   1.673   2.812
 1547SOL    HW3 6219   1.741   1.624   2.687
 1547SOL    MW4 6220   1.804   1.671   2.725
 1548SOL     OW 6221   1.814   1.935   2.606
 1548SOL    HW2 6222   1.895   1.974   2.637
 1548SOL    HW3 6223   1.809   1.850   2.650
 1548SOL    MW4 6224   1.824   1.929   2.616
 1549SOL     OW 6225   2.025   2.064   2.738
 1549SOL    HW2 6226   2.028   2.057   2.834
 1549SOL    HW3 6227   1.996   2.153   2.721
 1549SOL    MW4 6228   2.022   2.074   2.748
 1550SOL     OW 6229   1.946   2.320   2.674
 1550SOL    HW2 6230   2.024   2.367   2.705
 1550SOL    HW3 6231   1.957   2.315   2.579
 1550SOL    MW4 6232   1.958   2.325   2.666
 1551SOL     OW 6233   1.768   2.512   2.729
 1551SOL    HW2 6234   1.757   2.490   2.822
 1551SOL    HW3 6235   1.828   2.445   2.696
 1551SOL    MW4 6236   1.775   2.500   2.737
 1552SOL     OW 6237   1.795   2.768   2.615
 1552SOL    HW2 6238   1.780   2.678   2.644
 1552SOL    HW3 6239   1.811   2.761   2.521
 1552SOL    MW4 6240   1.795   2.755   2.606
 1553SOL     OW 6241   2.007   2.884   2.743
 1553SOL    HW2 6242   2.076   2.825   2.713
 1553SOL    HW3 6243   1.927   2.851   2.702
 1553SOL    MW4 6244   2.005   2.871   2.734
 1554SOL     OW 6245   2.007   3.136   2.652
 1554SOL    HW2 6246   2.005   3.044   2.681
 1554SOL    HW3 6247   2.022   3.130   2.557
 1554SOL    MW4 6248   2.009   3.123   2.643
 1555SOL     OW 6249   1.764   3.232   2.766
 1555SOL    HW2 6250   1.754   3.324   2.739
 1555SOL    HW3 6251   1.840   3.201   2.718
 1555SOL    MW4 6252   1.772   3.240   2.756
 1556SOL     OW 6253   1.745   3.479   2.603
 1556SOL    HW2 6254   1.822   3.518   2.644
 1556SOL    HW3 6255   1.753   3.500   2.510
 1556SOL    MW4 6256   1.756   3.487   2.596
 1557SOL     OW 6257   1.980   3.575   2.699
 1557SOL    HW2 6258   1.989   3.583   2.794
 1557SOL    HW3 6259   2.059   3.529   2.671
 1557SOL    MW4 6260   1.992   3.570   2.708
 1558SOL     OW 6261   2.019   3.859   2.634
 1558SOL    HW2 6262   1.933   3.894   2.660
 1558SOL    HW3 6263   2.012   3.765   2.648
 1558SOL    MW4 6264   2.007   3.851   2.639
 1559SOL     OW 6265   1.796   3.985   2.723
 1559SOL    HW2 6266   1.814   4.066   2.676
 1559SOL    HW3 6267   1.722   3.946   2.676
 1559SOL    MW4 6268   1.789   3.990   2.711
 1560SOL     OW 6269   1.800   4.225   2.579
 1560SOL    HW2 6270   1.721   4.261   2.618
 1560SOL    HW3 6271   1.794   4.248   2.486
 1560SOL    MW4 6272   1.789   4.233   2.572
 1561SOL     OW 6273   2.013   4.364   2.694
 1561SOL    HW2 6274   1.936   4.329   2.651
 1561SOL    HW3 6275   2.017   4.455   2.666
 1561SOL    MW4 6276   2.003   4.372   2.685
 1562SOL     OW 6277   2.492   4.640   2.591
 1562SOL    HW2 6278   2.569   4.688   2.620
 1562SOL    HW3 6279   2.481   4.665   2.499
 1562SOL    MW4 6280   2.501   4.649   2.582
 1563SOL     OW 6281   2.270   0.066   2.699
 1563SOL    HW2 6282   2.284   0.066   2.794
 1563SOL    HW3 6283   2.349   0.027   2.663
 1563SOL    MW4 6284   2.282   0.061   2.707
 1564SOL     OW 6285   2.245   0.347   2.637
 1564SOL    HW2 6286   2.246   0.256   2.666
 1564SOL    HW3 6287   2.227   0.342   2.543
 1564SOL    MW4 6288   2.243   0.334   2.628
 1565SOL     OW 6289   2.461   0.476   2.748
 1565SOL    HW2 6290   2.453   0.567   2.719
 1565SOL    HW3 6291   2.386   0.431   2.708
 1565SOL    MW4 6292   2.450   0.482   2.739
 1566SOL     OW 6293   2.465   0.747   2.627
 1566SOL    HW2 6294   2.386   0.791   2.656
 1566SOL    HW3 6295   2.459   0.746   2.531
 1566SOL    MW4 6296   2.454   0.752   2.618
 1567SOL     OW 6297   2.244   0.883   2.708
 1567SOL    HW2 6298   2.249   0.867   2.802
 1567SOL    HW3 6299   2.157   0.851   2.683
 1567SOL    MW4 6300   2.233   0.877   2.717
 1568SOL     OW 6301   2.228   1.144   2.615
 1568SOL    HW2 6302   2.229   1.053   2.645
 1568SOL    HW3 6303   2.207   1.138   2.522
 1568SOL    MW4 6304   2.225   1.131   2.607
 1569SOL     OW 6305   2.468   1.264   2.691
 1569SOL    HW2 6306   2.539   1.212   2.656
 1569SOL    HW3 6307   2.388   1.221   2.660
 1569SOL    MW4 6308   2.467   1.252   2.683
 1570SOL     OW 6309   2.458   1.529   2.620
 1570SOL    HW2 6310   2.388   1.561   2.678
 1570SOL    HW3 6311   2.460   1.434   2.635
 1570SOL    MW4 6312   2.449   1.521   2.629
 1571SOL     OW 6313   2.261   1.674   2.760
 1571SOL    HW2 6314   2.265   1.750   2.703
 1571SOL    HW3 6315   2.188   1.621   2.726
 1571SOL    MW4 6316   2.252   1.677   2.748
 1572SOL     OW 6317   2.245   1.925   2.624
 1572SOL    HW2 6318   2.178   1.973   2.673
 1572SOL    HW3 6319   2.215   1.927   2.534
 1572SOL    MW4 6320   2.232   1.931   2.619
 1573SOL     OW 6321   2.493   2.060   2.677
 1573SOL    HW2 6322   2.491   2.152   2.651
 1573SOL    HW3 6323   2.409   2.025   2.649
 1573SOL    MW4 6324   2.482   2.067   2.670
 1574SOL     OW 6325   2.491   2.321   2.626
 1574SOL    HW2 6326   2.565   2.375   2.654
 1574SOL    HW3 6327   2.484   2.337   2.532
 1574SOL    MW4 6328   2.500   2.330   2.617
 1575SOL     OW 6329   2.241   2.445   2.701
 1575SOL    HW2 6330   2.242   2.441   2.797
 1575SOL    HW3 6331   2.320   2.398   2.674
 1575SOL    MW4 6332   2.252   2.439   2.710
 1576SOL     OW 6333   2.234   2.728   2.654
 1576SOL    HW2 6334   2.306   2.769   2.702
 1576SOL    HW3 6335   2.258   2.635   2.652
 1576SOL    MW4 6336   2.247   2.721   2.660
 1577SOL     OW 6337   2.458   2.868   2.747
 1577SOL    HW2 6338   2.540   2.834   2.710
 1577SOL    HW3 6339   2.443   2.949   2.699
 1577SOL    MW4 6340   2.467   2.874   2.736
 1578SOL     OW 6341   2.484   3.106   2.573
 1578SOL    HW2 6342   2.409   3.139   2.621
 1578SOL    HW3 6343   2.477   3.147   2.486
 1578SOL    MW4 6344   2.474   3.116   2.568
 1579SOL     OW 6345   2.255   3.199   2.703
 1579SOL    HW2 6346   2.250   3.225   2.795
 1579SOL    HW3 6347   2.165   3.177   2.679
 1579SOL    MW4 6348   2.243   3.199   2.712
 1580SOL     OW 6349   2.216   3.456   2.609
 1580SOL    HW2 6350   2.288   3.515   2.632
 1580SOL    HW3 6351   2.246   3.369   2.637
 1580SOL    MW4 6352   2.229   3.452   2.616
 1581SOL     OW 6353   2.431   3.610   2.691
 1581SOL    HW2 6354   2.442   3.618   2.786
 1581SOL    HW3 6355   2.438   3.700   2.658
 1581SOL    MW4 6356   2.433   3.623   2.699
 1582SOL     OW 6357   2.483   3.873   2.639
 1582SOL    HW2 6358   2.555   3.929   2.669
 1582SOL    HW3 6359   2.406   3.906   2.685
 1582SOL    MW4 6360   2.482   3.884   2.649
 1583SOL     OW 6361   2.252   3.986   2.734
 1583SOL    HW2 6362   2.234   3.984   2.828
 1583SOL    HW3 6363   2.174   3.948   2.693
 1583SOL    MW4 6364   2.240   3.981   2.741
 1584SOL     OW 6365   2.245   4.229   2.620
 1584SOL    HW2 6366   2.243   4.146   2.667
 1584SOL    HW3 6367   2.162   4.271   2.641
 1584SOL    MW4 6368   2.234   4.224   2.629
 1585SOL     OW 6369   2.443   4.382   2.738
 1585SOL    HW2 6370   2.364   4.336   2.710
 1585SOL    HW3 6371   2.453   4.453   2.674
 1585SOL    MW4 6372   2.434   4.385   2.726
 1586SOL     OW 6373   2.921   4.647   2.655
 1586SOL    HW2 6374   2.999   4.697   2.678
 1586SOL    HW3 6375   2.919   4.647   2.560
 1586SOL    MW4 6376   2.931   4.653   2.646
 1587SOL     OW 6377   2.691   0.115   2.716
 1587SOL    HW2 6378   2.678   0.099   2.810
 1587SOL    HW3 6379   2.766   0.061   2.693
 1587SOL    MW4 6380   2.699   0.106   2.726
 1588SOL     OW 6381   2.704   0.380   2.633
 1588SOL    HW2 6382   2.708   0.290   2.667
 1588SOL    HW3 6383   2.619   0.413   2.662
 1588SOL    MW4 6384   2.694   0.372   2.641
 1589SOL     OW 6385   2.917   0.523   2.726
 1589SOL    HW2 6386   2.935   0.606   2.681
 1589SOL    HW3 6387   2.847   0.483   2.674
 1589SOL    MW4 6388   2.911   0.528   2.713
 1590SOL     OW 6389   2.932   0.773   2.600
 1590SOL    HW2 6390   3.010   0.809   2.643
 1590SOL    HW3 6391   2.859   0.821   2.640
 1590SOL    MW4 6392   2.932   0.784   2.611
 1591SOL     OW 6393   2.701   0.853   2.730
 1591SOL    HW2 6394   2.659   0.884   2.810
 1591SOL    HW3 6395   2.631   0.808   2.683
 1591SOL    MW4 6396   2.686   0.851   2.734
 1592SOL     OW 6397   2.687   1.108   2.607
 1592SOL    HW2 6398   2.752   1.160   2.655
 1592SOL    HW3 6399   2.700   1.019   2.639
 1592SOL    MW4 6400   2.697   1.103   2.618
 1593SOL     OW 6401   2.867   1.255   2.763
 1593SOL    HW2 6402   2.889   1.277   2.854
 1593SOL    HW3 6403   2.951   1.235   2.722
 1593SOL    MW4 6404   2.881   1.256   2.770
 1594SOL     OW 6405   2.898   1.510   2.612
 1594SOL    HW2 6406   2.827   1.573   2.623
 1594SOL    HW3 6407   2.879   1.441   2.677
 1594SOL    MW4 6408   2.886   1.509   2.622
 1595SOL     OW 6409   2.674   1.642   2.739
 1595SOL    HW2 6410   2.668   1.630   2.833
 1595SOL    HW3 6411   2.593   1.602   2.705
 1595SOL    MW4 6412   2.662   1.635   2.747
 1596SOL     OW 6413   2.690   1.884   2.608
 1596SOL    HW2 6414   2.687   1.804   2.660
 1596SOL    HW3 6415   2.606   1.927   2.625
 1596SOL    MW4 6416   2.679   1.879   2.617
 1597SOL     OW 6417   2.915   2.074   2.711
 1597SOL    HW2 6418   2.923   2.159   2.667
 1597SOL    HW3 6419   2.837   2.034   2.672
 1597SOL    MW4 6420   2.906   2.080   2.700
 1598SOL     OW 6421   2.944   2.347   2.595
 1598SOL    HW2 6422   3.019   2.391   2.634
 1598SOL    HW3 6423   2.868   2.383   2.640
 1598SOL    MW4 6424   2.944   2.357   2.606
 1599SOL     OW 6425   2.713   2.464   2.718
 1599SOL    HW2 6426   2.704   2.463   2.814
 1599SOL    HW3 6427   2.717   2.557   2.696
 1599SOL    MW4 6428   2.713   2.476   2.728
 1600SOL     OW 6429   2.676   2.734   2.638
 1600SOL    HW2 6430   2.761   2.772   2.662
 1600SOL    HW3 6431   2.678   2.732   2.542
 1600SOL    MW4 6432   2.688   2.739   2.628
 1601SOL     OW 6433   2.939   2.819   2.700
 1601SOL    HW2 6434   2.928   2.822   2.795
 1601SOL    HW3 6435   2.937   2.910   2.673
 1601SOL    MW4 6436   2.938   2.831   2.709
 1602SOL     OW 6437   2.927   3.110   2.651
 1602SOL    HW2 6438   2.849   3.161   2.674
 1602SOL    HW3 6439   2.929   3.112   2.555
 1602SOL    MW4 6440   2.917   3.117   2.641
 1603SOL     OW 6441   2.684   3.238   2.709
 1603SOL    HW2 6442   2.662   3.329   2.689
 1603SOL    HW3 6443   2.619   3.186   2.662
 1603SOL    MW4 6444   2.673   3.243   2.700
 1604SOL     OW 6445   2.690   3.502   2.630
 1604SOL    HW2 6446   2.601   3.532   2.652
 1604SOL    HW3 6447   2.699   3.521   2.537
 1604SOL    MW4 6448   2.679   3.509   2.621
 1605SOL     OW 6449   2.922   3.627   2.737
 1605SOL    HW2 6450   2.911   3.616   2.831
 1605SOL    HW3 6451   2.843   3.588   2.699
 1605SOL    MW4 6452   2.910   3.621   2.744
 1606SOL     OW 6453   2.953   3.899   2.646
 1606SOL    HW2 6454   3.033   3.934   2.685
 1606SOL    HW3 6455   2.946   3.810   2.681
 1606SOL    MW4 6456   2.963   3.892   2.656
 1607SOL     OW 6457   2.702   4.006   2.730
 1607SOL    HW2 6458   2.702   4.099   2.707
 1607SOL    HW3 6459   2.784   3.973   2.694
 1607SOL    MW4 6460   2.713   4.014   2.722
 1608SOL     OW 6461   2.694   4.264   2.658
 1608SOL    HW2 6462   2.759   4.326   2.690
 1608SOL    HW3 6463   2.610   4.310   2.668
 1608SOL    MW4 6464   2.691   4.278   2.663
 1609SOL     OW 6465   2.942   4.380   2.758
 1609SOL    HW2 6466   2.928   4.377   2.853
 1609SOL    HW3 6467   2.951   4.473   2.738
 1609SOL    MW4 6468   2.941   4.392   2.768
 1610SOL     OW 6469   3.366   4.647   2.621
 1610SOL    HW2 6470   3.366   4.558   2.655
 1610SOL    HW3 6471   3.300   4.693   2.674
 1610SOL    MW4 6472   3.357   4.641   2.632
 1611SOL     OW 6473   3.149   0.123   2.738
 1611SOL    HW2 6474   3.144   0.125   2.833
 1611SOL    HW3 6475   3.132   0.213   2.711
 1611SOL    MW4 6476   3.146   0.135   2.747
 1612SOL     OW 6477   3.132   0.374   2.643
 1612SOL    HW2 6478   3.057   0.428   2.668
 1612SOL    HW3 6479   3.137   0.382   2.548
 1612SOL    MW4 6480   3.123   0.383   2.634
 1613SOL     OW 6481   3.378   0.441   2.744
 1613SOL    HW2 6482   3.383   0.535   2.726
 1613SOL    HW3 6483   3.292   0.415   2.714
 1613SOL    MW4 6484   3.368   0.450   2.738
 1614SOL     OW 6485   3.368   0.697   2.650
 1614SOL    HW2 6486   3.427   0.767   2.678
 1614SOL    HW3 6487   3.364   0.705   2.555
 1614SOL    MW4 6488   3.375   0.707   2.641
 1615SOL     OW 6489   3.163   0.874   2.732
 1615SOL    HW2 6490   3.164   0.887   2.827
 1615SOL    HW3 6491   3.234   0.813   2.715
 1615SOL    MW4 6492   3.172   0.868   2.742
 1616SOL     OW 6493   3.103   1.154   2.649
 1616SOL    HW2 6494   3.102   1.067   2.688
 1616SOL    HW3 6495   3.104   1.139   2.555
 1616SOL    MW4 6496   3.103   1.141   2.642
 1617SOL     OW 6497   3.321   1.320   2.716
 1617SOL    HW2 6498   3.319   1.322   2.812
 1617SOL    HW3 6499   3.246   1.267   2.691
 1617SOL    MW4 6500   3.311   1.313   2.725
 1618SOL     OW 6501   3.375   1.585   2.634
 1618SOL    HW2 6502   3.285   1.605   2.658
 1618SOL    HW3 6503   3.384   1.491   2.646
 1618SOL    MW4 6504   3.365   1.576   2.639
 1619SOL     OW 6505   3.118   1.645   2.712
 1619SOL    HW2 6506   3.099   1.729   2.671
 1619SOL    HW3 6507   3.046   1.587   2.686
 1619SOL    MW4 6508   3.106   1.648   2.703
 1620SOL     OW 6509   3.113   1.892   2.571
 1620SOL    HW2 6510   3.198   1.900   2.615
 1620SOL    HW3 6511   3.052   1.942   2.627
 1620SOL    MW4 6512   3.116   1.900   2.584
 1621SOL     OW 6513   3.354   2.001   2.685
 1621SOL    HW2 6514   3.356   1.998   2.780
 1621SOL    HW3 6515   3.353   2.095   2.664
 1621SOL    MW4 6516   3.354   2.013   2.694
 1622SOL     OW 6517   3.364   2.263   2.596
 1622SOL    HW2 6518   3.445   2.309   2.620
 1622SOL    HW3 6519   3.350   2.284   2.504
 1622SOL    MW4 6520   3.373   2.272   2.587
 1623SOL     OW 6521   3.169   2.440   2.703
 1623SOL    HW2 6522   3.184   2.529   2.670
 1623SOL    HW3 6523   3.239   2.388   2.664
 1623SOL    MW4 6524   3.180   2.445   2.693
 1624SOL     OW 6525   3.168   2.711   2.616
 1624SOL    HW2 6526   3.238   2.757   2.663
 1624SOL    HW3 6527   3.088   2.754   2.646
 1624SOL    MW4 6528   3.167   2.723   2.626
 1625SOL     OW 6529   3.385   2.830   2.721
 1625SOL    HW2 6530   3.390   2.815   2.815
 1625SOL    HW3 6531   3.456   2.776   2.685
 1625SOL    MW4 6532   3.395   2.821   2.729
 1626SOL     OW 6533   3.399   3.103   2.661
 1626SOL    HW2 6534   3.388   3.010   2.683
 1626SOL    HW3 6535   3.376   3.108   2.568
 1626SOL    MW4 6536   3.394   3.091   2.651
 1627SOL     OW 6537   3.162   3.245   2.740
 1627SOL    HW2 6538   3.235   3.186   2.720
 1627SOL    HW3 6539   3.086   3.204   2.698
 1627SOL    MW4 6540   3.162   3.232   2.732
 1628SOL     OW 6541   3.150   3.491   2.650
 1628SOL    HW2 6542   3.148   3.397   2.671
 1628SOL    HW3 6543   3.076   3.528   2.698
 1628SOL    MW4 6544   3.140   3.483   2.659
 1629SOL     OW 6545   3.377   3.627   2.735
 1629SOL    HW2 6546   3.380   3.606   2.828
 1629SOL    HW3 6547   3.299   3.581   2.703
 1629SOL    MW4 6548   3.367   3.618   2.743
 1630SOL     OW 6549   3.382   3.874   2.639
 1630SOL    HW2 6550   3.393   3.781   2.660
 1630SOL    HW3 6551   3.377   3.877   2.544
 1630SOL    MW4 6552   3.383   3.862   2.629
 1631SOL     OW 6553   3.170   3.985   2.780
 1631SOL    HW2 6554   3.179   4.076   2.752
 1631SOL    HW3 6555   3.248   3.941   2.745
 1631SOL    MW4 6556   3.182   3.991   2.772
 1632SOL     OW 6557   3.153   4.240   2.658
 1632SOL    HW2 6558   3.078   4.293   2.684
 1632SOL    HW3 6559   3.146   4.233   2.563
 1632SOL    MW4 6560   3.143   4.246   2.649
 1633SOL     OW 6561   3.371   4.392   2.735
 1633SOL    HW2 6562   3.365   4.390   2.830
 1633SOL    HW3 6563   3.300   4.336   2.704
 1633SOL    MW4 6564   3.361   4.385   2.743
 1634SOL     OW 6565   3.848   4.652   2.601
 1634SOL    HW2 6566   3.852   4.581   2.665
 1634SOL    HW3 6567   3.784   4.713   2.636
 1634SOL    MW4 6568   3.840   4.650   2.614
 1635SOL     OW 6569   3.618   0.104   2.709
 1635SOL    HW2 6570   3.591   0.194   2.694
 1635SOL    HW3 6571   3.546   0.051   2.673
 1635SOL    MW4 6572   3.605   0.109   2.702
 1636SOL     OW 6573   3.609   0.372   2.597
 1636SOL    HW2 6574   3.676   0.432   2.631
 1636SOL    HW3 6575   3.528   0.403   2.637
 1636SOL    MW4 6576   3.607   0.384   2.607
 1637SOL     OW 6577   3.822   0.507   2.709
 1637SOL    HW2 6578   3.821   0.492   2.804
 1637SOL    HW3 6579   3.906   0.472   2.680
 1637SOL    MW4 6580   3.833   0.501   2.718
 1638SOL     OW 6581   3.816   0.778   2.654
 1638SOL    HW2 6582   3.729   0.812   2.674
 1638SOL    HW3 6583   3.813   0.686   2.680
 1638SOL    MW4 6584   3.804   0.770   2.660
 1639SOL     OW 6585   3.563   0.891   2.728
 1639SOL    HW2 6586   3.563   0.906   2.823
 1639SOL    HW3 6587   3.570   0.978   2.689
 1639SOL    MW4 6588   3.564   0.904   2.736
 1640SOL     OW 6589   3.551   1.155   2.669
 1640SOL    HW2 6590   3.628   1.197   2.709
 1640SOL    HW3 6591   3.477   1.209   2.698
 1640SOL    MW4 6592   3.551   1.168   2.678
 1641SOL     OW 6593   3.766   1.279   2.784
 1641SOL    HW2 6594   3.850   1.249   2.750
 1641SOL    HW3 6595   3.759   1.369   2.754
 1641SOL    MW4 6596   3.776   1.287   2.776
 1642SOL     OW 6597   3.813   1.533   2.658
 1642SOL    HW2 6598   3.895   1.576   2.682
 1642SOL    HW3 6599   3.745   1.597   2.680
 1642SOL    MW4 6600   3.814   1.547   2.664
 1643SOL     OW 6601   3.614   1.697   2.750
 1643SOL    HW2 6602   3.632   1.782   2.709
 1643SOL    HW3 6603   3.530   1.670   2.714
 1643SOL    MW4 6604   3.605   1.705   2.740
 1644SOL     OW 6605   3.599   1.940   2.597
 1644SOL    HW2 6606   3.514   1.971   2.629
 1644SOL    HW3 6607   3.589   1.939   2.502
 1644SOL    MW4 6608   3.586   1.944   2.589
 1645SOL     OW 6609   3.823   2.077   2.731
 1645SOL    HW2 6610   3.892   2.022   2.693
 1645SOL    HW3 6611   3.741   2.037   2.701
 1645SOL    MW4 6612   3.821   2.064   2.722
 1646SOL     OW 6613   3.858   2.352   2.634
 1646SOL    HW2 6614   3.847   2.260   2.661
 1646SOL    HW3 6615   3.867   2.348   2.539
 1646SOL    MW4 6616   3.857   2.339   2.625
 1647SOL     OW 6617   3.595   2.400   2.682
 1647SOL    HW2 6618   3.611   2.416   2.775
 1647SOL    HW3 6619   3.680   2.377   2.647
 1647SOL    MW4 6620   3.608   2.399   2.690
 1648SOL     OW 6621   3.598   2.679   2.603
 1648SOL    HW2 6622   3.581   2.586   2.613
 1648SOL    HW3 6623   3.597   2.694   2.509
 1648SOL    MW4 6624   3.595   2.669   2.592
 1649SOL     OW 6625   3.754   2.838   2.742
 1649SOL    HW2 6626   3.841   2.808   2.715
 1649SOL    HW3 6627   3.693   2.780   2.695
 1649SOL    MW4 6628   3.757   2.826   2.732
 1650SOL     OW 6629   3.809   3.100   2.679
 1650SOL    HW2 6630   3.739   3.154   2.716
 1650SOL    HW3 6631   3.793   3.012   2.715
 1650SOL    MW4 6632   3.797   3.095   2.689
 1651SOL     OW 6633   3.607   3.246   2.782
 1651SOL    HW2 6634   3.594   3.328   2.735
 1651SOL    HW3 6635   3.541   3.187   2.745
 1651SOL    MW4 6636   3.596   3.249   2.771
 1652SOL     OW 6637   3.574   3.477   2.639
 1652SOL    HW2 6638   3.650   3.529   2.667
 1652SOL    HW3 6639   3.498   3.526   2.670
 1652SOL    MW4 6640   3.574   3.490   2.647
 1653SOL     OW 6641   3.794   3.613   2.790
 1653SOL    HW2 6642   3.877   3.578   2.757
 1653SOL    HW3 6643   3.782   3.695   2.741
 1653SOL    MW4 6644   3.803   3.619   2.779
 1654SOL     OW 6645   3.808   3.858   2.656
 1654SOL    HW2 6646   3.891   3.902   2.675
 1654SOL    HW3 6647   3.741   3.923   2.677
 1654SOL    MW4 6648   3.810   3.873   2.661
 1655SOL     OW 6649   3.597   4.015   2.750
 1655SOL    HW2 6650   3.595   4.104   2.715
 1655SOL    HW3 6651   3.521   3.972   2.711
 1655SOL    MW4 6652   3.587   4.021   2.741
 1656SOL     OW 6653   3.594   4.275   2.644
 1656SOL    HW2 6654   3.511   4.309   2.678
 1656SOL    HW3 6655   3.579   4.265   2.550
 1656SOL    MW4 6656   3.581   4.278   2.636
 1657SOL     OW 6657   3.858   4.397   2.739
 1657SOL    HW2 6658   3.922   4.336   2.703
 1657SOL    HW3 6659   3.776   4.375   2.695
 1657SOL    MW4 6660   3.856   4.386   2.729
 1658SOL     OW 6661   4.268   4.657   2.630
 1658SOL    HW2 6662   4.186   4.699   2.657
 1658SOL    HW3 6663   4.336   4.711   2.670
 1658SOL    MW4 6664   4.266   4.670   2.639
 1659SOL     OW 6665   4.059   0.150   2.684
 1659SOL    HW2 6666   4.037   0.139   2.776
 1659SOL    HW3 6667   3.995   0.096   2.637
 1659SOL    MW4 6668   4.048   0.141   2.690
 1660SOL     OW 6669   4.060   0.421   2.612
 1660SOL    HW2 6670   4.074   0.334   2.650
 1660SOL    HW3 6671   4.037   0.404   2.521
 1660SOL    MW4 6672   4.059   0.407   2.605
 1661SOL     OW 6673   4.275   0.555   2.740
 1661SOL    HW2 6674   4.191   0.525   2.707
 1661SOL    HW3 6675   4.340   0.509   2.687
 1661SOL    MW4 6676   4.273   0.545   2.729
 1662SOL     OW 6677   4.233   0.803   2.628
 1662SOL    HW2 6678   4.255   0.726   2.682
 1662SOL    HW3 6679   4.222   0.767   2.539
 1662SOL    MW4 6680   4.235   0.788   2.623
 1663SOL     OW 6681   4.022   0.911   2.764
 1663SOL    HW2 6682   4.098   0.875   2.717
 1663SOL    HW3 6683   3.949   0.856   2.737
 1663SOL    MW4 6684   4.023   0.899   2.755
 1664SOL     OW 6685   3.994   1.152   2.643
 1664SOL    HW2 6686   4.078   1.189   2.671
 1664SOL    HW3 6687   3.995   1.062   2.674
 1664SOL    MW4 6688   4.005   1.145   2.651
 1665SOL     OW 6689   4.240   1.251   2.751
 1665SOL    HW2 6690   4.245   1.343   2.723
 1665SOL    HW3 6691   4.322   1.212   2.721
 1665SOL    MW4 6692   4.251   1.258   2.743
 1666SOL     OW 6693   4.247   1.528   2.678
 1666SOL    HW2 6694   4.327   1.576   2.702
 1666SOL    HW3 6695   4.253   1.519   2.582
 1666SOL    MW4 6696   4.259   1.533   2.668
 1667SOL     OW 6697   4.040   1.667   2.760
 1667SOL    HW2 6698   4.035   1.643   2.852
 1667SOL    HW3 6699   4.114   1.617   2.726
 1667SOL    MW4 6700   4.049   1.657   2.768
 1668SOL     OW 6701   4.057   1.925   2.655
 1668SOL    HW2 6702   4.121   1.978   2.703
 1668SOL    HW3 6703   4.048   1.845   2.706
 1668SOL    MW4 6704   4.064   1.922   2.668
 1669SOL     OW 6705   4.256   2.076   2.778
 1669SOL    HW2 6706   4.251   2.164   2.739
 1669SOL    HW3 6707   4.315   2.028   2.720
 1669SOL    MW4 6708   4.263   2.081   2.765
 1670SOL     OW 6709   4.224   2.327   2.647
 1670SOL    HW2 6710   4.154   2.382   2.682
 1670SOL    HW3 6711   4.199   2.309   2.557
 1670SOL    MW4 6712   4.212   2.332   2.640
 1671SOL     OW 6713   4.029   2.522   2.735
 1671SOL    HW2 6714   4.000   2.507   2.825
 1671SOL    HW3 6715   3.961   2.483   2.681
 1671SOL    MW4 6716   4.016   2.515   2.740
 1672SOL     OW 6717   4.007   2.767   2.627
 1672SOL    HW2 6718   4.089   2.815   2.641
 1672SOL    HW3 6719   4.016   2.689   2.681
 1672SOL    MW4 6720   4.019   2.763   2.636
 1673SOL     OW 6721   4.253   2.887   2.724
 1673SOL    HW2 6722   4.251   2.887   2.819
 1673SOL    HW3 6723   4.283   2.975   2.700
 1673SOL    MW4 6724   4.256   2.899   2.733
 1674SOL     OW 6725   4.291   3.172   2.584
 1674SOL    HW2 6726   4.203   3.182   2.619
 1674SOL    HW3 6727   4.278   3.152   2.491
 1674SOL    MW4 6728   4.278   3.171   2.576
 1675SOL     OW 6729   4.061   3.258   2.727
 1675SOL    HW2 6730   4.050   3.352   2.716
 1675SOL    HW3 6731   3.973   3.222   2.713
 1675SOL    MW4 6732   4.048   3.266   2.723
 1676SOL     OW 6733   4.046   3.533   2.683
 1676SOL    HW2 6734   4.124   3.578   2.714
 1676SOL    HW3 6735   4.046   3.548   2.588
 1676SOL    MW4 6736   4.056   3.541   2.674
 1677SOL     OW 6737   4.307   3.639   2.757
 1677SOL    HW2 6738   4.317   3.622   2.850
 1677SOL    HW3 6739   4.351   3.565   2.714
 1677SOL    MW4 6740   4.314   3.627   2.763
 1678SOL     OW 6741   4.281   3.879   2.649
 1678SOL    HW2 6742   4.300   3.796   2.694
 1678SOL    HW3 6743   4.344   3.941   2.685
 1678SOL    MW4 6744   4.292   3.876   2.660
 1679SOL     OW 6745   4.052   3.999   2.699
 1679SOL    HW2 6746   4.058   4.025   2.791
 1679SOL    HW3 6747   4.134   3.952   2.682
 1679SOL    MW4 6748   4.064   3.996   2.709
 1680SOL     OW 6749   4.037   4.251   2.609
 1680SOL    HW2 6750   4.042   4.156   2.621
 1680SOL    HW3 6751   4.037   4.263   2.514
 1680SOL    MW4 6752   4.038   4.240   2.598
 1681SOL     OW 6753   4.257   4.393   2.725
 1681SOL    HW2 6754   4.187   4.336   2.695
 1681SOL    HW3 6755   4.256   4.467   2.664
 1681SOL    MW4 6756   4.248   4.395   2.713
 1682SOL     OW 6757   0.240   0.034   3.081
 1682SOL    HW2 6758   0.225   0.034   3.176
 1682SOL    HW3 6759   0.158   0.068   3.044
 1682SOL    MW4 6760   0.227   0.039   3.089
 1683SOL     OW 6761   0.004   0.141   3.011
 1683SOL    HW2 6762  -0.085   0.117   3.039
 1683SOL    HW3 6763   0.018   0.229   3.047
 1683SOL    MW4 6764  -0.006   0.149   3.020
 1684SOL     OW 6765   0.033   0.391   3.131
 1684SOL    HW2 6766   0.036   0.389   3.226
 1684SOL    HW3 6767  -0.053   0.430   3.111
 1684SOL    MW4 6768   0.022   0.396   3.141
 1685SOL     OW 6769   0.249   0.531   3.018
 1685SOL    HW2 6770   0.333   0.493   3.043
 1685SOL    HW3 6771   0.185   0.462   3.038
 1685SOL    MW4 6772   0.252   0.517   3.024
 1686SOL     OW 6773   0.168   0.789   3.119
 1686SOL    HW2 6774   0.176   0.781   3.214
 1686SOL    HW3 6775   0.186   0.701   3.086
 1686SOL    MW4 6776   0.172   0.776   3.128
 1687SOL     OW 6777   4.431   0.886   2.999
 1687SOL    HW2 6778   4.517   0.862   3.034
 1687SOL    HW3 6779   4.447   0.913   2.909
 1687SOL    MW4 6780   4.444   0.886   2.992
 1688SOL     OW 6781   0.005   1.145   3.094
 1688SOL    HW2 6782  -0.079   1.187   3.077
 1688SOL    HW3 6783  -0.002   1.058   3.055
 1688SOL    MW4 6784  -0.007   1.139   3.087
 1689SOL     OW 6785   0.233   1.310   3.009
 1689SOL    HW2 6786   0.162   1.261   3.051
 1689SOL    HW3 6787   0.214   1.304   2.915
 1689SOL    MW4 6788   0.221   1.302   3.002
 1690SOL     OW 6789   0.222   1.582   3.088
 1690SOL    HW2 6790   0.140   1.623   3.059
 1690SOL    HW3 6791   0.218   1.493   3.053
 1690SOL    MW4 6792   0.211   1.575   3.080
 1691SOL     OW 6793   4.475   1.689   3.028
 1691SOL    HW2 6794   4.416   1.635   3.081
 1691SOL    HW3 6795   4.458   1.778   3.057
 1691SOL    MW4 6796   4.465   1.694   3.039
 1692SOL     OW 6797   4.472   1.942   3.142
 1692SOL    HW2 6798   4.404   1.999   3.105
 1692SOL    HW3 6799   4.555   1.977   3.108
 1692SOL    MW4 6800   4.474   1.954   3.133
 1693SOL     OW 6801   0.209   2.077   3.005
 1693SOL    HW2 6802   0.208   2.169   3.031
 1693SOL    HW3 6803   0.191   2.079   2.911
 1693SOL    MW4 6804   0.207   2.089   2.996
 1694SOL     OW 6805   0.218   2.373   3.046
 1694SOL    HW2 6806   0.204   2.361   3.140
 1694SOL    HW3 6807   0.313   2.373   3.036
 1694SOL    MW4 6808   0.229   2.371   3.057
 1695SOL     OW 6809   4.459   2.468   2.951
 1695SOL    HW2 6810   4.462   2.562   2.969
 1695SOL    HW3 6811   4.543   2.435   2.983
 1695SOL    MW4 6812   4.470   2.476   2.958
 1696SOL     OW 6813   4.477   2.727   3.088
 1696SOL    HW2 6814   4.479   2.716   3.183
 1696SOL    HW3 6815   4.562   2.768   3.067
 1696SOL    MW4 6816   4.489   2.731   3.098
 1697SOL     OW 6817   0.223   2.843   2.998
 1697SOL    HW2 6818   0.295   2.790   3.031
 1697SOL    HW3 6819   0.218   2.823   2.905
 1697SOL    MW4 6820   0.232   2.834   2.990
 1698SOL     OW 6821   0.214   3.089   3.144
 1698SOL    HW2 6822   0.143   3.125   3.090
 1698SOL    HW3 6823   0.241   3.010   3.098
 1698SOL    MW4 6824   0.208   3.083   3.131
 1699SOL     OW 6825   0.011   3.223   3.025
 1699SOL    HW2 6826  -0.060   3.168   3.058
 1699SOL    HW3 6827   0.004   3.216   2.929
 1699SOL    MW4 6828   0.001   3.215   3.016
 1700SOL     OW 6829   0.025   3.481   3.144
 1700SOL    HW2 6830  -0.053   3.533   3.124
 1700SOL    HW3 6831   0.010   3.397   3.101
 1700SOL    MW4 6832   0.013   3.477   3.136
 1701SOL     OW 6833   0.218   3.608   3.018
 1701SOL    HW2 6834   0.199   3.697   3.049
 1701SOL    HW3 6835   0.145   3.555   3.050
 1701SOL    MW4 6836   0.206   3.613   3.026
 1702SOL     OW 6837   0.193   3.858   3.135
 1702SOL    HW2 6838   0.194   3.861   3.231
 1702SOL    HW3 6839   0.273   3.902   3.109
 1702SOL    MW4 6840   0.204   3.864   3.144
 1703SOL     OW 6841   4.477   4.048   3.033
 1703SOL    HW2 6842   4.547   3.989   3.061
 1703SOL    HW3 6843   4.470   4.034   2.939
 1703SOL    MW4 6844   4.486   4.039   3.024
 1704SOL     OW 6845   0.013   4.336   3.105
 1704SOL    HW2 6846   0.034   4.325   3.198
 1704SOL    HW3 6847   0.005   4.247   3.072
 1704SOL    MW4 6848   0.015   4.323   3.113
 1705SOL     OW 6849   0.239   4.442   3.020
 1705SOL    HW2 6850   0.161   4.406   3.062
 1705SOL    HW3 6851   0.236   4.536   3.038
 1705SOL    MW4 6852   0.229   4.449   3.028
 1706SOL     OW 6853   0.669   4.630   3.115
 1706SOL    HW2 6854   0.669   4.541   3.078
 1706SOL    HW3 6855   0.602   4.676   3.066
 1706SOL    MW4 6856   0.660   4.624   3.104
 1707SOL     OW 6857   0.481   0.129   2.978
 1707SOL    HW2 6858   0.498   0.215   3.016
 1707SOL    HW3 6859   0.401   0.098   3.021
 1707SOL    MW4 6860   0.473   0.136   2.989
 1708SOL     OW 6861   0.459   0.386   3.080
 1708SOL    HW2 6862   0.465   0.388   3.176
 1708SOL    HW3 6863   0.531   0.442   3.050
 1708SOL    MW4 6864   0.470   0.394   3.089
 1709SOL     OW 6865   0.677   0.547   2.988
 1709SOL    HW2 6866   0.754   0.509   3.031
 1709SOL    HW3 6867   0.676   0.638   3.017
 1709SOL    MW4 6868   0.687   0.554   2.998
 1710SOL     OW 6869   0.649   0.813   3.092
 1710SOL    HW2 6870   0.639   0.812   3.187
 1710SOL    HW3 6871   0.567   0.851   3.060
 1710SOL    MW4 6872   0.637   0.818   3.100
 1711SOL     OW 6873   0.410   0.890   3.012
 1711SOL    HW2 6874   0.327   0.859   3.050
 1711SOL    HW3 6875   0.386   0.921   2.925
 1711SOL    MW4 6876   0.396   0.890   3.005
 1712SOL     OW 6877   0.450   1.159   3.114
 1712SOL    HW2 6878   0.449   1.072   3.074
 1712SOL    HW3 6879   0.373   1.203   3.077
 1712SOL    MW4 6880   0.439   1.154   3.104
 1713SOL     OW 6881   0.686   1.304   3.006
 1713SOL    HW2 6882   0.755   1.250   3.044
 1713SOL    HW3 6883   0.606   1.275   3.050
 1713SOL    MW4 6884   0.685   1.293   3.016
 1714SOL     OW 6885   0.663   1.573   3.103
 1714SOL    HW2 6886   0.681   1.579   3.197
 1714SOL    HW3 6887   0.680   1.481   3.081
 1714SOL    MW4 6888   0.668   1.561   3.113
 1715SOL     OW 6889   0.446   1.716   3.012
 1715SOL    HW2 6890   0.517   1.663   3.047
 1715SOL    HW3 6891   0.367   1.679   3.052
 1715SOL    MW4 6892   0.445   1.704   3.022
 1716SOL     OW 6893   0.455   1.982   3.083
 1716SOL    HW2 6894   0.455   1.890   3.056
 1716SOL    HW3 6895   0.365   2.011   3.069
 1716SOL    MW4 6896   0.444   1.974   3.078
 1717SOL     OW 6897   0.673   2.071   2.963
 1717SOL    HW2 6898   0.739   2.010   2.996
 1717SOL    HW3 6899   0.589   2.032   2.988
 1717SOL    MW4 6900   0.671   2.058   2.971
 1718SOL     OW 6901   0.737   2.305   3.081
 1718SOL    HW2 6902   0.753   2.300   3.175
 1718SOL    HW3 6903   0.713   2.216   3.056
 1718SOL    MW4 6904   0.736   2.293   3.090
 1719SOL     OW 6905   0.486   2.437   3.014
 1719SOL    HW2 6906   0.569   2.403   3.049
 1719SOL    HW3 6907   0.492   2.423   2.920
 1719SOL    MW4 6908   0.498   2.430   3.006
 1720SOL     OW 6909   0.461   2.711   3.092
 1720SOL    HW2 6910   0.545   2.755   3.094
 1720SOL    HW3 6911   0.480   2.623   3.059
 1720SOL    MW4 6912   0.474   2.705   3.088
 1721SOL     OW 6913   0.711   2.829   3.051
 1721SOL    HW2 6914   0.800   2.813   3.080
 1721SOL    HW3 6915   0.697   2.922   3.067
 1721SOL    MW4 6916   0.721   2.839   3.057
 1722SOL     OW 6917   0.675   3.104   3.089
 1722SOL    HW2 6918   0.683   3.112   3.185
 1722SOL    HW3 6919   0.592   3.148   3.068
 1722SOL    MW4 6920   0.665   3.111   3.099
 1723SOL     OW 6921   0.437   3.235   3.044
 1723SOL    HW2 6922   0.426   3.326   3.070
 1723SOL    HW3 6923   0.365   3.189   3.088
 1723SOL    MW4 6924   0.426   3.241   3.053
 1724SOL     OW 6925   0.458   3.518   3.106
 1724SOL    HW2 6926   0.466   3.507   3.201
 1724SOL    HW3 6927   0.370   3.553   3.093
 1724SOL    MW4 6928   0.448   3.521   3.117
 1725SOL     OW 6929   0.702   3.617   3.031
 1725SOL    HW2 6930   0.764   3.559   3.075
 1725SOL    HW3 6931   0.616   3.583   3.055
 1725SOL    MW4 6932   0.699   3.605   3.040
 1726SOL     OW 6933   0.643   3.879   3.116
 1726SOL    HW2 6934   0.664   3.884   3.209
 1726SOL    HW3 6935   0.665   3.789   3.091
 1726SOL    MW4 6936   0.649   3.868   3.125
 1727SOL     OW 6937   0.410   4.005   3.026
 1727SOL    HW2 6938   0.482   3.954   3.062
 1727SOL    HW3 6939   0.423   4.002   2.931
 1727SOL    MW4 6940   0.421   3.998   3.018
 1728SOL     OW 6941   0.434   4.268   3.132
 1728SOL    HW2 6942   0.424   4.181   3.093
 1728SOL    HW3 6943   0.363   4.319   3.094
 1728SOL    MW4 6944   0.423   4.263   3.122
 1729SOL     OW 6945   0.674   4.371   3.025
 1729SOL    HW2 6946   0.591   4.343   3.065
 1729SOL    HW3 6947   0.659   4.361   2.931
 1729SOL    MW4 6948   0.661   4.366   3.018
 1730SOL     OW 6949   1.141   0.005   3.113
 1730SOL    HW2 6950   1.207   0.068   3.084
 1730SOL    HW3 6951   1.059   0.038   3.075
 1730SOL    MW4 6952   1.139   0.018   3.104
 1731SOL     OW 6953   0.891   0.111   3.053
 1731SOL    HW2 6954   0.878   0.198   3.090
 1731SOL    HW3 6955   0.824   0.057   3.094
 1731SOL    MW4 6956   0.881   0.115   3.063
 1732SOL     OW 6957   0.873   0.379   3.129
 1732SOL    HW2 6958   0.887   0.389   3.223
 1732SOL    HW3 6959   0.952   0.416   3.089
 1732SOL    MW4 6960   0.886   0.386   3.136
 1733SOL     OW 6961   1.097   0.506   3.012
 1733SOL    HW2 6962   1.175   0.462   3.045
 1733SOL    HW3 6963   1.096   0.486   2.919
 1733SOL    MW4 6964   1.107   0.497   3.004
 1734SOL     OW 6965   1.108   0.761   3.104
 1734SOL    HW2 6966   1.102   0.759   3.199
 1734SOL    HW3 6967   1.100   0.669   3.077
 1734SOL    MW4 6968   1.106   0.749   3.113
 1735SOL     OW 6969   0.899   0.881   2.960
 1735SOL    HW2 6970   0.974   0.835   2.998
 1735SOL    HW3 6971   0.824   0.853   3.012
 1735SOL    MW4 6972   0.899   0.871   2.971
 1736SOL     OW 6973   0.895   1.135   3.103
 1736SOL    HW2 6974   0.972   1.186   3.077
 1736SOL    HW3 6975   0.911   1.048   3.065
 1736SOL    MW4 6976   0.907   1.130   3.094
 1737SOL     OW 6977   1.109   1.277   3.012
 1737SOL    HW2 6978   1.181   1.230   3.052
 1737SOL    HW3 6979   1.137   1.293   2.922
 1737SOL    MW4 6980   1.122   1.273   3.006
 1738SOL     OW 6981   1.122   1.530   3.093
 1738SOL    HW2 6982   1.197   1.565   3.044
 1738SOL    HW3 6983   1.114   1.439   3.062
 1738SOL    MW4 6984   1.131   1.522   3.082
 1739SOL     OW 6985   0.904   1.666   3.027
 1739SOL    HW2 6986   0.977   1.615   3.061
 1739SOL    HW3 6987   0.826   1.617   3.054
 1739SOL    MW4 6988   0.903   1.653   3.035
 1740SOL     OW 6989   0.866   1.930   3.095
 1740SOL    HW2 6990   0.887   1.938   3.188
 1740SOL    HW3 6991   0.876   1.837   3.075
 1740SOL    MW4 6992   0.870   1.919   3.105
 1741SOL     OW 6993   1.128   2.048   3.002
 1741SOL    HW2 6994   1.041   2.009   3.000
 1741SOL    HW3 6995   1.151   2.061   2.909
 1741SOL    MW4 6996   1.120   2.045   2.989
 1742SOL     OW 6997   1.150   2.310   3.148
 1742SOL    HW2 6998   1.085   2.358   3.096
 1742SOL    HW3 6999   1.153   2.224   3.108
 1742SOL    MW4 7000   1.142   2.305   3.135
 1743SOL     OW 7001   0.972   2.428   2.980
 1743SOL    HW2 7002   0.901   2.383   3.026
 1743SOL    HW3 7003   0.936   2.444   2.893
 1743SOL    MW4 7004   0.958   2.424   2.975
 1744SOL     OW 7005   0.951   2.692   3.128
 1744SOL    HW2 7006   0.949   2.671   3.221
 1744SOL    HW3 7007   0.969   2.609   3.084
 1744SOL    MW4 7008   0.953   2.678   3.134
 1745SOL     OW 7009   1.160   2.824   3.009
 1745SOL    HW2 7010   1.155   2.909   3.053
 1745SOL    HW3 7011   1.089   2.773   3.048
 1745SOL    MW4 7012   1.150   2.828   3.020
 1746SOL     OW 7013   1.151   3.080   3.126
 1746SOL    HW2 7014   1.230   3.134   3.122
 1746SOL    HW3 7015   1.083   3.134   3.086
 1746SOL    MW4 7016   1.153   3.094   3.120
 1747SOL     OW 7017   0.926   3.249   3.022
 1747SOL    HW2 7018   0.844   3.205   3.044
 1747SOL    HW3 7019   0.926   3.252   2.926
 1747SOL    MW4 7020   0.915   3.244   3.012
 1748SOL     OW 7021   0.921   3.493   3.151
 1748SOL    HW2 7022   0.995   3.545   3.120
 1748SOL    HW3 7023   0.931   3.408   3.109
 1748SOL    MW4 7024   0.932   3.488   3.142
 1749SOL     OW 7025   1.132   3.645   3.045
 1749SOL    HW2 7026   1.217   3.602   3.051
 1749SOL    HW3 7027   1.149   3.736   3.068
 1749SOL    MW4 7028   1.145   3.651   3.049
 1750SOL     OW 7029   1.121   3.906   3.107
 1750SOL    HW2 7030   1.124   3.882   3.200
 1750SOL    HW3 7031   1.028   3.924   3.090
 1750SOL    MW4 7032   1.109   3.905   3.117
 1751SOL     OW 7033   0.873   4.003   3.036
 1751SOL    HW2 7034   0.789   3.973   3.071
 1751SOL    HW3 7035   0.862   4.004   2.941
 1751SOL    MW4 7036   0.860   3.999   3.028
 1752SOL     OW 7037   0.907   4.277   3.137
 1752SOL    HW2 7038   0.903   4.185   3.111
 1752SOL    HW3 7039   0.826   4.314   3.105
 1752SOL    MW4 7040   0.896   4.270   3.129
 1753SOL     OW 7041   1.107   4.418   3.004
 1753SOL    HW2 7042   1.047   4.372   3.063
 1753SOL    HW3 7043   1.099   4.510   3.029
 1753SOL    MW4 7044   1.098   4.424   3.015
 1754SOL     OW 7045   1.614   4.655   3.089
 1754SOL    HW2 7046   1.619   4.643   3.183
 1754SOL    HW3 7047   1.528   4.694   3.074
 1754SOL    MW4 7048   1.603   4.658   3.099
 1755SOL     OW 7049   1.363   0.125   2.992
 1755SOL    HW2 7050   1.363   0.220   3.008
 1755SOL    HW3 7051   1.337   0.116   2.901
 1755SOL    MW4 7052   1.360   0.136   2.982
 1756SOL     OW 7053   1.324   0.377   3.088
 1756SOL    HW2 7054   1.325   0.378   3.183
 1756SOL    HW3 7055   1.406   0.418   3.062
 1756SOL    MW4 7056   1.335   0.383   3.097
 1757SOL     OW 7057   1.547   0.473   2.998
 1757SOL    HW2 7058   1.533   0.566   3.014
 1757SOL    HW3 7059   1.544   0.465   2.902
 1757SOL    MW4 7060   1.544   0.484   2.987
 1758SOL     OW 7061   1.519   0.739   3.088
 1758SOL    HW2 7062   1.505   0.760   3.180
 1758SOL    HW3 7063   1.446   0.779   3.042
 1758SOL    MW4 7064   1.508   0.747   3.094
 1759SOL     OW 7065   1.303   0.879   2.951
 1759SOL    HW2 7066   1.305   0.962   2.998
 1759SOL    HW3 7067   1.242   0.825   3.001
 1759SOL    MW4 7068   1.295   0.883   2.964
 1760SOL     OW 7069   1.308   1.114   3.102
 1760SOL    HW2 7070   1.305   1.114   3.197
 1760SOL    HW3 7071   1.391   1.158   3.081
 1760SOL    MW4 7072   1.319   1.120   3.112
 1761SOL     OW 7073   1.547   1.248   3.032
 1761SOL    HW2 7074   1.630   1.206   3.056
 1761SOL    HW3 7075   1.558   1.339   3.059
 1761SOL    MW4 7076   1.560   1.254   3.039
 1762SOL     OW 7077   1.562   1.531   3.099
 1762SOL    HW2 7078   1.642   1.570   3.067
 1762SOL    HW3 7079   1.492   1.577   3.052
 1762SOL    MW4 7080   1.563   1.542   3.089
 1763SOL     OW 7081   1.333   1.658   2.984
 1763SOL    HW2 7082   1.342   1.749   3.012
 1763SOL    HW3 7083   1.322   1.664   2.889
 1763SOL    MW4 7084   1.333   1.671   2.975
 1764SOL     OW 7085   1.356   1.931   3.084
 1764SOL    HW2 7086   1.377   1.940   3.177
 1764SOL    HW3 7087   1.266   1.961   3.077
 1764SOL    MW4 7088   1.347   1.936   3.096
 1765SOL     OW 7089   1.619   2.060   2.995
 1765SOL    HW2 7090   1.536   2.014   3.002
 1765SOL    HW3 7091   1.615   2.104   2.910
 1765SOL    MW4 7092   1.608   2.060   2.985
 1766SOL     OW 7093   1.590   2.299   3.164
 1766SOL    HW2 7094   1.521   2.340   3.111
 1766SOL    HW3 7095   1.608   2.216   3.119
 1766SOL    MW4 7096   1.583   2.293   3.151
 1767SOL     OW 7097   1.350   2.444   3.015
 1767SOL    HW2 7098   1.273   2.413   3.062
 1767SOL    HW3 7099   1.328   2.431   2.922
 1767SOL    MW4 7100   1.337   2.438   3.009
 1768SOL     OW 7101   1.387   2.700   3.130
 1768SOL    HW2 7102   1.375   2.612   3.096
 1768SOL    HW3 7103   1.319   2.752   3.086
 1768SOL    MW4 7104   1.376   2.696   3.120
 1769SOL     OW 7105   1.575   2.819   2.975
 1769SOL    HW2 7106   1.649   2.774   3.016
 1769SOL    HW3 7107   1.498   2.784   3.020
 1769SOL    MW4 7108   1.575   2.808   2.987
 1770SOL     OW 7109   1.588   3.050   3.116
 1770SOL    HW2 7110   1.565   3.051   3.209
 1770SOL    HW3 7111   1.592   2.957   3.093
 1770SOL    MW4 7112   1.586   3.038   3.125
 1771SOL     OW 7113   1.367   3.228   3.047
 1771SOL    HW2 7114   1.446   3.181   3.073
 1771SOL    HW3 7115   1.364   3.221   2.952
 1771SOL    MW4 7116   1.377   3.221   3.038
 1772SOL     OW 7117   1.361   3.511   3.105
 1772SOL    HW2 7118   1.351   3.514   3.200
 1772SOL    HW3 7119   1.384   3.420   3.086
 1772SOL    MW4 7120   1.363   3.500   3.115
 1773SOL     OW 7121   1.621   3.590   3.017
 1773SOL    HW2 7122   1.537   3.566   3.055
 1773SOL    HW3 7123   1.609   3.577   2.923
 1773SOL    MW4 7124   1.609   3.585   3.010
 1774SOL     OW 7125   1.560   3.850   3.088
 1774SOL    HW2 7126   1.641   3.899   3.072
 1774SOL    HW3 7127   1.583   3.759   3.066
 1774SOL    MW4 7128   1.574   3.845   3.083
 1775SOL     OW 7129   1.347   4.018   3.007
 1775SOL    HW2 7130   1.408   3.947   3.024
 1775SOL    HW3 7131   1.265   3.991   3.048
 1775SOL    MW4 7132   1.344   4.005   3.014
 1776SOL     OW 7133   1.356   4.303   3.073
 1776SOL    HW2 7134   1.344   4.216   3.037
 1776SOL    HW3 7135   1.279   4.352   3.043
 1776SOL    MW4 7136   1.344   4.298   3.065
 1777SOL     OW 7137   1.576   4.412   2.964
 1777SOL    HW2 7138   1.501   4.373   3.008
 1777SOL    HW3 7139   1.604   4.483   3.021
 1777SOL    MW4 7140   1.570   4.416   2.977
 1778SOL     OW 7141   2.015   4.655   3.028
 1778SOL    HW2 7142   2.016   4.645   3.123
 1778SOL    HW3 7143   1.938   4.710   3.011
 1778SOL    MW4 7144   2.005   4.661   3.038
 1779SOL     OW 7145   1.796   0.130   2.949
 1779SOL    HW2 7146   1.735   0.066   2.985
 1779SOL    HW3 7147   1.780   0.128   2.854
 1779SOL    MW4 7148   1.786   0.121   2.941
 1780SOL     OW 7149   1.781   0.379   3.086
 1780SOL    HW2 7150   1.777   0.301   3.031
 1780SOL    HW3 7151   1.709   0.434   3.055
 1780SOL    MW4 7152   1.771   0.376   3.075
 1781SOL     OW 7153   2.046   0.484   3.043
 1781SOL    HW2 7154   1.969   0.430   3.063
 1781SOL    HW3 7155   2.039   0.502   2.950
 1781SOL    MW4 7156   2.035   0.479   3.034
 1782SOL     OW 7157   2.079   0.748   3.137
 1782SOL    HW2 7158   1.998   0.781   3.100
 1782SOL    HW3 7159   2.073   0.653   3.128
 1782SOL    MW4 7160   2.068   0.740   3.131
 1783SOL     OW 7161   1.857   0.881   3.062
 1783SOL    HW2 7162   1.776   0.833   3.078
 1783SOL    HW3 7163   1.863   0.887   2.967
 1783SOL    MW4 7164   1.847   0.876   3.052
 1784SOL     OW 7165   1.782   1.141   3.132
 1784SOL    HW2 7166   1.801   1.153   3.225
 1784SOL    HW3 7167   1.790   1.047   3.118
 1784SOL    MW4 7168   1.786   1.131   3.143
 1785SOL     OW 7169   2.004   1.275   3.016
 1785SOL    HW2 7170   2.077   1.215   3.033
 1785SOL    HW3 7171   1.926   1.224   3.036
 1785SOL    MW4 7172   2.004   1.260   3.021
 1786SOL     OW 7173   2.027   1.541   3.131
 1786SOL    HW2 7174   2.023   1.537   3.226
 1786SOL    HW3 7175   2.024   1.449   3.103
 1786SOL    MW4 7176   2.026   1.528   3.139
 1787SOL     OW 7177   1.804   1.643   3.000
 1787SOL    HW2 7178   1.789   1.726   3.045
 1787SOL    HW3 7179   1.884   1.608   3.040
 1787SOL    MW4 7180   1.813   1.649   3.011
 1788SOL     OW 7181   1.822   1.895   3.115
 1788SOL    HW2 7182   1.903   1.945   3.104
 1788SOL    HW3 7183   1.757   1.943   3.063
 1788SOL    MW4 7184   1.824   1.908   3.107
 1789SOL     OW 7185   2.051   2.040   3.024
 1789SOL    HW2 7186   2.131   1.994   3.049
 1789SOL    HW3 7187   2.061   2.128   3.059
 1789SOL    MW4 7188   2.063   2.045   3.032
 1790SOL     OW 7189   2.047   2.285   3.125
 1790SOL    HW2 7190   2.117   2.334   3.081
 1790SOL    HW3 7191   1.969   2.303   3.073
 1790SOL    MW4 7192   2.046   2.294   3.113
 1791SOL     OW 7193   1.808   2.427   3.016
 1791SOL    HW2 7194   1.823   2.516   3.046
 1791SOL    HW3 7195   1.726   2.400   3.058
 1791SOL    MW4 7196   1.799   2.435   3.025
 1792SOL     OW 7197   1.792   2.710   3.105
 1792SOL    HW2 7198   1.796   2.724   3.199
 1792SOL    HW3 7199   1.855   2.772   3.068
 1792SOL    MW4 7200   1.801   2.720   3.112
 1793SOL     OW 7201   2.004   2.869   3.026
 1793SOL    HW2 7202   2.015   2.956   3.065
 1793SOL    HW3 7203   1.993   2.885   2.933
 1793SOL    MW4 7204   2.004   2.883   3.019
 1794SOL     OW 7205   2.015   3.117   3.121
 1794SOL    HW2 7206   1.990   3.095   3.211
 1794SOL    HW3 7207   1.944   3.173   3.090
 1794SOL    MW4 7208   2.002   3.121   3.129
 1795SOL     OW 7209   1.776   3.243   3.050
 1795SOL    HW2 7210   1.708   3.179   3.071
 1795SOL    HW3 7211   1.775   3.249   2.954
 1795SOL    MW4 7212   1.767   3.235   3.040
 1796SOL     OW 7213   1.836   3.491   3.127
 1796SOL    HW2 7214   1.828   3.401   3.096
 1796SOL    HW3 7215   1.760   3.536   3.090
 1796SOL    MW4 7216   1.825   3.485   3.118
 1797SOL     OW 7217   2.014   3.626   2.959
 1797SOL    HW2 7218   2.017   3.709   3.006
 1797SOL    HW3 7219   1.954   3.572   3.011
 1797SOL    MW4 7220   2.006   3.630   2.972
 1798SOL     OW 7221   2.026   3.834   3.124
 1798SOL    HW2 7222   2.006   3.848   3.217
 1798SOL    HW3 7223   1.960   3.884   3.077
 1798SOL    MW4 7224   2.015   3.842   3.130
 1799SOL     OW 7225   1.790   3.983   3.000
 1799SOL    HW2 7226   1.766   4.075   3.011
 1799SOL    HW3 7227   1.789   3.969   2.906
 1799SOL    MW4 7228   1.786   3.993   2.989
 1800SOL     OW 7229   1.804   4.261   3.056
 1800SOL    HW2 7230   1.887   4.301   3.030
 1800SOL    HW3 7231   1.736   4.317   3.018
 1800SOL    MW4 7232   1.806   4.274   3.047
 1801SOL     OW 7233   2.051   4.380   2.971
 1801SOL    HW2 7234   2.054   4.472   3.000
 1801SOL    HW3 7235   2.029   4.385   2.878
 1801SOL    MW4 7236   2.049   4.393   2.963
 1802SOL     OW 7237   2.495   4.628   3.083
 1802SOL    HW2 7238   2.485   4.533   3.070
 1802SOL    HW3 7239   2.419   4.666   3.038
 1802SOL    MW4 7240   2.483   4.620   3.075
 1803SOL     OW 7241   2.267   0.081   2.984
 1803SOL    HW2 7242   2.264   0.170   3.022
 1803SOL    HW3 7243   2.177   0.050   2.992
 1803SOL    MW4 7244   2.254   0.089   2.990
 1804SOL     OW 7245   2.270   0.324   3.129
 1804SOL    HW2 7246   2.281   0.345   3.222
 1804SOL    HW3 7247   2.204   0.385   3.098
 1804SOL    MW4 7248   2.263   0.334   3.137
 1805SOL     OW 7249   2.470   0.485   3.033
 1805SOL    HW2 7250   2.405   0.426   3.071
 1805SOL    HW3 7251   2.461   0.473   2.938
 1805SOL    MW4 7252   2.460   0.476   3.025
 1806SOL     OW 7253   2.476   0.775   3.127
 1806SOL    HW2 7254   2.553   0.818   3.088
 1806SOL    HW3 7255   2.482   0.684   3.098
 1806SOL    MW4 7256   2.487   0.769   3.118
 1807SOL     OW 7257   2.269   0.868   2.975
 1807SOL    HW2 7258   2.352   0.856   3.022
 1807SOL    HW3 7259   2.204   0.825   3.030
 1807SOL    MW4 7260   2.272   0.861   2.988
 1808SOL     OW 7261   2.237   1.132   3.075
 1808SOL    HW2 7262   2.233   1.128   3.171
 1808SOL    HW3 7263   2.253   1.041   3.049
 1808SOL    MW4 7264   2.238   1.119   3.084
 1809SOL     OW 7265   2.461   1.280   2.971
 1809SOL    HW2 7266   2.385   1.234   3.007
 1809SOL    HW3 7267   2.448   1.276   2.876
 1809SOL    MW4 7268   2.449   1.273   2.963
 1810SOL     OW 7269   2.476   1.499   3.145
 1810SOL    HW2 7270   2.402   1.543   3.103
 1810SOL    HW3 7271   2.480   1.414   3.102
 1810SOL    MW4 7272   2.466   1.494   3.134
 1811SOL     OW 7273   2.273   1.653   3.039
 1811SOL    HW2 7274   2.189   1.619   3.069
 1811SOL    HW3 7275   2.267   1.654   2.944
 1811SOL    MW4 7276   2.261   1.649   3.030
 1812SOL     OW 7277   2.276   1.917   3.114
 1812SOL    HW2 7278   2.346   1.963   3.067
 1812SOL    HW3 7279   2.287   1.825   3.088
 1812SOL    MW4 7280   2.287   1.911   3.104
 1813SOL     OW 7281   2.481   2.054   2.975
 1813SOL    HW2 7282   2.553   1.996   3.001
 1813SOL    HW3 7283   2.492   2.064   2.880
 1813SOL    MW4 7284   2.492   2.048   2.966
 1814SOL     OW 7285   2.462   2.327   3.091
 1814SOL    HW2 7286   2.459   2.340   3.186
 1814SOL    HW3 7287   2.443   2.234   3.079
 1814SOL    MW4 7288   2.459   2.317   3.102
 1815SOL     OW 7289   2.234   2.440   2.973
 1815SOL    HW2 7290   2.225   2.533   2.991
 1815SOL    HW3 7291   2.324   2.418   2.996
 1815SOL    MW4 7292   2.244   2.449   2.978
 1816SOL     OW 7293   2.230   2.697   3.080
 1816SOL    HW2 7294   2.319   2.731   3.077
 1816SOL    HW3 7295   2.176   2.767   3.044
 1816SOL    MW4 7296   2.235   2.711   3.075
 1817SOL     OW 7297   2.475   2.819   3.024
 1817SOL    HW2 7298   2.470   2.908   3.057
 1817SOL    HW3 7299   2.478   2.828   2.929
 1817SOL    MW4 7300   2.475   2.832   3.016
 1818SOL     OW 7301   2.443   3.100   3.072
 1818SOL    HW2 7302   2.525   3.143   3.048
 1818SOL    HW3 7303   2.375   3.166   3.054
 1818SOL    MW4 7304   2.445   3.115   3.067
 1819SOL     OW 7305   2.206   3.260   2.980
 1819SOL    HW2 7306   2.215   3.338   3.035
 1819SOL    HW3 7307   2.138   3.208   3.023
 1819SOL    MW4 7308   2.199   3.264   2.993
 1820SOL     OW 7309   2.225   3.507   3.121
 1820SOL    HW2 7310   2.304   3.540   3.079
 1820SOL    HW3 7311   2.153   3.546   3.070
 1820SOL    MW4 7312   2.226   3.517   3.109
 1821SOL     OW 7313   2.454   3.593   2.975
 1821SOL    HW2 7314   2.532   3.543   2.999
 1821SOL    HW3 7315   2.458   3.672   3.029
 1821SOL    MW4 7316   2.465   3.597   2.985
 1822SOL     OW 7317   2.492   3.844   3.124
 1822SOL    HW2 7318   2.505   3.852   3.218
 1822SOL    HW3 7319   2.568   3.887   3.085
 1822SOL    MW4 7320   2.503   3.851   3.131
 1823SOL     OW 7321   2.265   3.960   3.028
 1823SOL    HW2 7322   2.345   3.922   3.064
 1823SOL    HW3 7323   2.194   3.918   3.077
 1823SOL    MW4 7324   2.266   3.949   3.039
 1824SOL     OW 7325   2.251   4.231   3.112
 1824SOL    HW2 7326   2.236   4.141   3.083
 1824SOL    HW3 7327   2.180   4.282   3.072
 1824SOL    MW4 7328   2.240   4.226   3.103
 1825SOL     OW 7329   2.499   4.353   3.026
 1825SOL    HW2 7330   2.426   4.302   3.061
 1825SOL    HW3 7331   2.486   4.351   2.931
 1825SOL    MW4 7332   2.487   4.346   3.018
 1826SOL     OW 7333   2.914   4.639   3.123
 1826SOL    HW2 7334   2.995   4.668   3.082
 1826SOL    HW3 7335   2.913   4.544   3.108
 1826SOL    MW4 7336   2.925   4.630   3.116
 1827SOL     OW 7337   2.705   0.098   2.986
 1827SOL    HW2 7338   2.781   0.053   3.023
 1827SOL    HW3 7339   2.630   0.047   3.018
 1827SOL    MW4 7340   2.705   0.085   2.995
 1828SOL     OW 7341   2.717   0.364   3.090
 1828SOL    HW2 7342   2.701   0.277   3.052
 1828SOL    HW3 7343   2.643   0.417   3.060
 1828SOL    MW4 7344   2.705   0.359   3.081
 1829SOL     OW 7345   2.940   0.520   3.019
 1829SOL    HW2 7346   2.867   0.464   3.044
 1829SOL    HW3 7347   2.938   0.520   2.923
 1829SOL    MW4 7348   2.930   0.512   3.009
 1830SOL     OW 7349   2.903   0.779   3.108
 1830SOL    HW2 7350   2.905   0.771   3.203
 1830SOL    HW3 7351   2.912   0.690   3.076
 1830SOL    MW4 7352   2.905   0.767   3.116
 1831SOL     OW 7353   2.672   0.945   3.004
 1831SOL    HW2 7354   2.703   1.017   3.058
 1831SOL    HW3 7355   2.746   0.885   2.999
 1831SOL    MW4 7356   2.686   0.947   3.010
 1832SOL     OW 7357   2.661   1.176   3.149
 1832SOL    HW2 7358   2.734   1.221   3.108
 1832SOL    HW3 7359   2.583   1.214   3.108
 1832SOL    MW4 7360   2.660   1.187   3.139
 1833SOL     OW 7361   2.892   1.319   3.036
 1833SOL    HW2 7362   2.973   1.281   3.070
 1833SOL    HW3 7363   2.897   1.412   3.059
 1833SOL    MW4 7364   2.903   1.326   3.043
 1834SOL     OW 7365   2.938   1.583   3.099
 1834SOL    HW2 7366   2.938   1.584   3.195
 1834SOL    HW3 7367   3.023   1.619   3.074
 1834SOL    MW4 7368   2.949   1.588   3.108
 1835SOL     OW 7369   2.680   1.621   3.011
 1835SOL    HW2 7370   2.770   1.595   3.034
 1835SOL    HW3 7371   2.625   1.570   3.070
 1835SOL    MW4 7372   2.685   1.611   3.021
 1836SOL     OW 7373   2.695   1.907   3.058
 1836SOL    HW2 7374   2.777   1.946   3.028
 1836SOL    HW3 7375   2.704   1.814   3.038
 1836SOL    MW4 7376   2.707   1.900   3.052
 1837SOL     OW 7377   2.930   2.038   2.983
 1837SOL    HW2 7378   2.905   2.126   3.012
 1837SOL    HW3 7379   2.948   2.047   2.890
 1837SOL    MW4 7380   2.929   2.051   2.975
 1838SOL     OW 7381   2.903   2.282   3.080
 1838SOL    HW2 7382   2.984   2.327   3.059
 1838SOL    HW3 7383   2.834   2.338   3.044
 1838SOL    MW4 7384   2.904   2.295   3.072
 1839SOL     OW 7385   2.694   2.432   2.983
 1839SOL    HW2 7386   2.704   2.506   3.044
 1839SOL    HW3 7387   2.623   2.380   3.021
 1839SOL    MW4 7388   2.686   2.435   2.996
 1840SOL     OW 7389   2.718   2.688   3.089
 1840SOL    HW2 7390   2.730   2.692   3.184
 1840SOL    HW3 7391   2.633   2.731   3.074
 1840SOL    MW4 7392   2.708   2.694   3.100
 1841SOL     OW 7393   2.936   2.819   2.968
 1841SOL    HW2 7394   3.008   2.768   3.007
 1841SOL    HW3 7395   2.857   2.782   3.007
 1841SOL    MW4 7396   2.935   2.807   2.979
 1842SOL     OW 7397   2.909   3.053   3.112
 1842SOL    HW2 7398   2.842   3.108   3.071
 1842SOL    HW3 7399   2.902   2.969   3.066
 1842SOL    MW4 7400   2.900   3.049   3.100
 1843SOL     OW 7401   2.700   3.193   3.003
 1843SOL    HW2 7402   2.731   3.279   3.031
 1843SOL    HW3 7403   2.693   3.201   2.907
 1843SOL    MW4 7404   2.703   3.206   2.994
 1844SOL     OW 7405   2.677   3.464   3.075
 1844SOL    HW2 7406   2.667   3.457   3.170
 1844SOL    HW3 7407   2.759   3.512   3.064
 1844SOL    MW4 7408   2.686   3.469   3.086
 1845SOL     OW 7409   2.916   3.580   3.020
 1845SOL    HW2 7410   2.997   3.539   3.051
 1845SOL    HW3 7411   2.916   3.665   3.063
 1845SOL    MW4 7412   2.927   3.586   3.030
 1846SOL     OW 7413   2.931   3.853   3.132
 1846SOL    HW2 7414   2.911   3.851   3.225
 1846SOL    HW3 7415   2.852   3.889   3.091
 1846SOL    MW4 7416   2.918   3.858   3.139
 1847SOL     OW 7417   2.714   3.951   2.992
 1847SOL    HW2 7418   2.719   4.042   3.022
 1847SOL    HW3 7419   2.704   3.958   2.897
 1847SOL    MW4 7420   2.713   3.964   2.983
 1848SOL     OW 7421   2.707   4.216   3.111
 1848SOL    HW2 7422   2.728   4.231   3.203
 1848SOL    HW3 7423   2.631   4.271   3.095
 1848SOL    MW4 7424   2.699   4.225   3.121
 1849SOL     OW 7425   2.915   4.386   3.022
 1849SOL    HW2 7426   2.995   4.337   3.040
 1849SOL    HW3 7427   2.845   4.329   3.052
 1849SOL    MW4 7428   2.917   4.372   3.028
 1850SOL     OW 7429   3.355   4.638   3.118
 1850SOL    HW2 7430   3.434   4.671   3.076
 1850SOL    HW3 7431   3.351   4.546   3.093
 1850SOL    MW4 7432   3.365   4.630   3.109
 1851SOL     OW 7433   3.143   0.099   3.015
 1851SOL    HW2 7434   3.145   0.184   3.058
 1851SOL    HW3 7435   3.222   0.055   3.044
 1851SOL    MW4 7436   3.153   0.104   3.024
 1852SOL     OW 7437   3.130   0.351   3.113
 1852SOL    HW2 7438   3.211   0.399   3.095
 1852SOL    HW3 7439   3.061   0.409   3.081
 1852SOL    MW4 7440   3.131   0.365   3.107
 1853SOL     OW 7441   3.368   0.501   3.027
 1853SOL    HW2 7442   3.452   0.461   3.048
 1853SOL    HW3 7443   3.354   0.480   2.935
 1853SOL    MW4 7444   3.377   0.493   3.018
 1854SOL     OW 7445   3.356   0.778   3.112
 1854SOL    HW2 7446   3.349   0.764   3.207
 1854SOL    HW3 7447   3.350   0.690   3.074
 1854SOL    MW4 7448   3.354   0.765   3.120
 1855SOL     OW 7449   3.125   0.892   3.002
 1855SOL    HW2 7450   3.202   0.862   3.051
 1855SOL    HW3 7451   3.053   0.839   3.035
 1855SOL    MW4 7452   3.126   0.881   3.013
 1856SOL     OW 7453   3.146   1.161   3.088
 1856SOL    HW2 7454   3.223   1.196   3.044
 1856SOL    HW3 7455   3.133   1.075   3.048
 1856SOL    MW4 7456   3.155   1.154   3.077
 1857SOL     OW 7457   3.388   1.279   2.991
 1857SOL    HW2 7458   3.456   1.228   3.034
 1857SOL    HW3 7459   3.398   1.367   3.027
 1857SOL    MW4 7460   3.398   1.284   3.001
 1858SOL     OW 7461   3.393   1.537   3.084
 1858SOL    HW2 7462   3.397   1.527   3.179
 1858SOL    HW3 7463   3.467   1.594   3.063
 1858SOL    MW4 7464   3.403   1.543   3.094
 1859SOL     OW 7465   3.181   1.700   2.983
 1859SOL    HW2 7466   3.243   1.640   3.023
 1859SOL    HW3 7467   3.157   1.659   2.900
 1859SOL    MW4 7468   3.186   1.687   2.977
 1860SOL     OW 7469   3.173   1.986   3.099
 1860SOL    HW2 7470   3.193   1.897   3.068
 1860SOL    HW3 7471   3.085   2.004   3.065
 1860SOL    MW4 7472   3.164   1.977   3.090
 1861SOL     OW 7473   3.386   2.077   2.968
 1861SOL    HW2 7474   3.457   2.035   3.016
 1861SOL    HW3 7475   3.308   2.057   3.019
 1861SOL    MW4 7476   3.385   2.069   2.981
 1862SOL     OW 7477   3.365   2.344   3.068
 1862SOL    HW2 7478   3.363   2.336   3.164
 1862SOL    HW3 7479   3.368   2.253   3.037
 1862SOL    MW4 7480   3.365   2.331   3.077
 1863SOL     OW 7481   3.123   2.411   2.972
 1863SOL    HW2 7482   3.210   2.381   3.000
 1863SOL    HW3 7483   3.134   2.429   2.878
 1863SOL    MW4 7484   3.136   2.410   2.963
 1864SOL     OW 7485   3.180   2.680   3.088
 1864SOL    HW2 7486   3.191   2.685   3.183
 1864SOL    HW3 7487   3.155   2.589   3.072
 1864SOL    MW4 7488   3.178   2.668   3.099
 1865SOL     OW 7489   3.404   2.808   2.994
 1865SOL    HW2 7490   3.392   2.893   3.035
 1865SOL    HW3 7491   3.323   2.761   3.013
 1865SOL    MW4 7492   3.392   2.813   3.002
 1866SOL     OW 7493   3.404   3.066   3.089
 1866SOL    HW2 7494   3.414   3.069   3.185
 1866SOL    HW3 7495   3.323   3.116   3.073
 1866SOL    MW4 7496   3.395   3.073   3.100
 1867SOL     OW 7497   3.152   3.195   3.020
 1867SOL    HW2 7498   3.081   3.136   3.046
 1867SOL    HW3 7499   3.144   3.202   2.925
 1867SOL    MW4 7500   3.141   3.188   3.011
 1868SOL     OW 7501   3.140   3.461   3.128
 1868SOL    HW2 7502   3.213   3.510   3.092
 1868SOL    HW3 7503   3.145   3.376   3.085
 1868SOL    MW4 7504   3.150   3.456   3.118
 1869SOL     OW 7505   3.373   3.605   3.019
 1869SOL    HW2 7506   3.454   3.562   3.046
 1869SOL    HW3 7507   3.381   3.694   3.052
 1869SOL    MW4 7508   3.385   3.611   3.027
 1870SOL     OW 7509   3.413   3.848   3.120
 1870SOL    HW2 7510   3.415   3.856   3.215
 1870SOL    HW3 7511   3.332   3.893   3.094
 1870SOL    MW4 7512   3.403   3.855   3.129
 1871SOL     OW 7513   3.177   3.971   3.065
 1871SOL    HW2 7514   3.097   3.941   3.109
 1871SOL    HW3 7515   3.153   3.977   2.973
 1871SOL    MW4 7516   3.163   3.968   3.059
 1872SOL     OW 7517   3.155   4.251   3.071
 1872SOL    HW2 7518   3.165   4.271   3.164
 1872SOL    HW3 7519   3.168   4.156   3.066
 1872SOL    MW4 7520   3.158   4.241   3.083
 1873SOL     OW 7521   3.378   4.384   3.011
 1873SOL    HW2 7522   3.438   4.325   3.056
 1873SOL    HW3 7523   3.291   4.348   3.030
 1873SOL    MW4 7524   3.374   4.371   3.019
 1874SOL     OW 7525   3.819   4.654   3.105
 1874SOL    HW2 7526   3.831   4.562   3.080
 1874SOL    HW3 7527   3.732   4.676   3.071
 1874SOL    MW4 7528   3.809   4.644   3.097
 1875SOL     OW 7529   3.584   0.087   2.998
 1875SOL    HW2 7530   3.580   0.179   3.026
 1875SOL    HW3 7531   3.594   0.092   2.902
 1875SOL    MW4 7532   3.585   0.100   2.989
 1876SOL     OW 7533   3.588   0.360   3.095
 1876SOL    HW2 7534   3.601   0.372   3.189
 1876SOL    HW3 7535   3.671   0.386   3.055
 1876SOL    MW4 7536   3.600   0.365   3.102
 1877SOL     OW 7537   3.824   0.463   3.001
 1877SOL    HW2 7538   3.892   0.412   3.045
 1877SOL    HW3 7539   3.836   0.553   3.034
 1877SOL    MW4 7540   3.835   0.468   3.011
 1878SOL     OW 7541   3.799   0.729   3.096
 1878SOL    HW2 7542   3.793   0.705   3.188
 1878SOL    HW3 7543   3.884   0.773   3.089
 1878SOL    MW4 7544   3.810   0.732   3.107
 1879SOL     OW 7545   3.579   0.885   3.000
 1879SOL    HW2 7546   3.653   0.832   3.031
 1879SOL    HW3 7547   3.503   0.846   3.042
 1879SOL    MW4 7548   3.579   0.873   3.010
 1880SOL     OW 7549   3.559   1.111   3.148
 1880SOL    HW2 7550   3.645   1.152   3.135
 1880SOL    HW3 7551   3.561   1.033   3.092
 1880SOL    MW4 7552   3.571   1.106   3.139
 1881SOL     OW 7553   3.765   1.287   3.072
 1881SOL    HW2 7554   3.781   1.380   3.087
 1881SOL    HW3 7555   3.765   1.278   2.976
 1881SOL    MW4 7556   3.767   1.298   3.061
 1882SOL     OW 7557   3.805   1.555   3.170
 1882SOL    HW2 7558   3.801   1.566   3.265
 1882SOL    HW3 7559   3.738   1.615   3.136
 1882SOL    MW4 7560   3.796   1.565   3.178
 1883SOL     OW 7561   3.611   1.704   3.043
 1883SOL    HW2 7562   3.618   1.792   3.079
 1883SOL    HW3 7563   3.623   1.715   2.949
 1883SOL    MW4 7564   3.614   1.717   3.035
 1884SOL     OW 7565   3.599   1.959   3.110
 1884SOL    HW2 7566   3.606   1.955   3.206
 1884SOL    HW3 7567   3.672   2.014   3.083
 1884SOL    MW4 7568   3.609   1.965   3.119
 1885SOL     OW 7569   3.836   2.095   3.014
 1885SOL    HW2 7570   3.832   2.184   3.048
 1885SOL    HW3 7571   3.834   2.106   2.919
 1885SOL    MW4 7572   3.835   2.108   3.006
 1886SOL     OW 7573   3.799   2.340   3.093
 1886SOL    HW2 7574   3.798   2.349   3.188
 1886SOL    HW3 7575   3.713   2.373   3.065
 1886SOL    MW4 7576   3.787   2.345   3.102
 1887SOL     OW 7577   3.586   2.476   2.959
 1887SOL    HW2 7578   3.604   2.559   3.002
 1887SOL    HW3 7579   3.503   2.446   2.996
 1887SOL    MW4 7580   3.578   2.483   2.970
 1888SOL     OW 7581   3.629   2.690   3.139
 1888SOL    HW2 7582   3.701   2.740   3.102
 1888SOL    HW3 7583   3.550   2.735   3.108
 1888SOL    MW4 7584   3.628   2.702   3.130
 1889SOL     OW 7585   3.822   2.831   3.001
 1889SOL    HW2 7586   3.839   2.920   3.035
 1889SOL    HW3 7587   3.786   2.845   2.914
 1889SOL    MW4 7588   3.820   2.845   2.994
 1890SOL     OW 7589   3.881   3.067   3.119
 1890SOL    HW2 7590   3.954   3.116   3.080
 1890SOL    HW3 7591   3.804   3.121   3.100
 1890SOL    MW4 7592   3.881   3.081   3.111
 1891SOL     OW 7593   3.647   3.193   3.049
 1891SOL    HW2 7594   3.564   3.147   3.053
 1891SOL    HW3 7595   3.655   3.221   2.958
 1891SOL    MW4 7596   3.637   3.190   3.037
 1892SOL     OW 7597   3.589   3.461   3.123
 1892SOL    HW2 7598   3.670   3.507   3.102
 1892SOL    HW3 7599   3.604   3.371   3.095
 1892SOL    MW4 7600   3.601   3.455   3.116
 1893SOL     OW 7601   3.812   3.610   3.054
 1893SOL    HW2 7602   3.832   3.699   3.082
 1893SOL    HW3 7603   3.798   3.617   2.959
 1893SOL    MW4 7604   3.813   3.623   3.045
 1894SOL     OW 7605   3.872   3.875   3.120
 1894SOL    HW2 7606   3.866   3.888   3.215
 1894SOL    HW3 7607   3.789   3.908   3.086
 1894SOL    MW4 7608   3.860   3.881   3.128
 1895SOL     OW 7609   3.618   3.985   3.025
 1895SOL    HW2 7610   3.544   3.936   3.062
 1895SOL    HW3 7611   3.591   4.002   2.934
 1895SOL    MW4 7612   3.605   3.981   3.018
 1896SOL     OW 7613   3.587   4.240   3.129
 1896SOL    HW2 7614   3.657   4.296   3.096
 1896SOL    HW3 7615   3.603   4.155   3.088
 1896SOL    MW4 7616   3.598   4.236   3.120
 1897SOL     OW 7617   3.803   4.373   2.997
 1897SOL    HW2 7618   3.892   4.355   3.027
 1897SOL    HW3 7619   3.810   4.379   2.902
 1897SOL    MW4 7620   3.816   4.371   2.988
 1898SOL     OW 7621   4.251   0.042   3.116
 1898SOL    HW2 7622   4.279   0.031   3.207
 1898SOL    HW3 7623   4.256  -0.047   3.079
 1898SOL    MW4 7624   4.255   0.029   3.123
 1899SOL     OW 7625   4.026   0.114   2.954
 1899SOL    HW2 7626   4.094   0.088   3.016
 1899SOL    HW3 7627   3.946   0.073   2.987
 1899SOL    MW4 7628   4.024   0.105   2.967
 1900SOL     OW 7629   4.033   0.340   3.106
 1900SOL    HW2 7630   4.119   0.380   3.097
 1900SOL    HW3 7631   4.033   0.267   3.043
 1900SOL    MW4 7632   4.044   0.335   3.097
 1901SOL     OW 7633   4.274   0.496   3.023
 1901SOL    HW2 7634   4.256   0.577   3.070
 1901SOL    HW3 7635   4.258   0.518   2.931
 1901SOL    MW4 7636   4.269   0.509   3.017
 1902SOL     OW 7637   4.229   0.745   3.137
 1902SOL    HW2 7638   4.152   0.794   3.106
 1902SOL    HW3 7639   4.303   0.790   3.098
 1902SOL    MW4 7640   4.229   0.758   3.128
 1903SOL     OW 7641   4.017   0.884   3.060
 1903SOL    HW2 7642   3.990   0.968   3.097
 1903SOL    HW3 7643   4.002   0.894   2.966
 1903SOL    MW4 7644   4.011   0.897   3.053
 1904SOL     OW 7645   4.022   1.153   3.140
 1904SOL    HW2 7646   4.024   1.150   3.236
 1904SOL    HW3 7647   3.950   1.212   3.120
 1904SOL    MW4 7648   4.013   1.160   3.150
 1905SOL     OW 7649   4.254   1.278   3.028
 1905SOL    HW2 7650   4.174   1.234   3.056
 1905SOL    HW3 7651   4.251   1.275   2.933
 1905SOL    MW4 7652   4.243   1.272   3.019
 1906SOL     OW 7653   4.278   1.520   3.142
 1906SOL    HW2 7654   4.200   1.559   3.103
 1906SOL    HW3 7655   4.284   1.432   3.103
 1906SOL    MW4 7656   4.269   1.513   3.132
 1907SOL     OW 7657   4.030   1.632   3.037
 1907SOL    HW2 7658   4.030   1.727   3.050
 1907SOL    HW3 7659   3.960   1.600   3.094
 1907SOL    MW4 7660   4.021   1.640   3.047
 1908SOL     OW 7661   4.021   1.911   3.140
 1908SOL    HW2 7662   4.103   1.957   3.122
 1908SOL    HW3 7663   3.953   1.966   3.101
 1908SOL    MW4 7664   4.023   1.924   3.133
 1909SOL     OW 7665   4.237   2.071   3.050
 1909SOL    HW2 7666   4.232   2.166   3.064
 1909SOL    HW3 7667   4.242   2.061   2.955
 1909SOL    MW4 7668   4.237   2.082   3.040
 1910SOL     OW 7669   4.258   2.347   3.103
 1910SOL    HW2 7670   4.180   2.394   3.073
 1910SOL    HW3 7671   4.329   2.385   3.052
 1910SOL    MW4 7672   4.257   2.358   3.092
 1911SOL     OW 7673   4.030   2.470   3.020
 1911SOL    HW2 7674   4.007   2.558   3.049
 1911SOL    HW3 7675   3.953   2.417   3.041
 1911SOL    MW4 7676   4.017   2.475   3.026
 1912SOL     OW 7677   4.049   2.726   3.112
 1912SOL    HW2 7678   4.049   2.736   3.207
 1912SOL    HW3 7679   3.966   2.763   3.084
 1912SOL    MW4 7680   4.038   2.732   3.121
 1913SOL     OW 7681   4.255   2.856   3.004
 1913SOL    HW2 7682   4.184   2.804   3.042
 1913SOL    HW3 7683   4.333   2.804   3.019
 1913SOL    MW4 7684   4.256   2.843   3.011
 1914SOL     OW 7685   4.274   3.094   3.123
 1914SOL    HW2 7686   4.206   3.153   3.088
 1914SOL    HW3 7687   4.250   3.008   3.090
 1914SOL    MW4 7688   4.262   3.090   3.114
 1915SOL     OW 7689   4.084   3.242   3.003
 1915SOL    HW2 7690   4.088   3.330   3.039
 1915SOL    HW3 7691   4.067   3.255   2.910
 1915SOL    MW4 7692   4.083   3.255   2.995
 1916SOL     OW 7693   4.059   3.493   3.130
 1916SOL    HW2 7694   4.056   3.495   3.226
 1916SOL    HW3 7695   3.970   3.512   3.102
 1916SOL    MW4 7696   4.047   3.496   3.139
 1917SOL     OW 7697   4.300   3.627   3.078
 1917SOL    HW2 7698   4.295   3.716   3.113
 1917SOL    HW3 7699   4.212   3.591   3.089
 1917SOL    MW4 7700   4.288   3.634   3.084
 1918SOL     OW 7701   4.290   3.893   3.160
 1918SOL    HW2 7702   4.215   3.943   3.126
 1918SOL    HW3 7703   4.366   3.933   3.118
 1918SOL    MW4 7704   4.290   3.905   3.150
 1919SOL     OW 7705   4.077   4.042   3.004
 1919SOL    HW2 7706   4.075   4.137   3.019
 1919SOL    HW3 7707   3.997   4.010   3.046
 1919SOL    MW4 7708   4.066   4.051   3.012
 1920SOL     OW 7709   4.045   4.304   3.097
 1920SOL    HW2 7710   4.049   4.297   3.192
 1920SOL    HW3 7711   4.127   4.347   3.073
 1920SOL    MW4 7712   4.056   4.309   3.106
 1921SOL     OW 7713   4.273   4.454   3.002
 1921SOL    HW2 7714   4.348   4.403   3.033
 1921SOL    HW3 7715   4.272   4.439   2.908
 1921SOL    MW4 7716   4.283   4.445   2.994
 1922SOL     OW 7717   0.212   0.026   3.375
 1922SOL    HW2 7718   0.291   0.077   3.390
 1922SOL    HW3 7719   0.221  -0.050   3.433
 1922SOL    MW4 7720   0.224   0.022   3.385
 1923SOL     OW 7721   0.011   0.128   3.535
 1923SOL    HW2 7722   0.019   0.221   3.510
 1923SOL    HW3 7723   0.082   0.085   3.488
 1923SOL    MW4 7724   0.021   0.135   3.525
 1924SOL     OW 7725   0.015   0.374   3.396
 1924SOL    HW2 7726  -0.060   0.419   3.434
 1924SOL    HW3 7727   0.088   0.434   3.409
 1924SOL    MW4 7728   0.015   0.388   3.402
 1925SOL     OW 7729   0.245   0.536   3.480
 1925SOL    HW2 7730   0.330   0.511   3.444
 1925SOL    HW3 7731   0.225   0.620   3.440
 1925SOL    MW4 7732   0.253   0.544   3.470
 1926SOL     OW 7733   0.186   0.778   3.394
 1926SOL    HW2 7734   0.260   0.837   3.411
 1926SOL    HW3 7735   0.112   0.819   3.439
 1926SOL    MW4 7736   0.186   0.791   3.402
 1927SOL     OW 7737   4.452   0.891   3.505
 1927SOL    HW2 7738   4.477   0.894   3.598
 1927SOL    HW3 7739   4.456   0.983   3.477
 1927SOL    MW4 7740   4.456   0.904   3.514
 1928SOL     OW 7741   4.467   1.149   3.386
 1928SOL    HW2 7742   4.542   1.206   3.406
 1928SOL    HW3 7743   4.470   1.137   3.291
 1928SOL    MW4 7744   4.477   1.155   3.376
 1929SOL     OW 7745   0.182   1.323   3.500
 1929SOL    HW2 7746   0.270   1.287   3.489
 1929SOL    HW3 7747   0.182   1.403   3.449
 1929SOL    MW4 7748   0.194   1.329   3.492
 1930SOL     OW 7749   0.220   1.580   3.387
 1930SOL    HW2 7750   0.310   1.596   3.412
 1930SOL    HW3 7751   0.221   1.583   3.291
 1930SOL    MW4 7752   0.232   1.583   3.378
 1931SOL     OW 7753   0.001   1.668   3.535
 1931SOL    HW2 7754  -0.061   1.606   3.495
 1931SOL    HW3 7755   0.087   1.638   3.506
 1931SOL    MW4 7756   0.004   1.656   3.526
 1932SOL     OW 7757   4.470   1.915   3.408
 1932SOL    HW2 7758   4.476   1.825   3.438
 1932SOL    HW3 7759   4.469   1.908   3.312
 1932SOL    MW4 7760   4.471   1.902   3.399
 1933SOL     OW 7761   0.206   2.073   3.459
 1933SOL    HW2 7762   0.225   2.049   3.549
 1933SOL    HW3 7763   0.123   2.028   3.439
 1933SOL    MW4 7764   0.197   2.064   3.468
 1934SOL     OW 7765   0.234   2.312   3.328
 1934SOL    HW2 7766   0.164   2.364   3.367
 1934SOL    HW3 7767   0.228   2.227   3.373
 1934SOL    MW4 7768   0.224   2.307   3.339
 1935SOL     OW 7769   0.011   2.444   3.457
 1935SOL    HW2 7770   0.025   2.452   3.551
 1935SOL    HW3 7771  -0.045   2.367   3.448
 1935SOL    MW4 7772   0.006   2.435   3.468
 1936SOL     OW 7773   0.010   2.718   3.368
 1936SOL    HW2 7774   0.094   2.751   3.401
 1936SOL    HW3 7775   0.001   2.632   3.407
 1936SOL    MW4 7776   0.020   2.711   3.377
 1937SOL     OW 7777   0.233   2.835   3.485
 1937SOL    HW2 7778   0.313   2.799   3.448
 1937SOL    HW3 7779   0.235   2.928   3.460
 1937SOL    MW4 7780   0.244   2.843   3.477
 1938SOL     OW 7781   0.237   3.118   3.440
 1938SOL    HW2 7782   0.170   3.174   3.477
 1938SOL    HW3 7783   0.216   3.113   3.347
 1938SOL    MW4 7784   0.226   3.125   3.433
 1939SOL     OW 7785   0.010   3.256   3.520
 1939SOL    HW2 7786  -0.052   3.193   3.483
 1939SOL    HW3 7787  -0.010   3.338   3.475
 1939SOL    MW4 7788  -0.001   3.259   3.509
 1940SOL     OW 7789   4.468   3.511   3.417
 1940SOL    HW2 7790   4.389   3.562   3.435
 1940SOL    HW3 7791   4.477   3.515   3.322
 1940SOL    MW4 7792   4.459   3.519   3.407
 1941SOL     OW 7793   0.224   3.630   3.512
 1941SOL    HW2 7794   0.204   3.653   3.602
 1941SOL    HW3 7795   0.148   3.579   3.482
 1941SOL    MW4 7796   0.211   3.626   3.520
 1942SOL     OW 7797   0.247   3.875   3.403
 1942SOL    HW2 7798   0.179   3.926   3.447
 1942SOL    HW3 7799   0.228   3.784   3.426
 1942SOL    MW4 7800   0.236   3.869   3.412
 1943SOL     OW 7801   0.044   4.035   3.511
 1943SOL    HW2 7802   0.018   4.051   3.602
 1943SOL    HW3 7803   0.064   4.122   3.476
 1943SOL    MW4 7804   0.044   4.049   3.519
 1944SOL     OW 7805   0.034   4.293   3.394
 1944SOL    HW2 7806  -0.050   4.331   3.421
 1944SOL    HW3 7807   0.099   4.345   3.442
 1944SOL    MW4 7808   0.032   4.305   3.404
 1945SOL     OW 7809   0.210   4.445   3.537
 1945SOL    HW2 7810   0.228   4.449   3.631
 1945SOL    HW3 7811   0.287   4.402   3.499
 1945SOL    MW4 7812   0.222   4.440   3.544
 1946SOL     OW 7813   0.640   4.659   3.395
 1946SOL    HW2 7814   0.716   4.711   3.423
 1946SOL    HW3 7815   0.644   4.659   3.300
 1946SOL    MW4 7816   0.650   4.666   3.386
 1947SOL     OW 7817   0.436   0.159   3.449
 1947SOL    HW2 7818   0.422   0.165   3.544
 1947SOL    HW3 7819   0.507   0.096   3.439
 1947SOL    MW4 7820   0.444   0.152   3.460
 1948SOL     OW 7821   0.480   0.422   3.368
 1948SOL    HW2 7822   0.547   0.457   3.427
 1948SOL    HW3 7823   0.479   0.328   3.385
 1948SOL    MW4 7824   0.489   0.415   3.378
 1949SOL     OW 7825   0.681   0.549   3.516
 1949SOL    HW2 7826   0.681   0.530   3.610
 1949SOL    HW3 7827   0.761   0.507   3.483
 1949SOL    MW4 7828   0.692   0.541   3.524
 1950SOL     OW 7829   0.642   0.778   3.367
 1950SOL    HW2 7830   0.558   0.813   3.399
 1950SOL    HW3 7831   0.655   0.698   3.418
 1950SOL    MW4 7832   0.633   0.772   3.378
 1951SOL     OW 7833   0.409   0.912   3.495
 1951SOL    HW2 7834   0.431   0.909   3.588
 1951SOL    HW3 7835   0.414   1.004   3.472
 1951SOL    MW4 7836   0.413   0.923   3.504
 1952SOL     OW 7837   0.432   1.204   3.404
 1952SOL    HW2 7838   0.511   1.248   3.438
 1952SOL    HW3 7839   0.449   1.195   3.311
 1952SOL    MW4 7840   0.445   1.209   3.396
 1953SOL     OW 7841   0.664   1.317   3.483
 1953SOL    HW2 7842   0.732   1.252   3.465
 1953SOL    HW3 7843   0.691   1.394   3.433
 1953SOL    MW4 7844   0.677   1.319   3.474
 1954SOL     OW 7845   0.722   1.572   3.364
 1954SOL    HW2 7846   0.794   1.614   3.411
 1954SOL    HW3 7847   0.645   1.625   3.386
 1954SOL    MW4 7848   0.721   1.585   3.373
 1955SOL     OW 7849   0.487   1.702   3.429
 1955SOL    HW2 7850   0.482   1.706   3.525
 1955SOL    HW3 7851   0.456   1.788   3.400
 1955SOL    MW4 7852   0.483   1.714   3.438
 1956SOL     OW 7853   0.445   1.970   3.376
 1956SOL    HW2 7854   0.355   2.001   3.382
 1956SOL    HW3 7855   0.465   1.973   3.283
 1956SOL    MW4 7856   0.436   1.975   3.365
 1957SOL     OW 7857   0.689   2.032   3.482
 1957SOL    HW2 7858   0.684   2.026   3.578
 1957SOL    HW3 7859   0.604   2.002   3.451
 1957SOL    MW4 7860   0.677   2.027   3.491
 1958SOL     OW 7861   0.720   2.277   3.370
 1958SOL    HW2 7862   0.793   2.326   3.407
 1958SOL    HW3 7863   0.702   2.208   3.434
 1958SOL    MW4 7864   0.727   2.274   3.383
 1959SOL     OW 7865   0.468   2.450   3.442
 1959SOL    HW2 7866   0.543   2.399   3.410
 1959SOL    HW3 7867   0.393   2.416   3.393
 1959SOL    MW4 7868   0.468   2.439   3.431
 1960SOL     OW 7869   0.454   2.727   3.389
 1960SOL    HW2 7870   0.471   2.636   3.411
 1960SOL    HW3 7871   0.466   2.732   3.295
 1960SOL    MW4 7872   0.458   2.716   3.380
 1961SOL     OW 7873   0.699   2.820   3.478
 1961SOL    HW2 7874   0.772   2.769   3.444
 1961SOL    HW3 7875   0.621   2.775   3.444
 1961SOL    MW4 7876   0.698   2.807   3.469
 1962SOL     OW 7877   0.707   3.100   3.378
 1962SOL    HW2 7878   0.644   3.149   3.430
 1962SOL    HW3 7879   0.702   3.010   3.412
 1962SOL    MW4 7880   0.698   3.094   3.389
 1963SOL     OW 7881   0.496   3.245   3.484
 1963SOL    HW2 7882   0.511   3.250   3.579
 1963SOL    HW3 7883   0.417   3.192   3.475
 1963SOL    MW4 7884   0.488   3.239   3.496
 1964SOL     OW 7885   0.448   3.488   3.366
 1964SOL    HW2 7886   0.471   3.403   3.403
 1964SOL    HW3 7887   0.377   3.519   3.423
 1964SOL    MW4 7888   0.441   3.481   3.379
 1965SOL     OW 7889   0.654   3.651   3.466
 1965SOL    HW2 7890   0.734   3.600   3.450
 1965SOL    HW3 7891   0.584   3.598   3.428
 1965SOL    MW4 7892   0.656   3.637   3.459
 1966SOL     OW 7893   0.632   3.923   3.386
 1966SOL    HW2 7894   0.559   3.954   3.439
 1966SOL    HW3 7895   0.648   3.834   3.416
 1966SOL    MW4 7896   0.625   3.916   3.397
 1967SOL     OW 7897   0.444   4.044   3.532
 1967SOL    HW2 7898   0.428   4.130   3.493
 1967SOL    HW3 7899   0.390   3.983   3.481
 1967SOL    MW4 7900   0.435   4.047   3.520
 1968SOL     OW 7901   0.410   4.277   3.412
 1968SOL    HW2 7902   0.489   4.316   3.449
 1968SOL    HW3 7903   0.422   4.285   3.318
 1968SOL    MW4 7904   0.422   4.283   3.405
 1969SOL     OW 7905   0.631   4.422   3.511
 1969SOL    HW2 7906   0.708   4.380   3.474
 1969SOL    HW3 7907   0.632   4.511   3.475
 1969SOL    MW4 7908   0.641   4.428   3.502
 1970SOL     OW 7909   1.087   0.021   3.389
 1970SOL    HW2 7910   1.169   0.047   3.431
 1970SOL    HW3 7911   1.106   0.021   3.295
 1970SOL    MW4 7912   1.100   0.025   3.382
 1971SOL     OW 7913   0.851   0.135   3.485
 1971SOL    HW2 7914   0.862   0.142   3.580
 1971SOL    HW3 7915   0.930   0.089   3.456
 1971SOL    MW4 7916   0.863   0.130   3.494
 1972SOL     OW 7917   0.879   0.387   3.400
 1972SOL    HW2 7918   0.962   0.420   3.433
 1972SOL    HW3 7919   0.872   0.298   3.435
 1972SOL    MW4 7920   0.889   0.380   3.409
 1973SOL     OW 7921   1.113   0.509   3.503
 1973SOL    HW2 7922   1.130   0.501   3.597
 1973SOL    HW3 7923   1.122   0.602   3.485
 1973SOL    MW4 7924   1.116   0.520   3.513
 1974SOL     OW 7925   1.100   0.786   3.410
 1974SOL    HW2 7926   1.178   0.831   3.442
 1974SOL    HW3 7927   1.026   0.835   3.446
 1974SOL    MW4 7928   1.101   0.798   3.419
 1975SOL     OW 7929   0.861   0.895   3.500
 1975SOL    HW2 7930   0.860   0.985   3.467
 1975SOL    HW3 7931   0.785   0.854   3.460
 1975SOL    MW4 7932   0.851   0.901   3.490
 1976SOL     OW 7933   0.863   1.149   3.379
 1976SOL    HW2 7934   0.939   1.201   3.406
 1976SOL    HW3 7935   0.872   1.142   3.284
 1976SOL    MW4 7936   0.874   1.155   3.370
 1977SOL     OW 7937   1.101   1.294   3.485
 1977SOL    HW2 7938   1.098   1.294   3.581
 1977SOL    HW3 7939   1.080   1.384   3.461
 1977SOL    MW4 7940   1.098   1.306   3.495
 1978SOL     OW 7941   1.081   1.544   3.376
 1978SOL    HW2 7942   1.171   1.568   3.398
 1978SOL    HW3 7943   1.080   1.538   3.281
 1978SOL    MW4 7944   1.092   1.546   3.366
 1979SOL     OW 7945   0.905   1.734   3.486
 1979SOL    HW2 7946   0.912   1.821   3.446
 1979SOL    HW3 7947   0.986   1.690   3.462
 1979SOL    MW4 7948   0.917   1.740   3.477
 1980SOL     OW 7949   0.941   1.968   3.356
 1980SOL    HW2 7950   1.013   2.012   3.402
 1980SOL    HW3 7951   0.862   2.003   3.397
 1980SOL    MW4 7952   0.940   1.979   3.367
 1981SOL     OW 7953   1.163   2.070   3.511
 1981SOL    HW2 7954   1.233   2.033   3.456
 1981SOL    HW3 7955   1.160   2.162   3.487
 1981SOL    MW4 7956   1.172   2.077   3.500
 1982SOL     OW 7957   1.153   2.328   3.427
 1982SOL    HW2 7958   1.230   2.378   3.454
 1982SOL    HW3 7959   1.160   2.323   3.332
 1982SOL    MW4 7960   1.164   2.334   3.418
 1983SOL     OW 7961   0.908   2.410   3.520
 1983SOL    HW2 7962   0.908   2.395   3.615
 1983SOL    HW3 7963   0.995   2.381   3.491
 1983SOL    MW4 7964   0.920   2.404   3.529
 1984SOL     OW 7965   0.913   2.650   3.390
 1984SOL    HW2 7966   0.969   2.710   3.440
 1984SOL    HW3 7967   0.904   2.573   3.446
 1984SOL    MW4 7968   0.919   2.648   3.404
 1985SOL     OW 7969   1.092   2.829   3.498
 1985SOL    HW2 7970   1.097   2.830   3.594
 1985SOL    HW3 7971   1.177   2.796   3.470
 1985SOL    MW4 7972   1.104   2.825   3.507
 1986SOL     OW 7973   1.141   3.076   3.404
 1986SOL    HW2 7974   1.116   2.985   3.416
 1986SOL    HW3 7975   1.128   3.092   3.310
 1986SOL    MW4 7976   1.136   3.066   3.393
 1987SOL     OW 7977   0.927   3.219   3.511
 1987SOL    HW2 7978   0.993   3.153   3.486
 1987SOL    HW3 7979   0.847   3.189   3.468
 1987SOL    MW4 7980   0.925   3.206   3.502
 1988SOL     OW 7981   0.893   3.488   3.439
 1988SOL    HW2 7982   0.919   3.403   3.476
 1988SOL    HW3 7983   0.916   3.481   3.346
 1988SOL    MW4 7984   0.900   3.476   3.432
 1989SOL     OW 7985   1.127   3.650   3.485
 1989SOL    HW2 7986   1.125   3.642   3.581
 1989SOL    HW3 7987   1.051   3.599   3.456
 1989SOL    MW4 7988   1.117   3.642   3.494
 1990SOL     OW 7989   1.123   3.909   3.395
 1990SOL    HW2 7990   1.198   3.956   3.433
 1990SOL    HW3 7991   1.128   3.821   3.433
 1990SOL    MW4 7992   1.133   3.904   3.405
 1991SOL     OW 7993   0.872   4.034   3.485
 1991SOL    HW2 7994   0.938   3.979   3.442
 1991SOL    HW3 7995   0.789   4.003   3.449
 1991SOL    MW4 7996   0.870   4.023   3.474
 1992SOL     OW 7997   0.860   4.302   3.420
 1992SOL    HW2 7998   0.876   4.214   3.455
 1992SOL    HW3 7999   0.884   4.295   3.328
 1992SOL    MW4 8000   0.865   4.289   3.412
 1993SOL     OW 8001   1.106   4.415   3.453
 1993SOL    HW2 8002   1.022   4.375   3.429
 1993SOL    HW3 8003   1.099   4.505   3.420
 1993SOL    MW4 8004   1.094   4.422   3.445
 1994SOL     OW 8005   1.541   4.634   3.363
 1994SOL    HW2 8006   1.549   4.550   3.409
 1994SOL    HW3 8007   1.474   4.682   3.413
 1994SOL    MW4 8008   1.533   4.629   3.376
 1995SOL     OW 8009   1.338   0.115   3.486
 1995SOL    HW2 8010   1.334   0.122   3.581
 1995SOL    HW3 8011   1.345   0.206   3.455
 1995SOL    MW4 8012   1.339   0.128   3.494
 1996SOL     OW 8013   1.323   0.377   3.365
 1996SOL    HW2 8014   1.398   0.434   3.380
 1996SOL    HW3 8015   1.255   0.409   3.424
 1996SOL    MW4 8016   1.324   0.389   3.375
 1997SOL     OW 8017   1.557   0.513   3.462
 1997SOL    HW2 8018   1.566   0.520   3.557
 1997SOL    HW3 8019   1.625   0.451   3.436
 1997SOL    MW4 8020   1.567   0.506   3.471
 1998SOL     OW 8021   1.539   0.773   3.365
 1998SOL    HW2 8022   1.475   0.820   3.419
 1998SOL    HW3 8023   1.551   0.689   3.409
 1998SOL    MW4 8024   1.532   0.768   3.378
 1999SOL     OW 8025   1.336   0.897   3.492
 1999SOL    HW2 8026   1.340   0.908   3.587
 1999SOL    HW3 8027   1.331   0.986   3.457
 1999SOL    MW4 8028   1.336   0.910   3.500
 2000SOL     OW 8029   1.333   1.151   3.380
 2000SOL    HW2 8030   1.414   1.197   3.401
 2000SOL    HW3 8031   1.264   1.206   3.417
 2000SOL    MW4 8032   1.335   1.164   3.387
 2001SOL     OW 8033   1.565   1.273   3.496
 2001SOL    HW2 8034   1.566   1.282   3.591
 2001SOL    HW3 8035   1.638   1.214   3.476
 2001SOL    MW4 8036   1.575   1.266   3.506
 2002SOL     OW 8037   1.585   1.531   3.395
 2002SOL    HW2 8038   1.584   1.440   3.425
 2002SOL    HW3 8039   1.587   1.525   3.299
 2002SOL    MW4 8040   1.585   1.519   3.386
 2003SOL     OW 8041   1.330   1.683   3.449
 2003SOL    HW2 8042   1.326   1.675   3.544
 2003SOL    HW3 8043   1.402   1.626   3.423
 2003SOL    MW4 8044   1.339   1.674   3.458
 2004SOL     OW 8045   1.369   1.957   3.374
 2004SOL    HW2 8046   1.446   1.994   3.417
 2004SOL    HW3 8047   1.366   1.866   3.403
 2004SOL    MW4 8048   1.379   1.950   3.384
 2005SOL     OW 8049   1.590   2.087   3.503
 2005SOL    HW2 8050   1.656   2.034   3.458
 2005SOL    HW3 8051   1.599   2.174   3.465
 2005SOL    MW4 8052   1.600   2.091   3.492
 2006SOL     OW 8053   1.613   2.353   3.422
 2006SOL    HW2 8054   1.529   2.384   3.455
 2006SOL    HW3 8055   1.603   2.351   3.327
 2006SOL    MW4 8056   1.601   2.357   3.414
 2007SOL     OW 8057   1.370   2.451   3.514
 2007SOL    HW2 8058   1.368   2.440   3.609
 2007SOL    HW3 8059   1.350   2.543   3.499
 2007SOL    MW4 8060   1.367   2.462   3.524
 2008SOL     OW 8061   1.333   2.703   3.421
 2008SOL    HW2 8062   1.399   2.755   3.468
 2008SOL    HW3 8063   1.362   2.703   3.330
 2008SOL    MW4 8064   1.345   2.710   3.416
 2009SOL     OW 8065   1.551   2.855   3.490
 2009SOL    HW2 8066   1.634   2.821   3.455
 2009SOL    HW3 8067   1.548   2.945   3.459
 2009SOL    MW4 8068   1.562   2.862   3.481
 2010SOL     OW 8069   1.539   3.110   3.368
 2010SOL    HW2 8070   1.622   3.142   3.404
 2010SOL    HW3 8071   1.472   3.166   3.407
 2010SOL    MW4 8072   1.541   3.122   3.378
 2011SOL     OW 8073   1.333   3.272   3.471
 2011SOL    HW2 8074   1.344   3.304   3.560
 2011SOL    HW3 8075   1.257   3.215   3.475
 2011SOL    MW4 8076   1.325   3.269   3.483
 2012SOL     OW 8077   1.364   3.532   3.377
 2012SOL    HW2 8078   1.347   3.440   3.399
 2012SOL    HW3 8079   1.289   3.580   3.413
 2012SOL    MW4 8080   1.352   3.526   3.385
 2013SOL     OW 8081   1.611   3.642   3.459
 2013SOL    HW2 8082   1.605   3.637   3.555
 2013SOL    HW3 8083   1.529   3.604   3.428
 2013SOL    MW4 8084   1.600   3.636   3.468
 2014SOL     OW 8085   1.542   3.888   3.370
 2014SOL    HW2 8086   1.565   3.798   3.392
 2014SOL    HW3 8087   1.539   3.889   3.274
 2014SOL    MW4 8088   1.545   3.876   3.360
 2015SOL     OW 8089   1.337   4.050   3.495
 2015SOL    HW2 8090   1.337   4.133   3.449
 2015SOL    HW3 8091   1.410   4.001   3.456
 2015SOL    MW4 8092   1.347   4.054   3.484
 2016SOL     OW 8093   1.339   4.278   3.350
 2016SOL    HW2 8094   1.257   4.324   3.364
 2016SOL    HW3 8095   1.358   4.291   3.257
 2016SOL    MW4 8096   1.331   4.286   3.339
 2017SOL     OW 8097   1.567   4.370   3.479
 2017SOL    HW2 8098   1.642   4.324   3.440
 2017SOL    HW3 8099   1.492   4.339   3.429
 2017SOL    MW4 8100   1.567   4.360   3.467
 2018SOL     OW 8101   2.037   4.619   3.307
 2018SOL    HW2 8102   2.111   4.661   3.351
 2018SOL    HW3 8103   1.960   4.660   3.345
 2018SOL    MW4 8104   2.037   4.630   3.318
 2019SOL     OW 8105   1.797   0.078   3.449
 2019SOL    HW2 8106   1.806   0.072   3.545
 2019SOL    HW3 8107   1.707   0.051   3.432
 2019SOL    MW4 8108   1.786   0.074   3.460
 2020SOL     OW 8109   1.783   0.352   3.372
 2020SOL    HW2 8110   1.792   0.258   3.388
 2020SOL    HW3 8111   1.793   0.361   3.277
 2020SOL    MW4 8112   1.786   0.341   3.361
 2021SOL     OW 8113   2.012   0.480   3.471
 2021SOL    HW2 8114   2.010   0.574   3.455
 2021SOL    HW3 8115   1.927   0.448   3.440
 2021SOL    MW4 8116   2.000   0.488   3.465
 2022SOL     OW 8117   1.989   0.754   3.399
 2022SOL    HW2 8118   2.055   0.819   3.424
 2022SOL    HW3 8119   2.011   0.732   3.308
 2022SOL    MW4 8120   2.001   0.759   3.390
 2023SOL     OW 8121   1.765   0.890   3.499
 2023SOL    HW2 8122   1.840   0.845   3.460
 2023SOL    HW3 8123   1.689   0.852   3.453
 2023SOL    MW4 8124   1.765   0.879   3.488
 2024SOL     OW 8125   1.790   1.149   3.406
 2024SOL    HW2 8126   1.863   1.194   3.450
 2024SOL    HW3 8127   1.799   1.058   3.434
 2024SOL    MW4 8128   1.801   1.143   3.415
 2025SOL     OW 8129   2.016   1.279   3.493
 2025SOL    HW2 8130   2.040   1.274   3.586
 2025SOL    HW3 8131   2.004   1.372   3.477
 2025SOL    MW4 8132   2.018   1.291   3.503
 2026SOL     OW 8133   2.035   1.550   3.418
 2026SOL    HW2 8134   2.114   1.589   3.456
 2026SOL    HW3 8135   1.965   1.612   3.442
 2026SOL    MW4 8136   2.036   1.564   3.426
 2027SOL     OW 8137   1.807   1.683   3.481
 2027SOL    HW2 8138   1.796   1.767   3.437
 2027SOL    HW3 8139   1.737   1.628   3.446
 2027SOL    MW4 8140   1.797   1.687   3.470
 2028SOL     OW 8141   1.782   1.939   3.384
 2028SOL    HW2 8142   1.873   1.957   3.409
 2028SOL    HW3 8143   1.786   1.925   3.289
 2028SOL    MW4 8144   1.795   1.939   3.375
 2029SOL     OW 8145   2.029   2.026   3.480
 2029SOL    HW2 8146   2.121   2.006   3.467
 2029SOL    HW3 8147   2.022   2.120   3.463
 2029SOL    MW4 8148   2.040   2.036   3.476
 2030SOL     OW 8149   2.033   2.299   3.402
 2030SOL    HW2 8150   2.116   2.335   3.433
 2030SOL    HW3 8151   2.033   2.318   3.308
 2030SOL    MW4 8152   2.044   2.306   3.393
 2031SOL     OW 8153   1.831   2.465   3.526
 2031SOL    HW2 8154   1.899   2.415   3.481
 2031SOL    HW3 8155   1.749   2.421   3.501
 2031SOL    MW4 8156   1.829   2.453   3.517
 2032SOL     OW 8157   1.801   2.727   3.388
 2032SOL    HW2 8158   1.892   2.757   3.395
 2032SOL    HW3 8159   1.800   2.642   3.430
 2032SOL    MW4 8160   1.813   2.720   3.394
 2033SOL     OW 8161   2.036   2.830   3.495
 2033SOL    HW2 8162   2.031   2.818   3.589
 2033SOL    HW3 8163   2.032   2.924   3.482
 2033SOL    MW4 8164   2.035   2.841   3.505
 2034SOL     OW 8165   2.018   3.091   3.421
 2034SOL    HW2 8166   2.094   3.140   3.451
 2034SOL    HW3 8167   1.946   3.119   3.477
 2034SOL    MW4 8168   2.018   3.101   3.432
 2035SOL     OW 8169   1.767   3.208   3.500
 2035SOL    HW2 8170   1.723   3.209   3.585
 2035SOL    HW3 8171   1.788   3.300   3.483
 2035SOL    MW4 8172   1.764   3.220   3.509
 2036SOL     OW 8173   1.826   3.463   3.413
 2036SOL    HW2 8174   1.752   3.521   3.434
 2036SOL    HW3 8175   1.837   3.472   3.319
 2036SOL    MW4 8176   1.817   3.472   3.404
 2037SOL     OW 8177   2.035   3.611   3.493
 2037SOL    HW2 8178   2.113   3.560   3.471
 2037SOL    HW3 8179   1.963   3.548   3.490
 2037SOL    MW4 8180   2.036   3.596   3.489
 2038SOL     OW 8181   2.034   3.871   3.393
 2038SOL    HW2 8182   1.954   3.911   3.428
 2038SOL    HW3 8183   2.029   3.779   3.419
 2038SOL    MW4 8184   2.023   3.864   3.401
 2039SOL     OW 8185   1.790   4.003   3.463
 2039SOL    HW2 8186   1.772   4.023   3.555
 2039SOL    HW3 8187   1.711   3.958   3.433
 2039SOL    MW4 8188   1.777   4.000   3.471
 2040SOL     OW 8189   1.807   4.262   3.337
 2040SOL    HW2 8190   1.820   4.171   3.362
 2040SOL    HW3 8191   1.800   4.260   3.242
 2040SOL    MW4 8192   1.808   4.250   3.328
 2041SOL     OW 8193   2.021   4.386   3.456
 2041SOL    HW2 8194   1.949   4.337   3.417
 2041SOL    HW3 8195   2.030   4.464   3.401
 2041SOL    MW4 8196   2.013   4.390   3.443
 2042SOL     OW 8197   2.488   4.611   3.356
 2042SOL    HW2 8198   2.494   4.517   3.368
 2042SOL    HW3 8199   2.497   4.624   3.261
 2042SOL    MW4 8200   2.490   4.600   3.345
 2043SOL     OW 8201   2.254   0.073   3.447
 2043SOL    HW2 8202   2.268   0.167   3.435
 2043SOL    HW3 8203   2.335   0.033   3.418
 2043SOL    MW4 8204   2.266   0.080   3.442
 2044SOL     OW 8205   2.266   0.360   3.395
 2044SOL    HW2 8206   2.333   0.395   3.454
 2044SOL    HW3 8207   2.183   0.394   3.430
 2044SOL    MW4 8208   2.264   0.369   3.407
 2045SOL     OW 8209   2.468   0.496   3.529
 2045SOL    HW2 8210   2.541   0.449   3.487
 2045SOL    HW3 8211   2.459   0.577   3.479
 2045SOL    MW4 8212   2.477   0.500   3.517
 2046SOL     OW 8213   2.444   0.737   3.398
 2046SOL    HW2 8214   2.522   0.776   3.438
 2046SOL    HW3 8215   2.450   0.762   3.306
 2046SOL    MW4 8216   2.455   0.746   3.391
 2047SOL     OW 8217   2.229   0.905   3.480
 2047SOL    HW2 8218   2.240   0.992   3.441
 2047SOL    HW3 8219   2.303   0.854   3.446
 2047SOL    MW4 8220   2.240   0.910   3.471
 2048SOL     OW 8221   2.223   1.161   3.344
 2048SOL    HW2 8222   2.300   1.181   3.397
 2048SOL    HW3 8223   2.151   1.204   3.390
 2048SOL    MW4 8224   2.223   1.169   3.357
 2049SOL     OW 8225   2.450   1.215   3.511
 2049SOL    HW2 8226   2.456   1.209   3.606
 2049SOL    HW3 8227   2.540   1.202   3.480
 2049SOL    MW4 8228   2.463   1.213   3.520
 2050SOL     OW 8229   2.458   1.489   3.438
 2050SOL    HW2 8230   2.442   1.397   3.461
 2050SOL    HW3 8231   2.464   1.489   3.343
 2050SOL    MW4 8232   2.457   1.477   3.429
 2051SOL     OW 8233   2.268   1.675   3.531
 2051SOL    HW2 8234   2.257   1.647   3.622
 2051SOL    HW3 8235   2.331   1.613   3.494
 2051SOL    MW4 8236   2.275   1.663   3.538
 2052SOL     OW 8237   2.293   1.949   3.420
 2052SOL    HW2 8238   2.287   1.855   3.440
 2052SOL    HW3 8239   2.282   1.954   3.325
 2052SOL    MW4 8240   2.291   1.937   3.410
 2053SOL     OW 8241   2.540   2.056   3.476
 2053SOL    HW2 8242   2.544   2.061   3.571
 2053SOL    HW3 8243   2.456   2.013   3.457
 2053SOL    MW4 8244   2.529   2.051   3.486
 2054SOL     OW 8245   2.513   2.318   3.388
 2054SOL    HW2 8246   2.593   2.364   3.414
 2054SOL    HW3 8247   2.527   2.228   3.417
 2054SOL    MW4 8248   2.526   2.312   3.395
 2055SOL     OW 8249   2.263   2.433   3.520
 2055SOL    HW2 8250   2.246   2.515   3.475
 2055SOL    HW3 8251   2.349   2.405   3.487
 2055SOL    MW4 8252   2.272   2.440   3.510
 2056SOL     OW 8253   2.240   2.678   3.354
 2056SOL    HW2 8254   2.173   2.741   3.381
 2056SOL    HW3 8255   2.223   2.662   3.261
 2056SOL    MW4 8256   2.229   2.684   3.345
 2057SOL     OW 8257   2.473   2.804   3.421
 2057SOL    HW2 8258   2.455   2.895   3.398
 2057SOL    HW3 8259   2.399   2.755   3.386
 2057SOL    MW4 8260   2.461   2.809   3.414
 2058SOL     OW 8261   2.436   3.068   3.365
 2058SOL    HW2 8262   2.509   3.103   3.415
 2058SOL    HW3 8263   2.454   3.094   3.275
 2058SOL    MW4 8264   2.448   3.076   3.360
 2059SOL     OW 8265   2.244   3.212   3.510
 2059SOL    HW2 8266   2.265   3.195   3.601
 2059SOL    HW3 8267   2.312   3.167   3.460
 2059SOL    MW4 8268   2.256   3.204   3.515
 2060SOL     OW 8269   2.278   3.488   3.423
 2060SOL    HW2 8270   2.272   3.395   3.447
 2060SOL    HW3 8271   2.246   3.491   3.333
 2060SOL    MW4 8272   2.273   3.476   3.414
 2061SOL     OW 8273   2.533   3.572   3.492
 2061SOL    HW2 8274   2.541   3.664   3.469
 2061SOL    HW3 8275   2.445   3.547   3.464
 2061SOL    MW4 8276   2.523   3.581   3.486
 2062SOL     OW 8277   2.529   3.837   3.405
 2062SOL    HW2 8278   2.599   3.897   3.430
 2062SOL    HW3 8279   2.448   3.881   3.432
 2062SOL    MW4 8280   2.527   3.851   3.412
 2063SOL     OW 8281   2.277   3.961   3.468
 2063SOL    HW2 8282   2.277   4.052   3.439
 2063SOL    HW3 8283   2.188   3.931   3.452
 2063SOL    MW4 8284   2.265   3.969   3.462
 2064SOL     OW 8285   2.244   4.207   3.375
 2064SOL    HW2 8286   2.176   4.270   3.402
 2064SOL    HW3 8287   2.234   4.202   3.280
 2064SOL    MW4 8288   2.233   4.215   3.366
 2065SOL     OW 8289   2.498   4.339   3.417
 2065SOL    HW2 8290   2.489   4.342   3.512
 2065SOL    HW3 8291   2.421   4.290   3.387
 2065SOL    MW4 8292   2.486   4.333   3.425
 2066SOL     OW 8293   2.936   4.634   3.407
 2066SOL    HW2 8294   2.850   4.664   3.437
 2066SOL    HW3 8295   2.926   4.622   3.313
 2066SOL    MW4 8296   2.924   4.636   3.398
 2067SOL     OW 8297   2.686   0.074   3.502
 2067SOL    HW2 8298   2.695   0.155   3.453
 2067SOL    HW3 8299   2.630   0.019   3.447
 2067SOL    MW4 8300   2.680   0.077   3.488
 2068SOL     OW 8301   2.703   0.321   3.370
 2068SOL    HW2 8302   2.772   0.373   3.412
 2068SOL    HW3 8303   2.707   0.345   3.278
 2068SOL    MW4 8304   2.713   0.331   3.364
 2069SOL     OW 8305   2.921   0.457   3.434
 2069SOL    HW2 8306   2.919   0.468   3.529
 2069SOL    HW3 8307   2.914   0.547   3.400
 2069SOL    MW4 8308   2.920   0.470   3.442
 2070SOL     OW 8309   2.902   0.738   3.380
 2070SOL    HW2 8310   2.980   0.775   3.422
 2070SOL    HW3 8311   2.829   0.780   3.425
 2070SOL    MW4 8312   2.903   0.748   3.392
 2071SOL     OW 8313   2.674   0.864   3.513
 2071SOL    HW2 8314   2.687   0.870   3.607
 2071SOL    HW3 8315   2.685   0.954   3.481
 2071SOL    MW4 8316   2.677   0.877   3.521
 2072SOL     OW 8317   2.701   1.122   3.414
 2072SOL    HW2 8318   2.780   1.175   3.428
 2072SOL    HW3 8319   2.684   1.129   3.320
 2072SOL    MW4 8320   2.709   1.130   3.404
 2073SOL     OW 8321   2.930   1.293   3.455
 2073SOL    HW2 8322   2.934   1.282   3.550
 2073SOL    HW3 8323   2.991   1.228   3.421
 2073SOL    MW4 8324   2.939   1.283   3.463
 2074SOL     OW 8325   2.907   1.555   3.373
 2074SOL    HW2 8326   2.825   1.585   3.412
 2074SOL    HW3 8327   2.915   1.464   3.401
 2074SOL    MW4 8328   2.898   1.547   3.382
 2075SOL     OW 8329   2.694   1.644   3.523
 2075SOL    HW2 8330   2.684   1.725   3.473
 2075SOL    HW3 8331   2.614   1.595   3.506
 2075SOL    MW4 8332   2.682   1.649   3.514
 2076SOL     OW 8333   2.693   1.863   3.335
 2076SOL    HW2 8334   2.636   1.926   3.379
 2076SOL    HW3 8335   2.696   1.893   3.244
 2076SOL    MW4 8336   2.686   1.875   3.329
 2077SOL     OW 8337   2.927   2.017   3.438
 2077SOL    HW2 8338   2.906   2.030   3.531
 2077SOL    HW3 8339   2.852   1.969   3.403
 2077SOL    MW4 8340   2.914   2.012   3.446
 2078SOL     OW 8341   2.949   2.286   3.351
 2078SOL    HW2 8342   2.948   2.194   3.378
 2078SOL    HW3 8343   2.920   2.284   3.260
 2078SOL    MW4 8344   2.945   2.274   3.343
 2079SOL     OW 8345   2.754   2.431   3.471
 2079SOL    HW2 8346   2.769   2.418   3.564
 2079SOL    HW3 8347   2.830   2.392   3.428
 2079SOL    MW4 8348   2.766   2.424   3.478
 2080SOL     OW 8349   2.718   2.692   3.372
 2080SOL    HW2 8350   2.720   2.603   3.406
 2080SOL    HW3 8351   2.633   2.727   3.399
 2080SOL    MW4 8352   2.707   2.685   3.380
 2081SOL     OW 8353   2.958   2.789   3.443
 2081SOL    HW2 8354   2.952   2.799   3.538
 2081SOL    HW3 8355   2.870   2.763   3.416
 2081SOL    MW4 8356   2.945   2.787   3.452
 2082SOL     OW 8357   2.911   3.062   3.404
 2082SOL    HW2 8358   2.927   2.968   3.415
 2082SOL    HW3 8359   2.894   3.073   3.311
 2082SOL    MW4 8360   2.911   3.051   3.393
 2083SOL     OW 8361   2.683   3.185   3.472
 2083SOL    HW2 8362   2.691   3.194   3.567
 2083SOL    HW3 8363   2.765   3.143   3.445
 2083SOL    MW4 8364   2.695   3.181   3.481
 2084SOL     OW 8365   2.729   3.434   3.374
 2084SOL    HW2 8366   2.688   3.353   3.407
 2084SOL    HW3 8367   2.664   3.502   3.394
 2084SOL    MW4 8368   2.715   3.432   3.381
 2085SOL     OW 8369   2.946   3.613   3.509
 2085SOL    HW2 8370   2.941   3.698   3.465
 2085SOL    HW3 8371   2.878   3.560   3.467
 2085SOL    MW4 8372   2.936   3.617   3.498
 2086SOL     OW 8373   2.933   3.851   3.408
 2086SOL    HW2 8374   3.009   3.908   3.417
 2086SOL    HW3 8375   2.860   3.903   3.443
 2086SOL    MW4 8376   2.933   3.866   3.414
 2087SOL     OW 8377   2.721   4.012   3.482
 2087SOL    HW2 8378   2.703   4.023   3.575
 2087SOL    HW3 8379   2.733   4.101   3.449
 2087SOL    MW4 8380   2.720   4.025   3.490
 2088SOL     OW 8381   2.758   4.260   3.372
 2088SOL    HW2 8382   2.825   4.294   3.430
 2088SOL    HW3 8383   2.675   4.281   3.416
 2088SOL    MW4 8384   2.756   4.267   3.385
 2089SOL     OW 8385   2.955   4.362   3.525
 2089SOL    HW2 8386   2.914   4.376   3.610
 2089SOL    HW3 8387   2.974   4.450   3.493
 2089SOL    MW4 8388   2.952   4.375   3.532
 2090SOL     OW 8389   3.416   4.625   3.394
 2090SOL    HW2 8390   3.332   4.664   3.417
 2090SOL    HW3 8391   3.413   4.615   3.299
 2090SOL    MW4 8392   3.405   4.629   3.384
 2091SOL     OW 8393   3.178   0.059   3.471
 2091SOL    HW2 8394   3.174   0.150   3.442
 2091SOL    HW3 8395   3.093   0.022   3.444
 2091SOL    MW4 8396   3.166   0.066   3.463
 2092SOL     OW 8397   3.164   0.325   3.395
 2092SOL    HW2 8398   3.084   0.374   3.412
 2092SOL    HW3 8399   3.169   0.320   3.299
 2092SOL    MW4 8400   3.154   0.331   3.385
 2093SOL     OW 8401   3.352   0.486   3.481
 2093SOL    HW2 8402   3.366   0.468   3.574
 2093SOL    HW3 8403   3.288   0.421   3.453
 2093SOL    MW4 8404   3.346   0.475   3.490
 2094SOL     OW 8405   3.343   0.756   3.399
 2094SOL    HW2 8406   3.419   0.797   3.439
 2094SOL    HW3 8407   3.345   0.665   3.428
 2094SOL    MW4 8408   3.353   0.750   3.408
 2095SOL     OW 8409   3.111   0.877   3.507
 2095SOL    HW2 8410   3.105   0.966   3.472
 2095SOL    HW3 8411   3.189   0.840   3.467
 2095SOL    MW4 8412   3.120   0.884   3.497
 2096SOL     OW 8413   3.108   1.114   3.368
 2096SOL    HW2 8414   3.186   1.163   3.393
 2096SOL    HW3 8415   3.109   1.114   3.272
 2096SOL    MW4 8416   3.118   1.121   3.359
 2097SOL     OW 8417   3.324   1.249   3.480
 2097SOL    HW2 8418   3.411   1.212   3.466
 2097SOL    HW3 8419   3.331   1.339   3.446
 2097SOL    MW4 8420   3.336   1.256   3.473
 2098SOL     OW 8421   3.368   1.537   3.382
 2098SOL    HW2 8422   3.442   1.569   3.434
 2098SOL    HW3 8423   3.292   1.584   3.417
 2098SOL    MW4 8424   3.368   1.547   3.394
 2099SOL     OW 8425   3.138   1.637   3.505
 2099SOL    HW2 8426   3.154   1.728   3.479
 2099SOL    HW3 8427   3.048   1.620   3.476
 2099SOL    MW4 8428   3.128   1.647   3.498
 2100SOL     OW 8429   3.161   1.901   3.365
 2100SOL    HW2 8430   3.080   1.936   3.402
 2100SOL    HW3 8431   3.157   1.925   3.272
 2100SOL    MW4 8432   3.150   1.909   3.357
 2101SOL     OW 8433   3.356   2.043   3.498
 2101SOL    HW2 8434   3.380   2.120   3.446
 2101SOL    HW3 8435   3.291   1.998   3.444
 2101SOL    MW4 8436   3.350   2.047   3.484
 2102SOL     OW 8437   3.387   2.292   3.334
 2102SOL    HW2 8438   3.455   2.325   3.394
 2102SOL    HW3 8439   3.305   2.321   3.373
 2102SOL    MW4 8440   3.385   2.300   3.347
 2103SOL     OW 8441   3.178   2.399   3.465
 2103SOL    HW2 8442   3.187   2.488   3.430
 2103SOL    HW3 8443   3.101   2.364   3.420
 2103SOL    MW4 8444   3.169   2.406   3.454
 2104SOL     OW 8445   3.209   2.670   3.379
 2104SOL    HW2 8446   3.274   2.718   3.430
 2104SOL    HW3 8447   3.125   2.705   3.409
 2104SOL    MW4 8448   3.206   2.681   3.390
 2105SOL     OW 8449   3.387   2.846   3.520
 2105SOL    HW2 8450   3.463   2.805   3.478
 2105SOL    HW3 8451   3.377   2.929   3.474
 2105SOL    MW4 8452   3.396   2.851   3.508
 2106SOL     OW 8453   3.377   3.080   3.357
 2106SOL    HW2 8454   3.441   3.136   3.401
 2106SOL    HW3 8455   3.292   3.121   3.375
 2106SOL    MW4 8456   3.374   3.092   3.366
 2107SOL     OW 8457   3.151   3.193   3.468
 2107SOL    HW2 8458   3.134   3.281   3.434
 2107SOL    HW3 8459   3.069   3.146   3.452
 2107SOL    MW4 8460   3.138   3.199   3.461
 2108SOL     OW 8461   3.161   3.457   3.406
 2108SOL    HW2 8462   3.091   3.514   3.440
 2108SOL    HW3 8463   3.154   3.465   3.311
 2108SOL    MW4 8464   3.151   3.465   3.398
 2109SOL     OW 8465   3.377   3.613   3.510
 2109SOL    HW2 8466   3.372   3.702   3.477
 2109SOL    HW3 8467   3.304   3.567   3.467
 2109SOL    MW4 8468   3.366   3.618   3.500
 2110SOL     OW 8469   3.383   3.865   3.393
 2110SOL    HW2 8470   3.452   3.915   3.437
 2110SOL    HW3 8471   3.305   3.920   3.399
 2110SOL    MW4 8472   3.382   3.879   3.399
 2111SOL     OW 8473   3.173   4.034   3.433
 2111SOL    HW2 8474   3.165   4.051   3.527
 2111SOL    HW3 8475   3.166   4.120   3.392
 2111SOL    MW4 8476   3.171   4.047   3.440
 2112SOL     OW 8477   3.166   4.285   3.339
 2112SOL    HW2 8478   3.249   4.301   3.383
 2112SOL    HW3 8479   3.099   4.296   3.407
 2112SOL    MW4 8480   3.168   4.289   3.353
 2113SOL     OW 8481   3.391   4.368   3.487
 2113SOL    HW2 8482   3.393   4.379   3.582
 2113SOL    HW3 8483   3.381   4.457   3.452
 2113SOL    MW4 8484   3.390   4.381   3.495
 2114SOL     OW 8485   3.850   0.030   3.378
 2114SOL    HW2 8486   3.769   0.064   3.417
 2114SOL    HW3 8487   3.827   0.016   3.286
 2114SOL    MW4 8488   3.836   0.032   3.371
 2115SOL     OW 8489   3.626   0.094   3.510
 2115SOL    HW2 8490   3.607   0.183   3.480
 2115SOL    HW3 8491   3.557   0.040   3.470
 2115SOL    MW4 8492   3.614   0.098   3.500
 2116SOL     OW 8493   3.588   0.361   3.418
 2116SOL    HW2 8494   3.655   0.409   3.466
 2116SOL    HW3 8495   3.508   0.412   3.430
 2116SOL    MW4 8496   3.586   0.374   3.426
 2117SOL     OW 8497   3.811   0.506   3.545
 2117SOL    HW2 8498   3.808   0.495   3.640
 2117SOL    HW3 8499   3.894   0.466   3.519
 2117SOL    MW4 8500   3.821   0.499   3.554
 2118SOL     OW 8501   3.798   0.719   3.377
 2118SOL    HW2 8502   3.876   0.773   3.391
 2118SOL    HW3 8503   3.812   0.641   3.430
 2118SOL    MW4 8504   3.810   0.716   3.386
 2119SOL     OW 8505   3.579   0.853   3.477
 2119SOL    HW2 8506   3.587   0.871   3.571
 2119SOL    HW3 8507   3.655   0.798   3.457
 2119SOL    MW4 8508   3.590   0.848   3.487
 2120SOL     OW 8509   3.572   1.116   3.419
 2120SOL    HW2 8510   3.589   1.025   3.443
 2120SOL    HW3 8511   3.568   1.115   3.323
 2120SOL    MW4 8512   3.574   1.104   3.409
 2121SOL     OW 8513   3.790   1.287   3.529
 2121SOL    HW2 8514   3.775   1.285   3.623
 2121SOL    HW3 8515   3.718   1.234   3.492
 2121SOL    MW4 8516   3.778   1.279   3.536
 2122SOL     OW 8517   3.792   1.550   3.448
 2122SOL    HW2 8518   3.877   1.582   3.476
 2122SOL    HW3 8519   3.797   1.455   3.457
 2122SOL    MW4 8520   3.804   1.542   3.453
 2123SOL     OW 8521   3.565   1.685   3.533
 2123SOL    HW2 8522   3.576   1.766   3.483
 2123SOL    HW3 8523   3.646   1.636   3.517
 2123SOL    MW4 8524   3.577   1.689   3.524
 2124SOL     OW 8525   3.595   1.919   3.379
 2124SOL    HW2 8526   3.653   1.975   3.430
 2124SOL    HW3 8527   3.507   1.948   3.403
 2124SOL    MW4 8528   3.591   1.930   3.389
 2125SOL     OW 8529   3.764   2.105   3.476
 2125SOL    HW2 8530   3.768   2.116   3.571
 2125SOL    HW3 8531   3.843   2.055   3.455
 2125SOL    MW4 8532   3.775   2.100   3.486
 2126SOL     OW 8533   3.806   2.356   3.392
 2126SOL    HW2 8534   3.893   2.383   3.422
 2126SOL    HW3 8535   3.799   2.264   3.416
 2126SOL    MW4 8536   3.817   2.348   3.399
 2127SOL     OW 8537   3.564   2.406   3.495
 2127SOL    HW2 8538   3.554   2.501   3.503
 2127SOL    HW3 8539   3.654   2.394   3.464
 2127SOL    MW4 8540   3.575   2.417   3.492
 2128SOL     OW 8541   3.597   2.691   3.427
 2128SOL    HW2 8542   3.675   2.742   3.446
 2128SOL    HW3 8543   3.604   2.671   3.333
 2128SOL    MW4 8544   3.608   2.695   3.417
 2129SOL     OW 8545   3.818   2.839   3.479
 2129SOL    HW2 8546   3.827   2.836   3.575
 2129SOL    HW3 8547   3.836   2.931   3.457
 2129SOL    MW4 8548   3.822   2.851   3.489
 2130SOL     OW 8549   3.829   3.100   3.402
 2130SOL    HW2 8550   3.912   3.115   3.447
 2130SOL    HW3 8551   3.851   3.103   3.309
 2130SOL    MW4 8552   3.843   3.102   3.396
 2131SOL     OW 8553   3.602   3.215   3.525
 2131SOL    HW2 8554   3.609   3.299   3.479
 2131SOL    HW3 8555   3.673   3.162   3.490
 2131SOL    MW4 8556   3.612   3.219   3.514
 2132SOL     OW 8557   3.603   3.481   3.400
 2132SOL    HW2 8558   3.526   3.530   3.431
 2132SOL    HW3 8559   3.609   3.503   3.307
 2132SOL    MW4 8560   3.593   3.491   3.392
 2133SOL     OW 8561   3.834   3.635   3.461
 2133SOL    HW2 8562   3.839   3.638   3.556
 2133SOL    HW3 8563   3.757   3.580   3.443
 2133SOL    MW4 8564   3.824   3.628   3.471
 2134SOL     OW 8565   3.806   3.888   3.404
 2134SOL    HW2 8566   3.733   3.925   3.455
 2134SOL    HW3 8567   3.811   3.797   3.432
 2134SOL    MW4 8568   3.797   3.881   3.414
 2135SOL     OW 8569   3.579   4.007   3.511
 2135SOL    HW2 8570   3.608   4.000   3.602
 2135SOL    HW3 8571   3.588   4.100   3.490
 2135SOL    MW4 8572   3.584   4.018   3.521
 2136SOL     OW 8573   3.638   4.256   3.399
 2136SOL    HW2 8574   3.556   4.290   3.435
 2136SOL    HW3 8575   3.619   4.242   3.306
 2136SOL    MW4 8576   3.625   4.259   3.392
 2137SOL     OW 8577   3.850   4.415   3.474
 2137SOL    HW2 8578   3.768   4.375   3.444
 2137SOL    HW3 8579   3.854   4.498   3.427
 2137SOL    MW4 8580   3.840   4.421   3.464
 2138SOL     OW 8581   4.299   0.010   3.387
 2138SOL    HW2 8582   4.296  -0.085   3.392
 2138SOL    HW3 8583   4.377   0.034   3.437
 2138SOL    MW4 8584   4.309   0.001   3.394
 2139SOL     OW 8585   4.080   0.127   3.494
 2139SOL    HW2 8586   4.158   0.080   3.465
 2139SOL    HW3 8587   4.007   0.078   3.456
 2139SOL    MW4 8588   4.081   0.114   3.485
 2140SOL     OW 8589   4.018   0.387   3.401
 2140SOL    HW2 8590   4.003   0.294   3.414
 2140SOL    HW3 8591   4.028   0.397   3.306
 2140SOL    MW4 8592   4.017   0.376   3.390
 2141SOL     OW 8593   4.270   0.461   3.464
 2141SOL    HW2 8594   4.263   0.556   3.457
 2141SOL    HW3 8595   4.184   0.429   3.437
 2141SOL    MW4 8596   4.258   0.469   3.459
 2142SOL     OW 8597   4.233   0.726   3.411
 2142SOL    HW2 8598   4.308   0.779   3.436
 2142SOL    HW3 8599   4.232   0.727   3.315
 2142SOL    MW4 8600   4.243   0.733   3.402
 2143SOL     OW 8601   3.991   0.861   3.492
 2143SOL    HW2 8602   3.996   0.952   3.464
 2143SOL    HW3 8603   4.074   0.822   3.463
 2143SOL    MW4 8604   4.002   0.868   3.484
 2144SOL     OW 8605   3.992   1.125   3.427
 2144SOL    HW2 8606   4.071   1.179   3.435
 2144SOL    HW3 8607   3.925   1.174   3.475
 2144SOL    MW4 8608   3.993   1.139   3.434
 2145SOL     OW 8609   4.233   1.267   3.471
 2145SOL    HW2 8610   4.242   1.361   3.456
 2145SOL    HW3 8611   4.314   1.229   3.438
 2145SOL    MW4 8612   4.245   1.274   3.464
 2146SOL     OW 8613   4.258   1.542   3.422
 2146SOL    HW2 8614   4.181   1.591   3.449
 2146SOL    HW3 8615   4.254   1.540   3.326
 2146SOL    MW4 8616   4.247   1.548   3.413
 2147SOL     OW 8617   4.028   1.670   3.492
 2147SOL    HW2 8618   4.020   1.674   3.587
 2147SOL    HW3 8619   4.016   1.760   3.462
 2147SOL    MW4 8620   4.025   1.682   3.500
 2148SOL     OW 8621   4.011   1.954   3.429
 2148SOL    HW2 8622   4.101   1.963   3.459
 2148SOL    HW3 8623   4.018   1.947   3.334
 2148SOL    MW4 8624   4.023   1.954   3.420
 2149SOL     OW 8625   4.273   2.040   3.527
 2149SOL    HW2 8626   4.273   2.125   3.483
 2149SOL    HW3 8627   4.352   1.997   3.495
 2149SOL    MW4 8628   4.284   2.046   3.517
 2150SOL     OW 8629   4.286   2.286   3.381
 2150SOL    HW2 8630   4.208   2.335   3.409
 2150SOL    HW3 8631   4.297   2.310   3.289
 2150SOL    MW4 8632   4.277   2.296   3.372
 2151SOL     OW 8633   4.070   2.440   3.452
 2151SOL    HW2 8634   4.071   2.443   3.548
 2151SOL    HW3 8635   4.081   2.531   3.425
 2151SOL    MW4 8636   4.072   2.452   3.461
 2152SOL     OW 8637   4.045   2.723   3.386
 2152SOL    HW2 8638   4.118   2.761   3.435
 2152SOL    HW3 8639   3.967   2.753   3.433
 2152SOL    MW4 8640   4.044   2.732   3.399
 2153SOL     OW 8641   4.272   2.845   3.467
 2153SOL    HW2 8642   4.278   2.846   3.563
 2153SOL    HW3 8643   4.352   2.801   3.438
 2153SOL    MW4 8644   4.283   2.839   3.476
 2154SOL     OW 8645   4.303   3.109   3.403
 2154SOL    HW2 8646   4.286   3.018   3.426
 2154SOL    HW3 8647   4.310   3.110   3.308
 2154SOL    MW4 8648   4.302   3.097   3.394
 2155SOL     OW 8649   4.064   3.236   3.503
 2155SOL    HW2 8650   4.067   3.323   3.462
 2155SOL    HW3 8651   4.143   3.192   3.473
 2155SOL    MW4 8652   4.074   3.242   3.494
 2156SOL     OW 8653   4.058   3.484   3.391
 2156SOL    HW2 8654   4.123   3.542   3.431
 2156SOL    HW3 8655   3.974   3.525   3.412
 2156SOL    MW4 8656   4.056   3.497   3.399
 2157SOL     OW 8657   4.242   3.652   3.514
 2157SOL    HW2 8658   4.264   3.656   3.607
 2157SOL    HW3 8659   4.260   3.741   3.482
 2157SOL    MW4 8660   4.248   3.665   3.522
 2158SOL     OW 8661   4.296   3.909   3.439
 2158SOL    HW2 8662   4.382   3.947   3.460
 2158SOL    HW3 8663   4.288   3.920   3.344
 2158SOL    MW4 8664   4.307   3.916   3.429
 2159SOL     OW 8665   4.051   4.009   3.504
 2159SOL    HW2 8666   4.140   3.982   3.481
 2159SOL    HW3 8667   3.995   3.944   3.462
 2159SOL    MW4 8668   4.055   3.997   3.495
 2160SOL     OW 8669   4.050   4.254   3.367
 2160SOL    HW2 8670   4.060   4.168   3.409
 2160SOL    HW3 8671   3.972   4.291   3.408
 2160SOL    MW4 8672   4.041   4.247   3.378
 2161SOL     OW 8673   4.281   4.395   3.469
 2161SOL    HW2 8674   4.282   4.404   3.564
 2161SOL    HW3 8675   4.194   4.361   3.449
 2161SOL    MW4 8676   4.269   4.392   3.479
 2162SOL     OW 8677   0.214   0.024   3.853
 2162SOL    HW2 8678   0.197   0.001   3.944
 2162SOL    HW3 8679   0.138   0.075   3.826
 2162SOL    MW4 8680   0.202   0.028   3.861
 2163SOL     OW 8681   4.452   0.158   3.819
 2163SOL    HW2 8682   4.464   0.249   3.847
 2163SOL    HW3 8683   4.448   0.163   3.724
 2163SOL    MW4 8684   4.453   0.171   3.810
 2164SOL     OW 8685   4.490   0.410   3.907
 2164SOL    HW2 8686   4.403   0.433   3.873
 2164SOL    HW3 8687   4.551   0.453   3.847
 2164SOL    MW4 8688   4.486   0.419   3.894
 2165SOL     OW 8689   0.220   0.530   3.756
 2165SOL    HW2 8690   0.231   0.622   3.781
 2165SOL    HW3 8691   0.240   0.528   3.663
 2165SOL    MW4 8692   0.224   0.542   3.747
 2166SOL     OW 8693   0.223   0.793   3.846
 2166SOL    HW2 8694   0.218   0.795   3.942
 2166SOL    HW3 8695   0.148   0.845   3.817
 2166SOL    MW4 8696   0.212   0.800   3.855
 2167SOL     OW 8697   4.471   0.919   3.789
 2167SOL    HW2 8698   4.393   0.876   3.824
 2167SOL    HW3 8699   4.474   1.003   3.834
 2167SOL    MW4 8700   4.461   0.924   3.800
 2168SOL     OW 8701   0.011   1.168   3.886
 2168SOL    HW2 8702  -0.074   1.202   3.857
 2168SOL    HW3 8703   0.076   1.217   3.835
 2168SOL    MW4 8704   0.008   1.179   3.875
 2169SOL     OW 8705   0.193   1.314   3.761
 2169SOL    HW2 8706   0.197   1.406   3.788
 2169SOL    HW3 8707   0.186   1.318   3.665
 2169SOL    MW4 8708   0.193   1.327   3.752
 2170SOL     OW 8709   0.227   1.585   3.851
 2170SOL    HW2 8710   0.247   1.571   3.944
 2170SOL    HW3 8711   0.136   1.614   3.851
 2170SOL    MW4 8712   0.218   1.587   3.864
 2171SOL     OW 8713   4.442   1.706   3.822
 2171SOL    HW2 8714   4.461   1.792   3.858
 2171SOL    HW3 8715   4.480   1.708   3.734
 2171SOL    MW4 8716   4.450   1.717   3.815
 2172SOL     OW 8717   0.007   1.955   3.923
 2172SOL    HW2 8718  -0.006   1.950   4.017
 2172SOL    HW3 8719  -0.070   2.000   3.890
 2172SOL    MW4 8720  -0.005   1.960   3.931
 2173SOL     OW 8721   0.273   2.058   3.766
 2173SOL    HW2 8722   0.271   2.154   3.763
 2173SOL    HW3 8723   0.202   2.034   3.825
 2173SOL    MW4 8724   0.264   2.067   3.773
 2174SOL     OW 8725   0.269   2.351   3.834
 2174SOL    HW2 8726   0.236   2.331   3.921
 2174SOL    HW3 8727   0.199   2.402   3.792
 2174SOL    MW4 8728   0.255   2.355   3.840
 2175SOL     OW 8729   0.040   2.476   3.728
 2175SOL    HW2 8730  -0.039   2.434   3.763
 2175SOL    HW3 8731   0.031   2.568   3.753
 2175SOL    MW4 8732   0.029   2.483   3.736
 2176SOL     OW 8733   0.023   2.740   3.823
 2176SOL    HW2 8734   0.017   2.729   3.918
 2176SOL    HW3 8735   0.098   2.798   3.811
 2176SOL    MW4 8736   0.032   2.746   3.834
 2177SOL     OW 8737   0.247   2.898   3.761
 2177SOL    HW2 8738   0.314   2.834   3.787
 2177SOL    HW3 8739   0.219   2.869   3.674
 2177SOL    MW4 8740   0.252   2.886   3.753
 2178SOL     OW 8741   0.259   3.142   3.869
 2178SOL    HW2 8742   0.261   3.135   3.964
 2178SOL    HW3 8743   0.253   3.051   3.839
 2178SOL    MW4 8744   0.259   3.129   3.878
 2179SOL     OW 8745   0.008   3.260   3.799
 2179SOL    HW2 8746   0.088   3.210   3.812
 2179SOL    HW3 8747   0.001   3.270   3.704
 2179SOL    MW4 8748   0.017   3.255   3.788
 2180SOL     OW 8749   4.480   3.508   3.925
 2180SOL    HW2 8750   4.557   3.552   3.888
 2180SOL    HW3 8751   4.485   3.418   3.892
 2180SOL    MW4 8752   4.490   3.502   3.916
 2181SOL     OW 8753   0.196   3.657   3.768
 2181SOL    HW2 8754   0.281   3.622   3.795
 2181SOL    HW3 8755   0.194   3.745   3.806
 2181SOL    MW4 8756   0.207   3.664   3.777
 2182SOL     OW 8757   0.203   3.906   3.906
 2182SOL    HW2 8758   0.216   3.897   4.000
 2182SOL    HW3 8759   0.282   3.949   3.874
 2182SOL    MW4 8760   0.215   3.910   3.914
 2183SOL     OW 8761   4.484   4.037   3.791
 2183SOL    HW2 8762   4.406   3.995   3.827
 2183SOL    HW3 8763   4.557   3.986   3.826
 2183SOL    MW4 8764   4.483   4.025   3.801
 2184SOL     OW 8765   4.464   4.292   3.922
 2184SOL    HW2 8766   4.547   4.319   3.883
 2184SOL    HW3 8767   4.456   4.199   3.901
 2184SOL    MW4 8768   4.474   4.284   3.914
 2185SOL     OW 8769   0.234   4.410   3.825
 2185SOL    HW2 8770   0.309   4.379   3.875
 2185SOL    HW3 8771   0.234   4.504   3.838
 2185SOL    MW4 8772   0.244   4.418   3.833
 2186SOL     OW 8773   0.667   0.034   3.821
 2186SOL    HW2 8774   0.675  -0.061   3.813
 2186SOL    HW3 8775   0.582   0.055   3.782
 2186SOL    MW4 8776   0.657   0.024   3.815
 2187SOL     OW 8777   0.426   0.135   3.726
 2187SOL    HW2 8778   0.437   0.221   3.767
 2187SOL    HW3 8779   0.356   0.093   3.775
 2187SOL    MW4 8780   0.418   0.141   3.738
 2188SOL     OW 8781   0.440   0.391   3.875
 2188SOL    HW2 8782   0.527   0.407   3.837
 2188SOL    HW3 8783   0.380   0.438   3.817
 2188SOL    MW4 8784   0.444   0.399   3.862
 2189SOL     OW 8785   0.679   0.475   3.789
 2189SOL    HW2 8786   0.750   0.427   3.831
 2189SOL    HW3 8787   0.686   0.564   3.824
 2189SOL    MW4 8788   0.689   0.480   3.799
 2190SOL     OW 8789   0.683   0.748   3.854
 2190SOL    HW2 8790   0.757   0.802   3.827
 2190SOL    HW3 8791   0.606   0.801   3.835
 2190SOL    MW4 8792   0.682   0.762   3.848
 2191SOL     OW 8793   0.471   0.926   3.790
 2191SOL    HW2 8794   0.476   1.011   3.833
 2191SOL    HW3 8795   0.385   0.892   3.814
 2191SOL    MW4 8796   0.461   0.933   3.799
 2192SOL     OW 8797   0.437   1.195   3.847
 2192SOL    HW2 8798   0.510   1.248   3.815
 2192SOL    HW3 8799   0.359   1.245   3.822
 2192SOL    MW4 8800   0.436   1.209   3.840
 2193SOL     OW 8801   0.668   1.340   3.765
 2193SOL    HW2 8802   0.732   1.276   3.798
 2193SOL    HW3 8803   0.673   1.331   3.670
 2193SOL    MW4 8804   0.677   1.330   3.757
 2194SOL     OW 8805   0.638   1.576   3.886
 2194SOL    HW2 8806   0.705   1.627   3.841
 2194SOL    HW3 8807   0.639   1.491   3.842
 2194SOL    MW4 8808   0.647   1.571   3.875
 2195SOL     OW 8809   0.460   1.685   3.715
 2195SOL    HW2 8810   0.524   1.639   3.768
 2195SOL    HW3 8811   0.375   1.655   3.748
 2195SOL    MW4 8812   0.457   1.675   3.727
 2196SOL     OW 8813   0.460   1.906   3.895
 2196SOL    HW2 8814   0.457   1.816   3.862
 2196SOL    HW3 8815   0.390   1.951   3.847
 2196SOL    MW4 8816   0.451   1.900   3.884
 2197SOL     OW 8817   0.657   2.055   3.773
 2197SOL    HW2 8818   0.636   2.145   3.797
 2197SOL    HW3 8819   0.595   2.001   3.822
 2197SOL    MW4 8820   0.646   2.060   3.782
 2198SOL     OW 8821   0.673   2.329   3.857
 2198SOL    HW2 8822   0.756   2.366   3.827
 2198SOL    HW3 8823   0.606   2.386   3.819
 2198SOL    MW4 8824   0.675   2.341   3.848
 2199SOL     OW 8825   0.474   2.486   3.738
 2199SOL    HW2 8826   0.405   2.428   3.770
 2199SOL    HW3 8827   0.473   2.474   3.643
 2199SOL    MW4 8828   0.465   2.477   3.729
 2200SOL     OW 8829   0.458   2.742   3.856
 2200SOL    HW2 8830   0.545   2.775   3.832
 2200SOL    HW3 8831   0.458   2.651   3.824
 2200SOL    MW4 8832   0.470   2.734   3.849
 2201SOL     OW 8833   0.699   2.844   3.777
 2201SOL    HW2 8834   0.765   2.796   3.827
 2201SOL    HW3 8835   0.715   2.818   3.686
 2201SOL    MW4 8836   0.710   2.834   3.771
 2202SOL     OW 8837   0.674   3.101   3.897
 2202SOL    HW2 8838   0.684   3.105   3.992
 2202SOL    HW3 8839   0.646   3.011   3.880
 2202SOL    MW4 8840   0.671   3.090   3.908
 2203SOL     OW 8841   0.481   3.263   3.775
 2203SOL    HW2 8842   0.552   3.240   3.835
 2203SOL    HW3 8843   0.408   3.207   3.802
 2203SOL    MW4 8844   0.481   3.253   3.787
 2204SOL     OW 8845   0.438   3.519   3.864
 2204SOL    HW2 8846   0.516   3.565   3.832
 2204SOL    HW3 8847   0.446   3.431   3.828
 2204SOL    MW4 8848   0.449   3.514   3.855
 2205SOL     OW 8849   0.681   3.637   3.748
 2205SOL    HW2 8850   0.683   3.720   3.796
 2205SOL    HW3 8851   0.662   3.662   3.658
 2205SOL    MW4 8852   0.679   3.651   3.743
 2206SOL     OW 8853   0.669   3.872   3.887
 2206SOL    HW2 8854   0.682   3.869   3.982
 2206SOL    HW3 8855   0.747   3.917   3.855
 2206SOL    MW4 8856   0.681   3.878   3.896
 2207SOL     OW 8857   0.449   4.033   3.806
 2207SOL    HW2 8858   0.506   3.960   3.829
 2207SOL    HW3 8859   0.455   4.039   3.710
 2207SOL    MW4 8860   0.457   4.024   3.796
 2208SOL     OW 8861   0.477   4.278   3.921
 2208SOL    HW2 8862   0.553   4.322   3.882
 2208SOL    HW3 8863   0.477   4.191   3.882
 2208SOL    MW4 8864   0.487   4.272   3.911
 2209SOL     OW 8865   0.684   4.412   3.789
 2209SOL    HW2 8866   0.760   4.356   3.805
 2209SOL    HW3 8867   0.661   4.395   3.698
 2209SOL    MW4 8868   0.691   4.403   3.779
 2210SOL     OW 8869   1.117   4.632   3.863
 2210SOL    HW2 8870   1.196   4.683   3.845
 2210SOL    HW3 8871   1.127   4.553   3.810
 2210SOL    MW4 8872   1.129   4.628   3.854
 2211SOL     OW 8873   0.919   0.117   3.757
 2211SOL    HW2 8874   0.986   0.056   3.786
 2211SOL    HW3 8875   0.837   0.070   3.769
 2211SOL    MW4 8876   0.917   0.103   3.762
 2212SOL     OW 8877   0.928   0.364   3.879
 2212SOL    HW2 8878   0.924   0.358   3.975
 2212SOL    HW3 8879   0.935   0.273   3.850
 2212SOL    MW4 8880   0.929   0.351   3.888
 2213SOL     OW 8881   1.135   0.548   3.804
 2213SOL    HW2 8882   1.216   0.507   3.835
 2213SOL    HW3 8883   1.065   0.494   3.843
 2213SOL    MW4 8884   1.136   0.535   3.813
 2214SOL     OW 8885   1.132   0.814   3.908
 2214SOL    HW2 8886   1.125   0.796   4.002
 2214SOL    HW3 8887   1.139   0.728   3.867
 2214SOL    MW4 8888   1.132   0.801   3.915
 2215SOL     OW 8889   0.886   0.916   3.784
 2215SOL    HW2 8890   0.973   0.895   3.817
 2215SOL    HW3 8891   0.894   0.908   3.689
 2215SOL    MW4 8892   0.898   0.913   3.775
 2216SOL     OW 8893   0.874   1.179   3.852
 2216SOL    HW2 8894   0.895   1.176   3.946
 2216SOL    HW3 8895   0.868   1.087   3.826
 2216SOL    MW4 8896   0.876   1.166   3.861
 2217SOL     OW 8897   1.112   1.293   3.763
 2217SOL    HW2 8898   1.093   1.384   3.785
 2217SOL    HW3 8899   1.035   1.244   3.792
 2217SOL    MW4 8900   1.100   1.298   3.769
 2218SOL     OW 8901   1.076   1.544   3.861
 2218SOL    HW2 8902   1.107   1.543   3.952
 2218SOL    HW3 8903   1.152   1.572   3.811
 2218SOL    MW4 8904   1.090   1.548   3.867
 2219SOL     OW 8905   0.861   1.694   3.775
 2219SOL    HW2 8906   0.933   1.634   3.792
 2219SOL    HW3 8907   0.856   1.701   3.680
 2219SOL    MW4 8908   0.870   1.687   3.765
 2220SOL     OW 8909   0.888   1.962   3.880
 2220SOL    HW2 8910   0.882   1.873   3.843
 2220SOL    HW3 8911   0.808   2.005   3.851
 2220SOL    MW4 8912   0.877   1.956   3.871
 2221SOL     OW 8913   1.131   2.053   3.791
 2221SOL    HW2 8914   1.046   2.015   3.814
 2221SOL    HW3 8915   1.123   2.075   3.698
 2221SOL    MW4 8916   1.119   2.051   3.782
 2222SOL     OW 8917   1.171   2.327   3.891
 2222SOL    HW2 8918   1.148   2.328   3.984
 2222SOL    HW3 8919   1.173   2.235   3.867
 2222SOL    MW4 8920   1.168   2.315   3.900
 2223SOL     OW 8921   0.923   2.407   3.796
 2223SOL    HW2 8922   0.933   2.501   3.812
 2223SOL    HW3 8923   0.996   2.367   3.844
 2223SOL    MW4 8924   0.934   2.414   3.805
 2224SOL     OW 8925   0.914   2.701   3.884
 2224SOL    HW2 8926   0.915   2.686   3.979
 2224SOL    HW3 8927   0.998   2.742   3.865
 2224SOL    MW4 8928   0.925   2.704   3.894
 2225SOL     OW 8929   1.130   2.845   3.792
 2225SOL    HW2 8930   1.215   2.807   3.814
 2225SOL    HW3 8931   1.130   2.931   3.834
 2225SOL    MW4 8932   1.141   2.851   3.800
 2226SOL     OW 8933   1.128   3.098   3.899
 2226SOL    HW2 8934   1.193   3.155   3.856
 2226SOL    HW3 8935   1.044   3.141   3.884
 2226SOL    MW4 8936   1.126   3.111   3.891
 2227SOL     OW 8937   0.906   3.221   3.808
 2227SOL    HW2 8938   0.827   3.181   3.844
 2227SOL    HW3 8939   0.899   3.208   3.713
 2227SOL    MW4 8940   0.895   3.214   3.800
 2228SOL     OW 8941   0.864   3.489   3.894
 2228SOL    HW2 8942   0.888   3.403   3.860
 2228SOL    HW3 8943   0.802   3.523   3.829
 2228SOL    MW4 8944   0.859   3.482   3.881
 2229SOL     OW 8945   1.113   3.615   3.783
 2229SOL    HW2 8946   1.115   3.708   3.807
 2229SOL    HW3 8947   1.038   3.579   3.830
 2229SOL    MW4 8948   1.104   3.623   3.792
 2230SOL     OW 8949   1.133   3.899   3.846
 2230SOL    HW2 8950   1.132   3.886   3.940
 2230SOL    HW3 8951   1.220   3.934   3.827
 2230SOL    MW4 8952   1.144   3.902   3.856
 2231SOL     OW 8953   0.898   4.007   3.756
 2231SOL    HW2 8954   0.986   3.975   3.779
 2231SOL    HW3 8955   0.900   4.013   3.660
 2231SOL    MW4 8956   0.910   4.004   3.746
 2232SOL     OW 8957   0.909   4.260   3.862
 2232SOL    HW2 8958   0.941   4.258   3.952
 2232SOL    HW3 8959   0.906   4.168   3.836
 2232SOL    MW4 8960   0.913   4.247   3.870
 2233SOL     OW 8961   1.122   4.382   3.729
 2233SOL    HW2 8962   1.038   4.357   3.769
 2233SOL    HW3 8963   1.104   4.382   3.635
 2233SOL    MW4 8964   1.108   4.379   3.722
 2234SOL     OW 8965   1.553   4.666   3.858
 2234SOL    HW2 8966   1.578   4.656   3.950
 2234SOL    HW3 8967   1.552   4.577   3.823
 2234SOL    MW4 8968   1.556   4.653   3.865
 2235SOL     OW 8969   1.332   0.125   3.783
 2235SOL    HW2 8970   1.329   0.211   3.822
 2235SOL    HW3 8971   1.412   0.085   3.818
 2235SOL    MW4 8972   1.342   0.131   3.793
 2236SOL     OW 8973   1.358   0.400   3.881
 2236SOL    HW2 8974   1.375   0.401   3.975
 2236SOL    HW3 8975   1.440   0.427   3.841
 2236SOL    MW4 8976   1.371   0.403   3.888
 2237SOL     OW 8977   1.570   0.525   3.744
 2237SOL    HW2 8978   1.650   0.480   3.771
 2237SOL    HW3 8979   1.566   0.603   3.799
 2237SOL    MW4 8980   1.580   0.529   3.755
 2238SOL     OW 8981   1.542   0.762   3.903
 2238SOL    HW2 8982   1.617   0.811   3.869
 2238SOL    HW3 8983   1.466   0.810   3.870
 2238SOL    MW4 8984   1.542   0.775   3.894
 2239SOL     OW 8985   1.354   0.930   3.774
 2239SOL    HW2 8986   1.373   1.017   3.808
 2239SOL    HW3 8987   1.268   0.909   3.810
 2239SOL    MW4 8988   1.345   0.939   3.783
 2240SOL     OW 8989   1.325   1.181   3.888
 2240SOL    HW2 8990   1.403   1.224   3.855
 2240SOL    HW3 8991   1.252   1.229   3.848
 2240SOL    MW4 8992   1.325   1.193   3.878
 2241SOL     OW 8993   1.556   1.293   3.781
 2241SOL    HW2 8994   1.641   1.260   3.808
 2241SOL    HW3 8995   1.553   1.383   3.815
 2241SOL    MW4 8996   1.567   1.301   3.789
 2242SOL     OW 8997   1.541   1.552   3.857
 2242SOL    HW2 8998   1.528   1.570   3.950
 2242SOL    HW3 8999   1.624   1.595   3.835
 2242SOL    MW4 9000   1.550   1.560   3.866
 2243SOL     OW 9001   1.302   1.645   3.728
 2243SOL    HW2 9002   1.295   1.731   3.769
 2243SOL    HW3 9003   1.381   1.606   3.764
 2243SOL    MW4 9004   1.311   1.651   3.738
 2244SOL     OW 9005   1.339   1.876   3.847
 2244SOL    HW2 9006   1.346   1.861   3.941
 2244SOL    HW3 9007   1.266   1.937   3.838
 2244SOL    MW4 9008   1.331   1.882   3.858
 2245SOL     OW 9009   1.565   2.042   3.768
 2245SOL    HW2 9010   1.475   2.012   3.779
 2245SOL    HW3 9011   1.572   2.062   3.675
 2245SOL    MW4 9012   1.554   2.040   3.757
 2246SOL     OW 9013   1.613   2.298   3.896
 2246SOL    HW2 9014   1.696   2.333   3.863
 2246SOL    HW3 9015   1.604   2.212   3.855
 2246SOL    MW4 9016   1.623   2.291   3.886
 2247SOL     OW 9017   1.401   2.468   3.815
 2247SOL    HW2 9018   1.467   2.415   3.861
 2247SOL    HW3 9019   1.318   2.428   3.840
 2247SOL    MW4 9020   1.399   2.456   3.825
 2248SOL     OW 9021   1.378   2.736   3.881
 2248SOL    HW2 9022   1.383   2.739   3.976
 2248SOL    HW3 9023   1.404   2.646   3.858
 2248SOL    MW4 9024   1.382   2.724   3.890
 2249SOL     OW 9025   1.594   2.844   3.764
 2249SOL    HW2 9026   1.524   2.790   3.799
 2249SOL    HW3 9027   1.586   2.836   3.669
 2249SOL    MW4 9028   1.584   2.836   3.756
 2250SOL     OW 9029   1.487   3.085   3.831
 2250SOL    HW2 9030   1.491   3.084   3.927
 2250SOL    HW3 9031   1.521   3.000   3.805
 2250SOL    MW4 9032   1.492   3.074   3.840
 2251SOL     OW 9033   1.312   3.276   3.746
 2251SOL    HW2 9034   1.333   3.350   3.803
 2251SOL    HW3 9035   1.370   3.206   3.776
 2251SOL    MW4 9036   1.323   3.277   3.758
 2252SOL     OW 9037   1.359   3.513   3.867
 2252SOL    HW2 9038   1.437   3.540   3.819
 2252SOL    HW3 9039   1.286   3.542   3.812
 2252SOL    MW4 9040   1.360   3.520   3.853
 2253SOL     OW 9041   1.592   3.615   3.750
 2253SOL    HW2 9042   1.667   3.575   3.794
 2253SOL    HW3 9043   1.580   3.699   3.793
 2253SOL    MW4 9044   1.601   3.621   3.761
 2254SOL     OW 9045   1.567   3.867   3.828
 2254SOL    HW2 9046   1.584   3.877   3.922
 2254SOL    HW3 9047   1.497   3.931   3.811
 2254SOL    MW4 9048   1.560   3.877   3.838
 2255SOL     OW 9049   1.364   4.027   3.752
 2255SOL    HW2 9050   1.353   4.110   3.799
 2255SOL    HW3 9051   1.340   4.048   3.661
 2255SOL    MW4 9052   1.360   4.041   3.746
 2256SOL     OW 9053   1.347   4.289   3.860
 2256SOL    HW2 9054   1.418   4.336   3.815
 2256SOL    HW3 9055   1.267   4.325   3.822
 2256SOL    MW4 9056   1.346   4.300   3.849
 2257SOL     OW 9057   1.557   4.414   3.748
 2257SOL    HW2 9058   1.624   4.349   3.769
 2257SOL    HW3 9059   1.553   4.415   3.652
 2257SOL    MW4 9060   1.566   4.406   3.738
 2258SOL     OW 9061   2.046   4.629   3.850
 2258SOL    HW2 9062   2.110   4.675   3.797
 2258SOL    HW3 9063   2.032   4.546   3.805
 2258SOL    MW4 9064   2.052   4.624   3.837
 2259SOL     OW 9065   1.808   0.072   3.719
 2259SOL    HW2 9066   1.888   0.051   3.767
 2259SOL    HW3 9067   1.739   0.028   3.768
 2259SOL    MW4 9068   1.810   0.064   3.732
 2260SOL     OW 9069   1.767   0.340   3.831
 2260SOL    HW2 9070   1.778   0.319   3.924
 2260SOL    HW3 9071   1.750   0.256   3.789
 2260SOL    MW4 9072   1.767   0.326   3.838
 2261SOL     OW 9073   1.996   0.480   3.747
 2261SOL    HW2 9074   1.918   0.431   3.774
 2261SOL    HW3 9075   1.995   0.477   3.652
 2261SOL    MW4 9076   1.986   0.473   3.738
 2262SOL     OW 9077   1.964   0.754   3.846
 2262SOL    HW2 9078   1.981   0.744   3.940
 2262SOL    HW3 9079   1.957   0.664   3.814
 2262SOL    MW4 9080   1.965   0.740   3.854
 2263SOL     OW 9081   1.756   0.912   3.789
 2263SOL    HW2 9082   1.834   0.858   3.799
 2263SOL    HW3 9083   1.735   0.908   3.695
 2263SOL    MW4 9084   1.763   0.904   3.778
 2264SOL     OW 9085   1.785   1.169   3.869
 2264SOL    HW2 9086   1.799   1.187   3.962
 2264SOL    HW3 9087   1.774   1.074   3.864
 2264SOL    MW4 9088   1.785   1.159   3.881
 2265SOL     OW 9089   2.012   1.298   3.783
 2265SOL    HW2 9090   2.089   1.252   3.816
 2265SOL    HW3 9091   1.939   1.237   3.798
 2265SOL    MW4 9092   2.012   1.284   3.789
 2266SOL     OW 9093   1.991   1.536   3.927
 2266SOL    HW2 9094   1.914   1.582   3.893
 2266SOL    HW3 9095   1.990   1.452   3.881
 2266SOL    MW4 9096   1.981   1.531   3.916
 2267SOL     OW 9097   1.806   1.637   3.754
 2267SOL    HW2 9098   1.794   1.726   3.787
 2267SOL    HW3 9099   1.822   1.649   3.660
 2267SOL    MW4 9100   1.807   1.651   3.746
 2268SOL     OW 9101   1.779   1.889   3.873
 2268SOL    HW2 9102   1.790   1.938   3.954
 2268SOL    HW3 9103   1.695   1.919   3.839
 2268SOL    MW4 9104   1.769   1.899   3.879
 2269SOL     OW 9105   2.009   2.001   3.792
 2269SOL    HW2 9106   1.920   1.972   3.809
 2269SOL    HW3 9107   2.015   2.006   3.697
 2269SOL    MW4 9108   1.998   1.998   3.782
 2270SOL     OW 9109   2.049   2.300   3.863
 2270SOL    HW2 9110   1.969   2.349   3.846
 2270SOL    HW3 9111   2.029   2.210   3.840
 2270SOL    MW4 9112   2.036   2.295   3.858
 2271SOL     OW 9113   1.820   2.436   3.799
 2271SOL    HW2 9114   1.803   2.524   3.833
 2271SOL    HW3 9115   1.811   2.445   3.704
 2271SOL    MW4 9116   1.817   2.449   3.791
 2272SOL     OW 9117   1.802   2.717   3.874
 2272SOL    HW2 9118   1.804   2.745   3.966
 2272SOL    HW3 9119   1.734   2.771   3.834
 2272SOL    MW4 9120   1.793   2.728   3.881
 2273SOL     OW 9121   2.035   2.832   3.763
 2273SOL    HW2 9122   2.107   2.770   3.770
 2273SOL    HW3 9123   1.960   2.786   3.801
 2273SOL    MW4 9124   2.034   2.818   3.769
 2274SOL     OW 9125   1.956   3.093   3.771
 2274SOL    HW2 9126   1.968   2.999   3.766
 2274SOL    HW3 9127   2.044   3.129   3.769
 2274SOL    MW4 9128   1.969   3.086   3.770
 2275SOL     OW 9129   1.705   3.226   3.761
 2275SOL    HW2 9130   1.789   3.189   3.790
 2275SOL    HW3 9131   1.639   3.177   3.811
 2275SOL    MW4 9132   1.708   3.215   3.772
 2276SOL     OW 9133   1.798   3.464   3.868
 2276SOL    HW2 9134   1.882   3.483   3.825
 2276SOL    HW3 9135   1.768   3.383   3.826
 2276SOL    MW4 9136   1.805   3.456   3.857
 2277SOL     OW 9137   2.023   3.574   3.766
 2277SOL    HW2 9138   2.103   3.528   3.792
 2277SOL    HW3 9139   2.040   3.601   3.676
 2277SOL    MW4 9140   2.036   3.571   3.757
 2278SOL     OW 9141   1.988   3.833   3.815
 2278SOL    HW2 9142   2.071   3.875   3.791
 2278SOL    HW3 9143   2.004   3.739   3.806
 2278SOL    MW4 9144   2.001   3.826   3.810
 2279SOL     OW 9145   1.785   4.003   3.743
 2279SOL    HW2 9146   1.860   3.948   3.767
 2279SOL    HW3 9147   1.708   3.950   3.763
 2279SOL    MW4 9148   1.785   3.989   3.749
 2280SOL     OW 9149   1.795   4.276   3.813
 2280SOL    HW2 9150   1.879   4.312   3.783
 2280SOL    HW3 9151   1.798   4.184   3.788
 2280SOL    MW4 9152   1.806   4.269   3.805
 2281SOL     OW 9153   2.034   4.363   3.723
 2281SOL    HW2 9154   2.103   4.298   3.735
 2281SOL    HW3 9155   2.036   4.385   3.630
 2281SOL    MW4 9156   2.043   4.358   3.713
 2282SOL     OW 9157   2.440   4.581   3.842
 2282SOL    HW2 9158   2.440   4.570   3.937
 2282SOL    HW3 9159   2.517   4.636   3.824
 2282SOL    MW4 9160   2.450   4.587   3.852
 2283SOL     OW 9161   2.278   0.096   3.740
 2283SOL    HW2 9162   2.323   0.019   3.774
 2283SOL    HW3 9163   2.270   0.081   3.646
 2283SOL    MW4 9164   2.283   0.084   3.732
 2284SOL     OW 9165   2.222   0.336   3.856
 2284SOL    HW2 9166   2.244   0.251   3.819
 2284SOL    HW3 9167   2.155   0.371   3.797
 2284SOL    MW4 9168   2.216   0.330   3.843
 2285SOL     OW 9169   2.430   0.496   3.809
 2285SOL    HW2 9170   2.357   0.438   3.831
 2285SOL    HW3 9171   2.423   0.510   3.715
 2285SOL    MW4 9172   2.420   0.490   3.800
 2286SOL     OW 9173   2.448   0.764   3.892
 2286SOL    HW2 9174   2.369   0.807   3.859
 2286SOL    HW3 9175   2.440   0.673   3.862
 2286SOL    MW4 9176   2.436   0.758   3.884
 2287SOL     OW 9177   2.210   0.877   3.769
 2287SOL    HW2 9178   2.130   0.825   3.776
 2287SOL    HW3 9179   2.227   0.884   3.675
 2287SOL    MW4 9180   2.202   0.871   3.758
 2288SOL     OW 9181   2.216   1.148   3.870
 2288SOL    HW2 9182   2.226   1.144   3.965
 2288SOL    HW3 9183   2.225   1.057   3.842
 2288SOL    MW4 9184   2.219   1.136   3.879
 2289SOL     OW 9185   2.455   1.243   3.781
 2289SOL    HW2 9186   2.442   1.336   3.797
 2289SOL    HW3 9187   2.373   1.202   3.807
 2289SOL    MW4 9188   2.443   1.250   3.787
 2290SOL     OW 9189   2.446   1.514   3.842
 2290SOL    HW2 9190   2.516   1.574   3.815
 2290SOL    HW3 9191   2.365   1.558   3.818
 2290SOL    MW4 9192   2.445   1.528   3.835
 2291SOL     OW 9193   2.222   1.644   3.799
 2291SOL    HW2 9194   2.217   1.739   3.812
 2291SOL    HW3 9195   2.139   1.611   3.833
 2291SOL    MW4 9196   2.210   1.652   3.806
 2292SOL     OW 9197   2.271   1.916   3.869
 2292SOL    HW2 9198   2.281   1.935   3.962
 2292SOL    HW3 9199   2.181   1.943   3.849
 2292SOL    MW4 9200   2.260   1.922   3.878
 2293SOL     OW 9201   2.502   2.035   3.754
 2293SOL    HW2 9202   2.490   2.121   3.793
 2293SOL    HW3 9203   2.426   1.985   3.782
 2293SOL    MW4 9204   2.491   2.040   3.763
 2294SOL     OW 9205   2.521   2.292   3.860
 2294SOL    HW2 9206   2.598   2.337   3.825
 2294SOL    HW3 9207   2.447   2.345   3.830
 2294SOL    MW4 9208   2.521   2.305   3.851
 2295SOL     OW 9209   2.284   2.413   3.789
 2295SOL    HW2 9210   2.208   2.365   3.823
 2295SOL    HW3 9211   2.273   2.413   3.694
 2295SOL    MW4 9212   2.273   2.407   3.781
 2296SOL     OW 9213   2.292   2.689   3.834
 2296SOL    HW2 9214   2.277   2.706   3.927
 2296SOL    HW3 9215   2.279   2.595   3.825
 2296SOL    MW4 9216   2.288   2.679   3.845
 2297SOL     OW 9217   2.495   2.807   3.692
 2297SOL    HW2 9218   2.416   2.792   3.745
 2297SOL    HW3 9219   2.465   2.794   3.602
 2297SOL    MW4 9220   2.480   2.804   3.687
 2298SOL     OW 9221   2.488   3.064   3.785
 2298SOL    HW2 9222   2.486   3.039   3.877
 2298SOL    HW3 9223   2.493   2.981   3.738
 2298SOL    MW4 9224   2.488   3.050   3.791
 2299SOL     OW 9225   2.222   3.164   3.792
 2299SOL    HW2 9226   2.227   3.257   3.814
 2299SOL    HW3 9227   2.310   3.131   3.805
 2299SOL    MW4 9228   2.234   3.172   3.797
 2300SOL     OW 9229   2.255   3.440   3.839
 2300SOL    HW2 9230   2.251   3.442   3.935
 2300SOL    HW3 9231   2.337   3.483   3.818
 2300SOL    MW4 9232   2.265   3.446   3.849
 2301SOL     OW 9233   2.488   3.556   3.770
 2301SOL    HW2 9234   2.562   3.507   3.807
 2301SOL    HW3 9235   2.507   3.560   3.676
 2301SOL    MW4 9236   2.500   3.550   3.762
 2302SOL     OW 9237   2.455   3.828   3.847
 2302SOL    HW2 9238   2.538   3.869   3.823
 2302SOL    HW3 9239   2.470   3.734   3.833
 2302SOL    MW4 9240   2.468   3.821   3.842
 2303SOL     OW 9241   2.234   3.953   3.745
 2303SOL    HW2 9242   2.309   3.912   3.787
 2303SOL    HW3 9243   2.259   3.959   3.653
 2303SOL    MW4 9244   2.247   3.948   3.738
 2304SOL     OW 9245   2.259   4.198   3.808
 2304SOL    HW2 9246   2.262   4.204   3.903
 2304SOL    HW3 9247   2.258   4.104   3.790
 2304SOL    MW4 9248   2.259   4.187   3.818
 2305SOL     OW 9249   2.463   4.339   3.700
 2305SOL    HW2 9250   2.390   4.286   3.732
 2305SOL    HW3 9251   2.447   4.426   3.737
 2305SOL    MW4 9252   2.451   4.343   3.709
 2306SOL     OW 9253   2.895   0.006   3.851
 2306SOL    HW2 9254   2.922   0.008   3.943
 2306SOL    HW3 9255   2.973   0.032   3.803
 2306SOL    MW4 9256   2.909   0.009   3.857
 2307SOL     OW 9257   2.646   0.078   3.773
 2307SOL    HW2 9258   2.730   0.044   3.803
 2307SOL    HW3 9259   2.653   0.077   3.677
 2307SOL    MW4 9260   2.658   0.073   3.764
 2308SOL     OW 9261   2.676   0.356   3.838
 2308SOL    HW2 9262   2.664   0.263   3.819
 2308SOL    HW3 9263   2.592   0.396   3.815
 2308SOL    MW4 9264   2.663   0.349   3.833
 2309SOL     OW 9265   2.885   0.519   3.702
 2309SOL    HW2 9266   2.965   0.471   3.720
 2309SOL    HW3 9267   2.815   0.462   3.735
 2309SOL    MW4 9268   2.886   0.505   3.709
 2310SOL     OW 9269   2.902   0.750   3.862
 2310SOL    HW2 9270   2.982   0.788   3.825
 2310SOL    HW3 9271   2.887   0.671   3.812
 2310SOL    MW4 9272   2.910   0.745   3.851
 2311SOL     OW 9273   2.684   0.917   3.777
 2311SOL    HW2 9274   2.763   0.867   3.799
 2311SOL    HW3 9275   2.611   0.861   3.802
 2311SOL    MW4 9276   2.685   0.903   3.783
 2312SOL     OW 9277   2.663   1.155   3.922
 2312SOL    HW2 9278   2.673   1.065   3.891
 2312SOL    HW3 9279   2.589   1.190   3.872
 2312SOL    MW4 9280   2.654   1.148   3.912
 2313SOL     OW 9281   2.911   1.279   3.738
 2313SOL    HW2 9282   2.914   1.366   3.779
 2313SOL    HW3 9283   2.831   1.239   3.773
 2313SOL    MW4 9284   2.901   1.285   3.748
 2314SOL     OW 9285   2.921   1.526   3.882
 2314SOL    HW2 9286   2.934   1.531   3.977
 2314SOL    HW3 9287   2.999   1.568   3.846
 2314SOL    MW4 9288   2.933   1.532   3.890
 2315SOL     OW 9289   2.689   1.663   3.807
 2315SOL    HW2 9290   2.769   1.624   3.844
 2315SOL    HW3 9291   2.698   1.651   3.713
 2315SOL    MW4 9292   2.701   1.656   3.800
 2316SOL     OW 9293   2.707   1.929   3.903
 2316SOL    HW2 9294   2.707   1.836   3.881
 2316SOL    HW3 9295   2.636   1.966   3.850
 2316SOL    MW4 9296   2.698   1.922   3.893
 2317SOL     OW 9297   2.897   2.032   3.733
 2317SOL    HW2 9298   2.926   2.111   3.778
 2317SOL    HW3 9299   2.827   1.997   3.788
 2317SOL    MW4 9300   2.892   2.038   3.746
 2318SOL     OW 9301   2.989   2.282   3.843
 2318SOL    HW2 9302   2.976   2.297   3.937
 2318SOL    HW3 9303   3.081   2.303   3.828
 2318SOL    MW4 9304   3.000   2.286   3.853
 2319SOL     OW 9305   2.755   2.426   3.746
 2319SOL    HW2 9306   2.741   2.514   3.780
 2319SOL    HW3 9307   2.834   2.395   3.790
 2319SOL    MW4 9308   2.763   2.433   3.756
 2320SOL     OW 9309   2.705   2.689   3.819
 2320SOL    HW2 9310   2.685   2.654   3.906
 2320SOL    HW3 9311   2.621   2.717   3.784
 2320SOL    MW4 9312   2.691   2.688   3.826
 2321SOL     OW 9313   2.940   2.801   3.717
 2321SOL    HW2 9314   2.948   2.891   3.749
 2321SOL    HW3 9315   2.858   2.770   3.755
 2321SOL    MW4 9316   2.930   2.809   3.726
 2322SOL     OW 9317   2.946   3.071   3.822
 2322SOL    HW2 9318   3.014   3.135   3.800
 2322SOL    HW3 9319   2.864   3.117   3.807
 2322SOL    MW4 9320   2.944   3.085   3.817
 2323SOL     OW 9321   2.720   3.192   3.760
 2323SOL    HW2 9322   2.707   3.269   3.816
 2323SOL    HW3 9323   2.640   3.141   3.771
 2323SOL    MW4 9324   2.707   3.196   3.769
 2324SOL     OW 9325   2.695   3.423   3.890
 2324SOL    HW2 9326   2.709   3.425   3.985
 2324SOL    HW3 9327   2.747   3.496   3.856
 2324SOL    MW4 9328   2.704   3.433   3.898
 2325SOL     OW 9329   2.871   3.620   3.768
 2325SOL    HW2 9330   2.943   3.573   3.809
 2325SOL    HW3 9331   2.889   3.615   3.675
 2325SOL    MW4 9332   2.883   3.613   3.761
 2326SOL     OW 9333   2.942   3.884   3.788
 2326SOL    HW2 9334   2.948   3.903   3.882
 2326SOL    HW3 9335   2.917   3.791   3.785
 2326SOL    MW4 9336   2.940   3.874   3.800
 2327SOL     OW 9337   2.664   4.009   3.744
 2327SOL    HW2 9338   2.658   4.094   3.787
 2327SOL    HW3 9339   2.737   3.965   3.789
 2327SOL    MW4 9340   2.673   4.014   3.756
 2328SOL     OW 9341   2.678   4.252   3.855
 2328SOL    HW2 9342   2.736   4.327   3.840
 2328SOL    HW3 9343   2.593   4.279   3.820
 2328SOL    MW4 9344   2.674   4.266   3.848
 2329SOL     OW 9345   2.898   4.405   3.784
 2329SOL    HW2 9346   2.985   4.378   3.812
 2329SOL    HW3 9347   2.886   4.492   3.821
 2329SOL    MW4 9348   2.908   4.413   3.792
 2330SOL     OW 9349   3.329   4.641   3.886
 2330SOL    HW2 9350   3.338   4.643   3.981
 2330SOL    HW3 9351   3.408   4.685   3.854
 2330SOL    MW4 9352   3.341   4.647   3.894
 2331SOL     OW 9353   3.122   0.105   3.741
 2331SOL    HW2 9354   3.190   0.065   3.795
 2331SOL    HW3 9355   3.149   0.085   3.651
 2331SOL    MW4 9356   3.134   0.097   3.736
 2332SOL     OW 9357   3.096   0.360   3.834
 2332SOL    HW2 9358   3.057   0.347   3.921
 2332SOL    HW3 9359   3.109   0.271   3.800
 2332SOL    MW4 9360   3.093   0.347   3.841
 2333SOL     OW 9361   3.358   0.467   3.764
 2333SOL    HW2 9362   3.424   0.436   3.825
 2333SOL    HW3 9363   3.276   0.428   3.794
 2333SOL    MW4 9364   3.356   0.458   3.776
 2334SOL     OW 9365   3.347   0.745   3.827
 2334SOL    HW2 9366   3.346   0.759   3.921
 2334SOL    HW3 9367   3.340   0.650   3.817
 2334SOL    MW4 9368   3.346   0.734   3.838
 2335SOL     OW 9369   3.123   0.881   3.769
 2335SOL    HW2 9370   3.201   0.831   3.789
 2335SOL    HW3 9371   3.119   0.883   3.673
 2335SOL    MW4 9372   3.133   0.875   3.759
 2336SOL     OW 9373   3.108   1.124   3.875
 2336SOL    HW2 9374   3.110   1.039   3.832
 2336SOL    HW3 9375   3.029   1.167   3.841
 2336SOL    MW4 9376   3.098   1.118   3.865
 2337SOL     OW 9377   3.325   1.265   3.762
 2337SOL    HW2 9378   3.249   1.220   3.801
 2337SOL    HW3 9379   3.318   1.245   3.669
 2337SOL    MW4 9380   3.314   1.256   3.755
 2338SOL     OW 9381   3.362   1.508   3.916
 2338SOL    HW2 9382   3.286   1.556   3.884
 2338SOL    HW3 9383   3.360   1.425   3.868
 2338SOL    MW4 9384   3.352   1.503   3.906
 2339SOL     OW 9385   3.143   1.654   3.781
 2339SOL    HW2 9386   3.132   1.748   3.796
 2339SOL    HW3 9387   3.129   1.643   3.687
 2339SOL    MW4 9388   3.140   1.665   3.770
 2340SOL     OW 9389   3.116   1.916   3.887
 2340SOL    HW2 9390   3.099   1.940   3.978
 2340SOL    HW3 9391   3.046   1.958   3.838
 2340SOL    MW4 9392   3.104   1.925   3.893
 2341SOL     OW 9393   3.335   2.054   3.788
 2341SOL    HW2 9394   3.261   2.007   3.827
 2341SOL    HW3 9395   3.323   2.042   3.694
 2341SOL    MW4 9396   3.324   2.046   3.781
 2342SOL     OW 9397   3.409   2.306   3.861
 2342SOL    HW2 9398   3.339   2.369   3.840
 2342SOL    HW3 9399   3.379   2.224   3.823
 2342SOL    MW4 9400   3.396   2.304   3.853
 2343SOL     OW 9401   3.196   2.432   3.757
 2343SOL    HW2 9402   3.172   2.521   3.782
 2343SOL    HW3 9403   3.179   2.427   3.663
 2343SOL    MW4 9404   3.191   2.443   3.748
 2344SOL     OW 9405   3.160   2.693   3.837
 2344SOL    HW2 9406   3.151   2.699   3.932
 2344SOL    HW3 9407   3.075   2.721   3.803
 2344SOL    MW4 9408   3.148   2.698   3.845
 2345SOL     OW 9409   3.391   2.847   3.797
 2345SOL    HW2 9410   3.310   2.803   3.825
 2345SOL    HW3 9411   3.387   2.846   3.702
 2345SOL    MW4 9412   3.380   2.841   3.788
 2346SOL     OW 9413   3.386   3.118   3.869
 2346SOL    HW2 9414   3.467   3.162   3.841
 2346SOL    HW3 9415   3.404   3.025   3.858
 2346SOL    MW4 9416   3.399   3.112   3.864
 2347SOL     OW 9417   3.166   3.239   3.759
 2347SOL    HW2 9418   3.243   3.195   3.796
 2347SOL    HW3 9419   3.175   3.227   3.665
 2347SOL    MW4 9420   3.178   3.231   3.752
 2348SOL     OW 9421   3.084   3.476   3.860
 2348SOL    HW2 9422   3.159   3.525   3.828
 2348SOL    HW3 9423   3.103   3.385   3.837
 2348SOL    MW4 9424   3.096   3.470   3.852
 2349SOL     OW 9425   3.311   3.650   3.778
 2349SOL    HW2 9426   3.323   3.744   3.790
 2349SOL    HW3 9427   3.312   3.637   3.683
 2349SOL    MW4 9428   3.312   3.661   3.767
 2350SOL     OW 9429   3.354   3.908   3.848
 2350SOL    HW2 9430   3.437   3.949   3.824
 2350SOL    HW3 9431   3.286   3.967   3.814
 2350SOL    MW4 9432   3.356   3.921   3.840
 2351SOL     OW 9433   3.164   4.070   3.714
 2351SOL    HW2 9434   3.157   4.152   3.763
 2351SOL    HW3 9435   3.085   4.021   3.737
 2351SOL    MW4 9436   3.153   4.074   3.723
 2352SOL     OW 9437   3.140   4.305   3.861
 2352SOL    HW2 9438   3.136   4.294   3.955
 2352SOL    HW3 9439   3.228   4.337   3.844
 2352SOL    MW4 9440   3.151   4.308   3.871
 2353SOL     OW 9441   3.375   4.382   3.748
 2353SOL    HW2 9442   3.453   4.346   3.790
 2353SOL    HW3 9443   3.362   4.467   3.790
 2353SOL    MW4 9444   3.384   4.389   3.759
 2354SOL     OW 9445   3.826   0.009   3.864
 2354SOL    HW2 9446   3.886   0.066   3.816
 2354SOL    HW3 9447   3.833  -0.075   3.819
 2354SOL    MW4 9448   3.835   0.006   3.852
 2355SOL     OW 9449   3.564   0.094   3.787
 2355SOL    HW2 9450   3.643   0.055   3.824
 2355SOL    HW3 9451   3.581   0.098   3.693
 2355SOL    MW4 9452   3.577   0.089   3.779
 2356SOL     OW 9453   3.575   0.361   3.892
 2356SOL    HW2 9454   3.652   0.410   3.861
 2356SOL    HW3 9455   3.577   0.279   3.843
 2356SOL    MW4 9456   3.586   0.357   3.881
 2357SOL     OW 9457   3.792   0.504   3.816
 2357SOL    HW2 9458   3.878   0.475   3.848
 2357SOL    HW3 9459   3.791   0.598   3.836
 2357SOL    MW4 9460   3.803   0.513   3.823
 2358SOL     OW 9461   3.810   0.763   3.846
 2358SOL    HW2 9462   3.894   0.795   3.814
 2358SOL    HW3 9463   3.745   0.823   3.810
 2358SOL    MW4 9464   3.812   0.775   3.837
 2359SOL     OW 9465   3.592   0.896   3.762
 2359SOL    HW2 9466   3.561   0.976   3.804
 2359SOL    HW3 9467   3.523   0.832   3.778
 2359SOL    MW4 9468   3.579   0.898   3.769
 2360SOL     OW 9469   3.516   1.137   3.889
 2360SOL    HW2 9470   3.595   1.188   3.872
 2360SOL    HW3 9471   3.447   1.182   3.842
 2360SOL    MW4 9472   3.518   1.149   3.881
 2361SOL     OW 9473   3.733   1.273   3.804
 2361SOL    HW2 9474   3.811   1.230   3.838
 2361SOL    HW3 9475   3.735   1.360   3.844
 2361SOL    MW4 9476   3.744   1.279   3.814
 2362SOL     OW 9477   3.816   1.537   3.915
 2362SOL    HW2 9478   3.802   1.556   4.008
 2362SOL    HW3 9479   3.748   1.588   3.871
 2362SOL    MW4 9480   3.805   1.547   3.922
 2363SOL     OW 9481   3.583   1.671   3.816
 2363SOL    HW2 9482   3.511   1.616   3.848
 2363SOL    HW3 9483   3.572   1.671   3.721
 2363SOL    MW4 9484   3.572   1.664   3.808
 2364SOL     OW 9485   3.561   1.950   3.894
 2364SOL    HW2 9486   3.567   1.860   3.861
 2364SOL    HW3 9487   3.487   1.988   3.847
 2364SOL    MW4 9488   3.552   1.943   3.884
 2365SOL     OW 9489   3.798   2.057   3.772
 2365SOL    HW2 9490   3.875   2.004   3.795
 2365SOL    HW3 9491   3.731   2.031   3.835
 2365SOL    MW4 9492   3.800   2.047   3.784
 2366SOL     OW 9493   3.830   2.324   3.839
 2366SOL    HW2 9494   3.748   2.368   3.818
 2366SOL    HW3 9495   3.825   2.240   3.792
 2366SOL    MW4 9496   3.819   2.319   3.830
 2367SOL     OW 9497   3.599   2.461   3.758
 2367SOL    HW2 9498   3.536   2.397   3.790
 2367SOL    HW3 9499   3.599   2.450   3.663
 2367SOL    MW4 9500   3.591   2.451   3.750
 2368SOL     OW 9501   3.619   2.721   3.903
 2368SOL    HW2 9502   3.595   2.631   3.880
 2368SOL    HW3 9503   3.553   2.775   3.861
 2368SOL    MW4 9504   3.607   2.716   3.895
 2369SOL     OW 9505   3.838   2.828   3.753
 2369SOL    HW2 9506   3.918   2.777   3.771
 2369SOL    HW3 9507   3.769   2.781   3.801
 2369SOL    MW4 9508   3.840   2.815   3.762
 2370SOL     OW 9509   3.885   3.099   3.842
 2370SOL    HW2 9510   3.800   3.144   3.836
 2370SOL    HW3 9511   3.870   3.015   3.800
 2370SOL    MW4 9512   3.872   3.094   3.836
 2371SOL     OW 9513   3.640   3.244   3.798
 2371SOL    HW2 9514   3.609   3.330   3.826
 2371SOL    HW3 9515   3.627   3.244   3.703
 2371SOL    MW4 9516   3.634   3.255   3.789
 2372SOL     OW 9517   3.543   3.523   3.846
 2372SOL    HW2 9518   3.554   3.524   3.941
 2372SOL    HW3 9519   3.463   3.573   3.831
 2372SOL    MW4 9520   3.534   3.530   3.857
 2373SOL     OW 9521   3.794   3.654   3.734
 2373SOL    HW2 9522   3.805   3.725   3.796
 2373SOL    HW3 9523   3.713   3.610   3.761
 2373SOL    MW4 9524   3.785   3.657   3.746
 2374SOL     OW 9525   3.816   3.866   3.897
 2374SOL    HW2 9526   3.828   3.859   3.992
 2374SOL    HW3 9527   3.891   3.918   3.868
 2374SOL    MW4 9528   3.828   3.872   3.906
 2375SOL     OW 9529   3.609   4.010   3.774
 2375SOL    HW2 9530   3.608   4.098   3.811
 2375SOL    HW3 9531   3.679   3.965   3.821
 2375SOL    MW4 9532   3.618   4.016   3.785
 2376SOL     OW 9533   3.598   4.268   3.858
 2376SOL    HW2 9534   3.599   4.281   3.953
 2376SOL    HW3 9535   3.673   4.319   3.826
 2376SOL    MW4 9536   3.608   4.276   3.866
 2377SOL     OW 9537   3.800   4.402   3.750
 2377SOL    HW2 9538   3.877   4.355   3.784
 2377SOL    HW3 9539   3.817   4.412   3.657
 2377SOL    MW4 9540   3.813   4.397   3.742
 2378SOL     OW 9541   4.253   4.666   3.882
 2378SOL    HW2 9542   4.255   4.662   3.978
 2378SOL    HW3 9543   4.326   4.722   3.858
 2378SOL    MW4 9544   4.263   4.673   3.891
 2379SOL     OW 9545   4.046   0.144   3.782
 2379SOL    HW2 9546   4.129   0.103   3.807
 2379SOL    HW3 9547   4.051   0.152   3.687
 2379SOL    MW4 9548   4.058   0.140   3.773
 2380SOL     OW 9549   4.040   0.399   3.888
 2380SOL    HW2 9550   4.019   0.384   3.981
 2380SOL    HW3 9551   4.042   0.311   3.850
 2380SOL    MW4 9552   4.037   0.385   3.895
 2381SOL     OW 9553   4.259   0.536   3.790
 2381SOL    HW2 9554   4.194   0.490   3.844
 2381SOL    HW3 9555   4.234   0.515   3.700
 2381SOL    MW4 9556   4.247   0.527   3.785
 2382SOL     OW 9557   4.239   0.787   3.890
 2382SOL    HW2 9558   4.177   0.828   3.830
 2382SOL    HW3 9559   4.254   0.699   3.854
 2382SOL    MW4 9560   4.233   0.781   3.877
 2383SOL     OW 9561   4.031   0.896   3.759
 2383SOL    HW2 9562   4.015   0.988   3.782
 2383SOL    HW3 9563   4.010   0.890   3.666
 2383SOL    MW4 9564   4.026   0.907   3.750
 2384SOL     OW 9565   4.010   1.177   3.858
 2384SOL    HW2 9566   4.006   1.181   3.954
 2384SOL    HW3 9567   4.097   1.210   3.836
 2384SOL    MW4 9568   4.021   1.182   3.868
 2385SOL     OW 9569   4.259   1.287   3.777
 2385SOL    HW2 9570   4.261   1.375   3.814
 2385SOL    HW3 9571   4.255   1.300   3.682
 2385SOL    MW4 9572   4.259   1.300   3.769
 2386SOL     OW 9573   4.244   1.552   3.940
 2386SOL    HW2 9574   4.160   1.582   3.904
 2386SOL    HW3 9575   4.309   1.613   3.904
 2386SOL    MW4 9576   4.242   1.564   3.930
 2387SOL     OW 9577   4.025   1.662   3.787
 2387SOL    HW2 9578   4.032   1.752   3.820
 2387SOL    HW3 9579   3.945   1.628   3.826
 2387SOL    MW4 9580   4.016   1.669   3.796
 2388SOL     OW 9581   4.054   1.917   3.875
 2388SOL    HW2 9582   4.040   1.921   3.970
 2388SOL    HW3 9583   4.139   1.957   3.862
 2388SOL    MW4 9584   4.063   1.923   3.886
 2389SOL     OW 9585   4.277   2.061   3.795
 2389SOL    HW2 9586   4.286   2.155   3.810
 2389SOL    HW3 9587   4.281   2.053   3.699
 2389SOL    MW4 9588   4.279   2.073   3.784
 2390SOL     OW 9589   4.327   2.357   3.847
 2390SOL    HW2 9590   4.310   2.359   3.941
 2390SOL    HW3 9591   4.243   2.384   3.807
 2390SOL    MW4 9592   4.313   2.361   3.854
 2391SOL     OW 9593   4.075   2.433   3.726
 2391SOL    HW2 9594   4.057   2.524   3.752
 2391SOL    HW3 9595   4.000   2.384   3.761
 2391SOL    MW4 9596   4.063   2.439   3.734
 2392SOL     OW 9597   4.064   2.694   3.810
 2392SOL    HW2 9598   4.055   2.700   3.906
 2392SOL    HW3 9599   4.134   2.756   3.789
 2392SOL    MW4 9600   4.072   2.703   3.820
 2393SOL     OW 9601   4.286   2.865   3.743
 2393SOL    HW2 9602   4.290   2.944   3.797
 2393SOL    HW3 9603   4.368   2.819   3.761
 2393SOL    MW4 9604   4.297   2.870   3.752
 2394SOL     OW 9605   4.274   3.099   3.874
 2394SOL    HW2 9606   4.200   3.155   3.854
 2394SOL    HW3 9607   4.351   3.152   3.855
 2394SOL    MW4 9608   4.275   3.113   3.869
 2395SOL     OW 9609   4.085   3.274   3.798
 2395SOL    HW2 9610   4.009   3.219   3.816
 2395SOL    HW3 9611   4.091   3.278   3.703
 2395SOL    MW4 9612   4.076   3.268   3.788
 2396SOL     OW 9613   4.022   3.524   3.866
 2396SOL    HW2 9614   4.029   3.435   3.832
 2396SOL    HW3 9615   3.944   3.560   3.823
 2396SOL    MW4 9616   4.013   3.517   3.856
 2397SOL     OW 9617   4.266   3.640   3.796
 2397SOL    HW2 9618   4.184   3.598   3.822
 2397SOL    HW3 9619   4.335   3.588   3.839
 2397SOL    MW4 9620   4.264   3.628   3.805
 2398SOL     OW 9621   4.256   3.898   3.880
 2398SOL    HW2 9622   4.176   3.937   3.845
 2398SOL    HW3 9623   4.257   3.809   3.845
 2398SOL    MW4 9624   4.246   3.891   3.871
 2399SOL     OW 9625   4.030   4.024   3.779
 2399SOL    HW2 9626   4.032   4.118   3.798
 2399SOL    HW3 9627   4.036   4.019   3.684
 2399SOL    MW4 9628   4.031   4.036   3.769
 2400SOL     OW 9629   4.029   4.294   3.843
 2400SOL    HW2 9630   4.055   4.292   3.935
 2400SOL    HW3 9631   4.110   4.316   3.796
 2400SOL    MW4 9632   4.043   4.297   3.849
 2401SOL     OW 9633   4.268   4.405   3.739
 2401SOL    HW2 9634   4.230   4.488   3.769
 2401SOL    HW3 9635   4.336   4.385   3.803
 2401SOL    MW4 9636   4.272   4.413   3.751
 2402SOL     OW 9637   0.212   0.007   4.124
 2402SOL    HW2 9638   0.294   0.053   4.135
 2402SOL    HW3 9639   0.222  -0.074   4.174
 2402SOL    MW4 9640   0.224   0.002   4.132
 2403SOL     OW 9641   4.478   0.126   4.244
 2403SOL    HW2 9642   4.498   0.092   4.331
 2403SOL    HW3 9643   4.546   0.088   4.187
 2403SOL    MW4 9644   4.490   0.116   4.248
 2404SOL     OW 9645   4.476   0.403   4.180
 2404SOL    HW2 9646   4.479   0.310   4.203
 2404SOL    HW3 9647   4.499   0.406   4.087
 2404SOL    MW4 9648   4.479   0.391   4.171
 2405SOL     OW 9649   0.212   0.554   4.215
 2405SOL    HW2 9650   0.280   0.491   4.191
 2405SOL    HW3 9651   0.131   0.505   4.208
 2405SOL    MW4 9652   0.211   0.539   4.211
 2406SOL     OW 9653   0.202   0.828   4.131
 2406SOL    HW2 9654   0.127   0.871   4.171
 2406SOL    HW3 9655   0.207   0.743   4.175
 2406SOL    MW4 9656   0.193   0.822   4.142
 2407SOL     OW 9657   4.426   0.912   4.278
 2407SOL    HW2 9658   4.339   0.882   4.252
 2407SOL    HW3 9659   4.435   0.997   4.235
 2407SOL    MW4 9660   4.416   0.919   4.269
 2408SOL     OW 9661   0.003   1.174   4.173
 2408SOL    HW2 9662   0.089   1.208   4.199
 2408SOL    HW3 9663   0.008   1.165   4.078
 2408SOL    MW4 9664   0.015   1.177   4.164
 2409SOL     OW 9665   0.241   1.306   4.237
 2409SOL    HW2 9666   0.245   1.300   4.333
 2409SOL    HW3 9667   0.326   1.274   4.207
 2409SOL    MW4 9668   0.253   1.301   4.246
 2410SOL     OW 9669   0.491   1.770   4.779
 2410SOL    HW2 9670   0.418   1.827   4.804
 2410SOL    HW3 9671   0.453   1.710   4.715
 2410SOL    MW4 9672   0.476   1.770   4.774
 2411SOL     OW 9673   0.040   1.684   4.288
 2411SOL    HW2 9674  -0.039   1.644   4.251
 2411SOL    HW3 9675   0.033   1.777   4.266
 2411SOL    MW4 9676   0.029   1.691   4.280
 2412SOL     OW 9677   0.197   2.086   4.224
 2412SOL    HW2 9678   0.185   2.089   4.319
 2412SOL    HW3 9679   0.278   2.037   4.212
 2412SOL    MW4 9680   0.206   2.080   4.235
 2413SOL     OW 9681   0.491   1.367   4.672
 2413SOL    HW2 9682   0.435   1.435   4.634
 2413SOL    HW3 9683   0.497   1.391   4.765
 2413SOL    MW4 9684   0.484   1.379   4.679
 2414SOL     OW 9685   0.196   2.346   4.114
 2414SOL    HW2 9686   0.279   2.382   4.145
 2414SOL    HW3 9687   0.188   2.262   4.160
 2414SOL    MW4 9688   0.206   2.340   4.124
 2415SOL     OW 9689   4.448   2.443   4.208
 2415SOL    HW2 9690   4.394   2.377   4.164
 2415SOL    HW3 9691   4.537   2.427   4.175
 2415SOL    MW4 9692   4.452   2.432   4.198
 2416SOL     OW 9693   4.465   2.714   4.101
 2416SOL    HW2 9694   4.537   2.743   4.158
 2416SOL    HW3 9695   4.440   2.628   4.135
 2416SOL    MW4 9696   4.471   2.707   4.113
 2417SOL     OW 9697   0.214   2.824   4.221
 2417SOL    HW2 9698   0.297   2.784   4.196
 2417SOL    HW3 9699   0.226   2.917   4.200
 2417SOL    MW4 9700   0.227   2.831   4.215
 2418SOL     OW 9701   0.244   3.110   4.163
 2418SOL    HW2 9702   0.327   3.135   4.203
 2418SOL    HW3 9703   0.181   3.174   4.197
 2418SOL    MW4 9704   0.247   3.122   4.173
 2419SOL     OW 9705   0.037   3.245   4.269
 2419SOL    HW2 9706  -0.046   3.202   4.246
 2419SOL    HW3 9707   0.029   3.333   4.234
 2419SOL    MW4 9708   0.025   3.251   4.261
 2420SOL     OW 9709   0.021   3.508   4.191
 2420SOL    HW2 9710  -0.065   3.527   4.230
 2420SOL    HW3 9711   0.006   3.512   4.097
 2420SOL    MW4 9712   0.007   3.511   4.184
 2421SOL     OW 9713   0.257   3.603   4.285
 2421SOL    HW2 9714   0.327   3.560   4.236
 2421SOL    HW3 9715   0.177   3.576   4.240
 2421SOL    MW4 9716   0.256   3.594   4.273
 2422SOL     OW 9717   0.230   3.881   4.176
 2422SOL    HW2 9718   0.145   3.917   4.201
 2422SOL    HW3 9719   0.239   3.801   4.229
 2422SOL    MW4 9720   0.220   3.875   4.187
 2423SOL     OW 9721   4.491   4.028   4.261
 2423SOL    HW2 9722   4.483   4.005   4.354
 2423SOL    HW3 9723   4.421   3.978   4.218
 2423SOL    MW4 9724   4.481   4.019   4.268
 2424SOL     OW 9725   0.060   4.291   4.188
 2424SOL    HW2 9726   0.054   4.209   4.236
 2424SOL    HW3 9727   0.042   4.267   4.097
 2424SOL    MW4 9728   0.057   4.277   4.182
 2425SOL     OW 9729   0.250   4.455   4.284
 2425SOL    HW2 9730   0.225   4.467   4.375
 2425SOL    HW3 9731   0.178   4.406   4.245
 2425SOL    MW4 9732   0.238   4.450   4.291
 2426SOL     OW 9733   0.671   4.651   4.096
 2426SOL    HW2 9734   0.604   4.707   4.134
 2426SOL    HW3 9735   0.661   4.663   4.001
 2426SOL    MW4 9736   0.660   4.660   4.088
 2427SOL     OW 9737   0.443   0.115   4.213
 2427SOL    HW2 9738   0.445   0.087   4.304
 2427SOL    HW3 9739   0.442   0.211   4.217
 2427SOL    MW4 9740   0.443   0.124   4.225
 2428SOL     OW 9741   0.453   0.402   4.147
 2428SOL    HW2 9742   0.537   0.432   4.183
 2428SOL    HW3 9743   0.465   0.408   4.052
 2428SOL    MW4 9744   0.466   0.407   4.139
 2429SOL     OW 9745   0.689   0.503   4.216
 2429SOL    HW2 9746   0.775   0.470   4.192
 2429SOL    HW3 9747   0.684   0.590   4.177
 2429SOL    MW4 9748   0.699   0.510   4.208
 2430SOL     OW 9749   0.679   0.767   4.120
 2430SOL    HW2 9750   0.593   0.804   4.142
 2430SOL    HW3 9751   0.681   0.767   4.024
 2430SOL    MW4 9752   0.668   0.772   4.110
 2431SOL     OW 9753   0.454   0.905   4.207
 2431SOL    HW2 9754   0.468   0.999   4.193
 2431SOL    HW3 9755   0.370   0.886   4.165
 2431SOL    MW4 9756   0.445   0.915   4.200
 2432SOL     OW 9757   0.478   1.176   4.135
 2432SOL    HW2 9758   0.554   1.230   4.157
 2432SOL    HW3 9759   0.470   1.182   4.040
 2432SOL    MW4 9760   0.487   1.184   4.126
 2433SOL     OW 9761   0.690   1.306   4.224
 2433SOL    HW2 9762   0.697   1.328   4.317
 2433SOL    HW3 9763   0.679   1.390   4.180
 2433SOL    MW4 9764   0.690   1.320   4.231
 2434SOL     OW 9765   0.693   1.574   4.166
 2434SOL    HW2 9766   0.776   1.616   4.190
 2434SOL    HW3 9767   0.679   1.600   4.075
 2434SOL    MW4 9768   0.702   1.583   4.157
 2435SOL     OW 9769   0.241   1.556   4.152
 2435SOL    HW2 9770   0.251   1.469   4.191
 2435SOL    HW3 9771   0.165   1.594   4.196
 2435SOL    MW4 9772   0.232   1.550   4.163
 2436SOL     OW 9773   0.415   1.920   4.184
 2436SOL    HW2 9774   0.430   1.838   4.232
 2436SOL    HW3 9775   0.440   1.899   4.094
 2436SOL    MW4 9776   0.421   1.906   4.178
 2437SOL     OW 9777   0.639   2.089   4.229
 2437SOL    HW2 9778   0.639   2.091   4.324
 2437SOL    HW3 9779   0.555   2.050   4.205
 2437SOL    MW4 9780   0.628   2.084   4.238
 2438SOL     OW 9781   0.660   2.357   4.137
 2438SOL    HW2 9782   0.667   2.264   4.157
 2438SOL    HW3 9783   0.653   2.361   4.042
 2438SOL    MW4 9784   0.660   2.345   4.127
 2439SOL     OW 9785   0.415   2.454   4.228
 2439SOL    HW2 9786   0.428   2.540   4.188
 2439SOL    HW3 9787   0.500   2.411   4.220
 2439SOL    MW4 9788   0.428   2.460   4.222
 2440SOL     OW 9789   0.446   2.701   4.123
 2440SOL    HW2 9790   0.523   2.750   4.152
 2440SOL    HW3 9791   0.446   2.709   4.028
 2440SOL    MW4 9792   0.456   2.709   4.115
 2441SOL     OW 9793   0.701   2.798   4.202
 2441SOL    HW2 9794   0.708   2.775   4.295
 2441SOL    HW3 9795   0.717   2.892   4.200
 2441SOL    MW4 9796   0.704   2.807   4.214
 2442SOL     OW 9797   0.709   3.079   4.169
 2442SOL    HW2 9798   0.789   3.128   4.186
 2442SOL    HW3 9799   0.642   3.125   4.220
 2442SOL    MW4 9800   0.710   3.092   4.178
 2443SOL     OW 9801   0.470   3.220   4.280
 2443SOL    HW2 9802   0.461   3.234   4.374
 2443SOL    HW3 9803   0.455   3.306   4.242
 2443SOL    MW4 9804   0.467   3.233   4.287
 2444SOL     OW 9805   0.453   3.460   4.138
 2444SOL    HW2 9806   0.540   3.492   4.161
 2444SOL    HW3 9807   0.445   3.476   4.044
 2444SOL    MW4 9808   0.463   3.466   4.129
 2445SOL     OW 9809   0.682   3.587   4.215
 2445SOL    HW2 9810   0.682   3.595   4.311
 2445SOL    HW3 9811   0.767   3.547   4.195
 2445SOL    MW4 9812   0.694   3.583   4.225
 2446SOL     OW 9813   0.686   3.862   4.165
 2446SOL    HW2 9814   0.605   3.903   4.195
 2446SOL    HW3 9815   0.669   3.768   4.175
 2446SOL    MW4 9816   0.673   3.855   4.171
 2447SOL     OW 9817   0.473   3.994   4.275
 2447SOL    HW2 9818   0.478   4.088   4.256
 2447SOL    HW3 9819   0.389   3.967   4.238
 2447SOL    MW4 9820   0.462   4.003   4.268
 2448SOL     OW 9821   0.461   4.277   4.210
 2448SOL    HW2 9822   0.388   4.333   4.238
 2448SOL    HW3 9823   0.465   4.289   4.115
 2448SOL    MW4 9824   0.452   4.286   4.201
 2449SOL     OW 9825   0.714   4.407   4.221
 2449SOL    HW2 9826   0.634   4.355   4.218
 2449SOL    HW3 9827   0.690   4.490   4.180
 2449SOL    MW4 9828   0.700   4.411   4.215
 2450SOL     OW 9829   1.121   4.613   4.136
 2450SOL    HW2 9830   1.145   4.533   4.183
 2450SOL    HW3 9831   1.122   4.588   4.043
 2450SOL    MW4 9832   1.124   4.599   4.130
 2451SOL     OW 9833   0.902   0.078   4.234
 2451SOL    HW2 9834   0.980   0.038   4.195
 2451SOL    HW3 9835   0.830   0.051   4.177
 2451SOL    MW4 9836   0.903   0.069   4.221
 2452SOL     OW 9837   0.926   0.363   4.153
 2452SOL    HW2 9838   1.007   0.401   4.187
 2452SOL    HW3 9839   0.929   0.271   4.180
 2452SOL    MW4 9840   0.937   0.356   4.161
 2453SOL     OW 9841   1.145   0.510   4.261
 2453SOL    HW2 9842   1.170   0.540   4.348
 2453SOL    HW3 9843   1.223   0.464   4.228
 2453SOL    MW4 9844   1.159   0.508   4.268
 2454SOL     OW 9845   1.081   0.761   4.168
 2454SOL    HW2 9846   1.159   0.810   4.194
 2454SOL    HW3 9847   1.097   0.672   4.197
 2454SOL    MW4 9848   1.093   0.756   4.175
 2455SOL     OW 9849   0.878   0.914   4.292
 2455SOL    HW2 9850   0.945   0.851   4.267
 2455SOL    HW3 9851   0.797   0.879   4.255
 2455SOL    MW4 9852   0.876   0.901   4.284
 2456SOL     OW 9853   0.896   1.132   4.134
 2456SOL    HW2 9854   0.887   1.059   4.195
 2456SOL    HW3 9855   0.819   1.186   4.150
 2456SOL    MW4 9856   0.885   1.129   4.144
 2457SOL     OW 9857   1.096   1.283   4.282
 2457SOL    HW2 9858   1.062   1.285   4.371
 2457SOL    HW3 9859   1.025   1.243   4.231
 2457SOL    MW4 9860   1.082   1.278   4.287
 2458SOL     OW 9861   1.131   1.520   4.134
 2458SOL    HW2 9862   1.051   1.559   4.170
 2458SOL    HW3 9863   1.144   1.440   4.185
 2458SOL    MW4 9864   1.123   1.515   4.145
 2459SOL     OW 9865   0.931   1.674   4.267
 2459SOL    HW2 9866   0.903   1.678   4.358
 2459SOL    HW3 9867   0.901   1.756   4.228
 2459SOL    MW4 9868   0.923   1.685   4.274
 2460SOL     OW 9869   0.866   1.952   4.172
 2460SOL    HW2 9870   0.795   2.002   4.213
 2460SOL    HW3 9871   0.857   1.970   4.079
 2460SOL    MW4 9872   0.855   1.961   4.165
 2461SOL     OW 9873   1.119   2.050   4.254
 2461SOL    HW2 9874   1.143   2.012   4.339
 2461SOL    HW3 9875   1.034   2.011   4.234
 2461SOL    MW4 9876   1.111   2.040   4.263
 2462SOL     OW 9877   1.106   2.317   4.182
 2462SOL    HW2 9878   1.189   2.358   4.206
 2462SOL    HW3 9879   1.119   2.224   4.202
 2462SOL    MW4 9880   1.119   2.310   4.188
 2463SOL     OW 9881   0.879   2.441   4.283
 2463SOL    HW2 9882   0.955   2.397   4.245
 2463SOL    HW3 9883   0.804   2.410   4.232
 2463SOL    MW4 9884   0.879   2.431   4.271
 2464SOL     OW 9885   0.930   2.668   4.160
 2464SOL    HW2 9886   0.896   2.588   4.200
 2464SOL    HW3 9887   0.858   2.730   4.166
 2464SOL    MW4 9888   0.916   2.666   4.166
 2465SOL     OW 9889   1.165   2.787   4.282
 2465SOL    HW2 9890   1.181   2.878   4.258
 2465SOL    HW3 9891   1.103   2.756   4.216
 2465SOL    MW4 9892   1.159   2.795   4.270
 2466SOL     OW 9893   1.208   3.038   4.177
 2466SOL    HW2 9894   1.260   3.113   4.204
 2466SOL    HW3 9895   1.183   3.057   4.087
 2466SOL    MW4 9896   1.211   3.050   4.169
 2467SOL     OW 9897   0.943   3.186   4.247
 2467SOL    HW2 9898   0.927   3.193   4.341
 2467SOL    HW3 9899   1.024   3.136   4.240
 2467SOL    MW4 9900   0.951   3.180   4.258
 2468SOL     OW 9901   0.930   3.458   4.163
 2468SOL    HW2 9902   0.933   3.364   4.178
 2468SOL    HW3 9903   0.923   3.468   4.068
 2468SOL    MW4 9904   0.930   3.447   4.152
 2469SOL     OW 9905   1.125   3.626   4.272
 2469SOL    HW2 9906   1.119   3.685   4.196
 2469SOL    HW3 9907   1.058   3.559   4.255
 2469SOL    MW4 9908   1.115   3.625   4.259
 2470SOL     OW 9909   1.132   3.855   4.107
 2470SOL    HW2 9910   1.214   3.879   4.151
 2470SOL    HW3 9911   1.066   3.910   4.150
 2470SOL    MW4 9912   1.134   3.866   4.119
 2471SOL     OW 9913   0.911   3.988   4.248
 2471SOL    HW2 9914   0.911   4.080   4.223
 2471SOL    HW3 9915   0.834   3.951   4.205
 2471SOL    MW4 9916   0.901   3.995   4.239
 2472SOL     OW 9917   0.955   4.267   4.152
 2472SOL    HW2 9918   1.028   4.310   4.195
 2472SOL    HW3 9919   0.878   4.318   4.179
 2472SOL    MW4 9920   0.954   4.280   4.161
 2473SOL     OW 9921   1.174   4.385   4.268
 2473SOL    HW2 9922   1.200   4.412   4.356
 2473SOL    HW3 9923   1.243   4.325   4.240
 2473SOL    MW4 9924   1.187   4.381   4.276
 2474SOL     OW 9925   1.574   4.643   4.132
 2474SOL    HW2 9926   1.652   4.671   4.179
 2474SOL    HW3 9927   1.502   4.691   4.173
 2474SOL    MW4 9928   1.575   4.653   4.143
 2475SOL     OW 9929   1.330   0.102   4.226
 2475SOL    HW2 9930   1.313   0.099   4.321
 2475SOL    HW3 9931   1.253   0.060   4.187
 2475SOL    MW4 9932   1.317   0.096   4.234
 2476SOL     OW 9933   1.394   0.379   4.156
 2476SOL    HW2 9934   1.469   0.412   4.205
 2476SOL    HW3 9935   1.381   0.290   4.188
 2476SOL    MW4 9936   1.403   0.372   4.166
 2477SOL     OW 9937   1.634   0.495   4.264
 2477SOL    HW2 9938   1.618   0.478   4.357
 2477SOL    HW3 9939   1.616   0.589   4.254
 2477SOL    MW4 9940   1.629   0.505   4.275
 2478SOL     OW 9941   1.524   0.775   4.174
 2478SOL    HW2 9942   1.606   0.816   4.200
 2478SOL    HW3 9943   1.531   0.763   4.079
 2478SOL    MW4 9944   1.536   0.779   4.165
 2479SOL     OW 9945   1.298   0.901   4.229
 2479SOL    HW2 9946   1.328   0.990   4.214
 2479SOL    HW3 9947   1.376   0.847   4.213
 2479SOL    MW4 9948   1.313   0.905   4.225
 2480SOL     OW 9949   1.349   1.180   4.190
 2480SOL    HW2 9950   1.264   1.209   4.225
 2480SOL    HW3 9951   1.340   1.189   4.095
 2480SOL    MW4 9952   1.336   1.185   4.182
 2481SOL     OW 9953   1.595   1.316   4.254
 2481SOL    HW2 9954   1.600   1.324   4.349
 2481SOL    HW3 9955   1.519   1.260   4.238
 2481SOL    MW4 9956   1.585   1.310   4.264
 2482SOL     OW 9957   1.544   1.582   4.134
 2482SOL    HW2 9958   1.475   1.621   4.188
 2482SOL    HW3 9959   1.550   1.492   4.165
 2482SOL    MW4 9960   1.535   1.576   4.146
 2483SOL     OW 9961   1.338   1.676   4.291
 2483SOL    HW2 9962   1.311   1.757   4.247
 2483SOL    HW3 9963   1.277   1.610   4.257
 2483SOL    MW4 9964   1.326   1.678   4.281
 2484SOL     OW 9965   1.321   1.900   4.122
 2484SOL    HW2 9966   1.406   1.939   4.141
 2484SOL    HW3 9967   1.258   1.964   4.155
 2484SOL    MW4 9968   1.324   1.913   4.129
 2485SOL     OW 9969   1.561   2.025   4.163
 2485SOL    HW2 9970   1.653   2.001   4.172
 2485SOL    HW3 9971   1.562   2.121   4.158
 2485SOL    MW4 9972   1.574   2.035   4.163
 2486SOL     OW 9973   1.557   2.290   4.160
 2486SOL    HW2 9974   1.607   2.357   4.206
 2486SOL    HW3 9975   1.581   2.301   4.068
 2486SOL    MW4 9976   1.567   2.300   4.154
 2487SOL     OW 9977   1.546   2.899   4.225
 2487SOL    HW2 9978   1.547   2.875   4.318
 2487SOL    HW3 9979   1.635   2.884   4.195
 2487SOL    MW4 9980   1.558   2.894   4.233
 2488SOL     OW 9981   1.387   2.676   4.162
 2488SOL    HW2 9982   1.455   2.740   4.183
 2488SOL    HW3 9983   1.306   2.715   4.196
 2488SOL    MW4 9984   1.385   2.690   4.169
 2489SOL     OW 9985   1.657   2.324   4.532
 2489SOL    HW2 9986   1.631   2.386   4.600
 2489SOL    HW3 9987   1.740   2.288   4.562
 2489SOL    MW4 9988   1.664   2.328   4.545
 2490SOL     OW 9989   1.520   3.123   4.086
 2490SOL    HW2 9990   1.580   3.188   4.122
 2490SOL    HW3 9991   1.532   3.046   4.141
 2490SOL    MW4 9992   1.530   3.121   4.098
 2491SOL     OW 9993   1.328   3.256   4.292
 2491SOL    HW2 9994   1.420   3.230   4.289
 2491SOL    HW3 9995   1.324   3.336   4.239
 2491SOL    MW4 9996   1.340   3.263   4.285
 2492SOL     OW 9997   1.342   3.486   4.148
 2492SOL    HW2 9998   1.275   3.543   4.186
 2492SOL    HW3 9999   1.336   3.501   4.054
 2492SOL    MW410000   1.332   3.495   4.141
 2493SOL     OW10001   1.610   3.640   4.205
 2493SOL    HW210002   1.606   3.644   4.300
 2493SOL    HW310003   1.535   3.586   4.180
 2493SOL    MW410004   1.599   3.633   4.214
 2494SOL     OW10005   1.588   3.889   4.104
 2494SOL    HW210006   1.502   3.905   4.144
 2494SOL    HW310007   1.606   3.797   4.125
 2494SOL    MW410008   1.579   3.879   4.112
 2495SOL     OW10009   1.349   3.953   4.229
 2495SOL    HW210010   1.369   3.926   4.319
 2495SOL    HW310011   1.350   4.049   4.232
 2495SOL    MW410012   1.352   3.962   4.241
 2496SOL     OW10013   1.373   4.239   4.147
 2496SOL    HW210014   1.451   4.287   4.175
 2496SOL    HW310015   1.361   4.263   4.055
 2496SOL    MW410016   1.382   4.248   4.138
 2497SOL     OW10017   1.605   4.386   4.230
 2497SOL    HW210018   1.574   4.466   4.189
 2497SOL    HW310019   1.681   4.360   4.178
 2497SOL    MW410020   1.611   4.393   4.218
 2498SOL     OW10021   2.037   4.632   4.139
 2498SOL    HW210022   1.963   4.683   4.173
 2498SOL    HW310023   2.032   4.642   4.044
 2498SOL    MW410024   2.027   4.640   4.131
 2499SOL     OW10025   1.798   0.077   4.258
 2499SOL    HW210026   1.788   0.083   4.353
 2499SOL    HW310027   1.806   0.168   4.229
 2499SOL    MW410028   1.797   0.090   4.266
 2500SOL     OW10029   1.806   0.332   4.124
 2500SOL    HW210030   1.888   0.371   4.151
 2500SOL    HW310031   1.738   0.389   4.160
 2500SOL    MW410032   1.808   0.344   4.132
 2501SOL     OW10033   2.018   0.459   4.250
 2501SOL    HW210034   2.007   0.429   4.340
 2501SOL    HW310035   2.105   0.428   4.225
 2501SOL    MW410036   2.028   0.451   4.258
 2502SOL     OW10037   1.976   0.731   4.144
 2502SOL    HW210038   2.053   0.778   4.175
 2502SOL    HW310039   1.991   0.641   4.171
 2502SOL    MW410040   1.988   0.725   4.151
 2503SOL     OW10041   1.786   0.912   4.255
 2503SOL    HW210042   1.801   1.000   4.220
 2503SOL    HW310043   1.840   0.855   4.199
 2503SOL    MW410044   1.795   0.916   4.243
 2504SOL     OW10045   1.831   1.171   4.142
 2504SOL    HW210046   1.912   1.200   4.184
 2504SOL    HW310047   1.762   1.219   4.188
 2504SOL    MW410048   1.832   1.181   4.154
 2505SOL     OW10049   2.060   1.279   4.263
 2505SOL    HW210050   2.135   1.241   4.216
 2505SOL    HW310051   2.052   1.368   4.227
 2505SOL    MW410052   2.069   1.286   4.252
 2506SOL     OW10053   2.005   1.543   4.193
 2506SOL    HW210054   2.084   1.596   4.203
 2506SOL    HW310055   1.994   1.535   4.098
 2506SOL    MW410056   2.014   1.549   4.182
 2507SOL     OW10057   1.778   1.686   4.220
 2507SOL    HW210058   1.849   1.625   4.204
 2507SOL    HW310059   1.699   1.638   4.197
 2507SOL    MW410060   1.777   1.672   4.215
 2508SOL     OW10061   1.836   1.945   4.136
 2508SOL    HW210062   1.811   1.855   4.155
 2508SOL    HW310063   1.926   1.953   4.167
 2508SOL    MW410064   1.844   1.934   4.143
 2509SOL     OW10065   1.687   2.497   4.287
 2509SOL    HW210066   1.696   2.446   4.368
 2509SOL    HW310067   1.775   2.531   4.271
 2509SOL    MW410068   1.700   2.495   4.296
 2510SOL     OW10069   2.568   2.302   4.146
 2510SOL    HW210070   2.506   2.241   4.187
 2510SOL    HW310071   2.549   2.297   4.052
 2510SOL    MW410072   2.558   2.293   4.139
 2511SOL     OW10073   1.817   3.046   4.371
 2511SOL    HW210074   1.795   2.957   4.344
 2511SOL    HW310075   1.911   3.043   4.391
 2511SOL    MW410076   1.827   3.034   4.370
 2512SOL     OW10077   1.818   2.849   4.167
 2512SOL    HW210078   1.878   2.781   4.199
 2512SOL    HW310079   1.876   2.920   4.141
 2512SOL    MW410080   1.834   2.849   4.168
 2513SOL     OW10081   2.091   3.197   4.266
 2513SOL    HW210082   2.089   3.120   4.323
 2513SOL    HW310083   2.046   3.169   4.186
 2513SOL    MW410084   2.085   3.183   4.263
 2514SOL     OW10085   2.196   2.908   4.087
 2514SOL    HW210086   2.279   2.951   4.105
 2514SOL    HW310087   2.176   2.860   4.167
 2514SOL    MW410088   2.204   2.907   4.100
 2515SOL     OW10089   1.668   3.253   4.281
 2515SOL    HW210090   1.715   3.330   4.249
 2515SOL    HW310091   1.736   3.188   4.296
 2515SOL    MW410092   1.683   3.255   4.279
 2516SOL     OW10093   1.792   3.453   4.154
 2516SOL    HW210094   1.725   3.518   4.172
 2516SOL    HW310095   1.799   3.452   4.059
 2516SOL    MW410096   1.784   3.462   4.144
 2517SOL     OW10097   2.042   3.587   4.206
 2517SOL    HW210098   2.027   3.667   4.156
 2517SOL    HW310099   1.966   3.532   4.186
 2517SOL    MW410100   2.030   3.590   4.197
 2518SOL     OW10101   2.001   3.831   4.093
 2518SOL    HW210102   1.947   3.902   4.129
 2518SOL    HW310103   1.982   3.832   3.999
 2518SOL    MW410104   1.991   3.840   4.086
 2519SOL     OW10105   1.803   4.018   4.202
 2519SOL    HW210106   1.800   4.099   4.151
 2519SOL    HW310107   1.718   3.976   4.185
 2519SOL    MW410108   1.791   4.023   4.193
 2520SOL     OW10109   1.812   4.271   4.082
 2520SOL    HW210110   1.891   4.314   4.115
 2520SOL    HW310111   1.824   4.269   3.987
 2520SOL    MW410112   1.824   4.276   4.074
 2521SOL     OW10113   2.068   4.357   4.194
 2521SOL    HW210114   2.043   4.327   4.281
 2521SOL    HW310115   2.052   4.451   4.196
 2521SOL    MW410116   2.063   4.365   4.206
 2522SOL     OW10117   2.516   4.589   4.111
 2522SOL    HW210118   2.580   4.646   4.154
 2522SOL    HW310119   2.520   4.508   4.161
 2522SOL    MW410120   2.525   4.586   4.124
 2523SOL     OW10121   2.286   0.072   4.251
 2523SOL    HW210122   2.356   0.050   4.189
 2523SOL    HW310123   2.209   0.027   4.217
 2523SOL    MW410124   2.285   0.063   4.238
 2524SOL     OW10125   2.257   0.361   4.130
 2524SOL    HW210126   2.256   0.269   4.159
 2524SOL    HW310127   2.234   0.357   4.037
 2524SOL    MW410128   2.253   0.348   4.122
 2525SOL     OW10129   2.481   0.479   4.225
 2525SOL    HW210130   2.460   0.476   4.318
 2525SOL    HW310131   2.401   0.448   4.181
 2525SOL    MW410132   2.468   0.474   4.231
 2526SOL     OW10133   2.446   0.761   4.163
 2526SOL    HW210134   2.456   0.668   4.186
 2526SOL    HW310135   2.456   0.763   4.067
 2526SOL    MW410136   2.449   0.749   4.153
 2527SOL     OW10137   2.197   0.872   4.244
 2527SOL    HW210138   2.191   0.880   4.339
 2527SOL    HW310139   2.277   0.821   4.229
 2527SOL    MW410140   2.207   0.866   4.255
 2528SOL     OW10141   2.245   1.144   4.136
 2528SOL    HW210142   2.332   1.167   4.167
 2528SOL    HW310143   2.237   1.050   4.152
 2528SOL    MW410144   2.255   1.135   4.142
 2529SOL     OW10145   2.444   1.304   4.270
 2529SOL    HW210146   2.425   1.290   4.363
 2529SOL    HW310147   2.528   1.260   4.255
 2529SOL    MW410148   2.452   1.296   4.280
 2530SOL     OW10149   2.480   1.540   4.124
 2530SOL    HW210150   2.469   1.463   4.180
 2530SOL    HW310151   2.480   1.505   4.035
 2530SOL    MW410152   2.478   1.525   4.119
 2531SOL     OW10153   2.259   1.700   4.238
 2531SOL    HW210154   2.331   1.651   4.197
 2531SOL    HW310155   2.259   1.785   4.194
 2531SOL    MW410156   2.269   1.705   4.227
 2532SOL     OW10157   2.354   1.946   4.121
 2532SOL    HW210158   2.449   1.932   4.128
 2532SOL    HW310159   2.337   2.020   4.180
 2532SOL    MW410160   2.364   1.954   4.130
 2533SOL     OW10161   2.359   2.151   4.311
 2533SOL    HW210162   2.286   2.210   4.328
 2533SOL    HW310163   2.369   2.101   4.392
 2533SOL    MW410164   2.351   2.152   4.324
 2534SOL     OW10165   2.658   2.570   4.076
 2534SOL    HW210166   2.579   2.517   4.089
 2534SOL    HW310167   2.668   2.618   4.158
 2534SOL    MW410168   2.649   2.569   4.089
 2535SOL     OW10169   2.366   2.496   4.441
 2535SOL    HW210170   2.371   2.520   4.349
 2535SOL    HW310171   2.374   2.579   4.488
 2535SOL    MW410172   2.368   2.510   4.435
 2536SOL     OW10173   1.938   2.604   4.213
 2536SOL    HW210174   2.000   2.660   4.262
 2536SOL    HW310175   1.994   2.552   4.156
 2536SOL    MW410176   1.954   2.605   4.212
 2537SOL     OW10177   2.479   2.799   4.322
 2537SOL    HW210178   2.428   2.756   4.253
 2537SOL    HW310179   2.416   2.816   4.392
 2537SOL    MW410180   2.464   2.796   4.322
 2538SOL     OW10181   2.361   3.221   4.230
 2538SOL    HW210182   2.267   3.206   4.225
 2538SOL    HW310183   2.387   3.186   4.316
 2538SOL    MW410184   2.352   3.214   4.241
 2539SOL     OW10185   1.964   3.051   4.050
 2539SOL    HW210186   1.966   3.072   3.957
 2539SOL    HW310187   2.050   3.013   4.068
 2539SOL    MW410188   1.976   3.049   4.040
 2540SOL     OW10189   2.274   3.461   4.106
 2540SOL    HW210190   2.306   3.385   4.154
 2540SOL    HW310191   2.193   3.485   4.152
 2540SOL    MW410192   2.267   3.454   4.118
 2541SOL     OW10193   2.456   3.591   4.255
 2541SOL    HW210194   2.386   3.565   4.194
 2541SOL    HW310195   2.467   3.685   4.240
 2541SOL    MW410196   2.448   3.600   4.245
 2542SOL     OW10197   2.480   3.845   4.127
 2542SOL    HW210198   2.563   3.888   4.147
 2542SOL    HW310199   2.487   3.823   4.034
 2542SOL    MW410200   2.492   3.848   4.117
 2543SOL     OW10201   2.229   3.961   4.197
 2543SOL    HW210202   2.311   3.913   4.185
 2543SOL    HW310203   2.164   3.910   4.148
 2543SOL    MW410204   2.231   3.948   4.189
 2544SOL     OW10205   2.277   4.230   4.085
 2544SOL    HW210206   2.257   4.148   4.129
 2544SOL    HW310207   2.207   4.290   4.112
 2544SOL    MW410208   2.265   4.227   4.095
 2545SOL     OW10209   2.483   4.341   4.258
 2545SOL    HW210210   2.561   4.292   4.231
 2545SOL    HW310211   2.411   4.300   4.210
 2545SOL    MW410212   2.484   4.329   4.248
 2546SOL     OW10213   2.980   0.078   4.097
 2546SOL    HW210214   3.006   0.170   4.099
 2546SOL    HW310215   3.033   0.037   4.165
 2546SOL    MW410216   2.991   0.085   4.106
 2547SOL     OW10217   2.726   0.102   4.192
 2547SOL    HW210218   2.706   0.187   4.153
 2547SOL    HW310219   2.813   0.081   4.159
 2547SOL    MW410220   2.735   0.111   4.183
 2548SOL     OW10221   2.702   0.373   4.110
 2548SOL    HW210222   2.614   0.387   4.147
 2548SOL    HW310223   2.688   0.371   4.016
 2548SOL    MW410224   2.689   0.375   4.103
 2549SOL     OW10225   3.296   0.695   4.101
 2549SOL    HW210226   3.352   0.733   4.169
 2549SOL    HW310227   3.207   0.715   4.130
 2549SOL    MW410228   3.292   0.703   4.114
 2550SOL     OW10229   3.015   0.773   4.128
 2550SOL    HW210230   3.056   0.859   4.122
 2550SOL    HW310231   2.974   0.759   4.043
 2550SOL    MW410232   3.015   0.782   4.116
 2551SOL     OW10233   2.673   0.891   4.301
 2551SOL    HW210234   2.732   0.822   4.333
 2551SOL    HW310235   2.609   0.844   4.248
 2551SOL    MW410236   2.673   0.876   4.299
 2552SOL     OW10237   2.667   1.154   4.204
 2552SOL    HW210238   2.669   1.063   4.234
 2552SOL    HW310239   2.667   1.147   4.108
 2552SOL    MW410240   2.667   1.141   4.195
 2553SOL     OW10241   2.879   1.313   4.315
 2553SOL    HW210242   2.957   1.260   4.333
 2553SOL    HW310243   2.817   1.253   4.274
 2553SOL    MW410244   2.881   1.298   4.312
 2554SOL     OW10245   2.946   1.551   4.162
 2554SOL    HW210246   3.015   1.605   4.202
 2554SOL    HW310247   2.950   1.468   4.210
 2554SOL    MW410248   2.956   1.547   4.174
 2555SOL     OW10249   2.698   1.680   4.282
 2555SOL    HW210250   2.771   1.623   4.258
 2555SOL    HW310251   2.621   1.640   4.240
 2555SOL    MW410252   2.697   1.667   4.273
 2556SOL     OW10253   2.630   1.921   4.165
 2556SOL    HW210254   2.660   1.843   4.211
 2556SOL    HW310255   2.665   1.912   4.076
 2556SOL    MW410256   2.639   1.909   4.159
 2557SOL     OW10257   2.833   2.117   4.250
 2557SOL    HW210258   2.826   2.198   4.198
 2557SOL    HW310259   2.762   2.062   4.218
 2557SOL    MW410260   2.823   2.121   4.239
 2558SOL     OW10261   2.882   2.351   4.088
 2558SOL    HW210262   2.950   2.382   4.148
 2558SOL    HW310263   2.813   2.417   4.093
 2558SOL    MW410264   2.882   2.363   4.097
 2559SOL     OW10265   2.691   2.971   4.245
 2559SOL    HW210266   2.699   3.051   4.298
 2559SOL    HW310267   2.621   2.921   4.287
 2559SOL    MW410268   2.683   2.975   4.258
 2560SOL     OW10269   2.479   3.048   4.066
 2560SOL    HW210270   2.558   3.029   4.117
 2560SOL    HW310271   2.441   3.125   4.108
 2560SOL    MW410272   2.485   3.056   4.078
 2561SOL     OW10273   2.955   2.940   4.089
 2561SOL    HW210274   2.863   2.951   4.113
 2561SOL    HW310275   2.964   2.988   4.006
 2561SOL    MW410276   2.944   2.948   4.081
 2562SOL     OW10277   2.979   3.136   4.299
 2562SOL    HW210278   3.014   3.078   4.367
 2562SOL    HW310279   2.994   3.088   4.217
 2562SOL    MW410280   2.986   3.122   4.297
 2563SOL     OW10281   2.729   3.240   4.325
 2563SOL    HW210282   2.735   3.305   4.395
 2563SOL    HW310283   2.819   3.210   4.313
 2563SOL    MW410284   2.742   3.245   4.333
 2564SOL     OW10285   2.680   3.467   4.165
 2564SOL    HW210286   2.679   3.391   4.224
 2564SOL    HW310287   2.599   3.514   4.185
 2564SOL    MW410288   2.669   3.463   4.175
 2565SOL     OW10289   2.899   3.634   4.191
 2565SOL    HW210290   2.921   3.649   4.283
 2565SOL    HW310291   2.825   3.574   4.194
 2565SOL    MW410292   2.892   3.628   4.204
 2566SOL     OW10293   2.942   3.866   4.052
 2566SOL    HW210294   3.004   3.914   4.107
 2566SOL    HW310295   2.942   3.777   4.088
 2566SOL    MW410296   2.950   3.860   4.064
 2567SOL     OW10297   2.733   3.934   4.215
 2567SOL    HW210298   2.734   4.029   4.202
 2567SOL    HW310299   2.805   3.902   4.161
 2567SOL    MW410300   2.743   3.943   4.206
 2568SOL     OW10301   2.725   4.220   4.148
 2568SOL    HW210302   2.793   4.286   4.161
 2568SOL    HW310303   2.700   4.229   4.056
 2568SOL    MW410304   2.731   4.230   4.137
 2569SOL     OW10305   2.906   4.432   4.153
 2569SOL    HW210306   2.873   4.427   4.243
 2569SOL    HW310307   2.981   4.372   4.152
 2569SOL    MW410308   2.912   4.424   4.165
 2570SOL     OW10309   3.323   4.660   4.164
 2570SOL    HW210310   3.413   4.690   4.176
 2570SOL    HW310311   3.325   4.567   4.189
 2570SOL    MW410312   3.335   4.652   4.169
 2571SOL     OW10313   3.107   0.045   4.338
 2571SOL    HW210314   3.131  -0.025   4.398
 2571SOL    HW310315   3.188   0.067   4.293
 2571SOL    MW410316   3.120   0.039   4.340
 2572SOL     OW10317   3.040   0.339   4.107
 2572SOL    HW210318   3.128   0.372   4.123
 2572SOL    HW310319   2.983   0.396   4.158
 2572SOL    MW410320   3.044   0.351   4.116
 2573SOL     OW10321   3.310   0.438   4.197
 2573SOL    HW210322   3.403   0.415   4.192
 2573SOL    HW310323   3.306   0.531   4.175
 2573SOL    MW410324   3.322   0.447   4.193
 2574SOL     OW10325   3.421   0.784   4.325
 2574SOL    HW210326   3.439   0.878   4.334
 2574SOL    HW310327   3.373   0.761   4.405
 2574SOL    MW410328   3.417   0.794   4.337
 2575SOL     OW10329   3.012   1.009   4.578
 2575SOL    HW210330   3.097   1.020   4.620
 2575SOL    HW310331   2.999   0.914   4.575
 2575SOL    MW410332   3.022   0.998   4.583
 2576SOL     OW10333   3.172   0.988   4.122
 2576SOL    HW210334   3.152   1.044   4.196
 2576SOL    HW310335   3.151   1.042   4.045
 2576SOL    MW410336   3.167   1.003   4.121
 2577SOL     OW10337   3.487   1.093   4.368
 2577SOL    HW210338   3.519   1.072   4.456
 2577SOL    HW310339   3.427   1.167   4.382
 2577SOL    MW410340   3.483   1.100   4.382
 2578SOL     OW10341   3.324   1.315   4.401
 2578SOL    HW210342   3.334   1.382   4.333
 2578SOL    HW310343   3.387   1.341   4.469
 2578SOL    MW410344   3.334   1.328   4.401
 2579SOL     OW10345   3.129   1.709   4.287
 2579SOL    HW210346   3.084   1.714   4.371
 2579SOL    HW310347   3.115   1.795   4.247
 2579SOL    MW410348   3.121   1.721   4.293
 2580SOL     OW10349   3.065   1.977   4.164
 2580SOL    HW210350   3.143   2.026   4.191
 2580SOL    HW310351   2.992   2.024   4.205
 2580SOL    MW410352   3.066   1.990   4.173
 2581SOL     OW10353   3.314   2.083   4.251
 2581SOL    HW210354   3.395   2.045   4.218
 2581SOL    HW310355   3.320   2.176   4.228
 2581SOL    MW410356   3.325   2.090   4.243
 2582SOL     OW10357   3.296   2.327   4.143
 2582SOL    HW210358   3.373   2.373   4.175
 2582SOL    HW310359   3.312   2.314   4.049
 2582SOL    MW410360   3.308   2.331   4.135
 2583SOL     OW10361   3.078   2.457   4.267
 2583SOL    HW210362   3.078   2.547   4.235
 2583SOL    HW310363   3.151   2.415   4.221
 2583SOL    MW410364   3.088   2.464   4.257
 2584SOL     OW10365   3.122   2.714   4.138
 2584SOL    HW210366   3.209   2.745   4.162
 2584SOL    HW310367   3.073   2.793   4.119
 2584SOL    MW410368   3.127   2.728   4.139
 2585SOL     OW10369   3.361   2.811   4.272
 2585SOL    HW210370   3.450   2.782   4.251
 2585SOL    HW310371   3.363   2.906   4.259
 2585SOL    MW410372   3.373   2.819   4.267
 2586SOL     OW10373   3.381   3.086   4.162
 2586SOL    HW210374   3.322   3.153   4.198
 2586SOL    HW310375   3.362   3.085   4.069
 2586SOL    MW410376   3.371   3.095   4.155
 2587SOL     OW10377   3.212   3.273   4.281
 2587SOL    HW210378   3.187   3.341   4.218
 2587SOL    HW310379   3.129   3.232   4.306
 2587SOL    MW410380   3.198   3.277   4.276
 2588SOL     OW10381   3.120   3.487   4.136
 2588SOL    HW210382   3.057   3.551   4.169
 2588SOL    HW310383   3.112   3.494   4.041
 2588SOL    MW410384   3.110   3.497   4.128
 2589SOL     OW10385   3.363   3.618   4.218
 2589SOL    HW210386   3.331   3.633   4.307
 2589SOL    HW310387   3.288   3.578   4.173
 2589SOL    MW410388   3.349   3.615   4.224
 2590SOL     OW10389   3.366   3.884   4.142
 2590SOL    HW210390   3.367   3.794   4.173
 2590SOL    HW310391   3.355   3.877   4.047
 2590SOL    MW410392   3.364   3.871   4.133
 2591SOL     OW10393   3.132   3.998   4.227
 2591SOL    HW210394   3.132   4.013   4.321
 2591SOL    HW310395   3.214   3.952   4.210
 2591SOL    MW410396   3.143   3.994   4.237
 2592SOL     OW10397   3.128   4.267   4.142
 2592SOL    HW210398   3.210   4.307   4.171
 2592SOL    HW310399   3.130   4.179   4.179
 2592SOL    MW410400   3.139   4.261   4.150
 2593SOL     OW10401   3.353   4.392   4.237
 2593SOL    HW210402   3.379   4.412   4.328
 2593SOL    HW310403   3.434   4.364   4.195
 2593SOL    MW410404   3.367   4.391   4.244
 2594SOL     OW10405   3.859   4.639   4.143
 2594SOL    HW210406   3.923   4.697   4.185
 2594SOL    HW310407   3.860   4.665   4.051
 2594SOL    MW410408   3.867   4.650   4.136
 2595SOL     OW10409   3.599   0.075   4.216
 2595SOL    HW210410   3.592   0.169   4.198
 2595SOL    HW310411   3.679   0.048   4.172
 2595SOL    MW410412   3.608   0.084   4.208
 2596SOL     OW10413   3.579   0.354   4.175
 2596SOL    HW210414   3.659   0.383   4.220
 2596SOL    HW310415   3.595   0.376   4.083
 2596SOL    MW410416   3.592   0.361   4.169
 2597SOL     OW10417   3.802   0.447   4.310
 2597SOL    HW210418   3.846   0.422   4.391
 2597SOL    HW310419   3.768   0.535   4.328
 2597SOL    MW410420   3.803   0.455   4.323
 2598SOL     OW10421   3.777   0.812   4.110
 2598SOL    HW210422   3.721   0.890   4.118
 2598SOL    HW310423   3.777   0.792   4.017
 2598SOL    MW410424   3.769   0.820   4.099
 2599SOL     OW10425   3.698   0.680   4.332
 2599SOL    HW210426   3.604   0.686   4.349
 2599SOL    HW310427   3.712   0.731   4.252
 2599SOL    MW410428   3.688   0.687   4.324
 2600SOL     OW10429   3.629   1.049   4.129
 2600SOL    HW210430   3.571   1.064   4.203
 2600SOL    HW310431   3.576   1.068   4.052
 2600SOL    MW410432   3.615   1.053   4.128
 2601SOL     OW10433   3.781   1.268   4.226
 2601SOL    HW210434   3.719   1.199   4.202
 2601SOL    HW310435   3.777   1.272   4.322
 2601SOL    MW410436   3.772   1.260   4.235
 2602SOL     OW10437   3.756   1.545   4.203
 2602SOL    HW210438   3.757   1.449   4.206
 2602SOL    HW310439   3.784   1.572   4.291
 2602SOL    MW410440   3.760   1.536   4.215
 2603SOL     OW10441   3.559   1.960   4.169
 2603SOL    HW210442   3.571   1.943   4.075
 2603SOL    HW310443   3.550   1.874   4.208
 2603SOL    MW410444   3.559   1.947   4.162
 2604SOL     OW10445   3.335   1.518   4.213
 2604SOL    HW210446   3.330   1.503   4.119
 2604SOL    HW310447   3.279   1.595   4.229
 2604SOL    MW410448   3.327   1.526   4.203
 2605SOL     OW10449   3.779   2.105   4.234
 2605SOL    HW210450   3.792   2.096   4.328
 2605SOL    HW310451   3.698   2.058   4.216
 2605SOL    MW410452   3.770   2.098   4.244
 2606SOL     OW10453   3.811   2.369   4.137
 2606SOL    HW210454   3.807   2.280   4.172
 2606SOL    HW310455   3.824   2.356   4.043
 2606SOL    MW410456   3.813   2.355   4.129
 2607SOL     OW10457   3.541   2.453   4.238
 2607SOL    HW210458   3.529   2.449   4.333
 2607SOL    HW310459   3.630   2.420   4.224
 2607SOL    MW410460   3.551   2.448   4.249
 2608SOL     OW10461   3.608   2.710   4.185
 2608SOL    HW210462   3.576   2.622   4.202
 2608SOL    HW310463   3.599   2.722   4.090
 2608SOL    MW410464   3.602   2.700   4.175
 2609SOL     OW10465   3.854   2.846   4.236
 2609SOL    HW210466   3.857   2.840   4.331
 2609SOL    HW310467   3.780   2.791   4.211
 2609SOL    MW410468   3.845   2.838   4.245
 2610SOL     OW10469   3.842   3.107   4.115
 2610SOL    HW210470   3.841   3.021   4.158
 2610SOL    HW310471   3.869   3.089   4.025
 2610SOL    MW410472   3.845   3.093   4.109
 2611SOL     OW10473   3.610   3.215   4.210
 2611SOL    HW210474   3.676   3.169   4.158
 2611SOL    HW310475   3.529   3.167   4.192
 2611SOL    MW410476   3.608   3.203   4.201
 2612SOL     OW10477   3.589   3.479   4.125
 2612SOL    HW210478   3.604   3.395   4.168
 2612SOL    HW310479   3.512   3.515   4.170
 2612SOL    MW410480   3.581   3.473   4.137
 2613SOL     OW10481   3.838   3.591   4.220
 2613SOL    HW210482   3.910   3.532   4.197
 2613SOL    HW310483   3.760   3.547   4.189
 2613SOL    MW410484   3.838   3.578   4.213
 2614SOL     OW10485   3.829   3.871   4.188
 2614SOL    HW210486   3.744   3.911   4.206
 2614SOL    HW310487   3.818   3.779   4.210
 2614SOL    MW410488   3.816   3.864   4.193
 2615SOL     OW10489   3.601   4.008   4.240
 2615SOL    HW210490   3.589   4.008   4.335
 2615SOL    HW310491   3.521   3.969   4.205
 2615SOL    MW410492   3.589   4.003   4.248
 2616SOL     OW10493   3.595   4.274   4.124
 2616SOL    HW210494   3.676   4.314   4.155
 2616SOL    HW310495   3.600   4.183   4.154
 2616SOL    MW410496   3.607   4.267   4.132
 2617SOL     OW10497   3.811   4.387   4.226
 2617SOL    HW210498   3.893   4.346   4.197
 2617SOL    HW310499   3.826   4.481   4.211
 2617SOL    MW410500   3.824   4.394   4.220
 2618SOL     OW10501   4.256   0.001   4.163
 2618SOL    HW210502   4.287  -0.087   4.184
 2618SOL    HW310503   4.323   0.059   4.198
 2618SOL    MW410504   4.269  -0.003   4.170
 2619SOL     OW10505   4.044   0.116   4.299
 2619SOL    HW210506   4.043   0.205   4.264
 2619SOL    HW310507   4.104   0.069   4.241
 2619SOL    MW410508   4.052   0.122   4.287
 2620SOL     OW10509   4.007   0.366   4.155
 2620SOL    HW210510   4.085   0.416   4.181
 2620SOL    HW310511   3.935   0.408   4.202
 2620SOL    MW410512   4.008   0.378   4.165
 2621SOL     OW10513   4.225   0.506   4.232
 2621SOL    HW210514   4.207   0.596   4.203
 2621SOL    HW310515   4.313   0.488   4.199
 2621SOL    MW410516   4.234   0.516   4.224
 2622SOL     OW10517   4.204   0.782   4.175
 2622SOL    HW210518   4.126   0.833   4.195
 2622SOL    HW310519   4.207   0.779   4.079
 2622SOL    MW410520   4.194   0.788   4.165
 2623SOL     OW10521   3.982   0.946   4.242
 2623SOL    HW210522   3.975   1.033   4.203
 2623SOL    HW310523   3.915   0.895   4.197
 2623SOL    MW410524   3.972   0.951   4.231
 2624SOL     OW10525   4.019   1.198   4.124
 2624SOL    HW210526   4.096   1.251   4.146
 2624SOL    HW310527   3.947   1.240   4.170
 2624SOL    MW410528   4.020   1.211   4.133
 2625SOL     OW10529   4.248   1.306   4.265
 2625SOL    HW210530   4.215   1.282   4.351
 2625SOL    HW310531   4.324   1.249   4.251
 2625SOL    MW410532   4.253   1.295   4.274
 2626SOL     OW10533   4.298   1.574   4.211
 2626SOL    HW210534   4.284   1.483   4.237
 2626SOL    HW310535   4.274   1.576   4.119
 2626SOL    MW410536   4.293   1.562   4.203
 2627SOL     OW10537   4.097   1.741   4.334
 2627SOL    HW210538   4.140   1.792   4.402
 2627SOL    HW310539   4.168   1.704   4.282
 2627SOL    MW410540   4.112   1.743   4.337
 2628SOL     OW10541   4.004   1.940   4.155
 2628SOL    HW210542   4.010   1.872   4.222
 2628SOL    HW310543   3.927   1.991   4.179
 2628SOL    MW410544   3.995   1.937   4.167
 2629SOL     OW10545   4.459   1.956   4.194
 2629SOL    HW210546   4.535   2.011   4.214
 2629SOL    HW310547   4.387   1.996   4.242
 2629SOL    MW410548   4.459   1.969   4.203
 2630SOL     OW10549   4.244   2.299   4.102
 2630SOL    HW210550   4.187   2.367   4.139
 2630SOL    HW310551   4.232   2.223   4.160
 2630SOL    MW410552   4.235   2.298   4.114
 2631SOL     OW10553   4.053   2.474   4.208
 2631SOL    HW210554   4.051   2.480   4.304
 2631SOL    HW310555   3.968   2.438   4.184
 2631SOL    MW410556   4.042   2.470   4.218
 2632SOL     OW10557   4.053   2.720   4.083
 2632SOL    HW210558   4.061   2.632   4.120
 2632SOL    HW310559   3.965   2.748   4.108
 2632SOL    MW410560   4.043   2.712   4.091
 2633SOL     OW10561   4.253   2.871   4.191
 2633SOL    HW210562   4.171   2.838   4.152
 2633SOL    HW310563   4.321   2.814   4.154
 2633SOL    MW410564   4.251   2.859   4.181
 2634SOL     OW10565   4.271   3.155   4.158
 2634SOL    HW210566   4.283   3.062   4.177
 2634SOL    HW310567   4.270   3.160   4.062
 2634SOL    MW410568   4.273   3.144   4.148
 2635SOL     OW10569   4.018   3.245   4.249
 2635SOL    HW210570   4.106   3.209   4.237
 2635SOL    HW310571   3.962   3.193   4.192
 2635SOL    MW410572   4.022   3.234   4.240
 2636SOL     OW10573   4.082   3.484   4.139
 2636SOL    HW210574   4.074   3.393   4.167
 2636SOL    HW310575   4.063   3.482   4.045
 2636SOL    MW410576   4.078   3.472   4.130
 2637SOL     OW10577   4.281   3.606   4.284
 2637SOL    HW210578   4.273   3.693   4.246
 2637SOL    HW310579   4.207   3.557   4.248
 2637SOL    MW410580   4.270   3.611   4.275
 2638SOL     OW10581   4.285   3.857   4.153
 2638SOL    HW210582   4.212   3.901   4.197
 2638SOL    HW310583   4.262   3.861   4.060
 2638SOL    MW410584   4.272   3.864   4.147
 2639SOL     OW10585   4.058   4.017   4.212
 2639SOL    HW210586   4.061   3.991   4.304
 2639SOL    HW310587   3.977   3.979   4.179
 2639SOL    MW410588   4.048   4.009   4.220
 2640SOL     OW10589   4.072   4.281   4.155
 2640SOL    HW210590   4.158   4.317   4.177
 2640SOL    HW310591   4.081   4.187   4.171
 2640SOL    MW410592   4.085   4.274   4.160
 2641SOL     OW10593   4.072   4.216   4.596
 2641SOL    HW210594   4.037   4.143   4.647
 2641SOL    HW310595   3.996   4.272   4.580
 2641SOL    MW410596   4.057   4.214   4.601
 2642SOL     OW10597   3.966   3.984   4.716
 2642SOL    HW210598   3.905   4.007   4.786
 2642SOL    HW310599   4.032   3.930   4.759
 2642SOL    MW410600   3.967   3.980   4.731
 2643SOL     OW10601   4.270   4.384   4.530
 2643SOL    HW210602   4.236   4.473   4.539
 2643SOL    HW310603   4.201   4.328   4.565
 2643SOL    MW410604   4.257   4.388   4.536
 2644SOL     OW10605   4.217   0.009   4.526
 2644SOL    HW210606   4.146   0.022   4.463
 2644SOL    HW310607   4.210   0.084   4.585
 2644SOL    MW410608   4.206   0.021   4.525
 2645SOL     OW10609   4.238   1.842   4.588
 2645SOL    HW210610   4.321   1.861   4.633
 2645SOL    HW310611   4.202   1.768   4.636
 2645SOL    MW410612   4.244   1.835   4.600
 2646SOL     OW10613   0.418   0.007   4.489
 2646SOL    HW210614   0.343  -0.051   4.497
 2646SOL    HW310615   0.494  -0.051   4.488
 2646SOL    MW410616   0.418  -0.008   4.490
 2647SOL     OW10617   0.190   0.734   4.559
 2647SOL    HW210618   0.252   0.733   4.632
 2647SOL    HW310619   0.183   0.642   4.533
 2647SOL    MW410620   0.197   0.722   4.565
 2648SOL     OW10621   4.187   0.749   4.576
 2648SOL    HW210622   4.204   0.660   4.546
 2648SOL    HW310623   4.273   0.790   4.579
 2648SOL    MW410624   4.201   0.743   4.573
 2649SOL     OW10625   0.710   1.390   4.483
 2649SOL    HW210626   0.734   1.482   4.496
 2649SOL    HW310627   0.633   1.378   4.539
 2649SOL    MW410628   0.703   1.401   4.492
 2650SOL     OW10629   1.206   1.926   4.486
 2650SOL    HW210630   1.299   1.919   4.467
 2650SOL    HW310631   1.202   1.985   4.562
 2650SOL    MW410632   1.218   1.933   4.494
 2651SOL     OW10633   4.156   1.235   4.515
 2651SOL    HW210634   4.121   1.147   4.527
 2651SOL    HW310635   4.240   1.233   4.562
 2651SOL    MW410636   4.163   1.223   4.523
 2652SOL     OW10637   0.059   1.623   4.557
 2652SOL    HW210638   0.040   1.644   4.466
 2652SOL    HW310639   0.042   1.705   4.604
 2652SOL    MW410640   0.054   1.637   4.551
 2653SOL     OW10641   0.431   1.649   4.314
 2653SOL    HW210642   0.360   1.619   4.257
 2653SOL    HW310643   0.510   1.619   4.270
 2653SOL    MW410644   0.432   1.641   4.300
 2654SOL     OW10645   0.024   1.883   4.641
 2654SOL    HW210646   0.040   1.959   4.584
 2654SOL    HW310647   0.097   1.884   4.703
 2654SOL    MW410648   0.036   1.894   4.641
 2655SOL     OW10649   4.221   2.323   4.576
 2655SOL    HW210650   4.313   2.349   4.571
 2655SOL    HW310651   4.173   2.402   4.551
 2655SOL    MW410652   4.227   2.337   4.572
 2656SOL     OW10653   0.661   2.956   4.620
 2656SOL    HW210654   0.664   2.869   4.581
 2656SOL    HW310655   0.714   2.949   4.699
 2656SOL    MW410656   0.668   2.943   4.625
 2657SOL     OW10657   0.394   2.983   4.612
 2657SOL    HW210658   0.486   2.979   4.639
 2657SOL    HW310659   0.378   3.076   4.595
 2657SOL    MW410660   0.404   2.995   4.613
 2658SOL     OW10661   4.488   2.351   4.474
 2658SOL    HW210662   4.439   2.377   4.396
 2658SOL    HW310663   4.552   2.421   4.487
 2658SOL    MW410664   4.490   2.364   4.466
 2659SOL     OW10665   4.063   3.528   4.622
 2659SOL    HW210666   4.039   3.437   4.604
 2659SOL    HW310667   4.022   3.547   4.706
 2659SOL    MW410668   4.054   3.518   4.631
 2660SOL     OW10669   0.433   3.269   4.563
 2660SOL    HW210670   0.521   3.304   4.574
 2660SOL    HW310671   0.376   3.346   4.558
 2660SOL    MW410672   0.437   3.284   4.563
 2661SOL     OW10673   4.348   3.816   4.613
 2661SOL    HW210674   4.267   3.845   4.571
 2661SOL    HW310675   4.357   3.724   4.589
 2661SOL    MW410676   4.339   3.808   4.605
 2662SOL     OW10677   0.005   0.045   4.516
 2662SOL    HW210678  -0.088   0.027   4.535
 2662SOL    HW310679   0.017   0.137   4.538
 2662SOL    MW410680  -0.006   0.055   4.521
 2663SOL     OW10681   3.281   0.400   4.472
 2663SOL    HW210682   3.304   0.419   4.382
 2663SOL    HW310683   3.199   0.351   4.467
 2663SOL    MW410684   3.273   0.396   4.460
 2664SOL     OW10685   3.965   3.583   4.868
 2664SOL    HW210686   3.877   3.580   4.832
 2664SOL    HW310687   3.954   3.567   4.962
 2664SOL    MW410688   3.952   3.581   4.876
 2665SOL     OW10689   3.767   3.828   4.626
 2665SOL    HW210690   3.808   3.775   4.557
 2665SOL    HW310691   3.836   3.885   4.657
 2665SOL    MW410692   3.781   3.829   4.621
 2666SOL     OW10693   0.656   4.507   4.489
 2666SOL    HW210694   0.678   4.492   4.397
 2666SOL    HW310695   0.649   4.420   4.527
 2666SOL    MW410696   0.658   4.494   4.481
 2667SOL     OW10697   3.930   0.632   4.713
 2667SOL    HW210698   3.872   0.694   4.667
 2667SOL    HW310699   4.014   0.677   4.718
 2667SOL    MW410700   3.933   0.646   4.708
 2668SOL     OW10701   1.005   0.766   4.546
 2668SOL    HW210702   0.978   0.854   4.574
 2668SOL    HW310703   0.924   0.726   4.513
 2668SOL    MW410704   0.991   0.772   4.545
 2669SOL     OW10705   0.681   0.369   4.573
 2669SOL    HW210706   0.749   0.303   4.557
 2669SOL    HW310707   0.727   0.452   4.572
 2669SOL    MW410708   0.696   0.371   4.570
 2670SOL     OW10709   0.895   1.008   4.551
 2670SOL    HW210710   0.890   0.981   4.460
 2670SOL    HW310711   0.811   0.982   4.589
 2670SOL    MW410712   0.883   1.001   4.544
 2671SOL     OW10713   0.351   0.942   4.474
 2671SOL    HW210714   0.387   0.933   4.386
 2671SOL    HW310715   0.286   0.871   4.481
 2671SOL    MW410716   0.347   0.931   4.463
 2672SOL     OW10717   2.122   1.194   4.528
 2672SOL    HW210718   2.095   1.221   4.441
 2672SOL    HW310719   2.217   1.210   4.530
 2672SOL    MW410720   2.131   1.199   4.517
 2673SOL     OW10721   0.346   1.585   4.558
 2673SOL    HW210722   0.265   1.635   4.544
 2673SOL    HW310723   0.401   1.609   4.483
 2673SOL    MW410724   0.342   1.595   4.546
 2674SOL     OW10725   1.479   1.082   4.633
 2674SOL    HW210726   1.418   1.029   4.582
 2674SOL    HW310727   1.426   1.155   4.665
 2674SOL    MW410728   1.464   1.084   4.630
 2675SOL     OW10729   0.822   1.677   4.511
 2675SOL    HW210730   0.768   1.746   4.549
 2675SOL    HW310731   0.904   1.681   4.560
 2675SOL    MW410732   0.826   1.687   4.523
 2676SOL     OW10733   0.624   2.120   4.488
 2676SOL    HW210734   0.693   2.177   4.521
 2676SOL    HW310735   0.643   2.035   4.528
 2676SOL    MW410736   0.636   2.116   4.497
 2677SOL     OW10737   1.078   1.723   4.624
 2677SOL    HW210738   1.135   1.651   4.652
 2677SOL    HW310739   1.127   1.768   4.556
 2677SOL    MW410740   1.092   1.719   4.619
 2678SOL     OW10741   0.363   2.145   4.622
 2678SOL    HW210742   0.451   2.133   4.586
 2678SOL    HW310743   0.355   2.240   4.633
 2678SOL    MW410744   0.373   2.156   4.619
 2679SOL     OW10745   0.992   2.616   4.725
 2679SOL    HW210746   1.016   2.669   4.649
 2679SOL    HW310747   0.898   2.604   4.717
 2679SOL    MW410748   0.983   2.622   4.714
 2680SOL     OW10749   0.715   2.533   4.670
 2680SOL    HW210750   0.623   2.534   4.698
 2680SOL    HW310751   0.724   2.453   4.619
 2680SOL    MW410752   0.704   2.523   4.667
 2681SOL     OW10753   0.824   3.175   4.535
 2681SOL    HW210754   0.781   3.257   4.559
 2681SOL    HW310755   0.760   3.107   4.553
 2681SOL    MW410756   0.810   3.177   4.540
 2682SOL     OW10757   0.684   3.402   4.617
 2682SOL    HW210758   0.702   3.489   4.582
 2682SOL    HW310759   0.704   3.409   4.710
 2682SOL    MW410760   0.689   3.415   4.625
 2683SOL     OW10761   1.284   0.108   4.505
 2683SOL    HW210762   1.281   0.013   4.513
 2683SOL    HW310763   1.348   0.136   4.570
 2683SOL    MW410764   1.292   0.099   4.514
 2684SOL     OW10765   0.204   2.560   4.482
 2684SOL    HW210766   0.242   2.550   4.395
 2684SOL    HW310767   0.194   2.655   4.493
 2684SOL    MW410768   0.208   2.571   4.472
 2685SOL     OW10769   0.039   3.311   4.535
 2685SOL    HW210770  -0.033   3.374   4.543
 2685SOL    HW310771   0.038   3.285   4.443
 2685SOL    MW410772   0.030   3.316   4.524
 2686SOL     OW10773   1.336   3.431   4.602
 2686SOL    HW210774   1.425   3.425   4.568
 2686SOL    HW310775   1.309   3.340   4.616
 2686SOL    MW410776   1.344   3.418   4.599
 2687SOL     OW10777   0.029   4.273   4.611
 2687SOL    HW210778  -0.056   4.298   4.571
 2687SOL    HW310779   0.038   4.180   4.590
 2687SOL    MW410780   0.019   4.264   4.603
 2688SOL     OW10781   0.039   4.005   4.529
 2688SOL    HW210782   0.118   3.958   4.556
 2688SOL    HW310783  -0.033   3.950   4.560
 2688SOL    MW410784   0.040   3.991   4.536
 2689SOL     OW10785   0.186   4.499   4.541
 2689SOL    HW210786   0.116   4.564   4.534
 2689SOL    HW310787   0.142   4.418   4.566
 2689SOL    MW410788   0.171   4.496   4.543
 2690SOL     OW10789   0.418   0.278   4.530
 2690SOL    HW210790   0.508   0.309   4.534
 2690SOL    HW310791   0.424   0.183   4.540
 2690SOL    MW410792   0.431   0.269   4.532
 2691SOL     OW10793   1.279   4.497   4.530
 2691SOL    HW210794   1.365   4.457   4.542
 2691SOL    HW310795   1.231   4.474   4.610
 2691SOL    MW410796   1.284   4.489   4.542
 2692SOL     OW10797   0.454   0.559   4.660
 2692SOL    HW210798   0.515   0.485   4.667
 2692SOL    HW310799   0.376   0.521   4.620
 2692SOL    MW410800   0.452   0.544   4.656
 2693SOL     OW10801   1.257   0.925   4.498
 2693SOL    HW210802   1.266   0.917   4.403
 2693SOL    HW310803   1.190   0.860   4.521
 2693SOL    MW410804   1.250   0.915   4.488
 2694SOL     OW10805   1.712   1.002   4.737
 2694SOL    HW210806   1.625   1.026   4.704
 2694SOL    HW310807   1.696   0.977   4.828
 2694SOL    MW410808   1.698   1.002   4.745
 2695SOL     OW10809   0.305   1.222   4.490
 2695SOL    HW210810   0.314   1.132   4.459
 2695SOL    HW310811   0.373   1.231   4.557
 2695SOL    MW410812   0.316   1.211   4.495
 2696SOL     OW10813   0.948   1.918   4.765
 2696SOL    HW210814   0.986   1.834   4.742
 2696SOL    HW310815   1.018   1.982   4.749
 2696SOL    MW410816   0.962   1.915   4.760
 2697SOL     OW10817   0.989   1.269   4.544
 2697SOL    HW210818   0.902   1.308   4.530
 2697SOL    HW310819   0.972   1.175   4.551
 2697SOL    MW410820   0.975   1.262   4.543
 2698SOL     OW10821   1.870   1.239   4.636
 2698SOL    HW210822   1.843   1.153   4.668
 2698SOL    HW310823   1.961   1.226   4.606
 2698SOL    MW410824   1.879   1.226   4.636
 2699SOL     OW10825   1.279   1.295   4.610
 2699SOL    HW210826   1.192   1.261   4.590
 2699SOL    HW310827   1.274   1.388   4.588
 2699SOL    MW410828   1.267   1.303   4.604
 2700SOL     OW10829   1.092   2.350   4.679
 2700SOL    HW210830   1.044   2.429   4.706
 2700SOL    HW310831   1.168   2.383   4.632
 2700SOL    MW410832   1.095   2.365   4.677
 2701SOL     OW10833   1.601   2.461   4.759
 2701SOL    HW210834   1.667   2.514   4.803
 2701SOL    HW310835   1.529   2.522   4.741
 2701SOL    MW410836   1.600   2.476   4.763
 2702SOL     OW10837   1.473   2.960   4.590
 2702SOL    HW210838   1.503   2.873   4.561
 2702SOL    HW310839   1.551   3.001   4.626
 2702SOL    MW410840   1.488   2.954   4.591
 2703SOL     OW10841   1.625   3.375   4.536
 2703SOL    HW210842   1.681   3.318   4.589
 2703SOL    HW310843   1.617   3.330   4.452
 2703SOL    MW410844   1.631   3.361   4.532
 2704SOL     OW10845   0.736   2.733   4.465
 2704SOL    HW210846   0.825   2.767   4.479
 2704SOL    HW310847   0.730   2.658   4.523
 2704SOL    MW410848   0.747   2.728   4.474
 2705SOL     OW10849   0.553   4.250   4.546
 2705SOL    HW210850   0.593   4.163   4.540
 2705SOL    HW310851   0.482   4.239   4.609
 2705SOL    MW410852   0.549   4.237   4.553
 2706SOL     OW10853   1.009   2.792   4.526
 2706SOL    HW210854   1.072   2.791   4.454
 2706SOL    HW310855   1.024   2.876   4.570
 2706SOL    MW410856   1.019   2.803   4.522
 2707SOL     OW10857   0.867   2.935   4.825
 2707SOL    HW210858   0.900   2.867   4.884
 2707SOL    HW310859   0.945   2.969   4.782
 2707SOL    MW410860   0.882   2.930   4.827
 2708SOL     OW10861   1.642   3.650   4.481
 2708SOL    HW210862   1.734   3.673   4.472
 2708SOL    HW310863   1.642   3.558   4.508
 2708SOL    MW410864   1.654   3.641   4.483
 2709SOL     OW10865   0.542   3.793   4.677
 2709SOL    HW210866   0.570   3.872   4.631
 2709SOL    HW310867   0.455   3.815   4.711
 2709SOL    MW410868   0.534   3.807   4.675
 2710SOL     OW10869   0.234   3.793   4.591
 2710SOL    HW210870   0.210   3.703   4.610
 2710SOL    HW310871   0.317   3.787   4.542
 2710SOL    MW410872   0.242   3.780   4.587
 2711SOL     OW10873   0.829   0.111   4.498
 2711SOL    HW210874   0.833   0.083   4.406
 2711SOL    HW310875   0.771   0.048   4.539
 2711SOL    MW410876   0.822   0.099   4.491
 2712SOL     OW10877   0.643   3.987   4.506
 2712SOL    HW210878   0.730   3.983   4.465
 2712SOL    HW310879   0.582   3.988   4.432
 2712SOL    MW410880   0.647   3.987   4.490
 2713SOL     OW10881   2.240   3.942   4.480
 2713SOL    HW210882   2.233   3.922   4.387
 2713SOL    HW310883   2.151   3.934   4.513
 2713SOL    MW410884   2.228   3.938   4.472
 2714SOL     OW10885   1.783   4.524   4.605
 2714SOL    HW210886   1.824   4.461   4.545
 2714SOL    HW310887   1.689   4.506   4.599
 2714SOL    MW410888   1.776   4.513   4.596
 2715SOL     OW10889   1.536   4.385   4.514
 2715SOL    HW210890   1.547   4.293   4.538
 2715SOL    HW310891   1.583   4.393   4.431
 2715SOL    MW410892   1.544   4.374   4.506
 2716SOL     OW10893   0.776   0.629   4.461
 2716SOL    HW210894   0.701   0.685   4.481
 2716SOL    HW310895   0.755   0.590   4.376
 2716SOL    MW410896   0.764   0.631   4.452
 2717SOL     OW10897   1.767   0.159   4.533
 2717SOL    HW210898   1.782   0.083   4.589
 2717SOL    HW310899   1.679   0.189   4.556
 2717SOL    MW410900   1.758   0.153   4.543
 2718SOL     OW10901   1.180   0.561   4.524
 2718SOL    HW210902   1.104   0.618   4.535
 2718SOL    HW310903   1.147   0.474   4.545
 2718SOL    MW410904   1.166   0.557   4.528
 2719SOL     OW10905   1.669   1.753   4.456
 2719SOL    HW210906   1.645   1.671   4.498
 2719SOL    HW310907   1.716   1.727   4.377
 2719SOL    MW410908   1.672   1.739   4.451
 2720SOL     OW10909   0.570   0.797   4.567
 2720SOL    HW210910   0.493   0.829   4.519
 2720SOL    HW310911   0.537   0.724   4.619
 2720SOL    MW410912   0.555   0.791   4.567
 2721SOL     OW10913   1.587   0.474   4.532
 2721SOL    HW210914   1.672   0.481   4.576
 2721SOL    HW310915   1.547   0.560   4.541
 2721SOL    MW410916   1.593   0.486   4.539
 2722SOL     OW10917   1.629   1.298   4.522
 2722SOL    HW210918   1.572   1.225   4.544
 2722SOL    HW310919   1.715   1.273   4.556
 2722SOL    MW410920   1.633   1.285   4.530
 2723SOL     OW10921   1.305   1.561   4.584
 2723SOL    HW210922   1.390   1.558   4.629
 2723SOL    HW310923   1.325   1.596   4.497
 2723SOL    MW410924   1.319   1.565   4.579
 2724SOL     OW10925   1.382   2.624   4.691
 2724SOL    HW210926   1.299   2.656   4.725
 2724SOL    HW310927   1.360   2.543   4.645
 2724SOL    MW410928   1.368   2.617   4.689
 2725SOL     OW10929   2.305   2.620   4.193
 2725SOL    HW210930   2.256   2.544   4.160
 2725SOL    HW310931   2.239   2.674   4.237
 2725SOL    MW410932   2.289   2.617   4.194
 2726SOL     OW10933   0.835   2.289   4.529
 2726SOL    HW210934   0.914   2.285   4.583
 2726SOL    HW310935   0.858   2.347   4.457
 2726SOL    MW410936   0.848   2.296   4.527
 2727SOL     OW10937   1.420   3.856   4.493
 2727SOL    HW210938   1.492   3.795   4.507
 2727SOL    HW310939   1.342   3.806   4.518
 2727SOL    MW410940   1.419   3.841   4.498
 2728SOL     OW10941   1.339   2.431   4.259
 2728SOL    HW210942   1.369   2.518   4.232
 2728SOL    HW310943   1.399   2.370   4.215
 2728SOL    MW410944   1.351   2.435   4.250
 2729SOL     OW10945   1.341   2.403   4.543
 2729SOL    HW210946   1.329   2.397   4.448
 2729SOL    HW310947   1.381   2.319   4.567
 2729SOL    MW410948   1.345   2.391   4.534
 2730SOL     OW10949   1.287   3.168   4.568
 2730SOL    HW210950   1.340   3.091   4.587
 2730SOL    HW310951   1.323   3.203   4.487
 2730SOL    MW410952   1.299   3.163   4.560
 2731SOL     OW10953   1.046   3.035   4.639
 2731SOL    HW210954   1.130   3.075   4.614
 2731SOL    HW310955   0.980   3.098   4.608
 2731SOL    MW410956   1.049   3.049   4.632
 2732SOL     OW10957   0.703   3.654   4.498
 2732SOL    HW210958   0.641   3.685   4.564
 2732SOL    HW310959   0.786   3.696   4.521
 2732SOL    MW410960   0.706   3.664   4.510
 2733SOL     OW10961   2.314   3.320   4.607
 2733SOL    HW210962   2.227   3.336   4.571
 2733SOL    HW310963   2.348   3.246   4.557
 2733SOL    MW410964   2.307   3.312   4.596
 2734SOL     OW10965   2.049   3.344   4.503
 2734SOL    HW210966   2.047   3.271   4.565
 2734SOL    HW310967   2.067   3.303   4.419
 2734SOL    MW410968   2.051   3.329   4.500
 2735SOL     OW10969   2.428   3.101   4.479
 2735SOL    HW210970   2.386   3.019   4.503
 2735SOL    HW310971   2.522   3.084   4.491
 2735SOL    MW410972   2.435   3.088   4.484
 2736SOL     OW10973   0.946   3.800   4.485
 2736SOL    HW210974   1.031   3.762   4.507
 2736SOL    HW310975   0.967   3.878   4.434
 2736SOL    MW410976   0.960   3.806   4.481
 2737SOL     OW10977   1.845   4.059   4.467
 2737SOL    HW210978   1.828   4.047   4.374
 2737SOL    HW310979   1.891   3.980   4.494
 2737SOL    MW410980   1.849   4.047   4.459
 2738SOL     OW10981   1.998   0.335   4.495
 2738SOL    HW210982   1.931   0.272   4.522
 2738SOL    HW310983   2.081   0.294   4.521
 2738SOL    MW410984   2.000   0.321   4.502
 2739SOL     OW10985   1.062   0.270   4.508
 2739SOL    HW210986   0.986   0.213   4.494
 2739SOL    HW310987   1.137   0.212   4.505
 2739SOL    MW410988   1.062   0.255   4.506
 2740SOL     OW10989   1.480   0.254   4.658
 2740SOL    HW210990   1.462   0.295   4.743
 2740SOL    HW310991   1.514   0.325   4.604
 2740SOL    MW410992   1.482   0.269   4.662
 2741SOL     OW10993   2.475   0.007   4.545
 2741SOL    HW210994   2.454  -0.086   4.536
 2741SOL    HW310995   2.398   0.052   4.512
 2741SOL    MW410996   2.462   0.000   4.540
 2742SOL     OW10997   1.859   0.811   4.532
 2742SOL    HW210998   1.797   0.854   4.592
 2742SOL    HW310999   1.838   0.847   4.446
 2742SOL    MW411000   1.848   0.822   4.529
 2743SOL     OW11001   1.421   0.694   4.596
 2743SOL    HW211002   1.397   0.782   4.567
 2743SOL    HW311003   1.343   0.641   4.581
 2743SOL    MW411004   1.408   0.698   4.590
 2744SOL     OW11005   2.002   1.697   4.458
 2744SOL    HW211006   2.090   1.729   4.477
 2744SOL    HW311007   2.013   1.647   4.377
 2744SOL    MW411008   2.015   1.694   4.450
 2745SOL     OW11009   0.693   1.903   4.642
 2745SOL    HW211010   0.777   1.905   4.688
 2745SOL    HW311011   0.635   1.854   4.700
 2745SOL    MW411012   0.697   1.897   4.656
 2746SOL     OW11013   1.585   1.541   4.611
 2746SOL    HW211014   1.596   1.452   4.577
 2746SOL    HW311015   1.661   1.555   4.666
 2746SOL    MW411016   1.596   1.531   4.614
 2747SOL     OW11017   1.179   2.088   4.724
 2747SOL    HW211018   1.273   2.080   4.740
 2747SOL    HW311019   1.163   2.183   4.720
 2747SOL    MW411020   1.189   2.100   4.726
 2748SOL     OW11021   1.482   1.960   4.432
 2748SOL    HW211022   1.515   2.015   4.361
 2748SOL    HW311023   1.532   1.879   4.424
 2748SOL    MW411024   1.493   1.957   4.422
 2749SOL     OW11025   2.134   2.411   4.122
 2749SOL    HW211026   2.145   2.345   4.053
 2749SOL    HW311027   2.132   2.361   4.203
 2749SOL    MW411028   2.135   2.396   4.123
 2750SOL     OW11029   1.468   2.145   4.641
 2750SOL    HW211030   1.470   2.084   4.567
 2750SOL    HW311031   1.541   2.205   4.624
 2750SOL    MW411032   1.478   2.145   4.629
 2751SOL     OW11033   3.078   3.245   4.709
 2751SOL    HW211034   3.148   3.247   4.774
 2751SOL    HW311035   3.093   3.163   4.661
 2751SOL    MW411036   3.089   3.234   4.711
 2752SOL     OW11037   1.739   3.132   4.635
 2752SOL    HW211038   1.747   3.106   4.543
 2752SOL    HW311039   1.829   3.146   4.665
 2752SOL    MW411040   1.752   3.131   4.627
 2753SOL     OW11041   1.984   3.844   4.566
 2753SOL    HW211042   1.981   3.826   4.660
 2753SOL    HW311043   1.980   3.758   4.525
 2753SOL    MW411044   1.983   3.831   4.573
 2754SOL     OW11045   2.662   2.946   4.547
 2754SOL    HW211046   2.597   2.891   4.590
 2754SOL    HW311047   2.725   2.885   4.510
 2754SOL    MW411048   2.661   2.931   4.548
 2755SOL     OW11049   2.321   2.652   4.847
 2755SOL    HW211050   2.321   2.652   4.943
 2755SOL    HW311051   2.283   2.736   4.823
 2755SOL    MW411052   2.316   2.663   4.857
 2756SOL     OW11053   2.756   3.926   4.506
 2756SOL    HW211054   2.741   3.920   4.411
 2756SOL    HW311055   2.670   3.909   4.545
 2756SOL    MW411056   2.743   3.923   4.498
 2757SOL     OW11057   2.491   3.853   4.579
 2757SOL    HW211058   2.488   3.758   4.592
 2757SOL    HW311059   2.399   3.879   4.570
 2757SOL    MW411060   2.478   3.844   4.579
 2758SOL     OW11061   2.463   3.567   4.559
 2758SOL    HW211062   2.409   3.492   4.585
 2758SOL    HW311063   2.460   3.567   4.463
 2758SOL    MW411064   2.455   3.557   4.549
 2759SOL     OW11065   1.917   3.598   4.455
 2759SOL    HW211066   1.936   3.517   4.502
 2759SOL    HW311067   1.963   3.590   4.371
 2759SOL    MW411068   1.925   3.586   4.450
 2760SOL     OW11069   1.957   4.327   4.448
 2760SOL    HW211070   1.900   4.251   4.444
 2760SOL    HW311071   2.016   4.308   4.521
 2760SOL    MW411072   1.958   4.314   4.457
 2761SOL     OW11073   1.203   3.677   4.530
 2761SOL    HW211074   1.247   3.598   4.561
 2761SOL    HW311075   1.173   3.655   4.442
 2761SOL    MW411076   1.205   3.664   4.523
 2762SOL     OW11077   2.264   0.232   4.493
 2762SOL    HW211078   2.279   0.180   4.414
 2762SOL    HW311079   2.326   0.305   4.485
 2762SOL    MW411080   2.275   0.235   4.482
 2763SOL     OW11081   2.359   0.762   4.523
 2763SOL    HW211082   2.427   0.829   4.530
 2763SOL    HW311083   2.284   0.801   4.568
 2763SOL    MW411084   2.358   0.776   4.530
 2764SOL     OW11085   1.839   1.610   4.680
 2764SOL    HW211086   1.895   1.616   4.603
 2764SOL    HW311087   1.894   1.570   4.747
 2764SOL    MW411088   1.854   1.606   4.679
 2765SOL     OW11089   2.755   0.016   4.459
 2765SOL    HW211090   2.664   0.024   4.487
 2765SOL    HW311091   2.754   0.045   4.367
 2765SOL    MW411092   2.742   0.021   4.450
 2766SOL     OW11093   2.869   0.706   4.345
 2766SOL    HW211094   2.933   0.726   4.414
 2766SOL    HW311095   2.912   0.730   4.264
 2766SOL    MW411096   2.883   0.711   4.344
 2767SOL     OW11097   3.099   1.147   4.354
 2767SOL    HW211098   3.081   1.084   4.424
 2767SOL    HW311099   3.173   1.198   4.385
 2767SOL    MW411100   3.106   1.145   4.367
 2768SOL     OW11101   2.127   0.910   4.525
 2768SOL    HW211102   2.119   1.004   4.538
 2768SOL    HW311103   2.038   0.877   4.533
 2768SOL    MW411104   2.114   0.918   4.528
 2769SOL     OW11105   2.591   1.375   4.730
 2769SOL    HW211106   2.637   1.437   4.786
 2769SOL    HW311107   2.658   1.345   4.668
 2769SOL    MW411108   2.606   1.379   4.729
 2770SOL     OW11109   2.487   1.620   4.622
 2770SOL    HW211110   2.509   1.548   4.681
 2770SOL    HW311111   2.570   1.661   4.601
 2770SOL    MW411112   2.501   1.616   4.627
 2771SOL     OW11113   2.278   1.769   4.513
 2771SOL    HW211114   2.360   1.730   4.542
 2771SOL    HW311115   2.277   1.754   4.418
 2771SOL    MW411116   2.288   1.762   4.504
 2772SOL     OW11117   2.329   2.383   4.705
 2772SOL    HW211118   2.328   2.394   4.610
 2772SOL    HW311119   2.370   2.463   4.739
 2772SOL    MW411120   2.334   2.395   4.697
 2773SOL     OW11121   2.358   2.036   4.566
 2773SOL    HW211122   2.330   1.945   4.563
 2773SOL    HW311123   2.304   2.076   4.635
 2773SOL    MW411124   2.347   2.030   4.575
 2774SOL     OW11125   2.630   2.429   4.378
 2774SOL    HW211126   2.543   2.442   4.417
 2774SOL    HW311127   2.613   2.382   4.296
 2774SOL    MW411128   2.616   2.424   4.373
 2775SOL     OW11129   1.547   2.712   4.456
 2775SOL    HW211130   1.605   2.649   4.414
 2775SOL    HW311131   1.479   2.658   4.497
 2775SOL    MW411132   1.546   2.697   4.456
 2776SOL     OW11133   2.226   2.901   4.775
 2776SOL    HW211134   2.284   2.974   4.797
 2776SOL    HW311135   2.230   2.896   4.680
 2776SOL    MW411136   2.234   2.910   4.765
 2777SOL     OW11137   2.748   3.474   4.525
 2777SOL    HW211138   2.770   3.402   4.584
 2777SOL    HW311139   2.670   3.514   4.564
 2777SOL    MW411140   2.740   3.470   4.538
 2778SOL     OW11141   2.354   3.140   4.886
 2778SOL    HW211142   2.342   3.190   4.805
 2778SOL    HW311143   2.446   3.152   4.909
 2778SOL    MW411144   2.365   3.148   4.878
 2779SOL     OW11145   1.566   4.121   4.548
 2779SOL    HW211146   1.506   4.049   4.530
 2779SOL    HW311147   1.652   4.088   4.520
 2779SOL    MW411148   1.570   4.107   4.542
 2780SOL     OW11149   2.829   4.404   4.411
 2780SOL    HW211150   2.754   4.357   4.449
 2780SOL    HW311151   2.819   4.494   4.443
 2780SOL    MW411152   2.818   4.410   4.420
 2781SOL     OW11153   2.033   3.114   4.672
 2781SOL    HW211154   2.053   3.088   4.582
 2781SOL    HW311155   2.088   3.058   4.727
 2781SOL    MW411156   2.043   3.103   4.668
 2782SOL     OW11157   3.269   3.910   4.568
 2782SOL    HW211158   3.198   3.973   4.559
 2782SOL    HW311159   3.234   3.829   4.532
 2782SOL    MW411160   3.255   3.908   4.562
 2783SOL     OW11161   3.044   4.061   4.483
 2783SOL    HW211162   2.949   4.051   4.486
 2783SOL    HW311163   3.060   4.146   4.525
 2783SOL    MW411164   3.034   4.071   4.489
 2784SOL     OW11165   2.219   4.209   4.555
 2784SOL    HW211166   2.241   4.129   4.507
 2784SOL    HW311167   2.216   4.182   4.647
 2784SOL    MW411168   2.221   4.195   4.561
 2785SOL     OW11169   2.393   4.426   4.496
 2785SOL    HW211170   2.326   4.362   4.520
 2785SOL    HW311171   2.401   4.417   4.401
 2785SOL    MW411172   2.385   4.416   4.487
 2786SOL     OW11173   2.855   0.443   4.339
 2786SOL    HW211174   2.791   0.418   4.273
 2786SOL    HW311175   2.843   0.538   4.349
 2786SOL    MW411176   2.845   0.453   4.332
 2787SOL     OW11177   3.087   4.573   4.949
 2787SOL    HW211178   3.042   4.577   5.034
 2787SOL    HW311179   3.022   4.538   4.889
 2787SOL    MW411180   3.073   4.569   4.953
 2788SOL     OW11181   2.626   4.284   4.517
 2788SOL    HW211182   2.549   4.342   4.513
 2788SOL    HW311183   2.591   4.197   4.500
 2788SOL    MW411184   2.611   4.280   4.514
 2789SOL     OW11185   2.798   1.080   4.709
 2789SOL    HW211186   2.868   1.053   4.649
 2789SOL    HW311187   2.836   1.074   4.796
 2789SOL    MW411188   2.812   1.075   4.712
 2790SOL     OW11189   3.010   0.285   4.759
 2790SOL    HW211190   2.939   0.222   4.769
 2790SOL    HW311191   3.027   0.288   4.665
 2790SOL    MW411192   3.003   0.277   4.748
 2791SOL     OW11193   1.846   0.538   4.616
 2791SOL    HW211194   1.928   0.495   4.593
 2791SOL    HW311195   1.858   0.629   4.591
 2791SOL    MW411196   1.858   0.544   4.609
 2792SOL     OW11197   2.577   0.994   4.539
 2792SOL    HW211198   2.623   0.964   4.460
 2792SOL    HW311199   2.647   1.007   4.603
 2792SOL    MW411200   2.592   0.992   4.537
 2793SOL     OW11201   3.105   1.451   4.581
 2793SOL    HW211202   3.021   1.404   4.585
 2793SOL    HW311203   3.149   1.415   4.504
 2793SOL    MW411204   3.100   1.440   4.572
 2794SOL     OW11205   3.023   1.726   4.549
 2794SOL    HW211206   2.934   1.748   4.578
 2794SOL    HW311207   3.033   1.634   4.571
 2794SOL    MW411208   3.012   1.717   4.556
 2795SOL     OW11209   2.740   1.731   4.553
 2795SOL    HW211210   2.714   1.824   4.557
 2795SOL    HW311211   2.735   1.709   4.460
 2795SOL    MW411212   2.736   1.741   4.541
 2796SOL     OW11213   2.669   1.999   4.554
 2796SOL    HW211214   2.713   2.082   4.539
 2796SOL    HW311215   2.577   2.023   4.570
 2796SOL    MW411216   2.662   2.013   4.554
 2797SOL     OW11217   2.807   2.245   4.502
 2797SOL    HW211218   2.736   2.297   4.464
 2797SOL    HW311219   2.829   2.182   4.434
 2797SOL    MW411220   2.800   2.244   4.488
 2798SOL     OW11221   3.120   2.340   4.517
 2798SOL    HW211222   3.042   2.309   4.563
 2798SOL    HW311223   3.089   2.370   4.432
 2798SOL    MW411224   3.106   2.340   4.512
 2799SOL     OW11225   2.467   2.722   4.603
 2799SOL    HW211226   2.428   2.696   4.686
 2799SOL    HW311227   2.402   2.779   4.562
 2799SOL    MW411228   2.453   2.726   4.609
 2800SOL     OW11229   3.485   3.417   4.670
 2800SOL    HW211230   3.404   3.432   4.622
 2800SOL    HW311231   3.526   3.342   4.625
 2800SOL    MW411232   3.480   3.409   4.657
 2801SOL     OW11233   2.752   2.670   4.338
 2801SOL    HW211234   2.735   2.581   4.370
 2801SOL    HW311235   2.668   2.716   4.349
 2801SOL    MW411236   2.739   2.664   4.344
 2802SOL     OW11237   2.793   3.253   4.674
 2802SOL    HW211238   2.880   3.265   4.712
 2802SOL    HW311239   2.787   3.159   4.657
 2802SOL    MW411240   2.803   3.242   4.677
 2803SOL     OW11241   3.084   3.016   4.550
 2803SOL    HW211242   3.176   2.992   4.562
 2803SOL    HW311243   3.037   2.933   4.560
 2803SOL    MW411244   3.090   3.002   4.553
 2804SOL     OW11245   2.674   0.435   4.593
 2804SOL    HW211246   2.703   0.385   4.517
 2804SOL    HW311247   2.636   0.368   4.651
 2804SOL    MW411248   2.673   0.419   4.591
 2805SOL     OW11249   3.717   4.084   4.807
 2805SOL    HW211250   3.643   4.091   4.867
 2805SOL    HW311251   3.707   4.157   4.746
 2805SOL    MW411252   3.706   4.094   4.807
 2806SOL     OW11253   3.949   3.713   4.452
 2806SOL    HW211254   4.003   3.659   4.511
 2806SOL    HW311255   3.922   3.652   4.383
 2806SOL    MW411256   3.952   3.698   4.451
 2807SOL     OW11257   2.926   3.679   4.461
 2807SOL    HW211258   2.861   3.616   4.493
 2807SOL    HW311259   2.889   3.764   4.484
 2807SOL    MW411260   2.912   3.682   4.468
 2808SOL     OW11261   3.047   4.324   4.581
 2808SOL    HW211262   3.001   4.330   4.498
 2808SOL    HW311263   3.091   4.409   4.590
 2808SOL    MW411264   3.047   4.336   4.571
 2809SOL     OW11265   3.038   0.276   4.483
 2809SOL    HW211266   2.967   0.318   4.434
 2809SOL    HW311267   3.057   0.197   4.433
 2809SOL    MW411268   3.031   0.271   4.470
 2810SOL     OW11269   3.031   0.732   4.573
 2810SOL    HW211270   3.121   0.703   4.560
 2810SOL    HW311271   2.990   0.661   4.623
 2810SOL    MW411272   3.038   0.719   4.578
 2811SOL     OW11273   2.421   0.477   4.497
 2811SOL    HW211274   2.509   0.480   4.536
 2811SOL    HW311275   2.392   0.568   4.497
 2811SOL    MW411276   2.429   0.489   4.502
 2812SOL     OW11277   2.408   1.214   4.542
 2812SOL    HW211278   2.454   1.132   4.525
 2812SOL    HW311279   2.450   1.249   4.621
 2812SOL    MW411280   2.420   1.208   4.550
 2813SOL     OW11281   2.881   4.454   4.755
 2813SOL    HW211282   2.931   4.405   4.690
 2813SOL    HW311283   2.814   4.394   4.786
 2813SOL    MW411284   2.879   4.440   4.751
 2814SOL     OW11285   2.846   0.049   4.719
 2814SOL    HW211286   2.831   0.041   4.625
 2814SOL    HW311287   2.864  -0.040   4.749
 2814SOL    MW411288   2.846   0.036   4.710
 2815SOL     OW11289   3.257   1.327   4.817
 2815SOL    HW211290   3.179   1.347   4.765
 2815SOL    HW311291   3.239   1.367   4.902
 2815SOL    MW411292   3.244   1.335   4.821
 2816SOL     OW11293   2.852   1.331   4.591
 2816SOL    HW211294   2.833   1.246   4.630
 2816SOL    HW311295   2.850   1.315   4.496
 2816SOL    MW411296   2.849   1.318   4.583
 2817SOL     OW11297   4.013   0.985   4.531
 2817SOL    HW211298   4.002   0.971   4.437
 2817SOL    HW311299   4.065   0.910   4.560
 2817SOL    MW411300   4.018   0.973   4.523
 2818SOL     OW11301   3.489   1.377   4.626
 2818SOL    HW211302   3.507   1.470   4.613
 2818SOL    HW311303   3.423   1.375   4.696
 2818SOL    MW411304   3.483   1.389   4.633
 2819SOL     OW11305   3.291   1.868   4.574
 2819SOL    HW211306   3.288   1.963   4.572
 2819SOL    HW311307   3.199   1.841   4.576
 2819SOL    MW411308   3.278   1.877   4.574
 2820SOL     OW11309   3.325   2.131   4.531
 2820SOL    HW211310   3.262   2.203   4.536
 2820SOL    HW311311   3.332   2.111   4.438
 2820SOL    MW411312   3.318   2.138   4.520
 2821SOL     OW11313   3.494   1.676   4.534
 2821SOL    HW211314   3.417   1.730   4.550
 2821SOL    HW311315   3.511   1.685   4.441
 2821SOL    MW411316   3.486   1.684   4.524
 2822SOL     OW11317   2.921   2.801   4.515
 2822SOL    HW211318   2.887   2.763   4.434
 2822SOL    HW311319   2.967   2.729   4.558
 2822SOL    MW411320   2.923   2.787   4.510
 2823SOL     OW11321   3.349   2.694   4.535
 2823SOL    HW211322   3.258   2.665   4.538
 2823SOL    HW311323   3.359   2.733   4.448
 2823SOL    MW411324   3.338   2.695   4.524
 2824SOL     OW11325   3.087   2.606   4.597
 2824SOL    HW211326   3.097   2.515   4.568
 2824SOL    HW311327   3.121   2.606   4.687
 2824SOL    MW411328   3.093   2.594   4.605
 2825SOL     OW11329   3.810   3.119   4.609
 2825SOL    HW211330   3.888   3.171   4.590
 2825SOL    HW311331   3.834   3.030   4.585
 2825SOL    MW411332   3.823   3.114   4.604
 2826SOL     OW11333   3.328   3.205   4.827
 2826SOL    HW211334   3.336   3.141   4.757
 2826SOL    HW311335   3.392   3.273   4.806
 2826SOL    MW411336   3.337   3.206   4.815
 2827SOL     OW11337   3.574   3.204   4.489
 2827SOL    HW211338   3.590   3.208   4.395
 2827SOL    HW311339   3.661   3.191   4.527
 2827SOL    MW411340   3.588   3.203   4.482
 2828SOL     OW11341   3.875   2.845   4.507
 2828SOL    HW211342   3.969   2.835   4.493
 2828SOL    HW311343   3.848   2.763   4.548
 2828SOL    MW411344   3.884   2.833   4.510
 2829SOL     OW11345   3.699   3.585   4.784
 2829SOL    HW211346   3.630   3.527   4.751
 2829SOL    HW311347   3.683   3.669   4.742
 2829SOL    MW411348   3.688   3.588   4.774
 2830SOL     OW11349   3.619   4.249   4.609
 2830SOL    HW211350   3.697   4.287   4.568
 2830SOL    HW311351   3.618   4.158   4.578
 2830SOL    MW411352   3.629   4.242   4.599
 2831SOL     OW11353   3.185   4.558   4.569
 2831SOL    HW211354   3.205   4.638   4.617
 2831SOL    HW311355   3.271   4.518   4.552
 2831SOL    MW411356   3.199   4.563   4.573
 2832SOL     OW11357   3.226   0.098   4.804
 2832SOL    HW211358   3.181   0.034   4.859
 2832SOL    HW311359   3.159   0.164   4.785
 2832SOL    MW411360   3.211   0.099   4.809
 2833SOL     OW11361   3.425   4.438   4.509
 2833SOL    HW211362   3.476   4.369   4.552
 2833SOL    HW311363   3.482   4.514   4.508
 2833SOL    MW411364   3.439   4.439   4.515
 2834SOL     OW11365   3.554   3.993   4.511
 2834SOL    HW211366   3.620   3.940   4.557
 2834SOL    HW311367   3.472   3.972   4.555
 2834SOL    MW411368   3.552   3.983   4.523
 2835SOL     OW11369   3.580   4.661   4.472
 2835SOL    HW211370   3.508   4.718   4.497
 2835SOL    HW311371   3.595   4.680   4.379
 2835SOL    MW411372   3.573   4.671   4.463
 2836SOL     OW11373   3.308   1.077   4.667
 2836SOL    HW211374   3.401   1.058   4.656
 2836SOL    HW311375   3.305   1.152   4.727
 2836SOL    MW411376   3.320   1.084   4.673
 2837SOL     OW11377   2.612   0.196   4.725
 2837SOL    HW211378   2.543   0.143   4.684
 2837SOL    HW311379   2.688   0.139   4.725
 2837SOL    MW411380   2.613   0.182   4.720
 2838SOL     OW11381   4.133   1.592   4.699
 2838SOL    HW211382   4.064   1.526   4.687
 2838SOL    HW311383   4.215   1.544   4.680
 2838SOL    MW411384   4.135   1.577   4.695
 2839SOL     OW11385   3.781   0.816   4.553
 2839SOL    HW211386   3.776   0.761   4.476
 2839SOL    HW311387   3.865   0.861   4.545
 2839SOL    MW411388   3.791   0.815   4.542
 2840SOL     OW11389   4.436   0.895   4.544
 2840SOL    HW211390   4.427   0.911   4.450
 2840SOL    HW311391   4.515   0.840   4.552
 2840SOL    MW411392   4.446   0.890   4.533
 2841SOL     OW11393   4.272   0.460   4.502
 2841SOL    HW211394   4.269   0.477   4.408
 2841SOL    HW311395   4.182   0.438   4.525
 2841SOL    MW411396   4.260   0.459   4.493
 2842SOL     OW11397   3.539   1.699   4.254
 2842SOL    HW211398   3.622   1.659   4.226
 2842SOL    HW311399   3.473   1.632   4.237
 2842SOL    MW411400   3.542   1.685   4.248
 2843SOL     OW11401   3.853   1.648   4.446
 2843SOL    HW211402   3.941   1.670   4.417
 2843SOL    HW311403   3.827   1.722   4.502
 2843SOL    MW411404   3.861   1.661   4.450
 2844SOL     OW11405   3.516   2.259   4.691
 2844SOL    HW211406   3.435   2.209   4.683
 2844SOL    HW311407   3.585   2.193   4.683
 2844SOL    MW411408   3.514   2.244   4.689
 2845SOL     OW11409   3.740   1.798   4.633
 2845SOL    HW211410   3.653   1.769   4.607
 2845SOL    HW311411   3.749   1.769   4.724
 2845SOL    MW411412   3.730   1.790   4.642
 2846SOL     OW11413   0.263   1.936   4.798
 2846SOL    HW211414   0.260   1.967   4.889
 2846SOL    HW311415   0.288   2.014   4.747
 2846SOL    MW411416   0.266   1.951   4.803
 2847SOL     OW11417   3.808   2.054   4.503
 2847SOL    HW211418   3.900   2.074   4.522
 2847SOL    HW311419   3.793   1.968   4.542
 2847SOL    MW411420   3.818   2.045   4.510
 2848SOL     OW11421   3.797   2.587   4.605
 2848SOL    HW211422   3.801   2.565   4.698
 2848SOL    HW311423   3.713   2.551   4.575
 2848SOL    MW411424   3.786   2.579   4.613
 2849SOL     OW11425   4.054   2.524   4.495
 2849SOL    HW211426   3.961   2.529   4.516
 2849SOL    HW311427   4.085   2.614   4.501
 2849SOL    MW411428   4.046   2.536   4.498
 2850SOL     OW11429   4.276   3.162   4.596
 2850SOL    HW211430   4.298   3.069   4.597
 2850SOL    HW311431   4.361   3.206   4.597
 2850SOL    MW411432   4.290   3.156   4.596
 2851SOL     OW11433   3.242   3.388   4.535
 2851SOL    HW211434   3.247   3.331   4.459
 2851SOL    HW311435   3.185   3.342   4.596
 2851SOL    MW411436   3.235   3.375   4.533
 2852SOL     OW11437   4.024   3.273   4.515
 2852SOL    HW211438   4.112   3.241   4.532
 2852SOL    HW311439   4.011   3.258   4.421
 2852SOL    MW411440   4.034   3.267   4.505
 2853SOL     OW11441   3.206   3.646   4.440
 2853SOL    HW211442   3.114   3.671   4.450
 2853SOL    HW311443   3.209   3.554   4.469
 2853SOL    MW411444   3.194   3.637   4.445
 2854SOL     OW11445   4.346   3.521   4.553
 2854SOL    HW211446   4.339   3.543   4.460
 2854SOL    HW311447   4.255   3.505   4.581
 2854SOL    MW411448   4.333   3.522   4.545
 2855SOL     OW11449   0.180   2.834   4.494
 2855SOL    HW211450   0.207   2.837   4.402
 2855SOL    HW311451   0.247   2.885   4.540
 2855SOL    MW411452   0.192   2.841   4.488
 2856SOL     OW11453   4.122   3.928   4.486
 2856SOL    HW211454   4.086   3.965   4.567
 2856SOL    HW311455   4.065   3.854   4.466
 2856SOL    MW411456   4.110   3.923   4.494
 2857SOL     OW11457   3.844   4.391   4.508
 2857SOL    HW211458   3.832   4.371   4.415
 2857SOL    HW311459   3.869   4.483   4.510
 2857SOL    MW411460   3.845   4.400   4.496
 2858SOL     OW11461   3.366   0.148   4.544
 2858SOL    HW211462   3.338   0.158   4.635
 2858SOL    HW311463   3.350   0.233   4.504
 2858SOL    MW411464   3.360   0.160   4.551
 2859SOL     OW11465   3.602   1.029   4.600
 2859SOL    HW211466   3.655   1.107   4.587
 2859SOL    HW311467   3.662   0.956   4.587
 2859SOL    MW411468   3.617   1.029   4.597
 2860SOL     OW11469   3.305   0.674   4.551
 2860SOL    HW211470   3.313   0.578   4.548
 2860SOL    HW311471   3.339   0.699   4.637
 2860SOL    MW411472   3.310   0.664   4.562
 2861SOL     OW11473   0.009   0.321   4.579
 2861SOL    HW211474   0.091   0.368   4.567
 2861SOL    HW311475  -0.059   0.383   4.554
 2861SOL    MW411476   0.011   0.335   4.575
 2862SOL     OW11477   0.228   0.474   4.489
 2862SOL    HW211478   0.282   0.396   4.487
 2862SOL    HW311479   0.235   0.511   4.401
 2862SOL    MW411480   0.236   0.469   4.477
 2863SOL     OW11481   3.988   0.426   4.536
 2863SOL    HW211482   3.963   0.486   4.606
 2863SOL    HW311483   4.020   0.348   4.581
 2863SOL    MW411484   3.989   0.424   4.551
 2864SOL     OW11485   3.721   1.275   4.515
 2864SOL    HW211486   3.641   1.317   4.547
 2864SOL    HW311487   3.792   1.330   4.548
 2864SOL    MW411488   3.720   1.288   4.524
 2865SOL     OW11489   0.029   1.180   4.583
 2865SOL    HW211490   0.122   1.193   4.567
 2865SOL    HW311491   0.019   1.085   4.586
 2865SOL    MW411492   0.040   1.169   4.581
 2866SOL     OW11493   4.387   1.427   4.639
 2866SOL    HW211494   4.432   1.343   4.631
 2866SOL    HW311495   4.454   1.492   4.617
 2866SOL    MW411496   4.402   1.425   4.635
 2867SOL     OW11497   3.935   1.427   4.585
 2867SOL    HW211498   4.016   1.395   4.544
 2867SOL    HW311499   3.906   1.499   4.528
 2867SOL    MW411500   3.942   1.432   4.572
 2868SOL     OW11501   3.380   3.036   4.588
 2868SOL    HW211502   3.426   2.952   4.593
 2868SOL    HW311503   3.437   3.091   4.534
 2868SOL    MW411504   3.394   3.032   4.582
 2869SOL     OW11505   4.221   2.079   4.282
 2869SOL    HW211506   4.140   2.054   4.237
 2869SOL    HW311507   4.198   2.081   4.375
 2869SOL    MW411508   4.208   2.076   4.288
 2870SOL     OW11509   0.119   2.097   4.486
 2870SOL    HW211510   0.202   2.109   4.532
 2870SOL    HW311511   0.085   2.185   4.474
 2870SOL    MW411512   0.126   2.110   4.490
 2871SOL     OW11513   4.084   2.076   4.529
 2871SOL    HW211514   4.119   2.000   4.575
 2871SOL    HW311515   4.129   2.151   4.568
 2871SOL    MW411516   4.094   2.076   4.540
 2872SOL     OW11517   3.540   2.482   4.516
 2872SOL    HW211518   3.471   2.544   4.540
 2872SOL    HW311519   3.530   2.409   4.576
 2872SOL    MW411520   3.530   2.481   4.527
 2873SOL     OW11521   0.360   2.442   4.699
 2873SOL    HW211522   0.324   2.480   4.618
 2873SOL    HW311523   0.307   2.481   4.769
 2873SOL    MW411524   0.348   2.452   4.697
 2874SOL     OW11525   4.143   2.784   4.442
 2874SOL    HW211526   4.206   2.826   4.500
 2874SOL    HW311527   4.170   2.812   4.354
 2874SOL    MW411528   4.155   2.793   4.438
 2875SOL     OW11529   4.390   2.897   4.521
 2875SOL    HW211530   4.382   2.870   4.430
 2875SOL    HW311531   4.483   2.886   4.541
 2875SOL    MW411532   4.402   2.892   4.512
 2876SOL     OW11533   0.255   3.493   4.544
 2876SOL    HW211534   0.275   3.521   4.455
 2876SOL    HW311535   0.182   3.432   4.535
 2876SOL    MW411536   0.248   3.488   4.531
 2877SOL     OW11537   3.855   0.024   4.527
 2877SOL    HW211538   3.891   0.062   4.447
 2877SOL    HW311539   3.760   0.023   4.513
 2877SOL    MW411540   3.847   0.029   4.515
 2878SOL     OW11541   4.051   0.184   4.655
 2878SOL    HW211542   4.054   0.167   4.749
 2878SOL    HW311543   3.980   0.129   4.623
 2878SOL    MW411544   4.042   0.175   4.663
 2879SOL     OW11545   4.158   3.817   4.824
 2879SOL    HW211546   4.122   3.729   4.817
 2879SOL    HW311547   4.240   3.814   4.774
 2879SOL    MW411548   4.164   3.805   4.816
 2880SOL     OW11549   2.897   0.550   4.717
 2880SOL    HW211550   2.811   0.514   4.692
 2880SOL    HW311551   2.949   0.473   4.740
 2880SOL    MW411552   2.892   0.535   4.717
 2881SOL     OW11553   4.316   4.409   4.240
 2881SOL    HW211554   4.399   4.362   4.230
 2881SOL    HW311555   4.296   4.404   4.333
 2881SOL    MW411556   4.324   4.402   4.251
 2882NA      NA11557   2.707   4.261   0.661
 2883NA      NA11558   0.584   2.112   0.270
   4.49070   4.66690  10.00000
