Gromacs Runs On Most of All Computer Systems in water t= 130.00000 step= 130000
11558
    1RG35     P    1   2.149   2.781   4.489
    1RG35   O1P    2   2.195   2.701   4.377
    1RG35   O2P    3   2.021   2.850   4.475
    1RG35   O5'    4   2.125   2.674   4.608
    1RG35   C5'    5   2.066   2.704   4.732
    1RG35  H5'1    6   1.961   2.733   4.720
    1RG35  H5'2    7   2.113   2.793   4.774
    1RG35   C4'    8   2.071   2.599   4.839
    1RG35   H4'    9   2.039   2.646   4.932
    1RG35   O4'   10   1.992   2.488   4.800
    1RG35   C1'   11   2.070   2.371   4.788
    1RG35   H1'   12   2.063   2.314   4.881
    1RG35    N9   13   2.023   2.288   4.672
    1RG35    C8   14   1.985   2.343   4.550
    1RG35    H8   15   2.001   2.449   4.534
    1RG35    N7   16   1.940   2.256   4.469
    1RG35    C5   17   1.937   2.139   4.549
    1RG35    C6   18   1.876   2.010   4.521
    1RG35    O6   19   1.804   1.970   4.429
    1RG35    N1   20   1.905   1.918   4.622
    1RG35    H1   21   1.888   1.821   4.597
    1RG35    C2   22   1.975   1.945   4.733
    1RG35    N2   23   2.022   1.847   4.795
    1RG35   H21   24   1.998   1.754   4.763
    1RG35   H22   25   2.067   1.864   4.884
    1RG35    N3   26   2.019   2.064   4.766
    1RG35    C4   27   1.998   2.157   4.670
    1RG35   C3'   28   2.215   2.550   4.862
    1RG35   H3'   29   2.287   2.624   4.825
    1RG35   C2'   30   2.214   2.419   4.780
    1RG35  H2'1   31   2.244   2.441   4.677
    1RG35   O2'   32   2.312   2.334   4.837
    1RG35  HO'2   33   2.389   2.333   4.779
    1RG35   O3'   34   2.248   2.521   4.999
    1RG35   H3T   35   2.294   2.437   5.002
    1RG35   O3P   36   2.255   2.869   4.540
    2SOL     OW   37   0.467   0.236   0.529
    2SOL    HW2   38   0.544   0.218   0.475
    2SOL    HW3   39   0.395   0.243   0.466
    2SOL    MW4   40   0.468   0.235   0.513
    3SOL     OW   41   3.972   0.096   0.465
    3SOL    HW2   42   4.057   0.129   0.436
    3SOL    HW3   43   3.979   0.001   0.459
    3SOL    MW4   44   3.984   0.088   0.461
    4SOL     OW   45   3.563   0.268   0.505
    4SOL    HW2   46   3.477   0.256   0.466
    4SOL    HW3   47   3.579   0.362   0.500
    4SOL    MW4   48   3.554   0.279   0.500
    5SOL     OW   49   0.105   1.599   0.500
    5SOL    HW2   50   0.068   1.614   0.587
    5SOL    HW3   51   0.055   1.526   0.464
    5SOL    MW4   52   0.094   1.591   0.507
    6SOL     OW   53   1.375   0.799   0.534
    6SOL    HW2   54   1.350   0.831   0.620
    6SOL    HW3   55   1.318   0.846   0.473
    6SOL    MW4   56   1.364   0.809   0.537
    7SOL     OW   57   0.199   0.483   0.511
    7SOL    HW2   58   0.222   0.480   0.604
    7SOL    HW3   59   0.193   0.391   0.485
    7SOL    MW4   60   0.201   0.470   0.520
    8SOL     OW   61   0.447   0.929   0.456
    8SOL    HW2   62   0.443   0.917   0.551
    8SOL    HW3   63   0.423   0.844   0.420
    8SOL    MW4   64   0.443   0.916   0.463
    9SOL     OW   65   0.926   0.892   0.438
    9SOL    HW2   66   0.911   0.903   0.532
    9SOL    HW3   67   0.859   0.945   0.396
    9SOL    MW4   68   0.915   0.900   0.445
   10SOL     OW   69   0.685   1.014   0.336
   10SOL    HW2   70   0.668   1.012   0.242
   10SOL    HW3   71   0.612   0.965   0.374
   10SOL    MW4   72   0.673   1.007   0.329
   11SOL     OW   73   0.615   1.550   0.216
   11SOL    HW2   74   0.577   1.479   0.268
   11SOL    HW3   75   0.540   1.597   0.180
   11SOL    MW4   76   0.600   1.547   0.218
   12SOL     OW   77   4.068   2.184   0.490
   12SOL    HW2   78   4.064   2.101   0.443
   12SOL    HW3   79   3.996   2.179   0.554
   12SOL    MW4   80   4.058   2.172   0.492
   13SOL     OW   81   0.122   1.861   0.393
   13SOL    HW2   82   0.035   1.884   0.362
   13SOL    HW3   83   0.123   1.765   0.394
   13SOL    MW4   84   0.111   1.851   0.389
   14SOL     OW   85   0.346   2.271   0.511
   14SOL    HW2   86   0.269   2.214   0.506
   14SOL    HW3   87   0.414   2.215   0.549
   14SOL    MW4   88   0.345   2.256   0.515
   15SOL     OW   89   0.258   2.921   0.491
   15SOL    HW2   90   0.344   2.959   0.477
   15SOL    HW3   91   0.197   2.993   0.476
   15SOL    MW4   92   0.261   2.936   0.488
   16SOL     OW   93   4.220   3.361   0.504
   16SOL    HW2   94   4.154   3.326   0.565
   16SOL    HW3   95   4.260   3.284   0.465
   16SOL    MW4   96   4.216   3.346   0.507
   17SOL     OW   97   4.304   3.145   0.371
   17SOL    HW2   98   4.237   3.174   0.308
   17SOL    HW3   99   4.272   3.062   0.405
   17SOL    MW4  100   4.291   3.138   0.367
   18SOL     OW  101   0.414   3.489   0.355
   18SOL    HW2  102   0.477   3.434   0.403
   18SOL    HW3  103   0.461   3.571   0.339
   18SOL    MW4  104   0.428   3.493   0.359
   19SOL     OW  105   0.570   3.734   0.362
   19SOL    HW2  106   0.657   3.759   0.332
   19SOL    HW3  107   0.522   3.816   0.368
   19SOL    MW4  108   0.575   3.748   0.359
   20SOL     OW  109   4.054   3.240   0.216
   20SOL    HW2  110   4.032   3.237   0.123
   20SOL    HW3  111   4.060   3.333   0.237
   20SOL    MW4  112   4.052   3.252   0.207
   21SOL     OW  113   4.368   3.812   0.318
   21SOL    HW2  114   4.341   3.749   0.385
   21SOL    HW3  115   4.464   3.815   0.325
   21SOL    MW4  116   4.377   3.804   0.327
   22SOL     OW  117   4.461   4.461   0.312
   22SOL    HW2  118   4.473   4.418   0.227
   22SOL    HW3  119   4.386   4.416   0.351
   22SOL    MW4  120   4.453   4.449   0.306
   23SOL     OW  121   4.249   4.350   0.464
   23SOL    HW2  122   4.256   4.351   0.560
   23SOL    HW3  123   4.257   4.257   0.441
   23SOL    MW4  124   4.251   4.338   0.474
   24SOL     OW  125   4.275   4.045   0.439
   24SOL    HW2  126   4.307   3.966   0.395
   24SOL    HW3  127   4.181   4.028   0.452
   24SOL    MW4  128   4.267   4.032   0.435
   25SOL     OW  129   0.536   3.315   0.560
   25SOL    HW2  130   0.520   3.275   0.645
   25SOL    HW3  131   0.600   3.384   0.577
   25SOL    MW4  132   0.542   3.319   0.573
   26SOL     OW  133   0.433   4.244   0.384
   26SOL    HW2  134   0.343   4.257   0.415
   26SOL    HW3  135   0.452   4.322   0.332
   26SOL    MW4  136   0.424   4.256   0.381
   27SOL     OW  137   0.219   0.245   0.374
   27SOL    HW2  138   0.139   0.192   0.380
   27SOL    HW3  139   0.225   0.268   0.281
   27SOL    MW4  140   0.209   0.241   0.363
   28SOL     OW  141   4.446   0.596   0.421
   28SOL    HW2  142   4.540   0.580   0.432
   28SOL    HW3  143   4.434   0.687   0.444
   28SOL    MW4  144   4.457   0.606   0.425
   29SOL     OW  145   0.938   4.412   0.469
   29SOL    HW2  146   1.021   4.365   0.472
   29SOL    HW3  147   0.873   4.344   0.451
   29SOL    MW4  148   0.940   4.397   0.467
   30SOL     OW  149   1.189   0.944   0.403
   30SOL    HW2  150   1.096   0.925   0.417
   30SOL    HW3  151   1.194   1.040   0.399
   30SOL    MW4  152   1.177   0.954   0.404
   31SOL     OW  153   0.666   0.491   0.465
   31SOL    HW2  154   0.734   0.546   0.427
   31SOL    HW3  155   0.701   0.402   0.460
   31SOL    MW4  156   0.679   0.486   0.459
   32SOL     OW  157   0.315   1.184   0.513
   32SOL    HW2  158   0.221   1.173   0.498
   32SOL    HW3  159   0.355   1.107   0.472
   32SOL    MW4  160   0.308   1.172   0.505
   33SOL     OW  161   0.558   1.847   0.400
   33SOL    HW2  162   0.632   1.797   0.366
   33SOL    HW3  163   0.499   1.781   0.435
   33SOL    MW4  164   0.560   1.832   0.400
   34SOL     OW  165   0.332   1.991   0.267
   34SOL    HW2  166   0.402   1.965   0.327
   34SOL    HW3  167   0.253   1.952   0.305
   34SOL    MW4  168   0.331   1.982   0.280
   35SOL     OW  169   0.491   2.406   0.286
   35SOL    HW2  170   0.432   2.372   0.353
   35SOL    HW3  171   0.495   2.337   0.220
   35SOL    MW4  172   0.484   2.393   0.286
   36SOL     OW  173   0.725   2.204   0.320
   36SOL    HW2  174   0.800   2.144   0.319
   36SOL    HW3  175   0.664   2.169   0.256
   36SOL    MW4  176   0.727   2.192   0.311
   37SOL     OW  177   3.958   2.463   0.520
   37SOL    HW2  178   3.951   2.368   0.507
   37SOL    HW3  179   4.040   2.487   0.477
   37SOL    MW4  180   3.968   2.453   0.512
   38SOL     OW  181   0.641   2.655   0.281
   38SOL    HW2  182   0.629   2.716   0.354
   38SOL    HW3  183   0.552   2.636   0.251
   38SOL    MW4  184   0.628   2.661   0.287
   39SOL     OW  185   0.635   2.498   0.560
   39SOL    HW2  186   0.575   2.479   0.632
   39SOL    HW3  187   0.641   2.594   0.559
   39SOL    MW4  188   0.628   2.508   0.569
   40SOL     OW  189   0.093   3.138   0.422
   40SOL    HW2  190   0.138   3.177   0.348
   40SOL    HW3  191   0.002   3.127   0.393
   40SOL    MW4  192   0.087   3.142   0.409
   41SOL     OW  193   0.600   2.786   0.545
   41SOL    HW2  194   0.555   2.862   0.509
   41SOL    HW3  195   0.612   2.807   0.638
   41SOL    MW4  196   0.596   2.799   0.553
   42SOL     OW  197   0.911   0.316   0.212
   42SOL    HW2  198   0.915   0.304   0.117
   42SOL    HW3  199   0.912   0.411   0.224
   42SOL    MW4  200   0.912   0.327   0.201
   43SOL     OW  201   0.171   3.584   0.499
   43SOL    HW2  202   0.197   3.675   0.490
   43SOL    HW3  203   0.233   3.536   0.445
   43SOL    MW4  204   0.182   3.589   0.491
   44SOL     OW  205   0.685   3.562   0.541
   44SOL    HW2  206   0.632   3.628   0.496
   44SOL    HW3  207   0.690   3.593   0.632
   44SOL    MW4  208   0.679   3.575   0.547
   45SOL     OW  209   1.204   3.590   0.497
   45SOL    HW2  210   1.112   3.586   0.471
   45SOL    HW3  211   1.236   3.500   0.485
   45SOL    MW4  212   1.196   3.577   0.492
   46SOL     OW  213   0.183   4.348   0.457
   46SOL    HW2  214   0.110   4.397   0.418
   46SOL    HW3  215   0.148   4.259   0.468
   46SOL    MW4  216   0.169   4.342   0.453
   47SOL     OW  217   0.935   3.586   0.432
   47SOL    HW2  218   0.918   3.657   0.369
   47SOL    HW3  219   0.849   3.570   0.473
   47SOL    MW4  220   0.921   3.593   0.429
   48SOL     OW  221   0.702   4.247   0.503
   48SOL    HW2  222   0.610   4.260   0.478
   48SOL    HW3  223   0.708   4.284   0.591
   48SOL    MW4  224   0.691   4.253   0.511
   49SOL     OW  225   0.747   0.218   0.430
   49SOL    HW2  226   0.806   0.160   0.478
   49SOL    HW3  227   0.801   0.251   0.357
   49SOL    MW4  228   0.762   0.215   0.426
   50SOL     OW  229   0.903   0.620   0.379
   50SOL    HW2  230   0.905   0.715   0.396
   50SOL    HW3  231   0.974   0.585   0.433
   50SOL    MW4  232   0.913   0.628   0.388
   51SOL     OW  233   0.392   0.650   0.409
   51SOL    HW2  234   0.323   0.591   0.441
   51SOL    HW3  235   0.474   0.603   0.425
   51SOL    MW4  236   0.394   0.636   0.415
   52SOL     OW  237   1.426   0.538   0.537
   52SOL    HW2  238   1.413   0.633   0.536
   52SOL    HW3  239   1.470   0.520   0.620
   52SOL    MW4  240   1.430   0.548   0.548
   53SOL     OW  241   1.754   0.654   0.435
   53SOL    HW2  242   1.716   0.740   0.414
   53SOL    HW3  243   1.679   0.602   0.464
   53SOL    MW4  244   1.739   0.658   0.436
   54SOL     OW  245   1.628   0.895   0.467
   54SOL    HW2  246   1.541   0.873   0.502
   54SOL    HW3  247   1.683   0.906   0.545
   54SOL    MW4  248   1.624   0.894   0.482
   55SOL     OW  249   0.483   1.399   0.418
   55SOL    HW2  250   0.554   1.346   0.456
   55SOL    HW3  251   0.403   1.349   0.438
   55SOL    MW4  252   0.482   1.385   0.426
   56SOL     OW  253   0.714   1.245   0.483
   56SOL    HW2  254   0.702   1.167   0.429
   56SOL    HW3  255   0.808   1.264   0.478
   56SOL    MW4  256   0.725   1.237   0.475
   57SOL     OW  257   1.315   1.460   0.313
   57SOL    HW2  258   1.266   1.539   0.336
   57SOL    HW3  259   1.406   1.487   0.312
   57SOL    MW4  260   1.320   1.474   0.316
   58SOL     OW  261   0.981   1.345   0.398
   58SOL    HW2  262   1.010   1.331   0.308
   58SOL    HW3  263   0.994   1.438   0.414
   58SOL    MW4  264   0.986   1.355   0.388
   59SOL     OW  265   0.969   1.620   0.499
   59SOL    HW2  266   1.049   1.666   0.472
   59SOL    HW3  267   0.951   1.655   0.587
   59SOL    MW4  268   0.977   1.631   0.507
   60SOL     OW  269   0.127   2.091   0.550
   60SOL    HW2  270   0.038   2.124   0.558
   60SOL    HW3  271   0.119   2.014   0.493
   60SOL    MW4  272   0.114   2.085   0.543
   61SOL     OW  273   0.804   1.735   0.319
   61SOL    HW2  274   0.773   1.660   0.269
   61SOL    HW3  275   0.855   1.697   0.391
   61SOL    MW4  276   0.806   1.720   0.322
   62SOL     OW  277   0.909   2.515   0.450
   62SOL    HW2  278   0.973   2.452   0.416
   62SOL    HW3  279   0.900   2.493   0.543
   62SOL    MW4  280   0.916   2.503   0.458
   63SOL     OW  281   0.586   2.095   0.535
   63SOL    HW2  282   0.648   2.135   0.474
   63SOL    HW3  283   0.569   2.008   0.500
   63SOL    MW4  284   0.592   2.089   0.522
   64SOL     OW  285   0.895   2.824   0.488
   64SOL    HW2  286   0.901   2.729   0.487
   64SOL    HW3  287   0.811   2.842   0.532
   64SOL    MW4  288   0.885   2.814   0.494
   65SOL     OW  289   0.500   2.179   0.110
   65SOL    HW2  290   0.519   2.160   0.018
   65SOL    HW3  291   0.429   2.119   0.134
   65SOL    MW4  292   0.493   2.169   0.101
   66SOL     OW  293   0.525   3.057   0.419
   66SOL    HW2  294   0.525   3.133   0.478
   66SOL    HW3  295   0.608   3.063   0.372
   66SOL    MW4  296   0.536   3.068   0.421
   67SOL     OW  297   0.927   3.269   0.410
   67SOL    HW2  298   0.917   3.261   0.505
   67SOL    HW3  299   0.916   3.362   0.393
   67SOL    MW4  300   0.924   3.280   0.420
   68SOL     OW  301   2.033   3.636   0.270
   68SOL    HW2  302   2.027   3.564   0.332
   68SOL    HW3  303   2.038   3.593   0.184
   68SOL    MW4  304   2.033   3.621   0.267
   69SOL     OW  305   0.896   4.041   0.473
   69SOL    HW2  306   0.823   4.102   0.468
   69SOL    HW3  307   0.890   4.004   0.562
   69SOL    MW4  308   0.885   4.044   0.484
   70SOL     OW  309   0.430   3.957   0.416
   70SOL    HW2  310   0.436   3.984   0.507
   70SOL    HW3  311   0.460   4.033   0.366
   70SOL    MW4  312   0.435   3.971   0.421
   71SOL     OW  313   1.143   4.230   0.515
   71SOL    HW2  314   1.142   4.254   0.608
   71SOL    HW3  315   1.069   4.170   0.506
   71SOL    MW4  316   1.133   4.225   0.526
   72SOL     OW  317   1.159   0.470   0.488
   72SOL    HW2  318   1.155   0.387   0.442
   72SOL    HW3  319   1.248   0.502   0.471
   72SOL    MW4  320   1.170   0.463   0.480
   73SOL     OW  321   0.956   0.027   0.489
   73SOL    HW2  322   0.939  -0.067   0.485
   73SOL    HW3  323   0.939   0.051   0.580
   73SOL    MW4  324   0.952   0.018   0.500
   74SOL     OW  325   1.359   0.123   0.426
   74SOL    HW2  326   1.275   0.156   0.393
   74SOL    HW3  327   1.415   0.201   0.433
   74SOL    MW4  328   1.355   0.138   0.423
   75SOL     OW  329   1.839   0.097   0.234
   75SOL    HW2  330   1.904   0.112   0.165
   75SOL    HW3  331   1.776   0.168   0.223
   75SOL    MW4  332   1.839   0.108   0.223
   76SOL     OW  333   1.109   0.217   0.376
   76SOL    HW2  334   1.071   0.146   0.428
   76SOL    HW3  335   1.042   0.237   0.310
   76SOL    MW4  336   1.095   0.211   0.374
   77SOL     OW  337   1.989   0.495   0.448
   77SOL    HW2  338   1.917   0.556   0.433
   77SOL    HW3  339   1.953   0.408   0.428
   77SOL    MW4  340   1.975   0.491   0.444
   78SOL     OW  341   2.789   1.028   0.532
   78SOL    HW2  342   2.854   0.964   0.501
   78SOL    HW3  343   2.769   1.081   0.454
   78SOL    MW4  344   2.795   1.026   0.517
   79SOL     OW  345   1.613   1.480   0.404
   79SOL    HW2  346   1.592   1.498   0.496
   79SOL    HW3  347   1.603   1.385   0.396
   79SOL    MW4  348   1.609   1.470   0.415
   80SOL     OW  349   1.557   1.217   0.475
   80SOL    HW2  350   1.601   1.136   0.449
   80SOL    HW3  351   1.466   1.204   0.451
   80SOL    MW4  352   1.551   1.205   0.469
   81SOL     OW  353   1.283   1.217   0.438
   81SOL    HW2  354   1.293   1.295   0.384
   81SOL    HW3  355   1.221   1.243   0.506
   81SOL    MW4  356   1.276   1.231   0.439
   82SOL     OW  357   1.231   1.712   0.420
   82SOL    HW2  358   1.264   1.698   0.508
   82SOL    HW3  359   1.271   1.794   0.391
   82SOL    MW4  360   1.240   1.721   0.428
   83SOL     OW  361   1.086   2.321   0.421
   83SOL    HW2  362   1.174   2.358   0.416
   83SOL    HW3  363   1.101   2.226   0.423
   83SOL    MW4  364   1.099   2.313   0.420
   84SOL     OW  365   1.407   2.696   0.349
   84SOL    HW2  366   1.407   2.703   0.253
   84SOL    HW3  367   1.330   2.745   0.376
   84SOL    MW4  368   1.397   2.703   0.340
   85SOL     OW  369   1.850   2.279   0.242
   85SOL    HW2  370   1.901   2.351   0.279
   85SOL    HW3  371   1.910   2.205   0.240
   85SOL    MW4  372   1.864   2.279   0.247
   86SOL     OW  373   1.594   2.028   0.484
   86SOL    HW2  374   1.594   2.121   0.460
   86SOL    HW3  375   1.686   2.003   0.483
   86SOL    MW4  376   1.606   2.037   0.481
   87SOL     OW  377   0.901   2.000   0.333
   87SOL    HW2  378   0.987   2.000   0.376
   87SOL    HW3  379   0.879   1.907   0.325
   87SOL    MW4  380   0.910   1.987   0.337
   88SOL     OW  381   0.785   3.032   0.321
   88SOL    HW2  382   0.827   2.963   0.371
   88SOL    HW3  383   0.808   3.113   0.368
   88SOL    MW4  384   0.793   3.034   0.334
   89SOL     OW  385   1.998   2.503   0.413
   89SOL    HW2  386   1.987   2.596   0.435
   89SOL    HW3  387   2.093   2.489   0.412
   89SOL    MW4  388   2.009   2.513   0.416
   90SOL     OW  389   1.697   0.327   0.194
   90SOL    HW2  390   1.648   0.330   0.276
   90SOL    HW3  391   1.643   0.377   0.132
   90SOL    MW4  392   1.683   0.334   0.197
   91SOL     OW  393   1.409   3.744   0.351
   91SOL    HW2  394   1.330   3.694   0.372
   91SOL    HW3  395   1.389   3.834   0.377
   91SOL    MW4  396   1.396   3.749   0.357
   92SOL     OW  397   1.655   2.771   0.448
   92SOL    HW2  398   1.634   2.805   0.535
   92SOL    HW3  399   1.570   2.746   0.411
   92SOL    MW4  400   1.641   2.772   0.454
   93SOL     OW  401   1.471   3.533   0.188
   93SOL    HW2  402   1.458   3.616   0.234
   93SOL    HW3  403   1.499   3.559   0.100
   93SOL    MW4  404   1.473   3.548   0.182
   94SOL     OW  405   1.177   3.124   0.342
   94SOL    HW2  406   1.163   3.127   0.248
   94SOL    HW3  407   1.104   3.174   0.379
   94SOL    MW4  408   1.166   3.131   0.335
   95SOL     OW  409   2.263   3.746   0.376
   95SOL    HW2  410   2.190   3.714   0.323
   95SOL    HW3  411   2.285   3.674   0.435
   95SOL    MW4  412   2.256   3.733   0.377
   96SOL     OW  413   0.837   3.804   0.291
   96SOL    HW2  414   0.862   3.879   0.345
   96SOL    HW3  415   0.856   3.832   0.201
   96SOL    MW4  416   0.843   3.818   0.286
   97SOL     OW  417   1.794   4.529   0.394
   97SOL    HW2  418   1.699   4.524   0.406
   97SOL    HW3  419   1.806   4.597   0.329
   97SOL    MW4  420   1.783   4.537   0.387
   98SOL     OW  421   1.925   4.595   0.656
   98SOL    HW2  422   1.949   4.505   0.679
   98SOL    HW3  423   1.866   4.586   0.581
   98SOL    MW4  424   1.920   4.582   0.649
   99SOL     OW  425   1.913   0.205   0.482
   99SOL    HW2  426   1.842   0.183   0.543
   99SOL    HW3  427   1.886   0.165   0.399
   99SOL    MW4  428   1.900   0.197   0.479
  100SOL     OW  429   1.355   4.029   0.451
  100SOL    HW2  430   1.284   4.093   0.457
  100SOL    HW3  431   1.434   4.078   0.470
  100SOL    MW4  432   1.356   4.044   0.454
  101SOL     OW  433   2.245   0.618   0.479
  101SOL    HW2  434   2.153   0.592   0.479
  101SOL    HW3  435   2.243   0.714   0.484
  101SOL    MW4  436   2.232   0.628   0.479
  102SOL     OW  437   2.035   2.073   0.306
  102SOL    HW2  438   2.084   2.035   0.233
  102SOL    HW3  439   2.083   2.048   0.384
  102SOL    MW4  440   2.048   2.065   0.306
  103SOL     OW  441   2.305   0.916   0.422
  103SOL    HW2  442   2.310   0.864   0.342
  103SOL    HW3  443   2.360   0.992   0.406
  103SOL    MW4  444   2.313   0.919   0.410
  104SOL     OW  445   2.459   1.157   0.392
  104SOL    HW2  446   2.548   1.180   0.367
  104SOL    HW3  447   2.416   1.241   0.409
  104SOL    MW4  448   2.465   1.171   0.391
  105SOL     OW  449   2.156   1.654   0.533
  105SOL    HW2  450   2.186   1.743   0.515
  105SOL    HW3  451   2.063   1.655   0.510
  105SOL    MW4  452   2.147   1.666   0.527
  106SOL     OW  453   1.854   1.942   0.477
  106SOL    HW2  454   1.922   1.977   0.419
  106SOL    HW3  455   1.884   1.965   0.565
  106SOL    MW4  456   1.867   1.950   0.481
  107SOL     OW  457   1.345   1.960   0.362
  107SOL    HW2  458   1.431   1.988   0.392
  107SOL    HW3  459   1.319   2.027   0.299
  107SOL    MW4  460   1.353   1.973   0.358
  108SOL     OW  461   2.282   2.400   0.512
  108SOL    HW2  462   2.353   2.464   0.519
  108SOL    HW3  463   2.232   2.411   0.593
  108SOL    MW4  464   2.284   2.410   0.524
  109SOL     OW  465   1.850   3.234   0.480
  109SOL    HW2  466   1.770   3.270   0.442
  109SOL    HW3  467   1.908   3.310   0.492
  109SOL    MW4  468   1.847   3.249   0.477
  110SOL     OW  469   1.185   2.884   0.433
  110SOL    HW2  470   1.190   2.973   0.400
  110SOL    HW3  471   1.092   2.862   0.429
  110SOL    MW4  472   1.173   2.893   0.428
  111SOL     OW  473   1.616   3.393   0.408
  111SOL    HW2  474   1.578   3.439   0.333
  111SOL    HW3  475   1.655   3.463   0.462
  111SOL    MW4  476   1.616   3.408   0.406
  112SOL     OW  477   1.115   2.046   0.486
  112SOL    HW2  478   1.102   2.030   0.579
  112SOL    HW3  479   1.203   2.012   0.468
  112SOL    MW4  480   1.125   2.039   0.496
  113SOL     OW  481   3.910   1.941   0.355
  113SOL    HW2  482   3.884   1.867   0.410
  113SOL    HW3  483   3.833   1.999   0.354
  113SOL    MW4  484   3.896   1.939   0.362
  114SOL     OW  485   1.747   2.494   0.520
  114SOL    HW2  486   1.833   2.483   0.479
  114SOL    HW3  487   1.724   2.585   0.503
  114SOL    MW4  488   1.755   2.504   0.513
  115SOL     OW  489   1.361   2.433   0.445
  115SOL    HW2  490   1.428   2.378   0.405
  115SOL    HW3  491   1.377   2.520   0.410
  115SOL    MW4  492   1.372   2.437   0.435
  116SOL     OW  493   1.338   3.326   0.463
  116SOL    HW2  494   1.431   3.345   0.450
  116SOL    HW3  495   1.317   3.261   0.396
  116SOL    MW4  496   1.347   3.320   0.453
  117SOL     OW  497   2.240   3.229   0.478
  117SOL    HW2  498   2.172   3.169   0.448
  117SOL    HW3  499   2.223   3.242   0.571
  117SOL    MW4  500   2.229   3.223   0.486
  118SOL     OW  501   1.798   4.029   0.521
  118SOL    HW2  502   1.846   3.947   0.513
  118SOL    HW3  503   1.857   4.095   0.483
  118SOL    MW4  504   1.812   4.027   0.515
  119SOL     OW  505   1.612   3.670   0.504
  119SOL    HW2  506   1.539   3.710   0.457
  119SOL    HW3  507   1.690   3.709   0.464
  119SOL    MW4  508   1.613   3.680   0.492
  120SOL     OW  509   1.564   4.189   0.532
  120SOL    HW2  510   1.586   4.254   0.598
  120SOL    HW3  511   1.644   4.136   0.523
  120SOL    MW4  512   1.578   4.190   0.540
  121SOL     OW  513   1.517   4.570   0.472
  121SOL    HW2  514   1.451   4.633   0.445
  121SOL    HW3  515   1.468   4.490   0.491
  121SOL    MW4  516   1.502   4.568   0.471
  122SOL     OW  517   2.194   4.547   0.518
  122SOL    HW2  518   2.248   4.498   0.580
  122SOL    HW3  519   2.110   4.558   0.563
  122SOL    MW4  520   2.190   4.542   0.532
  123SOL     OW  521   2.202   0.171   0.512
  123SOL    HW2  522   2.219   0.077   0.505
  123SOL    HW3  523   2.109   0.179   0.491
  123SOL    MW4  524   2.192   0.159   0.508
  124SOL     OW  525   2.777   1.422   0.410
  124SOL    HW2  526   2.718   1.474   0.466
  124SOL    HW3  527   2.827   1.368   0.471
  124SOL    MW4  528   2.776   1.422   0.425
  125SOL     OW  529   2.979   0.868   0.419
  125SOL    HW2  530   2.971   0.774   0.437
  125SOL    HW3  531   3.062   0.892   0.460
  125SOL    MW4  532   2.989   0.858   0.427
  126SOL     OW  533   2.735   1.166   0.305
  126SOL    HW2  534   2.816   1.147   0.259
  126SOL    HW3  535   2.745   1.256   0.335
  126SOL    MW4  536   2.747   1.175   0.303
  127SOL     OW  537   2.947   1.277   0.578
  127SOL    HW2  538   2.909   1.190   0.564
  127SOL    HW3  539   2.946   1.289   0.673
  127SOL    MW4  540   2.942   1.267   0.589
  128SOL     OW  541   2.607   1.621   0.516
  128SOL    HW2  542   2.641   1.691   0.461
  128SOL    HW3  543   2.625   1.650   0.605
  128SOL    MW4  544   2.614   1.634   0.521
  129SOL     OW  545   2.993   1.968   0.478
  129SOL    HW2  546   2.958   2.033   0.540
  129SOL    HW3  547   2.918   1.913   0.456
  129SOL    MW4  548   2.978   1.969   0.483
  130SOL     OW  549   2.941   4.522   0.505
  130SOL    HW2  550   2.964   4.615   0.509
  130SOL    HW3  551   2.945   4.492   0.596
  130SOL    MW4  552   2.945   4.530   0.517
  131SOL     OW  553   2.181   1.934   0.502
  131SOL    HW2  554   2.130   1.961   0.579
  131SOL    HW3  555   2.257   1.993   0.502
  131SOL    MW4  556   2.184   1.946   0.513
  132SOL     OW  557   1.536   1.533   0.666
  132SOL    HW2  558   1.604   1.593   0.695
  132SOL    HW3  559   1.454   1.582   0.676
  132SOL    MW4  560   1.534   1.547   0.671
  133SOL     OW  561   2.382   2.124   0.477
  133SOL    HW2  562   2.357   2.215   0.492
  133SOL    HW3  563   2.478   2.126   0.474
  133SOL    MW4  564   2.392   2.136   0.478
  134SOL     OW  565   2.663   2.142   0.463
  134SOL    HW2  566   2.678   2.231   0.431
  134SOL    HW3  567   2.724   2.132   0.536
  134SOL    MW4  568   2.673   2.152   0.469
  135SOL     OW  569   2.610   2.872   0.506
  135SOL    HW2  570   2.622   2.967   0.500
  135SOL    HW3  571   2.564   2.859   0.589
  135SOL    MW4  572   2.606   2.883   0.517
  136SOL     OW  573   1.603   2.310   0.375
  136SOL    HW2  574   1.667   2.300   0.305
  136SOL    HW3  575   1.650   2.359   0.443
  136SOL    MW4  576   1.618   2.315   0.375
  137SOL     OW  577   1.929   2.775   0.447
  137SOL    HW2  578   1.946   2.772   0.541
  137SOL    HW3  579   1.833   2.777   0.440
  137SOL    MW4  580   1.918   2.775   0.458
  138SOL     OW  581   2.320   3.976   0.547
  138SOL    HW2  582   2.341   4.060   0.507
  138SOL    HW3  583   2.285   3.923   0.476
  138SOL    MW4  584   2.318   3.980   0.533
  139SOL     OW  585   2.618   4.084   0.327
  139SOL    HW2  586   2.560   4.012   0.300
  139SOL    HW3  587   2.695   4.041   0.362
  139SOL    MW4  588   2.620   4.069   0.328
  140SOL     OW  589   1.892   3.768   0.497
  140SOL    HW2  590   1.952   3.736   0.430
  140SOL    HW3  591   1.913   3.717   0.575
  140SOL    MW4  592   1.902   3.757   0.498
  141SOL     OW  593   2.050   3.449   0.480
  141SOL    HW2  594   2.134   3.404   0.466
  141SOL    HW3  595   2.060   3.493   0.565
  141SOL    MW4  596   2.063   3.449   0.489
  142SOL     OW  597   2.208   4.347   0.332
  142SOL    HW2  598   2.196   4.413   0.401
  142SOL    HW3  599   2.211   4.398   0.251
  142SOL    MW4  600   2.207   4.363   0.330
  143SOL     OW  601   1.904   4.265   0.448
  143SOL    HW2  602   1.994   4.272   0.415
  143SOL    HW3  603   1.863   4.347   0.422
  143SOL    MW4  604   1.911   4.277   0.441
  144SOL     OW  605   3.101   0.102   0.513
  144SOL    HW2  606   3.177   0.140   0.468
  144SOL    HW3  607   3.119   0.115   0.606
  144SOL    MW4  608   3.113   0.109   0.519
  145SOL     OW  609   2.508   3.812   0.235
  145SOL    HW2  610   2.519   3.740   0.173
  145SOL    HW3  611   2.423   3.795   0.276
  145SOL    MW4  612   2.498   3.800   0.232
  146SOL     OW  613   2.427   4.234   0.472
  146SOL    HW2  614   2.370   4.270   0.404
  146SOL    HW3  615   2.489   4.178   0.424
  146SOL    MW4  616   2.428   4.231   0.457
  147SOL     OW  617   2.405   0.366   0.472
  147SOL    HW2  618   2.373   0.454   0.454
  147SOL    HW3  619   2.326   0.314   0.486
  147SOL    MW4  620   2.390   0.370   0.472
  148SOL     OW  621   1.550   0.320   0.442
  148SOL    HW2  622   1.509   0.401   0.475
  148SOL    HW3  623   1.613   0.296   0.509
  148SOL    MW4  624   1.553   0.328   0.455
  149SOL     OW  625   3.311   0.576   0.496
  149SOL    HW2  626   3.288   0.668   0.498
  149SOL    HW3  627   3.405   0.576   0.478
  149SOL    MW4  628   3.321   0.588   0.494
  150SOL     OW  629   2.373   1.452   0.532
  150SOL    HW2  630   2.292   1.498   0.511
  150SOL    HW3  631   2.442   1.516   0.512
  150SOL    MW4  632   2.372   1.467   0.526
  151SOL     OW  633   2.992   1.063   0.200
  151SOL    HW2  634   3.060   1.115   0.241
  151SOL    HW3  635   2.981   0.987   0.258
  151SOL    MW4  636   2.999   1.060   0.213
  152SOL     OW  637   3.113   1.706   0.496
  152SOL    HW2  638   3.066   1.649   0.435
  152SOL    HW3  639   3.082   1.794   0.477
  152SOL    MW4  640   3.103   1.710   0.485
  153SOL     OW  641   2.961   1.587   0.260
  153SOL    HW2  642   2.906   1.519   0.300
  153SOL    HW3  643   2.982   1.553   0.173
  153SOL    MW4  644   2.956   1.573   0.254
  154SOL     OW  645   3.698   1.451   0.456
  154SOL    HW2  646   3.650   1.457   0.373
  154SOL    HW3  647   3.630   1.457   0.523
  154SOL    MW4  648   3.683   1.453   0.454
  155SOL     OW  649   2.712   0.195   0.749
  155SOL    HW2  650   2.729   0.283   0.782
  155SOL    HW3  651   2.688   0.208   0.657
  155SOL    MW4  652   2.711   0.208   0.741
  156SOL     OW  653   3.239   2.077   0.606
  156SOL    HW2  654   3.173   2.042   0.547
  156SOL    HW3  655   3.219   2.035   0.691
  156SOL    MW4  656   3.228   2.067   0.610
  157SOL     OW  657   2.721   2.398   0.388
  157SOL    HW2  658   2.800   2.438   0.422
  157SOL    HW3  659   2.722   2.419   0.295
  157SOL    MW4  660   2.731   2.406   0.380
  158SOL     OW  661   2.795   1.814   0.371
  158SOL    HW2  662   2.835   1.745   0.318
  158SOL    HW3  663   2.752   1.871   0.307
  158SOL    MW4  664   2.794   1.812   0.355
  159SOL     OW  665   2.500   2.557   0.511
  159SOL    HW2  666   2.532   2.640   0.477
  159SOL    HW3  667   2.562   2.492   0.477
  159SOL    MW4  668   2.512   2.559   0.502
  160SOL     OW  669   2.677   3.136   0.519
  160SOL    HW2  670   2.757   3.182   0.494
  160SOL    HW3  671   2.668   3.152   0.613
  160SOL    MW4  672   2.687   3.144   0.528
  161SOL     OW  673   2.904   3.316   0.439
  161SOL    HW2  674   2.989   3.275   0.455
  161SOL    HW3  675   2.907   3.397   0.490
  161SOL    MW4  676   2.916   3.321   0.448
  162SOL     OW  677   3.151   3.170   0.497
  162SOL    HW2  678   3.163   3.075   0.507
  162SOL    HW3  679   3.122   3.200   0.583
  162SOL    MW4  680   3.149   3.161   0.510
  163SOL     OW  681   2.499   3.334   0.473
  163SOL    HW2  682   2.567   3.270   0.491
  163SOL    HW3  683   2.423   3.283   0.445
  163SOL    MW4  684   2.498   3.319   0.472
  164SOL     OW  685   2.612   3.562   0.061
  164SOL    HW2  686   2.655   3.498   0.117
  164SOL    HW3  687   2.620   3.525  -0.027
  164SOL    MW4  688   2.619   3.549   0.056
  165SOL     OW  689   3.374   3.603   0.350
  165SOL    HW2  690   3.321   3.576   0.275
  165SOL    HW3  691   3.370   3.528   0.410
  165SOL    MW4  692   3.367   3.589   0.348
  166SOL     OW  693   2.702   3.686   0.391
  166SOL    HW2  694   2.640   3.742   0.345
  166SOL    HW3  695   2.691   3.599   0.352
  166SOL    MW4  696   2.692   3.682   0.380
  167SOL     OW  697   2.359   3.552   0.549
  167SOL    HW2  698   2.407   3.596   0.619
  167SOL    HW3  699   2.419   3.484   0.518
  167SOL    MW4  700   2.373   3.548   0.554
  168SOL     OW  701   3.556   3.834   0.403
  168SOL    HW2  702   3.504   3.767   0.360
  168SOL    HW3  703   3.517   3.843   0.490
  168SOL    MW4  704   3.544   3.826   0.409
  169SOL     OW  705   3.198   4.436   0.358
  169SOL    HW2  706   3.180   4.349   0.321
  169SOL    HW3  707   3.114   4.464   0.395
  169SOL    MW4  708   3.184   4.428   0.358
  170SOL     OW  709   3.363   4.661   0.256
  170SOL    HW2  710   3.449   4.629   0.281
  170SOL    HW3  711   3.305   4.584   0.265
  170SOL    MW4  712   3.367   4.646   0.260
  171SOL     OW  713   3.425   4.419   0.497
  171SOL    HW2  714   3.341   4.433   0.454
  171SOL    HW3  715   3.489   4.459   0.437
  171SOL    MW4  716   3.423   4.426   0.483
  172SOL     OW  717   2.750   4.326   0.436
  172SOL    HW2  718   2.727   4.266   0.365
  172SOL    HW3  719   2.836   4.359   0.412
  172SOL    MW4  720   2.758   4.322   0.423
  173SOL     OW  721   2.643   0.204   0.465
  173SOL    HW2  722   2.574   0.265   0.437
  173SOL    HW3  723   2.725   0.249   0.444
  173SOL    MW4  724   2.644   0.218   0.459
  174SOL     OW  725   3.264   0.867   0.523
  174SOL    HW2  726   3.260   0.895   0.614
  174SOL    HW3  727   3.316   0.934   0.480
  174SOL    MW4  728   3.270   0.880   0.529
  175SOL     OW  729   3.021   0.591   0.466
  175SOL    HW2  730   2.975   0.508   0.456
  175SOL    HW3  731   3.113   0.570   0.449
  175SOL    MW4  732   3.027   0.578   0.463
  176SOL     OW  733   3.640   0.950   0.462
  176SOL    HW2  734   3.668   0.870   0.418
  176SOL    HW3  735   3.625   0.924   0.553
  176SOL    MW4  736   3.641   0.936   0.468
  177SOL     OW  737   2.910   0.298   0.516
  177SOL    HW2  738   2.972   0.229   0.491
  177SOL    HW3  739   2.887   0.276   0.607
  177SOL    MW4  740   2.915   0.286   0.525
  178SOL     OW  741   3.515   1.943   0.558
  178SOL    HW2  742   3.549   1.933   0.647
  178SOL    HW3  743   3.433   1.991   0.568
  178SOL    MW4  744   3.509   1.948   0.571
  179SOL     OW  745   3.409   1.699   0.447
  179SOL    HW2  746   3.448   1.781   0.479
  179SOL    HW3  747   3.316   1.718   0.438
  179SOL    MW4  748   3.402   1.712   0.450
  180SOL     OW  749   3.410   1.103   0.436
  180SOL    HW2  750   3.443   1.164   0.502
  180SOL    HW3  751   3.487   1.052   0.410
  180SOL    MW4  752   3.424   1.104   0.442
  181SOL     OW  753   3.801   1.723   0.488
  181SOL    HW2  754   3.769   1.634   0.476
  181SOL    HW3  755   3.738   1.763   0.548
  181SOL    MW4  756   3.788   1.717   0.495
  182SOL     OW  757   3.275   2.325   0.697
  182SOL    HW2  758   3.252   2.239   0.660
  182SOL    HW3  759   3.339   2.305   0.766
  182SOL    MW4  760   3.280   2.311   0.701
  183SOL     OW  761   3.521   2.677   0.567
  183SOL    HW2  762   3.543   2.647   0.655
  183SOL    HW3  763   3.449   2.619   0.539
  183SOL    MW4  764   3.514   2.665   0.575
  184SOL     OW  765   2.042   3.038   0.387
  184SOL    HW2  766   1.958   3.075   0.412
  184SOL    HW3  767   2.034   2.944   0.405
  184SOL    MW4  768   2.030   3.031   0.393
  185SOL     OW  769   3.176   2.643   0.300
  185SOL    HW2  770   3.220   2.644   0.215
  185SOL    HW3  771   3.238   2.601   0.359
  185SOL    MW4  772   3.190   2.638   0.296
  186SOL     OW  773   2.912   2.839   0.808
  186SOL    HW2  774   2.887   2.811   0.720
  186SOL    HW3  775   2.989   2.788   0.829
  186SOL    MW4  776   2.919   2.829   0.799
  187SOL     OW  777   3.317   0.233   0.403
  187SOL    HW2  778   3.346   0.171   0.336
  187SOL    HW3  779   3.304   0.315   0.355
  187SOL    MW4  780   3.319   0.236   0.388
  188SOL     OW  781   3.089   3.971   0.467
  188SOL    HW2  782   3.154   4.009   0.408
  188SOL    HW3  783   3.128   3.979   0.554
  188SOL    MW4  784   3.103   3.977   0.470
  189SOL     OW  785   3.358   3.588   0.722
  189SOL    HW2  786   3.345   3.532   0.646
  189SOL    HW3  787   3.281   3.574   0.776
  189SOL    MW4  788   3.346   3.579   0.719
  190SOL     OW  789   3.638   3.310   0.531
  190SOL    HW2  790   3.701   3.265   0.476
  190SOL    HW3  791   3.663   3.402   0.526
  190SOL    MW4  792   3.649   3.316   0.523
  191SOL     OW  793   3.350   3.375   0.542
  191SOL    HW2  794   3.277   3.316   0.526
  191SOL    HW3  795   3.427   3.327   0.511
  191SOL    MW4  796   3.350   3.361   0.536
  192SOL     OW  797   2.813   3.950   0.462
  192SOL    HW2  798   2.907   3.967   0.464
  192SOL    HW3  799   2.806   3.859   0.434
  192SOL    MW4  800   2.824   3.940   0.459
  193SOL     OW  801   2.689   3.426   0.298
  193SOL    HW2  802   2.613   3.399   0.350
  193SOL    HW3  803   2.763   3.383   0.340
  193SOL    MW4  804   2.689   3.417   0.310
  194SOL     OW  805   4.224   0.163   0.369
  194SOL    HW2  806   4.217   0.151   0.274
  194SOL    HW3  807   4.316   0.150   0.388
  194SOL    MW4  808   4.235   0.160   0.359
  195SOL     OW  809   3.735   0.126   0.340
  195SOL    HW2  810   3.688   0.186   0.398
  195SOL    HW3  811   3.825   0.125   0.373
  195SOL    MW4  812   3.741   0.133   0.352
  196SOL     OW  813   3.616   0.548   0.462
  196SOL    HW2  814   3.668   0.607   0.407
  196SOL    HW3  815   3.667   0.539   0.542
  196SOL    MW4  816   3.630   0.555   0.465
  197SOL     OW  817   3.767   0.735   0.329
  197SOL    HW2  818   3.854   0.696   0.340
  197SOL    HW3  819   3.766   0.769   0.239
  197SOL    MW4  820   3.778   0.735   0.319
  198SOL     OW  821   3.981   0.587   0.455
  198SOL    HW2  822   4.054   0.526   0.459
  198SOL    HW3  823   3.917   0.551   0.517
  198SOL    MW4  824   3.982   0.574   0.464
  199SOL     OW  825   4.431   0.873   0.454
  199SOL    HW2  826   4.337   0.858   0.446
  199SOL    HW3  827   4.465   0.857   0.366
  199SOL    MW4  828   4.423   0.869   0.442
  200SOL     OW  829   3.928   0.976   0.516
  200SOL    HW2  830   3.924   1.066   0.483
  200SOL    HW3  831   3.836   0.948   0.521
  200SOL    MW4  832   3.915   0.984   0.512
  201SOL     OW  833   4.097   1.677   0.544
  201SOL    HW2  834   4.009   1.695   0.510
  201SOL    HW3  835   4.145   1.758   0.530
  201SOL    MW4  836   4.091   1.690   0.537
  202SOL     OW  837   3.900   1.269   0.486
  202SOL    HW2  838   3.988   1.303   0.471
  202SOL    HW3  839   3.842   1.339   0.455
  202SOL    MW4  840   3.904   1.283   0.480
  203SOL     OW  841   3.162   1.221   0.363
  203SOL    HW2  842   3.247   1.190   0.395
  203SOL    HW3  843   3.120   1.259   0.440
  203SOL    MW4  844   3.168   1.222   0.378
  204SOL     OW  845   3.532   1.476   0.248
  204SOL    HW2  846   3.456   1.419   0.245
  204SOL    HW3  847   3.498   1.561   0.273
  204SOL    MW4  848   3.518   1.480   0.251
  205SOL     OW  849   3.579   2.379   0.406
  205SOL    HW2  850   3.651   2.436   0.378
  205SOL    HW3  851   3.618   2.291   0.408
  205SOL    MW4  852   3.594   2.375   0.402
  206SOL     OW  853   4.224   2.866   0.458
  206SOL    HW2  854   4.244   2.778   0.426
  206SOL    HW3  855   4.129   2.870   0.460
  206SOL    MW4  856   4.214   2.855   0.454
  207SOL     OW  857   2.957   2.531   0.448
  207SOL    HW2  858   3.004   2.530   0.531
  207SOL    HW3  859   3.024   2.550   0.382
  207SOL    MW4  860   2.972   2.533   0.450
  208SOL     OW  861   2.898   3.567   0.542
  208SOL    HW2  862   2.982   3.609   0.523
  208SOL    HW3  863   2.833   3.621   0.497
  208SOL    MW4  864   2.900   3.580   0.534
  209SOL     OW  865   3.132   2.876   0.447
  209SOL    HW2  866   3.133   2.808   0.380
  209SOL    HW3  867   3.042   2.878   0.479
  209SOL    MW4  868   3.120   2.867   0.443
  210SOL     OW  869   3.937   2.902   0.449
  210SOL    HW2  870   3.875   2.831   0.432
  210SOL    HW3  871   3.886   2.982   0.433
  210SOL    MW4  872   3.922   2.903   0.444
  211SOL     OW  873   3.763   2.667   0.427
  211SOL    HW2  874   3.828   2.606   0.463
  211SOL    HW3  875   3.683   2.649   0.476
  211SOL    MW4  876   3.761   2.657   0.438
  212SOL     OW  877   3.932   3.697   0.398
  212SOL    HW2  878   3.865   3.648   0.446
  212SOL    HW3  879   3.964   3.635   0.332
  212SOL    MW4  880   3.928   3.682   0.396
  213SOL     OW  881   3.333   2.489   0.480
  213SOL    HW2  882   3.300   2.431   0.548
  213SOL    HW3  883   3.418   2.453   0.456
  213SOL    MW4  884   3.340   2.477   0.486
  214SOL     OW  885   3.129   3.696   0.471
  214SOL    HW2  886   3.216   3.676   0.438
  214SOL    HW3  887   3.118   3.790   0.457
  214SOL    MW4  888   3.139   3.706   0.465
  215SOL     OW  889   4.370   3.611   0.507
  215SOL    HW2  890   4.344   3.519   0.500
  215SOL    HW3  891   4.465   3.610   0.497
  215SOL    MW4  892   4.379   3.599   0.505
  216SOL     OW  893   3.466   4.149   0.521
  216SOL    HW2  894   3.462   4.244   0.520
  216SOL    HW3  895   3.451   4.126   0.613
  216SOL    MW4  896   3.463   4.158   0.533
  217SOL     OW  897   3.762   4.327   0.453
  217SOL    HW2  898   3.746   4.237   0.424
  217SOL    HW3  899   3.759   4.323   0.548
  217SOL    MW4  900   3.760   4.315   0.462
  218SOL     OW  901   4.477   0.096   0.440
  218SOL    HW2  902   4.461   0.002   0.430
  218SOL    HW3  903   4.485   0.109   0.534
  218SOL    MW4  904   4.476   0.085   0.451
  219SOL     OW  905   4.155   0.825   0.446
  219SOL    HW2  906   4.091   0.895   0.458
  219SOL    HW3  907   4.103   0.745   0.440
  219SOL    MW4  908   4.140   0.824   0.447
  220SOL     OW  909   0.397   1.636   0.538
  220SOL    HW2  910   0.437   1.555   0.504
  220SOL    HW3  911   0.303   1.623   0.526
  220SOL    MW4  912   0.390   1.624   0.532
  221SOL     OW  913   4.219   0.420   0.487
  221SOL    HW2  914   4.214   0.330   0.454
  221SOL    HW3  915   4.305   0.451   0.460
  221SOL    MW4  916   4.230   0.412   0.479
  222SOL     OW  917   0.032   1.136   0.520
  222SOL    HW2  918   0.003   1.048   0.493
  222SOL    HW3  919   0.001   1.144   0.610
  222SOL    MW4  920   0.024   1.125   0.529
  223SOL     OW  921   3.608   4.532   0.324
  223SOL    HW2  922   3.680   4.470   0.334
  223SOL    HW3  923   3.648   4.618   0.336
  223SOL    MW4  924   3.622   4.535   0.327
  224SOL     OW  925   4.163   1.396   0.520
  224SOL    HW2  926   4.204   1.380   0.605
  224SOL    HW3  927   4.158   1.491   0.513
  224SOL    MW4  928   4.168   1.406   0.530
  225SOL     OW  929   4.441   1.382   0.455
  225SOL    HW2  930   4.345   1.384   0.456
  225SOL    HW3  931   4.463   1.290   0.467
  225SOL    MW4  932   4.431   1.370   0.457
  226SOL     OW  933   4.106   1.946   0.155
  226SOL    HW2  934   4.069   1.950   0.066
  226SOL    HW3  935   4.029   1.936   0.212
  226SOL    MW4  936   4.091   1.946   0.151
  227SOL     OW  937   4.282   1.885   0.554
  227SOL    HW2  938   4.317   1.904   0.467
  227SOL    HW3  939   4.349   1.830   0.595
  227SOL    MW4  940   4.296   1.880   0.548
  228SOL     OW  941   4.346   2.193   0.537
  228SOL    HW2  942   4.372   2.284   0.520
  228SOL    HW3  943   4.256   2.187   0.508
  228SOL    MW4  944   4.338   2.204   0.531
  229SOL     OW  945   4.356   2.002   0.281
  229SOL    HW2  946   4.269   1.988   0.242
  229SOL    HW3  947   4.414   2.015   0.207
  229SOL    MW4  948   4.352   2.002   0.266
  230SOL     OW  949   0.007   2.439   0.495
  230SOL    HW2  950   0.091   2.456   0.453
  230SOL    HW3  951   0.027   2.438   0.589
  230SOL    MW4  952   0.021   2.441   0.502
  231SOL     OW  953   4.089   3.509   0.251
  231SOL    HW2  954   4.143   3.561   0.190
  231SOL    HW3  955   4.149   3.486   0.321
  231SOL    MW4  956   4.104   3.513   0.252
  232SOL     OW  957   4.237   2.558   0.496
  232SOL    HW2  958   4.225   2.547   0.590
  232SOL    HW3  959   4.326   2.526   0.479
  232SOL    MW4  960   4.247   2.552   0.506
  233SOL     OW  961   0.174   3.840   0.403
  233SOL    HW2  962   0.128   3.909   0.451
  233SOL    HW3  963   0.264   3.873   0.396
  233SOL    MW4  964   0.180   3.854   0.408
  234SOL     OW  965   4.254   3.660   0.103
  234SOL    HW2  966   4.293   3.706   0.029
  234SOL    HW3  967   4.291   3.703   0.180
  234SOL    MW4  968   4.264   3.672   0.104
  235SOL     OW  969   0.232   3.284   0.220
  235SOL    HW2  970   0.292   3.259   0.150
  235SOL    HW3  971   0.282   3.344   0.275
  235SOL    MW4  972   0.247   3.288   0.218
  236SOL     OW  973   3.702   3.579   0.520
  236SOL    HW2  974   3.667   3.662   0.490
  236SOL    HW3  975   3.736   3.597   0.608
  236SOL    MW4  976   3.702   3.592   0.528
  237SOL     OW  977   3.860   3.174   0.426
  237SOL    HW2  978   3.923   3.196   0.495
  237SOL    HW3  979   3.903   3.203   0.345
  237SOL    MW4  980   3.874   3.181   0.424
  238SOL     OW  981   0.055   4.077   0.510
  238SOL    HW2  982   0.040   4.068   0.604
  238SOL    HW3  983  -0.032   4.069   0.470
  238SOL    MW4  984   0.042   4.075   0.517
  239SOL     OW  985   4.014   3.965   0.481
  239SOL    HW2  986   3.998   3.873   0.462
  239SOL    HW3  987   3.927   4.005   0.482
  239SOL    MW4  988   4.000   3.958   0.478
  240SOL     OW  989   3.731   4.042   0.479
  240SOL    HW2  990   3.650   4.080   0.513
  240SOL    HW3  991   3.702   3.964   0.432
  240SOL    MW4  992   3.716   4.037   0.478
  241SOL     OW  993   4.002   4.498   0.414
  241SOL    HW2  994   4.082   4.450   0.393
  241SOL    HW3  995   3.931   4.436   0.398
  241SOL    MW4  996   4.003   4.483   0.409
  242SOL     OW  997   0.208   0.010   0.869
  242SOL    HW2  998   0.217  -0.080   0.836
  242SOL    HW3  999   0.126   0.042   0.831
  242SOL    MW4 1000   0.198   0.002   0.860
  243SOL     OW 1001   4.468   0.121   0.724
  243SOL    HW2 1002   4.397   0.072   0.765
  243SOL    HW3 1003   4.463   0.208   0.764
  243SOL    MW4 1004   4.458   0.126   0.735
  244SOL     OW 1005   0.005   0.382   0.838
  244SOL    HW2 1006   0.002   0.365   0.932
  244SOL    HW3 1007   0.098   0.393   0.819
  244SOL    MW4 1008   0.017   0.381   0.848
  245SOL     OW 1009   0.264   0.466   0.795
  245SOL    HW2 1010   0.344   0.453   0.846
  245SOL    HW3 1011   0.236   0.555   0.816
  245SOL    MW4 1012   0.271   0.476   0.805
  246SOL     OW 1013   0.195   0.745   0.867
  246SOL    HW2 1014   0.192   0.753   0.962
  246SOL    HW3 1015   0.116   0.791   0.837
  246SOL    MW4 1016   0.184   0.752   0.876
  247SOL     OW 1017   4.459   0.856   0.767
  247SOL    HW2 1018   4.380   0.819   0.807
  247SOL    HW3 1019   4.454   0.828   0.676
  247SOL    MW4 1020   4.448   0.847   0.760
  248SOL     OW 1021   4.478   1.136   0.806
  248SOL    HW2 1022   4.488   1.146   0.900
  248SOL    HW3 1023   4.468   1.041   0.793
  248SOL    MW4 1024   4.478   1.125   0.817
  249SOL     OW 1025   0.244   1.278   0.767
  249SOL    HW2 1026   0.155   1.243   0.768
  249SOL    HW3 1027   0.276   1.260   0.679
  249SOL    MW4 1028   0.237   1.271   0.755
  250SOL     OW 1029   0.245   1.557   0.861
  250SOL    HW2 1030   0.334   1.592   0.854
  250SOL    HW3 1031   0.248   1.474   0.815
  250SOL    MW4 1032   0.257   1.551   0.854
  251SOL     OW 1033   0.012   1.648   0.756
  251SOL    HW2 1034  -0.072   1.631   0.799
  251SOL    HW3 1035   0.078   1.619   0.818
  251SOL    MW4 1036   0.009   1.642   0.770
  252SOL     OW 1037   0.013   1.923   0.843
  252SOL    HW2 1038   0.101   1.953   0.820
  252SOL    HW3 1039   0.015   1.828   0.827
  252SOL    MW4 1040   0.025   1.914   0.838
  253SOL     OW 1041   0.261   2.026   0.788
  253SOL    HW2 1042   0.245   2.102   0.845
  253SOL    HW3 1043   0.226   2.052   0.703
  253SOL    MW4 1044   0.254   2.040   0.784
  254SOL     OW 1045   0.202   2.260   0.909
  254SOL    HW2 1046   0.183   2.282   1.000
  254SOL    HW3 1047   0.287   2.302   0.891
  254SOL    MW4 1048   0.211   2.268   0.918
  255SOL     OW 1049   0.039   2.420   0.756
  255SOL    HW2 1050  -0.041   2.385   0.796
  255SOL    HW3 1051   0.110   2.378   0.804
  255SOL    MW4 1052   0.038   2.410   0.768
  256SOL     OW 1053   0.035   2.707   0.826
  256SOL    HW2 1054   0.015   2.716   0.919
  256SOL    HW3 1055   0.031   2.612   0.809
  256SOL    MW4 1056   0.032   2.695   0.836
  257SOL     OW 1057   0.255   2.868   0.759
  257SOL    HW2 1058   0.182   2.809   0.774
  257SOL    HW3 1059   0.258   2.879   0.664
  257SOL    MW4 1060   0.246   2.862   0.748
  258SOL     OW 1061   0.230   3.118   0.869
  258SOL    HW2 1062   0.220   3.096   0.962
  258SOL    HW3 1063   0.260   3.037   0.828
  258SOL    MW4 1064   0.232   3.104   0.876
  259SOL     OW 1065   0.031   3.223   0.717
  259SOL    HW2 1066   0.094   3.174   0.769
  259SOL    HW3 1067   0.057   3.207   0.626
  259SOL    MW4 1068   0.043   3.214   0.711
  260SOL     OW 1069   0.014   3.445   0.877
  260SOL    HW2 1070  -0.059   3.504   0.856
  260SOL    HW3 1071   0.014   3.380   0.807
  260SOL    MW4 1072   0.005   3.444   0.865
  261SOL     OW 1073   0.233   3.586   0.780
  261SOL    HW2 1074   0.170   3.539   0.834
  261SOL    HW3 1075   0.205   3.568   0.690
  261SOL    MW4 1076   0.221   3.578   0.775
  262SOL     OW 1077   0.243   3.859   0.852
  262SOL    HW2 1078   0.233   3.843   0.946
  262SOL    HW3 1079   0.232   3.773   0.812
  262SOL    MW4 1080   0.241   3.845   0.859
  263SOL     OW 1081   0.006   4.014   0.777
  263SOL    HW2 1082  -0.074   3.969   0.804
  263SOL    HW3 1083   0.077   3.954   0.803
  263SOL    MW4 1084   0.005   4.000   0.784
  264SOL     OW 1085   0.010   4.274   0.859
  264SOL    HW2 1086  -0.028   4.299   0.943
  264SOL    HW3 1087  -0.012   4.181   0.849
  264SOL    MW4 1088   0.002   4.265   0.868
  265SOL     OW 1089   0.209   4.421   0.718
  265SOL    HW2 1090   0.154   4.358   0.764
  265SOL    HW3 1091   0.195   4.402   0.625
  265SOL    MW4 1092   0.200   4.410   0.712
  266SOL     OW 1093   0.673   4.604   0.836
  266SOL    HW2 1094   0.692   4.607   0.930
  266SOL    HW3 1095   0.591   4.654   0.827
  266SOL    MW4 1096   0.665   4.611   0.847
  267SOL     OW 1097   0.463   0.124   0.786
  267SOL    HW2 1098   0.372   0.111   0.812
  267SOL    HW3 1099   0.459   0.165   0.700
  267SOL    MW4 1100   0.451   0.128   0.778
  268SOL     OW 1101   0.494   0.367   0.910
  268SOL    HW2 1102   0.564   0.411   0.860
  268SOL    HW3 1103   0.491   0.278   0.874
  268SOL    MW4 1104   0.503   0.361   0.898
  269SOL     OW 1105   0.694   0.477   0.755
  269SOL    HW2 1106   0.769   0.419   0.768
  269SOL    HW3 1107   0.665   0.459   0.666
  269SOL    MW4 1108   0.700   0.467   0.745
  270SOL     OW 1109   0.666   0.738   0.838
  270SOL    HW2 1110   0.593   0.785   0.798
  270SOL    HW3 1111   0.668   0.654   0.792
  270SOL    MW4 1112   0.657   0.733   0.827
  271SOL     OW 1113   0.427   0.861   0.727
  271SOL    HW2 1114   0.433   0.941   0.780
  271SOL    HW3 1115   0.351   0.815   0.762
  271SOL    MW4 1116   0.418   0.866   0.739
  272SOL     OW 1117   0.455   1.113   0.878
  272SOL    HW2 1118   0.540   1.149   0.852
  272SOL    HW3 1119   0.391   1.173   0.840
  272SOL    MW4 1120   0.457   1.126   0.869
  273SOL     OW 1121   0.666   1.242   0.759
  273SOL    HW2 1122   0.686   1.336   0.766
  273SOL    HW3 1123   0.644   1.229   0.667
  273SOL    MW4 1124   0.666   1.253   0.748
  274SOL     OW 1125   0.724   1.498   0.863
  274SOL    HW2 1126   0.710   1.495   0.958
  274SOL    HW3 1127   0.648   1.546   0.830
  274SOL    MW4 1128   0.712   1.504   0.872
  275SOL     OW 1129   0.501   1.650   0.790
  275SOL    HW2 1130   0.508   1.742   0.817
  275SOL    HW3 1131   0.466   1.653   0.701
  275SOL    MW4 1132   0.497   1.663   0.782
  276SOL     OW 1133   0.495   1.885   0.892
  276SOL    HW2 1134   0.496   1.900   0.987
  276SOL    HW3 1135   0.404   1.900   0.867
  276SOL    MW4 1136   0.483   1.889   0.901
  277SOL     OW 1137   0.658   2.085   0.803
  277SOL    HW2 1138   0.599   2.024   0.848
  277SOL    HW3 1139   0.635   2.077   0.711
  277SOL    MW4 1140   0.647   2.076   0.797
  278SOL     OW 1141   0.638   2.364   0.842
  278SOL    HW2 1142   0.668   2.384   0.931
  278SOL    HW3 1143   0.655   2.270   0.831
  278SOL    MW4 1144   0.644   2.354   0.852
  279SOL     OW 1145   0.385   2.402   0.750
  279SOL    HW2 1146   0.477   2.378   0.764
  279SOL    HW3 1147   0.364   2.365   0.664
  279SOL    MW4 1148   0.394   2.394   0.740
  280SOL     OW 1149   0.449   2.686   0.857
  280SOL    HW2 1150   0.401   2.616   0.813
  280SOL    HW3 1151   0.398   2.765   0.838
  280SOL    MW4 1152   0.436   2.688   0.849
  281SOL     OW 1153   0.665   2.857   0.807
  281SOL    HW2 1154   0.749   2.827   0.842
  281SOL    HW3 1155   0.601   2.795   0.841
  281SOL    MW4 1156   0.668   2.845   0.816
  282SOL     OW 1157   0.718   3.116   0.857
  282SOL    HW2 1158   0.628   3.149   0.853
  282SOL    HW3 1159   0.708   3.021   0.850
  282SOL    MW4 1160   0.705   3.108   0.855
  283SOL     OW 1161   0.473   3.250   0.832
  283SOL    HW2 1162   0.478   3.337   0.870
  283SOL    HW3 1163   0.382   3.223   0.844
  283SOL    MW4 1164   0.462   3.258   0.839
  284SOL     OW 1165   0.472   3.508   0.906
  284SOL    HW2 1166   0.455   3.509   1.000
  284SOL    HW3 1167   0.388   3.533   0.866
  284SOL    MW4 1168   0.459   3.511   0.913
  285SOL     OW 1169   0.698   3.634   0.796
  285SOL    HW2 1170   0.623   3.592   0.839
  285SOL    HW3 1171   0.677   3.727   0.798
  285SOL    MW4 1172   0.685   3.641   0.802
  286SOL     OW 1173   0.639   3.892   0.853
  286SOL    HW2 1174   0.716   3.939   0.823
  286SOL    HW3 1175   0.568   3.922   0.796
  286SOL    MW4 1176   0.640   3.902   0.842
  287SOL     OW 1177   0.446   4.015   0.704
  287SOL    HW2 1178   0.435   4.102   0.743
  287SOL    HW3 1179   0.372   3.964   0.739
  287SOL    MW4 1180   0.435   4.020   0.714
  288SOL     OW 1181   0.426   4.268   0.827
  288SOL    HW2 1182   0.412   4.274   0.921
  288SOL    HW3 1183   0.354   4.318   0.789
  288SOL    MW4 1184   0.415   4.276   0.834
  289SOL     OW 1185   0.701   4.345   0.766
  289SOL    HW2 1186   0.613   4.316   0.789
  289SOL    HW3 1187   0.695   4.440   0.762
  289SOL    MW4 1188   0.689   4.354   0.768
  290SOL     OW 1189   1.137   4.621   0.827
  290SOL    HW2 1190   1.205   4.677   0.791
  290SOL    HW3 1191   1.055   4.667   0.807
  290SOL    MW4 1192   1.135   4.634   0.819
  291SOL     OW 1193   0.906   0.087   0.748
  291SOL    HW2 1194   0.926   0.175   0.781
  291SOL    HW3 1195   0.829   0.060   0.797
  291SOL    MW4 1196   0.898   0.095   0.759
  292SOL     OW 1197   0.941   0.331   0.837
  292SOL    HW2 1198   0.918   0.343   0.930
  292SOL    HW3 1199   1.027   0.372   0.828
  292SOL    MW4 1200   0.949   0.338   0.848
  293SOL     OW 1201   1.163   0.465   0.755
  293SOL    HW2 1202   1.242   0.421   0.786
  293SOL    HW3 1203   1.158   0.444   0.662
  293SOL    MW4 1204   1.173   0.456   0.747
  294SOL     OW 1205   1.107   0.756   0.835
  294SOL    HW2 1206   1.100   0.756   0.931
  294SOL    HW3 1207   1.118   0.663   0.813
  294SOL    MW4 1208   1.107   0.743   0.845
  295SOL     OW 1209   0.882   0.887   0.719
  295SOL    HW2 1210   0.958   0.840   0.755
  295SOL    HW3 1211   0.808   0.829   0.734
  295SOL    MW4 1212   0.883   0.874   0.726
  296SOL     OW 1213   0.916   1.148   0.809
  296SOL    HW2 1214   0.903   1.058   0.777
  296SOL    HW3 1215   0.834   1.193   0.787
  296SOL    MW4 1216   0.903   1.142   0.802
  297SOL     OW 1217   1.098   1.320   0.657
  297SOL    HW2 1218   1.034   1.267   0.706
  297SOL    HW3 1219   1.045   1.373   0.597
  297SOL    MW4 1220   1.082   1.320   0.656
  298SOL     OW 1221   1.147   1.535   0.868
  298SOL    HW2 1222   1.072   1.586   0.839
  298SOL    HW3 1223   1.131   1.447   0.834
  298SOL    MW4 1224   1.135   1.530   0.860
  299SOL     OW 1225   0.914   1.680   0.758
  299SOL    HW2 1226   0.903   1.762   0.806
  299SOL    HW3 1227   0.843   1.624   0.791
  299SOL    MW4 1228   0.903   1.683   0.769
  300SOL     OW 1229   0.895   1.938   0.885
  300SOL    HW2 1230   0.906   1.933   0.980
  300SOL    HW3 1231   0.813   1.985   0.872
  300SOL    MW4 1232   0.886   1.944   0.895
  301SOL     OW 1233   1.098   2.067   0.766
  301SOL    HW2 1234   1.083   2.155   0.800
  301SOL    HW3 1235   1.021   2.017   0.793
  301SOL    MW4 1236   1.086   2.072   0.774
  302SOL     OW 1237   1.070   2.325   0.864
  302SOL    HW2 1238   1.081   2.325   0.959
  302SOL    HW3 1239   1.153   2.358   0.830
  302SOL    MW4 1240   1.082   2.329   0.872
  303SOL     OW 1241   0.901   2.494   0.725
  303SOL    HW2 1242   0.953   2.424   0.764
  303SOL    HW3 1243   0.811   2.460   0.726
  303SOL    MW4 1244   0.896   2.481   0.730
  304SOL     OW 1245   0.920   2.748   0.841
  304SOL    HW2 1246   0.913   2.730   0.935
  304SOL    HW3 1247   0.906   2.664   0.798
  304SOL    MW4 1248   0.917   2.735   0.848
  305SOL     OW 1249   1.128   2.897   0.717
  305SOL    HW2 1250   1.054   2.840   0.739
  305SOL    HW3 1251   1.147   2.878   0.626
  305SOL    MW4 1252   1.120   2.887   0.708
  306SOL     OW 1253   1.097   3.148   0.830
  306SOL    HW2 1254   1.031   3.195   0.780
  306SOL    HW3 1255   1.099   3.060   0.791
  306SOL    MW4 1256   1.089   3.142   0.818
  307SOL     OW 1257   0.885   3.253   0.698
  307SOL    HW2 1258   0.899   3.337   0.743
  307SOL    HW3 1259   0.822   3.207   0.752
  307SOL    MW4 1260   0.879   3.258   0.711
  308SOL     OW 1261   0.919   3.487   0.857
  308SOL    HW2 1262   0.993   3.545   0.837
  308SOL    HW3 1263   0.842   3.541   0.841
  308SOL    MW4 1264   0.919   3.502   0.852
  309SOL     OW 1265   1.146   3.620   0.757
  309SOL    HW2 1266   1.227   3.578   0.788
  309SOL    HW3 1267   1.147   3.606   0.662
  309SOL    MW4 1268   1.157   3.612   0.749
  310SOL     OW 1269   1.134   3.902   0.829
  310SOL    HW2 1270   1.141   3.901   0.924
  310SOL    HW3 1271   1.147   3.811   0.803
  310SOL    MW4 1272   1.136   3.890   0.838
  311SOL     OW 1273   0.869   4.014   0.765
  311SOL    HW2 1274   0.888   4.094   0.813
  311SOL    HW3 1275   0.943   3.956   0.784
  311SOL    MW4 1276   0.881   4.017   0.774
  312SOL     OW 1277   0.941   4.260   0.896
  312SOL    HW2 1278   1.010   4.309   0.851
  312SOL    HW3 1279   0.860   4.298   0.861
  312SOL    MW4 1280   0.940   4.272   0.885
  313SOL     OW 1281   1.156   4.362   0.759
  313SOL    HW2 1282   1.238   4.329   0.796
  313SOL    HW3 1283   1.151   4.452   0.789
  313SOL    MW4 1284   1.166   4.369   0.768
  314SOL     OW 1285   1.618   4.638   0.792
  314SOL    HW2 1286   1.605   4.628   0.886
  314SOL    HW3 1287   1.530   4.656   0.758
  314SOL    MW4 1288   1.604   4.639   0.800
  315SOL     OW 1289   1.356   0.087   0.715
  315SOL    HW2 1290   1.368   0.179   0.735
  315SOL    HW3 1291   1.334   0.085   0.621
  315SOL    MW4 1292   1.354   0.099   0.705
  316SOL     OW 1293   1.378   0.323   0.835
  316SOL    HW2 1294   1.364   0.330   0.929
  316SOL    HW3 1295   1.451   0.383   0.817
  316SOL    MW4 1296   1.386   0.332   0.845
  317SOL     OW 1297   1.570   0.507   0.774
  317SOL    HW2 1298   1.575   0.595   0.811
  317SOL    HW3 1299   1.641   0.458   0.817
  317SOL    MW4 1300   1.580   0.512   0.784
  318SOL     OW 1301   1.568   0.777   0.861
  318SOL    HW2 1302   1.636   0.830   0.821
  318SOL    HW3 1303   1.487   0.826   0.847
  318SOL    MW4 1304   1.567   0.790   0.854
  319SOL     OW 1305   1.329   0.899   0.803
  319SOL    HW2 1306   1.321   0.993   0.815
  319SOL    HW3 1307   1.240   0.865   0.815
  319SOL    MW4 1308   1.316   0.907   0.806
  320SOL     OW 1309   1.297   1.207   0.836
  320SOL    HW2 1310   1.384   1.221   0.798
  320SOL    HW3 1311   1.236   1.234   0.767
  320SOL    MW4 1312   1.301   1.212   0.822
  321SOL     OW 1313   1.543   1.273   0.740
  321SOL    HW2 1314   1.558   1.367   0.733
  321SOL    HW3 1315   1.537   1.243   0.649
  321SOL    MW4 1316   1.544   1.281   0.727
  322SOL     OW 1317   1.728   1.638   0.846
  322SOL    HW2 1318   1.675   1.608   0.920
  322SOL    HW3 1319   1.811   1.593   0.856
  322SOL    MW4 1320   1.732   1.628   0.857
  323SOL     OW 1321   1.312   1.692   0.697
  323SOL    HW2 1322   1.333   1.775   0.740
  323SOL    HW3 1323   1.257   1.645   0.760
  323SOL    MW4 1324   1.308   1.696   0.711
  324SOL     OW 1325   1.318   1.939   0.828
  324SOL    HW2 1326   1.352   1.940   0.918
  324SOL    HW3 1327   1.233   1.981   0.834
  324SOL    MW4 1328   1.311   1.944   0.840
  325SOL     OW 1329   1.548   2.060   0.759
  325SOL    HW2 1330   1.466   2.018   0.785
  325SOL    HW3 1331   1.550   2.052   0.663
  325SOL    MW4 1332   1.537   2.054   0.749
  326SOL     OW 1333   1.511   2.310   0.855
  326SOL    HW2 1334   1.428   2.335   0.814
  326SOL    HW3 1335   1.526   2.220   0.825
  326SOL    MW4 1336   1.502   2.301   0.845
  327SOL     OW 1337   1.295   2.428   0.726
  327SOL    HW2 1338   1.322   2.515   0.754
  327SOL    HW3 1339   1.306   2.428   0.631
  327SOL    MW4 1340   1.300   2.439   0.717
  328SOL     OW 1341   1.335   2.696   0.817
  328SOL    HW2 1342   1.324   2.692   0.912
  328SOL    HW3 1343   1.278   2.768   0.790
  328SOL    MW4 1344   1.326   2.705   0.826
  329SOL     OW 1345   1.582   2.784   0.721
  329SOL    HW2 1346   1.579   2.877   0.745
  329SOL    HW3 1347   1.494   2.751   0.741
  329SOL    MW4 1348   1.570   2.792   0.727
  330SOL     OW 1349   1.562   3.052   0.810
  330SOL    HW2 1350   1.565   3.039   0.905
  330SOL    HW3 1351   1.485   3.107   0.795
  330SOL    MW4 1352   1.552   3.058   0.820
  331SOL     OW 1353   1.342   3.222   0.727
  331SOL    HW2 1354   1.252   3.196   0.742
  331SOL    HW3 1355   1.342   3.264   0.641
  331SOL    MW4 1356   1.330   3.224   0.718
  332SOL     OW 1357   1.346   3.479   0.888
  332SOL    HW2 1358   1.431   3.516   0.863
  332SOL    HW3 1359   1.343   3.395   0.843
  332SOL    MW4 1360   1.357   3.473   0.879
  333SOL     OW 1361   1.588   3.587   0.768
  333SOL    HW2 1362   1.666   3.542   0.800
  333SOL    HW3 1363   1.604   3.601   0.674
  333SOL    MW4 1364   1.600   3.583   0.760
  334SOL     OW 1365   1.582   3.876   0.826
  334SOL    HW2 1366   1.507   3.922   0.788
  334SOL    HW3 1367   1.565   3.783   0.810
  334SOL    MW4 1368   1.570   3.870   0.819
  335SOL     OW 1369   1.355   4.024   0.750
  335SOL    HW2 1370   1.276   3.982   0.784
  335SOL    HW3 1371   1.346   4.021   0.655
  335SOL    MW4 1372   1.344   4.018   0.742
  336SOL     OW 1373   1.407   4.271   0.843
  336SOL    HW2 1374   1.476   4.311   0.791
  336SOL    HW3 1375   1.390   4.187   0.800
  336SOL    MW4 1376   1.414   4.265   0.831
  337SOL     OW 1377   1.639   4.373   0.719
  337SOL    HW2 1378   1.675   4.336   0.800
  337SOL    HW3 1379   1.640   4.468   0.734
  337SOL    MW4 1380   1.644   4.381   0.732
  338SOL     OW 1381   1.960   0.088   0.877
  338SOL    HW2 1382   2.045   0.129   0.864
  338SOL    HW3 1383   1.943   0.041   0.795
  338SOL    MW4 1384   1.969   0.087   0.864
  339SOL     OW 1385   1.704   0.214   0.681
  339SOL    HW2 1386   1.677   0.126   0.708
  339SOL    HW3 1387   1.751   0.248   0.757
  339SOL    MW4 1388   1.707   0.207   0.695
  340SOL     OW 1389   1.824   0.345   0.887
  340SOL    HW2 1390   1.854   0.257   0.910
  340SOL    HW3 1391   1.898   0.385   0.841
  340SOL    MW4 1392   1.838   0.339   0.884
  341SOL     OW 1393   1.996   0.483   0.729
  341SOL    HW2 1394   2.002   0.468   0.635
  341SOL    HW3 1395   2.086   0.470   0.761
  341SOL    MW4 1396   2.009   0.479   0.721
  342SOL     OW 1397   2.000   0.763   0.806
  342SOL    HW2 1398   2.071   0.818   0.772
  342SOL    HW3 1399   2.017   0.676   0.770
  342SOL    MW4 1400   2.012   0.759   0.797
  343SOL     OW 1401   1.763   0.931   0.718
  343SOL    HW2 1402   1.782   1.015   0.759
  343SOL    HW3 1403   1.841   0.878   0.735
  343SOL    MW4 1404   1.775   0.935   0.726
  344SOL     OW 1405   1.766   1.180   0.873
  344SOL    HW2 1406   1.834   1.220   0.820
  344SOL    HW3 1407   1.684   1.213   0.837
  344SOL    MW4 1408   1.764   1.189   0.862
  345SOL     OW 1409   1.961   1.258   0.690
  345SOL    HW2 1410   2.050   1.225   0.705
  345SOL    HW3 1411   1.948   1.250   0.596
  345SOL    MW4 1412   1.971   1.252   0.680
  346SOL     OW 1413   1.969   1.495   0.869
  346SOL    HW2 1414   2.047   1.538   0.834
  346SOL    HW3 1415   1.945   1.430   0.803
  346SOL    MW4 1416   1.976   1.492   0.856
  347SOL     OW 1417   1.874   1.658   0.470
  347SOL    HW2 1418   1.857   1.752   0.463
  347SOL    HW3 1419   1.795   1.617   0.436
  347SOL    MW4 1420   1.861   1.665   0.465
  348SOL     OW 1421   1.780   1.911   0.843
  348SOL    HW2 1422   1.741   1.823   0.842
  348SOL    HW3 1423   1.713   1.967   0.805
  348SOL    MW4 1424   1.766   1.906   0.838
  349SOL     OW 1425   1.987   2.013   0.713
  349SOL    HW2 1426   2.001   2.096   0.758
  349SOL    HW3 1427   1.934   1.961   0.773
  349SOL    MW4 1428   1.982   2.018   0.727
  350SOL     OW 1429   1.997   2.254   0.852
  350SOL    HW2 1430   2.021   2.292   0.937
  350SOL    HW3 1431   1.917   2.300   0.827
  350SOL    MW4 1432   1.990   2.265   0.860
  351SOL     OW 1433   1.781   2.411   0.789
  351SOL    HW2 1434   1.695   2.379   0.814
  351SOL    HW3 1435   1.772   2.437   0.697
  351SOL    MW4 1436   1.769   2.410   0.780
  352SOL     OW 1437   1.782   2.666   0.860
  352SOL    HW2 1438   1.772   2.573   0.839
  352SOL    HW3 1439   1.716   2.710   0.807
  352SOL    MW4 1440   1.772   2.659   0.851
  353SOL     OW 1441   1.987   2.750   0.715
  353SOL    HW2 1442   2.066   2.725   0.763
  353SOL    HW3 1443   1.915   2.717   0.768
  353SOL    MW4 1444   1.988   2.742   0.729
  354SOL     OW 1445   2.010   3.016   0.838
  354SOL    HW2 1446   1.937   3.071   0.810
  354SOL    HW3 1447   2.007   2.941   0.779
  354SOL    MW4 1448   2.000   3.013   0.827
  355SOL     OW 1449   1.801   3.170   0.758
  355SOL    HW2 1450   1.714   3.133   0.777
  355SOL    HW3 1451   1.799   3.188   0.665
  355SOL    MW4 1452   1.789   3.168   0.749
  356SOL     OW 1453   1.814   3.462   0.855
  356SOL    HW2 1454   1.790   3.454   0.947
  356SOL    HW3 1455   1.847   3.376   0.831
  356SOL    MW4 1456   1.815   3.450   0.864
  357SOL     OW 1457   1.999   3.624   0.718
  357SOL    HW2 1458   2.007   3.709   0.763
  357SOL    HW3 1459   1.955   3.568   0.782
  357SOL    MW4 1460   1.994   3.628   0.733
  358SOL     OW 1461   2.025   3.859   0.872
  358SOL    HW2 1462   2.024   3.870   0.967
  358SOL    HW3 1463   1.957   3.919   0.841
  358SOL    MW4 1464   2.016   3.868   0.881
  359SOL     OW 1465   1.826   4.027   0.800
  359SOL    HW2 1466   1.755   3.976   0.839
  359SOL    HW3 1467   1.805   4.030   0.706
  359SOL    MW4 1468   1.814   4.020   0.792
  360SOL     OW 1469   1.805   4.283   0.911
  360SOL    HW2 1470   1.804   4.289   1.007
  360SOL    HW3 1471   1.817   4.189   0.894
  360SOL    MW4 1472   1.807   4.271   0.922
  361SOL     OW 1473   1.978   4.322   0.702
  361SOL    HW2 1474   1.902   4.316   0.760
  361SOL    HW3 1475   1.949   4.284   0.619
  361SOL    MW4 1476   1.964   4.316   0.699
  362SOL     OW 1477   2.475   0.045   0.822
  362SOL    HW2 1478   2.479   0.025   0.915
  362SOL    HW3 1479   2.544   0.110   0.808
  362SOL    MW4 1480   2.485   0.051   0.832
  363SOL     OW 1481   2.223   0.177   0.790
  363SOL    HW2 1482   2.298   0.119   0.796
  363SOL    HW3 1483   2.207   0.186   0.696
  363SOL    MW4 1484   2.230   0.171   0.778
  364SOL     OW 1485   2.261   0.444   0.810
  364SOL    HW2 1486   2.353   0.458   0.786
  364SOL    HW3 1487   2.252   0.349   0.818
  364SOL    MW4 1488   2.272   0.434   0.808
  365SOL     OW 1489   2.511   0.529   0.707
  365SOL    HW2 1490   2.509   0.475   0.629
  365SOL    HW3 1491   2.577   0.489   0.763
  365SOL    MW4 1492   2.519   0.517   0.704
  366SOL     OW 1493   2.456   0.791   0.834
  366SOL    HW2 1494   2.536   0.838   0.811
  366SOL    HW3 1495   2.460   0.710   0.783
  366SOL    MW4 1496   2.467   0.787   0.824
  367SOL     OW 1497   2.220   0.894   0.707
  367SOL    HW2 1498   2.292   0.841   0.742
  367SOL    HW3 1499   2.245   0.911   0.616
  367SOL    MW4 1500   2.233   0.889   0.699
  368SOL     OW 1501   2.210   1.169   0.783
  368SOL    HW2 1502   2.210   1.184   0.877
  368SOL    HW3 1503   2.224   1.075   0.774
  368SOL    MW4 1504   2.212   1.158   0.794
  369SOL     OW 1505   2.472   1.279   0.737
  369SOL    HW2 1506   2.388   1.242   0.762
  369SOL    HW3 1507   2.453   1.333   0.661
  369SOL    MW4 1508   2.459   1.281   0.730
  370SOL     OW 1509   2.455   1.518   0.868
  370SOL    HW2 1510   2.526   1.571   0.831
  370SOL    HW3 1511   2.453   1.439   0.814
  370SOL    MW4 1512   2.464   1.515   0.856
  371SOL     OW 1513   2.202   1.644   0.799
  371SOL    HW2 1514   2.293   1.617   0.815
  371SOL    HW3 1515   2.190   1.633   0.705
  371SOL    MW4 1516   2.213   1.639   0.789
  372SOL     OW 1517   2.218   1.914   0.846
  372SOL    HW2 1518   2.196   1.822   0.831
  372SOL    HW3 1519   2.143   1.962   0.811
  372SOL    MW4 1520   2.205   1.908   0.839
  373SOL     OW 1521   2.444   2.006   0.730
  373SOL    HW2 1522   2.372   1.959   0.772
  373SOL    HW3 1523   2.424   2.002   0.637
  373SOL    MW4 1524   2.432   1.999   0.723
  374SOL     OW 1525   2.424   2.282   0.822
  374SOL    HW2 1526   2.497   2.336   0.793
  374SOL    HW3 1527   2.442   2.195   0.784
  374SOL    MW4 1528   2.436   2.277   0.813
  375SOL     OW 1529   2.187   2.446   0.763
  375SOL    HW2 1530   2.265   2.395   0.787
  375SOL    HW3 1531   2.114   2.393   0.795
  375SOL    MW4 1532   2.188   2.432   0.771
  376SOL     OW 1533   2.225   2.709   0.827
  376SOL    HW2 1534   2.235   2.716   0.922
  376SOL    HW3 1535   2.221   2.615   0.810
  376SOL    MW4 1536   2.226   2.698   0.837
  377SOL     OW 1537   2.468   2.828   0.748
  377SOL    HW2 1538   2.530   2.796   0.813
  377SOL    HW3 1539   2.386   2.782   0.768
  377SOL    MW4 1540   2.465   2.818   0.759
  378SOL     OW 1541   2.407   3.093   0.862
  378SOL    HW2 1542   2.421   3.081   0.956
  378SOL    HW3 1543   2.409   3.004   0.826
  378SOL    MW4 1544   2.409   3.080   0.870
  379SOL     OW 1545   2.194   3.218   0.763
  379SOL    HW2 1546   2.134   3.143   0.770
  379SOL    HW3 1547   2.279   3.181   0.787
  379SOL    MW4 1548   2.197   3.203   0.767
  380SOL     OW 1549   2.225   3.498   0.846
  380SOL    HW2 1550   2.208   3.406   0.822
  380SOL    HW3 1551   2.167   3.548   0.788
  380SOL    MW4 1552   2.215   3.492   0.835
  381SOL     OW 1553   2.481   3.611   0.794
  381SOL    HW2 1554   2.555   3.557   0.819
  381SOL    HW3 1555   2.404   3.561   0.821
  381SOL    MW4 1556   2.481   3.597   0.801
  382SOL     OW 1557   2.499   3.885   0.899
  382SOL    HW2 1558   2.427   3.935   0.862
  382SOL    HW3 1559   2.489   3.797   0.862
  382SOL    MW4 1560   2.488   3.880   0.889
  383SOL     OW 1561   2.278   4.018   0.809
  383SOL    HW2 1562   2.203   3.968   0.840
  383SOL    HW3 1563   2.283   4.000   0.715
  383SOL    MW4 1564   2.269   4.009   0.801
  384SOL     OW 1565   2.215   4.284   0.850
  384SOL    HW2 1566   2.234   4.190   0.853
  384SOL    HW3 1567   2.129   4.289   0.807
  384SOL    MW4 1568   2.206   4.272   0.845
  385SOL     OW 1569   2.392   4.460   0.693
  385SOL    HW2 1570   2.427   4.539   0.732
  385SOL    HW3 1571   2.374   4.402   0.767
  385SOL    MW4 1572   2.394   4.463   0.708
  386SOL     OW 1573   2.897   0.010   0.856
  386SOL    HW2 1574   2.883  -0.076   0.818
  386SOL    HW3 1575   2.824   0.063   0.824
  386SOL    MW4 1576   2.885   0.006   0.847
  387SOL     OW 1577   2.675   4.591   0.577
  387SOL    HW2 1578   2.658   4.682   0.553
  387SOL    HW3 1579   2.759   4.570   0.535
  387SOL    MW4 1580   2.684   4.600   0.568
  388SOL     OW 1581   2.705   0.435   0.854
  388SOL    HW2 1582   2.686   0.423   0.947
  388SOL    HW3 1583   2.789   0.480   0.852
  388SOL    MW4 1584   2.713   0.439   0.866
  389SOL     OW 1585   2.947   0.589   0.758
  389SOL    HW2 1586   3.016   0.535   0.796
  389SOL    HW3 1587   2.969   0.594   0.665
  389SOL    MW4 1588   2.959   0.583   0.750
  390SOL     OW 1589   2.966   0.825   0.894
  390SOL    HW2 1590   2.935   0.805   0.982
  390SOL    HW3 1591   2.960   0.741   0.847
  390SOL    MW4 1592   2.961   0.811   0.899
  391SOL     OW 1593   2.706   0.921   0.770
  391SOL    HW2 1594   2.787   0.891   0.811
  391SOL    HW3 1595   2.730   0.938   0.679
  391SOL    MW4 1596   2.720   0.920   0.764
  392SOL     OW 1597   2.671   1.161   0.910
  392SOL    HW2 1598   2.683   1.077   0.865
  392SOL    HW3 1599   2.593   1.198   0.871
  392SOL    MW4 1600   2.663   1.155   0.899
  393SOL     OW 1601   2.933   1.297   0.861
  393SOL    HW2 1602   3.002   1.244   0.902
  393SOL    HW3 1603   2.851   1.255   0.885
  393SOL    MW4 1604   2.932   1.285   0.869
  394SOL     OW 1605   2.889   1.592   0.899
  394SOL    HW2 1606   2.969   1.635   0.869
  394SOL    HW3 1607   2.909   1.498   0.892
  394SOL    MW4 1608   2.902   1.585   0.894
  395SOL     OW 1609   2.673   1.687   0.780
  395SOL    HW2 1610   2.689   1.781   0.787
  395SOL    HW3 1611   2.751   1.646   0.817
  395SOL    MW4 1612   2.685   1.694   0.786
  396SOL     OW 1613   2.701   1.963   0.802
  396SOL    HW2 1614   2.710   1.962   0.897
  396SOL    HW3 1615   2.607   1.971   0.787
  396SOL    MW4 1616   2.690   1.964   0.812
  397SOL     OW 1617   2.855   2.130   0.664
  397SOL    HW2 1618   2.837   2.215   0.705
  397SOL    HW3 1619   2.814   2.067   0.722
  397SOL    MW4 1620   2.847   2.133   0.677
  398SOL     OW 1621   2.848   2.366   0.821
  398SOL    HW2 1622   2.859   2.342   0.913
  398SOL    HW3 1623   2.760   2.402   0.816
  398SOL    MW4 1624   2.838   2.367   0.832
  399SOL     OW 1625   2.610   2.486   0.776
  399SOL    HW2 1626   2.583   2.530   0.695
  399SOL    HW3 1627   2.637   2.557   0.834
  399SOL    MW4 1628   2.610   2.501   0.773
  400SOL     OW 1629   2.672   2.751   0.932
  400SOL    HW2 1630   2.684   2.726   1.023
  400SOL    HW3 1631   2.756   2.788   0.906
  400SOL    MW4 1632   2.685   2.753   0.941
  401SOL     OW 1633   2.881   2.817   0.526
  401SOL    HW2 1634   2.898   2.740   0.471
  401SOL    HW3 1635   2.790   2.838   0.510
  401SOL    MW4 1636   2.871   2.809   0.516
  402SOL     OW 1637   2.919   3.090   0.912
  402SOL    HW2 1638   2.836   3.127   0.881
  402SOL    HW3 1639   2.917   2.999   0.881
  402SOL    MW4 1640   2.907   3.083   0.904
  403SOL     OW 1641   2.676   3.184   0.810
  403SOL    HW2 1642   2.682   3.279   0.826
  403SOL    HW3 1643   2.587   3.161   0.836
  403SOL    MW4 1644   2.665   3.194   0.816
  404SOL     OW 1645   2.706   3.461   0.889
  404SOL    HW2 1646   2.707   3.474   0.983
  404SOL    HW3 1647   2.780   3.511   0.856
  404SOL    MW4 1648   2.716   3.469   0.897
  405SOL     OW 1649   2.932   3.632   0.817
  405SOL    HW2 1650   2.938   3.727   0.825
  405SOL    HW3 1651   2.918   3.616   0.724
  405SOL    MW4 1652   2.931   3.642   0.806
  406SOL     OW 1653   2.935   3.909   0.839
  406SOL    HW2 1654   2.944   3.903   0.934
  406SOL    HW3 1655   2.857   3.964   0.827
  406SOL    MW4 1656   2.926   3.916   0.850
  407SOL     OW 1657   2.691   4.009   0.738
  407SOL    HW2 1658   2.634   3.950   0.787
  407SOL    HW3 1659   2.697   3.969   0.651
  407SOL    MW4 1660   2.685   3.996   0.733
  408SOL     OW 1661   2.664   4.266   0.801
  408SOL    HW2 1662   2.678   4.268   0.896
  408SOL    HW3 1663   2.659   4.173   0.779
  408SOL    MW4 1664   2.665   4.254   0.810
  409SOL     OW 1665   2.925   4.400   0.746
  409SOL    HW2 1666   3.001   4.357   0.784
  409SOL    HW3 1667   2.852   4.340   0.762
  409SOL    MW4 1668   2.925   4.386   0.753
  410SOL     OW 1669   3.354   0.017   0.840
  410SOL    HW2 1670   3.368   0.020   0.935
  410SOL    HW3 1671   3.284   0.081   0.825
  410SOL    MW4 1672   3.346   0.026   0.851
  411SOL     OW 1673   3.137   0.162   0.765
  411SOL    HW2 1674   3.140   0.248   0.807
  411SOL    HW3 1675   3.070   0.114   0.812
  411SOL    MW4 1676   3.129   0.167   0.777
  412SOL     OW 1677   3.126   0.412   0.875
  412SOL    HW2 1678   3.137   0.412   0.970
  412SOL    HW3 1679   3.201   0.462   0.842
  412SOL    MW4 1680   3.137   0.418   0.883
  413SOL     OW 1681   3.347   0.552   0.777
  413SOL    HW2 1682   3.415   0.485   0.774
  413SOL    HW3 1683   3.323   0.565   0.685
  413SOL    MW4 1684   3.353   0.545   0.764
  414SOL     OW 1685   3.397   0.795   0.891
  414SOL    HW2 1686   3.331   0.850   0.850
  414SOL    HW3 1687   3.387   0.709   0.849
  414SOL    MW4 1688   3.387   0.791   0.880
  415SOL     OW 1689   3.185   0.949   0.768
  415SOL    HW2 1690   3.202   1.032   0.812
  415SOL    HW3 1691   3.110   0.912   0.813
  415SOL    MW4 1692   3.177   0.955   0.780
  416SOL     OW 1693   3.196   1.186   0.925
  416SOL    HW2 1694   3.192   1.187   1.021
  416SOL    HW3 1695   3.223   1.275   0.901
  416SOL    MW4 1696   3.199   1.198   0.935
  417SOL     OW 1697   3.474   1.227   0.680
  417SOL    HW2 1698   3.528   1.185   0.747
  417SOL    HW3 1699   3.466   1.318   0.709
  417SOL    MW4 1700   3.480   1.234   0.693
  418SOL     OW 1701   3.254   1.466   0.871
  418SOL    HW2 1702   3.290   1.487   0.957
  418SOL    HW3 1703   3.326   1.483   0.810
  418SOL    MW4 1704   3.268   1.471   0.874
  419SOL     OW 1705   3.119   1.688   0.784
  419SOL    HW2 1706   3.173   1.611   0.804
  419SOL    HW3 1707   3.118   1.691   0.688
  419SOL    MW4 1708   3.126   1.678   0.774
  420SOL     OW 1709   3.204   1.944   0.869
  420SOL    HW2 1710   3.170   1.950   0.958
  420SOL    HW3 1711   3.176   1.857   0.838
  420SOL    MW4 1712   3.196   1.933   0.877
  421SOL     OW 1713   3.481   1.951   0.878
  421SOL    HW2 1714   3.490   2.047   0.880
  421SOL    HW3 1715   3.387   1.936   0.885
  421SOL    MW4 1716   3.470   1.962   0.879
  422SOL     OW 1717   3.456   2.251   0.880
  422SOL    HW2 1718   3.432   2.280   0.968
  422SOL    HW3 1719   3.541   2.292   0.863
  422SOL    MW4 1720   3.464   2.260   0.889
  423SOL     OW 1721   3.056   2.482   0.697
  423SOL    HW2 1722   3.125   2.416   0.698
  423SOL    HW3 1723   2.983   2.441   0.743
  423SOL    MW4 1724   3.056   2.468   0.703
  424SOL     OW 1725   3.143   2.682   0.845
  424SOL    HW2 1726   3.110   2.613   0.789
  424SOL    HW3 1727   3.205   2.730   0.791
  424SOL    MW4 1728   3.147   2.679   0.831
  425SOL     OW 1729   3.311   2.853   0.679
  425SOL    HW2 1730   3.242   2.837   0.615
  425SOL    HW3 1731   3.388   2.810   0.642
  425SOL    MW4 1732   3.312   2.845   0.666
  426SOL     OW 1733   3.351   3.103   0.823
  426SOL    HW2 1734   3.350   3.096   0.918
  426SOL    HW3 1735   3.342   3.013   0.791
  426SOL    MW4 1736   3.350   3.091   0.831
  427SOL     OW 1737   3.109   3.240   0.754
  427SOL    HW2 1738   3.192   3.197   0.776
  427SOL    HW3 1739   3.043   3.191   0.803
  427SOL    MW4 1740   3.111   3.228   0.763
  428SOL     OW 1741   3.166   3.502   0.883
  428SOL    HW2 1742   3.143   3.415   0.849
  428SOL    HW3 1743   3.084   3.551   0.879
  428SOL    MW4 1744   3.152   3.497   0.878
  429SOL     OW 1745   3.416   3.847   0.658
  429SOL    HW2 1746   3.462   3.883   0.734
  429SOL    HW3 1747   3.398   3.756   0.682
  429SOL    MW4 1748   3.420   3.840   0.671
  430SOL     OW 1749   3.526   3.972   0.872
  430SOL    HW2 1750   3.536   4.067   0.865
  430SOL    HW3 1751   3.468   3.959   0.947
  430SOL    MW4 1752   3.520   3.983   0.881
  431SOL     OW 1753   3.183   4.009   0.736
  431SOL    HW2 1754   3.242   3.934   0.738
  431SOL    HW3 1755   3.101   3.976   0.773
  431SOL    MW4 1756   3.179   3.995   0.741
  432SOL     OW 1757   3.132   4.260   0.846
  432SOL    HW2 1758   3.195   4.319   0.804
  432SOL    HW3 1759   3.140   4.178   0.798
  432SOL    MW4 1760   3.141   4.257   0.834
  433SOL     OW 1761   3.365   4.407   0.764
  433SOL    HW2 1762   3.370   4.493   0.805
  433SOL    HW3 1763   3.384   4.423   0.672
  433SOL    MW4 1764   3.368   4.421   0.758
  434SOL     OW 1765   3.802   4.590   0.831
  434SOL    HW2 1766   3.887   4.616   0.795
  434SOL    HW3 1767   3.741   4.656   0.799
  434SOL    MW4 1768   3.805   4.602   0.822
  435SOL     OW 1769   3.609   0.092   0.744
  435SOL    HW2 1770   3.524   0.069   0.781
  435SOL    HW3 1771   3.592   0.108   0.651
  435SOL    MW4 1772   3.596   0.091   0.737
  436SOL     OW 1773   3.571   0.379   0.801
  436SOL    HW2 1774   3.581   0.388   0.896
  436SOL    HW3 1775   3.575   0.285   0.786
  436SOL    MW4 1776   3.573   0.368   0.812
  437SOL     OW 1777   3.799   0.518   0.701
  437SOL    HW2 1778   3.806   0.593   0.760
  437SOL    HW3 1779   3.719   0.473   0.728
  437SOL    MW4 1780   3.790   0.522   0.713
  438SOL     OW 1781   3.818   0.736   0.865
  438SOL    HW2 1782   3.808   0.746   0.960
  438SOL    HW3 1783   3.891   0.794   0.842
  438SOL    MW4 1784   3.826   0.745   0.874
  439SOL     OW 1785   3.613   0.864   0.723
  439SOL    HW2 1786   3.679   0.806   0.762
  439SOL    HW3 1787   3.538   0.859   0.783
  439SOL    MW4 1788   3.612   0.856   0.736
  440SOL     OW 1789   3.676   1.121   0.877
  440SOL    HW2 1790   3.664   1.115   0.972
  440SOL    HW3 1791   3.674   1.030   0.847
  440SOL    MW4 1792   3.674   1.108   0.885
  441SOL     OW 1793   3.855   1.287   0.765
  441SOL    HW2 1794   3.795   1.216   0.787
  441SOL    HW3 1795   3.867   1.281   0.670
  441SOL    MW4 1796   3.849   1.277   0.756
  442SOL     OW 1797   3.834   1.563   0.843
  442SOL    HW2 1798   3.925   1.591   0.832
  442SOL    HW3 1799   3.831   1.476   0.804
  442SOL    MW4 1800   3.846   1.555   0.836
  443SOL     OW 1801   3.476   1.541   0.662
  443SOL    HW2 1802   3.445   1.585   0.583
  443SOL    HW3 1803   3.542   1.601   0.698
  443SOL    MW4 1804   3.480   1.555   0.657
  444SOL     OW 1805   3.639   1.741   0.753
  444SOL    HW2 1806   3.706   1.688   0.796
  444SOL    HW3 1807   3.617   1.808   0.818
  444SOL    MW4 1808   3.645   1.743   0.767
  445SOL     OW 1809   3.859   2.190   0.676
  445SOL    HW2 1810   3.811   2.246   0.737
  445SOL    HW3 1811   3.893   2.119   0.731
  445SOL    MW4 1812   3.857   2.188   0.691
  446SOL     OW 1813   3.697   2.124   0.436
  446SOL    HW2 1814   3.620   2.077   0.467
  446SOL    HW3 1815   3.755   2.129   0.512
  446SOL    MW4 1816   3.694   2.119   0.450
  447SOL     OW 1817   3.717   2.358   0.849
  447SOL    HW2 1818   3.712   2.453   0.833
  447SOL    HW3 1819   3.750   2.351   0.939
  447SOL    MW4 1820   3.720   2.370   0.859
  448SOL     OW 1821   3.656   2.652   0.813
  448SOL    HW2 1822   3.646   2.677   0.905
  448SOL    HW3 1823   3.719   2.715   0.778
  448SOL    MW4 1824   3.663   2.663   0.821
  449SOL     OW 1825   3.864   2.820   0.705
  449SOL    HW2 1826   3.850   2.904   0.748
  449SOL    HW3 1827   3.896   2.843   0.618
  449SOL    MW4 1828   3.866   2.834   0.699
  450SOL     OW 1829   3.845   3.073   0.802
  450SOL    HW2 1830   3.910   3.137   0.773
  450SOL    HW3 1831   3.763   3.123   0.804
  450SOL    MW4 1832   3.843   3.088   0.798
  451SOL     OW 1833   3.622   3.237   0.791
  451SOL    HW2 1834   3.537   3.197   0.806
  451SOL    HW3 1835   3.624   3.255   0.697
  451SOL    MW4 1836   3.611   3.234   0.781
  452SOL     OW 1837   3.574   3.478   0.889
  452SOL    HW2 1838   3.594   3.388   0.861
  452SOL    HW3 1839   3.499   3.503   0.835
  452SOL    MW4 1840   3.567   3.469   0.878
  453SOL     OW 1841   3.798   3.609   0.766
  453SOL    HW2 1842   3.880   3.561   0.779
  453SOL    HW3 1843   3.731   3.556   0.808
  453SOL    MW4 1844   3.800   3.596   0.773
  454SOL     OW 1845   3.809   3.873   0.858
  454SOL    HW2 1846   3.719   3.895   0.881
  454SOL    HW3 1847   3.805   3.781   0.833
  454SOL    MW4 1848   3.797   3.864   0.858
  455SOL     OW 1849   3.276   4.089   0.316
  455SOL    HW2 1850   3.300   4.048   0.233
  455SOL    HW3 1851   3.355   4.083   0.370
  455SOL    MW4 1852   3.289   4.083   0.312
  456SOL     OW 1853   3.567   4.230   0.865
  456SOL    HW2 1854   3.640   4.253   0.807
  456SOL    HW3 1855   3.492   4.278   0.829
  456SOL    MW4 1856   3.567   4.240   0.852
  457SOL     OW 1857   3.802   4.331   0.728
  457SOL    HW2 1858   3.891   4.298   0.737
  457SOL    HW3 1859   3.805   4.419   0.764
  457SOL    MW4 1860   3.814   4.338   0.734
  458SOL     OW 1861   4.268   4.652   0.844
  458SOL    HW2 1862   4.273   4.627   0.936
  458SOL    HW3 1863   4.183   4.695   0.835
  458SOL    MW4 1864   4.257   4.654   0.855
  459SOL     OW 1865   4.021   0.100   0.739
  459SOL    HW2 1866   3.995   0.185   0.772
  459SOL    HW3 1867   4.017   0.109   0.643
  459SOL    MW4 1868   4.017   0.112   0.730
  460SOL     OW 1869   3.997   0.350   0.837
  460SOL    HW2 1870   4.078   0.390   0.806
  460SOL    HW3 1871   3.927   0.406   0.802
  460SOL    MW4 1872   3.998   0.363   0.829
  461SOL     OW 1873   4.231   0.478   0.751
  461SOL    HW2 1874   4.320   0.452   0.775
  461SOL    HW3 1875   4.225   0.459   0.658
  461SOL    MW4 1876   4.242   0.472   0.742
  462SOL     OW 1877   4.224   0.735   0.863
  462SOL    HW2 1878   4.164   0.797   0.822
  462SOL    HW3 1879   4.210   0.653   0.815
  462SOL    MW4 1880   4.214   0.733   0.851
  463SOL     OW 1881   4.022   0.911   0.776
  463SOL    HW2 1882   4.038   0.995   0.820
  463SOL    HW3 1883   3.996   0.935   0.688
  463SOL    MW4 1884   4.021   0.925   0.770
  464SOL     OW 1885   4.077   1.168   0.871
  464SOL    HW2 1886   4.065   1.160   0.966
  464SOL    HW3 1887   3.999   1.214   0.840
  464SOL    MW4 1888   4.065   1.173   0.879
  465SOL     OW 1889   4.281   1.322   0.773
  465SOL    HW2 1890   4.204   1.276   0.806
  465SOL    HW3 1891   4.351   1.258   0.777
  465SOL    MW4 1892   4.280   1.308   0.778
  466SOL     OW 1893   4.269   1.571   0.892
  466SOL    HW2 1894   4.262   1.548   0.984
  466SOL    HW3 1895   4.280   1.486   0.848
  466SOL    MW4 1896   4.269   1.556   0.898
  467SOL     OW 1897   4.073   1.756   0.809
  467SOL    HW2 1898   4.136   1.703   0.857
  467SOL    HW3 1899   4.092   1.740   0.717
  467SOL    MW4 1900   4.084   1.747   0.803
  468SOL     OW 1901   4.029   2.034   0.837
  468SOL    HW2 1902   4.038   1.940   0.820
  468SOL    HW3 1903   4.119   2.066   0.838
  468SOL    MW4 1904   4.042   2.026   0.835
  469SOL     OW 1905   4.299   2.084   0.808
  469SOL    HW2 1906   4.369   2.019   0.817
  469SOL    HW3 1907   4.295   2.101   0.714
  469SOL    MW4 1908   4.308   2.078   0.797
  470SOL     OW 1909   4.311   2.340   0.904
  470SOL    HW2 1910   4.247   2.388   0.851
  470SOL    HW3 1911   4.307   2.250   0.870
  470SOL    MW4 1912   4.302   2.334   0.892
  471SOL     OW 1913   4.125   2.482   0.755
  471SOL    HW2 1914   4.079   2.545   0.812
  471SOL    HW3 1915   4.061   2.461   0.687
  471SOL    MW4 1916   4.110   2.488   0.754
  472SOL     OW 1917   4.051   2.737   0.899
  472SOL    HW2 1918   4.136   2.753   0.859
  472SOL    HW3 1919   3.987   2.752   0.829
  472SOL    MW4 1920   4.054   2.741   0.885
  473SOL     OW 1921   4.281   2.845   0.748
  473SOL    HW2 1922   4.365   2.802   0.766
  473SOL    HW3 1923   4.273   2.844   0.653
  473SOL    MW4 1924   4.291   2.840   0.738
  474SOL     OW 1925   4.250   3.127   0.749
  474SOL    HW2 1926   4.260   3.032   0.750
  474SOL    HW3 1927   4.339   3.161   0.742
  474SOL    MW4 1928   4.263   3.119   0.748
  475SOL     OW 1929   4.006   3.257   0.674
  475SOL    HW2 1930   4.000   3.331   0.735
  475SOL    HW3 1931   4.087   3.212   0.699
  475SOL    MW4 1932   4.016   3.261   0.686
  476SOL     OW 1933   4.043   3.483   0.823
  476SOL    HW2 1934   4.057   3.475   0.917
  476SOL    HW3 1935   4.127   3.517   0.790
  476SOL    MW4 1936   4.056   3.487   0.831
  477SOL     OW 1937   4.289   3.588   0.784
  477SOL    HW2 1938   4.267   3.672   0.822
  477SOL    HW3 1939   4.308   3.608   0.692
  477SOL    MW4 1940   4.289   3.602   0.777
  478SOL     OW 1941   4.262   3.874   0.850
  478SOL    HW2 1942   4.243   3.870   0.944
  478SOL    HW3 1943   4.182   3.910   0.812
  478SOL    MW4 1944   4.249   3.878   0.858
  479SOL     OW 1945   4.030   3.991   0.752
  479SOL    HW2 1946   3.960   3.941   0.795
  479SOL    HW3 1947   4.020   3.971   0.659
  479SOL    MW4 1948   4.019   3.982   0.745
  480SOL     OW 1949   4.050   4.246   0.838
  480SOL    HW2 1950   4.125   4.291   0.798
  480SOL    HW3 1951   4.053   4.158   0.801
  480SOL    MW4 1952   4.060   4.240   0.828
  481SOL     OW 1953   4.265   4.380   0.738
  481SOL    HW2 1954   4.242   4.468   0.768
  481SOL    HW3 1955   4.350   4.362   0.780
  481SOL    MW4 1956   4.274   4.389   0.747
  482SOL     OW 1957   0.251   4.623   1.149
  482SOL    HW2 1958   0.325   4.680   1.173
  482SOL    HW3 1959   0.240   4.638   1.055
  482SOL    MW4 1960   0.260   4.633   1.139
  483SOL     OW 1961   0.034   0.093   1.233
  483SOL    HW2 1962  -0.037   0.045   1.190
  483SOL    HW3 1963   0.113   0.042   1.214
  483SOL    MW4 1964   0.036   0.080   1.225
  484SOL     OW 1965   0.006   0.336   1.112
  484SOL    HW2 1966  -0.078   0.361   1.152
  484SOL    HW3 1967   0.024   0.249   1.147
  484SOL    MW4 1968  -0.003   0.328   1.122
  485SOL     OW 1969   0.231   0.439   1.244
  485SOL    HW2 1970   0.230   0.529   1.211
  485SOL    HW3 1971   0.150   0.401   1.210
  485SOL    MW4 1972   0.220   0.446   1.235
  486SOL     OW 1973   0.233   0.708   1.153
  486SOL    HW2 1974   0.315   0.745   1.186
  486SOL    HW3 1975   0.167   0.774   1.172
  486SOL    MW4 1976   0.235   0.721   1.160
  487SOL     OW 1977   0.023   0.896   1.198
  487SOL    HW2 1978   0.026   0.896   1.294
  487SOL    HW3 1979  -0.052   0.840   1.176
  487SOL    MW4 1980   0.013   0.889   1.208
  488SOL     OW 1981   4.487   1.147   1.103
  488SOL    HW2 1982   4.408   1.179   1.147
  488SOL    HW3 1983   4.497   1.057   1.133
  488SOL    MW4 1984   4.478   1.140   1.113
  489SOL     OW 1985   0.203   1.251   1.249
  489SOL    HW2 1986   0.275   1.194   1.223
  489SOL    HW3 1987   0.128   1.218   1.200
  489SOL    MW4 1988   0.203   1.239   1.239
  490SOL     OW 1989   0.238   1.524   1.139
  490SOL    HW2 1990   0.228   1.442   1.188
  490SOL    HW3 1991   0.236   1.497   1.047
  490SOL    MW4 1992   0.236   1.509   1.133
  491SOL     OW 1993   4.487   1.669   1.250
  491SOL    HW2 1994   4.495   1.756   1.211
  491SOL    HW3 1995   4.560   1.620   1.212
  491SOL    MW4 1996   4.498   1.674   1.240
  492SOL     OW 1997   4.489   1.927   1.129
  492SOL    HW2 1998   4.415   1.983   1.154
  492SOL    HW3 1999   4.485   1.922   1.034
  492SOL    MW4 2000   4.479   1.934   1.120
  493SOL     OW 2001   0.230   2.019   1.235
  493SOL    HW2 2002   0.227   2.114   1.224
  493SOL    HW3 2003   0.154   1.987   1.187
  493SOL    MW4 2004   0.219   2.028   1.227
  494SOL     OW 2005   0.185   2.299   1.191
  494SOL    HW2 2006   0.255   2.364   1.193
  494SOL    HW3 2007   0.105   2.349   1.203
  494SOL    MW4 2008   0.184   2.314   1.193
  495SOL     OW 2009   4.442   2.450   1.231
  495SOL    HW2 2010   4.452   2.454   1.326
  495SOL    HW3 2011   4.369   2.390   1.217
  495SOL    MW4 2012   4.434   2.443   1.241
  496SOL     OW 2013   4.482   2.689   1.109
  496SOL    HW2 2014   4.403   2.736   1.136
  496SOL    HW3 2015   4.475   2.604   1.154
  496SOL    MW4 2016   4.470   2.684   1.118
  497SOL     OW 2017   0.207   2.815   1.233
  497SOL    HW2 2018   0.211   2.812   1.328
  497SOL    HW3 2019   0.137   2.754   1.210
  497SOL    MW4 2020   0.198   2.807   1.242
  498SOL     OW 2021   0.211   3.075   1.128
  498SOL    HW2 2022   0.284   3.119   1.171
  498SOL    HW3 2023   0.201   2.993   1.175
  498SOL    MW4 2024   0.219   3.070   1.140
  499SOL     OW 2025   4.468   3.176   1.233
  499SOL    HW2 2026   4.402   3.134   1.177
  499SOL    HW3 2027   4.552   3.154   1.193
  499SOL    MW4 2028   4.470   3.167   1.221
  500SOL     OW 2029   4.490   3.422   1.141
  500SOL    HW2 2030   4.481   3.329   1.161
  500SOL    HW3 2031   4.485   3.427   1.046
  500SOL    MW4 2032   4.488   3.410   1.131
  501SOL     OW 2033   0.183   3.605   1.262
  501SOL    HW2 2034   0.188   3.625   1.356
  501SOL    HW3 2035   0.115   3.538   1.255
  501SOL    MW4 2036   0.175   3.599   1.274
  502SOL     OW 2037   0.209   3.856   1.133
  502SOL    HW2 2038   0.130   3.902   1.160
  502SOL    HW3 2039   0.197   3.767   1.167
  502SOL    MW4 2040   0.197   3.850   1.141
  503SOL     OW 2041   4.473   4.010   1.205
  503SOL    HW2 2042   4.457   4.000   1.299
  503SOL    HW3 2043   4.415   3.946   1.164
  503SOL    MW4 2044   4.464   4.000   1.212
  504SOL     OW 2045   4.447   4.285   1.137
  504SOL    HW2 2046   4.528   4.322   1.173
  504SOL    HW3 2047   4.452   4.191   1.155
  504SOL    MW4 2048   4.458   4.277   1.144
  505SOL     OW 2049   0.196   4.373   1.270
  505SOL    HW2 2050   0.222   4.346   1.358
  505SOL    HW3 2051   0.223   4.465   1.264
  505SOL    MW4 2052   0.203   4.381   1.281
  506SOL     OW 2053   0.694   4.624   1.111
  506SOL    HW2 2054   0.769   4.667   1.153
  506SOL    HW3 2055   0.670   4.554   1.172
  506SOL    MW4 2056   0.701   4.620   1.125
  507SOL     OW 2057   0.482   0.092   1.237
  507SOL    HW2 2058   0.484   0.182   1.204
  507SOL    HW3 2059   0.561   0.052   1.199
  507SOL    MW4 2060   0.493   0.099   1.227
  508SOL     OW 2061   0.488   0.354   1.189
  508SOL    HW2 2062   0.397   0.375   1.207
  508SOL    HW3 2063   0.495   0.353   1.093
  508SOL    MW4 2064   0.477   0.356   1.179
  509SOL     OW 2065   0.720   0.494   1.241
  509SOL    HW2 2066   0.704   0.579   1.200
  509SOL    HW3 2067   0.635   0.450   1.238
  509SOL    MW4 2068   0.706   0.499   1.235
  510SOL     OW 2069   0.659   0.727   1.111
  510SOL    HW2 2070   0.577   0.768   1.139
  510SOL    HW3 2071   0.660   0.739   1.016
  510SOL    MW4 2072   0.648   0.734   1.102
  511SOL     OW 2073   0.446   0.852   1.232
  511SOL    HW2 2074   0.440   0.863   1.327
  511SOL    HW3 2075   0.432   0.941   1.198
  511SOL    MW4 2076   0.444   0.865   1.240
  512SOL     OW 2077   0.419   1.113   1.160
  512SOL    HW2 2078   0.496   1.160   1.193
  512SOL    HW3 2079   0.428   1.116   1.065
  512SOL    MW4 2080   0.430   1.120   1.152
  513SOL     OW 2081   0.664   1.264   1.235
  513SOL    HW2 2082   0.742   1.212   1.215
  513SOL    HW3 2083   0.682   1.350   1.198
  513SOL    MW4 2084   0.677   1.269   1.227
  514SOL     OW 2085   0.711   1.518   1.134
  514SOL    HW2 2086   0.783   1.548   1.189
  514SOL    HW3 2087   0.634   1.563   1.168
  514SOL    MW4 2088   0.710   1.528   1.145
  515SOL     OW 2089   0.485   1.647   1.222
  515SOL    HW2 2090   0.478   1.627   1.316
  515SOL    HW3 2091   0.401   1.618   1.185
  515SOL    MW4 2092   0.473   1.640   1.230
  516SOL     OW 2093   0.491   1.936   1.172
  516SOL    HW2 2094   0.506   1.846   1.201
  516SOL    HW3 2095   0.399   1.953   1.195
  516SOL    MW4 2096   0.481   1.926   1.179
  517SOL     OW 2097   0.700   2.103   1.251
  517SOL    HW2 2098   0.691   2.104   1.346
  517SOL    HW3 2099   0.623   2.054   1.220
  517SOL    MW4 2100   0.688   2.097   1.259
  518SOL     OW 2101   0.668   2.373   1.133
  518SOL    HW2 2102   0.576   2.392   1.152
  518SOL    HW3 2103   0.682   2.284   1.165
  518SOL    MW4 2104   0.658   2.364   1.140
  519SOL     OW 2105   0.405   2.462   1.205
  519SOL    HW2 2106   0.425   2.462   1.298
  519SOL    HW3 2107   0.427   2.550   1.175
  519SOL    MW4 2108   0.411   2.473   1.213
  520SOL     OW 2109   0.459   2.726   1.130
  520SOL    HW2 2110   0.371   2.759   1.150
  520SOL    HW3 2111   0.462   2.722   1.034
  520SOL    MW4 2112   0.447   2.730   1.120
  521SOL     OW 2113   0.697   2.839   1.245
  521SOL    HW2 2114   0.695   2.931   1.218
  521SOL    HW3 2115   0.611   2.805   1.222
  521SOL    MW4 2116   0.685   2.847   1.238
  522SOL     OW 2117   0.707   3.106   1.138
  522SOL    HW2 2118   0.775   3.161   1.177
  522SOL    HW3 2119   0.735   3.093   1.048
  522SOL    MW4 2120   0.720   3.111   1.131
  523SOL     OW 2121   0.445   3.213   1.205
  523SOL    HW2 2122   0.443   3.306   1.181
  523SOL    HW3 2123   0.536   3.186   1.188
  523SOL    MW4 2124   0.457   3.222   1.200
  524SOL     OW 2125   0.428   3.488   1.177
  524SOL    HW2 2126   0.498   3.540   1.217
  524SOL    HW3 2127   0.349   3.541   1.187
  524SOL    MW4 2128   0.427   3.502   1.184
  525SOL     OW 2129   0.682   3.621   1.247
  525SOL    HW2 2130   0.696   3.633   1.340
  525SOL    HW3 2131   0.652   3.707   1.216
  525SOL    MW4 2132   0.680   3.634   1.255
  526SOL     OW 2133   0.609   3.876   1.138
  526SOL    HW2 2134   0.547   3.943   1.168
  526SOL    HW3 2135   0.605   3.881   1.042
  526SOL    MW4 2136   0.600   3.886   1.129
  527SOL     OW 2137   0.405   4.043   1.239
  527SOL    HW2 2138   0.397   4.118   1.180
  527SOL    HW3 2139   0.352   3.975   1.200
  527SOL    MW4 2140   0.397   4.044   1.226
  528SOL     OW 2141   0.395   4.276   1.101
  528SOL    HW2 2142   0.481   4.310   1.125
  528SOL    HW3 2143   0.333   4.324   1.157
  528SOL    MW4 2144   0.398   4.287   1.112
  529SOL     OW 2145   0.627   4.373   1.224
  529SOL    HW2 2146   0.628   4.367   1.320
  529SOL    HW3 2147   0.707   4.329   1.197
  529SOL    MW4 2148   0.637   4.366   1.233
  530SOL     OW 2149   1.135   4.624   1.125
  530SOL    HW2 2150   1.125   4.533   1.152
  530SOL    HW3 2151   1.135   4.621   1.029
  530SOL    MW4 2152   1.133   4.612   1.116
  531SOL     OW 2153   0.911   0.082   1.229
  531SOL    HW2 2154   0.915   0.058   1.322
  531SOL    HW3 2155   0.994   0.051   1.193
  531SOL    MW4 2156   0.923   0.075   1.237
  532SOL     OW 2157   0.900   0.340   1.096
  532SOL    HW2 2158   0.894   0.262   1.152
  532SOL    HW3 2159   0.830   0.397   1.127
  532SOL    MW4 2160   0.890   0.337   1.108
  533SOL     OW 2161   1.097   0.508   1.202
  533SOL    HW2 2162   1.103   0.487   1.296
  533SOL    HW3 2163   1.034   0.445   1.168
  533SOL    MW4 2164   1.089   0.497   1.210
  534SOL     OW 2165   1.085   0.775   1.118
  534SOL    HW2 2166   1.003   0.808   1.156
  534SOL    HW3 2167   1.086   0.682   1.143
  534SOL    MW4 2168   1.074   0.767   1.127
  535SOL     OW 2169   0.862   0.890   1.213
  535SOL    HW2 2170   0.871   0.971   1.164
  535SOL    HW3 2171   0.782   0.850   1.180
  535SOL    MW4 2172   0.853   0.895   1.203
  536SOL     OW 2173   0.896   1.152   1.097
  536SOL    HW2 2174   0.974   1.195   1.131
  536SOL    HW3 2175   0.898   1.170   1.003
  536SOL    MW4 2176   0.906   1.160   1.089
  537SOL     OW 2177   1.109   1.296   1.216
  537SOL    HW2 2178   1.115   1.302   1.311
  537SOL    HW3 2179   1.195   1.265   1.188
  537SOL    MW4 2180   1.121   1.293   1.225
  538SOL     OW 2181   1.151   1.553   1.154
  538SOL    HW2 2182   1.147   1.458   1.167
  538SOL    HW3 2183   1.147   1.563   1.059
  538SOL    MW4 2184   1.150   1.542   1.143
  539SOL     OW 2185   0.912   1.669   1.269
  539SOL    HW2 2186   0.891   1.752   1.226
  539SOL    HW3 2187   0.992   1.639   1.225
  539SOL    MW4 2188   0.920   1.676   1.258
  540SOL     OW 2189   0.899   1.931   1.159
  540SOL    HW2 2190   0.978   1.970   1.197
  540SOL    HW3 2191   0.832   2.000   1.168
  540SOL    MW4 2192   0.901   1.945   1.166
  541SOL     OW 2193   1.160   2.049   1.234
  541SOL    HW2 2194   1.139   2.052   1.328
  541SOL    HW3 2195   1.143   2.138   1.203
  541SOL    MW4 2196   1.155   2.061   1.242
  542SOL     OW 2197   1.125   2.313   1.125
  542SOL    HW2 2198   1.202   2.356   1.161
  542SOL    HW3 2199   1.051   2.361   1.162
  542SOL    MW4 2200   1.125   2.325   1.135
  543SOL     OW 2201   0.913   2.453   1.255
  543SOL    HW2 2202   0.900   2.454   1.350
  543SOL    HW3 2203   0.830   2.419   1.220
  543SOL    MW4 2204   0.900   2.448   1.263
  544SOL     OW 2205   0.892   2.699   1.123
  544SOL    HW2 2206   0.888   2.611   1.161
  544SOL    HW3 2207   0.826   2.749   1.172
  544SOL    MW4 2208   0.882   2.694   1.134
  545SOL     OW 2209   1.121   2.835   1.190
  545SOL    HW2 2210   1.132   2.828   1.285
  545SOL    HW3 2211   1.041   2.786   1.171
  545SOL    MW4 2212   1.112   2.828   1.200
  546SOL     OW 2213   1.133   3.110   1.114
  546SOL    HW2 2214   1.091   3.027   1.135
  546SOL    HW3 2215   1.124   3.118   1.019
  546SOL    MW4 2216   1.126   3.100   1.104
  547SOL     OW 2217   0.923   3.245   1.236
  547SOL    HW2 2218   0.918   3.327   1.186
  547SOL    HW3 2219   1.002   3.202   1.202
  547SOL    MW4 2220   0.933   3.250   1.225
  548SOL     OW 2221   0.884   3.485   1.120
  548SOL    HW2 2222   0.801   3.530   1.137
  548SOL    HW3 2223   0.894   3.488   1.025
  548SOL    MW4 2224   0.874   3.491   1.109
  549SOL     OW 2225   1.098   3.630   1.247
  549SOL    HW2 2226   1.173   3.574   1.224
  549SOL    HW3 2227   1.023   3.587   1.207
  549SOL    MW4 2228   1.098   3.617   1.239
  550SOL     OW 2229   1.132   3.873   1.094
  550SOL    HW2 2230   1.052   3.921   1.118
  550SOL    HW3 2231   1.122   3.788   1.137
  550SOL    MW4 2232   1.120   3.868   1.103
  551SOL     OW 2233   0.869   3.968   1.186
  551SOL    HW2 2234   0.867   3.983   1.280
  551SOL    HW3 2235   0.786   3.924   1.167
  551SOL    MW4 2236   0.858   3.964   1.196
  552SOL     OW 2237   0.867   4.254   1.164
  552SOL    HW2 2238   0.844   4.164   1.187
  552SOL    HW3 2239   0.903   4.248   1.075
  552SOL    MW4 2240   0.869   4.241   1.155
  553SOL     OW 2241   1.118   4.374   1.212
  553SOL    HW2 2242   1.138   4.380   1.305
  553SOL    HW3 2243   1.029   4.338   1.209
  553SOL    MW4 2244   1.109   4.370   1.224
  554SOL     OW 2245   1.585   4.637   1.074
  554SOL    HW2 2246   1.641   4.696   1.123
  554SOL    HW3 2247   1.604   4.550   1.109
  554SOL    MW4 2248   1.595   4.633   1.085
  555SOL     OW 2249   1.376   0.088   1.215
  555SOL    HW2 2250   1.454   0.042   1.186
  555SOL    HW3 2251   1.304   0.042   1.172
  555SOL    MW4 2252   1.376   0.076   1.206
  556SOL     OW 2253   1.347   0.347   1.112
  556SOL    HW2 2254   1.355   0.263   1.156
  556SOL    HW3 2255   1.261   0.379   1.139
  556SOL    MW4 2256   1.337   0.340   1.121
  557SOL     OW 2257   1.531   0.530   1.232
  557SOL    HW2 2258   1.519   0.620   1.203
  557SOL    HW3 2259   1.462   0.480   1.188
  557SOL    MW4 2260   1.520   0.535   1.223
  558SOL     OW 2261   1.542   0.801   1.139
  558SOL    HW2 2262   1.620   0.849   1.166
  558SOL    HW3 2263   1.550   0.795   1.044
  558SOL    MW4 2264   1.553   0.807   1.130
  559SOL     OW 2265   1.308   0.929   1.203
  559SOL    HW2 2266   1.392   0.890   1.178
  559SOL    HW3 2267   1.242   0.872   1.164
  559SOL    MW4 2268   1.310   0.916   1.195
  560SOL     OW 2269   1.348   1.189   1.117
  560SOL    HW2 2270   1.325   1.096   1.124
  560SOL    HW3 2271   1.353   1.206   1.023
  560SOL    MW4 2272   1.345   1.179   1.105
  561SOL     OW 2273   1.577   1.304   1.232
  561SOL    HW2 2274   1.659   1.258   1.212
  561SOL    HW3 2275   1.509   1.251   1.192
  561SOL    MW4 2276   1.579   1.291   1.224
  562SOL     OW 2277   1.613   1.553   1.101
  562SOL    HW2 2278   1.681   1.599   1.150
  562SOL    HW3 2279   1.620   1.462   1.130
  562SOL    MW4 2280   1.623   1.547   1.111
  563SOL     OW 2281   1.411   1.658   1.226
  563SOL    HW2 2282   1.485   1.615   1.182
  563SOL    HW3 2283   1.333   1.622   1.183
  563SOL    MW4 2284   1.411   1.647   1.215
  564SOL     OW 2285   1.376   1.909   1.109
  564SOL    HW2 2286   1.388   1.831   1.163
  564SOL    HW3 2287   1.304   1.956   1.151
  564SOL    MW4 2288   1.368   1.905   1.121
  565SOL     OW 2289   1.601   2.048   1.206
  565SOL    HW2 2290   1.599   2.142   1.188
  565SOL    HW3 2291   1.525   2.013   1.159
  565SOL    MW4 2292   1.590   2.056   1.197
  566SOL     OW 2293   1.593   2.306   1.141
  566SOL    HW2 2294   1.518   2.332   1.194
  566SOL    HW3 2295   1.560   2.304   1.051
  566SOL    MW4 2296   1.579   2.309   1.136
  567SOL     OW 2297   1.361   2.436   1.229
  567SOL    HW2 2298   1.349   2.450   1.323
  567SOL    HW3 2299   1.364   2.524   1.191
  567SOL    MW4 2300   1.360   2.449   1.236
  568SOL     OW 2301   1.349   2.696   1.103
  568SOL    HW2 2302   1.423   2.746   1.138
  568SOL    HW3 2303   1.271   2.743   1.134
  568SOL    MW4 2304   1.348   2.709   1.111
  569SOL     OW 2305   1.582   2.814   1.207
  569SOL    HW2 2306   1.662   2.774   1.173
  569SOL    HW3 2307   1.585   2.904   1.175
  569SOL    MW4 2308   1.593   2.821   1.198
  570SOL     OW 2309   1.602   3.076   1.079
  570SOL    HW2 2310   1.684   3.116   1.110
  570SOL    HW3 2311   1.534   3.138   1.108
  570SOL    MW4 2312   1.604   3.090   1.087
  571SOL     OW 2313   1.369   3.220   1.201
  571SOL    HW2 2314   1.382   3.209   1.296
  571SOL    HW3 2315   1.278   3.194   1.186
  571SOL    MW4 2316   1.359   3.215   1.212
  572SOL     OW 2317   1.308   3.492   1.152
  572SOL    HW2 2318   1.328   3.400   1.170
  572SOL    HW3 2319   1.310   3.500   1.057
  572SOL    MW4 2320   1.311   3.481   1.142
  573SOL     OW 2321   1.548   3.598   1.238
  573SOL    HW2 2322   1.542   3.687   1.203
  573SOL    HW3 2323   1.467   3.556   1.209
  573SOL    MW4 2324   1.537   3.604   1.230
  574SOL     OW 2325   1.549   3.861   1.143
  574SOL    HW2 2326   1.476   3.917   1.167
  574SOL    HW3 2327   1.560   3.875   1.049
  574SOL    MW4 2328   1.541   3.870   1.134
  575SOL     OW 2329   1.332   3.996   1.244
  575SOL    HW2 2330   1.340   4.081   1.202
  575SOL    HW3 2331   1.275   3.946   1.186
  575SOL    MW4 2332   1.326   4.000   1.231
  576SOL     OW 2333   1.369   4.246   1.120
  576SOL    HW2 2334   1.283   4.286   1.137
  576SOL    HW3 2335   1.385   4.263   1.027
  576SOL    MW4 2336   1.360   4.254   1.110
  577SOL     OW 2337   1.576   4.399   1.230
  577SOL    HW2 2338   1.572   4.403   1.326
  577SOL    HW3 2339   1.507   4.336   1.206
  577SOL    MW4 2340   1.566   4.391   1.239
  578SOL     OW 2341   2.029   0.041   1.170
  578SOL    HW2 2342   2.013  -0.048   1.201
  578SOL    HW3 2343   2.034   0.032   1.074
  578SOL    MW4 2344   2.028   0.028   1.161
  579SOL     OW 2345   1.755   0.137   1.205
  579SOL    HW2 2346   1.748   0.231   1.187
  579SOL    HW3 2347   1.847   0.116   1.192
  579SOL    MW4 2348   1.766   0.147   1.201
  580SOL     OW 2349   1.762   0.400   1.164
  580SOL    HW2 2350   1.686   0.453   1.186
  580SOL    HW3 2351   1.770   0.405   1.069
  580SOL    MW4 2352   1.753   0.408   1.155
  581SOL     OW 2353   1.993   0.537   1.201
  581SOL    HW2 2354   1.994   0.550   1.296
  581SOL    HW3 2355   1.914   0.486   1.185
  581SOL    MW4 2356   1.983   0.532   1.212
  582SOL     OW 2357   1.967   0.843   1.084
  582SOL    HW2 2358   1.971   0.753   1.116
  582SOL    HW3 2359   1.967   0.834   0.988
  582SOL    MW4 2360   1.967   0.830   1.075
  583SOL     OW 2361   1.769   0.970   1.236
  583SOL    HW2 2362   1.762   0.944   1.328
  583SOL    HW3 2363   1.848   0.926   1.205
  583SOL    MW4 2364   1.778   0.960   1.244
  584SOL     OW 2365   1.818   1.221   1.147
  584SOL    HW2 2366   1.805   1.133   1.181
  584SOL    HW3 2367   1.796   1.215   1.054
  584SOL    MW4 2368   1.813   1.209   1.139
  585SOL     OW 2369   2.056   1.288   1.250
  585SOL    HW2 2370   2.122   1.246   1.195
  585SOL    HW3 2371   1.973   1.261   1.212
  585SOL    MW4 2372   2.054   1.279   1.238
  586SOL     OW 2373   2.029   1.534   1.141
  586SOL    HW2 2374   2.035   1.450   1.186
  586SOL    HW3 2375   2.005   1.512   1.051
  586SOL    MW4 2376   2.026   1.520   1.135
  587SOL     OW 2377   1.820   1.715   1.232
  587SOL    HW2 2378   1.838   1.791   1.177
  587SOL    HW3 2379   1.894   1.656   1.215
  587SOL    MW4 2380   1.832   1.717   1.223
  588SOL     OW 2381   1.842   1.951   1.112
  588SOL    HW2 2382   1.766   1.992   1.153
  588SOL    HW3 2383   1.824   1.956   1.018
  588SOL    MW4 2384   1.830   1.957   1.105
  589SOL     OW 2385   2.037   2.115   1.201
  589SOL    HW2 2386   2.033   2.103   1.295
  589SOL    HW3 2387   1.975   2.052   1.165
  589SOL    MW4 2388   2.028   2.105   1.208
  590SOL     OW 2389   2.042   2.362   1.091
  590SOL    HW2 2390   2.122   2.409   1.117
  590SOL    HW3 2391   2.053   2.274   1.125
  590SOL    MW4 2392   2.054   2.357   1.099
  591SOL     OW 2393   1.823   2.449   1.217
  591SOL    HW2 2394   1.897   2.403   1.178
  591SOL    HW3 2395   1.746   2.403   1.184
  591SOL    MW4 2396   1.823   2.437   1.207
  592SOL     OW 2397   1.814   2.704   1.128
  592SOL    HW2 2398   1.826   2.617   1.166
  592SOL    HW3 2399   1.799   2.689   1.035
  592SOL    MW4 2400   1.813   2.691   1.121
  593SOL     OW 2401   2.021   2.858   1.227
  593SOL    HW2 2402   2.024   2.938   1.176
  593SOL    HW3 2403   1.957   2.802   1.181
  593SOL    MW4 2404   2.013   2.861   1.214
  594SOL     OW 2405   2.052   3.108   1.108
  594SOL    HW2 2406   1.964   3.137   1.132
  594SOL    HW3 2407   2.046   3.090   1.014
  594SOL    MW4 2408   2.040   3.109   1.098
  595SOL     OW 2409   1.826   3.210   1.210
  595SOL    HW2 2410   1.836   3.201   1.305
  595SOL    HW3 2411   1.802   3.301   1.196
  595SOL    MW4 2412   1.824   3.221   1.221
  596SOL     OW 2413   1.775   3.467   1.152
  596SOL    HW2 2414   1.851   3.516   1.183
  596SOL    HW3 2415   1.700   3.522   1.175
  596SOL    MW4 2416   1.775   3.480   1.159
  597SOL     OW 2417   1.970   3.630   1.221
  597SOL    HW2 2418   1.986   3.634   1.315
  597SOL    HW3 2419   2.050   3.593   1.184
  597SOL    MW4 2420   1.982   3.625   1.228
  598SOL     OW 2421   2.020   3.886   1.137
  598SOL    HW2 2422   1.952   3.943   1.172
  598SOL    HW3 2423   1.994   3.798   1.164
  598SOL    MW4 2424   2.008   3.882   1.145
  599SOL     OW 2425   1.795   4.002   1.251
  599SOL    HW2 2426   1.806   4.010   1.346
  599SOL    HW3 2427   1.716   3.950   1.239
  599SOL    MW4 2428   1.786   3.996   1.262
  600SOL     OW 2429   1.810   4.281   1.185
  600SOL    HW2 2430   1.808   4.186   1.197
  600SOL    HW3 2431   1.724   4.310   1.215
  600SOL    MW4 2432   1.798   4.272   1.190
  601SOL     OW 2433   2.014   4.453   1.249
  601SOL    HW2 2434   2.038   4.421   1.335
  601SOL    HW3 2435   1.933   4.406   1.227
  601SOL    MW4 2436   2.006   4.443   1.257
  602SOL     OW 2437   2.488   4.654   1.093
  602SOL    HW2 2438   2.562   4.695   1.136
  602SOL    HW3 2439   2.411   4.701   1.127
  602SOL    MW4 2440   2.487   4.666   1.104
  603SOL     OW 2441   2.263   0.154   1.240
  603SOL    HW2 2442   2.258   0.243   1.205
  603SOL    HW3 2443   2.181   0.112   1.212
  603SOL    MW4 2444   2.252   0.160   1.232
  604SOL     OW 2445   2.225   0.409   1.103
  604SOL    HW2 2446   2.160   0.472   1.135
  604SOL    HW3 2447   2.231   0.426   1.009
  604SOL    MW4 2448   2.217   0.419   1.095
  605SOL     OW 2449   2.482   0.531   1.212
  605SOL    HW2 2450   2.463   0.533   1.306
  605SOL    HW3 2451   2.406   0.488   1.173
  605SOL    MW4 2452   2.469   0.526   1.219
  606SOL     OW 2453   2.443   0.799   1.107
  606SOL    HW2 2454   2.461   0.711   1.141
  606SOL    HW3 2455   2.437   0.787   1.012
  606SOL    MW4 2456   2.445   0.785   1.099
  607SOL     OW 2457   2.215   0.929   1.192
  607SOL    HW2 2458   2.286   0.874   1.157
  607SOL    HW3 2459   2.135   0.892   1.155
  607SOL    MW4 2460   2.214   0.917   1.183
  608SOL     OW 2461   2.239   1.173   1.070
  608SOL    HW2 2462   2.324   1.198   1.106
  608SOL    HW3 2463   2.230   1.080   1.091
  608SOL    MW4 2464   2.249   1.164   1.077
  609SOL     OW 2465   2.481   1.280   1.194
  609SOL    HW2 2466   2.571   1.250   1.202
  609SOL    HW3 2467   2.488   1.375   1.181
  609SOL    MW4 2468   2.494   1.288   1.193
  610SOL     OW 2469   2.459   1.559   1.143
  610SOL    HW2 2470   2.378   1.581   1.189
  610SOL    HW3 2471   2.435   1.558   1.050
  610SOL    MW4 2472   2.445   1.562   1.137
  611SOL     OW 2473   2.232   1.680   1.255
  611SOL    HW2 2474   2.231   1.771   1.224
  611SOL    HW3 2475   2.166   1.637   1.200
  611SOL    MW4 2476   2.223   1.687   1.244
  612SOL     OW 2477   2.273   1.941   1.142
  612SOL    HW2 2478   2.208   2.003   1.174
  612SOL    HW3 2479   2.269   1.949   1.047
  612SOL    MW4 2480   2.264   1.950   1.134
  613SOL     OW 2481   2.492   2.077   1.228
  613SOL    HW2 2482   2.574   2.051   1.186
  613SOL    HW3 2483   2.425   2.022   1.185
  613SOL    MW4 2484   2.494   2.066   1.217
  614SOL     OW 2485   2.490   2.309   1.102
  614SOL    HW2 2486   2.485   2.225   1.148
  614SOL    HW3 2487   2.464   2.289   1.012
  614SOL    MW4 2488   2.486   2.296   1.096
  615SOL     OW 2489   2.271   2.464   1.186
  615SOL    HW2 2490   2.272   2.471   1.281
  615SOL    HW3 2491   2.344   2.405   1.166
  615SOL    MW4 2492   2.281   2.458   1.196
  616SOL     OW 2493   2.244   2.755   1.111
  616SOL    HW2 2494   2.254   2.663   1.136
  616SOL    HW3 2495   2.166   2.784   1.159
  616SOL    MW4 2496   2.235   2.747   1.121
  617SOL     OW 2497   2.479   2.827   1.235
  617SOL    HW2 2498   2.467   2.796   1.325
  617SOL    HW3 2499   2.395   2.812   1.192
  617SOL    MW4 2500   2.467   2.821   1.241
  618SOL     OW 2501   2.458   3.096   1.140
  618SOL    HW2 2502   2.396   3.157   1.179
  618SOL    HW3 2503   2.446   3.014   1.187
  618SOL    MW4 2504   2.448   3.093   1.151
  619SOL     OW 2505   2.244   3.231   1.264
  619SOL    HW2 2506   2.231   3.325   1.247
  619SOL    HW3 2507   2.182   3.188   1.204
  619SOL    MW4 2508   2.234   3.238   1.254
  620SOL     OW 2509   2.220   3.511   1.134
  620SOL    HW2 2510   2.301   3.561   1.148
  620SOL    HW3 2511   2.209   3.510   1.039
  620SOL    MW4 2512   2.229   3.518   1.123
  621SOL     OW 2513   2.469   3.609   1.236
  621SOL    HW2 2514   2.488   3.607   1.330
  621SOL    HW3 2515   2.475   3.702   1.212
  621SOL    MW4 2516   2.472   3.621   1.245
  622SOL     OW 2517   2.473   3.891   1.198
  622SOL    HW2 2518   2.395   3.939   1.227
  622SOL    HW3 2519   2.476   3.905   1.104
  622SOL    MW4 2520   2.463   3.899   1.190
  623SOL     OW 2521   2.235   4.039   1.234
  623SOL    HW2 2522   2.225   4.126   1.196
  623SOL    HW3 2523   2.162   3.988   1.199
  623SOL    MW4 2524   2.224   4.044   1.224
  624SOL     OW 2525   2.221   4.285   1.129
  624SOL    HW2 2526   2.153   4.343   1.162
  624SOL    HW3 2527   2.208   4.285   1.034
  624SOL    MW4 2528   2.210   4.292   1.120
  625SOL     OW 2529   2.474   4.390   1.217
  625SOL    HW2 2530   2.394   4.350   1.184
  625SOL    HW3 2531   2.480   4.473   1.170
  625SOL    MW4 2532   2.464   4.396   1.207
  626SOL     OW 2533   2.915   4.639   1.127
  626SOL    HW2 2534   2.919   4.546   1.152
  626SOL    HW3 2535   2.915   4.638   1.031
  626SOL    MW4 2536   2.916   4.626   1.118
  627SOL     OW 2537   2.685   0.134   1.212
  627SOL    HW2 2538   2.683   0.133   1.308
  627SOL    HW3 2539   2.755   0.073   1.190
  627SOL    MW4 2540   2.694   0.126   1.222
  628SOL     OW 2541   2.704   0.394   1.126
  628SOL    HW2 2542   2.698   0.305   1.159
  628SOL    HW3 2543   2.628   0.439   1.162
  628SOL    MW4 2544   2.693   0.388   1.135
  629SOL     OW 2545   2.933   0.489   1.248
  629SOL    HW2 2546   2.937   0.578   1.213
  629SOL    HW3 2547   2.854   0.452   1.209
  629SOL    MW4 2548   2.923   0.496   1.238
  630SOL     OW 2549   2.890   0.770   1.154
  630SOL    HW2 2550   2.952   0.835   1.186
  630SOL    HW3 2551   2.807   0.794   1.194
  630SOL    MW4 2552   2.887   0.782   1.163
  631SOL     OW 2553   2.649   0.904   1.264
  631SOL    HW2 2554   2.678   0.994   1.247
  631SOL    HW3 2555   2.575   0.891   1.205
  631SOL    MW4 2556   2.643   0.914   1.254
  632SOL     OW 2557   2.738   1.144   1.188
  632SOL    HW2 2558   2.796   1.217   1.208
  632SOL    HW3 2559   2.742   1.135   1.093
  632SOL    MW4 2560   2.746   1.152   1.179
  633SOL     OW 2561   2.885   1.363   1.250
  633SOL    HW2 2562   2.889   1.367   1.346
  633SOL    HW3 2563   2.886   1.455   1.222
  633SOL    MW4 2564   2.886   1.376   1.259
  634SOL     OW 2565   2.895   1.615   1.164
  634SOL    HW2 2566   2.979   1.644   1.200
  634SOL    HW3 2567   2.909   1.612   1.070
  634SOL    MW4 2568   2.908   1.619   1.156
  635SOL     OW 2569   2.658   1.732   1.195
  635SOL    HW2 2570   2.745   1.691   1.196
  635SOL    HW3 2571   2.598   1.662   1.170
  635SOL    MW4 2572   2.662   1.717   1.192
  636SOL     OW 2573   2.723   1.964   1.071
  636SOL    HW2 2574   2.799   1.987   1.125
  636SOL    HW3 2575   2.684   1.888   1.115
  636SOL    MW4 2576   2.728   1.957   1.084
  637SOL     OW 2577   2.913   2.097   1.225
  637SOL    HW2 2578   2.923   2.098   1.320
  637SOL    HW3 2579   2.917   2.190   1.200
  637SOL    MW4 2580   2.915   2.110   1.235
  638SOL     OW 2581   2.894   2.346   1.105
  638SOL    HW2 2582   2.975   2.371   1.148
  638SOL    HW3 2583   2.825   2.389   1.157
  638SOL    MW4 2584   2.895   2.355   1.118
  639SOL     OW 2585   2.666   2.475   1.241
  639SOL    HW2 2586   2.668   2.451   1.333
  639SOL    HW3 2587   2.607   2.411   1.200
  639SOL    MW4 2588   2.658   2.464   1.247
  640SOL     OW 2589   2.743   2.729   1.192
  640SOL    HW2 2590   2.734   2.636   1.213
  640SOL    HW3 2591   2.666   2.770   1.232
  640SOL    MW4 2592   2.732   2.722   1.200
  641SOL     OW 2593   2.972   2.866   1.267
  641SOL    HW2 2594   2.982   2.859   1.362
  641SOL    HW3 2595   2.893   2.816   1.247
  641SOL    MW4 2596   2.963   2.858   1.277
  642SOL     OW 2597   2.923   3.116   1.182
  642SOL    HW2 2598   2.973   3.039   1.212
  642SOL    HW3 2599   2.929   3.112   1.087
  642SOL    MW4 2600   2.931   3.105   1.174
  643SOL     OW 2601   2.677   3.209   1.269
  643SOL    HW2 2602   2.761   3.174   1.239
  643SOL    HW3 2603   2.612   3.160   1.219
  643SOL    MW4 2604   2.680   3.198   1.258
  644SOL     OW 2605   2.695   3.465   1.176
  644SOL    HW2 2606   2.689   3.382   1.222
  644SOL    HW3 2607   2.615   3.512   1.199
  644SOL    MW4 2608   2.684   3.461   1.185
  645SOL     OW 2609   2.905   3.636   1.260
  645SOL    HW2 2610   2.980   3.591   1.223
  645SOL    HW3 2611   2.829   3.589   1.226
  645SOL    MW4 2612   2.905   3.624   1.251
  646SOL     OW 2613   2.936   3.897   1.140
  646SOL    HW2 2614   3.013   3.933   1.184
  646SOL    HW3 2615   2.933   3.805   1.167
  646SOL    MW4 2616   2.945   3.890   1.149
  647SOL     OW 2617   2.701   4.022   1.268
  647SOL    HW2 2618   2.774   3.973   1.230
  647SOL    HW3 2619   2.623   3.972   1.241
  647SOL    MW4 2620   2.700   4.009   1.259
  648SOL     OW 2621   2.691   4.258   1.078
  648SOL    HW2 2622   2.696   4.176   1.128
  648SOL    HW3 2623   2.632   4.314   1.128
  648SOL    MW4 2624   2.684   4.254   1.091
  649SOL     OW 2625   2.890   4.377   1.224
  649SOL    HW2 2626   2.962   4.318   1.202
  649SOL    HW3 2627   2.818   4.349   1.167
  649SOL    MW4 2628   2.890   4.365   1.213
  650SOL     OW 2629   3.372   4.653   1.125
  650SOL    HW2 2630   3.450   4.695   1.162
  650SOL    HW3 2631   3.299   4.705   1.156
  650SOL    MW4 2632   3.373   4.665   1.134
  651SOL     OW 2633   3.145   0.105   1.231
  651SOL    HW2 2634   3.162   0.107   1.325
  651SOL    HW3 2635   3.056   0.069   1.223
  651SOL    MW4 2636   3.135   0.101   1.242
  652SOL     OW 2637   3.182   0.390   1.151
  652SOL    HW2 2638   3.167   0.296   1.167
  652SOL    HW3 2639   3.108   0.433   1.193
  652SOL    MW4 2640   3.170   0.383   1.159
  653SOL     OW 2641   3.390   0.499   1.253
  653SOL    HW2 2642   3.373   0.589   1.226
  653SOL    HW3 2643   3.321   0.448   1.211
  653SOL    MW4 2644   3.378   0.504   1.244
  654SOL     OW 2645   3.365   0.761   1.160
  654SOL    HW2 2646   3.288   0.817   1.170
  654SOL    HW3 2647   3.380   0.758   1.066
  654SOL    MW4 2648   3.357   0.768   1.149
  655SOL     OW 2649   3.114   0.928   1.231
  655SOL    HW2 2650   3.113   0.926   1.327
  655SOL    HW3 2651   3.111   1.021   1.209
  655SOL    MW4 2652   3.114   0.940   1.241
  656SOL     OW 2653   3.114   1.199   1.179
  656SOL    HW2 2654   3.200   1.234   1.202
  656SOL    HW3 2655   3.052   1.267   1.206
  656SOL    MW4 2656   3.117   1.212   1.186
  657SOL     OW 2657   3.375   1.290   1.206
  657SOL    HW2 2658   3.340   1.278   1.295
  657SOL    HW3 2659   3.385   1.384   1.196
  657SOL    MW4 2660   3.372   1.301   1.216
  658SOL     OW 2661   3.357   1.565   1.109
  658SOL    HW2 2662   3.432   1.615   1.141
  658SOL    HW3 2663   3.281   1.612   1.141
  658SOL    MW4 2664   3.357   1.577   1.118
  659SOL     OW 2665   3.139   1.702   1.246
  659SOL    HW2 2666   3.151   1.694   1.341
  659SOL    HW3 2667   3.149   1.795   1.228
  659SOL    MW4 2668   3.142   1.713   1.256
  660SOL     OW 2669   3.128   1.950   1.133
  660SOL    HW2 2670   3.197   2.001   1.174
  660SOL    HW3 2671   3.047   1.997   1.155
  660SOL    MW4 2672   3.126   1.963   1.142
  661SOL     OW 2673   3.358   2.094   1.237
  661SOL    HW2 2674   3.430   2.054   1.187
  661SOL    HW3 2675   3.365   2.187   1.217
  661SOL    MW4 2676   3.368   2.101   1.228
  662SOL     OW 2677   3.379   2.357   1.143
  662SOL    HW2 2678   3.437   2.426   1.176
  662SOL    HW3 2679   3.292   2.380   1.177
  662SOL    MW4 2680   3.375   2.369   1.152
  663SOL     OW 2681   3.120   2.434   1.225
  663SOL    HW2 2682   3.122   2.445   1.320
  663SOL    HW3 2683   3.132   2.523   1.190
  663SOL    MW4 2684   3.122   2.447   1.233
  664SOL     OW 2685   3.130   2.690   1.123
  664SOL    HW2 2686   3.061   2.747   1.157
  664SOL    HW3 2687   3.127   2.703   1.028
  664SOL    MW4 2688   3.121   2.699   1.115
  665SOL     OW 2689   3.397   2.845   1.164
  665SOL    HW2 2690   3.365   2.934   1.148
  665SOL    HW3 2691   3.320   2.789   1.150
  665SOL    MW4 2692   3.383   2.849   1.160
  666SOL     OW 2693   3.329   3.103   1.102
  666SOL    HW2 2694   3.410   3.141   1.135
  666SOL    HW3 2695   3.262   3.131   1.164
  666SOL    MW4 2696   3.331   3.111   1.114
  667SOL     OW 2697   3.152   3.242   1.264
  667SOL    HW2 2698   3.141   3.330   1.228
  667SOL    HW3 2699   3.069   3.198   1.246
  667SOL    MW4 2700   3.139   3.248   1.257
  668SOL     OW 2701   3.139   3.508   1.152
  668SOL    HW2 2702   3.211   3.564   1.179
  668SOL    HW3 2703   3.159   3.484   1.061
  668SOL    MW4 2704   3.151   3.512   1.144
  669SOL     OW 2705   3.383   3.666   1.261
  669SOL    HW2 2706   3.375   3.653   1.356
  669SOL    HW3 2707   3.461   3.615   1.237
  669SOL    MW4 2708   3.392   3.657   1.271
  670SOL     OW 2709   3.394   3.902   1.109
  670SOL    HW2 2710   3.344   3.969   1.157
  670SOL    HW3 2711   3.386   3.823   1.162
  670SOL    MW4 2712   3.386   3.901   1.122
  671SOL     OW 2713   3.173   4.008   1.238
  671SOL    HW2 2714   3.186   4.006   1.333
  671SOL    HW3 2715   3.165   4.101   1.216
  671SOL    MW4 2716   3.174   4.020   1.248
  672SOL     OW 2717   3.131   4.262   1.133
  672SOL    HW2 2718   3.199   4.328   1.148
  672SOL    HW3 2719   3.126   4.255   1.037
  672SOL    MW4 2720   3.139   4.270   1.122
  673SOL     OW 2721   3.345   4.403   1.225
  673SOL    HW2 2722   3.422   4.360   1.189
  673SOL    HW3 2723   3.354   4.495   1.198
  673SOL    MW4 2724   3.356   4.410   1.217
  674SOL     OW 2725   3.848   4.661   1.095
  674SOL    HW2 2726   3.814   4.582   1.138
  674SOL    HW3 2727   3.835   4.644   1.001
  674SOL    MW4 2728   3.842   4.648   1.088
  675SOL     OW 2729   3.619   0.125   1.205
  675SOL    HW2 2730   3.617   0.214   1.169
  675SOL    HW3 2731   3.703   0.089   1.176
  675SOL    MW4 2732   3.630   0.132   1.197
  676SOL     OW 2733   3.608   0.387   1.100
  676SOL    HW2 2734   3.685   0.427   1.141
  676SOL    HW3 2735   3.533   0.427   1.144
  676SOL    MW4 2736   3.608   0.397   1.112
  677SOL     OW 2737   3.831   0.510   1.238
  677SOL    HW2 2738   3.915   0.478   1.206
  677SOL    HW3 2739   3.824   0.598   1.200
  677SOL    MW4 2740   3.841   0.517   1.229
  678SOL     OW 2741   3.819   0.756   1.149
  678SOL    HW2 2742   3.893   0.807   1.181
  678SOL    HW3 2743   3.744   0.788   1.199
  678SOL    MW4 2744   3.819   0.767   1.160
  679SOL     OW 2745   3.604   0.860   1.267
  679SOL    HW2 2746   3.598   0.955   1.254
  679SOL    HW3 2747   3.523   0.826   1.229
  679SOL    MW4 2748   3.593   0.868   1.260
  680SOL     OW 2749   3.605   1.125   1.144
  680SOL    HW2 2750   3.684   1.169   1.176
  680SOL    HW3 2751   3.533   1.185   1.166
  680SOL    MW4 2752   3.606   1.139   1.151
  681SOL     OW 2753   3.834   1.270   1.233
  681SOL    HW2 2754   3.823   1.274   1.328
  681SOL    HW3 2755   3.817   1.359   1.203
  681SOL    MW4 2756   3.831   1.282   1.242
  682SOL     OW 2757   3.795   1.517   1.124
  682SOL    HW2 2758   3.869   1.574   1.145
  682SOL    HW3 2759   3.788   1.522   1.029
  682SOL    MW4 2760   3.804   1.525   1.114
  683SOL     OW 2761   3.570   1.683   1.207
  683SOL    HW2 2762   3.567   1.777   1.190
  683SOL    HW3 2763   3.654   1.655   1.170
  683SOL    MW4 2764   3.581   1.692   1.200
  684SOL     OW 2765   3.553   1.947   1.143
  684SOL    HW2 2766   3.623   2.010   1.159
  684SOL    HW3 2767   3.541   1.946   1.048
  684SOL    MW4 2768   3.561   1.955   1.133
  685SOL     OW 2769   3.779   2.100   1.209
  685SOL    HW2 2770   3.784   2.110   1.304
  685SOL    HW3 2771   3.855   2.047   1.186
  685SOL    MW4 2772   3.789   2.094   1.219
  686SOL     OW 2773   3.770   2.365   1.143
  686SOL    HW2 2774   3.854   2.390   1.181
  686SOL    HW3 2775   3.762   2.272   1.161
  686SOL    MW4 2776   3.780   2.356   1.150
  687SOL     OW 2777   3.564   2.523   1.237
  687SOL    HW2 2778   3.557   2.498   1.329
  687SOL    HW3 2779   3.644   2.479   1.207
  687SOL    MW4 2780   3.574   2.514   1.245
  688SOL     OW 2781   3.642   2.732   1.080
  688SOL    HW2 2782   3.625   2.655   1.135
  688SOL    HW3 2783   3.563   2.785   1.087
  688SOL    MW4 2784   3.630   2.729   1.088
  689SOL     OW 2785   3.827   2.906   1.238
  689SOL    HW2 2786   3.829   2.883   1.331
  689SOL    HW3 2787   3.769   2.842   1.198
  689SOL    MW4 2788   3.820   2.895   1.245
  690SOL     OW 2789   3.825   3.126   1.066
  690SOL    HW2 2790   3.806   3.052   1.124
  690SOL    HW3 2791   3.831   3.087   0.979
  690SOL    MW4 2792   3.823   3.111   1.062
  691SOL     OW 2793   3.570   3.217   1.174
  691SOL    HW2 2794   3.576   3.312   1.165
  691SOL    HW3 2795   3.645   3.183   1.127
  691SOL    MW4 2796   3.580   3.225   1.167
  692SOL     OW 2797   3.590   3.503   1.165
  692SOL    HW2 2798   3.678   3.532   1.188
  692SOL    HW3 2799   3.590   3.500   1.069
  692SOL    MW4 2800   3.602   3.507   1.155
  693SOL     OW 2801   3.861   3.605   1.244
  693SOL    HW2 2802   3.858   3.593   1.338
  693SOL    HW3 2803   3.840   3.698   1.231
  693SOL    MW4 2804   3.858   3.616   1.254
  694SOL     OW 2805   3.849   3.888   1.166
  694SOL    HW2 2806   3.779   3.941   1.204
  694SOL    HW3 2807   3.838   3.899   1.072
  694SOL    MW4 2808   3.838   3.896   1.159
  695SOL     OW 2809   3.622   4.005   1.263
  695SOL    HW2 2810   3.608   4.003   1.357
  695SOL    HW3 2811   3.547   3.957   1.227
  695SOL    MW4 2812   3.610   3.998   1.271
  696SOL     OW 2813   3.557   4.258   1.143
  696SOL    HW2 2814   3.590   4.182   1.191
  696SOL    HW3 2815   3.562   4.232   1.051
  696SOL    MW4 2816   3.562   4.245   1.137
  697SOL     OW 2817   3.781   4.435   1.228
  697SOL    HW2 2818   3.788   4.449   1.323
  697SOL    HW3 2819   3.706   4.376   1.218
  697SOL    MW4 2820   3.772   4.429   1.239
  698SOL     OW 2821   4.298   4.636   1.125
  698SOL    HW2 2822   4.269   4.551   1.158
  698SOL    HW3 2823   4.223   4.694   1.139
  698SOL    MW4 2824   4.284   4.632   1.131
  699SOL     OW 2825   4.065   0.132   1.210
  699SOL    HW2 2826   4.059   0.123   1.305
  699SOL    HW3 2827   3.988   0.085   1.177
  699SOL    MW4 2828   4.054   0.124   1.218
  700SOL     OW 2829   4.060   0.402   1.127
  700SOL    HW2 2830   4.064   0.313   1.163
  700SOL    HW3 2831   4.045   0.389   1.033
  700SOL    MW4 2832   4.058   0.388   1.119
  701SOL     OW 2833   4.296   0.528   1.221
  701SOL    HW2 2834   4.285   0.491   1.309
  701SOL    HW3 2835   4.224   0.489   1.171
  701SOL    MW4 2836   4.285   0.518   1.226
  702SOL     OW 2837   4.274   0.783   1.140
  702SOL    HW2 2838   4.291   0.695   1.172
  702SOL    HW3 2839   4.250   0.771   1.048
  702SOL    MW4 2840   4.273   0.770   1.132
  703SOL     OW 2841   4.035   0.876   1.250
  703SOL    HW2 2842   4.039   0.870   1.345
  703SOL    HW3 2843   4.120   0.843   1.219
  703SOL    MW4 2844   4.047   0.871   1.258
  704SOL     OW 2845   4.054   1.137   1.134
  704SOL    HW2 2846   4.055   1.058   1.187
  704SOL    HW3 2847   3.985   1.191   1.174
  704SOL    MW4 2848   4.045   1.134   1.147
  705SOL     OW 2849   4.276   1.263   1.245
  705SOL    HW2 2850   4.272   1.248   1.340
  705SOL    HW3 2851   4.193   1.226   1.212
  705SOL    MW4 2852   4.264   1.256   1.253
  706SOL     OW 2853   4.242   1.534   1.183
  706SOL    HW2 2854   4.253   1.449   1.225
  706SOL    HW3 2855   4.319   1.584   1.210
  706SOL    MW4 2856   4.254   1.530   1.192
  707SOL     OW 2857   4.015   1.672   1.224
  707SOL    HW2 2858   4.004   1.662   1.318
  707SOL    HW3 2859   4.091   1.618   1.203
  707SOL    MW4 2860   4.023   1.664   1.233
  708SOL     OW 2861   3.993   1.963   1.122
  708SOL    HW2 2862   4.023   1.872   1.126
  708SOL    HW3 2863   3.999   1.986   1.030
  708SOL    MW4 2864   3.998   1.954   1.111
  709SOL     OW 2865   4.242   2.026   1.243
  709SOL    HW2 2866   4.252   2.116   1.210
  709SOL    HW3 2867   4.152   2.003   1.221
  709SOL    MW4 2868   4.231   2.035   1.236
  710SOL     OW 2869   4.238   2.286   1.163
  710SOL    HW2 2870   4.156   2.336   1.168
  710SOL    HW3 2871   4.281   2.319   1.084
  710SOL    MW4 2872   4.233   2.297   1.153
  711SOL     OW 2873   4.036   2.455   1.231
  711SOL    HW2 2874   4.026   2.450   1.326
  711SOL    HW3 2875   4.039   2.549   1.212
  711SOL    MW4 2876   4.035   2.467   1.241
  712SOL     OW 2877   4.039   2.754   1.173
  712SOL    HW2 2878   3.973   2.820   1.195
  712SOL    HW3 2879   4.036   2.747   1.078
  712SOL    MW4 2880   4.030   2.762   1.163
  713SOL     OW 2881   4.283   2.855   1.237
  713SOL    HW2 2882   4.281   2.933   1.180
  713SOL    HW3 2883   4.198   2.814   1.223
  713SOL    MW4 2884   4.271   2.860   1.227
  714SOL     OW 2885   4.269   3.085   1.083
  714SOL    HW2 2886   4.191   3.132   1.112
  714SOL    HW3 2887   4.265   3.087   0.987
  714SOL    MW4 2888   4.258   3.091   1.074
  715SOL     OW 2889   4.061   3.236   1.175
  715SOL    HW2 2890   4.034   3.234   1.267
  715SOL    HW3 2891   3.983   3.210   1.126
  715SOL    MW4 2892   4.047   3.233   1.181
  716SOL     OW 2893   4.073   3.512   1.093
  716SOL    HW2 2894   4.084   3.425   1.132
  716SOL    HW3 2895   4.002   3.551   1.144
  716SOL    MW4 2896   4.065   3.505   1.105
  717SOL     OW 2897   4.296   3.630   1.229
  717SOL    HW2 2898   4.222   3.593   1.182
  717SOL    HW3 2899   4.370   3.575   1.206
  717SOL    MW4 2900   4.296   3.618   1.220
  718SOL     OW 2901   4.245   3.886   1.124
  718SOL    HW2 2902   4.193   3.940   1.184
  718SOL    HW3 2903   4.266   3.808   1.175
  718SOL    MW4 2904   4.241   3.883   1.139
  719SOL     OW 2905   4.051   4.019   1.271
  719SOL    HW2 2906   4.044   4.102   1.224
  719SOL    HW3 2907   3.990   3.961   1.225
  719SOL    MW4 2908   4.042   4.022   1.259
  720SOL     OW 2909   4.000   4.267   1.127
  720SOL    HW2 2910   3.919   4.315   1.144
  720SOL    HW3 2911   4.003   4.260   1.032
  720SOL    MW4 2912   3.990   4.272   1.117
  721SOL     OW 2913   4.235   4.390   1.257
  721SOL    HW2 2914   4.160   4.339   1.227
  721SOL    HW3 2915   4.310   4.353   1.211
  721SOL    MW4 2916   4.235   4.378   1.247
  722SOL     OW 2917   0.234   4.617   1.635
  722SOL    HW2 2918   0.309   4.668   1.604
  722SOL    HW3 2919   0.160   4.649   1.583
  722SOL    MW4 2920   0.234   4.628   1.624
  723SOL     OW 2921   0.022   0.065   1.512
  723SOL    HW2 2922  -0.063   0.028   1.535
  723SOL    HW3 2923   0.023   0.064   1.416
  723SOL    MW4 2924   0.011   0.060   1.503
  724SOL     OW 2925   0.012   0.345   1.607
  724SOL    HW2 2926   0.004   0.339   1.702
  724SOL    HW3 2927   0.014   0.255   1.577
  724SOL    MW4 2928   0.012   0.333   1.616
  725SOL     OW 2929   0.248   0.449   1.540
  725SOL    HW2 2930   0.170   0.423   1.589
  725SOL    HW3 2931   0.218   0.451   1.449
  725SOL    MW4 2932   0.234   0.446   1.534
  726SOL     OW 2933   0.227   0.742   1.609
  726SOL    HW2 2934   0.296   0.795   1.570
  726SOL    HW3 2935   0.252   0.652   1.590
  726SOL    MW4 2936   0.239   0.738   1.602
  727SOL     OW 2937   0.004   0.827   1.486
  727SOL    HW2 2938   0.003   0.915   1.523
  727SOL    HW3 2939   0.064   0.778   1.542
  727SOL    MW4 2940   0.012   0.832   1.498
  728SOL     OW 2941   4.468   1.087   1.602
  728SOL    HW2 2942   4.461   1.103   1.696
  728SOL    HW3 2943   4.549   1.132   1.575
  728SOL    MW4 2944   4.478   1.095   1.611
  729SOL     OW 2945   0.181   1.246   1.548
  729SOL    HW2 2946   0.196   1.337   1.571
  729SOL    HW3 2947   0.179   1.245   1.453
  729SOL    MW4 2948   0.183   1.258   1.539
  730SOL     OW 2949   0.243   1.508   1.613
  730SOL    HW2 2950   0.243   1.520   1.708
  730SOL    HW3 2951   0.167   1.556   1.582
  730SOL    MW4 2952   0.233   1.516   1.621
  731SOL     OW 2953   0.019   1.623   1.519
  731SOL    HW2 2954   0.009   1.715   1.541
  731SOL    HW3 2955   0.033   1.622   1.424
  731SOL    MW4 2956   0.019   1.635   1.510
  732SOL     OW 2957   4.454   1.885   1.578
  732SOL    HW2 2958   4.471   1.889   1.673
  732SOL    HW3 2959   4.380   1.943   1.564
  732SOL    MW4 2960   4.447   1.893   1.589
  733SOL     OW 2961   0.212   2.011   1.511
  733SOL    HW2 2962   0.133   1.958   1.526
  733SOL    HW3 2963   0.215   2.024   1.416
  733SOL    MW4 2964   0.202   2.005   1.501
  734SOL     OW 2965   0.242   2.279   1.589
  734SOL    HW2 2966   0.227   2.294   1.683
  734SOL    HW3 2967   0.217   2.188   1.575
  734SOL    MW4 2968   0.237   2.269   1.600
  735SOL     OW 2969   0.022   2.418   1.513
  735SOL    HW2 2970  -0.062   2.372   1.522
  735SOL    HW3 2971   0.088   2.351   1.533
  735SOL    MW4 2972   0.020   2.403   1.517
  736SOL     OW 2973   0.008   2.690   1.657
  736SOL    HW2 2974  -0.064   2.740   1.618
  736SOL    HW3 2975   0.008   2.607   1.608
  736SOL    MW4 2976  -0.002   2.685   1.645
  737SOL     OW 2977   0.212   2.798   1.511
  737SOL    HW2 2978   0.289   2.750   1.541
  737SOL    HW3 2979   0.138   2.755   1.555
  737SOL    MW4 2980   0.212   2.786   1.521
  738SOL     OW 2981   0.218   3.064   1.599
  738SOL    HW2 2982   0.142   3.095   1.550
  738SOL    HW3 2983   0.240   2.980   1.558
  738SOL    MW4 2984   0.211   3.057   1.587
  739SOL     OW 2985   4.484   3.211   1.524
  739SOL    HW2 2986   4.492   3.305   1.543
  739SOL    HW3 2987   4.471   3.207   1.429
  739SOL    MW4 2988   4.483   3.223   1.514
  740SOL     OW 2989   4.478   3.469   1.599
  740SOL    HW2 2990   4.484   3.472   1.694
  740SOL    HW3 2991   4.393   3.509   1.579
  740SOL    MW4 2992   4.467   3.474   1.609
  741SOL     OW 2993   0.230   3.609   1.533
  741SOL    HW2 2994   0.232   3.692   1.580
  741SOL    HW3 2995   0.153   3.563   1.568
  741SOL    MW4 2996   0.220   3.614   1.544
  742SOL     OW 2997   0.189   3.872   1.656
  742SOL    HW2 2998   0.189   3.891   1.750
  742SOL    HW3 2999   0.264   3.920   1.621
  742SOL    MW4 3000   0.199   3.881   1.664
  743SOL     OW 3001   4.486   3.976   1.488
  743SOL    HW2 3002   4.497   4.061   1.530
  743SOL    HW3 3003   4.545   3.918   1.537
  743SOL    MW4 3004   4.496   3.980   1.500
  744SOL     OW 3005   0.010   4.223   1.616
  744SOL    HW2 3006  -0.003   4.222   1.711
  744SOL    HW3 3007  -0.064   4.274   1.583
  744SOL    MW4 3008  -0.001   4.230   1.624
  745SOL     OW 3009   0.243   4.354   1.552
  745SOL    HW2 3010   0.161   4.317   1.585
  745SOL    HW3 3011   0.239   4.446   1.578
  745SOL    MW4 3012   0.231   4.361   1.560
  746SOL     OW 3013   0.674   4.610   1.645
  746SOL    HW2 3014   0.757   4.650   1.619
  746SOL    HW3 3015   0.609   4.648   1.586
  746SOL    MW4 3016   0.676   4.620   1.634
  747SOL     OW 3017   0.450   0.044   1.498
  747SOL    HW2 3018   0.459   0.130   1.539
  747SOL    HW3 3019   0.460   0.061   1.404
  747SOL    MW4 3020   0.453   0.058   1.491
  748SOL     OW 3021   0.481   0.309   1.579
  748SOL    HW2 3022   0.544   0.372   1.543
  748SOL    HW3 3023   0.395   0.347   1.558
  748SOL    MW4 3024   0.478   0.323   1.571
  749SOL     OW 3025   0.693   0.491   1.510
  749SOL    HW2 3026   0.697   0.582   1.540
  749SOL    HW3 3027   0.702   0.497   1.414
  749SOL    MW4 3028   0.695   0.504   1.501
  750SOL     OW 3029   0.651   0.762   1.596
  750SOL    HW2 3030   0.671   0.756   1.689
  750SOL    HW3 3031   0.722   0.815   1.560
  750SOL    MW4 3032   0.663   0.768   1.603
  751SOL     OW 3033   0.429   0.912   1.507
  751SOL    HW2 3034   0.421   0.994   1.556
  751SOL    HW3 3035   0.496   0.862   1.553
  751SOL    MW4 3036   0.437   0.916   1.520
  752SOL     OW 3037   0.421   1.153   1.628
  752SOL    HW2 3038   0.488   1.205   1.583
  752SOL    HW3 3039   0.339   1.181   1.588
  752SOL    MW4 3040   0.419   1.163   1.617
  753SOL     OW 3041   0.645   1.257   1.517
  753SOL    HW2 3042   0.668   1.343   1.552
  753SOL    HW3 3043   0.640   1.270   1.422
  753SOL    MW4 3044   0.647   1.270   1.509
  754SOL     OW 3045   0.708   1.516   1.612
  754SOL    HW2 3046   0.783   1.565   1.577
  754SOL    HW3 3047   0.632   1.565   1.581
  754SOL    MW4 3048   0.708   1.529   1.603
  755SOL     OW 3049   0.473   1.629   1.498
  755SOL    HW2 3050   0.467   1.723   1.518
  755SOL    HW3 3051   0.392   1.592   1.532
  755SOL    MW4 3052   0.462   1.637   1.505
  756SOL     OW 3053   0.449   1.889   1.596
  756SOL    HW2 3054   0.451   1.893   1.692
  756SOL    HW3 3055   0.363   1.923   1.572
  756SOL    MW4 3056   0.438   1.894   1.606
  757SOL     OW 3057   0.640   2.064   1.513
  757SOL    HW2 3058   0.723   2.024   1.539
  757SOL    HW3 3059   0.574   2.001   1.541
  757SOL    MW4 3060   0.642   2.050   1.520
  758SOL     OW 3061   0.644   2.329   1.614
  758SOL    HW2 3062   0.585   2.378   1.557
  758SOL    HW3 3063   0.626   2.237   1.594
  758SOL    MW4 3064   0.634   2.324   1.604
  759SOL     OW 3065   0.450   2.462   1.479
  759SOL    HW2 3066   0.452   2.551   1.514
  759SOL    HW3 3067   0.384   2.417   1.532
  759SOL    MW4 3068   0.441   2.468   1.491
  760SOL     OW 3069   0.453   2.703   1.597
  760SOL    HW2 3070   0.429   2.694   1.690
  760SOL    HW3 3071   0.523   2.768   1.597
  760SOL    MW4 3072   0.459   2.710   1.610
  761SOL     OW 3073   0.677   2.845   1.536
  761SOL    HW2 3074   0.695   2.937   1.556
  761SOL    HW3 3075   0.690   2.838   1.442
  761SOL    MW4 3076   0.681   2.856   1.526
  762SOL     OW 3077   0.699   3.122   1.575
  762SOL    HW2 3078   0.765   3.188   1.552
  762SOL    HW3 3079   0.616   3.162   1.549
  762SOL    MW4 3080   0.697   3.136   1.568
  763SOL     OW 3081   0.435   3.210   1.519
  763SOL    HW2 3082   0.357   3.158   1.536
  763SOL    HW3 3083   0.424   3.242   1.429
  763SOL    MW4 3084   0.423   3.207   1.509
  764SOL     OW 3085   0.484   3.478   1.624
  764SOL    HW2 3086   0.468   3.386   1.603
  764SOL    HW3 3087   0.408   3.524   1.589
  764SOL    MW4 3088   0.472   3.472   1.616
  765SOL     OW 3089   0.690   3.642   1.525
  765SOL    HW2 3090   0.775   3.609   1.553
  765SOL    HW3 3091   0.627   3.582   1.566
  765SOL    MW4 3092   0.693   3.630   1.534
  766SOL     OW 3093   0.657   3.909   1.608
  766SOL    HW2 3094   0.732   3.952   1.566
  766SOL    HW3 3095   0.661   3.818   1.577
  766SOL    MW4 3096   0.668   3.903   1.598
  767SOL     OW 3097   0.398   4.019   1.517
  767SOL    HW2 3098   0.487   3.986   1.529
  767SOL    HW3 3099   0.395   4.046   1.425
  767SOL    MW4 3100   0.410   4.018   1.507
  768SOL     OW 3101   0.471   4.243   1.662
  768SOL    HW2 3102   0.451   4.163   1.613
  768SOL    HW3 3103   0.398   4.302   1.643
  768SOL    MW4 3104   0.458   4.241   1.653
  769SOL     OW 3105   0.648   4.389   1.492
  769SOL    HW2 3106   0.598   4.325   1.542
  769SOL    HW3 3107   0.647   4.468   1.546
  769SOL    MW4 3108   0.641   4.391   1.506
  770SOL     OW 3109   1.173   4.648   1.559
  770SOL    HW2 3110   1.173   4.651   1.655
  770SOL    HW3 3111   1.250   4.698   1.533
  770SOL    MW4 3112   1.183   4.655   1.569
  771SOL     OW 3113   0.892   0.067   1.528
  771SOL    HW2 3114   0.896   0.162   1.544
  771SOL    HW3 3115   0.983   0.038   1.539
  771SOL    MW4 3116   0.905   0.076   1.531
  772SOL     OW 3117   0.915   0.327   1.591
  772SOL    HW2 3118   0.937   0.335   1.684
  772SOL    HW3 3119   0.839   0.384   1.580
  772SOL    MW4 3120   0.908   0.335   1.602
  773SOL     OW 3121   1.122   0.483   1.475
  773SOL    HW2 3122   1.121   0.575   1.502
  773SOL    HW3 3123   1.032   0.453   1.492
  773SOL    MW4 3124   1.110   0.491   1.481
  774SOL     OW 3125   1.122   0.744   1.569
  774SOL    HW2 3126   1.119   0.744   1.664
  774SOL    HW3 3127   1.194   0.804   1.547
  774SOL    MW4 3128   1.131   0.752   1.578
  775SOL     OW 3129   0.893   0.888   1.499
  775SOL    HW2 3130   0.973   0.843   1.526
  775SOL    HW3 3131   0.893   0.883   1.404
  775SOL    MW4 3132   0.903   0.882   1.490
  776SOL     OW 3133   0.901   1.169   1.638
  776SOL    HW2 3134   0.901   1.077   1.609
  776SOL    HW3 3135   0.818   1.204   1.606
  776SOL    MW4 3136   0.890   1.161   1.630
  777SOL     OW 3137   1.123   1.293   1.487
  777SOL    HW2 3138   1.198   1.257   1.535
  777SOL    HW3 3139   1.048   1.246   1.523
  777SOL    MW4 3140   1.123   1.282   1.498
  778SOL     OW 3141   1.138   1.514   1.649
  778SOL    HW2 3142   1.207   1.568   1.611
  778SOL    HW3 3143   1.136   1.436   1.594
  778SOL    MW4 3144   1.147   1.511   1.637
  779SOL     OW 3145   0.921   1.659   1.536
  779SOL    HW2 3146   1.002   1.629   1.575
  779SOL    HW3 3147   0.942   1.672   1.443
  779SOL    MW4 3148   0.934   1.657   1.529
  780SOL     OW 3149   0.876   1.935   1.563
  780SOL    HW2 3150   0.964   1.970   1.546
  780SOL    HW3 3151   0.882   1.842   1.540
  780SOL    MW4 3152   0.889   1.927   1.558
  781SOL     OW 3153   1.120   2.053   1.511
  781SOL    HW2 3154   1.203   2.018   1.542
  781SOL    HW3 3155   1.112   2.139   1.552
  781SOL    MW4 3156   1.130   2.059   1.520
  782SOL     OW 3157   1.129   2.313   1.614
  782SOL    HW2 3158   1.198   2.362   1.570
  782SOL    HW3 3159   1.047   2.348   1.579
  782SOL    MW4 3160   1.127   2.324   1.603
  783SOL     OW 3161   0.885   2.447   1.525
  783SOL    HW2 3162   0.878   2.539   1.550
  783SOL    HW3 3163   0.803   2.408   1.555
  783SOL    MW4 3164   0.873   2.454   1.532
  784SOL     OW 3165   0.905   2.712   1.597
  784SOL    HW2 3166   0.928   2.718   1.689
  784SOL    HW3 3167   0.830   2.770   1.587
  784SOL    MW4 3168   0.898   2.720   1.608
  785SOL     OW 3169   1.122   2.842   1.463
  785SOL    HW2 3170   1.137   2.925   1.510
  785SOL    HW3 3171   1.044   2.805   1.504
  785SOL    MW4 3172   1.114   2.848   1.475
  786SOL     OW 3173   1.108   3.111   1.579
  786SOL    HW2 3174   1.127   3.104   1.673
  786SOL    HW3 3175   1.186   3.150   1.541
  786SOL    MW4 3176   1.120   3.115   1.586
  787SOL     OW 3177   0.904   3.288   1.511
  787SOL    HW2 3178   0.966   3.220   1.537
  787SOL    HW3 3179   0.895   3.278   1.416
  787SOL    MW4 3180   0.911   3.278   1.502
  788SOL     OW 3181   0.922   3.534   1.620
  788SOL    HW2 3182   1.009   3.553   1.584
  788SOL    HW3 3183   0.902   3.446   1.588
  788SOL    MW4 3184   0.931   3.525   1.611
  789SOL     OW 3185   1.141   3.642   1.513
  789SOL    HW2 3186   1.224   3.595   1.525
  789SOL    HW3 3187   1.122   3.633   1.420
  789SOL    MW4 3188   1.149   3.634   1.502
  790SOL     OW 3189   1.099   3.899   1.631
  790SOL    HW2 3190   1.194   3.909   1.618
  790SOL    HW3 3191   1.081   3.809   1.605
  790SOL    MW4 3192   1.109   3.888   1.626
  791SOL     OW 3193   0.866   4.020   1.471
  791SOL    HW2 3194   0.884   4.110   1.497
  791SOL    HW3 3195   0.926   3.968   1.525
  791SOL    MW4 3196   0.876   4.025   1.481
  792SOL     OW 3197   0.895   4.292   1.557
  792SOL    HW2 3198   0.897   4.281   1.652
  792SOL    HW3 3199   0.811   4.334   1.539
  792SOL    MW4 3200   0.884   4.296   1.567
  793SOL     OW 3201   1.163   4.372   1.491
  793SOL    HW2 3202   1.070   4.358   1.511
  793SOL    HW3 3203   1.180   4.462   1.518
  793SOL    MW4 3204   1.153   4.382   1.497
  794SOL     OW 3205   1.584   4.635   1.610
  794SOL    HW2 3206   1.573   4.635   1.705
  794SOL    HW3 3207   1.514   4.694   1.578
  794SOL    MW4 3208   1.573   4.643   1.618
  795SOL     OW 3209   1.394   0.119   1.492
  795SOL    HW2 3210   1.369   0.208   1.518
  795SOL    HW3 3211   1.379   0.116   1.398
  795SOL    MW4 3212   1.389   0.130   1.483
  796SOL     OW 3213   1.356   0.363   1.575
  796SOL    HW2 3214   1.429   0.417   1.545
  796SOL    HW3 3215   1.278   0.412   1.552
  796SOL    MW4 3216   1.356   0.376   1.568
  797SOL     OW 3217   1.558   0.546   1.503
  797SOL    HW2 3218   1.626   0.484   1.528
  797SOL    HW3 3219   1.545   0.532   1.409
  797SOL    MW4 3220   1.565   0.536   1.494
  798SOL     OW 3221   1.560   0.803   1.558
  798SOL    HW2 3222   1.559   0.799   1.654
  798SOL    HW3 3223   1.571   0.712   1.530
  798SOL    MW4 3224   1.561   0.791   1.567
  799SOL     OW 3225   1.314   0.940   1.489
  799SOL    HW2 3226   1.398   0.896   1.483
  799SOL    HW3 3227   1.283   0.947   1.399
  799SOL    MW4 3228   1.321   0.935   1.477
  800SOL     OW 3229   1.343   1.188   1.621
  800SOL    HW2 3230   1.363   1.170   1.713
  800SOL    HW3 3231   1.313   1.104   1.586
  800SOL    MW4 3232   1.341   1.174   1.629
  801SOL     OW 3233   1.585   1.309   1.519
  801SOL    HW2 3234   1.504   1.268   1.550
  801SOL    HW3 3235   1.567   1.330   1.427
  801SOL    MW4 3236   1.572   1.306   1.511
  802SOL     OW 3237   1.573   1.570   1.614
  802SOL    HW2 3238   1.569   1.557   1.708
  802SOL    HW3 3239   1.596   1.484   1.578
  802SOL    MW4 3240   1.576   1.557   1.622
  803SOL     OW 3241   1.337   1.665   1.514
  803SOL    HW2 3242   1.415   1.625   1.552
  803SOL    HW3 3243   1.343   1.647   1.421
  803SOL    MW4 3244   1.348   1.657   1.507
  804SOL     OW 3245   1.358   1.929   1.595
  804SOL    HW2 3246   1.361   1.917   1.690
  804SOL    HW3 3247   1.359   1.840   1.560
  804SOL    MW4 3248   1.359   1.916   1.603
  805SOL     OW 3249   1.597   2.053   1.502
  805SOL    HW2 3250   1.515   2.010   1.528
  805SOL    HW3 3251   1.611   2.025   1.412
  805SOL    MW4 3252   1.588   2.043   1.494
  806SOL     OW 3253   1.579   2.294   1.629
  806SOL    HW2 3254   1.654   2.336   1.586
  806SOL    HW3 3255   1.580   2.204   1.595
  806SOL    MW4 3256   1.589   2.288   1.618
  807SOL     OW 3257   1.340   2.434   1.512
  807SOL    HW2 3258   1.349   2.522   1.550
  807SOL    HW3 3259   1.416   2.386   1.545
  807SOL    MW4 3260   1.351   2.439   1.522
  808SOL     OW 3261   1.329   2.698   1.595
  808SOL    HW2 3262   1.409   2.740   1.563
  808SOL    HW3 3263   1.258   2.746   1.552
  808SOL    MW4 3264   1.331   2.710   1.585
  809SOL     OW 3265   1.562   2.837   1.473
  809SOL    HW2 3266   1.629   2.777   1.507
  809SOL    HW3 3267   1.568   2.828   1.378
  809SOL    MW4 3268   1.572   2.828   1.465
  810SOL     OW 3269   1.562   3.092   1.582
  810SOL    HW2 3270   1.643   3.129   1.547
  810SOL    HW3 3271   1.555   3.005   1.543
  810SOL    MW4 3272   1.571   3.085   1.572
  811SOL     OW 3273   1.327   3.229   1.476
  811SOL    HW2 3274   1.323   3.322   1.498
  811SOL    HW3 3275   1.408   3.198   1.516
  811SOL    MW4 3276   1.337   3.237   1.484
  812SOL     OW 3277   1.361   3.491   1.593
  812SOL    HW2 3278   1.347   3.510   1.686
  812SOL    HW3 3279   1.434   3.547   1.567
  812SOL    MW4 3280   1.369   3.501   1.602
  813SOL     OW 3281   1.595   3.583   1.529
  813SOL    HW2 3282   1.600   3.676   1.550
  813SOL    HW3 3283   1.595   3.580   1.433
  813SOL    MW4 3284   1.596   3.595   1.519
  814SOL     OW 3285   1.581   3.862   1.624
  814SOL    HW2 3286   1.576   3.876   1.719
  814SOL    HW3 3287   1.498   3.895   1.590
  814SOL    MW4 3288   1.569   3.869   1.632
  815SOL     OW 3289   1.348   3.982   1.536
  815SOL    HW2 3290   1.345   4.075   1.559
  815SOL    HW3 3291   1.337   3.981   1.440
  815SOL    MW4 3292   1.346   3.994   1.526
  816SOL     OW 3293   1.357   4.244   1.606
  816SOL    HW2 3294   1.435   4.271   1.558
  816SOL    HW3 3295   1.286   4.295   1.567
  816SOL    MW4 3296   1.358   4.254   1.594
  817SOL     OW 3297   1.600   4.375   1.503
  817SOL    HW2 3298   1.676   4.340   1.549
  817SOL    HW3 3299   1.584   4.460   1.544
  817SOL    MW4 3300   1.607   4.381   1.514
  818SOL     OW 3301   2.012   4.648   1.581
  818SOL    HW2 3302   2.003   4.626   1.674
  818SOL    HW3 3303   1.934   4.699   1.561
  818SOL    MW4 3304   2.000   4.652   1.591
  819SOL     OW 3305   1.783   0.129   1.500
  819SOL    HW2 3306   1.714   0.074   1.537
  819SOL    HW3 3307   1.769   0.125   1.405
  819SOL    MW4 3308   1.772   0.121   1.492
  820SOL     OW 3309   1.763   0.387   1.591
  820SOL    HW2 3310   1.823   0.432   1.531
  820SOL    HW3 3311   1.770   0.295   1.567
  820SOL    MW4 3312   1.772   0.381   1.580
  821SOL     OW 3313   1.980   0.505   1.479
  821SOL    HW2 3314   2.048   0.438   1.487
  821SOL    HW3 3315   2.023   0.586   1.509
  821SOL    MW4 3316   1.995   0.507   1.484
  822SOL     OW 3317   2.079   0.747   1.556
  822SOL    HW2 3318   2.161   0.784   1.525
  822SOL    HW3 3319   2.015   0.817   1.544
  822SOL    MW4 3320   2.081   0.761   1.550
  823SOL     OW 3321   1.813   0.926   1.510
  823SOL    HW2 3322   1.797   1.003   1.565
  823SOL    HW3 3323   1.733   0.874   1.517
  823SOL    MW4 3324   1.800   0.929   1.518
  824SOL     OW 3325   1.794   1.178   1.649
  824SOL    HW2 3326   1.872   1.211   1.603
  824SOL    HW3 3327   1.720   1.217   1.601
  824SOL    MW4 3328   1.794   1.187   1.636
  825SOL     OW 3329   2.024   1.240   1.510
  825SOL    HW2 3330   2.036   1.330   1.538
  825SOL    HW3 3331   2.022   1.244   1.415
  825SOL    MW4 3332   2.025   1.252   1.501
  826SOL     OW 3333   2.004   1.518   1.618
  826SOL    HW2 3334   2.080   1.565   1.585
  826SOL    HW3 3335   1.929   1.570   1.587
  826SOL    MW4 3336   2.004   1.531   1.610
  827SOL     OW 3337   1.812   1.688   1.500
  827SOL    HW2 3338   1.722   1.659   1.513
  827SOL    HW3 3339   1.819   1.702   1.405
  827SOL    MW4 3340   1.801   1.686   1.489
  828SOL     OW 3341   1.816   1.954   1.600
  828SOL    HW2 3342   1.835   1.865   1.570
  828SOL    HW3 3343   1.729   1.973   1.565
  828SOL    MW4 3344   1.807   1.945   1.591
  829SOL     OW 3345   2.032   2.091   1.473
  829SOL    HW2 3346   2.107   2.042   1.505
  829SOL    HW3 3347   1.957   2.050   1.516
  829SOL    MW4 3348   2.032   2.079   1.482
  830SOL     OW 3349   2.036   2.342   1.594
  830SOL    HW2 3350   2.031   2.316   1.686
  830SOL    HW3 3351   2.053   2.260   1.547
  830SOL    MW4 3352   2.038   2.328   1.600
  831SOL     OW 3353   1.788   2.431   1.510
  831SOL    HW2 3354   1.868   2.387   1.540
  831SOL    HW3 3355   1.803   2.446   1.417
  831SOL    MW4 3356   1.801   2.427   1.501
  832SOL     OW 3357   1.786   2.695   1.581
  832SOL    HW2 3358   1.873   2.721   1.549
  832SOL    HW3 3359   1.775   2.606   1.549
  832SOL    MW4 3360   1.796   2.687   1.573
  833SOL     OW 3361   2.033   2.779   1.491
  833SOL    HW2 3362   2.018   2.867   1.525
  833SOL    HW3 3363   2.029   2.788   1.396
  833SOL    MW4 3364   2.031   2.792   1.483
  834SOL     OW 3365   2.004   3.043   1.609
  834SOL    HW2 3366   1.988   3.055   1.703
  834SOL    HW3 3367   2.078   3.101   1.590
  834SOL    MW4 3368   2.012   3.052   1.619
  835SOL     OW 3369   1.800   3.204   1.505
  835SOL    HW2 3370   1.821   3.291   1.538
  835SOL    HW3 3371   1.858   3.145   1.552
  835SOL    MW4 3372   1.810   3.207   1.516
  836SOL     OW 3373   1.851   3.470   1.584
  836SOL    HW2 3374   1.844   3.455   1.679
  836SOL    HW3 3375   1.768   3.513   1.561
  836SOL    MW4 3376   1.839   3.474   1.594
  837SOL     OW 3377   2.056   3.645   1.488
  837SOL    HW2 3378   2.139   3.602   1.510
  837SOL    HW3 3379   1.990   3.595   1.535
  837SOL    MW4 3380   2.058   3.633   1.497
  838SOL     OW 3381   2.031   3.894   1.614
  838SOL    HW2 3382   2.114   3.935   1.588
  838SOL    HW3 3383   2.031   3.809   1.570
  838SOL    MW4 3384   2.042   3.888   1.605
  839SOL     OW 3385   1.796   4.013   1.531
  839SOL    HW2 3386   1.866   3.965   1.576
  839SOL    HW3 3387   1.715   3.971   1.561
  839SOL    MW4 3388   1.795   4.001   1.541
  840SOL     OW 3389   1.851   4.269   1.634
  840SOL    HW2 3390   1.932   4.295   1.590
  840SOL    HW3 3391   1.836   4.179   1.603
  840SOL    MW4 3392   1.860   4.260   1.624
  841SOL     OW 3393   2.068   4.392   1.498
  841SOL    HW2 3394   2.142   4.356   1.549
  841SOL    HW3 3395   2.056   4.480   1.533
  841SOL    MW4 3396   2.076   4.398   1.509
  842SOL     OW 3397   2.504   4.644   1.597
  842SOL    HW2 3398   2.507   4.625   1.691
  842SOL    HW3 3399   2.421   4.690   1.584
  842SOL    MW4 3400   2.494   4.647   1.608
  843SOL     OW 3401   2.259   0.099   1.512
  843SOL    HW2 3402   2.172   0.065   1.534
  843SOL    HW3 3403   2.258   0.106   1.416
  843SOL    MW4 3404   2.247   0.095   1.502
  844SOL     OW 3405   2.241   0.378   1.562
  844SOL    HW2 3406   2.234   0.372   1.657
  844SOL    HW3 3407   2.249   0.287   1.533
  844SOL    MW4 3408   2.241   0.365   1.570
  845SOL     OW 3409   2.468   0.512   1.485
  845SOL    HW2 3410   2.545   0.466   1.520
  845SOL    HW3 3411   2.394   0.462   1.518
  845SOL    MW4 3412   2.469   0.499   1.494
  846SOL     OW 3413   2.463   0.761   1.617
  846SOL    HW2 3414   2.404   0.814   1.563
  846SOL    HW3 3415   2.464   0.675   1.574
  846SOL    MW4 3416   2.455   0.757   1.604
  847SOL     OW 3417   2.278   0.901   1.458
  847SOL    HW2 3418   2.290   0.991   1.490
  847SOL    HW3 3419   2.257   0.911   1.365
  847SOL    MW4 3420   2.277   0.915   1.450
  848SOL     OW 3421   2.292   1.156   1.606
  848SOL    HW2 3422   2.302   1.138   1.700
  848SOL    HW3 3423   2.199   1.145   1.589
  848SOL    MW4 3424   2.281   1.152   1.617
  849SOL     OW 3425   2.492   1.304   1.473
  849SOL    HW2 3426   2.423   1.254   1.516
  849SOL    HW3 3427   2.473   1.298   1.380
  849SOL    MW4 3428   2.481   1.297   1.467
  850SOL     OW 3429   2.463   1.538   1.621
  850SOL    HW2 3430   2.539   1.583   1.583
  850SOL    HW3 3431   2.472   1.447   1.591
  850SOL    MW4 3432   2.474   1.532   1.612
  851SOL     OW 3433   2.207   1.667   1.533
  851SOL    HW2 3434   2.279   1.607   1.551
  851SOL    HW3 3435   2.203   1.671   1.437
  851SOL    MW4 3436   2.216   1.659   1.523
  852SOL     OW 3437   2.255   1.937   1.611
  852SOL    HW2 3438   2.255   1.947   1.706
  852SOL    HW3 3439   2.241   1.843   1.597
  852SOL    MW4 3440   2.253   1.926   1.622
  853SOL     OW 3441   2.512   1.989   1.506
  853SOL    HW2 3442   2.421   1.964   1.527
  853SOL    HW3 3443   2.513   1.996   1.411
  853SOL    MW4 3444   2.500   1.986   1.496
  854SOL     OW 3445   2.449   2.249   1.568
  854SOL    HW2 3446   2.435   2.255   1.662
  854SOL    HW3 3447   2.478   2.159   1.553
  854SOL    MW4 3448   2.451   2.238   1.578
  855SOL     OW 3449   2.269   2.459   1.466
  855SOL    HW2 3450   2.320   2.380   1.484
  855SOL    HW3 3451   2.183   2.440   1.504
  855SOL    MW4 3452   2.264   2.446   1.474
  856SOL     OW 3453   2.252   2.678   1.646
  856SOL    HW2 3454   2.256   2.592   1.606
  856SOL    HW3 3455   2.179   2.722   1.603
  856SOL    MW4 3456   2.243   2.673   1.635
  857SOL     OW 3457   2.471   2.803   1.532
  857SOL    HW2 3458   2.476   2.897   1.552
  857SOL    HW3 3459   2.390   2.775   1.575
  857SOL    MW4 3460   2.461   2.812   1.541
  858SOL     OW 3461   2.453   3.067   1.597
  858SOL    HW2 3462   2.528   3.125   1.583
  858SOL    HW3 3463   2.377   3.125   1.598
  858SOL    MW4 3464   2.453   3.082   1.596
  859SOL     OW 3465   2.224   3.212   1.533
  859SOL    HW2 3466   2.225   3.306   1.554
  859SOL    HW3 3467   2.221   3.209   1.438
  859SOL    MW4 3468   2.224   3.224   1.524
  860SOL     OW 3469   2.280   3.484   1.561
  860SOL    HW2 3470   2.281   3.496   1.656
  860SOL    HW3 3471   2.368   3.508   1.532
  860SOL    MW4 3472   2.291   3.489   1.569
  861SOL     OW 3473   2.530   3.566   1.485
  861SOL    HW2 3474   2.596   3.526   1.542
  861SOL    HW3 3475   2.517   3.654   1.521
  861SOL    MW4 3476   2.537   3.572   1.497
  862SOL     OW 3477   2.510   3.817   1.577
  862SOL    HW2 3478   2.506   3.821   1.672
  862SOL    HW3 3479   2.585   3.872   1.553
  862SOL    MW4 3480   2.519   3.824   1.586
  863SOL     OW 3481   2.288   3.991   1.534
  863SOL    HW2 3482   2.357   3.927   1.549
  863SOL    HW3 3483   2.281   3.997   1.439
  863SOL    MW4 3484   2.296   3.984   1.524
  864SOL     OW 3485   2.271   4.259   1.649
  864SOL    HW2 3486   2.340   4.311   1.607
  864SOL    HW3 3487   2.284   4.170   1.616
  864SOL    MW4 3488   2.282   4.254   1.639
  865SOL     OW 3489   2.468   4.403   1.497
  865SOL    HW2 3490   2.477   4.496   1.515
  865SOL    HW3 3491   2.473   4.396   1.402
  865SOL    MW4 3492   2.470   4.414   1.487
  866SOL     OW 3493   2.927   0.001   1.564
  866SOL    HW2 3494   2.918  -0.013   1.658
  866SOL    HW3 3495   2.858   0.064   1.543
  866SOL    MW4 3496   2.917   0.008   1.574
  867SOL     OW 3497   2.712   0.141   1.486
  867SOL    HW2 3498   2.694   0.221   1.535
  867SOL    HW3 3499   2.644   0.080   1.514
  867SOL    MW4 3500   2.701   0.144   1.496
  868SOL     OW 3501   2.673   0.385   1.603
  868SOL    HW2 3502   2.687   0.384   1.698
  868SOL    HW3 3503   2.754   0.422   1.568
  868SOL    MW4 3504   2.686   0.390   1.611
  869SOL     OW 3505   2.918   0.470   1.522
  869SOL    HW2 3506   2.935   0.560   1.549
  869SOL    HW3 3507   2.908   0.475   1.427
  869SOL    MW4 3508   2.919   0.483   1.513
  870SOL     OW 3509   2.913   0.725   1.616
  870SOL    HW2 3510   2.929   0.726   1.710
  870SOL    HW3 3511   2.837   0.782   1.604
  870SOL    MW4 3512   2.905   0.732   1.627
  871SOL     OW 3513   2.694   0.874   1.535
  871SOL    HW2 3514   2.618   0.827   1.569
  871SOL    HW3 3515   2.678   0.881   1.441
  871SOL    MW4 3516   2.682   0.868   1.527
  872SOL     OW 3517   2.691   1.148   1.583
  872SOL    HW2 3518   2.694   1.057   1.553
  872SOL    HW3 3519   2.615   1.186   1.537
  872SOL    MW4 3520   2.681   1.141   1.573
  873SOL     OW 3521   2.900   1.290   1.513
  873SOL    HW2 3522   2.973   1.243   1.553
  873SOL    HW3 3523   2.823   1.240   1.537
  873SOL    MW4 3524   2.900   1.277   1.521
  874SOL     OW 3525   2.907   1.556   1.570
  874SOL    HW2 3526   2.823   1.581   1.532
  874SOL    HW3 3527   2.914   1.462   1.553
  874SOL    MW4 3528   2.897   1.547   1.563
  875SOL     OW 3529   2.672   1.680   1.503
  875SOL    HW2 3530   2.695   1.767   1.537
  875SOL    HW3 3531   2.647   1.695   1.412
  875SOL    MW4 3532   2.671   1.693   1.496
  876SOL     OW 3533   2.752   1.921   1.604
  876SOL    HW2 3534   2.747   1.918   1.700
  876SOL    HW3 3535   2.666   1.952   1.577
  876SOL    MW4 3536   2.740   1.925   1.613
  877SOL     OW 3537   2.942   2.084   1.490
  877SOL    HW2 3538   2.944   2.170   1.532
  877SOL    HW3 3539   2.860   2.045   1.521
  877SOL    MW4 3540   2.931   2.090   1.500
  878SOL     OW 3541   2.922   2.333   1.611
  878SOL    HW2 3542   2.920   2.336   1.706
  878SOL    HW3 3543   2.839   2.373   1.584
  878SOL    MW4 3544   2.911   2.339   1.620
  879SOL     OW 3545   2.686   2.412   1.505
  879SOL    HW2 3546   2.672   2.498   1.545
  879SOL    HW3 3547   2.615   2.358   1.540
  879SOL    MW4 3548   2.674   2.416   1.515
  880SOL     OW 3549   2.693   2.661   1.616
  880SOL    HW2 3550   2.775   2.703   1.590
  880SOL    HW3 3551   2.625   2.716   1.577
  880SOL    MW4 3552   2.695   2.674   1.607
  881SOL     OW 3553   2.929   2.841   1.536
  881SOL    HW2 3554   2.999   2.786   1.573
  881SOL    HW3 3555   2.949   2.929   1.569
  881SOL    MW4 3556   2.941   2.846   1.545
  882SOL     OW 3557   2.941   3.103   1.599
  882SOL    HW2 3558   2.935   3.101   1.694
  882SOL    HW3 3559   3.016   3.160   1.581
  882SOL    MW4 3560   2.950   3.110   1.609
  883SOL     OW 3561   2.688   3.202   1.547
  883SOL    HW2 3562   2.769   3.153   1.565
  883SOL    HW3 3563   2.671   3.187   1.454
  883SOL    MW4 3564   2.696   3.193   1.537
  884SOL     OW 3565   2.750   3.464   1.632
  884SOL    HW2 3566   2.742   3.468   1.727
  884SOL    HW3 3567   2.741   3.370   1.612
  884SOL    MW4 3568   2.748   3.452   1.642
  885SOL     OW 3569   2.921   3.663   1.535
  885SOL    HW2 3570   2.863   3.596   1.571
  885SOL    HW3 3571   2.918   3.650   1.441
  885SOL    MW4 3572   2.913   3.653   1.528
  886SOL     OW 3573   2.964   3.913   1.637
  886SOL    HW2 3574   2.884   3.958   1.609
  886SOL    HW3 3575   2.957   3.826   1.600
  886SOL    MW4 3576   2.952   3.908   1.629
  887SOL     OW 3577   2.713   4.016   1.539
  887SOL    HW2 3578   2.676   4.101   1.563
  887SOL    HW3 3579   2.706   4.013   1.443
  887SOL    MW4 3580   2.707   4.026   1.529
  888SOL     OW 3581   2.659   4.268   1.633
  888SOL    HW2 3582   2.743   4.303   1.603
  888SOL    HW3 3583   2.593   4.319   1.585
  888SOL    MW4 3584   2.661   4.279   1.622
  889SOL     OW 3585   2.875   4.388   1.521
  889SOL    HW2 3586   2.865   4.482   1.533
  889SOL    HW3 3587   2.893   4.377   1.428
  889SOL    MW4 3588   2.876   4.399   1.511
  890SOL     OW 3589   3.384   4.635   1.600
  890SOL    HW2 3590   3.431   4.693   1.541
  890SOL    HW3 3591   3.361   4.559   1.547
  890SOL    MW4 3592   3.387   4.633   1.585
  891SOL     OW 3593   3.166   0.110   1.510
  891SOL    HW2 3594   3.238   0.068   1.557
  891SOL    HW3 3595   3.088   0.061   1.536
  891SOL    MW4 3596   3.165   0.098   1.520
  892SOL     OW 3597   3.148   0.355   1.617
  892SOL    HW2 3598   3.152   0.271   1.571
  892SOL    HW3 3599   3.077   0.403   1.573
  892SOL    MW4 3600   3.139   0.350   1.605
  893SOL     OW 3601   3.380   0.504   1.522
  893SOL    HW2 3602   3.309   0.450   1.556
  893SOL    HW3 3603   3.374   0.494   1.427
  893SOL    MW4 3604   3.370   0.495   1.514
  894SOL     OW 3605   3.350   0.771   1.614
  894SOL    HW2 3606   3.368   0.776   1.708
  894SOL    HW3 3607   3.360   0.678   1.594
  894SOL    MW4 3608   3.354   0.759   1.624
  895SOL     OW 3609   3.112   0.885   1.507
  895SOL    HW2 3610   3.184   0.837   1.549
  895SOL    HW3 3611   3.033   0.837   1.533
  895SOL    MW4 3612   3.111   0.872   1.516
  896SOL     OW 3613   3.103   1.139   1.607
  896SOL    HW2 3614   3.097   1.141   1.703
  896SOL    HW3 3615   3.109   1.047   1.585
  896SOL    MW4 3616   3.103   1.127   1.617
  897SOL     OW 3617   3.319   1.272   1.474
  897SOL    HW2 3618   3.391   1.228   1.520
  897SOL    HW3 3619   3.240   1.235   1.513
  897SOL    MW4 3620   3.318   1.261   1.485
  898SOL     OW 3621   3.360   1.557   1.591
  898SOL    HW2 3622   3.352   1.534   1.683
  898SOL    HW3 3623   3.352   1.474   1.544
  898SOL    MW4 3624   3.358   1.543   1.597
  899SOL     OW 3625   3.139   1.697   1.519
  899SOL    HW2 3626   3.208   1.642   1.555
  899SOL    HW3 3627   3.057   1.655   1.547
  899SOL    MW4 3628   3.137   1.685   1.527
  900SOL     OW 3629   3.138   1.958   1.616
  900SOL    HW2 3630   3.148   1.869   1.581
  900SOL    HW3 3631   3.069   1.996   1.563
  900SOL    MW4 3632   3.131   1.951   1.604
  901SOL     OW 3633   3.371   2.068   1.518
  901SOL    HW2 3634   3.292   2.020   1.545
  901SOL    HW3 3635   3.361   2.078   1.423
  901SOL    MW4 3636   3.359   2.063   1.509
  902SOL     OW 3637   3.367   2.324   1.617
  902SOL    HW2 3638   3.441   2.374   1.582
  902SOL    HW3 3639   3.380   2.235   1.584
  902SOL    MW4 3640   3.379   2.319   1.608
  903SOL     OW 3641   3.147   2.444   1.501
  903SOL    HW2 3642   3.226   2.397   1.528
  903SOL    HW3 3643   3.078   2.409   1.557
  903SOL    MW4 3644   3.149   2.433   1.512
  904SOL     OW 3645   3.165   2.709   1.630
  904SOL    HW2 3646   3.231   2.749   1.574
  904SOL    HW3 3647   3.149   2.623   1.591
  904SOL    MW4 3648   3.172   2.703   1.618
  905SOL     OW 3649   3.370   2.834   1.448
  905SOL    HW2 3650   3.351   2.925   1.470
  905SOL    HW3 3651   3.400   2.836   1.358
  905SOL    MW4 3652   3.371   2.846   1.439
  906SOL     OW 3653   3.340   3.084   1.576
  906SOL    HW2 3654   3.332   3.093   1.672
  906SOL    HW3 3655   3.413   3.141   1.553
  906SOL    MW4 3656   3.348   3.093   1.586
  907SOL     OW 3657   3.151   3.274   1.537
  907SOL    HW2 3658   3.225   3.217   1.557
  907SOL    HW3 3659   3.140   3.268   1.442
  907SOL    MW4 3660   3.159   3.266   1.527
  908SOL     OW 3661   3.134   3.531   1.661
  908SOL    HW2 3662   3.130   3.443   1.624
  908SOL    HW3 3663   3.062   3.578   1.621
  908SOL    MW4 3664   3.124   3.526   1.651
  909SOL     OW 3665   3.368   3.637   1.525
  909SOL    HW2 3666   3.437   3.579   1.557
  909SOL    HW3 3667   3.287   3.602   1.561
  909SOL    MW4 3668   3.366   3.625   1.534
  910SOL     OW 3669   3.352   3.905   1.645
  910SOL    HW2 3670   3.297   3.957   1.586
  910SOL    HW3 3671   3.348   3.816   1.609
  910SOL    MW4 3672   3.344   3.900   1.632
  911SOL     OW 3673   3.158   4.049   1.515
  911SOL    HW2 3674   3.144   4.133   1.558
  911SOL    HW3 3675   3.093   3.990   1.554
  911SOL    MW4 3676   3.147   4.052   1.526
  912SOL     OW 3677   3.121   4.320   1.610
  912SOL    HW2 3678   3.126   4.326   1.705
  912SOL    HW3 3679   3.036   4.358   1.587
  912SOL    MW4 3680   3.111   4.326   1.619
  913SOL     OW 3681   3.357   4.383   1.495
  913SOL    HW2 3682   3.277   4.338   1.520
  913SOL    HW3 3683   3.356   4.383   1.399
  913SOL    MW4 3684   3.346   4.377   1.486
  914SOL     OW 3685   3.795   4.666   1.587
  914SOL    HW2 3686   3.798   4.660   1.682
  914SOL    HW3 3687   3.885   4.684   1.560
  914SOL    MW4 3688   3.807   4.667   1.596
  915SOL     OW 3689   3.568   0.120   1.467
  915SOL    HW2 3690   3.638   0.069   1.507
  915SOL    HW3 3691   3.589   0.119   1.373
  915SOL    MW4 3692   3.580   0.114   1.460
  916SOL     OW 3693   3.616   0.361   1.593
  916SOL    HW2 3694   3.607   0.282   1.540
  916SOL    HW3 3695   3.546   0.419   1.563
  916SOL    MW4 3696   3.606   0.359   1.582
  917SOL     OW 3697   3.863   0.516   1.520
  917SOL    HW2 3698   3.788   0.457   1.528
  917SOL    HW3 3699   3.871   0.531   1.426
  917SOL    MW4 3700   3.854   0.510   1.508
  918SOL     OW 3701   3.846   0.763   1.646
  918SOL    HW2 3702   3.763   0.798   1.614
  918SOL    HW3 3703   3.852   0.676   1.607
  918SOL    MW4 3704   3.836   0.756   1.637
  919SOL     OW 3705   3.601   0.851   1.554
  919SOL    HW2 3706   3.513   0.819   1.574
  919SOL    HW3 3707   3.605   0.852   1.458
  919SOL    MW4 3708   3.590   0.847   1.544
  920SOL     OW 3709   3.544   1.142   1.627
  920SOL    HW2 3710   3.623   1.173   1.582
  920SOL    HW3 3711   3.531   1.053   1.594
  920SOL    MW4 3712   3.553   1.134   1.617
  921SOL     OW 3713   3.775   1.257   1.531
  921SOL    HW2 3714   3.851   1.218   1.573
  921SOL    HW3 3715   3.783   1.351   1.548
  921SOL    MW4 3716   3.786   1.264   1.538
  922SOL     OW 3717   3.789   1.520   1.601
  922SOL    HW2 3718   3.810   1.538   1.692
  922SOL    HW3 3719   3.722   1.584   1.579
  922SOL    MW4 3720   3.783   1.531   1.610
  923SOL     OW 3721   3.596   1.703   1.480
  923SOL    HW2 3722   3.510   1.666   1.502
  923SOL    HW3 3723   3.598   1.703   1.384
  923SOL    MW4 3724   3.585   1.698   1.470
  924SOL     OW 3725   3.586   1.916   1.658
  924SOL    HW2 3726   3.589   1.830   1.615
  924SOL    HW3 3727   3.521   1.965   1.608
  924SOL    MW4 3728   3.578   1.911   1.646
  925SOL     OW 3729   3.785   2.067   1.514
  925SOL    HW2 3730   3.792   2.158   1.543
  925SOL    HW3 3731   3.725   2.026   1.576
  925SOL    MW4 3732   3.778   2.074   1.526
  926SOL     OW 3733   3.775   2.341   1.613
  926SOL    HW2 3734   3.784   2.335   1.708
  926SOL    HW3 3735   3.859   2.374   1.583
  926SOL    MW4 3736   3.787   2.344   1.622
  927SOL     OW 3737   3.560   2.475   1.500
  927SOL    HW2 3738   3.563   2.564   1.536
  927SOL    HW3 3739   3.629   2.428   1.547
  927SOL    MW4 3740   3.570   2.481   1.511
  928SOL     OW 3741   3.606   2.729   1.595
  928SOL    HW2 3742   3.593   2.714   1.688
  928SOL    HW3 3743   3.528   2.776   1.566
  928SOL    MW4 3744   3.594   2.733   1.603
  929SOL     OW 3745   3.842   2.836   1.502
  929SOL    HW2 3746   3.913   2.798   1.552
  929SOL    HW3 3747   3.769   2.776   1.514
  929SOL    MW4 3748   3.842   2.823   1.510
  930SOL     OW 3749   3.753   3.094   1.569
  930SOL    HW2 3750   3.820   3.156   1.541
  930SOL    HW3 3751   3.786   3.009   1.541
  930SOL    MW4 3752   3.766   3.091   1.561
  931SOL     OW 3753   3.544   3.232   1.471
  931SOL    HW2 3754   3.617   3.178   1.500
  931SOL    HW3 3755   3.545   3.224   1.376
  931SOL    MW4 3756   3.554   3.224   1.462
  932SOL     OW 3757   3.573   3.477   1.606
  932SOL    HW2 3758   3.656   3.512   1.573
  932SOL    HW3 3759   3.568   3.389   1.569
  932SOL    MW4 3760   3.584   3.470   1.597
  933SOL     OW 3761   3.814   3.594   1.517
  933SOL    HW2 3762   3.891   3.554   1.557
  933SOL    HW3 3763   3.820   3.687   1.541
  933SOL    MW4 3764   3.825   3.601   1.525
  934SOL     OW 3765   3.791   3.875   1.601
  934SOL    HW2 3766   3.869   3.913   1.559
  934SOL    HW3 3767   3.721   3.937   1.580
  934SOL    MW4 3768   3.792   3.888   1.593
  935SOL     OW 3769   3.573   4.019   1.525
  935SOL    HW2 3770   3.577   4.108   1.560
  935SOL    HW3 3771   3.506   3.976   1.577
  935SOL    MW4 3772   3.565   4.025   1.536
  936SOL     OW 3773   3.584   4.267   1.620
  936SOL    HW2 3774   3.580   4.269   1.716
  936SOL    HW3 3775   3.498   4.299   1.592
  936SOL    MW4 3776   3.572   4.271   1.629
  937SOL     OW 3777   3.800   4.406   1.505
  937SOL    HW2 3778   3.724   4.358   1.537
  937SOL    HW3 3779   3.794   4.492   1.548
  937SOL    MW4 3780   3.789   4.411   1.515
  938SOL     OW 3781   4.273   4.616   1.588
  938SOL    HW2 3782   4.265   4.623   1.683
  938SOL    HW3 3783   4.266   4.522   1.570
  938SOL    MW4 3784   4.271   4.605   1.598
  939SOL     OW 3785   4.046   0.081   1.488
  939SOL    HW2 3786   4.048   0.155   1.548
  939SOL    HW3 3787   4.123   0.029   1.510
  939SOL    MW4 3788   4.056   0.084   1.499
  940SOL     OW 3789   4.058   0.345   1.605
  940SOL    HW2 3790   4.046   0.347   1.700
  940SOL    HW3 3791   3.984   0.396   1.571
  940SOL    MW4 3792   4.047   0.352   1.613
  941SOL     OW 3793   4.273   0.442   1.481
  941SOL    HW2 3794   4.202   0.398   1.528
  941SOL    HW3 3795   4.353   0.411   1.523
  941SOL    MW4 3796   4.274   0.432   1.493
  942SOL     OW 3797   4.281   0.687   1.601
  942SOL    HW2 3798   4.268   0.602   1.558
  942SOL    HW3 3799   4.356   0.725   1.555
  942SOL    MW4 3800   4.289   0.681   1.589
  943SOL     OW 3801   4.079   0.874   1.520
  943SOL    HW2 3802   4.147   0.812   1.546
  943SOL    HW3 3803   4.001   0.847   1.569
  943SOL    MW4 3804   4.077   0.863   1.530
  944SOL     OW 3805   4.044   1.139   1.613
  944SOL    HW2 3806   4.039   1.124   1.707
  944SOL    HW3 3807   4.070   1.055   1.576
  944SOL    MW4 3808   4.047   1.126   1.621
  945SOL     OW 3809   4.274   1.267   1.514
  945SOL    HW2 3810   4.193   1.241   1.559
  945SOL    HW3 3811   4.344   1.221   1.560
  945SOL    MW4 3812   4.272   1.257   1.526
  946SOL     OW 3813   4.237   1.531   1.589
  946SOL    HW2 3814   4.257   1.438   1.575
  946SOL    HW3 3815   4.320   1.576   1.575
  946SOL    MW4 3816   4.250   1.525   1.586
  947SOL     OW 3817   4.011   1.671   1.509
  947SOL    HW2 3818   4.098   1.636   1.532
  947SOL    HW3 3819   3.950   1.614   1.556
  947SOL    MW4 3820   4.015   1.659   1.518
  948SOL     OW 3821   4.020   1.947   1.600
  948SOL    HW2 3822   4.016   1.858   1.565
  948SOL    HW3 3823   3.933   1.983   1.581
  948SOL    MW4 3824   4.008   1.940   1.593
  949SOL     OW 3825   4.265   2.068   1.516
  949SOL    HW2 3826   4.184   2.034   1.553
  949SOL    HW3 3827   4.265   2.040   1.425
  949SOL    MW4 3828   4.254   2.060   1.509
  950SOL     OW 3829   4.252   2.332   1.596
  950SOL    HW2 3830   4.242   2.343   1.691
  950SOL    HW3 3831   4.256   2.237   1.583
  950SOL    MW4 3832   4.251   2.321   1.607
  951SOL     OW 3833   4.015   2.437   1.502
  951SOL    HW2 3834   4.040   2.527   1.525
  951SOL    HW3 3835   4.092   2.385   1.525
  951SOL    MW4 3836   4.028   2.442   1.508
  952SOL     OW 3837   4.055   2.712   1.601
  952SOL    HW2 3838   4.055   2.700   1.696
  952SOL    HW3 3839   4.144   2.740   1.581
  952SOL    MW4 3840   4.067   2.714   1.611
  953SOL     OW 3841   4.299   2.848   1.531
  953SOL    HW2 3842   4.280   2.936   1.564
  953SOL    HW3 3843   4.307   2.860   1.436
  953SOL    MW4 3844   4.298   2.861   1.523
  954SOL     OW 3845   4.223   3.090   1.606
  954SOL    HW2 3846   4.217   3.089   1.702
  954SOL    HW3 3847   4.303   3.139   1.588
  954SOL    MW4 3848   4.233   3.096   1.617
  955SOL     OW 3849   4.002   3.225   1.459
  955SOL    HW2 3850   3.997   3.301   1.518
  955SOL    HW3 3851   4.078   3.176   1.490
  955SOL    MW4 3852   4.012   3.229   1.471
  956SOL     OW 3853   4.043   3.445   1.616
  956SOL    HW2 3854   4.034   3.454   1.711
  956SOL    HW3 3855   4.121   3.497   1.595
  956SOL    MW4 3856   4.052   3.453   1.626
  957SOL     OW 3857   4.250   3.597   1.512
  957SOL    HW2 3858   4.252   3.685   1.549
  957SOL    HW3 3859   4.259   3.610   1.418
  957SOL    MW4 3860   4.251   3.610   1.505
  958SOL     OW 3861   4.282   3.851   1.589
  958SOL    HW2 3862   4.209   3.910   1.569
  958SOL    HW3 3863   4.357   3.891   1.546
  958SOL    MW4 3864   4.282   3.864   1.581
  959SOL     OW 3865   4.049   3.996   1.547
  959SOL    HW2 3866   4.028   4.086   1.572
  959SOL    HW3 3867   4.064   3.999   1.453
  959SOL    MW4 3868   4.048   4.008   1.538
  960SOL     OW 3869   4.013   4.257   1.645
  960SOL    HW2 3870   4.018   4.271   1.740
  960SOL    HW3 3871   3.932   4.301   1.619
  960SOL    MW4 3872   4.003   4.265   1.654
  961SOL     OW 3873   4.262   4.357   1.527
  961SOL    HW2 3874   4.180   4.317   1.554
  961SOL    HW3 3875   4.252   4.371   1.433
  961SOL    MW4 3876   4.250   4.353   1.518
  962SOL     OW 3877   0.223   4.648   1.906
  962SOL    HW2 3878   0.295   4.699   1.943
  962SOL    HW3 3879   0.237   4.649   1.812
  962SOL    MW4 3880   0.234   4.655   1.898
  963SOL     OW 3881   4.490   0.124   2.023
  963SOL    HW2 3882   4.485   0.212   1.986
  963SOL    HW3 3883   4.566   0.084   1.981
  963SOL    MW4 3884   4.499   0.131   2.013
  964SOL     OW 3885   4.477   0.365   1.892
  964SOL    HW2 3886   4.413   0.428   1.927
  964SOL    HW3 3887   4.562   0.403   1.916
  964SOL    MW4 3888   4.479   0.379   1.900
  965SOL     OW 3889   0.226   0.498   1.960
  965SOL    HW2 3890   0.305   0.454   1.927
  965SOL    HW3 3891   0.230   0.586   1.923
  965SOL    MW4 3892   0.237   0.504   1.951
  966SOL     OW 3893   0.201   0.764   1.880
  966SOL    HW2 3894   0.289   0.793   1.904
  966SOL    HW3 3895   0.205   0.751   1.785
  966SOL    MW4 3896   0.213   0.766   1.870
  967SOL     OW 3897   0.006   0.889   1.992
  967SOL    HW2 3898  -0.070   0.837   1.967
  967SOL    HW3 3899   0.079   0.850   1.944
  967SOL    MW4 3900   0.006   0.877   1.982
  968SOL     OW 3901   4.463   1.150   1.875
  968SOL    HW2 3902   4.393   1.190   1.926
  968SOL    HW3 3903   4.480   1.066   1.918
  968SOL    MW4 3904   4.456   1.144   1.887
  969SOL     OW 3905   0.208   1.293   1.945
  969SOL    HW2 3906   0.194   1.386   1.926
  969SOL    HW3 3907   0.125   1.251   1.921
  969SOL    MW4 3908   0.195   1.300   1.940
  970SOL     OW 3909   0.228   1.563   1.886
  970SOL    HW2 3910   0.304   1.601   1.930
  970SOL    HW3 3911   0.153   1.612   1.919
  970SOL    MW4 3912   0.228   1.574   1.896
  971SOL     OW 3913   0.006   1.692   1.981
  971SOL    HW2 3914   0.009   1.684   2.076
  971SOL    HW3 3915  -0.069   1.639   1.955
  971SOL    MW4 3916  -0.004   1.684   1.990
  972SOL     OW 3917   4.486   1.940   1.848
  972SOL    HW2 3918   4.404   1.979   1.876
  972SOL    HW3 3919   4.489   1.855   1.893
  972SOL    MW4 3920   4.476   1.934   1.858
  973SOL     OW 3921   0.212   2.054   1.986
  973SOL    HW2 3922   0.226   2.138   1.943
  973SOL    HW3 3923   0.130   2.022   1.949
  973SOL    MW4 3924   0.203   2.061   1.976
  974SOL     OW 3925   0.222   2.311   1.874
  974SOL    HW2 3926   0.289   2.354   1.926
  974SOL    HW3 3927   0.139   2.341   1.911
  974SOL    MW4 3928   0.220   2.321   1.885
  975SOL     OW 3929   4.461   2.427   1.989
  975SOL    HW2 3930   4.472   2.415   2.084
  975SOL    HW3 3931   4.462   2.522   1.977
  975SOL    MW4 3932   4.463   2.438   2.000
  976SOL     OW 3933   4.490   2.700   1.920
  976SOL    HW2 3934   4.405   2.742   1.930
  976SOL    HW3 3935   4.503   2.692   1.826
  976SOL    MW4 3936   4.481   2.704   1.909
  977SOL     OW 3937   0.236   2.838   1.989
  977SOL    HW2 3938   0.218   2.925   1.952
  977SOL    HW3 3939   0.153   2.792   1.984
  977SOL    MW4 3940   0.223   2.844   1.983
  978SOL     OW 3941   0.204   3.111   1.877
  978SOL    HW2 3942   0.283   3.152   1.913
  978SOL    HW3 3943   0.212   3.121   1.783
  978SOL    MW4 3944   0.216   3.118   1.870
  979SOL     OW 3945   4.460   3.221   1.993
  979SOL    HW2 3946   4.378   3.180   1.965
  979SOL    HW3 3947   4.529   3.172   1.948
  979SOL    MW4 3948   4.458   3.209   1.983
  980SOL     OW 3949   0.010   3.477   1.869
  980SOL    HW2 3950   0.093   3.521   1.891
  980SOL    HW3 3951   0.012   3.397   1.921
  980SOL    MW4 3952   0.021   3.472   1.879
  981SOL     OW 3953   0.221   3.624   1.956
  981SOL    HW2 3954   0.206   3.603   2.048
  981SOL    HW3 3955   0.307   3.585   1.937
  981SOL    MW4 3956   0.231   3.616   1.966
  982SOL     OW 3957   0.219   3.899   1.931
  982SOL    HW2 3958   0.301   3.940   1.958
  982SOL    HW3 3959   0.232   3.806   1.946
  982SOL    MW4 3960   0.232   3.892   1.936
  983SOL     OW 3961   4.467   4.004   1.983
  983SOL    HW2 3962   4.462   4.096   1.956
  983SOL    HW3 3963   4.557   3.978   1.961
  983SOL    MW4 3964   4.479   4.013   1.977
  984SOL     OW 3965   0.016   4.277   1.904
  984SOL    HW2 3966  -0.056   4.330   1.937
  984SOL    HW3 3967   0.094   4.312   1.947
  984SOL    MW4 3968   0.017   4.288   1.914
  985SOL     OW 3969   0.242   4.397   2.022
  985SOL    HW2 3970   0.207   4.393   2.111
  985SOL    HW3 3971   0.240   4.490   1.999
  985SOL    MW4 3972   0.238   4.409   2.031
  986SOL     OW 3973   0.654   4.667   1.907
  986SOL    HW2 3974   0.680   4.582   1.944
  986SOL    HW3 3975   0.658   4.654   1.812
  986SOL    MW4 3976   0.658   4.654   1.899
  987SOL     OW 3977   0.434   0.131   1.993
  987SOL    HW2 3978   0.434   0.201   1.927
  987SOL    HW3 3979   0.513   0.081   1.976
  987SOL    MW4 3980   0.444   0.134   1.982
  988SOL     OW 3981   0.452   0.376   1.842
  988SOL    HW2 3982   0.530   0.421   1.876
  988SOL    HW3 3983   0.476   0.351   1.753
  988SOL    MW4 3984   0.466   0.379   1.835
  989SOL     OW 3985   0.688   0.481   1.946
  989SOL    HW2 3986   0.675   0.463   2.039
  989SOL    HW3 3987   0.771   0.438   1.925
  989SOL    MW4 3988   0.698   0.473   1.956
  990SOL     OW 3989   0.683   0.760   1.872
  990SOL    HW2 3990   0.766   0.802   1.893
  990SOL    HW3 3991   0.691   0.671   1.906
  990SOL    MW4 3992   0.695   0.754   1.880
  991SOL     OW 3993   0.449   0.852   1.986
  991SOL    HW2 3994   0.448   0.943   1.956
  991SOL    HW3 3995   0.529   0.815   1.949
  991SOL    MW4 3996   0.459   0.860   1.977
  992SOL     OW 3997   0.448   1.111   1.905
  992SOL    HW2 3998   0.383   1.165   1.951
  992SOL    HW3 3999   0.436   1.132   1.813
  992SOL    MW4 4000   0.438   1.121   1.899
  993SOL     OW 4001   0.670   1.264   2.001
  993SOL    HW2 4002   0.670   1.264   2.097
  993SOL    HW3 4003   0.589   1.218   1.978
  993SOL    MW4 4004   0.659   1.258   2.011
  994SOL     OW 4005   0.702   1.526   1.893
  994SOL    HW2 4006   0.694   1.434   1.920
  994SOL    HW3 4007   0.717   1.521   1.799
  994SOL    MW4 4008   0.703   1.513   1.884
  995SOL     OW 4009   0.466   1.656   2.021
  995SOL    HW2 4010   0.466   1.669   2.116
  995SOL    HW3 4011   0.551   1.618   2.002
  995SOL    MW4 4012   0.477   1.652   2.031
  996SOL     OW 4013   0.424   1.895   1.871
  996SOL    HW2 4014   0.427   1.814   1.922
  996SOL    HW3 4015   0.347   1.941   1.904
  996SOL    MW4 4016   0.414   1.890   1.882
  997SOL     OW 4017   0.633   2.053   1.968
  997SOL    HW2 4018   0.665   2.039   2.057
  997SOL    HW3 4019   0.552   2.002   1.963
  997SOL    MW4 4020   0.627   2.045   1.979
  998SOL     OW 4021   0.642   2.313   1.897
  998SOL    HW2 4022   0.629   2.219   1.905
  998SOL    HW3 4023   0.660   2.328   1.804
  998SOL    MW4 4024   0.643   2.303   1.886
  999SOL     OW 4025   0.433   2.447   2.002
  999SOL    HW2 4026   0.445   2.444   2.097
  999SOL    HW3 4027   0.507   2.398   1.966
  999SOL    MW4 4028   0.444   2.440   2.010
 1000SOL     OW 4029   0.454   2.714   1.869
 1000SOL    HW2 4030   0.466   2.624   1.900
 1000SOL    HW3 4031   0.377   2.746   1.916
 1000SOL    MW4 4032   0.446   2.706   1.879
 1001SOL     OW 4033   0.670   2.863   1.948
 1001SOL    HW2 4034   0.667   2.855   2.043
 1001SOL    HW3 4035   0.592   2.816   1.918
 1001SOL    MW4 4036   0.659   2.856   1.956
 1002SOL     OW 4037   0.657   3.120   1.857
 1002SOL    HW2 4038   0.666   3.031   1.891
 1002SOL    HW3 4039   0.676   3.111   1.763
 1002SOL    MW4 4040   0.661   3.107   1.849
 1003SOL     OW 4041   0.424   3.229   1.994
 1003SOL    HW2 4042   0.446   3.319   1.967
 1003SOL    HW3 4043   0.493   3.175   1.956
 1003SOL    MW4 4044   0.436   3.234   1.985
 1004SOL     OW 4045   0.466   3.509   1.890
 1004SOL    HW2 4046   0.548   3.552   1.913
 1004SOL    HW3 4047   0.473   3.492   1.797
 1004SOL    MW4 4048   0.478   3.512   1.881
 1005SOL     OW 4049   0.684   3.656   1.987
 1005SOL    HW2 4050   0.769   3.622   1.961
 1005SOL    HW3 4051   0.675   3.738   1.939
 1005SOL    MW4 4052   0.694   3.662   1.977
 1006SOL     OW 4053   0.668   3.903   1.883
 1006SOL    HW2 4054   0.744   3.956   1.906
 1006SOL    HW3 4055   0.678   3.887   1.789
 1006SOL    MW4 4056   0.679   3.908   1.873
 1007SOL     OW 4057   0.453   4.042   2.003
 1007SOL    HW2 4058   0.460   4.135   1.982
 1007SOL    HW3 4059   0.531   4.003   1.964
 1007SOL    MW4 4060   0.464   4.049   1.995
 1008SOL     OW 4061   0.496   4.313   1.929
 1008SOL    HW2 4062   0.421   4.353   1.972
 1008SOL    HW3 4063   0.463   4.282   1.845
 1008SOL    MW4 4064   0.482   4.314   1.923
 1009SOL     OW 4065   0.744   4.406   2.004
 1009SOL    HW2 4066   0.804   4.351   1.954
 1009SOL    HW3 4067   0.657   4.371   1.985
 1009SOL    MW4 4068   0.740   4.394   1.995
 1010SOL     OW 4069   1.104   4.634   1.830
 1010SOL    HW2 4070   1.171   4.691   1.867
 1010SOL    HW3 4071   1.117   4.550   1.874
 1010SOL    MW4 4072   1.114   4.630   1.841
 1011SOL     OW 4073   0.899   0.077   2.007
 1011SOL    HW2 4074   0.958   0.018   1.959
 1011SOL    HW3 4075   0.812   0.055   1.975
 1011SOL    MW4 4076   0.896   0.066   1.996
 1012SOL     OW 4077   0.926   0.359   1.867
 1012SOL    HW2 4078   0.997   0.410   1.906
 1012SOL    HW3 4079   0.915   0.285   1.926
 1012SOL    MW4 4080   0.934   0.356   1.880
 1013SOL     OW 4081   1.143   0.501   1.990
 1013SOL    HW2 4082   1.219   0.461   1.948
 1013SOL    HW3 4083   1.133   0.586   1.946
 1013SOL    MW4 4084   1.152   0.507   1.979
 1014SOL     OW 4085   1.113   0.744   1.832
 1014SOL    HW2 4086   1.197   0.784   1.856
 1014SOL    HW3 4087   1.047   0.802   1.871
 1014SOL    MW4 4088   1.116   0.757   1.840
 1015SOL     OW 4089   0.924   0.896   1.971
 1015SOL    HW2 4090   0.890   0.883   2.060
 1015SOL    HW3 4091   0.913   0.989   1.955
 1015SOL    MW4 4092   0.918   0.906   1.981
 1016SOL     OW 4093   0.923   1.160   1.914
 1016SOL    HW2 4094   0.852   1.202   1.963
 1016SOL    HW3 4095   0.903   1.179   1.822
 1016SOL    MW4 4096   0.911   1.168   1.908
 1017SOL     OW 4097   1.149   1.288   2.027
 1017SOL    HW2 4098   1.135   1.374   1.987
 1017SOL    HW3 4099   1.077   1.234   1.993
 1017SOL    MW4 4100   1.137   1.292   2.017
 1018SOL     OW 4101   1.124   1.547   1.921
 1018SOL    HW2 4102   1.040   1.583   1.947
 1018SOL    HW3 4103   1.117   1.533   1.827
 1018SOL    MW4 4104   1.112   1.550   1.912
 1019SOL     OW 4105   0.900   1.685   2.026
 1019SOL    HW2 4106   0.902   1.769   1.981
 1019SOL    HW3 4107   0.818   1.644   1.996
 1019SOL    MW4 4108   0.889   1.690   2.016
 1020SOL     OW 4109   0.888   1.933   1.868
 1020SOL    HW2 4110   0.809   1.967   1.910
 1020SOL    HW3 4111   0.863   1.923   1.776
 1020SOL    MW4 4112   0.874   1.936   1.861
 1021SOL     OW 4113   1.109   2.067   1.996
 1021SOL    HW2 4114   1.109   2.156   1.962
 1021SOL    HW3 4115   1.025   2.030   1.966
 1021SOL    MW4 4116   1.098   2.074   1.987
 1022SOL     OW 4117   1.118   2.331   1.902
 1022SOL    HW2 4118   1.196   2.369   1.942
 1022SOL    HW3 4119   1.134   2.337   1.808
 1022SOL    MW4 4120   1.130   2.337   1.895
 1023SOL     OW 4121   0.885   2.457   1.990
 1023SOL    HW2 4122   0.958   2.407   1.952
 1023SOL    HW3 4123   0.807   2.405   1.969
 1023SOL    MW4 4124   0.884   2.443   1.982
 1024SOL     OW 4125   0.911   2.715   1.894
 1024SOL    HW2 4126   0.901   2.628   1.932
 1024SOL    HW3 4127   0.833   2.763   1.924
 1024SOL    MW4 4128   0.899   2.710   1.903
 1025SOL     OW 4129   1.147   2.830   1.974
 1025SOL    HW2 4130   1.145   2.828   2.070
 1025SOL    HW3 4131   1.062   2.796   1.947
 1025SOL    MW4 4132   1.136   2.825   1.983
 1026SOL     OW 4133   1.150   3.082   1.845
 1026SOL    HW2 4134   1.061   3.112   1.867
 1026SOL    HW3 4135   1.152   2.991   1.875
 1026SOL    MW4 4136   1.138   3.074   1.852
 1027SOL     OW 4137   0.908   3.199   1.945
 1027SOL    HW2 4138   0.915   3.209   2.040
 1027SOL    HW3 4139   0.816   3.175   1.931
 1027SOL    MW4 4140   0.897   3.197   1.956
 1028SOL     OW 4141   0.881   3.464   1.891
 1028SOL    HW2 4142   0.898   3.371   1.908
 1028SOL    HW3 4143   0.902   3.476   1.798
 1028SOL    MW4 4144   0.886   3.453   1.881
 1029SOL     OW 4145   1.120   3.578   1.991
 1029SOL    HW2 4146   1.120   3.580   2.087
 1029SOL    HW3 4147   1.036   3.538   1.967
 1029SOL    MW4 4148   1.109   3.573   2.000
 1030SOL     OW 4149   1.117   3.857   1.899
 1030SOL    HW2 4150   1.123   3.763   1.918
 1030SOL    HW3 4151   1.090   3.861   1.807
 1030SOL    MW4 4152   1.114   3.845   1.890
 1031SOL     OW 4153   0.894   4.010   1.992
 1031SOL    HW2 4154   0.877   4.015   2.086
 1031SOL    HW3 4155   0.979   3.965   1.986
 1031SOL    MW4 4156   0.903   4.005   2.004
 1032SOL     OW 4157   0.902   4.251   1.843
 1032SOL    HW2 4158   0.985   4.293   1.862
 1032SOL    HW3 4159   0.903   4.171   1.896
 1032SOL    MW4 4160   0.913   4.246   1.852
 1033SOL     OW 4161   1.126   4.391   1.957
 1033SOL    HW2 4162   1.113   4.398   2.052
 1033SOL    HW3 4163   1.208   4.342   1.947
 1033SOL    MW4 4164   1.135   4.386   1.968
 1034SOL     OW 4165   1.553   4.640   1.876
 1034SOL    HW2 4166   1.622   4.694   1.916
 1034SOL    HW3 4167   1.562   4.555   1.919
 1034SOL    MW4 4168   1.564   4.636   1.887
 1035SOL     OW 4169   1.316   0.122   1.933
 1035SOL    HW2 4170   1.323   0.133   2.028
 1035SOL    HW3 4171   1.394   0.073   1.909
 1035SOL    MW4 4172   1.327   0.117   1.942
 1036SOL     OW 4173   1.355   0.379   1.856
 1036SOL    HW2 4174   1.336   0.288   1.880
 1036SOL    HW3 4175   1.348   0.380   1.760
 1036SOL    MW4 4176   1.351   0.367   1.846
 1037SOL     OW 4177   1.582   0.509   1.959
 1037SOL    HW2 4178   1.659   0.462   1.927
 1037SOL    HW3 4179   1.508   0.462   1.922
 1037SOL    MW4 4180   1.582   0.497   1.950
 1038SOL     OW 4181   1.559   0.756   1.835
 1038SOL    HW2 4182   1.638   0.799   1.867
 1038SOL    HW3 4183   1.568   0.665   1.862
 1038SOL    MW4 4184   1.570   0.750   1.843
 1039SOL     OW 4185   1.336   0.878   1.938
 1039SOL    HW2 4186   1.332   0.866   2.033
 1039SOL    HW3 4187   1.412   0.828   1.910
 1039SOL    MW4 4188   1.345   0.870   1.947
 1040SOL     OW 4189   1.350   1.153   1.918
 1040SOL    HW2 4190   1.340   1.061   1.941
 1040SOL    HW3 4191   1.272   1.195   1.953
 1040SOL    MW4 4192   1.338   1.146   1.926
 1041SOL     OW 4193   1.586   1.293   1.985
 1041SOL    HW2 4194   1.585   1.382   1.951
 1041SOL    HW3 4195   1.499   1.258   1.964
 1041SOL    MW4 4196   1.574   1.300   1.978
 1042SOL     OW 4197   1.579   1.559   1.893
 1042SOL    HW2 4198   1.657   1.599   1.932
 1042SOL    HW3 4199   1.506   1.609   1.928
 1042SOL    MW4 4200   1.580   1.571   1.903
 1043SOL     OW 4201   1.357   1.701   1.997
 1043SOL    HW2 4202   1.346   1.706   2.091
 1043SOL    HW3 4203   1.273   1.668   1.965
 1043SOL    MW4 4204   1.345   1.697   2.005
 1044SOL     OW 4205   1.327   1.933   1.867
 1044SOL    HW2 4206   1.336   1.853   1.918
 1044SOL    HW3 4207   1.263   1.985   1.916
 1044SOL    MW4 4208   1.320   1.929   1.880
 1045SOL     OW 4209   1.550   2.049   1.974
 1045SOL    HW2 4210   1.550   2.142   1.954
 1045SOL    HW3 4211   1.466   2.017   1.940
 1045SOL    MW4 4212   1.539   2.057   1.967
 1046SOL     OW 4213   1.592   2.306   1.898
 1046SOL    HW2 4214   1.671   2.359   1.907
 1046SOL    HW3 4215   1.573   2.307   1.804
 1046SOL    MW4 4216   1.600   2.313   1.886
 1047SOL     OW 4217   1.367   2.445   1.981
 1047SOL    HW2 4218   1.390   2.536   1.962
 1047SOL    HW3 4219   1.444   2.395   1.953
 1047SOL    MW4 4220   1.380   2.451   1.975
 1048SOL     OW 4221   1.383   2.703   1.867
 1048SOL    HW2 4222   1.305   2.739   1.910
 1048SOL    HW3 4223   1.375   2.731   1.776
 1048SOL    MW4 4224   1.371   2.711   1.861
 1049SOL     OW 4225   1.588   2.860   1.938
 1049SOL    HW2 4226   1.670   2.816   1.913
 1049SOL    HW3 4227   1.521   2.792   1.927
 1049SOL    MW4 4228   1.590   2.845   1.933
 1050SOL     OW 4229   1.551   3.103   1.853
 1050SOL    HW2 4230   1.572   3.014   1.879
 1050SOL    HW3 4231   1.540   3.098   1.758
 1050SOL    MW4 4232   1.553   3.091   1.844
 1051SOL     OW 4233   1.343   3.224   1.977
 1051SOL    HW2 4234   1.417   3.179   1.936
 1051SOL    HW3 4235   1.266   3.175   1.948
 1051SOL    MW4 4236   1.342   3.212   1.968
 1052SOL     OW 4237   1.364   3.492   1.881
 1052SOL    HW2 4238   1.355   3.399   1.900
 1052SOL    HW3 4239   1.285   3.532   1.916
 1052SOL    MW4 4240   1.352   3.485   1.888
 1053SOL     OW 4241   1.608   3.588   2.013
 1053SOL    HW2 4242   1.586   3.595   2.106
 1053SOL    HW3 4243   1.528   3.557   1.971
 1053SOL    MW4 4244   1.595   3.585   2.020
 1054SOL     OW 4245   1.586   3.847   1.897
 1054SOL    HW2 4246   1.661   3.894   1.933
 1054SOL    HW3 4247   1.586   3.763   1.944
 1054SOL    MW4 4248   1.596   3.842   1.908
 1055SOL     OW 4249   1.365   3.997   1.980
 1055SOL    HW2 4250   1.448   3.951   1.971
 1055SOL    HW3 4251   1.299   3.933   1.952
 1055SOL    MW4 4252   1.367   3.983   1.975
 1056SOL     OW 4253   1.363   4.261   1.883
 1056SOL    HW2 4254   1.365   4.171   1.914
 1056SOL    HW3 4255   1.358   4.254   1.787
 1056SOL    MW4 4256   1.362   4.248   1.874
 1057SOL     OW 4257   1.584   4.398   1.988
 1057SOL    HW2 4258   1.562   4.409   2.081
 1057SOL    HW3 4259   1.507   4.359   1.949
 1057SOL    MW4 4260   1.571   4.395   1.995
 1058SOL     OW 4261   1.984   4.613   1.859
 1058SOL    HW2 4262   2.064   4.651   1.895
 1058SOL    HW3 4263   1.979   4.526   1.898
 1058SOL    MW4 4264   1.994   4.606   1.869
 1059SOL     OW 4265   1.792   0.110   1.960
 1059SOL    HW2 4266   1.770   0.089   2.051
 1059SOL    HW3 4267   1.857   0.044   1.935
 1059SOL    MW4 4268   1.798   0.098   1.968
 1060SOL     OW 4269   1.809   0.359   1.863
 1060SOL    HW2 4270   1.809   0.268   1.891
 1060SOL    HW3 4271   1.804   0.355   1.768
 1060SOL    MW4 4272   1.809   0.347   1.854
 1061SOL     OW 4273   2.038   0.512   1.948
 1061SOL    HW2 4274   2.038   0.596   1.901
 1061SOL    HW3 4275   1.954   0.472   1.926
 1061SOL    MW4 4276   2.027   0.518   1.939
 1062SOL     OW 4277   2.032   0.766   1.837
 1062SOL    HW2 4278   2.108   0.788   1.890
 1062SOL    HW3 4279   2.064   0.771   1.747
 1062SOL    MW4 4280   2.046   0.770   1.832
 1063SOL     OW 4281   1.795   0.863   1.959
 1063SOL    HW2 4282   1.809   0.958   1.965
 1063SOL    HW3 4283   1.876   0.830   1.920
 1063SOL    MW4 4284   1.807   0.871   1.955
 1064SOL     OW 4285   1.793   1.137   1.923
 1064SOL    HW2 4286   1.718   1.182   1.963
 1064SOL    HW3 4287   1.786   1.157   1.830
 1064SOL    MW4 4288   1.782   1.145   1.916
 1065SOL     OW 4289   2.007   1.269   1.972
 1065SOL    HW2 4290   2.073   1.216   1.928
 1065SOL    HW3 4291   1.925   1.222   1.959
 1065SOL    MW4 4292   2.005   1.256   1.964
 1066SOL     OW 4293   2.029   1.539   1.894
 1066SOL    HW2 4294   2.029   1.450   1.929
 1066SOL    HW3 4295   2.018   1.527   1.800
 1066SOL    MW4 4296   2.028   1.526   1.886
 1067SOL     OW 4297   1.803   1.702   1.983
 1067SOL    HW2 4298   1.815   1.786   1.938
 1067SOL    HW3 4299   1.880   1.651   1.960
 1067SOL    MW4 4300   1.815   1.706   1.974
 1068SOL     OW 4301   1.804   1.953   1.884
 1068SOL    HW2 4302   1.730   2.005   1.914
 1068SOL    HW3 4303   1.800   1.959   1.788
 1068SOL    MW4 4304   1.793   1.961   1.875
 1069SOL     OW 4305   2.017   2.034   2.021
 1069SOL    HW2 4306   2.099   2.011   1.978
 1069SOL    HW3 4307   1.949   1.996   1.965
 1069SOL    MW4 4308   2.019   2.026   2.008
 1070SOL     OW 4309   2.024   2.255   1.874
 1070SOL    HW2 4310   2.107   2.283   1.911
 1070SOL    HW3 4311   2.000   2.176   1.923
 1070SOL    MW4 4312   2.032   2.248   1.885
 1071SOL     OW 4313   1.826   2.456   1.946
 1071SOL    HW2 4314   1.824   2.454   2.042
 1071SOL    HW3 4315   1.905   2.407   1.923
 1071SOL    MW4 4316   1.836   2.449   1.956
 1072SOL     OW 4317   1.827   2.738   1.857
 1072SOL    HW2 4318   1.829   2.644   1.875
 1072SOL    HW3 4319   1.832   2.744   1.762
 1072SOL    MW4 4320   1.828   2.726   1.847
 1073SOL     OW 4321   2.048   2.814   2.012
 1073SOL    HW2 4322   2.050   2.816   2.108
 1073SOL    HW3 4323   1.963   2.775   1.991
 1073SOL    MW4 4324   2.037   2.809   2.022
 1074SOL     OW 4325   1.979   3.068   1.884
 1074SOL    HW2 4326   1.903   3.118   1.914
 1074SOL    HW3 4327   1.982   2.992   1.942
 1074SOL    MW4 4328   1.969   3.065   1.896
 1075SOL     OW 4329   1.762   3.208   1.983
 1075SOL    HW2 4330   1.741   3.217   2.076
 1075SOL    HW3 4331   1.684   3.168   1.944
 1075SOL    MW4 4332   1.749   3.204   1.990
 1076SOL     OW 4333   1.822   3.467   1.864
 1076SOL    HW2 4334   1.816   3.374   1.888
 1076SOL    HW3 4335   1.756   3.510   1.919
 1076SOL    MW4 4336   1.812   3.460   1.875
 1077SOL     OW 4337   2.059   3.574   1.996
 1077SOL    HW2 4338   2.053   3.669   1.981
 1077SOL    HW3 4339   1.976   3.539   1.962
 1077SOL    MW4 4340   2.047   3.582   1.990
 1078SOL     OW 4341   2.011   3.848   1.899
 1078SOL    HW2 4342   2.094   3.887   1.929
 1078SOL    HW3 4343   2.016   3.853   1.804
 1078SOL    MW4 4344   2.023   3.854   1.891
 1079SOL     OW 4345   1.800   3.964   2.003
 1079SOL    HW2 4346   1.795   4.052   1.965
 1079SOL    HW3 4347   1.882   3.928   1.969
 1079SOL    MW4 4348   1.810   3.971   1.993
 1080SOL     OW 4349   1.775   4.207   1.904
 1080SOL    HW2 4350   1.707   4.259   1.948
 1080SOL    HW3 4351   1.775   4.238   1.814
 1080SOL    MW4 4352   1.766   4.218   1.898
 1081SOL     OW 4353   1.992   4.368   1.981
 1081SOL    HW2 4354   2.076   4.325   1.969
 1081SOL    HW3 4355   1.927   4.305   1.948
 1081SOL    MW4 4356   1.994   4.354   1.975
 1082SOL     OW 4357   2.430   4.636   1.876
 1082SOL    HW2 4358   2.507   4.681   1.910
 1082SOL    HW3 4359   2.429   4.552   1.921
 1082SOL    MW4 4360   2.440   4.631   1.886
 1083SOL     OW 4361   2.191   0.082   1.971
 1083SOL    HW2 4362   2.208   0.097   2.064
 1083SOL    HW3 4363   2.268   0.034   1.940
 1083SOL    MW4 4364   2.203   0.078   1.979
 1084SOL     OW 4365   2.200   0.325   1.831
 1084SOL    HW2 4366   2.180   0.238   1.865
 1084SOL    HW3 4367   2.139   0.383   1.877
 1084SOL    MW4 4368   2.189   0.321   1.842
 1085SOL     OW 4369   2.410   0.458   1.950
 1085SOL    HW2 4370   2.494   0.422   1.920
 1085SOL    HW3 4371   2.344   0.408   1.902
 1085SOL    MW4 4372   2.413   0.446   1.940
 1086SOL     OW 4373   2.515   0.720   1.899
 1086SOL    HW2 4374   2.493   0.630   1.922
 1086SOL    HW3 4375   2.494   0.727   1.806
 1086SOL    MW4 4376   2.509   0.709   1.890
 1087SOL     OW 4377   2.265   0.873   1.969
 1087SOL    HW2 4378   2.254   0.870   2.064
 1087SOL    HW3 4379   2.347   0.827   1.953
 1087SOL    MW4 4380   2.274   0.867   1.980
 1088SOL     OW 4381   2.227   1.130   1.883
 1088SOL    HW2 4382   2.295   1.187   1.917
 1088SOL    HW3 4383   2.251   1.043   1.914
 1088SOL    MW4 4384   2.239   1.126   1.892
 1089SOL     OW 4385   2.433   1.286   1.985
 1089SOL    HW2 4386   2.454   1.288   2.079
 1089SOL    HW3 4387   2.438   1.378   1.958
 1089SOL    MW4 4388   2.437   1.299   1.994
 1090SOL     OW 4389   2.437   1.564   1.897
 1090SOL    HW2 4390   2.356   1.605   1.926
 1090SOL    HW3 4391   2.436   1.572   1.802
 1090SOL    MW4 4392   2.426   1.571   1.889
 1091SOL     OW 4393   2.217   1.708   1.969
 1091SOL    HW2 4394   2.223   1.700   2.064
 1091SOL    HW3 4395   2.148   1.646   1.944
 1091SOL    MW4 4396   2.208   1.699   1.978
 1092SOL     OW 4397   2.235   1.965   1.871
 1092SOL    HW2 4398   2.320   1.993   1.904
 1092SOL    HW3 4399   2.224   1.876   1.905
 1092SOL    MW4 4400   2.245   1.957   1.880
 1093SOL     OW 4401   2.474   2.035   1.997
 1093SOL    HW2 4402   2.551   1.992   1.960
 1093SOL    HW3 4403   2.467   2.117   1.948
 1093SOL    MW4 4404   2.483   2.040   1.986
 1094SOL     OW 4405   2.452   2.283   1.849
 1094SOL    HW2 4406   2.531   2.323   1.887
 1094SOL    HW3 4407   2.380   2.324   1.896
 1094SOL    MW4 4408   2.453   2.294   1.860
 1095SOL     OW 4409   2.252   2.412   1.988
 1095SOL    HW2 4410   2.238   2.408   2.082
 1095SOL    HW3 4411   2.249   2.505   1.967
 1095SOL    MW4 4412   2.250   2.424   1.998
 1096SOL     OW 4413   2.259   2.674   1.927
 1096SOL    HW2 4414   2.187   2.735   1.944
 1096SOL    HW3 4415   2.265   2.670   1.832
 1096SOL    MW4 4416   2.251   2.682   1.917
 1097SOL     OW 4417   2.480   2.805   1.989
 1097SOL    HW2 4418   2.467   2.886   1.940
 1097SOL    HW3 4419   2.406   2.750   1.964
 1097SOL    MW4 4420   2.469   2.808   1.979
 1098SOL     OW 4421   2.475   3.063   1.875
 1098SOL    HW2 4422   2.390   3.092   1.907
 1098SOL    HW3 4423   2.468   3.064   1.780
 1098SOL    MW4 4424   2.463   3.067   1.867
 1099SOL     OW 4425   2.226   3.185   1.942
 1099SOL    HW2 4426   2.222   3.196   2.037
 1099SOL    HW3 4427   2.145   3.137   1.921
 1099SOL    MW4 4428   2.214   3.180   1.952
 1100SOL     OW 4429   2.259   3.449   1.836
 1100SOL    HW2 4430   2.260   3.357   1.860
 1100SOL    HW3 4431   2.194   3.488   1.895
 1100SOL    MW4 4432   2.250   3.442   1.847
 1101SOL     OW 4433   2.462   3.591   1.929
 1101SOL    HW2 4434   2.462   3.597   2.025
 1101SOL    HW3 4435   2.378   3.551   1.908
 1101SOL    MW4 4436   2.451   3.586   1.939
 1102SOL     OW 4437   2.446   3.857   1.851
 1102SOL    HW2 4438   2.369   3.901   1.887
 1102SOL    HW3 4439   2.442   3.768   1.886
 1102SOL    MW4 4440   2.435   3.851   1.860
 1103SOL     OW 4441   2.231   3.955   2.011
 1103SOL    HW2 4442   2.233   3.957   2.106
 1103SOL    HW3 4443   2.230   4.047   1.984
 1103SOL    MW4 4444   2.231   3.967   2.020
 1104SOL     OW 4445   2.231   4.230   1.942
 1104SOL    HW2 4446   2.302   4.290   1.965
 1104SOL    HW3 4447   2.230   4.230   1.846
 1104SOL    MW4 4448   2.241   4.238   1.932
 1105SOL     OW 4449   2.443   4.397   2.018
 1105SOL    HW2 4450   2.453   4.395   2.113
 1105SOL    HW3 4451   2.518   4.348   1.985
 1105SOL    MW4 4452   2.454   4.390   2.026
 1106SOL     OW 4453   2.921   4.622   1.862
 1106SOL    HW2 4454   2.984   4.675   1.912
 1106SOL    HW3 4455   2.903   4.547   1.918
 1106SOL    MW4 4456   2.927   4.619   1.876
 1107SOL     OW 4457   2.675   0.070   1.956
 1107SOL    HW2 4458   2.678   0.089   2.050
 1107SOL    HW3 4459   2.758   0.027   1.937
 1107SOL    MW4 4460   2.686   0.067   1.966
 1108SOL     OW 4461   2.662   0.357   1.884
 1108SOL    HW2 4462   2.748   0.389   1.910
 1108SOL    HW3 4463   2.664   0.263   1.903
 1108SOL    MW4 4464   2.673   0.349   1.890
 1109SOL     OW 4465   2.926   0.485   1.976
 1109SOL    HW2 4466   3.006   0.437   1.957
 1109SOL    HW3 4467   2.939   0.571   1.936
 1109SOL    MW4 4468   2.938   0.490   1.969
 1110SOL     OW 4469   2.935   0.751   1.894
 1110SOL    HW2 4470   3.011   0.803   1.921
 1110SOL    HW3 4471   2.861   0.790   1.939
 1110SOL    MW4 4472   2.936   0.763   1.903
 1111SOL     OW 4473   2.717   0.889   1.991
 1111SOL    HW2 4474   2.686   0.971   1.953
 1111SOL    HW3 4475   2.654   0.824   1.960
 1111SOL    MW4 4476   2.704   0.892   1.982
 1112SOL     OW 4477   2.655   1.139   1.890
 1112SOL    HW2 4478   2.572   1.187   1.899
 1112SOL    HW3 4479   2.669   1.134   1.796
 1112SOL    MW4 4480   2.646   1.145   1.879
 1113SOL     OW 4481   2.875   1.294   1.999
 1113SOL    HW2 4482   2.891   1.379   1.958
 1113SOL    HW3 4483   2.807   1.254   1.946
 1113SOL    MW4 4484   2.868   1.300   1.987
 1114SOL     OW 4485   2.919   1.522   1.857
 1114SOL    HW2 4486   2.993   1.578   1.880
 1114SOL    HW3 4487   2.905   1.540   1.764
 1114SOL    MW4 4488   2.927   1.532   1.847
 1115SOL     OW 4489   2.694   1.662   1.994
 1115SOL    HW2 4490   2.764   1.618   1.946
 1115SOL    HW3 4491   2.613   1.623   1.959
 1115SOL    MW4 4492   2.692   1.651   1.983
 1116SOL     OW 4493   2.698   1.908   1.877
 1116SOL    HW2 4494   2.770   1.951   1.924
 1116SOL    HW3 4495   2.689   1.823   1.920
 1116SOL    MW4 4496   2.707   1.903   1.889
 1117SOL     OW 4497   2.903   2.063   1.952
 1117SOL    HW2 4498   2.901   2.049   2.047
 1117SOL    HW3 4499   2.980   2.014   1.922
 1117SOL    MW4 4500   2.913   2.054   1.961
 1118SOL     OW 4501   2.905   2.331   1.882
 1118SOL    HW2 4502   2.983   2.372   1.919
 1118SOL    HW3 4503   2.910   2.240   1.912
 1118SOL    MW4 4504   2.916   2.324   1.891
 1119SOL     OW 4505   2.663   2.426   1.978
 1119SOL    HW2 4506   2.664   2.521   1.964
 1119SOL    HW3 4507   2.752   2.398   1.958
 1119SOL    MW4 4508   2.675   2.435   1.973
 1120SOL     OW 4509   2.717   2.691   1.894
 1120SOL    HW2 4510   2.636   2.730   1.927
 1120SOL    HW3 4511   2.696   2.666   1.804
 1120SOL    MW4 4512   2.704   2.693   1.886
 1121SOL     OW 4513   2.945   2.836   1.970
 1121SOL    HW2 4514   2.946   2.923   1.932
 1121SOL    HW3 4515   2.863   2.797   1.940
 1121SOL    MW4 4516   2.935   2.842   1.961
 1122SOL     OW 4517   2.934   3.088   1.877
 1122SOL    HW2 4518   3.006   3.140   1.915
 1122SOL    HW3 4519   2.858   3.113   1.929
 1122SOL    MW4 4520   2.934   3.098   1.889
 1123SOL     OW 4521   2.690   3.178   1.990
 1123SOL    HW2 4522   2.672   3.266   1.959
 1123SOL    HW3 4523   2.621   3.124   1.952
 1123SOL    MW4 4524   2.679   3.182   1.981
 1124SOL     OW 4525   2.687   3.436   1.895
 1124SOL    HW2 4526   2.755   3.492   1.934
 1124SOL    HW3 4527   2.607   3.488   1.902
 1124SOL    MW4 4528   2.686   3.451   1.901
 1125SOL     OW 4529   2.868   3.644   1.989
 1125SOL    HW2 4530   2.872   3.653   2.084
 1125SOL    HW3 4531   2.946   3.594   1.966
 1125SOL    MW4 4532   2.879   3.639   1.998
 1126SOL     OW 4533   2.864   3.901   1.909
 1126SOL    HW2 4534   2.864   3.808   1.934
 1126SOL    HW3 4535   2.882   3.900   1.814
 1126SOL    MW4 4536   2.866   3.889   1.899
 1127SOL     OW 4537   2.633   4.000   1.997
 1127SOL    HW2 4538   2.717   3.968   1.963
 1127SOL    HW3 4539   2.568   3.967   1.934
 1127SOL    MW4 4540   2.635   3.991   1.984
 1128SOL     OW 4541   2.645   4.261   1.907
 1128SOL    HW2 4542   2.646   4.169   1.932
 1128SOL    HW3 4543   2.646   4.259   1.811
 1128SOL    MW4 4544   2.646   4.249   1.898
 1129SOL     OW 4545   2.874   4.399   2.003
 1129SOL    HW2 4546   2.883   4.394   2.098
 1129SOL    HW3 4547   2.796   4.347   1.984
 1129SOL    MW4 4548   2.865   4.391   2.013
 1130SOL     OW 4549   3.385   4.658   1.883
 1130SOL    HW2 4550   3.373   4.566   1.908
 1130SOL    HW3 4551   3.402   4.656   1.789
 1130SOL    MW4 4552   3.386   4.646   1.874
 1131SOL     OW 4553   3.128   0.095   1.973
 1131SOL    HW2 4554   3.125   0.081   2.068
 1131SOL    HW3 4555   3.208   0.052   1.945
 1131SOL    MW4 4556   3.138   0.088   1.982
 1132SOL     OW 4557   3.165   0.374   1.908
 1132SOL    HW2 4558   3.155   0.281   1.931
 1132SOL    HW3 4559   3.156   0.376   1.812
 1132SOL    MW4 4560   3.162   0.362   1.898
 1133SOL     OW 4561   3.389   0.525   1.965
 1133SOL    HW2 4562   3.455   0.470   1.923
 1133SOL    HW3 4563   3.307   0.478   1.952
 1133SOL    MW4 4564   3.387   0.512   1.958
 1134SOL     OW 4565   3.384   0.783   1.895
 1134SOL    HW2 4566   3.306   0.814   1.940
 1134SOL    HW3 4567   3.388   0.689   1.915
 1134SOL    MW4 4568   3.374   0.775   1.904
 1135SOL     OW 4569   3.142   0.895   2.003
 1135SOL    HW2 4570   3.138   0.898   2.099
 1135SOL    HW3 4571   3.138   0.986   1.976
 1135SOL    MW4 4572   3.141   0.907   2.012
 1136SOL     OW 4573   3.095   1.165   1.900
 1136SOL    HW2 4574   3.175   1.207   1.930
 1136SOL    HW3 4575   3.025   1.208   1.950
 1136SOL    MW4 4576   3.096   1.176   1.911
 1137SOL     OW 4577   3.334   1.281   1.974
 1137SOL    HW2 4578   3.327   1.285   2.069
 1137SOL    HW3 4579   3.321   1.371   1.944
 1137SOL    MW4 4580   3.332   1.293   1.983
 1138SOL     OW 4581   3.344   1.546   1.878
 1138SOL    HW2 4582   3.424   1.588   1.910
 1138SOL    HW3 4583   3.274   1.590   1.926
 1138SOL    MW4 4584   3.345   1.558   1.888
 1139SOL     OW 4585   3.140   1.679   1.990
 1139SOL    HW2 4586   3.147   1.686   2.086
 1139SOL    HW3 4587   3.139   1.770   1.960
 1139SOL    MW4 4588   3.141   1.692   1.999
 1140SOL     OW 4589   3.149   1.935   1.892
 1140SOL    HW2 4590   3.227   1.985   1.918
 1140SOL    HW3 4591   3.147   1.941   1.797
 1140SOL    MW4 4592   3.159   1.942   1.883
 1141SOL     OW 4593   3.351   2.086   2.033
 1141SOL    HW2 4594   3.426   2.032   2.008
 1141SOL    HW3 4595   3.365   2.169   1.987
 1141SOL    MW4 4596   3.363   2.090   2.023
 1142SOL     OW 4597   3.362   2.327   1.920
 1142SOL    HW2 4598   3.275   2.359   1.943
 1142SOL    HW3 4599   3.358   2.314   1.825
 1142SOL    MW4 4600   3.350   2.329   1.911
 1143SOL     OW 4601   3.123   2.446   1.980
 1143SOL    HW2 4602   3.144   2.430   2.072
 1143SOL    HW3 4603   3.151   2.536   1.963
 1143SOL    MW4 4604   3.129   2.456   1.990
 1144SOL     OW 4605   3.174   2.698   1.894
 1144SOL    HW2 4606   3.093   2.741   1.922
 1144SOL    HW3 4607   3.173   2.705   1.798
 1144SOL    MW4 4608   3.163   2.705   1.885
 1145SOL     OW 4609   3.377   2.869   1.981
 1145SOL    HW2 4610   3.366   2.844   2.073
 1145SOL    HW3 4611   3.301   2.831   1.936
 1145SOL    MW4 4612   3.366   2.861   1.987
 1146SOL     OW 4613   3.359   3.122   1.865
 1146SOL    HW2 4614   3.445   3.163   1.875
 1146SOL    HW3 4615   3.369   3.035   1.903
 1146SOL    MW4 4616   3.372   3.116   1.872
 1147SOL     OW 4617   3.127   3.252   2.003
 1147SOL    HW2 4618   3.133   3.347   1.987
 1147SOL    HW3 4619   3.209   3.217   1.967
 1147SOL    MW4 4620   3.139   3.260   1.996
 1148SOL     OW 4621   3.118   3.504   1.929
 1148SOL    HW2 4622   3.204   3.543   1.949
 1148SOL    HW3 4623   3.110   3.512   1.834
 1148SOL    MW4 4624   3.129   3.510   1.919
 1149SOL     OW 4625   3.362   3.618   2.003
 1149SOL    HW2 4626   3.433   3.576   1.954
 1149SOL    HW3 4627   3.365   3.710   1.976
 1149SOL    MW4 4628   3.372   3.624   1.993
 1150SOL     OW 4629   3.333   3.866   1.924
 1150SOL    HW2 4630   3.269   3.929   1.956
 1150SOL    HW3 4631   3.349   3.892   1.833
 1150SOL    MW4 4632   3.327   3.878   1.916
 1151SOL     OW 4633   3.093   4.027   2.004
 1151SOL    HW2 4634   3.079   4.029   2.099
 1151SOL    HW3 4635   3.021   3.973   1.970
 1151SOL    MW4 4636   3.082   4.020   2.012
 1152SOL     OW 4637   3.113   4.292   1.881
 1152SOL    HW2 4638   3.126   4.202   1.909
 1152SOL    HW3 4639   3.025   4.315   1.912
 1152SOL    MW4 4640   3.103   4.283   1.889
 1153SOL     OW 4641   3.351   4.411   1.990
 1153SOL    HW2 4642   3.414   4.342   1.971
 1153SOL    HW3 4643   3.267   4.376   1.960
 1153SOL    MW4 4644   3.348   4.398   1.984
 1154SOL     OW 4645   3.792   4.645   1.865
 1154SOL    HW2 4646   3.791   4.561   1.911
 1154SOL    HW3 4647   3.727   4.698   1.910
 1154SOL    MW4 4648   3.783   4.641   1.877
 1155SOL     OW 4649   3.605   0.133   1.981
 1155SOL    HW2 4650   3.605   0.124   2.077
 1155SOL    HW3 4651   3.539   0.070   1.951
 1155SOL    MW4 4652   3.596   0.123   1.990
 1156SOL     OW 4653   3.589   0.391   1.874
 1156SOL    HW2 4654   3.579   0.309   1.921
 1156SOL    HW3 4655   3.607   0.365   1.783
 1156SOL    MW4 4656   3.590   0.377   1.868
 1157SOL     OW 4657   3.822   0.487   2.010
 1157SOL    HW2 4658   3.828   0.580   1.990
 1157SOL    HW3 4659   3.753   0.454   1.953
 1157SOL    MW4 4660   3.814   0.495   2.000
 1158SOL     OW 4661   3.851   0.754   1.940
 1158SOL    HW2 4662   3.775   0.809   1.954
 1158SOL    HW3 4663   3.871   0.763   1.847
 1158SOL    MW4 4664   3.844   0.762   1.929
 1159SOL     OW 4665   3.609   0.943   1.992
 1159SOL    HW2 4666   3.580   1.032   1.975
 1159SOL    HW3 4667   3.547   0.888   1.945
 1159SOL    MW4 4668   3.597   0.947   1.984
 1160SOL     OW 4669   3.584   1.195   1.901
 1160SOL    HW2 4670   3.503   1.231   1.936
 1160SOL    HW3 4671   3.574   1.199   1.806
 1160SOL    MW4 4672   3.572   1.200   1.893
 1161SOL     OW 4673   3.833   1.288   1.963
 1161SOL    HW2 4674   3.840   1.291   2.059
 1161SOL    HW3 4675   3.749   1.245   1.946
 1161SOL    MW4 4676   3.823   1.283   1.973
 1162SOL     OW 4677   3.833   1.566   1.891
 1162SOL    HW2 4678   3.918   1.606   1.910
 1162SOL    HW3 4679   3.842   1.477   1.925
 1162SOL    MW4 4680   3.845   1.559   1.898
 1163SOL     OW 4681   3.576   1.661   1.971
 1163SOL    HW2 4682   3.578   1.756   1.963
 1163SOL    HW3 4683   3.665   1.633   1.949
 1163SOL    MW4 4684   3.588   1.670   1.967
 1164SOL     OW 4685   3.570   1.934   1.933
 1164SOL    HW2 4686   3.657   1.959   1.964
 1164SOL    HW3 4687   3.576   1.937   1.837
 1164SOL    MW4 4688   3.582   1.937   1.924
 1165SOL     OW 4689   3.792   2.054   2.033
 1165SOL    HW2 4690   3.873   2.018   1.997
 1165SOL    HW3 4691   3.785   2.141   1.993
 1165SOL    MW4 4692   3.802   2.061   2.023
 1166SOL     OW 4693   3.798   2.292   1.891
 1166SOL    HW2 4694   3.881   2.321   1.929
 1166SOL    HW3 4695   3.731   2.343   1.938
 1166SOL    MW4 4696   3.800   2.303   1.903
 1167SOL     OW 4697   3.602   2.455   1.994
 1167SOL    HW2 4698   3.600   2.548   1.971
 1167SOL    HW3 4699   3.523   2.418   1.954
 1167SOL    MW4 4700   3.591   2.462   1.986
 1168SOL     OW 4701   3.570   2.701   1.874
 1168SOL    HW2 4702   3.646   2.735   1.922
 1168SOL    HW3 4703   3.498   2.758   1.902
 1168SOL    MW4 4704   3.571   2.713   1.884
 1169SOL     OW 4705   3.808   2.800   1.967
 1169SOL    HW2 4706   3.809   2.812   2.062
 1169SOL    HW3 4707   3.792   2.888   1.932
 1169SOL    MW4 4708   3.806   2.813   1.975
 1170SOL     OW 4709   3.782   3.061   1.878
 1170SOL    HW2 4710   3.700   3.098   1.911
 1170SOL    HW3 4711   3.783   3.086   1.785
 1170SOL    MW4 4712   3.771   3.069   1.870
 1171SOL     OW 4713   3.586   3.248   1.984
 1171SOL    HW2 4714   3.550   3.242   2.073
 1171SOL    HW3 4715   3.589   3.342   1.966
 1171SOL    MW4 4716   3.582   3.260   1.994
 1172SOL     OW 4717   3.583   3.511   1.877
 1172SOL    HW2 4718   3.659   3.566   1.897
 1172SOL    HW3 4719   3.580   3.509   1.781
 1172SOL    MW4 4720   3.593   3.518   1.867
 1173SOL     OW 4721   3.800   3.616   2.015
 1173SOL    HW2 4722   3.854   3.547   1.976
 1173SOL    HW3 4723   3.830   3.696   1.974
 1173SOL    MW4 4724   3.811   3.617   2.005
 1174SOL     OW 4725   3.833   3.863   1.888
 1174SOL    HW2 4726   3.757   3.899   1.935
 1174SOL    HW3 4727   3.806   3.862   1.796
 1174SOL    MW4 4728   3.819   3.867   1.882
 1175SOL     OW 4729   3.603   3.985   1.994
 1175SOL    HW2 4730   3.592   3.989   2.089
 1175SOL    HW3 4731   3.522   3.945   1.963
 1175SOL    MW4 4732   3.591   3.980   2.003
 1176SOL     OW 4733   3.563   4.261   1.898
 1176SOL    HW2 4734   3.634   4.315   1.932
 1176SOL    HW3 4735   3.588   4.171   1.920
 1176SOL    MW4 4736   3.576   4.256   1.905
 1177SOL     OW 4737   3.784   4.412   1.996
 1177SOL    HW2 4738   3.770   4.406   2.090
 1177SOL    HW3 4739   3.866   4.365   1.980
 1177SOL    MW4 4740   3.793   4.405   2.006
 1178SOL     OW 4741   4.281   4.662   1.875
 1178SOL    HW2 4742   4.199   4.704   1.902
 1178SOL    HW3 4743   4.349   4.719   1.908
 1178SOL    MW4 4744   4.279   4.675   1.883
 1179SOL     OW 4745   4.013   0.104   1.966
 1179SOL    HW2 4746   3.996   0.090   2.059
 1179SOL    HW3 4747   3.937   0.066   1.922
 1179SOL    MW4 4748   4.001   0.097   1.973
 1180SOL     OW 4749   4.040   0.386   1.876
 1180SOL    HW2 4750   4.046   0.298   1.914
 1180SOL    HW3 4751   3.968   0.428   1.923
 1180SOL    MW4 4752   4.032   0.380   1.887
 1181SOL     OW 4753   4.264   0.510   1.990
 1181SOL    HW2 4754   4.244   0.519   2.083
 1181SOL    HW3 4755   4.181   0.483   1.950
 1181SOL    MW4 4756   4.251   0.508   1.997
 1182SOL     OW 4757   4.280   0.772   1.882
 1182SOL    HW2 4758   4.278   0.691   1.934
 1182SOL    HW3 4759   4.283   0.742   1.791
 1182SOL    MW4 4760   4.280   0.757   1.877
 1183SOL     OW 4761   4.068   0.907   2.025
 1183SOL    HW2 4762   4.129   0.862   1.966
 1183SOL    HW3 4763   3.983   0.868   2.004
 1183SOL    MW4 4764   4.065   0.896   2.014
 1184SOL     OW 4765   4.037   1.131   1.886
 1184SOL    HW2 4766   4.047   1.057   1.946
 1184SOL    HW3 4767   3.964   1.181   1.922
 1184SOL    MW4 4768   4.029   1.128   1.899
 1185SOL     OW 4769   4.250   1.308   1.955
 1185SOL    HW2 4770   4.235   1.309   2.050
 1185SOL    HW3 4771   4.187   1.246   1.920
 1185SOL    MW4 4772   4.240   1.300   1.963
 1186SOL     OW 4773   4.282   1.565   1.859
 1186SOL    HW2 4774   4.277   1.480   1.902
 1186SOL    HW3 4775   4.236   1.552   1.776
 1186SOL    MW4 4776   4.275   1.552   1.853
 1187SOL     OW 4777   4.067   1.693   1.973
 1187SOL    HW2 4778   4.069   1.677   2.067
 1187SOL    HW3 4779   4.147   1.654   1.939
 1187SOL    MW4 4780   4.078   1.686   1.981
 1188SOL     OW 4781   4.009   1.956   1.885
 1188SOL    HW2 4782   4.020   1.863   1.905
 1188SOL    HW3 4783   4.012   1.960   1.789
 1188SOL    MW4 4784   4.011   1.944   1.875
 1189SOL     OW 4785   4.268   2.071   1.979
 1189SOL    HW2 4786   4.281   2.053   2.072
 1189SOL    HW3 4787   4.182   2.034   1.960
 1189SOL    MW4 4788   4.258   2.064   1.989
 1190SOL     OW 4789   4.255   2.315   1.876
 1190SOL    HW2 4790   4.258   2.225   1.909
 1190SOL    HW3 4791   4.334   2.356   1.910
 1190SOL    MW4 4792   4.266   2.309   1.885
 1191SOL     OW 4793   4.031   2.422   1.999
 1191SOL    HW2 4794   4.042   2.428   2.094
 1191SOL    HW3 4795   4.111   2.378   1.968
 1191SOL    MW4 4796   4.043   2.417   2.007
 1192SOL     OW 4797   4.034   2.681   1.882
 1192SOL    HW2 4798   4.032   2.601   1.935
 1192SOL    HW3 4799   3.959   2.732   1.912
 1192SOL    MW4 4800   4.024   2.677   1.893
 1193SOL     OW 4801   4.238   2.826   1.980
 1193SOL    HW2 4802   4.241   2.815   2.075
 1193SOL    HW3 4803   4.170   2.766   1.951
 1193SOL    MW4 4804   4.230   2.817   1.989
 1194SOL     OW 4805   4.227   3.068   1.881
 1194SOL    HW2 4806   4.145   3.111   1.903
 1194SOL    HW3 4807   4.225   2.986   1.931
 1194SOL    MW4 4808   4.216   3.063   1.891
 1195SOL     OW 4809   3.997   3.206   1.990
 1195SOL    HW2 4810   3.987   3.214   2.085
 1195SOL    HW3 4811   3.933   3.140   1.964
 1195SOL    MW4 4812   3.987   3.199   1.999
 1196SOL     OW 4813   3.998   3.463   1.886
 1196SOL    HW2 4814   4.079   3.501   1.919
 1196SOL    HW3 4815   3.997   3.374   1.920
 1196SOL    MW4 4816   4.008   3.456   1.895
 1197SOL     OW 4817   4.238   3.566   1.945
 1197SOL    HW2 4818   4.235   3.662   1.941
 1197SOL    HW3 4819   4.328   3.544   1.918
 1197SOL    MW4 4820   4.250   3.576   1.941
 1198SOL     OW 4821   4.256   3.852   1.866
 1198SOL    HW2 4822   4.334   3.900   1.892
 1198SOL    HW3 4823   4.253   3.860   1.771
 1198SOL    MW4 4824   4.266   3.860   1.857
 1199SOL     OW 4825   4.047   3.993   1.982
 1199SOL    HW2 4826   4.125   3.956   1.942
 1199SOL    HW3 4827   3.974   3.954   1.933
 1199SOL    MW4 4828   4.048   3.983   1.970
 1200SOL     OW 4829   4.024   4.270   1.921
 1200SOL    HW2 4830   4.112   4.307   1.931
 1200SOL    HW3 4831   4.036   4.176   1.936
 1200SOL    MW4 4832   4.037   4.262   1.924
 1201SOL     OW 4833   4.279   4.405   1.988
 1201SOL    HW2 4834   4.267   4.411   2.083
 1201SOL    HW3 4835   4.289   4.496   1.959
 1201SOL    MW4 4836   4.279   4.418   1.997
 1202SOL     OW 4837   0.226   4.657   2.391
 1202SOL    HW2 4838   0.234   4.672   2.485
 1202SOL    HW3 4839   0.305   4.697   2.353
 1202SOL    MW4 4840   0.237   4.664   2.398
 1203SOL     OW 4841   4.488   0.113   2.310
 1203SOL    HW2 4842   4.565   0.067   2.344
 1203SOL    HW3 4843   4.490   0.098   2.216
 1203SOL    MW4 4844   4.498   0.105   2.302
 1204SOL     OW 4845   4.480   0.386   2.367
 1204SOL    HW2 4846   4.558   0.421   2.323
 1204SOL    HW3 4847   4.491   0.291   2.362
 1204SOL    MW4 4848   4.492   0.378   2.360
 1205SOL     OW 4849   0.199   0.502   2.245
 1205SOL    HW2 4850   0.274   0.454   2.279
 1205SOL    HW3 4851   0.212   0.502   2.150
 1205SOL    MW4 4852   0.211   0.496   2.237
 1206SOL     OW 4853   0.216   0.749   2.362
 1206SOL    HW2 4854   0.228   0.729   2.455
 1206SOL    HW3 4855   0.211   0.663   2.320
 1206SOL    MW4 4856   0.217   0.735   2.369
 1207SOL     OW 4857   0.005   0.905   2.276
 1207SOL    HW2 4858   0.077   0.848   2.301
 1207SOL    HW3 4859   0.010   0.910   2.181
 1207SOL    MW4 4860   0.015   0.898   2.267
 1208SOL     OW 4861   4.465   1.189   2.317
 1208SOL    HW2 4862   4.475   1.187   2.412
 1208SOL    HW3 4863   4.469   1.097   2.290
 1208SOL    MW4 4864   4.467   1.177   2.326
 1209SOL     OW 4865   0.228   1.268   2.245
 1209SOL    HW2 4866   0.146   1.231   2.277
 1209SOL    HW3 4867   0.217   1.273   2.150
 1209SOL    MW4 4868   0.216   1.264   2.237
 1210SOL     OW 4869   0.227   1.535   2.345
 1210SOL    HW2 4870   0.251   1.531   2.438
 1210SOL    HW3 4871   0.234   1.445   2.314
 1210SOL    MW4 4872   0.231   1.523   2.353
 1211SOL     OW 4873   4.484   1.672   2.254
 1211SOL    HW2 4874   4.489   1.757   2.297
 1211SOL    HW3 4875   4.561   1.624   2.287
 1211SOL    MW4 4876   4.495   1.677   2.264
 1212SOL     OW 4877   0.005   1.910   2.356
 1212SOL    HW2 4878  -0.069   1.961   2.321
 1212SOL    HW3 4879   0.083   1.959   2.329
 1212SOL    MW4 4880   0.005   1.924   2.348
 1213SOL     OW 4881   0.212   2.072   2.266
 1213SOL    HW2 4882   0.298   2.032   2.276
 1213SOL    HW3 4883   0.196   2.072   2.171
 1213SOL    MW4 4884   0.221   2.066   2.255
 1214SOL     OW 4885   0.258   2.335   2.338
 1214SOL    HW2 4886   0.235   2.347   2.431
 1214SOL    HW3 4887   0.243   2.242   2.322
 1214SOL    MW4 4888   0.253   2.324   2.348
 1215SOL     OW 4889   0.017   2.430   2.270
 1215SOL    HW2 4890   0.016   2.511   2.321
 1215SOL    HW3 4891   0.106   2.398   2.277
 1215SOL    MW4 4892   0.028   2.437   2.277
 1216SOL     OW 4893   4.487   2.683   2.374
 1216SOL    HW2 4894   4.491   2.696   2.469
 1216SOL    HW3 4895   4.566   2.728   2.341
 1216SOL    MW4 4896   4.498   2.691   2.382
 1217SOL     OW 4897   0.220   2.833   2.268
 1217SOL    HW2 4898   0.306   2.794   2.283
 1217SOL    HW3 4899   0.217   2.850   2.174
 1217SOL    MW4 4900   0.231   2.830   2.258
 1218SOL     OW 4901   0.238   3.099   2.372
 1218SOL    HW2 4902   0.161   3.143   2.337
 1218SOL    HW3 4903   0.223   3.006   2.355
 1218SOL    MW4 4904   0.226   3.092   2.365
 1219SOL     OW 4905   4.490   3.201   2.270
 1219SOL    HW2 4906   4.483   3.293   2.296
 1219SOL    HW3 4907   4.488   3.202   2.175
 1219SOL    MW4 4908   4.489   3.213   2.261
 1220SOL     OW 4909   0.005   3.459   2.354
 1220SOL    HW2 4910  -0.011   3.465   2.448
 1220SOL    HW3 4911  -0.070   3.503   2.313
 1220SOL    MW4 4912  -0.007   3.465   2.361
 1221SOL     OW 4913   0.214   3.601   2.243
 1221SOL    HW2 4914   0.293   3.557   2.271
 1221SOL    HW3 4915   0.143   3.551   2.283
 1221SOL    MW4 4916   0.215   3.589   2.252
 1222SOL     OW 4917   0.177   3.853   2.370
 1222SOL    HW2 4918   0.089   3.878   2.344
 1222SOL    HW3 4919   0.194   3.770   2.326
 1222SOL    MW4 4920   0.168   3.846   2.361
 1223SOL     OW 4921   4.445   3.998   2.266
 1223SOL    HW2 4922   4.428   4.080   2.311
 1223SOL    HW3 4923   4.453   4.022   2.174
 1223SOL    MW4 4924   4.444   4.012   2.260
 1224SOL     OW 4925   4.437   4.247   2.362
 1224SOL    HW2 4926   4.446   4.248   2.457
 1224SOL    HW3 4927   4.506   4.307   2.331
 1224SOL    MW4 4928   4.447   4.255   2.370
 1225SOL     OW 4929   0.174   4.405   2.306
 1225SOL    HW2 4930   0.263   4.375   2.323
 1225SOL    HW3 4931   0.173   4.496   2.336
 1225SOL    MW4 4932   0.185   4.413   2.312
 1226SOL     OW 4933   0.672   0.028   2.343
 1226SOL    HW2 4934   0.669   0.019   2.438
 1226SOL    HW3 4935   0.762   0.055   2.325
 1226SOL    MW4 4936   0.684   0.031   2.353
 1227SOL     OW 4937   0.416   0.126   2.261
 1227SOL    HW2 4938   0.502   0.087   2.276
 1227SOL    HW3 4939   0.415   0.146   2.167
 1227SOL    MW4 4940   0.427   0.124   2.250
 1228SOL     OW 4941   0.445   0.384   2.337
 1228SOL    HW2 4942   0.467   0.382   2.430
 1228SOL    HW3 4943   0.427   0.292   2.314
 1228SOL    MW4 4944   0.446   0.371   2.346
 1229SOL     OW 4945   0.690   0.478   2.231
 1229SOL    HW2 4946   0.697   0.567   2.265
 1229SOL    HW3 4947   0.601   0.451   2.254
 1229SOL    MW4 4948   0.679   0.486   2.238
 1230SOL     OW 4949   0.671   0.745   2.339
 1230SOL    HW2 4950   0.687   0.729   2.432
 1230SOL    HW3 4951   0.595   0.804   2.338
 1230SOL    MW4 4952   0.663   0.751   2.351
 1231SOL     OW 4953   0.446   0.898   2.290
 1231SOL    HW2 4954   0.371   0.850   2.325
 1231SOL    HW3 4955   0.436   0.892   2.195
 1231SOL    MW4 4956   0.435   0.891   2.282
 1232SOL     OW 4957   0.438   1.162   2.377
 1232SOL    HW2 4958   0.436   1.073   2.342
 1232SOL    HW3 4959   0.353   1.199   2.354
 1232SOL    MW4 4960   0.427   1.155   2.369
 1233SOL     OW 4961   0.666   1.302   2.291
 1233SOL    HW2 4962   0.667   1.382   2.342
 1233SOL    HW3 4963   0.585   1.259   2.316
 1233SOL    MW4 4964   0.656   1.307   2.301
 1234SOL     OW 4965   0.681   1.553   2.404
 1234SOL    HW2 4966   0.675   1.591   2.492
 1234SOL    HW3 4967   0.766   1.583   2.370
 1234SOL    MW4 4968   0.692   1.562   2.411
 1235SOL     OW 4969   0.454   1.676   2.289
 1235SOL    HW2 4970   0.522   1.636   2.343
 1235SOL    HW3 4971   0.379   1.616   2.298
 1235SOL    MW4 4972   0.453   1.663   2.297
 1236SOL     OW 4973   0.457   1.969   2.341
 1236SOL    HW2 4974   0.542   1.993   2.304
 1236SOL    HW3 4975   0.450   1.875   2.326
 1236SOL    MW4 4976   0.467   1.960   2.334
 1237SOL     OW 4977   0.699   2.011   2.233
 1237SOL    HW2 4978   0.764   1.967   2.288
 1237SOL    HW3 4979   0.693   2.100   2.269
 1237SOL    MW4 4980   0.707   2.017   2.245
 1238SOL     OW 4981   0.673   2.246   2.370
 1238SOL    HW2 4982   0.665   2.263   2.464
 1238SOL    HW3 4983   0.754   2.290   2.344
 1238SOL    MW4 4984   0.683   2.254   2.379
 1239SOL     OW 4985   0.504   2.456   2.289
 1239SOL    HW2 4986   0.564   2.386   2.315
 1239SOL    HW3 4987   0.417   2.418   2.303
 1239SOL    MW4 4988   0.501   2.442   2.295
 1240SOL     OW 4989   0.445   2.718   2.374
 1240SOL    HW2 4990   0.443   2.719   2.470
 1240SOL    HW3 4991   0.468   2.627   2.353
 1240SOL    MW4 4992   0.448   2.706   2.384
 1241SOL     OW 4993   0.691   2.822   2.243
 1241SOL    HW2 4994   0.759   2.766   2.280
 1241SOL    HW3 4995   0.609   2.786   2.279
 1241SOL    MW4 4996   0.689   2.810   2.253
 1242SOL     OW 4997   0.706   3.076   2.352
 1242SOL    HW2 4998   0.629   3.111   2.308
 1242SOL    HW3 4999   0.707   2.983   2.328
 1242SOL    MW4 5000   0.696   3.068   2.343
 1243SOL     OW 5001   0.468   3.211   2.268
 1243SOL    HW2 5002   0.385   3.181   2.304
 1243SOL    HW3 5003   0.453   3.214   2.173
 1243SOL    MW4 5004   0.455   3.207   2.260
 1244SOL     OW 5005   0.439   3.475   2.366
 1244SOL    HW2 5006   0.510   3.532   2.336
 1244SOL    HW3 5007   0.465   3.387   2.338
 1244SOL    MW4 5008   0.452   3.471   2.358
 1245SOL     OW 5009   0.661   3.624   2.269
 1245SOL    HW2 5010   0.676   3.714   2.299
 1245SOL    HW3 5011   0.673   3.628   2.174
 1245SOL    MW4 5012   0.665   3.636   2.261
 1246SOL     OW 5013   0.648   3.889   2.373
 1246SOL    HW2 5014   0.647   3.889   2.468
 1246SOL    HW3 5015   0.564   3.928   2.348
 1246SOL    MW4 5016   0.637   3.894   2.382
 1247SOL     OW 5017   0.403   4.010   2.287
 1247SOL    HW2 5018   0.315   3.971   2.295
 1247SOL    HW3 5019   0.424   4.003   2.194
 1247SOL    MW4 5020   0.394   4.004   2.276
 1248SOL     OW 5021   0.434   4.301   2.356
 1248SOL    HW2 5022   0.516   4.350   2.347
 1248SOL    HW3 5023   0.457   4.210   2.341
 1248SOL    MW4 5024   0.448   4.296   2.353
 1249SOL     OW 5025   0.686   4.420   2.295
 1249SOL    HW2 5026   0.673   4.513   2.311
 1249SOL    HW3 5027   0.715   4.415   2.204
 1249SOL    MW4 5028   0.688   4.431   2.285
 1250SOL     OW 5029   1.177   4.647   2.347
 1250SOL    HW2 5030   1.185   4.628   2.441
 1250SOL    HW3 5031   1.097   4.699   2.341
 1250SOL    MW4 5032   1.167   4.651   2.359
 1251SOL     OW 5033   0.927   0.092   2.269
 1251SOL    HW2 5034   0.921   0.184   2.294
 1251SOL    HW3 5035   0.917   0.091   2.174
 1251SOL    MW4 5036   0.925   0.104   2.260
 1252SOL     OW 5037   0.899   0.352   2.369
 1252SOL    HW2 5038   0.980   0.399   2.347
 1252SOL    HW3 5039   0.834   0.385   2.307
 1252SOL    MW4 5040   0.901   0.362   2.358
 1253SOL     OW 5041   1.110   0.510   2.294
 1253SOL    HW2 5042   1.190   0.476   2.333
 1253SOL    HW3 5043   1.127   0.511   2.200
 1253SOL    MW4 5044   1.123   0.506   2.287
 1254SOL     OW 5045   1.095   0.802   2.369
 1254SOL    HW2 5046   1.019   0.834   2.321
 1254SOL    HW3 5047   1.104   0.711   2.341
 1254SOL    MW4 5048   1.086   0.794   2.359
 1255SOL     OW 5049   0.864   0.920   2.243
 1255SOL    HW2 5050   0.875   1.010   2.274
 1255SOL    HW3 5051   0.787   0.888   2.290
 1255SOL    MW4 5052   0.855   0.928   2.253
 1256SOL     OW 5053   0.903   1.163   2.371
 1256SOL    HW2 5054   0.982   1.217   2.376
 1256SOL    HW3 5055   0.834   1.225   2.347
 1256SOL    MW4 5056   0.905   1.179   2.369
 1257SOL     OW 5057   1.125   1.319   2.315
 1257SOL    HW2 5058   1.207   1.271   2.330
 1257SOL    HW3 5059   1.106   1.306   2.222
 1257SOL    MW4 5060   1.133   1.311   2.305
 1258SOL     OW 5061   1.170   1.567   2.419
 1258SOL    HW2 5062   1.095   1.616   2.387
 1258SOL    HW3 5063   1.163   1.482   2.377
 1258SOL    MW4 5064   1.159   1.562   2.410
 1259SOL     OW 5065   0.922   1.656   2.309
 1259SOL    HW2 5066   0.917   1.749   2.330
 1259SOL    HW3 5067   0.930   1.653   2.213
 1259SOL    MW4 5068   0.922   1.668   2.299
 1260SOL     OW 5069   0.901   1.915   2.385
 1260SOL    HW2 5070   0.898   1.915   2.480
 1260SOL    HW3 5071   0.967   1.982   2.363
 1260SOL    MW4 5072   0.910   1.924   2.395
 1261SOL     OW 5073   1.116   2.094   2.301
 1261SOL    HW2 5074   1.194   2.052   2.338
 1261SOL    HW3 5075   1.126   2.084   2.206
 1261SOL    MW4 5076   1.128   2.087   2.294
 1262SOL     OW 5077   1.136   2.363   2.416
 1262SOL    HW2 5078   1.215   2.402   2.380
 1262SOL    HW3 5079   1.131   2.276   2.377
 1262SOL    MW4 5080   1.145   2.356   2.406
 1263SOL     OW 5081   0.896   2.387   2.256
 1263SOL    HW2 5082   0.985   2.378   2.289
 1263SOL    HW3 5083   0.906   2.419   2.166
 1263SOL    MW4 5084   0.909   2.390   2.248
 1264SOL     OW 5085   0.873   2.641   2.370
 1264SOL    HW2 5086   0.862   2.655   2.464
 1264SOL    HW3 5087   0.875   2.546   2.360
 1264SOL    MW4 5088   0.872   2.630   2.381
 1265SOL     OW 5089   1.120   2.813   2.251
 1265SOL    HW2 5090   1.202   2.767   2.267
 1265SOL    HW3 5091   1.054   2.761   2.297
 1265SOL    MW4 5092   1.122   2.800   2.259
 1266SOL     OW 5093   1.122   3.085   2.366
 1266SOL    HW2 5094   1.052   3.119   2.312
 1266SOL    HW3 5095   1.129   2.992   2.341
 1266SOL    MW4 5096   1.114   3.077   2.356
 1267SOL     OW 5097   0.915   3.221   2.237
 1267SOL    HW2 5098   0.912   3.315   2.251
 1267SOL    HW3 5099   0.840   3.186   2.285
 1267SOL    MW4 5100   0.905   3.228   2.245
 1268SOL     OW 5101   0.878   3.464   2.376
 1268SOL    HW2 5102   0.870   3.459   2.471
 1268SOL    HW3 5103   0.797   3.505   2.347
 1268SOL    MW4 5104   0.866   3.469   2.385
 1269SOL     OW 5105   1.086   3.613   2.260
 1269SOL    HW2 5106   1.163   3.578   2.304
 1269SOL    HW3 5107   1.012   3.576   2.307
 1269SOL    MW4 5108   1.087   3.604   2.272
 1270SOL     OW 5109   1.107   3.866   2.364
 1270SOL    HW2 5110   1.184   3.909   2.326
 1270SOL    HW3 5111   1.097   3.785   2.314
 1270SOL    MW4 5112   1.116   3.861   2.353
 1271SOL     OW 5113   0.877   4.015   2.279
 1271SOL    HW2 5114   0.947   3.956   2.304
 1271SOL    HW3 5115   0.797   3.974   2.311
 1271SOL    MW4 5116   0.876   4.002   2.286
 1272SOL     OW 5117   0.916   4.283   2.367
 1272SOL    HW2 5118   0.897   4.192   2.343
 1272SOL    HW3 5119   0.836   4.330   2.344
 1272SOL    MW4 5120   0.903   4.277   2.361
 1273SOL     OW 5121   1.145   4.396   2.236
 1273SOL    HW2 5122   1.075   4.349   2.281
 1273SOL    HW3 5123   1.156   4.476   2.286
 1273SOL    MW4 5124   1.137   4.400   2.249
 1274SOL     OW 5125   1.533   4.658   2.367
 1274SOL    HW2 5126   1.618   4.681   2.329
 1274SOL    HW3 5127   1.470   4.708   2.316
 1274SOL    MW4 5128   1.536   4.668   2.355
 1275SOL     OW 5129   1.353   0.145   2.210
 1275SOL    HW2 5130   1.369   0.223   2.263
 1275SOL    HW3 5131   1.290   0.094   2.261
 1275SOL    MW4 5132   1.347   0.148   2.224
 1276SOL     OW 5133   1.341   0.369   2.373
 1276SOL    HW2 5134   1.349   0.376   2.468
 1276SOL    HW3 5135   1.415   0.418   2.338
 1276SOL    MW4 5136   1.352   0.376   2.381
 1277SOL     OW 5137   1.548   0.459   2.225
 1277SOL    HW2 5138   1.637   0.435   2.252
 1277SOL    HW3 5139   1.555   0.473   2.131
 1277SOL    MW4 5140   1.561   0.458   2.216
 1278SOL     OW 5141   1.548   0.749   2.310
 1278SOL    HW2 5142   1.636   0.784   2.296
 1278SOL    HW3 5143   1.555   0.657   2.284
 1278SOL    MW4 5144   1.561   0.741   2.304
 1279SOL     OW 5145   1.322   0.899   2.235
 1279SOL    HW2 5146   1.398   0.851   2.268
 1279SOL    HW3 5147   1.248   0.864   2.285
 1279SOL    MW4 5148   1.322   0.888   2.246
 1280SOL     OW 5149   1.327   1.162   2.336
 1280SOL    HW2 5150   1.337   1.144   2.429
 1280SOL    HW3 5151   1.336   1.076   2.294
 1280SOL    MW4 5152   1.330   1.148   2.343
 1281SOL     OW 5153   1.576   1.329   2.266
 1281SOL    HW2 5154   1.497   1.280   2.291
 1281SOL    HW3 5155   1.577   1.326   2.171
 1281SOL    MW4 5156   1.566   1.322   2.257
 1282SOL     OW 5157   1.582   1.571   2.385
 1282SOL    HW2 5158   1.651   1.611   2.333
 1282SOL    HW3 5159   1.588   1.478   2.366
 1282SOL    MW4 5160   1.592   1.564   2.376
 1283SOL     OW 5161   1.357   1.723   2.284
 1283SOL    HW2 5162   1.438   1.678   2.307
 1283SOL    HW3 5163   1.290   1.681   2.338
 1283SOL    MW4 5164   1.359   1.711   2.294
 1284SOL     OW 5165   1.366   1.974   2.382
 1284SOL    HW2 5166   1.435   2.010   2.327
 1284SOL    HW3 5167   1.366   1.881   2.363
 1284SOL    MW4 5168   1.375   1.967   2.372
 1285SOL     OW 5169   1.563   2.106   2.252
 1285SOL    HW2 5170   1.633   2.055   2.291
 1285SOL    HW3 5171   1.554   2.072   2.164
 1285SOL    MW4 5172   1.571   2.095   2.246
 1286SOL     OW 5173   1.571   2.375   2.332
 1286SOL    HW2 5174   1.573   2.372   2.428
 1286SOL    HW3 5175   1.559   2.284   2.306
 1286SOL    MW4 5176   1.570   2.363   2.342
 1287SOL     OW 5177   1.334   2.449   2.246
 1287SOL    HW2 5178   1.413   2.416   2.288
 1287SOL    HW3 5179   1.347   2.431   2.153
 1287SOL    MW4 5180   1.346   2.443   2.239
 1288SOL     OW 5181   1.353   2.710   2.322
 1288SOL    HW2 5182   1.436   2.739   2.284
 1288SOL    HW3 5183   1.349   2.616   2.303
 1288SOL    MW4 5184   1.363   2.702   2.314
 1289SOL     OW 5185   1.578   2.825   2.204
 1289SOL    HW2 5186   1.585   2.910   2.247
 1289SOL    HW3 5187   1.580   2.844   2.110
 1289SOL    MW4 5188   1.579   2.839   2.197
 1290SOL     OW 5189   1.536   3.069   2.331
 1290SOL    HW2 5190   1.540   3.052   2.425
 1290SOL    HW3 5191   1.469   3.137   2.322
 1290SOL    MW4 5192   1.527   3.076   2.342
 1291SOL     OW 5193   1.325   3.230   2.269
 1291SOL    HW2 5194   1.250   3.173   2.286
 1291SOL    HW3 5195   1.338   3.224   2.174
 1291SOL    MW4 5196   1.317   3.222   2.258
 1292SOL     OW 5197   1.310   3.489   2.384
 1292SOL    HW2 5198   1.326   3.467   2.476
 1292SOL    HW3 5199   1.317   3.406   2.338
 1292SOL    MW4 5200   1.313   3.475   2.390
 1293SOL     OW 5201   1.536   3.636   2.263
 1293SOL    HW2 5202   1.535   3.727   2.292
 1293SOL    HW3 5203   1.460   3.596   2.306
 1293SOL    MW4 5204   1.526   3.642   2.272
 1294SOL     OW 5205   1.546   3.888   2.361
 1294SOL    HW2 5206   1.541   3.883   2.456
 1294SOL    HW3 5207   1.631   3.930   2.345
 1294SOL    MW4 5208   1.557   3.893   2.372
 1295SOL     OW 5209   1.316   3.997   2.263
 1295SOL    HW2 5210   1.395   3.962   2.304
 1295SOL    HW3 5211   1.328   3.980   2.169
 1295SOL    MW4 5212   1.328   3.990   2.256
 1296SOL     OW 5213   1.338   4.240   2.367
 1296SOL    HW2 5214   1.326   4.156   2.323
 1296SOL    HW3 5215   1.272   4.297   2.328
 1296SOL    MW4 5216   1.327   4.237   2.356
 1297SOL     OW 5217   1.533   4.402   2.263
 1297SOL    HW2 5218   1.476   4.341   2.311
 1297SOL    HW3 5219   1.519   4.486   2.306
 1297SOL    MW4 5220   1.523   4.405   2.275
 1298SOL     OW 5221   2.021   4.662   2.371
 1298SOL    HW2 5222   2.092   4.710   2.327
 1298SOL    HW3 5223   2.028   4.573   2.337
 1298SOL    MW4 5224   2.032   4.657   2.360
 1299SOL     OW 5225   1.787   0.084   2.240
 1299SOL    HW2 5226   1.791   0.176   2.266
 1299SOL    HW3 5227   1.865   0.045   2.279
 1299SOL    MW4 5228   1.798   0.091   2.249
 1300SOL     OW 5229   1.782   0.350   2.332
 1300SOL    HW2 5230   1.772   0.374   2.424
 1300SOL    HW3 5231   1.862   0.395   2.304
 1300SOL    MW4 5232   1.791   0.359   2.340
 1301SOL     OW 5233   2.002   0.487   2.221
 1301SOL    HW2 5234   2.029   0.573   2.254
 1301SOL    HW3 5235   2.013   0.492   2.126
 1301SOL    MW4 5236   2.007   0.499   2.213
 1302SOL     OW 5237   2.001   0.759   2.347
 1302SOL    HW2 5238   2.071   0.789   2.289
 1302SOL    HW3 5239   1.931   0.824   2.335
 1302SOL    MW4 5240   2.001   0.772   2.338
 1303SOL     OW 5241   1.783   0.896   2.255
 1303SOL    HW2 5242   1.776   0.991   2.270
 1303SOL    HW3 5243   1.766   0.886   2.162
 1303SOL    MW4 5244   1.780   0.907   2.245
 1304SOL     OW 5245   1.790   1.155   2.333
 1304SOL    HW2 5246   1.870   1.206   2.322
 1304SOL    HW3 5247   1.723   1.208   2.289
 1304SOL    MW4 5248   1.792   1.169   2.325
 1305SOL     OW 5249   2.013   1.293   2.260
 1305SOL    HW2 5250   2.013   1.380   2.299
 1305SOL    HW3 5251   2.015   1.310   2.165
 1305SOL    MW4 5252   2.014   1.307   2.252
 1306SOL     OW 5253   2.011   1.558   2.357
 1306SOL    HW2 5254   2.017   1.545   2.451
 1306SOL    HW3 5255   1.940   1.622   2.346
 1306SOL    MW4 5256   2.002   1.565   2.368
 1307SOL     OW 5257   1.797   1.711   2.256
 1307SOL    HW2 5258   1.788   1.802   2.283
 1307SOL    HW3 5259   1.793   1.713   2.160
 1307SOL    MW4 5260   1.795   1.723   2.247
 1308SOL     OW 5261   1.761   1.960   2.381
 1308SOL    HW2 5262   1.752   1.943   2.475
 1308SOL    HW3 5263   1.848   2.000   2.373
 1308SOL    MW4 5264   1.771   1.963   2.393
 1309SOL     OW 5265   2.020   2.027   2.306
 1309SOL    HW2 5266   2.089   1.972   2.342
 1309SOL    HW3 5267   2.030   2.020   2.211
 1309SOL    MW4 5268   2.030   2.019   2.298
 1310SOL     OW 5269   2.018   2.296   2.376
 1310SOL    HW2 5270   2.079   2.330   2.310
 1310SOL    HW3 5271   2.024   2.201   2.366
 1310SOL    MW4 5272   2.027   2.288   2.366
 1311SOL     OW 5273   1.822   2.432   2.240
 1311SOL    HW2 5274   1.888   2.373   2.277
 1311SOL    HW3 5275   1.739   2.398   2.273
 1311SOL    MW4 5276   1.820   2.420   2.249
 1312SOL     OW 5277   1.798   2.703   2.336
 1312SOL    HW2 5278   1.810   2.618   2.294
 1312SOL    HW3 5279   1.712   2.733   2.305
 1312SOL    MW4 5280   1.788   2.696   2.327
 1313SOL     OW 5281   2.033   2.828   2.290
 1313SOL    HW2 5282   2.094   2.758   2.316
 1313SOL    HW3 5283   1.947   2.788   2.298
 1313SOL    MW4 5284   2.030   2.813   2.295
 1314SOL     OW 5285   2.014   3.107   2.375
 1314SOL    HW2 5286   2.093   3.130   2.326
 1314SOL    HW3 5287   2.006   3.012   2.364
 1314SOL    MW4 5288   2.023   3.098   2.367
 1315SOL     OW 5289   1.757   3.232   2.264
 1315SOL    HW2 5290   1.837   3.195   2.303
 1315SOL    HW3 5291   1.685   3.187   2.309
 1315SOL    MW4 5292   1.758   3.221   2.275
 1316SOL     OW 5293   1.778   3.492   2.346
 1316SOL    HW2 5294   1.765   3.399   2.324
 1316SOL    HW3 5295   1.698   3.535   2.317
 1316SOL    MW4 5296   1.766   3.485   2.339
 1317SOL     OW 5297   2.026   3.586   2.270
 1317SOL    HW2 5298   1.936   3.556   2.282
 1317SOL    HW3 5299   2.042   3.577   2.176
 1317SOL    MW4 5300   2.016   3.581   2.259
 1318SOL     OW 5301   2.012   3.861   2.372
 1318SOL    HW2 5302   2.032   3.854   2.466
 1318SOL    HW3 5303   2.013   3.771   2.340
 1318SOL    MW4 5304   2.015   3.848   2.381
 1319SOL     OW 5305   1.788   4.014   2.295
 1319SOL    HW2 5306   1.857   3.965   2.340
 1319SOL    HW3 5307   1.796   3.988   2.203
 1319SOL    MW4 5308   1.798   4.004   2.289
 1320SOL     OW 5309   1.768   4.286   2.373
 1320SOL    HW2 5310   1.763   4.196   2.343
 1320SOL    HW3 5311   1.688   4.327   2.340
 1320SOL    MW4 5312   1.757   4.280   2.365
 1321SOL     OW 5313   2.034   4.393   2.263
 1321SOL    HW2 5314   1.952   4.353   2.293
 1321SOL    HW3 5315   2.029   4.391   2.168
 1321SOL    MW4 5316   2.023   4.388   2.255
 1322SOL     OW 5317   2.473   0.005   2.329
 1322SOL    HW2 5318   2.559   0.036   2.301
 1322SOL    HW3 5319   2.475  -0.089   2.313
 1322SOL    MW4 5320   2.485  -0.003   2.323
 1323SOL     OW 5321   2.231   0.110   2.246
 1323SOL    HW2 5322   2.238   0.191   2.296
 1323SOL    HW3 5323   2.310   0.061   2.267
 1323SOL    MW4 5324   2.242   0.114   2.255
 1324SOL     OW 5325   2.247   0.385   2.346
 1324SOL    HW2 5326   2.311   0.446   2.306
 1324SOL    HW3 5327   2.163   0.415   2.313
 1324SOL    MW4 5328   2.245   0.397   2.336
 1325SOL     OW 5329   2.454   0.520   2.239
 1325SOL    HW2 5330   2.528   0.469   2.272
 1325SOL    HW3 5331   2.439   0.487   2.151
 1325SOL    MW4 5332   2.462   0.509   2.232
 1326SOL     OW 5333   2.462   0.771   2.383
 1326SOL    HW2 5334   2.535   0.825   2.355
 1326SOL    HW3 5335   2.473   0.689   2.335
 1326SOL    MW4 5336   2.473   0.767   2.373
 1327SOL     OW 5337   2.244   0.860   2.252
 1327SOL    HW2 5338   2.228   0.947   2.287
 1327SOL    HW3 5339   2.318   0.827   2.303
 1327SOL    MW4 5340   2.252   0.867   2.263
 1328SOL     OW 5341   2.214   1.113   2.365
 1328SOL    HW2 5342   2.294   1.163   2.347
 1328SOL    HW3 5343   2.145   1.165   2.324
 1328SOL    MW4 5344   2.216   1.127   2.357
 1329SOL     OW 5345   2.448   1.295   2.291
 1329SOL    HW2 5346   2.534   1.257   2.310
 1329SOL    HW3 5347   2.451   1.383   2.329
 1329SOL    MW4 5348   2.460   1.302   2.299
 1330SOL     OW 5349   2.474   1.543   2.381
 1330SOL    HW2 5350   2.487   1.560   2.474
 1330SOL    HW3 5351   2.544   1.592   2.337
 1330SOL    MW4 5352   2.485   1.552   2.387
 1331SOL     OW 5353   2.247   1.651   2.240
 1331SOL    HW2 5354   2.319   1.617   2.294
 1331SOL    HW3 5355   2.169   1.610   2.277
 1331SOL    MW4 5356   2.246   1.641   2.252
 1332SOL     OW 5357   2.219   1.867   2.414
 1332SOL    HW2 5358   2.289   1.920   2.374
 1332SOL    HW3 5359   2.226   1.782   2.371
 1332SOL    MW4 5360   2.229   1.863   2.403
 1333SOL     OW 5361   2.409   2.015   2.284
 1333SOL    HW2 5362   2.487   1.972   2.320
 1333SOL    HW3 5363   2.430   2.029   2.191
 1333SOL    MW4 5364   2.422   2.011   2.276
 1334SOL     OW 5365   2.459   2.270   2.402
 1334SOL    HW2 5366   2.530   2.313   2.355
 1334SOL    HW3 5367   2.455   2.182   2.364
 1334SOL    MW4 5368   2.468   2.264   2.391
 1335SOL     OW 5369   2.251   2.397   2.271
 1335SOL    HW2 5370   2.259   2.491   2.285
 1335SOL    HW3 5371   2.305   2.358   2.340
 1335SOL    MW4 5372   2.259   2.404   2.282
 1336SOL     OW 5373   2.259   2.671   2.337
 1336SOL    HW2 5374   2.243   2.692   2.429
 1336SOL    HW3 5375   2.327   2.733   2.311
 1336SOL    MW4 5376   2.266   2.682   2.346
 1337SOL     OW 5377   2.456   2.834   2.273
 1337SOL    HW2 5378   2.530   2.781   2.302
 1337SOL    HW3 5379   2.457   2.827   2.177
 1337SOL    MW4 5380   2.466   2.826   2.264
 1338SOL     OW 5381   2.436   3.087   2.374
 1338SOL    HW2 5382   2.520   3.126   2.350
 1338SOL    HW3 5383   2.429   3.010   2.318
 1338SOL    MW4 5384   2.446   3.082   2.364
 1339SOL     OW 5385   2.227   3.206   2.222
 1339SOL    HW2 5386   2.240   3.294   2.258
 1339SOL    HW3 5387   2.293   3.152   2.266
 1339SOL    MW4 5388   2.237   3.210   2.233
 1340SOL     OW 5389   2.261   3.457   2.346
 1340SOL    HW2 5390   2.273   3.467   2.441
 1340SOL    HW3 5391   2.175   3.494   2.329
 1340SOL    MW4 5392   2.252   3.463   2.357
 1341SOL     OW 5393   2.471   3.598   2.228
 1341SOL    HW2 5394   2.479   3.682   2.273
 1341SOL    HW3 5395   2.396   3.556   2.269
 1341SOL    MW4 5396   2.462   3.604   2.240
 1342SOL     OW 5397   2.486   3.807   2.392
 1342SOL    HW2 5398   2.495   3.829   2.484
 1342SOL    HW3 5399   2.415   3.863   2.360
 1342SOL    MW4 5400   2.478   3.817   2.400
 1343SOL     OW 5401   2.268   3.954   2.305
 1343SOL    HW2 5402   2.266   4.043   2.339
 1343SOL    HW3 5403   2.184   3.917   2.330
 1343SOL    MW4 5404   2.257   3.961   2.313
 1344SOL     OW 5405   2.241   4.225   2.381
 1344SOL    HW2 5406   2.228   4.251   2.472
 1344SOL    HW3 5407   2.177   4.278   2.332
 1344SOL    MW4 5408   2.230   4.236   2.386
 1345SOL     OW 5409   2.442   4.394   2.303
 1345SOL    HW2 5410   2.522   4.353   2.337
 1345SOL    HW3 5411   2.371   4.341   2.339
 1345SOL    MW4 5412   2.443   4.381   2.312
 1346SOL     OW 5413   2.917   4.661   2.375
 1346SOL    HW2 5414   2.998   4.696   2.338
 1346SOL    HW3 5415   2.919   4.568   2.354
 1346SOL    MW4 5416   2.928   4.653   2.367
 1347SOL     OW 5417   2.710   0.133   2.233
 1347SOL    HW2 5418   2.693   0.223   2.259
 1347SOL    HW3 5419   2.790   0.109   2.280
 1347SOL    MW4 5420   2.718   0.142   2.243
 1348SOL     OW 5421   2.679   0.388   2.335
 1348SOL    HW2 5422   2.703   0.373   2.427
 1348SOL    HW3 5423   2.756   0.430   2.297
 1348SOL    MW4 5424   2.692   0.392   2.342
 1349SOL     OW 5425   2.937   0.492   2.262
 1349SOL    HW2 5426   2.923   0.581   2.296
 1349SOL    HW3 5427   2.927   0.501   2.168
 1349SOL    MW4 5428   2.934   0.505   2.254
 1350SOL     OW 5429   2.894   0.746   2.366
 1350SOL    HW2 5430   2.908   0.757   2.461
 1350SOL    HW3 5431   2.819   0.801   2.346
 1350SOL    MW4 5432   2.886   0.754   2.376
 1351SOL     OW 5433   2.683   0.899   2.280
 1351SOL    HW2 5434   2.692   0.992   2.298
 1351SOL    HW3 5435   2.691   0.892   2.185
 1351SOL    MW4 5436   2.685   0.910   2.270
 1352SOL     OW 5437   2.676   1.177   2.364
 1352SOL    HW2 5438   2.681   1.172   2.459
 1352SOL    HW3 5439   2.754   1.227   2.338
 1352SOL    MW4 5440   2.687   1.183   2.373
 1353SOL     OW 5441   2.897   1.302   2.278
 1353SOL    HW2 5442   2.973   1.246   2.294
 1353SOL    HW3 5443   2.884   1.297   2.183
 1353SOL    MW4 5444   2.905   1.294   2.267
 1354SOL     OW 5445   2.918   1.553   2.368
 1354SOL    HW2 5446   2.902   1.567   2.462
 1354SOL    HW3 5447   2.907   1.459   2.355
 1354SOL    MW4 5448   2.915   1.543   2.379
 1355SOL     OW 5449   2.685   1.675   2.269
 1355SOL    HW2 5450   2.767   1.629   2.286
 1355SOL    HW3 5451   2.682   1.682   2.174
 1355SOL    MW4 5452   2.696   1.670   2.259
 1356SOL     OW 5453   2.665   1.935   2.379
 1356SOL    HW2 5454   2.670   1.931   2.474
 1356SOL    HW3 5455   2.677   1.844   2.351
 1356SOL    MW4 5456   2.667   1.923   2.388
 1357SOL     OW 5457   2.888   2.020   2.233
 1357SOL    HW2 5458   2.969   1.990   2.276
 1357SOL    HW3 5459   2.818   1.987   2.289
 1357SOL    MW4 5460   2.890   2.012   2.246
 1358SOL     OW 5461   2.908   2.308   2.339
 1358SOL    HW2 5462   2.917   2.310   2.435
 1358SOL    HW3 5463   2.922   2.217   2.315
 1358SOL    MW4 5464   2.911   2.296   2.349
 1359SOL     OW 5465   2.654   2.407   2.264
 1359SOL    HW2 5466   2.730   2.351   2.281
 1359SOL    HW3 5467   2.640   2.400   2.170
 1359SOL    MW4 5468   2.662   2.399   2.254
 1360SOL     OW 5469   2.678   2.664   2.346
 1360SOL    HW2 5470   2.764   2.691   2.315
 1360SOL    HW3 5471   2.664   2.578   2.307
 1360SOL    MW4 5472   2.687   2.656   2.337
 1361SOL     OW 5473   2.915   2.792   2.254
 1361SOL    HW2 5474   2.912   2.881   2.290
 1361SOL    HW3 5475   2.929   2.805   2.160
 1361SOL    MW4 5476   2.916   2.806   2.246
 1362SOL     OW 5477   2.910   3.037   2.369
 1362SOL    HW2 5478   2.982   3.088   2.333
 1362SOL    HW3 5479   2.831   3.083   2.340
 1362SOL    MW4 5480   2.909   3.050   2.360
 1363SOL     OW 5481   2.674   3.174   2.280
 1363SOL    HW2 5482   2.678   3.265   2.310
 1363SOL    HW3 5483   2.680   3.180   2.185
 1363SOL    MW4 5484   2.676   3.187   2.272
 1364SOL     OW 5485   2.670   3.448   2.351
 1364SOL    HW2 5486   2.755   3.488   2.333
 1364SOL    HW3 5487   2.607   3.508   2.311
 1364SOL    MW4 5488   2.673   3.462   2.343
 1365SOL     OW 5489   2.884   3.608   2.277
 1365SOL    HW2 5490   2.966   3.568   2.306
 1365SOL    HW3 5491   2.873   3.684   2.334
 1365SOL    MW4 5492   2.894   3.613   2.288
 1366SOL     OW 5493   2.896   3.852   2.415
 1366SOL    HW2 5494   2.893   3.866   2.509
 1366SOL    HW3 5495   2.816   3.893   2.382
 1366SOL    MW4 5496   2.885   3.859   2.423
 1367SOL     OW 5497   2.667   3.983   2.291
 1367SOL    HW2 5498   2.603   3.923   2.330
 1367SOL    HW3 5499   2.641   3.989   2.199
 1367SOL    MW4 5500   2.655   3.976   2.284
 1368SOL     OW 5501   2.654   4.244   2.410
 1368SOL    HW2 5502   2.653   4.251   2.505
 1368SOL    HW3 5503   2.678   4.153   2.393
 1368SOL    MW4 5504   2.657   4.233   2.420
 1369SOL     OW 5505   2.873   4.395   2.296
 1369SOL    HW2 5506   2.944   4.354   2.346
 1369SOL    HW3 5507   2.795   4.347   2.322
 1369SOL    MW4 5508   2.872   4.383   2.306
 1370SOL     OW 5509   3.351   4.647   2.358
 1370SOL    HW2 5510   3.342   4.679   2.448
 1370SOL    HW3 5511   3.430   4.690   2.325
 1370SOL    MW4 5512   3.361   4.657   2.366
 1371SOL     OW 5513   3.135   0.097   2.256
 1371SOL    HW2 5514   3.131   0.188   2.284
 1371SOL    HW3 5515   3.215   0.063   2.297
 1371SOL    MW4 5516   3.145   0.105   2.265
 1372SOL     OW 5517   3.142   0.341   2.356
 1372SOL    HW2 5518   3.214   0.394   2.322
 1372SOL    HW3 5519   3.064   0.395   2.344
 1372SOL    MW4 5520   3.141   0.355   2.350
 1373SOL     OW 5521   3.376   0.480   2.266
 1373SOL    HW2 5522   3.450   0.427   2.295
 1373SOL    HW3 5523   3.389   0.489   2.171
 1373SOL    MW4 5524   3.388   0.474   2.257
 1374SOL     OW 5525   3.363   0.744   2.339
 1374SOL    HW2 5526   3.444   0.788   2.314
 1374SOL    HW3 5527   3.372   0.655   2.305
 1374SOL    MW4 5528   3.375   0.738   2.331
 1375SOL     OW 5529   3.116   0.891   2.279
 1375SOL    HW2 5530   3.193   0.839   2.304
 1375SOL    HW3 5531   3.042   0.835   2.303
 1375SOL    MW4 5532   3.116   0.877   2.286
 1376SOL     OW 5533   3.126   1.159   2.359
 1376SOL    HW2 5534   3.202   1.197   2.314
 1376SOL    HW3 5535   3.123   1.069   2.328
 1376SOL    MW4 5536   3.136   1.152   2.349
 1377SOL     OW 5537   3.339   1.303   2.246
 1377SOL    HW2 5538   3.420   1.256   2.266
 1377SOL    HW3 5539   3.347   1.386   2.291
 1377SOL    MW4 5540   3.350   1.308   2.254
 1378SOL     OW 5541   3.388   1.562   2.359
 1378SOL    HW2 5542   3.375   1.576   2.452
 1378SOL    HW3 5543   3.317   1.611   2.317
 1378SOL    MW4 5544   3.377   1.570   2.365
 1379SOL     OW 5545   3.153   1.680   2.258
 1379SOL    HW2 5546   3.165   1.768   2.293
 1379SOL    HW3 5547   3.072   1.648   2.298
 1379SOL    MW4 5548   3.144   1.687   2.268
 1380SOL     OW 5549   3.170   1.937   2.346
 1380SOL    HW2 5550   3.160   1.939   2.441
 1380SOL    HW3 5551   3.250   1.987   2.329
 1380SOL    MW4 5552   3.179   1.944   2.356
 1381SOL     OW 5553   3.406   2.067   2.299
 1381SOL    HW2 5554   3.475   2.011   2.334
 1381SOL    HW3 5555   3.417   2.062   2.204
 1381SOL    MW4 5556   3.417   2.059   2.291
 1382SOL     OW 5557   3.385   2.323   2.381
 1382SOL    HW2 5558   3.306   2.363   2.344
 1382SOL    HW3 5559   3.391   2.238   2.339
 1382SOL    MW4 5560   3.376   2.317   2.370
 1383SOL     OW 5561   3.152   2.431   2.260
 1383SOL    HW2 5562   3.148   2.519   2.297
 1383SOL    HW3 5563   3.061   2.401   2.259
 1383SOL    MW4 5564   3.140   2.438   2.265
 1384SOL     OW 5565   3.138   2.698   2.364
 1384SOL    HW2 5566   3.122   2.708   2.458
 1384SOL    HW3 5567   3.061   2.735   2.322
 1384SOL    MW4 5568   3.126   2.704   2.371
 1385SOL     OW 5569   3.357   2.797   2.234
 1385SOL    HW2 5570   3.363   2.888   2.262
 1385SOL    HW3 5571   3.273   2.766   2.270
 1385SOL    MW4 5572   3.346   2.805   2.243
 1386SOL     OW 5573   3.320   3.057   2.306
 1386SOL    HW2 5574   3.386   3.122   2.280
 1386SOL    HW3 5575   3.237   3.105   2.303
 1386SOL    MW4 5576   3.318   3.072   2.302
 1387SOL     OW 5577   3.099   3.218   2.275
 1387SOL    HW2 5578   3.101   3.308   2.307
 1387SOL    HW3 5579   3.113   3.226   2.180
 1387SOL    MW4 5580   3.101   3.231   2.267
 1388SOL     OW 5581   3.124   3.485   2.359
 1388SOL    HW2 5582   3.132   3.491   2.454
 1388SOL    HW3 5583   3.205   3.525   2.326
 1388SOL    MW4 5584   3.136   3.491   2.367
 1389SOL     OW 5585   3.340   3.620   2.264
 1389SOL    HW2 5586   3.425   3.584   2.287
 1389SOL    HW3 5587   3.339   3.621   2.168
 1389SOL    MW4 5588   3.351   3.616   2.254
 1390SOL     OW 5589   3.297   3.895   2.297
 1390SOL    HW2 5590   3.379   3.944   2.295
 1390SOL    HW3 5591   3.324   3.803   2.290
 1390SOL    MW4 5592   3.311   3.889   2.296
 1391SOL     OW 5593   3.068   4.027   2.285
 1391SOL    HW2 5594   3.150   3.980   2.271
 1391SOL    HW3 5595   3.011   3.964   2.329
 1391SOL    MW4 5596   3.071   4.013   2.289
 1392SOL     OW 5597   3.099   4.273   2.400
 1392SOL    HW2 5598   3.178   4.310   2.360
 1392SOL    HW3 5599   3.093   4.185   2.363
 1392SOL    MW4 5600   3.109   4.266   2.390
 1393SOL     OW 5601   3.334   4.394   2.270
 1393SOL    HW2 5602   3.335   4.483   2.307
 1393SOL    HW3 5603   3.337   4.408   2.175
 1393SOL    MW4 5604   3.334   4.408   2.262
 1394SOL     OW 5605   3.802   4.660   2.402
 1394SOL    HW2 5606   3.813   4.666   2.497
 1394SOL    HW3 5607   3.884   4.691   2.366
 1394SOL    MW4 5608   3.814   4.665   2.410
 1395SOL     OW 5609   3.597   0.107   2.266
 1395SOL    HW2 5610   3.585   0.200   2.287
 1395SOL    HW3 5611   3.678   0.083   2.311
 1395SOL    MW4 5612   3.607   0.116   2.275
 1396SOL     OW 5613   3.607   0.367   2.374
 1396SOL    HW2 5614   3.592   0.374   2.468
 1396SOL    HW3 5615   3.684   0.422   2.358
 1396SOL    MW4 5616   3.615   0.375   2.384
 1397SOL     OW 5617   3.839   0.503   2.294
 1397SOL    HW2 5618   3.843   0.597   2.312
 1397SOL    HW3 5619   3.840   0.496   2.198
 1397SOL    MW4 5620   3.840   0.514   2.284
 1398SOL     OW 5621   3.834   0.781   2.354
 1398SOL    HW2 5622   3.833   0.787   2.449
 1398SOL    HW3 5623   3.902   0.842   2.326
 1398SOL    MW4 5624   3.843   0.790   2.363
 1399SOL     OW 5625   3.579   0.886   2.261
 1399SOL    HW2 5626   3.665   0.846   2.270
 1399SOL    HW3 5627   3.580   0.926   2.174
 1399SOL    MW4 5628   3.590   0.886   2.250
 1400SOL     OW 5629   3.578   1.159   2.334
 1400SOL    HW2 5630   3.594   1.165   2.429
 1400SOL    HW3 5631   3.561   1.066   2.319
 1400SOL    MW4 5632   3.578   1.147   2.345
 1401SOL     OW 5633   3.826   1.242   2.266
 1401SOL    HW2 5634   3.823   1.335   2.289
 1401SOL    HW3 5635   3.741   1.207   2.293
 1401SOL    MW4 5636   3.815   1.249   2.273
 1402SOL     OW 5637   3.834   1.504   2.364
 1402SOL    HW2 5638   3.826   1.512   2.459
 1402SOL    HW3 5639   3.768   1.564   2.329
 1402SOL    MW4 5640   3.824   1.513   2.372
 1403SOL     OW 5641   3.619   1.635   2.257
 1403SOL    HW2 5642   3.538   1.601   2.294
 1403SOL    HW3 5643   3.603   1.639   2.163
 1403SOL    MW4 5644   3.606   1.631   2.250
 1404SOL     OW 5645   3.588   1.876   2.385
 1404SOL    HW2 5646   3.671   1.922   2.373
 1404SOL    HW3 5647   3.598   1.795   2.335
 1404SOL    MW4 5648   3.600   1.872   2.377
 1405SOL     OW 5649   3.807   2.035   2.323
 1405SOL    HW2 5650   3.881   1.976   2.335
 1405SOL    HW3 5651   3.799   2.044   2.228
 1405SOL    MW4 5652   3.815   2.028   2.312
 1406SOL     OW 5653   3.840   2.302   2.381
 1406SOL    HW2 5654   3.760   2.345   2.350
 1406SOL    HW3 5655   3.834   2.213   2.346
 1406SOL    MW4 5656   3.829   2.296   2.372
 1407SOL     OW 5657   3.611   2.430   2.268
 1407SOL    HW2 5658   3.533   2.384   2.297
 1407SOL    HW3 5659   3.602   2.434   2.172
 1407SOL    MW4 5660   3.599   2.425   2.259
 1408SOL     OW 5661   3.585   2.693   2.363
 1408SOL    HW2 5662   3.582   2.599   2.346
 1408SOL    HW3 5663   3.500   2.725   2.333
 1408SOL    MW4 5664   3.573   2.685   2.357
 1409SOL     OW 5665   3.797   2.829   2.248
 1409SOL    HW2 5666   3.789   2.919   2.277
 1409SOL    HW3 5667   3.722   2.784   2.286
 1409SOL    MW4 5668   3.786   2.835   2.257
 1410SOL     OW 5669   3.771   3.089   2.329
 1410SOL    HW2 5670   3.773   3.092   2.424
 1410SOL    HW3 5671   3.856   3.124   2.302
 1410SOL    MW4 5672   3.782   3.094   2.338
 1411SOL     OW 5673   3.542   3.241   2.262
 1411SOL    HW2 5674   3.544   3.333   2.290
 1411SOL    HW3 5675   3.624   3.205   2.296
 1411SOL    MW4 5676   3.553   3.249   2.270
 1412SOL     OW 5677   3.582   3.506   2.331
 1412SOL    HW2 5678   3.574   3.499   2.426
 1412SOL    HW3 5679   3.669   3.543   2.316
 1412SOL    MW4 5680   3.592   3.510   2.341
 1413SOL     OW 5681   3.832   3.608   2.289
 1413SOL    HW2 5682   3.808   3.698   2.311
 1413SOL    HW3 5683   3.827   3.604   2.193
 1413SOL    MW4 5684   3.828   3.619   2.279
 1414SOL     OW 5685   3.778   3.853   2.360
 1414SOL    HW2 5686   3.780   3.857   2.456
 1414SOL    HW3 5687   3.850   3.909   2.333
 1414SOL    MW4 5688   3.788   3.861   2.369
 1415SOL     OW 5689   3.556   4.005   2.259
 1415SOL    HW2 5690   3.557   4.092   2.300
 1415SOL    HW3 5691   3.623   3.956   2.306
 1415SOL    MW4 5692   3.565   4.010   2.271
 1416SOL     OW 5693   3.539   4.253   2.371
 1416SOL    HW2 5694   3.611   4.304   2.334
 1416SOL    HW3 5695   3.460   4.298   2.339
 1416SOL    MW4 5696   3.538   4.266   2.362
 1417SOL     OW 5697   3.748   4.421   2.267
 1417SOL    HW2 5698   3.821   4.375   2.308
 1417SOL    HW3 5699   3.756   4.511   2.296
 1417SOL    MW4 5700   3.759   4.427   2.276
 1418SOL     OW 5701   4.257   4.659   2.402
 1418SOL    HW2 5702   4.241   4.657   2.496
 1418SOL    HW3 5703   4.325   4.725   2.390
 1418SOL    MW4 5704   4.264   4.667   2.413
 1419SOL     OW 5705   4.025   0.093   2.279
 1419SOL    HW2 5706   4.021   0.178   2.322
 1419SOL    HW3 5707   4.113   0.059   2.300
 1419SOL    MW4 5708   4.036   0.099   2.287
 1420SOL     OW 5709   4.042   0.346   2.379
 1420SOL    HW2 5710   4.109   0.387   2.324
 1420SOL    HW3 5711   3.962   0.395   2.360
 1420SOL    MW4 5712   4.040   0.358   2.369
 1421SOL     OW 5713   4.250   0.507   2.271
 1421SOL    HW2 5714   4.266   0.597   2.298
 1421SOL    HW3 5715   4.323   0.457   2.308
 1421SOL    MW4 5716   4.261   0.512   2.279
 1422SOL     OW 5717   4.276   0.762   2.391
 1422SOL    HW2 5718   4.217   0.834   2.366
 1422SOL    HW3 5719   4.364   0.798   2.381
 1422SOL    MW4 5720   4.279   0.776   2.386
 1423SOL     OW 5721   4.077   0.933   2.290
 1423SOL    HW2 5722   4.079   1.026   2.314
 1423SOL    HW3 5723   4.063   0.933   2.196
 1423SOL    MW4 5724   4.075   0.946   2.281
 1424SOL     OW 5725   4.063   1.189   2.391
 1424SOL    HW2 5726   4.057   1.185   2.486
 1424SOL    HW3 5727   3.975   1.212   2.361
 1424SOL    MW4 5728   4.051   1.192   2.399
 1425SOL     OW 5729   4.231   1.323   2.224
 1425SOL    HW2 5730   4.176   1.272   2.283
 1425SOL    HW3 5731   4.319   1.290   2.239
 1425SOL    MW4 5732   4.235   1.312   2.234
 1426SOL     OW 5733   4.256   1.551   2.393
 1426SOL    HW2 5734   4.268   1.464   2.355
 1426SOL    HW3 5735   4.323   1.605   2.350
 1426SOL    MW4 5736   4.267   1.547   2.383
 1427SOL     OW 5737   4.044   1.633   2.262
 1427SOL    HW2 5738   4.119   1.602   2.313
 1427SOL    HW3 5739   3.969   1.583   2.296
 1427SOL    MW4 5740   4.044   1.623   2.274
 1428SOL     OW 5741   4.045   1.892   2.358
 1428SOL    HW2 5742   4.050   1.892   2.453
 1428SOL    HW3 5743   4.038   1.799   2.334
 1428SOL    MW4 5744   4.044   1.880   2.367
 1429SOL     OW 5745   4.270   2.039   2.250
 1429SOL    HW2 5746   4.260   2.127   2.287
 1429SOL    HW3 5747   4.192   1.992   2.278
 1429SOL    MW4 5748   4.259   2.045   2.258
 1430SOL     OW 5749   4.306   2.274   2.405
 1430SOL    HW2 5750   4.230   2.324   2.375
 1430SOL    HW3 5751   4.381   2.327   2.380
 1430SOL    MW4 5752   4.305   2.288   2.398
 1431SOL     OW 5753   4.076   2.403   2.275
 1431SOL    HW2 5754   4.064   2.494   2.304
 1431SOL    HW3 5755   4.001   2.356   2.311
 1431SOL    MW4 5756   4.064   2.409   2.283
 1432SOL     OW 5757   4.018   2.656   2.359
 1432SOL    HW2 5758   4.014   2.656   2.455
 1432SOL    HW3 5759   3.941   2.706   2.331
 1432SOL    MW4 5760   4.007   2.662   2.368
 1433SOL     OW 5761   4.250   2.792   2.264
 1433SOL    HW2 5762   4.174   2.750   2.305
 1433SOL    HW3 5763   4.325   2.757   2.311
 1433SOL    MW4 5764   4.250   2.782   2.275
 1434SOL     OW 5765   4.275   3.074   2.327
 1434SOL    HW2 5766   4.297   2.981   2.315
 1434SOL    HW3 5767   4.355   3.121   2.304
 1434SOL    MW4 5768   4.288   3.068   2.322
 1435SOL     OW 5769   4.024   3.189   2.256
 1435SOL    HW2 5770   4.035   3.275   2.296
 1435SOL    HW3 5771   4.109   3.146   2.266
 1435SOL    MW4 5772   4.036   3.194   2.263
 1436SOL     OW 5773   4.056   3.458   2.340
 1436SOL    HW2 5774   4.141   3.497   2.317
 1436SOL    HW3 5775   3.992   3.525   2.317
 1436SOL    MW4 5776   4.059   3.472   2.334
 1437SOL     OW 5777   4.274   3.599   2.210
 1437SOL    HW2 5778   4.261   3.691   2.230
 1437SOL    HW3 5779   4.252   3.591   2.117
 1437SOL    MW4 5780   4.269   3.610   2.201
 1438SOL     OW 5781   4.224   3.848   2.324
 1438SOL    HW2 5782   4.234   3.867   2.417
 1438SOL    HW3 5783   4.294   3.896   2.282
 1438SOL    MW4 5784   4.234   3.857   2.331
 1439SOL     OW 5785   3.986   4.011   2.246
 1439SOL    HW2 5786   4.054   3.947   2.270
 1439SOL    HW3 5787   3.998   4.024   2.151
 1439SOL    MW4 5788   3.996   4.004   2.236
 1440SOL     OW 5789   3.986   4.279   2.334
 1440SOL    HW2 5790   4.049   4.338   2.292
 1440SOL    HW3 5791   4.001   4.194   2.293
 1440SOL    MW4 5792   3.996   4.275   2.323
 1441SOL     OW 5793   4.227   4.432   2.269
 1441SOL    HW2 5794   4.231   4.520   2.305
 1441SOL    HW3 5795   4.296   4.384   2.315
 1441SOL    MW4 5796   4.236   4.437   2.280
 1442SOL     OW 5797   0.236   0.013   2.686
 1442SOL    HW2 5798   0.226  -0.080   2.705
 1442SOL    HW3 5799   0.146   0.046   2.680
 1442SOL    MW4 5800   0.222   0.005   2.688
 1443SOL     OW 5801   4.484   0.118   2.697
 1443SOL    HW2 5802   4.499   0.127   2.791
 1443SOL    HW3 5803   4.483   0.207   2.663
 1443SOL    MW4 5804   4.486   0.131   2.705
 1444SOL     OW 5805   4.480   0.392   2.640
 1444SOL    HW2 5806   4.570   0.392   2.673
 1444SOL    HW3 5807   4.489   0.397   2.545
 1444SOL    MW4 5808   4.493   0.393   2.631
 1445SOL     OW 5809   0.239   0.453   2.726
 1445SOL    HW2 5810   0.238   0.450   2.822
 1445SOL    HW3 5811   0.326   0.420   2.702
 1445SOL    MW4 5812   0.250   0.448   2.735
 1446SOL     OW 5813   0.236   0.731   2.660
 1446SOL    HW2 5814   0.319   0.754   2.703
 1446SOL    HW3 5815   0.223   0.638   2.681
 1446SOL    MW4 5816   0.245   0.722   2.669
 1447SOL     OW 5817   0.033   0.933   2.714
 1447SOL    HW2 5818  -0.048   0.886   2.694
 1447SOL    HW3 5819   0.103   0.871   2.695
 1447SOL    MW4 5820   0.032   0.919   2.709
 1448SOL     OW 5821   4.482   1.188   2.607
 1448SOL    HW2 5822   4.548   1.234   2.659
 1448SOL    HW3 5823   4.504   1.095   2.618
 1448SOL    MW4 5824   4.494   1.182   2.616
 1449SOL     OW 5825   0.219   1.288   2.749
 1449SOL    HW2 5826   0.295   1.235   2.722
 1449SOL    HW3 5827   0.231   1.371   2.704
 1449SOL    MW4 5828   0.231   1.292   2.740
 1450SOL     OW 5829   0.237   1.544   2.629
 1450SOL    HW2 5830   0.301   1.584   2.689
 1450SOL    HW3 5831   0.152   1.565   2.667
 1450SOL    MW4 5832   0.235   1.552   2.642
 1451SOL     OW 5833   4.476   1.659   2.749
 1451SOL    HW2 5834   4.493   1.660   2.843
 1451SOL    HW3 5835   4.493   1.749   2.721
 1451SOL    MW4 5836   4.480   1.671   2.758
 1452SOL     OW 5837   4.485   1.929   2.643
 1452SOL    HW2 5838   4.567   1.973   2.666
 1452SOL    HW3 5839   4.490   1.917   2.548
 1452SOL    MW4 5840   4.497   1.933   2.634
 1453SOL     OW 5841   0.233   2.051   2.722
 1453SOL    HW2 5842   0.309   2.007   2.685
 1453SOL    HW3 5843   0.243   2.143   2.695
 1453SOL    MW4 5844   0.244   2.057   2.713
 1454SOL     OW 5845   0.215   2.313   2.644
 1454SOL    HW2 5846   0.294   2.356   2.677
 1454SOL    HW3 5847   0.143   2.358   2.690
 1454SOL    MW4 5848   0.216   2.325   2.655
 1455SOL     OW 5849   4.476   2.456   2.733
 1455SOL    HW2 5850   4.472   2.490   2.823
 1455SOL    HW3 5851   4.413   2.384   2.732
 1455SOL    MW4 5852   4.467   2.451   2.745
 1456SOL     OW 5853   4.478   2.720   2.640
 1456SOL    HW2 5854   4.393   2.755   2.666
 1456SOL    HW3 5855   4.473   2.627   2.663
 1456SOL    MW4 5856   4.466   2.712   2.647
 1457SOL     OW 5857   0.222   2.825   2.771
 1457SOL    HW2 5858   0.228   2.916   2.740
 1457SOL    HW3 5859   0.144   2.790   2.728
 1457SOL    MW4 5860   0.212   2.833   2.761
 1458SOL     OW 5861   0.223   3.073   2.671
 1458SOL    HW2 5862   0.282   3.143   2.699
 1458SOL    HW3 5863   0.232   3.072   2.575
 1458SOL    MW4 5864   0.232   3.082   2.662
 1459SOL     OW 5865   4.475   3.209   2.695
 1459SOL    HW2 5866   4.401   3.151   2.675
 1459SOL    HW3 5867   4.552   3.152   2.687
 1459SOL    MW4 5868   4.475   3.194   2.691
 1460SOL     OW 5869   4.444   3.483   2.627
 1460SOL    HW2 5870   4.519   3.527   2.666
 1460SOL    HW3 5871   4.460   3.390   2.642
 1460SOL    MW4 5872   4.456   3.477   2.634
 1461SOL     OW 5873   0.175   3.592   2.736
 1461SOL    HW2 5874   0.178   3.599   2.831
 1461SOL    HW3 5875   0.251   3.540   2.712
 1461SOL    MW4 5876   0.185   3.586   2.745
 1462SOL     OW 5877   0.201   3.857   2.643
 1462SOL    HW2 5878   0.192   3.767   2.674
 1462SOL    HW3 5879   0.218   3.848   2.549
 1462SOL    MW4 5880   0.202   3.844   2.634
 1463SOL     OW 5881   4.478   3.989   2.743
 1463SOL    HW2 5882   4.471   4.081   2.717
 1463SOL    HW3 5883   4.558   3.958   2.701
 1463SOL    MW4 5884   4.488   3.997   2.734
 1464SOL     OW 5885   4.488   4.240   2.648
 1464SOL    HW2 5886   4.410   4.279   2.686
 1464SOL    HW3 5887   4.559   4.301   2.671
 1464SOL    MW4 5888   4.487   4.253   2.656
 1465SOL     OW 5889   0.213   4.401   2.732
 1465SOL    HW2 5890   0.220   4.385   2.826
 1465SOL    HW3 5891   0.291   4.361   2.695
 1465SOL    MW4 5892   0.224   4.394   2.740
 1466SOL     OW 5893   0.671   4.665   2.622
 1466SOL    HW2 5894   0.749   4.704   2.662
 1466SOL    HW3 5895   0.598   4.707   2.667
 1466SOL    MW4 5896   0.672   4.676   2.633
 1467SOL     OW 5897   0.481   0.127   2.751
 1467SOL    HW2 5898   0.484   0.124   2.847
 1467SOL    HW3 5899   0.400   0.083   2.728
 1467SOL    MW4 5900   0.471   0.121   2.761
 1468SOL     OW 5901   0.495   0.380   2.630
 1468SOL    HW2 5902   0.575   0.420   2.664
 1468SOL    HW3 5903   0.499   0.289   2.661
 1468SOL    MW4 5904   0.506   0.373   2.639
 1469SOL     OW 5905   0.708   0.485   2.760
 1469SOL    HW2 5906   0.697   0.482   2.855
 1469SOL    HW3 5907   0.794   0.447   2.745
 1469SOL    MW4 5908   0.718   0.480   2.771
 1470SOL     OW 5909   0.714   0.739   2.636
 1470SOL    HW2 5910   0.777   0.799   2.675
 1470SOL    HW3 5911   0.709   0.666   2.698
 1470SOL    MW4 5912   0.721   0.737   2.650
 1471SOL     OW 5913   0.466   0.866   2.729
 1471SOL    HW2 5914   0.455   0.958   2.704
 1471SOL    HW3 5915   0.542   0.837   2.679
 1471SOL    MW4 5916   0.475   0.875   2.719
 1472SOL     OW 5917   0.424   1.138   2.651
 1472SOL    HW2 5918   0.501   1.179   2.690
 1472SOL    HW3 5919   0.437   1.148   2.557
 1472SOL    MW4 5920   0.436   1.145   2.644
 1473SOL     OW 5921   0.644   1.267   2.764
 1473SOL    HW2 5922   0.675   1.284   2.852
 1473SOL    HW3 5923   0.719   1.230   2.718
 1473SOL    MW4 5924   0.658   1.264   2.769
 1474SOL     OW 5925   0.673   1.526   2.696
 1474SOL    HW2 5926   0.591   1.569   2.722
 1474SOL    HW3 5927   0.655   1.433   2.706
 1474SOL    MW4 5928   0.660   1.520   2.701
 1475SOL     OW 5929   0.451   1.676   2.750
 1475SOL    HW2 5930   0.466   1.701   2.841
 1475SOL    HW3 5931   0.459   1.758   2.701
 1475SOL    MW4 5932   0.454   1.690   2.756
 1476SOL     OW 5933   0.448   1.912   2.618
 1476SOL    HW2 5934   0.519   1.964   2.657
 1476SOL    HW3 5935   0.451   1.935   2.525
 1476SOL    MW4 5936   0.458   1.922   2.611
 1477SOL     OW 5937   0.638   2.045   2.741
 1477SOL    HW2 5938   0.628   2.036   2.836
 1477SOL    HW3 5939   0.707   1.983   2.718
 1477SOL    MW4 5940   0.646   2.035   2.750
 1478SOL     OW 5941   0.655   2.300   2.637
 1478SOL    HW2 5942   0.724   2.351   2.679
 1478SOL    HW3 5943   0.648   2.220   2.691
 1478SOL    MW4 5944   0.663   2.296   2.650
 1479SOL     OW 5945   0.441   2.429   2.764
 1479SOL    HW2 5946   0.454   2.523   2.752
 1479SOL    HW3 5947   0.513   2.389   2.713
 1479SOL    MW4 5948   0.452   2.436   2.755
 1480SOL     OW 5949   0.440   2.684   2.650
 1480SOL    HW2 5950   0.512   2.741   2.677
 1480SOL    HW3 5951   0.362   2.726   2.687
 1480SOL    MW4 5952   0.439   2.697   2.659
 1481SOL     OW 5953   0.628   2.865   2.741
 1481SOL    HW2 5954   0.634   2.858   2.836
 1481SOL    HW3 5955   0.643   2.958   2.722
 1481SOL    MW4 5956   0.631   2.876   2.751
 1482SOL     OW 5957   0.670   3.129   2.674
 1482SOL    HW2 5958   0.760   3.144   2.703
 1482SOL    HW3 5959   0.679   3.103   2.582
 1482SOL    MW4 5960   0.683   3.127   2.666
 1483SOL     OW 5961   0.424   3.240   2.742
 1483SOL    HW2 5962   0.425   3.236   2.838
 1483SOL    HW3 5963   0.511   3.210   2.716
 1483SOL    MW4 5964   0.436   3.235   2.751
 1484SOL     OW 5965   0.401   3.476   2.635
 1484SOL    HW2 5966   0.420   3.390   2.671
 1484SOL    HW3 5967   0.424   3.469   2.542
 1484SOL    MW4 5968   0.406   3.464   2.627
 1485SOL     OW 5969   0.651   3.626   2.694
 1485SOL    HW2 5970   0.636   3.628   2.789
 1485SOL    HW3 5971   0.577   3.577   2.659
 1485SOL    MW4 5972   0.639   3.620   2.702
 1486SOL     OW 5973   0.656   3.901   2.653
 1486SOL    HW2 5974   0.575   3.938   2.687
 1486SOL    HW3 5975   0.647   3.807   2.667
 1486SOL    MW4 5976   0.644   3.893   2.659
 1487SOL     OW 5977   0.409   4.009   2.757
 1487SOL    HW2 5978   0.402   4.093   2.712
 1487SOL    HW3 5979   0.337   3.956   2.720
 1487SOL    MW4 5980   0.398   4.013   2.746
 1488SOL     OW 5981   0.438   4.279   2.644
 1488SOL    HW2 5982   0.518   4.320   2.676
 1488SOL    HW3 5983   0.454   4.263   2.551
 1488SOL    MW4 5984   0.450   4.282   2.636
 1489SOL     OW 5985   0.670   4.404   2.730
 1489SOL    HW2 5986   0.750   4.358   2.706
 1489SOL    HW3 5987   0.678   4.489   2.687
 1489SOL    MW4 5988   0.681   4.409   2.721
 1490SOL     OW 5989   1.175   4.606   2.619
 1490SOL    HW2 5990   1.236   4.657   2.673
 1490SOL    HW3 5991   1.175   4.519   2.661
 1490SOL    MW4 5992   1.183   4.601   2.632
 1491SOL     OW 5993   0.905   0.095   2.723
 1491SOL    HW2 5994   0.889   0.105   2.817
 1491SOL    HW3 5995   0.989   0.049   2.718
 1491SOL    MW4 5996   0.914   0.090   2.735
 1492SOL     OW 5997   0.930   0.351   2.648
 1492SOL    HW2 5998   0.926   0.258   2.667
 1492SOL    HW3 5999   0.905   0.358   2.556
 1492SOL    MW4 6000   0.926   0.340   2.638
 1493SOL     OW 6001   1.129   0.500   2.771
 1493SOL    HW2 6002   1.108   0.587   2.738
 1493SOL    HW3 6003   1.065   0.442   2.728
 1493SOL    MW4 6004   1.117   0.504   2.761
 1494SOL     OW 6005   1.129   0.743   2.642
 1494SOL    HW2 6006   1.207   0.787   2.677
 1494SOL    HW3 6007   1.132   0.762   2.548
 1494SOL    MW4 6008   1.140   0.751   2.634
 1495SOL     OW 6009   0.917   0.899   2.746
 1495SOL    HW2 6010   0.926   0.898   2.841
 1495SOL    HW3 6011   0.986   0.840   2.715
 1495SOL    MW4 6012   0.927   0.891   2.755
 1496SOL     OW 6013   0.859   1.154   2.637
 1496SOL    HW2 6014   0.856   1.063   2.666
 1496SOL    HW3 6015   0.864   1.147   2.541
 1496SOL    MW4 6016   0.859   1.141   2.628
 1497SOL     OW 6017   1.086   1.236   2.765
 1497SOL    HW2 6018   1.100   1.329   2.743
 1497SOL    HW3 6019   1.008   1.212   2.716
 1497SOL    MW4 6020   1.078   1.245   2.756
 1498SOL     OW 6021   1.120   1.488   2.684
 1498SOL    HW2 6022   1.043   1.541   2.704
 1498SOL    HW3 6023   1.137   1.505   2.591
 1498SOL    MW4 6024   1.112   1.497   2.674
 1499SOL     OW 6025   0.915   1.647   2.742
 1499SOL    HW2 6026   0.919   1.667   2.836
 1499SOL    HW3 6027   0.827   1.612   2.729
 1499SOL    MW4 6028   0.903   1.645   2.753
 1500SOL     OW 6029   0.865   1.913   2.664
 1500SOL    HW2 6030   0.937   1.968   2.696
 1500SOL    HW3 6031   0.889   1.825   2.691
 1500SOL    MW4 6032   0.878   1.909   2.672
 1501SOL     OW 6033   1.059   2.069   2.760
 1501SOL    HW2 6034   1.143   2.044   2.721
 1501SOL    HW3 6035   1.057   2.164   2.753
 1501SOL    MW4 6036   1.070   2.078   2.754
 1502SOL     OW 6037   1.100   2.318   2.686
 1502SOL    HW2 6038   1.190   2.328   2.715
 1502SOL    HW3 6039   1.102   2.338   2.593
 1502SOL    MW4 6040   1.112   2.322   2.678
 1503SOL     OW 6041   0.855   2.444   2.759
 1503SOL    HW2 6042   0.852   2.531   2.720
 1503SOL    HW3 6043   0.934   2.404   2.724
 1503SOL    MW4 6044   0.865   2.450   2.749
 1504SOL     OW 6045   0.848   2.716   2.622
 1504SOL    HW2 6046   0.926   2.769   2.637
 1504SOL    HW3 6047   0.777   2.763   2.666
 1504SOL    MW4 6048   0.849   2.729   2.630
 1505SOL     OW 6049   1.083   2.832   2.713
 1505SOL    HW2 6050   1.106   2.825   2.806
 1505SOL    HW3 6051   1.159   2.795   2.667
 1505SOL    MW4 6052   1.096   2.826   2.719
 1506SOL     OW 6053   1.148   3.096   2.655
 1506SOL    HW2 6054   1.122   3.007   2.678
 1506SOL    HW3 6055   1.136   3.101   2.560
 1506SOL    MW4 6056   1.143   3.085   2.645
 1507SOL     OW 6057   0.919   3.208   2.749
 1507SOL    HW2 6058   0.903   3.286   2.696
 1507SOL    HW3 6059   1.006   3.179   2.721
 1507SOL    MW4 6060   0.928   3.215   2.738
 1508SOL     OW 6061   0.887   3.462   2.648
 1508SOL    HW2 6062   0.961   3.508   2.690
 1508SOL    HW3 6063   0.810   3.512   2.676
 1508SOL    MW4 6064   0.887   3.475   2.657
 1509SOL     OW 6065   1.102   3.599   2.753
 1509SOL    HW2 6066   1.101   3.626   2.845
 1509SOL    HW3 6067   1.100   3.681   2.704
 1509SOL    MW4 6068   1.102   3.613   2.759
 1510SOL     OW 6069   1.098   3.851   2.635
 1510SOL    HW2 6070   1.178   3.889   2.673
 1510SOL    HW3 6071   1.110   3.859   2.541
 1510SOL    MW4 6072   1.110   3.857   2.628
 1511SOL     OW 6073   0.893   4.008   2.748
 1511SOL    HW2 6074   0.958   3.963   2.693
 1511SOL    HW3 6075   0.809   3.970   2.721
 1511SOL    MW4 6076   0.890   3.997   2.737
 1512SOL     OW 6077   0.888   4.266   2.645
 1512SOL    HW2 6078   0.892   4.174   2.670
 1512SOL    HW3 6079   0.884   4.265   2.549
 1512SOL    MW4 6080   0.888   4.254   2.635
 1513SOL     OW 6081   1.144   4.351   2.762
 1513SOL    HW2 6082   1.137   4.378   2.853
 1513SOL    HW3 6083   1.055   4.327   2.736
 1513SOL    MW4 6084   1.131   4.351   2.770
 1514SOL     OW 6085   1.573   4.666   2.639
 1514SOL    HW2 6086   1.550   4.580   2.674
 1514SOL    HW3 6087   1.548   4.661   2.547
 1514SOL    MW4 6088   1.567   4.654   2.631
 1515SOL     OW 6089   1.362   0.105   2.752
 1515SOL    HW2 6090   1.350   0.185   2.702
 1515SOL    HW3 6091   1.437   0.062   2.711
 1515SOL    MW4 6092   1.370   0.110   2.740
 1516SOL     OW 6093   1.351   0.358   2.656
 1516SOL    HW2 6094   1.438   0.389   2.681
 1516SOL    HW3 6095   1.292   0.405   2.715
 1516SOL    MW4 6096   1.355   0.369   2.667
 1517SOL     OW 6097   1.596   0.484   2.733
 1517SOL    HW2 6098   1.660   0.434   2.681
 1517SOL    HW3 6099   1.576   0.560   2.679
 1517SOL    MW4 6100   1.602   0.487   2.719
 1518SOL     OW 6101   1.545   0.714   2.604
 1518SOL    HW2 6102   1.486   0.779   2.643
 1518SOL    HW3 6103   1.557   0.743   2.514
 1518SOL    MW4 6104   1.539   0.726   2.598
 1519SOL     OW 6105   1.347   0.887   2.726
 1519SOL    HW2 6106   1.322   0.901   2.817
 1519SOL    HW3 6107   1.342   0.974   2.686
 1519SOL    MW4 6108   1.343   0.900   2.732
 1520SOL     OW 6109   1.339   1.146   2.632
 1520SOL    HW2 6110   1.399   1.209   2.672
 1520SOL    HW3 6111   1.253   1.169   2.669
 1520SOL    MW4 6112   1.335   1.158   2.642
 1521SOL     OW 6113   1.574   1.298   2.708
 1521SOL    HW2 6114   1.584   1.280   2.801
 1521SOL    HW3 6115   1.643   1.246   2.666
 1521SOL    MW4 6116   1.585   1.289   2.715
 1522SOL     OW 6117   1.579   1.577   2.670
 1522SOL    HW2 6118   1.572   1.483   2.691
 1522SOL    HW3 6119   1.576   1.580   2.574
 1522SOL    MW4 6120   1.578   1.565   2.660
 1523SOL     OW 6121   1.342   1.692   2.704
 1523SOL    HW2 6122   1.426   1.648   2.692
 1523SOL    HW3 6123   1.278   1.621   2.708
 1523SOL    MW4 6124   1.344   1.677   2.703
 1524SOL     OW 6125   1.305   1.991   2.649
 1524SOL    HW2 6126   1.292   1.898   2.665
 1524SOL    HW3 6127   1.327   1.997   2.556
 1524SOL    MW4 6128   1.306   1.980   2.639
 1525SOL     OW 6129   1.545   2.077   2.748
 1525SOL    HW2 6130   1.615   2.020   2.718
 1525SOL    HW3 6131   1.466   2.041   2.707
 1525SOL    MW4 6132   1.544   2.065   2.739
 1526SOL     OW 6133   1.576   2.333   2.610
 1526SOL    HW2 6134   1.648   2.377   2.654
 1526SOL    HW3 6135   1.573   2.246   2.650
 1526SOL    MW4 6136   1.585   2.327   2.621
 1527SOL     OW 6137   1.357   2.471   2.731
 1527SOL    HW2 6138   1.318   2.544   2.683
 1527SOL    HW3 6139   1.435   2.449   2.681
 1527SOL    MW4 6140   1.362   2.478   2.718
 1528SOL     OW 6141   1.322   2.705   2.602
 1528SOL    HW2 6142   1.401   2.744   2.640
 1528SOL    HW3 6143   1.343   2.692   2.510
 1528SOL    MW4 6144   1.336   2.708   2.595
 1529SOL     OW 6145   1.550   2.804   2.728
 1529SOL    HW2 6146   1.553   2.798   2.824
 1529SOL    HW3 6147   1.641   2.787   2.701
 1529SOL    MW4 6148   1.563   2.801   2.737
 1530SOL     OW 6149   1.575   3.069   2.627
 1530SOL    HW2 6150   1.655   3.107   2.664
 1530SOL    HW3 6151   1.564   2.986   2.674
 1530SOL    MW4 6152   1.584   3.063   2.638
 1531SOL     OW 6153   1.369   3.205   2.769
 1531SOL    HW2 6154   1.434   3.145   2.733
 1531SOL    HW3 6155   1.286   3.175   2.735
 1531SOL    MW4 6156   1.367   3.193   2.760
 1532SOL     OW 6157   1.323   3.454   2.652
 1532SOL    HW2 6158   1.348   3.378   2.705
 1532SOL    HW3 6159   1.249   3.493   2.698
 1532SOL    MW4 6160   1.317   3.449   2.665
 1533SOL     OW 6161   1.550   3.597   2.749
 1533SOL    HW2 6162   1.620   3.536   2.726
 1533SOL    HW3 6163   1.470   3.556   2.715
 1533SOL    MW4 6164   1.548   3.583   2.741
 1534SOL     OW 6165   1.549   3.868   2.658
 1534SOL    HW2 6166   1.461   3.896   2.680
 1534SOL    HW3 6167   1.555   3.778   2.691
 1534SOL    MW4 6168   1.538   3.860   2.665
 1535SOL     OW 6169   1.327   3.973   2.758
 1535SOL    HW2 6170   1.356   3.974   2.850
 1535SOL    HW3 6171   1.347   4.060   2.726
 1535SOL    MW4 6172   1.334   3.984   2.766
 1536SOL     OW 6173   1.383   4.231   2.643
 1536SOL    HW2 6174   1.307   4.267   2.688
 1536SOL    HW3 6175   1.355   4.223   2.551
 1536SOL    MW4 6176   1.369   4.235   2.637
 1537SOL     OW 6177   1.563   4.401   2.741
 1537SOL    HW2 6178   1.560   4.391   2.836
 1537SOL    HW3 6179   1.497   4.340   2.709
 1537SOL    MW4 6180   1.554   4.392   2.749
 1538SOL     OW 6181   2.002   0.001   2.649
 1538SOL    HW2 6182   2.085   0.038   2.679
 1538SOL    HW3 6183   2.003   0.014   2.554
 1538SOL    MW4 6184   2.013   0.008   2.640
 1539SOL     OW 6185   1.785   0.141   2.745
 1539SOL    HW2 6186   1.866   0.100   2.714
 1539SOL    HW3 6187   1.716   0.083   2.713
 1539SOL    MW4 6188   1.787   0.128   2.736
 1540SOL     OW 6189   1.818   0.385   2.616
 1540SOL    HW2 6190   1.887   0.436   2.658
 1540SOL    HW3 6191   1.810   0.306   2.670
 1540SOL    MW4 6192   1.826   0.381   2.629
 1541SOL     OW 6193   2.035   0.523   2.731
 1541SOL    HW2 6194   2.113   0.487   2.690
 1541SOL    HW3 6195   2.033   0.614   2.702
 1541SOL    MW4 6196   2.045   0.530   2.722
 1542SOL     OW 6197   2.042   0.786   2.628
 1542SOL    HW2 6198   1.952   0.805   2.654
 1542SOL    HW3 6199   2.039   0.784   2.532
 1542SOL    MW4 6200   2.030   0.788   2.619
 1543SOL     OW 6201   1.787   0.849   2.688
 1543SOL    HW2 6202   1.767   0.938   2.659
 1543SOL    HW3 6203   1.706   0.801   2.674
 1543SOL    MW4 6204   1.774   0.854   2.682
 1544SOL     OW 6205   1.775   1.111   2.603
 1544SOL    HW2 6206   1.853   1.138   2.651
 1544SOL    HW3 6207   1.794   1.130   2.511
 1544SOL    MW4 6208   1.788   1.117   2.597
 1545SOL     OW 6209   1.986   1.252   2.734
 1545SOL    HW2 6210   2.000   1.250   2.829
 1545SOL    HW3 6211   2.073   1.235   2.697
 1545SOL    MW4 6212   1.999   1.250   2.741
 1546SOL     OW 6213   1.980   1.515   2.642
 1546SOL    HW2 6214   1.920   1.569   2.693
 1546SOL    HW3 6215   1.974   1.428   2.683
 1546SOL    MW4 6216   1.971   1.510   2.654
 1547SOL     OW 6217   1.821   1.693   2.783
 1547SOL    HW2 6218   1.823   1.700   2.879
 1547SOL    HW3 6219   1.738   1.652   2.763
 1547SOL    MW4 6220   1.811   1.689   2.793
 1548SOL     OW 6221   1.753   1.929   2.655
 1548SOL    HW2 6222   1.822   1.983   2.692
 1548SOL    HW3 6223   1.758   1.847   2.704
 1548SOL    MW4 6224   1.763   1.925   2.666
 1549SOL     OW 6225   1.992   2.075   2.750
 1549SOL    HW2 6226   2.005   2.078   2.845
 1549SOL    HW3 6227   2.015   2.163   2.720
 1549SOL    MW4 6228   1.997   2.087   2.759
 1550SOL     OW 6229   2.023   2.359   2.669
 1550SOL    HW2 6230   2.111   2.394   2.683
 1550SOL    HW3 6231   2.013   2.355   2.574
 1550SOL    MW4 6232   2.033   2.363   2.658
 1551SOL     OW 6233   1.778   2.467   2.754
 1551SOL    HW2 6234   1.774   2.478   2.849
 1551SOL    HW3 6235   1.867   2.438   2.737
 1551SOL    MW4 6236   1.789   2.465   2.764
 1552SOL     OW 6237   1.812   2.706   2.634
 1552SOL    HW2 6238   1.801   2.621   2.677
 1552SOL    HW3 6239   1.811   2.686   2.541
 1552SOL    MW4 6240   1.810   2.692   2.628
 1553SOL     OW 6241   2.037   2.851   2.735
 1553SOL    HW2 6242   2.107   2.801   2.694
 1553SOL    HW3 6243   1.956   2.815   2.699
 1553SOL    MW4 6244   2.035   2.840   2.725
 1554SOL     OW 6245   2.008   3.130   2.662
 1554SOL    HW2 6246   2.015   3.038   2.685
 1554SOL    HW3 6247   1.987   3.129   2.568
 1554SOL    MW4 6248   2.006   3.118   2.653
 1555SOL     OW 6249   1.767   3.209   2.761
 1555SOL    HW2 6250   1.761   3.296   2.721
 1555SOL    HW3 6251   1.856   3.179   2.740
 1555SOL    MW4 6252   1.778   3.216   2.753
 1556SOL     OW 6253   1.744   3.433   2.623
 1556SOL    HW2 6254   1.822   3.477   2.655
 1556SOL    HW3 6255   1.750   3.440   2.527
 1556SOL    MW4 6256   1.755   3.440   2.614
 1557SOL     OW 6257   1.963   3.573   2.711
 1557SOL    HW2 6258   1.978   3.569   2.805
 1557SOL    HW3 6259   2.040   3.532   2.672
 1557SOL    MW4 6260   1.975   3.567   2.718
 1558SOL     OW 6261   2.019   3.858   2.640
 1558SOL    HW2 6262   1.935   3.894   2.669
 1558SOL    HW3 6263   2.023   3.772   2.683
 1558SOL    MW4 6264   2.009   3.851   2.650
 1559SOL     OW 6265   1.791   3.978   2.750
 1559SOL    HW2 6266   1.804   4.065   2.712
 1559SOL    HW3 6267   1.705   3.951   2.718
 1559SOL    MW4 6268   1.781   3.986   2.741
 1560SOL     OW 6269   1.779   4.232   2.643
 1560SOL    HW2 6270   1.700   4.274   2.676
 1560SOL    HW3 6271   1.780   4.252   2.549
 1560SOL    MW4 6272   1.769   4.240   2.635
 1561SOL     OW 6273   1.974   4.421   2.754
 1561SOL    HW2 6274   1.901   4.384   2.706
 1561SOL    HW3 6275   1.974   4.514   2.729
 1561SOL    MW4 6276   1.965   4.429   2.744
 1562SOL     OW 6277   2.468   4.650   2.614
 1562SOL    HW2 6278   2.548   4.693   2.644
 1562SOL    HW3 6279   2.467   4.663   2.520
 1562SOL    MW4 6280   2.478   4.657   2.606
 1563SOL     OW 6281   2.256   0.122   2.743
 1563SOL    HW2 6282   2.263   0.118   2.838
 1563SOL    HW3 6283   2.337   0.083   2.711
 1563SOL    MW4 6284   2.267   0.116   2.751
 1564SOL     OW 6285   2.252   0.382   2.624
 1564SOL    HW2 6286   2.245   0.294   2.659
 1564SOL    HW3 6287   2.258   0.370   2.530
 1564SOL    MW4 6288   2.252   0.369   2.616
 1565SOL     OW 6289   2.472   0.509   2.737
 1565SOL    HW2 6290   2.462   0.601   2.710
 1565SOL    HW3 6291   2.397   0.465   2.699
 1565SOL    MW4 6292   2.461   0.516   2.728
 1566SOL     OW 6293   2.477   0.767   2.662
 1566SOL    HW2 6294   2.406   0.824   2.693
 1566SOL    HW3 6295   2.468   0.769   2.566
 1566SOL    MW4 6296   2.466   0.775   2.653
 1567SOL     OW 6297   2.264   0.922   2.761
 1567SOL    HW2 6298   2.255   0.891   2.851
 1567SOL    HW3 6299   2.193   0.878   2.713
 1567SOL    MW4 6300   2.253   0.912   2.766
 1568SOL     OW 6301   2.248   1.182   2.646
 1568SOL    HW2 6302   2.242   1.101   2.698
 1568SOL    HW3 6303   2.251   1.152   2.555
 1568SOL    MW4 6304   2.247   1.167   2.641
 1569SOL     OW 6305   2.473   1.279   2.794
 1569SOL    HW2 6306   2.539   1.221   2.755
 1569SOL    HW3 6307   2.390   1.241   2.765
 1569SOL    MW4 6308   2.471   1.266   2.785
 1570SOL     OW 6309   2.469   1.537   2.671
 1570SOL    HW2 6310   2.388   1.568   2.711
 1570SOL    HW3 6311   2.471   1.443   2.690
 1570SOL    MW4 6312   2.459   1.529   2.679
 1571SOL     OW 6313   2.214   1.615   2.748
 1571SOL    HW2 6314   2.199   1.708   2.736
 1571SOL    HW3 6315   2.136   1.573   2.710
 1571SOL    MW4 6316   2.202   1.621   2.741
 1572SOL     OW 6317   2.213   1.886   2.699
 1572SOL    HW2 6318   2.138   1.939   2.728
 1572SOL    HW3 6319   2.205   1.884   2.604
 1572SOL    MW4 6320   2.202   1.893   2.690
 1573SOL     OW 6321   2.454   1.996   2.773
 1573SOL    HW2 6322   2.432   2.087   2.755
 1573SOL    HW3 6323   2.372   1.948   2.759
 1573SOL    MW4 6324   2.440   2.002   2.769
 1574SOL     OW 6325   2.447   2.246   2.685
 1574SOL    HW2 6326   2.534   2.270   2.716
 1574SOL    HW3 6327   2.448   2.269   2.592
 1574SOL    MW4 6328   2.459   2.252   2.677
 1575SOL     OW 6329   2.257   2.439   2.754
 1575SOL    HW2 6330   2.250   2.453   2.848
 1575SOL    HW3 6331   2.329   2.377   2.744
 1575SOL    MW4 6332   2.266   2.433   2.765
 1576SOL     OW 6333   2.234   2.709   2.609
 1576SOL    HW2 6334   2.314   2.745   2.647
 1576SOL    HW3 6335   2.239   2.615   2.628
 1576SOL    MW4 6336   2.245   2.701   2.617
 1577SOL     OW 6337   2.449   2.791   2.746
 1577SOL    HW2 6338   2.522   2.733   2.721
 1577SOL    HW3 6339   2.472   2.876   2.709
 1577SOL    MW4 6340   2.462   2.794   2.738
 1578SOL     OW 6341   2.483   3.044   2.638
 1578SOL    HW2 6342   2.409   3.088   2.681
 1578SOL    HW3 6343   2.457   3.038   2.546
 1578SOL    MW4 6344   2.470   3.049   2.632
 1579SOL     OW 6345   2.281   3.212   2.724
 1579SOL    HW2 6346   2.257   3.222   2.816
 1579SOL    HW3 6347   2.199   3.188   2.680
 1579SOL    MW4 6348   2.267   3.210   2.730
 1580SOL     OW 6349   2.218   3.475   2.642
 1580SOL    HW2 6350   2.276   3.540   2.682
 1580SOL    HW3 6351   2.251   3.391   2.676
 1580SOL    MW4 6352   2.230   3.472   2.652
 1581SOL     OW 6353   2.441   3.632   2.738
 1581SOL    HW2 6354   2.432   3.636   2.834
 1581SOL    HW3 6355   2.455   3.724   2.712
 1581SOL    MW4 6356   2.442   3.645   2.747
 1582SOL     OW 6357   2.440   3.889   2.643
 1582SOL    HW2 6358   2.520   3.916   2.690
 1582SOL    HW3 6359   2.374   3.951   2.671
 1582SOL    MW4 6360   2.442   3.901   2.653
 1583SOL     OW 6361   2.214   4.041   2.723
 1583SOL    HW2 6362   2.213   4.022   2.817
 1583SOL    HW3 6363   2.154   3.977   2.685
 1583SOL    MW4 6364   2.206   4.030   2.730
 1584SOL     OW 6365   2.202   4.296   2.650
 1584SOL    HW2 6366   2.205   4.203   2.675
 1584SOL    HW3 6367   2.120   4.328   2.686
 1584SOL    MW4 6368   2.192   4.288   2.658
 1585SOL     OW 6369   2.428   4.418   2.781
 1585SOL    HW2 6370   2.361   4.364   2.738
 1585SOL    HW3 6371   2.440   4.493   2.722
 1585SOL    MW4 6372   2.421   4.421   2.767
 1586SOL     OW 6373   2.903   4.656   2.639
 1586SOL    HW2 6374   2.976   4.708   2.673
 1586SOL    HW3 6375   2.923   4.646   2.546
 1586SOL    MW4 6376   2.915   4.662   2.631
 1587SOL     OW 6377   2.680   0.121   2.750
 1587SOL    HW2 6378   2.703   0.133   2.842
 1587SOL    HW3 6379   2.757   0.081   2.710
 1587SOL    MW4 6380   2.693   0.117   2.756
 1588SOL     OW 6381   2.704   0.403   2.620
 1588SOL    HW2 6382   2.700   0.309   2.639
 1588SOL    HW3 6383   2.620   0.437   2.651
 1588SOL    MW4 6384   2.692   0.395   2.627
 1589SOL     OW 6385   2.919   0.509   2.734
 1589SOL    HW2 6386   2.906   0.600   2.708
 1589SOL    HW3 6387   2.839   0.464   2.706
 1589SOL    MW4 6388   2.906   0.515   2.727
 1590SOL     OW 6389   2.942   0.770   2.622
 1590SOL    HW2 6390   3.014   0.818   2.663
 1590SOL    HW3 6391   2.863   0.807   2.661
 1590SOL    MW4 6392   2.941   0.781   2.633
 1591SOL     OW 6393   2.715   0.882   2.746
 1591SOL    HW2 6394   2.717   0.879   2.842
 1591SOL    HW3 6395   2.631   0.842   2.723
 1591SOL    MW4 6396   2.704   0.876   2.756
 1592SOL     OW 6397   2.685   1.164   2.652
 1592SOL    HW2 6398   2.751   1.222   2.690
 1592SOL    HW3 6399   2.710   1.077   2.682
 1592SOL    MW4 6400   2.697   1.160   2.661
 1593SOL     OW 6401   2.897   1.323   2.738
 1593SOL    HW2 6402   2.885   1.326   2.833
 1593SOL    HW3 6403   2.975   1.269   2.725
 1593SOL    MW4 6404   2.906   1.317   2.748
 1594SOL     OW 6405   2.923   1.576   2.637
 1594SOL    HW2 6406   2.846   1.608   2.684
 1594SOL    HW3 6407   2.925   1.482   2.653
 1594SOL    MW4 6408   2.913   1.568   2.645
 1595SOL     OW 6409   2.708   1.666   2.786
 1595SOL    HW2 6410   2.706   1.651   2.880
 1595SOL    HW3 6411   2.626   1.629   2.754
 1595SOL    MW4 6412   2.697   1.659   2.794
 1596SOL     OW 6413   2.704   1.912   2.669
 1596SOL    HW2 6414   2.715   1.829   2.715
 1596SOL    HW3 6415   2.628   1.953   2.712
 1596SOL    MW4 6416   2.695   1.907   2.681
 1597SOL     OW 6417   2.930   2.067   2.743
 1597SOL    HW2 6418   2.909   2.155   2.714
 1597SOL    HW3 6419   2.856   2.014   2.714
 1597SOL    MW4 6420   2.917   2.071   2.736
 1598SOL     OW 6421   2.907   2.315   2.620
 1598SOL    HW2 6422   2.976   2.372   2.655
 1598SOL    HW3 6423   2.830   2.335   2.672
 1598SOL    MW4 6424   2.906   2.325   2.631
 1599SOL     OW 6425   2.671   2.365   2.756
 1599SOL    HW2 6426   2.668   2.373   2.852
 1599SOL    HW3 6427   2.651   2.453   2.724
 1599SOL    MW4 6428   2.668   2.378   2.765
 1600SOL     OW 6429   2.665   2.631   2.644
 1600SOL    HW2 6430   2.731   2.687   2.686
 1600SOL    HW3 6431   2.669   2.655   2.552
 1600SOL    MW4 6432   2.675   2.642   2.638
 1601SOL     OW 6433   2.861   2.795   2.777
 1601SOL    HW2 6434   2.870   2.804   2.872
 1601SOL    HW3 6435   2.863   2.885   2.745
 1601SOL    MW4 6436   2.862   2.808   2.786
 1602SOL     OW 6437   2.895   3.040   2.652
 1602SOL    HW2 6438   2.821   3.101   2.655
 1602SOL    HW3 6439   2.898   3.010   2.561
 1602SOL    MW4 6440   2.886   3.044   2.640
 1603SOL     OW 6441   2.690   3.215   2.721
 1603SOL    HW2 6442   2.678   3.296   2.671
 1603SOL    HW3 6443   2.619   3.158   2.692
 1603SOL    MW4 6444   2.679   3.218   2.711
 1604SOL     OW 6445   2.651   3.474   2.629
 1604SOL    HW2 6446   2.567   3.502   2.665
 1604SOL    HW3 6447   2.640   3.478   2.534
 1604SOL    MW4 6448   2.639   3.478   2.621
 1605SOL     OW 6449   2.898   3.629   2.739
 1605SOL    HW2 6450   2.904   3.626   2.835
 1605SOL    HW3 6451   2.820   3.579   2.718
 1605SOL    MW4 6452   2.889   3.622   2.749
 1606SOL     OW 6453   2.873   3.892   2.694
 1606SOL    HW2 6454   2.962   3.922   2.710
 1606SOL    HW3 6455   2.873   3.801   2.723
 1606SOL    MW4 6456   2.885   3.884   2.700
 1607SOL     OW 6457   2.641   4.005   2.780
 1607SOL    HW2 6458   2.650   4.098   2.759
 1607SOL    HW3 6459   2.721   3.965   2.747
 1607SOL    MW4 6460   2.653   4.012   2.773
 1608SOL     OW 6461   2.670   4.276   2.693
 1608SOL    HW2 6462   2.754   4.316   2.717
 1608SOL    HW3 6463   2.604   4.337   2.725
 1608SOL    MW4 6464   2.672   4.289   2.700
 1609SOL     OW 6465   2.915   4.406   2.766
 1609SOL    HW2 6466   2.910   4.421   2.861
 1609SOL    HW3 6467   2.922   4.494   2.729
 1609SOL    MW4 6468   2.915   4.420   2.774
 1610SOL     OW 6469   3.362   4.655   2.656
 1610SOL    HW2 6470   3.360   4.563   2.683
 1610SOL    HW3 6471   3.283   4.693   2.695
 1610SOL    MW4 6472   3.351   4.648   2.665
 1611SOL     OW 6473   3.121   0.108   2.731
 1611SOL    HW2 6474   3.119   0.118   2.826
 1611SOL    HW3 6475   3.122   0.197   2.698
 1611SOL    MW4 6476   3.121   0.121   2.739
 1612SOL     OW 6477   3.131   0.363   2.644
 1612SOL    HW2 6478   3.053   0.414   2.666
 1612SOL    HW3 6479   3.128   0.355   2.549
 1612SOL    MW4 6480   3.120   0.369   2.634
 1613SOL     OW 6481   3.330   0.525   2.721
 1613SOL    HW2 6482   3.324   0.612   2.683
 1613SOL    HW3 6483   3.251   0.480   2.691
 1613SOL    MW4 6484   3.319   0.530   2.712
 1614SOL     OW 6485   3.320   0.774   2.617
 1614SOL    HW2 6486   3.404   0.800   2.654
 1614SOL    HW3 6487   3.338   0.759   2.524
 1614SOL    MW4 6488   3.333   0.775   2.609
 1615SOL     OW 6489   3.121   0.906   2.762
 1615SOL    HW2 6490   3.139   0.890   2.855
 1615SOL    HW3 6491   3.196   0.869   2.717
 1615SOL    MW4 6492   3.134   0.899   2.769
 1616SOL     OW 6493   3.115   1.164   2.645
 1616SOL    HW2 6494   3.114   1.077   2.684
 1616SOL    HW3 6495   3.116   1.149   2.551
 1616SOL    MW4 6496   3.115   1.151   2.638
 1617SOL     OW 6497   3.373   1.275   2.718
 1617SOL    HW2 6498   3.376   1.263   2.813
 1617SOL    HW3 6499   3.291   1.234   2.691
 1617SOL    MW4 6500   3.363   1.268   2.727
 1618SOL     OW 6501   3.367   1.552   2.631
 1618SOL    HW2 6502   3.293   1.590   2.678
 1618SOL    HW3 6503   3.356   1.458   2.640
 1618SOL    MW4 6504   3.356   1.545   2.638
 1619SOL     OW 6505   3.170   1.691   2.754
 1619SOL    HW2 6506   3.173   1.783   2.727
 1619SOL    HW3 6507   3.086   1.660   2.722
 1619SOL    MW4 6508   3.160   1.699   2.746
 1620SOL     OW 6509   3.143   1.948   2.622
 1620SOL    HW2 6510   3.209   2.002   2.666
 1620SOL    HW3 6511   3.059   1.984   2.651
 1620SOL    MW4 6512   3.141   1.960   2.631
 1621SOL     OW 6513   3.372   2.072   2.737
 1621SOL    HW2 6514   3.364   2.073   2.833
 1621SOL    HW3 6515   3.385   2.164   2.713
 1621SOL    MW4 6516   3.373   2.084   2.747
 1622SOL     OW 6517   3.355   2.342   2.656
 1622SOL    HW2 6518   3.433   2.390   2.681
 1622SOL    HW3 6519   3.354   2.345   2.560
 1622SOL    MW4 6520   3.365   2.349   2.647
 1623SOL     OW 6521   3.112   2.443   2.739
 1623SOL    HW2 6522   3.098   2.529   2.701
 1623SOL    HW3 6523   3.195   2.413   2.701
 1623SOL    MW4 6524   3.121   2.450   2.729
 1624SOL     OW 6525   3.078   2.699   2.651
 1624SOL    HW2 6526   3.151   2.754   2.678
 1624SOL    HW3 6527   3.002   2.734   2.698
 1624SOL    MW4 6528   3.077   2.711   2.661
 1625SOL     OW 6529   3.323   2.848   2.715
 1625SOL    HW2 6530   3.341   2.861   2.808
 1625SOL    HW3 6531   3.404   2.811   2.680
 1625SOL    MW4 6532   3.336   2.845   2.723
 1626SOL     OW 6533   3.344   3.090   2.585
 1626SOL    HW2 6534   3.335   2.996   2.602
 1626SOL    HW3 6535   3.342   3.097   2.490
 1626SOL    MW4 6536   3.342   3.078   2.575
 1627SOL     OW 6537   3.119   3.205   2.719
 1627SOL    HW2 6538   3.189   3.156   2.676
 1627SOL    HW3 6539   3.038   3.163   2.689
 1627SOL    MW4 6540   3.118   3.193   2.709
 1628SOL     OW 6541   3.124   3.487   2.637
 1628SOL    HW2 6542   3.127   3.394   2.658
 1628SOL    HW3 6543   3.045   3.519   2.680
 1628SOL    MW4 6544   3.114   3.479   2.645
 1629SOL     OW 6545   3.374   3.607   2.687
 1629SOL    HW2 6546   3.379   3.622   2.782
 1629SOL    HW3 6547   3.285   3.572   2.674
 1629SOL    MW4 6548   3.363   3.604   2.698
 1630SOL     OW 6549   3.378   3.879   2.607
 1630SOL    HW2 6550   3.395   3.789   2.633
 1630SOL    HW3 6551   3.328   3.872   2.526
 1630SOL    MW4 6552   3.374   3.866   2.600
 1631SOL     OW 6553   3.141   3.975   2.741
 1631SOL    HW2 6554   3.152   4.067   2.717
 1631SOL    HW3 6555   3.222   3.933   2.712
 1631SOL    MW4 6556   3.153   3.982   2.734
 1632SOL     OW 6557   3.143   4.254   2.678
 1632SOL    HW2 6558   3.072   4.305   2.717
 1632SOL    HW3 6559   3.127   4.258   2.584
 1632SOL    MW4 6560   3.132   4.261   2.671
 1633SOL     OW 6561   3.357   4.389   2.760
 1633SOL    HW2 6562   3.357   4.379   2.855
 1633SOL    HW3 6563   3.283   4.337   2.729
 1633SOL    MW4 6564   3.347   4.381   2.768
 1634SOL     OW 6565   3.832   4.657   2.676
 1634SOL    HW2 6566   3.832   4.562   2.679
 1634SOL    HW3 6567   3.744   4.682   2.707
 1634SOL    MW4 6568   3.820   4.648   2.681
 1635SOL     OW 6569   3.588   0.117   2.745
 1635SOL    HW2 6570   3.581   0.210   2.726
 1635SOL    HW3 6571   3.517   0.077   2.695
 1635SOL    MW4 6572   3.578   0.124   2.736
 1636SOL     OW 6573   3.568   0.390   2.653
 1636SOL    HW2 6574   3.642   0.433   2.696
 1636SOL    HW3 6575   3.491   0.436   2.686
 1636SOL    MW4 6576   3.568   0.401   2.663
 1637SOL     OW 6577   3.829   0.521   2.739
 1637SOL    HW2 6578   3.829   0.526   2.835
 1637SOL    HW3 6579   3.911   0.477   2.717
 1637SOL    MW4 6580   3.840   0.516   2.749
 1638SOL     OW 6581   3.814   0.774   2.637
 1638SOL    HW2 6582   3.725   0.805   2.649
 1638SOL    HW3 6583   3.812   0.683   2.666
 1638SOL    MW4 6584   3.802   0.766   2.642
 1639SOL     OW 6585   3.563   0.844   2.740
 1639SOL    HW2 6586   3.593   0.846   2.831
 1639SOL    HW3 6587   3.559   0.936   2.715
 1639SOL    MW4 6588   3.566   0.857   2.749
 1640SOL     OW 6589   3.574   1.101   2.623
 1640SOL    HW2 6590   3.658   1.135   2.653
 1640SOL    HW3 6591   3.510   1.160   2.663
 1640SOL    MW4 6592   3.577   1.114   2.632
 1641SOL     OW 6593   3.772   1.263   2.752
 1641SOL    HW2 6594   3.861   1.234   2.730
 1641SOL    HW3 6595   3.769   1.355   2.726
 1641SOL    MW4 6596   3.783   1.271   2.746
 1642SOL     OW 6597   3.789   1.523   2.645
 1642SOL    HW2 6598   3.872   1.560   2.676
 1642SOL    HW3 6599   3.721   1.574   2.689
 1642SOL    MW4 6600   3.791   1.535   2.655
 1643SOL     OW 6601   3.587   1.635   2.786
 1643SOL    HW2 6602   3.591   1.723   2.749
 1643SOL    HW3 6603   3.500   1.602   2.762
 1643SOL    MW4 6604   3.576   1.642   2.778
 1644SOL     OW 6605   3.577   1.887   2.673
 1644SOL    HW2 6606   3.494   1.927   2.697
 1644SOL    HW3 6607   3.576   1.884   2.577
 1644SOL    MW4 6608   3.566   1.892   2.663
 1645SOL     OW 6609   3.787   2.039   2.756
 1645SOL    HW2 6610   3.848   1.978   2.716
 1645SOL    HW3 6611   3.701   2.000   2.742
 1645SOL    MW4 6612   3.784   2.026   2.749
 1646SOL     OW 6613   3.807   2.296   2.658
 1646SOL    HW2 6614   3.804   2.202   2.671
 1646SOL    HW3 6615   3.830   2.307   2.566
 1646SOL    MW4 6616   3.809   2.285   2.647
 1647SOL     OW 6617   3.600   2.462   2.728
 1647SOL    HW2 6618   3.610   2.467   2.823
 1647SOL    HW3 6619   3.669   2.403   2.699
 1647SOL    MW4 6620   3.610   2.455   2.736
 1648SOL     OW 6621   3.531   2.708   2.616
 1648SOL    HW2 6622   3.541   2.618   2.646
 1648SOL    HW3 6623   3.552   2.705   2.522
 1648SOL    MW4 6624   3.535   2.696   2.607
 1649SOL     OW 6625   3.802   2.825   2.721
 1649SOL    HW2 6626   3.874   2.774   2.686
 1649SOL    HW3 6627   3.725   2.770   2.709
 1649SOL    MW4 6628   3.801   2.811   2.714
 1650SOL     OW 6629   3.774   3.070   2.605
 1650SOL    HW2 6630   3.694   3.105   2.643
 1650SOL    HW3 6631   3.783   2.983   2.645
 1650SOL    MW4 6632   3.765   3.063   2.616
 1651SOL     OW 6633   3.567   3.210   2.715
 1651SOL    HW2 6634   3.579   3.297   2.678
 1651SOL    HW3 6635   3.485   3.178   2.676
 1651SOL    MW4 6636   3.557   3.217   2.705
 1652SOL     OW 6637   3.594   3.462   2.600
 1652SOL    HW2 6638   3.674   3.510   2.620
 1652SOL    HW3 6639   3.526   3.507   2.651
 1652SOL    MW4 6640   3.595   3.474   2.609
 1653SOL     OW 6641   3.805   3.603   2.688
 1653SOL    HW2 6642   3.886   3.553   2.676
 1653SOL    HW3 6643   3.828   3.692   2.662
 1653SOL    MW4 6644   3.819   3.608   2.683
 1654SOL     OW 6645   3.839   3.873   2.625
 1654SOL    HW2 6646   3.917   3.921   2.651
 1654SOL    HW3 6647   3.766   3.923   2.662
 1654SOL    MW4 6648   3.839   3.886   2.633
 1655SOL     OW 6649   3.616   3.999   2.700
 1655SOL    HW2 6650   3.591   4.086   2.668
 1655SOL    HW3 6651   3.545   3.941   2.671
 1655SOL    MW4 6652   3.604   4.003   2.692
 1656SOL     OW 6653   3.587   4.275   2.660
 1656SOL    HW2 6654   3.520   4.332   2.698
 1656SOL    HW3 6655   3.565   4.272   2.566
 1656SOL    MW4 6656   3.575   4.282   2.652
 1657SOL     OW 6657   3.837   4.378   2.715
 1657SOL    HW2 6658   3.905   4.343   2.658
 1657SOL    HW3 6659   3.757   4.336   2.685
 1657SOL    MW4 6660   3.836   4.368   2.704
 1658SOL     OW 6661   4.257   4.640   2.674
 1658SOL    HW2 6662   4.198   4.713   2.691
 1658SOL    HW3 6663   4.344   4.678   2.680
 1658SOL    MW4 6664   4.260   4.655   2.677
 1659SOL     OW 6665   4.053   0.143   2.756
 1659SOL    HW2 6666   4.057   0.137   2.851
 1659SOL    HW3 6667   3.984   0.082   2.731
 1659SOL    MW4 6668   4.045   0.134   2.765
 1660SOL     OW 6669   4.068   0.409   2.664
 1660SOL    HW2 6670   4.049   0.324   2.704
 1660SOL    HW3 6671   4.071   0.390   2.570
 1660SOL    MW4 6672   4.066   0.395   2.657
 1661SOL     OW 6673   4.278   0.549   2.770
 1661SOL    HW2 6674   4.198   0.499   2.755
 1661SOL    HW3 6675   4.342   0.511   2.710
 1661SOL    MW4 6676   4.276   0.537   2.760
 1662SOL     OW 6677   4.286   0.821   2.654
 1662SOL    HW2 6678   4.283   0.733   2.693
 1662SOL    HW3 6679   4.278   0.805   2.560
 1662SOL    MW4 6680   4.284   0.807   2.647
 1663SOL     OW 6681   4.030   0.877   2.783
 1663SOL    HW2 6682   4.103   0.856   2.725
 1663SOL    HW3 6683   3.953   0.845   2.736
 1663SOL    MW4 6684   4.030   0.870   2.769
 1664SOL     OW 6685   4.015   1.146   2.692
 1664SOL    HW2 6686   4.097   1.191   2.712
 1664SOL    HW3 6687   4.023   1.061   2.736
 1664SOL    MW4 6688   4.027   1.141   2.701
 1665SOL     OW 6689   4.269   1.228   2.745
 1665SOL    HW2 6690   4.265   1.324   2.739
 1665SOL    HW3 6691   4.343   1.204   2.690
 1665SOL    MW4 6692   4.278   1.238   2.737
 1666SOL     OW 6693   4.283   1.502   2.665
 1666SOL    HW2 6694   4.341   1.567   2.704
 1666SOL    HW3 6695   4.295   1.511   2.571
 1666SOL    MW4 6696   4.292   1.512   2.658
 1667SOL     OW 6697   4.044   1.611   2.727
 1667SOL    HW2 6698   4.048   1.624   2.822
 1667SOL    HW3 6699   4.124   1.564   2.705
 1667SOL    MW4 6700   4.055   1.606   2.737
 1668SOL     OW 6701   4.012   1.880   2.635
 1668SOL    HW2 6702   4.090   1.919   2.673
 1668SOL    HW3 6703   4.015   1.789   2.664
 1668SOL    MW4 6704   4.023   1.873   2.644
 1669SOL     OW 6705   4.245   2.010   2.737
 1669SOL    HW2 6706   4.254   2.106   2.737
 1669SOL    HW3 6707   4.333   1.978   2.716
 1669SOL    MW4 6708   4.258   2.019   2.734
 1670SOL     OW 6709   4.275   2.277   2.702
 1670SOL    HW2 6710   4.196   2.326   2.721
 1670SOL    HW3 6711   4.284   2.282   2.607
 1670SOL    MW4 6712   4.266   2.284   2.692
 1671SOL     OW 6713   4.052   2.415   2.760
 1671SOL    HW2 6714   4.055   2.423   2.855
 1671SOL    HW3 6715   3.972   2.364   2.743
 1671SOL    MW4 6716   4.041   2.409   2.770
 1672SOL     OW 6717   4.008   2.665   2.639
 1672SOL    HW2 6718   4.079   2.723   2.668
 1672SOL    HW3 6719   4.015   2.589   2.696
 1672SOL    MW4 6720   4.018   2.662   2.650
 1673SOL     OW 6721   4.224   2.804   2.713
 1673SOL    HW2 6722   4.256   2.802   2.803
 1673SOL    HW3 6723   4.229   2.897   2.688
 1673SOL    MW4 6724   4.229   2.816   2.722
 1674SOL     OW 6725   4.241   3.066   2.629
 1674SOL    HW2 6726   4.168   3.114   2.668
 1674SOL    HW3 6727   4.226   3.071   2.534
 1674SOL    MW4 6728   4.229   3.073   2.621
 1675SOL     OW 6729   4.005   3.199   2.727
 1675SOL    HW2 6730   4.006   3.294   2.710
 1675SOL    HW3 6731   3.925   3.168   2.684
 1675SOL    MW4 6732   3.995   3.208   2.719
 1676SOL     OW 6733   4.034   3.456   2.639
 1676SOL    HW2 6734   4.113   3.504   2.665
 1676SOL    HW3 6735   4.045   3.441   2.545
 1676SOL    MW4 6736   4.046   3.461   2.630
 1677SOL     OW 6737   4.236   3.636   2.722
 1677SOL    HW2 6738   4.238   3.634   2.817
 1677SOL    HW3 6739   4.310   3.581   2.695
 1677SOL    MW4 6740   4.246   3.628   2.731
 1678SOL     OW 6741   4.253   3.898   2.601
 1678SOL    HW2 6742   4.252   3.814   2.646
 1678SOL    HW3 6743   4.326   3.946   2.642
 1678SOL    MW4 6744   4.262   3.893   2.613
 1679SOL     OW 6745   4.044   4.015   2.709
 1679SOL    HW2 6746   4.052   4.004   2.804
 1679SOL    HW3 6747   4.115   3.962   2.672
 1679SOL    MW4 6748   4.055   4.006   2.717
 1680SOL     OW 6749   4.062   4.279   2.596
 1680SOL    HW2 6750   4.060   4.185   2.616
 1680SOL    HW3 6751   4.047   4.283   2.501
 1680SOL    MW4 6752   4.059   4.267   2.586
 1681SOL     OW 6753   4.280   4.373   2.752
 1681SOL    HW2 6754   4.206   4.337   2.703
 1681SOL    HW3 6755   4.271   4.468   2.744
 1681SOL    MW4 6756   4.269   4.380   2.745
 1682SOL     OW 6757   0.251   4.647   3.122
 1682SOL    HW2 6758   0.254   4.646   3.217
 1682SOL    HW3 6759   0.171   4.696   3.101
 1682SOL    MW4 6760   0.241   4.653   3.132
 1683SOL     OW 6761   0.040   0.119   2.991
 1683SOL    HW2 6762  -0.040   0.082   3.030
 1683SOL    HW3 6763   0.043   0.209   3.024
 1683SOL    MW4 6764   0.030   0.126   3.001
 1684SOL     OW 6765   0.058   0.391   3.116
 1684SOL    HW2 6766   0.065   0.392   3.212
 1684SOL    HW3 6767  -0.028   0.430   3.098
 1684SOL    MW4 6768   0.047   0.396   3.127
 1685SOL     OW 6769   0.289   0.484   2.994
 1685SOL    HW2 6770   0.354   0.444   3.052
 1685SOL    HW3 6771   0.205   0.464   3.035
 1685SOL    MW4 6772   0.287   0.476   3.007
 1686SOL     OW 6773   0.240   0.737   3.073
 1686SOL    HW2 6774   0.222   0.721   3.165
 1686SOL    HW3 6775   0.260   0.650   3.037
 1686SOL    MW4 6776   0.241   0.723   3.080
 1687SOL     OW 6777   0.024   0.915   2.994
 1687SOL    HW2 6778   0.095   0.853   3.014
 1687SOL    HW3 6779   0.026   0.923   2.899
 1687SOL    MW4 6780   0.034   0.908   2.984
 1688SOL     OW 6781   4.487   1.170   3.135
 1688SOL    HW2 6782   4.415   1.220   3.096
 1688SOL    HW3 6783   4.487   1.087   3.088
 1688SOL    MW4 6784   4.477   1.166   3.124
 1689SOL     OW 6785   0.224   1.279   3.034
 1689SOL    HW2 6786   0.137   1.255   3.065
 1689SOL    HW3 6787   0.216   1.279   2.938
 1689SOL    MW4 6788   0.212   1.276   3.025
 1690SOL     OW 6789   0.285   1.526   3.135
 1690SOL    HW2 6790   0.204   1.562   3.099
 1690SOL    HW3 6791   0.285   1.435   3.104
 1690SOL    MW4 6792   0.274   1.518   3.126
 1691SOL     OW 6793   0.044   1.633   3.023
 1691SOL    HW2 6794  -0.027   1.592   3.072
 1691SOL    HW3 6795   0.055   1.719   3.063
 1691SOL    MW4 6796   0.036   1.639   3.035
 1692SOL     OW 6797   0.014   1.886   3.153
 1692SOL    HW2 6798  -0.068   1.923   3.118
 1692SOL    HW3 6799   0.083   1.937   3.112
 1692SOL    MW4 6800   0.012   1.897   3.143
 1693SOL     OW 6801   0.185   2.054   2.996
 1693SOL    HW2 6802   0.200   2.142   3.032
 1693SOL    HW3 6803   0.186   2.066   2.902
 1693SOL    MW4 6804   0.187   2.067   2.989
 1694SOL     OW 6805   0.209   2.319   3.102
 1694SOL    HW2 6806   0.188   2.317   3.195
 1694SOL    HW3 6807   0.286   2.375   3.095
 1694SOL    MW4 6808   0.216   2.326   3.113
 1695SOL     OW 6809   0.004   2.497   3.004
 1695SOL    HW2 6810   0.001   2.577   3.057
 1695SOL    HW3 6811   0.080   2.449   3.038
 1695SOL    MW4 6812   0.014   2.502   3.015
 1696SOL     OW 6813   0.005   2.743   3.135
 1696SOL    HW2 6814  -0.008   2.734   3.230
 1696SOL    HW3 6815   0.080   2.803   3.127
 1696SOL    MW4 6816   0.013   2.750   3.147
 1697SOL     OW 6817   0.249   2.867   3.060
 1697SOL    HW2 6818   0.324   2.819   3.094
 1697SOL    HW3 6819   0.241   2.838   2.969
 1697SOL    MW4 6820   0.258   2.857   3.052
 1698SOL     OW 6821   0.205   3.150   3.105
 1698SOL    HW2 6822   0.115   3.161   3.075
 1698SOL    HW3 6823   0.225   3.058   3.088
 1698SOL    MW4 6824   0.195   3.139   3.099
 1699SOL     OW 6825   4.463   3.229   2.983
 1699SOL    HW2 6826   4.379   3.191   3.009
 1699SOL    HW3 6827   4.471   3.207   2.890
 1699SOL    MW4 6828   4.453   3.221   2.974
 1700SOL     OW 6829   4.457   3.460   3.130
 1700SOL    HW2 6830   4.396   3.517   3.084
 1700SOL    HW3 6831   4.472   3.387   3.069
 1700SOL    MW4 6832   4.451   3.457   3.116
 1701SOL     OW 6833   0.188   3.598   3.022
 1701SOL    HW2 6834   0.189   3.690   3.051
 1701SOL    HW3 6835   0.114   3.559   3.068
 1701SOL    MW4 6836   0.178   3.605   3.032
 1702SOL     OW 6837   0.223   3.853   3.107
 1702SOL    HW2 6838   0.219   3.865   3.202
 1702SOL    HW3 6839   0.297   3.908   3.080
 1702SOL    MW4 6840   0.232   3.862   3.116
 1703SOL     OW 6841   4.472   3.971   3.024
 1703SOL    HW2 6842   4.552   3.925   3.049
 1703SOL    HW3 6843   4.480   3.985   2.929
 1703SOL    MW4 6844   4.483   3.967   3.015
 1704SOL     OW 6845   0.020   4.231   3.133
 1704SOL    HW2 6846   0.039   4.229   3.227
 1704SOL    HW3 6847   0.017   4.139   3.107
 1704SOL    MW4 6848   0.022   4.219   3.142
 1705SOL     OW 6849   0.247   4.393   3.010
 1705SOL    HW2 6850   0.170   4.360   3.055
 1705SOL    HW3 6851   0.258   4.482   3.044
 1705SOL    MW4 6852   0.239   4.401   3.020
 1706SOL     OW 6853   0.656   0.012   3.132
 1706SOL    HW2 6854   0.641  -0.064   3.077
 1706SOL    HW3 6855   0.591   0.076   3.102
 1706SOL    MW4 6856   0.645   0.011   3.121
 1707SOL     OW 6857   0.445   0.152   3.030
 1707SOL    HW2 6858   0.443   0.228   3.087
 1707SOL    HW3 6859   0.384   0.090   3.070
 1707SOL    MW4 6860   0.436   0.154   3.043
 1708SOL     OW 6861   0.453   0.385   3.186
 1708SOL    HW2 6862   0.459   0.396   3.281
 1708SOL    HW3 6863   0.528   0.432   3.151
 1708SOL    MW4 6864   0.464   0.393   3.194
 1709SOL     OW 6865   0.681   0.486   3.038
 1709SOL    HW2 6866   0.751   0.434   3.075
 1709SOL    HW3 6867   0.694   0.574   3.074
 1709SOL    MW4 6868   0.692   0.491   3.047
 1710SOL     OW 6869   0.694   0.778   3.128
 1710SOL    HW2 6870   0.685   0.787   3.223
 1710SOL    HW3 6871   0.610   0.808   3.093
 1710SOL    MW4 6872   0.682   0.783   3.136
 1711SOL     OW 6873   0.451   0.898   3.013
 1711SOL    HW2 6874   0.369   0.853   3.033
 1711SOL    HW3 6875   0.463   0.886   2.919
 1711SOL    MW4 6876   0.442   0.891   3.003
 1712SOL     OW 6877   0.463   1.159   3.112
 1712SOL    HW2 6878   0.461   1.070   3.076
 1712SOL    HW3 6879   0.384   1.200   3.078
 1712SOL    MW4 6880   0.452   1.153   3.103
 1713SOL     OW 6881   0.674   1.309   3.043
 1713SOL    HW2 6882   0.751   1.256   3.064
 1713SOL    HW3 6883   0.600   1.259   3.077
 1713SOL    MW4 6884   0.674   1.296   3.051
 1714SOL     OW 6885   0.718   1.587   3.158
 1714SOL    HW2 6886   0.725   1.561   3.249
 1714SOL    HW3 6887   0.723   1.505   3.108
 1714SOL    MW4 6888   0.720   1.573   3.163
 1715SOL     OW 6889   0.476   1.714   3.024
 1715SOL    HW2 6890   0.556   1.682   3.065
 1715SOL    HW3 6891   0.407   1.654   3.054
 1715SOL    MW4 6892   0.477   1.702   3.033
 1716SOL     OW 6893   0.412   1.965   3.127
 1716SOL    HW2 6894   0.431   1.876   3.096
 1716SOL    HW3 6895   0.328   1.987   3.087
 1716SOL    MW4 6896   0.404   1.956   3.118
 1717SOL     OW 6897   0.638   2.065   3.017
 1717SOL    HW2 6898   0.705   2.010   3.056
 1717SOL    HW3 6899   0.556   2.032   3.052
 1717SOL    MW4 6900   0.636   2.054   3.026
 1718SOL     OW 6901   0.671   2.311   3.129
 1718SOL    HW2 6902   0.651   2.304   3.223
 1718SOL    HW3 6903   0.665   2.221   3.097
 1718SOL    MW4 6904   0.667   2.298   3.137
 1719SOL     OW 6905   0.449   2.465   3.044
 1719SOL    HW2 6906   0.510   2.400   3.078
 1719SOL    HW3 6907   0.459   2.459   2.949
 1719SOL    MW4 6908   0.458   2.456   3.036
 1720SOL     OW 6909   0.457   2.741   3.155
 1720SOL    HW2 6910   0.534   2.783   3.117
 1720SOL    HW3 6911   0.462   2.651   3.124
 1720SOL    MW4 6912   0.468   2.735   3.146
 1721SOL     OW 6913   0.678   2.832   2.992
 1721SOL    HW2 6914   0.749   2.787   3.038
 1721SOL    HW3 6915   0.670   2.917   3.035
 1721SOL    MW4 6916   0.686   2.837   3.003
 1722SOL     OW 6917   0.663   3.087   3.078
 1722SOL    HW2 6918   0.673   3.093   3.173
 1722SOL    HW3 6919   0.579   3.128   3.059
 1722SOL    MW4 6920   0.653   3.094   3.088
 1723SOL     OW 6921   0.434   3.249   3.024
 1723SOL    HW2 6922   0.453   3.334   3.063
 1723SOL    HW3 6923   0.347   3.226   3.058
 1723SOL    MW4 6924   0.425   3.257   3.034
 1724SOL     OW 6925   0.458   3.511   3.128
 1724SOL    HW2 6926   0.442   3.515   3.223
 1724SOL    HW3 6927   0.387   3.562   3.090
 1724SOL    MW4 6928   0.446   3.518   3.136
 1725SOL     OW 6929   0.659   3.643   2.981
 1725SOL    HW2 6930   0.743   3.609   3.010
 1725SOL    HW3 6931   0.594   3.594   3.032
 1725SOL    MW4 6932   0.661   3.632   2.992
 1726SOL     OW 6933   0.691   3.916   3.106
 1726SOL    HW2 6934   0.668   3.900   3.198
 1726SOL    HW3 6935   0.693   3.829   3.066
 1726SOL    MW4 6936   0.688   3.902   3.113
 1727SOL     OW 6937   0.438   3.983   3.031
 1727SOL    HW2 6938   0.524   3.943   3.049
 1727SOL    HW3 6939   0.441   4.005   2.938
 1727SOL    MW4 6940   0.450   3.981   3.021
 1728SOL     OW 6941   0.459   4.240   3.118
 1728SOL    HW2 6942   0.444   4.147   3.102
 1728SOL    HW3 6943   0.387   4.284   3.074
 1728SOL    MW4 6944   0.447   4.233   3.110
 1729SOL     OW 6945   0.651   4.423   3.024
 1729SOL    HW2 6946   0.597   4.353   3.061
 1729SOL    HW3 6947   0.660   4.399   2.932
 1729SOL    MW4 6948   0.645   4.410   3.017
 1730SOL     OW 6949   1.093   4.638   3.108
 1730SOL    HW2 6950   1.167   4.692   3.079
 1730SOL    HW3 6951   1.016   4.684   3.076
 1730SOL    MW4 6952   1.093   4.651   3.100
 1731SOL     OW 6953   0.874   0.113   3.013
 1731SOL    HW2 6954   0.886   0.200   3.051
 1731SOL    HW3 6955   0.797   0.078   3.057
 1731SOL    MW4 6956   0.865   0.120   3.023
 1732SOL     OW 6957   0.896   0.373   3.154
 1732SOL    HW2 6958   0.894   0.375   3.249
 1732SOL    HW3 6959   0.953   0.446   3.129
 1732SOL    MW4 6960   0.903   0.383   3.163
 1733SOL     OW 6961   1.103   0.522   3.043
 1733SOL    HW2 6962   1.170   0.457   3.065
 1733SOL    HW3 6963   1.110   0.533   2.948
 1733SOL    MW4 6964   1.113   0.515   3.033
 1734SOL     OW 6965   1.121   0.788   3.170
 1734SOL    HW2 6966   1.139   0.771   3.263
 1734SOL    HW3 6967   1.133   0.703   3.128
 1734SOL    MW4 6968   1.125   0.774   3.177
 1735SOL     OW 6969   0.907   0.901   3.013
 1735SOL    HW2 6970   0.971   0.846   3.058
 1735SOL    HW3 6971   0.822   0.866   3.042
 1735SOL    MW4 6972   0.904   0.889   3.023
 1736SOL     OW 6973   0.892   1.162   3.105
 1736SOL    HW2 6974   0.975   1.201   3.074
 1736SOL    HW3 6975   0.893   1.073   3.070
 1736SOL    MW4 6976   0.903   1.156   3.096
 1737SOL     OW 6977   1.131   1.288   3.032
 1737SOL    HW2 6978   1.207   1.234   3.055
 1737SOL    HW3 6979   1.111   1.263   2.941
 1737SOL    MW4 6980   1.139   1.278   3.023
 1738SOL     OW 6981   1.133   1.558   3.104
 1738SOL    HW2 6982   1.195   1.609   3.052
 1738SOL    HW3 6983   1.146   1.467   3.075
 1738SOL    MW4 6984   1.143   1.552   3.093
 1739SOL     OW 6985   0.923   1.703   3.017
 1739SOL    HW2 6986   0.988   1.642   3.052
 1739SOL    HW3 6987   0.839   1.669   3.048
 1739SOL    MW4 6988   0.921   1.690   3.026
 1740SOL     OW 6989   0.859   1.950   3.138
 1740SOL    HW2 6990   0.865   1.950   3.233
 1740SOL    HW3 6991   0.879   1.860   3.113
 1740SOL    MW4 6992   0.862   1.938   3.147
 1741SOL     OW 6993   1.092   2.051   3.020
 1741SOL    HW2 6994   1.003   2.037   3.053
 1741SOL    HW3 6995   1.081   2.051   2.924
 1741SOL    MW4 6996   1.079   2.049   3.011
 1742SOL     OW 6997   1.136   2.324   3.101
 1742SOL    HW2 6998   1.057   2.371   3.075
 1742SOL    HW3 6999   1.124   2.235   3.066
 1742SOL    MW4 7000   1.124   2.318   3.093
 1743SOL     OW 7001   0.896   2.449   3.038
 1743SOL    HW2 7002   0.824   2.406   3.083
 1743SOL    HW3 7003   0.869   2.453   2.947
 1743SOL    MW4 7004   0.883   2.444   3.032
 1744SOL     OW 7005   0.903   2.740   3.126
 1744SOL    HW2 7006   0.894   2.748   3.221
 1744SOL    HW3 7007   0.907   2.646   3.111
 1744SOL    MW4 7008   0.903   2.729   3.137
 1745SOL     OW 7009   1.144   2.823   2.980
 1745SOL    HW2 7010   1.124   2.912   3.007
 1745SOL    HW3 7011   1.075   2.770   3.019
 1745SOL    MW4 7012   1.132   2.828   2.989
 1746SOL     OW 7013   1.104   3.081   3.081
 1746SOL    HW2 7014   1.178   3.137   3.057
 1746SOL    HW3 7015   1.027   3.124   3.043
 1746SOL    MW4 7016   1.103   3.094   3.073
 1747SOL     OW 7017   0.879   3.235   3.015
 1747SOL    HW2 7018   0.795   3.194   3.037
 1747SOL    HW3 7019   0.885   3.226   2.920
 1747SOL    MW4 7020   0.868   3.228   3.005
 1748SOL     OW 7021   0.866   3.507   3.078
 1748SOL    HW2 7022   0.951   3.549   3.062
 1748SOL    HW3 7023   0.880   3.415   3.056
 1748SOL    MW4 7024   0.879   3.501   3.073
 1749SOL     OW 7025   1.119   3.628   3.050
 1749SOL    HW2 7026   1.193   3.577   3.084
 1749SOL    HW3 7027   1.130   3.715   3.089
 1749SOL    MW4 7028   1.131   3.633   3.060
 1750SOL     OW 7029   1.122   3.888   3.146
 1750SOL    HW2 7030   1.108   3.881   3.240
 1750SOL    HW3 7031   1.053   3.948   3.116
 1750SOL    MW4 7032   1.111   3.895   3.154
 1751SOL     OW 7033   0.919   4.047   3.036
 1751SOL    HW2 7034   0.832   4.011   3.056
 1751SOL    HW3 7035   0.923   4.047   2.940
 1751SOL    MW4 7036   0.908   4.042   3.026
 1752SOL     OW 7037   0.878   4.304   3.156
 1752SOL    HW2 7038   0.857   4.226   3.105
 1752SOL    HW3 7039   0.806   4.364   3.138
 1752SOL    MW4 7040   0.865   4.302   3.147
 1753SOL     OW 7041   1.135   4.378   3.066
 1753SOL    HW2 7042   1.055   4.348   3.110
 1753SOL    HW3 7043   1.128   4.473   3.065
 1753SOL    MW4 7044   1.124   4.386   3.072
 1754SOL     OW 7045   1.595   4.611   3.103
 1754SOL    HW2 7046   1.605   4.586   3.195
 1754SOL    HW3 7047   1.509   4.654   3.099
 1754SOL    MW4 7048   1.585   4.613   3.114
 1755SOL     OW 7049   1.332   0.071   3.018
 1755SOL    HW2 7050   1.324   0.156   3.061
 1755SOL    HW3 7051   1.342   0.093   2.925
 1755SOL    MW4 7052   1.332   0.085   3.011
 1756SOL     OW 7053   1.309   0.349   3.099
 1756SOL    HW2 7054   1.303   0.341   3.194
 1756SOL    HW3 7055   1.394   0.389   3.083
 1756SOL    MW4 7056   1.319   0.353   3.109
 1757SOL     OW 7057   1.543   0.475   2.999
 1757SOL    HW2 7058   1.561   0.562   3.034
 1757SOL    HW3 7059   1.567   0.481   2.906
 1757SOL    MW4 7060   1.549   0.487   2.991
 1758SOL     OW 7061   1.543   0.731   3.093
 1758SOL    HW2 7062   1.551   0.748   3.187
 1758SOL    HW3 7063   1.465   0.779   3.066
 1758SOL    MW4 7064   1.534   0.739   3.102
 1759SOL     OW 7065   1.323   0.896   3.006
 1759SOL    HW2 7066   1.345   0.981   3.044
 1759SOL    HW3 7067   1.246   0.867   3.055
 1759SOL    MW4 7068   1.316   0.903   3.017
 1760SOL     OW 7069   1.369   1.177   3.096
 1760SOL    HW2 7070   1.354   1.174   3.191
 1760SOL    HW3 7071   1.456   1.217   3.087
 1760SOL    MW4 7072   1.379   1.182   3.107
 1761SOL     OW 7073   1.602   1.281   2.987
 1761SOL    HW2 7074   1.665   1.223   3.030
 1761SOL    HW3 7075   1.617   1.367   3.027
 1761SOL    MW4 7076   1.612   1.285   2.998
 1762SOL     OW 7077   1.581   1.534   3.116
 1762SOL    HW2 7078   1.663   1.583   3.110
 1762SOL    HW3 7079   1.522   1.577   3.055
 1762SOL    MW4 7080   1.584   1.546   3.107
 1763SOL     OW 7081   1.414   1.694   2.985
 1763SOL    HW2 7082   1.389   1.772   3.035
 1763SOL    HW3 7083   1.382   1.711   2.897
 1763SOL    MW4 7084   1.406   1.706   2.980
 1764SOL     OW 7085   1.326   1.919   3.119
 1764SOL    HW2 7086   1.335   1.938   3.213
 1764SOL    HW3 7087   1.247   1.966   3.092
 1764SOL    MW4 7088   1.317   1.927   3.128
 1765SOL     OW 7089   1.548   2.073   3.031
 1765SOL    HW2 7090   1.464   2.029   3.042
 1765SOL    HW3 7091   1.556   2.086   2.937
 1765SOL    MW4 7092   1.538   2.069   3.020
 1766SOL     OW 7093   1.587   2.332   3.172
 1766SOL    HW2 7094   1.510   2.372   3.133
 1766SOL    HW3 7095   1.592   2.245   3.131
 1766SOL    MW4 7096   1.577   2.326   3.161
 1767SOL     OW 7097   1.368   2.464   3.011
 1767SOL    HW2 7098   1.286   2.418   3.029
 1767SOL    HW3 7099   1.372   2.469   2.916
 1767SOL    MW4 7100   1.358   2.458   3.001
 1768SOL     OW 7101   1.346   2.707   3.123
 1768SOL    HW2 7102   1.355   2.619   3.084
 1768SOL    HW3 7103   1.264   2.741   3.087
 1768SOL    MW4 7104   1.337   2.700   3.113
 1769SOL     OW 7105   1.564   2.835   3.002
 1769SOL    HW2 7106   1.638   2.801   3.052
 1769SOL    HW3 7107   1.487   2.800   3.046
 1769SOL    MW4 7108   1.564   2.826   3.014
 1770SOL     OW 7109   1.573   3.105   3.158
 1770SOL    HW2 7110   1.565   3.112   3.254
 1770SOL    HW3 7111   1.583   3.011   3.142
 1770SOL    MW4 7112   1.573   3.093   3.169
 1771SOL     OW 7113   1.338   3.206   3.040
 1771SOL    HW2 7114   1.411   3.173   3.093
 1771SOL    HW3 7115   1.373   3.209   2.951
 1771SOL    MW4 7116   1.352   3.202   3.035
 1772SOL     OW 7117   1.338   3.466   3.134
 1772SOL    HW2 7118   1.340   3.470   3.229
 1772SOL    HW3 7119   1.325   3.374   3.113
 1772SOL    MW4 7120   1.336   3.455   3.144
 1773SOL     OW 7121   1.570   3.585   3.024
 1773SOL    HW2 7122   1.495   3.536   3.056
 1773SOL    HW3 7123   1.569   3.573   2.929
 1773SOL    MW4 7124   1.560   3.577   3.016
 1774SOL     OW 7125   1.565   3.844   3.136
 1774SOL    HW2 7126   1.646   3.881   3.100
 1774SOL    HW3 7127   1.573   3.750   3.120
 1774SOL    MW4 7128   1.577   3.836   3.129
 1775SOL     OW 7129   1.361   3.992   3.026
 1775SOL    HW2 7130   1.425   3.934   3.067
 1775SOL    HW3 7131   1.276   3.959   3.055
 1775SOL    MW4 7132   1.359   3.980   3.036
 1776SOL     OW 7133   1.347   4.246   3.142
 1776SOL    HW2 7134   1.335   4.164   3.094
 1776SOL    HW3 7135   1.268   4.297   3.123
 1776SOL    MW4 7136   1.335   4.242   3.133
 1777SOL     OW 7137   1.579   4.352   3.025
 1777SOL    HW2 7138   1.497   4.321   3.063
 1777SOL    HW3 7139   1.587   4.442   3.055
 1777SOL    MW4 7140   1.569   4.360   3.034
 1778SOL     OW 7141   2.055   0.005   3.116
 1778SOL    HW2 7142   2.043  -0.006   3.211
 1778SOL    HW3 7143   1.973   0.045   3.086
 1778SOL    MW4 7144   2.042   0.008   3.125
 1779SOL     OW 7145   1.820   0.086   3.008
 1779SOL    HW2 7146   1.752   0.025   3.038
 1779SOL    HW3 7147   1.805   0.092   2.913
 1779SOL    MW4 7148   1.809   0.079   2.999
 1780SOL     OW 7149   1.788   0.344   3.091
 1780SOL    HW2 7150   1.795   0.257   3.051
 1780SOL    HW3 7151   1.701   0.375   3.067
 1780SOL    MW4 7152   1.777   0.337   3.083
 1781SOL     OW 7153   2.019   0.478   3.022
 1781SOL    HW2 7154   1.938   0.432   3.045
 1781SOL    HW3 7155   2.017   0.484   2.927
 1781SOL    MW4 7156   2.008   0.473   3.013
 1782SOL     OW 7157   2.017   0.744   3.110
 1782SOL    HW2 7158   1.940   0.786   3.072
 1782SOL    HW3 7159   2.014   0.654   3.076
 1782SOL    MW4 7160   2.007   0.737   3.100
 1783SOL     OW 7161   1.795   0.838   3.011
 1783SOL    HW2 7162   1.717   0.797   3.050
 1783SOL    HW3 7163   1.781   0.831   2.917
 1783SOL    MW4 7164   1.783   0.831   3.004
 1784SOL     OW 7165   1.776   1.107   3.098
 1784SOL    HW2 7166   1.779   1.102   3.193
 1784SOL    HW3 7167   1.781   1.016   3.069
 1784SOL    MW4 7168   1.777   1.094   3.107
 1785SOL     OW 7169   2.012   1.239   3.004
 1785SOL    HW2 7170   2.091   1.222   3.055
 1785SOL    HW3 7171   1.945   1.185   3.045
 1785SOL    MW4 7172   2.013   1.229   3.016
 1786SOL     OW 7173   2.043   1.489   3.140
 1786SOL    HW2 7174   2.013   1.471   3.229
 1786SOL    HW3 7175   2.013   1.414   3.089
 1786SOL    MW4 7176   2.035   1.477   3.145
 1787SOL     OW 7177   1.802   1.683   3.047
 1787SOL    HW2 7178   1.781   1.767   3.089
 1787SOL    HW3 7179   1.878   1.650   3.094
 1787SOL    MW4 7180   1.809   1.690   3.058
 1788SOL     OW 7181   1.762   1.935   3.165
 1788SOL    HW2 7182   1.838   1.961   3.111
 1788SOL    HW3 7183   1.688   1.978   3.123
 1788SOL    MW4 7184   1.762   1.944   3.152
 1789SOL     OW 7185   1.975   2.048   3.021
 1789SOL    HW2 7186   2.052   2.003   3.056
 1789SOL    HW3 7187   1.981   2.137   3.055
 1789SOL    MW4 7188   1.986   2.054   3.030
 1790SOL     OW 7189   1.998   2.311   3.121
 1790SOL    HW2 7190   2.079   2.354   3.095
 1790SOL    HW3 7191   1.933   2.382   3.127
 1790SOL    MW4 7192   2.000   2.326   3.119
 1791SOL     OW 7193   1.772   2.485   3.034
 1791SOL    HW2 7194   1.774   2.570   3.077
 1791SOL    HW3 7195   1.702   2.437   3.078
 1791SOL    MW4 7196   1.763   2.489   3.045
 1792SOL     OW 7197   1.796   2.727   3.160
 1792SOL    HW2 7198   1.812   2.725   3.255
 1792SOL    HW3 7199   1.879   2.753   3.122
 1792SOL    MW4 7200   1.809   2.730   3.168
 1793SOL     OW 7201   2.032   2.860   3.004
 1793SOL    HW2 7202   2.038   2.951   3.034
 1793SOL    HW3 7203   2.023   2.867   2.909
 1793SOL    MW4 7204   2.031   2.873   2.995
 1794SOL     OW 7205   2.043   3.107   3.143
 1794SOL    HW2 7206   2.035   3.087   3.236
 1794SOL    HW3 7207   1.957   3.139   3.118
 1794SOL    MW4 7208   2.031   3.109   3.152
 1795SOL     OW 7209   1.802   3.220   3.063
 1795SOL    HW2 7210   1.728   3.180   3.108
 1795SOL    HW3 7211   1.785   3.205   2.970
 1795SOL    MW4 7212   1.790   3.213   3.057
 1796SOL     OW 7213   1.803   3.486   3.135
 1796SOL    HW2 7214   1.808   3.391   3.127
 1796SOL    HW3 7215   1.724   3.510   3.086
 1796SOL    MW4 7216   1.793   3.477   3.128
 1797SOL     OW 7217   2.018   3.599   2.982
 1797SOL    HW2 7218   2.007   3.688   3.015
 1797SOL    HW3 7219   1.953   3.547   3.030
 1797SOL    MW4 7220   2.008   3.604   2.993
 1798SOL     OW 7221   2.037   3.866   3.140
 1798SOL    HW2 7222   2.053   3.880   3.233
 1798SOL    HW3 7223   1.957   3.915   3.122
 1798SOL    MW4 7224   2.029   3.874   3.150
 1799SOL     OW 7225   1.789   3.976   3.031
 1799SOL    HW2 7226   1.800   4.061   3.074
 1799SOL    HW3 7227   1.806   3.993   2.939
 1799SOL    MW4 7228   1.793   3.989   3.025
 1800SOL     OW 7229   1.812   4.214   3.147
 1800SOL    HW2 7230   1.883   4.268   3.112
 1800SOL    HW3 7231   1.735   4.242   3.098
 1800SOL    MW4 7232   1.811   4.225   3.136
 1801SOL     OW 7233   2.013   4.396   3.032
 1801SOL    HW2 7234   2.032   4.485   3.060
 1801SOL    HW3 7235   2.005   4.401   2.937
 1801SOL    MW4 7236   2.015   4.408   3.023
 1802SOL     OW 7237   2.471   4.622   3.166
 1802SOL    HW2 7238   2.442   4.538   3.130
 1802SOL    HW3 7239   2.412   4.687   3.128
 1802SOL    MW4 7240   2.459   4.619   3.156
 1803SOL     OW 7241   2.280   0.118   3.032
 1803SOL    HW2 7242   2.284   0.208   3.064
 1803SOL    HW3 7243   2.197   0.084   3.066
 1803SOL    MW4 7244   2.270   0.125   3.041
 1804SOL     OW 7245   2.262   0.369   3.137
 1804SOL    HW2 7246   2.248   0.334   3.225
 1804SOL    HW3 7247   2.176   0.402   3.111
 1804SOL    MW4 7248   2.249   0.369   3.145
 1805SOL     OW 7249   2.484   0.524   3.019
 1805SOL    HW2 7250   2.405   0.487   3.059
 1805SOL    HW3 7251   2.468   0.519   2.925
 1805SOL    MW4 7252   2.472   0.518   3.012
 1806SOL     OW 7253   2.507   0.794   3.115
 1806SOL    HW2 7254   2.593   0.831   3.096
 1806SOL    HW3 7255   2.509   0.706   3.079
 1806SOL    MW4 7256   2.518   0.787   3.108
 1807SOL     OW 7257   2.235   0.897   3.042
 1807SOL    HW2 7258   2.317   0.857   3.069
 1807SOL    HW3 7259   2.168   0.834   3.068
 1807SOL    MW4 7260   2.237   0.884   3.049
 1808SOL     OW 7261   2.242   1.153   3.124
 1808SOL    HW2 7262   2.242   1.141   3.219
 1808SOL    HW3 7263   2.241   1.065   3.088
 1808SOL    MW4 7264   2.242   1.140   3.132
 1809SOL     OW 7265   2.484   1.268   3.079
 1809SOL    HW2 7266   2.402   1.223   3.096
 1809SOL    HW3 7267   2.489   1.273   2.983
 1809SOL    MW4 7268   2.474   1.263   3.068
 1810SOL     OW 7269   2.465   1.531   3.171
 1810SOL    HW2 7270   2.390   1.575   3.131
 1810SOL    HW3 7271   2.457   1.440   3.143
 1810SOL    MW4 7272   2.454   1.525   3.162
 1811SOL     OW 7273   2.238   1.646   3.023
 1811SOL    HW2 7274   2.167   1.598   3.066
 1811SOL    HW3 7275   2.220   1.636   2.929
 1811SOL    MW4 7276   2.227   1.638   3.016
 1812SOL     OW 7277   2.200   1.918   3.107
 1812SOL    HW2 7278   2.288   1.947   3.080
 1812SOL    HW3 7279   2.200   1.824   3.090
 1812SOL    MW4 7280   2.212   1.909   3.101
 1813SOL     OW 7281   2.441   2.046   3.044
 1813SOL    HW2 7282   2.520   2.015   3.088
 1813SOL    HW3 7283   2.457   2.028   2.951
 1813SOL    MW4 7284   2.454   2.040   3.037
 1814SOL     OW 7285   2.446   2.303   3.145
 1814SOL    HW2 7286   2.469   2.294   3.237
 1814SOL    HW3 7287   2.419   2.214   3.119
 1814SOL    MW4 7288   2.445   2.290   3.153
 1815SOL     OW 7289   2.216   2.474   3.027
 1815SOL    HW2 7290   2.213   2.563   3.062
 1815SOL    HW3 7291   2.282   2.429   3.080
 1815SOL    MW4 7292   2.224   2.480   3.039
 1816SOL     OW 7293   2.232   2.726   3.141
 1816SOL    HW2 7294   2.314   2.749   3.097
 1816SOL    HW3 7295   2.164   2.765   3.085
 1816SOL    MW4 7296   2.234   2.734   3.128
 1817SOL     OW 7297   2.482   2.821   3.033
 1817SOL    HW2 7298   2.504   2.913   3.048
 1817SOL    HW3 7299   2.464   2.815   2.939
 1817SOL    MW4 7300   2.483   2.832   3.023
 1818SOL     OW 7301   2.494   3.089   3.084
 1818SOL    HW2 7302   2.575   3.133   3.056
 1818SOL    HW3 7303   2.424   3.139   3.043
 1818SOL    MW4 7304   2.496   3.101   3.075
 1819SOL     OW 7305   2.269   3.243   3.001
 1819SOL    HW2 7306   2.263   3.327   3.046
 1819SOL    HW3 7307   2.209   3.186   3.048
 1819SOL    MW4 7308   2.261   3.246   3.013
 1820SOL     OW 7309   2.249   3.500   3.117
 1820SOL    HW2 7310   2.328   3.546   3.086
 1820SOL    HW3 7311   2.178   3.537   3.065
 1820SOL    MW4 7312   2.250   3.511   3.106
 1821SOL     OW 7313   2.477   3.631   3.029
 1821SOL    HW2 7314   2.557   3.589   3.060
 1821SOL    HW3 7315   2.478   3.718   3.067
 1821SOL    MW4 7316   2.487   3.637   3.038
 1822SOL     OW 7317   2.460   3.901   3.111
 1822SOL    HW2 7318   2.445   3.907   3.205
 1822SOL    HW3 7319   2.545   3.943   3.097
 1822SOL    MW4 7320   2.470   3.907   3.121
 1823SOL     OW 7321   2.233   3.996   2.991
 1823SOL    HW2 7322   2.320   3.973   3.025
 1823SOL    HW3 7323   2.177   3.924   3.018
 1823SOL    MW4 7324   2.237   3.984   2.999
 1824SOL     OW 7325   2.207   4.249   3.123
 1824SOL    HW2 7326   2.199   4.166   3.074
 1824SOL    HW3 7327   2.143   4.307   3.082
 1824SOL    MW4 7328   2.198   4.246   3.111
 1825SOL     OW 7329   2.460   4.358   3.060
 1825SOL    HW2 7330   2.379   4.316   3.087
 1825SOL    HW3 7331   2.442   4.392   2.973
 1825SOL    MW4 7332   2.447   4.357   3.052
 1826SOL     OW 7333   2.924   0.006   3.117
 1826SOL    HW2 7334   3.012   0.029   3.088
 1826SOL    HW3 7335   2.917  -0.088   3.101
 1826SOL    MW4 7336   2.935  -0.004   3.111
 1827SOL     OW 7337   2.699   0.135   3.031
 1827SOL    HW2 7338   2.792   0.117   3.046
 1827SOL    HW3 7339   2.653   0.061   3.069
 1827SOL    MW4 7340   2.705   0.123   3.038
 1828SOL     OW 7341   2.694   0.394   3.144
 1828SOL    HW2 7342   2.686   0.308   3.102
 1828SOL    HW3 7343   2.630   0.449   3.098
 1828SOL    MW4 7344   2.684   0.389   3.132
 1829SOL     OW 7345   2.913   0.519   3.031
 1829SOL    HW2 7346   2.831   0.479   3.059
 1829SOL    HW3 7347   2.905   0.525   2.936
 1829SOL    MW4 7348   2.901   0.515   3.022
 1830SOL     OW 7349   2.947   0.755   3.165
 1830SOL    HW2 7350   2.932   0.743   3.258
 1830SOL    HW3 7351   2.935   0.668   3.127
 1830SOL    MW4 7352   2.943   0.742   3.172
 1831SOL     OW 7353   2.763   0.884   3.023
 1831SOL    HW2 7354   2.739   0.966   3.067
 1831SOL    HW3 7355   2.836   0.850   3.075
 1831SOL    MW4 7356   2.769   0.891   3.036
 1832SOL     OW 7357   2.707   1.139   3.151
 1832SOL    HW2 7358   2.774   1.194   3.110
 1832SOL    HW3 7359   2.624   1.181   3.130
 1832SOL    MW4 7360   2.705   1.152   3.143
 1833SOL     OW 7361   2.904   1.273   3.001
 1833SOL    HW2 7362   2.986   1.237   3.035
 1833SOL    HW3 7363   2.903   1.364   3.032
 1833SOL    MW4 7364   2.915   1.280   3.009
 1834SOL     OW 7365   2.944   1.533   3.127
 1834SOL    HW2 7366   2.948   1.522   3.222
 1834SOL    HW3 7367   3.029   1.570   3.104
 1834SOL    MW4 7368   2.956   1.537   3.137
 1835SOL     OW 7369   2.707   1.660   3.072
 1835SOL    HW2 7370   2.783   1.615   3.108
 1835SOL    HW3 7371   2.632   1.619   3.115
 1835SOL    MW4 7372   2.707   1.649   3.082
 1836SOL     OW 7373   2.693   1.946   3.130
 1836SOL    HW2 7374   2.776   1.978   3.094
 1836SOL    HW3 7375   2.691   1.853   3.108
 1836SOL    MW4 7376   2.704   1.938   3.123
 1837SOL     OW 7377   2.949   2.003   3.023
 1837SOL    HW2 7378   2.943   2.092   3.059
 1837SOL    HW3 7379   2.954   2.016   2.928
 1837SOL    MW4 7380   2.949   2.016   3.015
 1838SOL     OW 7381   2.931   2.256   3.141
 1838SOL    HW2 7382   2.995   2.317   3.105
 1838SOL    HW3 7383   2.847   2.284   3.104
 1838SOL    MW4 7384   2.928   2.268   3.131
 1839SOL     OW 7385   2.697   2.377   3.025
 1839SOL    HW2 7386   2.685   2.472   3.029
 1839SOL    HW3 7387   2.619   2.341   3.067
 1839SOL    MW4 7388   2.685   2.385   3.031
 1840SOL     OW 7389   2.694   2.652   3.104
 1840SOL    HW2 7390   2.688   2.654   3.199
 1840SOL    HW3 7391   2.629   2.716   3.074
 1840SOL    MW4 7392   2.685   2.661   3.112
 1841SOL     OW 7393   2.923   2.807   3.035
 1841SOL    HW2 7394   3.003   2.780   3.081
 1841SOL    HW3 7395   2.853   2.758   3.079
 1841SOL    MW4 7396   2.924   2.797   3.047
 1842SOL     OW 7397   2.943   3.088   3.098
 1842SOL    HW2 7398   2.868   3.131   3.057
 1842SOL    HW3 7399   2.932   2.995   3.079
 1842SOL    MW4 7400   2.932   3.081   3.090
 1843SOL     OW 7401   2.717   3.237   2.994
 1843SOL    HW2 7402   2.722   3.327   3.024
 1843SOL    HW3 7403   2.691   3.243   2.902
 1843SOL    MW4 7404   2.714   3.249   2.985
 1844SOL     OW 7405   2.715   3.495   3.116
 1844SOL    HW2 7406   2.711   3.485   3.211
 1844SOL    HW3 7407   2.801   3.535   3.100
 1844SOL    MW4 7408   2.726   3.499   3.127
 1845SOL     OW 7409   2.947   3.598   3.015
 1845SOL    HW2 7410   3.024   3.560   3.059
 1845SOL    HW3 7411   2.947   3.689   3.043
 1845SOL    MW4 7412   2.957   3.605   3.025
 1846SOL     OW 7413   2.922   3.848   3.112
 1846SOL    HW2 7414   2.926   3.849   3.208
 1846SOL    HW3 7415   2.840   3.893   3.091
 1846SOL    MW4 7416   2.912   3.854   3.122
 1847SOL     OW 7417   2.706   4.003   3.054
 1847SOL    HW2 7418   2.695   4.094   3.083
 1847SOL    HW3 7419   2.683   4.005   2.961
 1847SOL    MW4 7420   2.702   4.016   3.045
 1848SOL     OW 7421   2.718   4.268   3.136
 1848SOL    HW2 7422   2.711   4.261   3.231
 1848SOL    HW3 7423   2.632   4.299   3.108
 1848SOL    MW4 7424   2.705   4.271   3.144
 1849SOL     OW 7425   2.931   4.409   3.048
 1849SOL    HW2 7426   3.009   4.356   3.064
 1849SOL    HW3 7427   2.861   4.365   3.095
 1849SOL    MW4 7428   2.932   4.396   3.056
 1850SOL     OW 7429   3.350   4.625   3.148
 1850SOL    HW2 7430   3.432   4.673   3.134
 1850SOL    HW3 7431   3.366   4.538   3.111
 1850SOL    MW4 7432   3.363   4.620   3.142
 1851SOL     OW 7433   3.159   0.105   3.020
 1851SOL    HW2 7434   3.148   0.188   3.067
 1851SOL    HW3 7435   3.237   0.065   3.060
 1851SOL    MW4 7436   3.168   0.111   3.032
 1852SOL     OW 7437   3.135   0.362   3.132
 1852SOL    HW2 7438   3.206   0.415   3.096
 1852SOL    HW3 7439   3.055   0.407   3.106
 1852SOL    MW4 7440   3.134   0.375   3.124
 1853SOL     OW 7441   3.363   0.478   3.018
 1853SOL    HW2 7442   3.442   0.431   3.045
 1853SOL    HW3 7443   3.360   0.468   2.923
 1853SOL    MW4 7444   3.373   0.470   3.009
 1854SOL     OW 7445   3.403   0.732   3.123
 1854SOL    HW2 7446   3.393   0.733   3.218
 1854SOL    HW3 7447   3.399   0.640   3.098
 1854SOL    MW4 7448   3.401   0.720   3.132
 1855SOL     OW 7449   3.168   0.871   3.023
 1855SOL    HW2 7450   3.244   0.816   3.042
 1855SOL    HW3 7451   3.100   0.837   3.080
 1855SOL    MW4 7452   3.169   0.859   3.033
 1856SOL     OW 7453   3.131   1.124   3.095
 1856SOL    HW2 7454   3.214   1.168   3.079
 1856SOL    HW3 7455   3.146   1.034   3.067
 1856SOL    MW4 7456   3.144   1.118   3.089
 1857SOL     OW 7457   3.359   1.271   3.002
 1857SOL    HW2 7458   3.422   1.217   3.049
 1857SOL    HW3 7459   3.356   1.353   3.051
 1857SOL    MW4 7460   3.367   1.274   3.015
 1858SOL     OW 7461   3.416   1.514   3.110
 1858SOL    HW2 7462   3.418   1.516   3.206
 1858SOL    HW3 7463   3.488   1.571   3.084
 1858SOL    MW4 7464   3.426   1.522   3.119
 1859SOL     OW 7465   3.177   1.632   3.031
 1859SOL    HW2 7466   3.265   1.603   3.054
 1859SOL    HW3 7467   3.185   1.662   2.940
 1859SOL    MW4 7468   3.190   1.632   3.022
 1860SOL     OW 7469   3.182   1.905   3.158
 1860SOL    HW2 7470   3.191   1.820   3.114
 1860SOL    HW3 7471   3.099   1.940   3.127
 1860SOL    MW4 7472   3.172   1.898   3.148
 1861SOL     OW 7473   3.372   2.055   3.012
 1861SOL    HW2 7474   3.448   2.025   3.063
 1861SOL    HW3 7475   3.296   2.022   3.060
 1861SOL    MW4 7476   3.372   2.047   3.025
 1862SOL     OW 7477   3.401   2.324   3.110
 1862SOL    HW2 7478   3.400   2.319   3.206
 1862SOL    HW3 7479   3.372   2.237   3.081
 1862SOL    MW4 7480   3.397   2.311   3.119
 1863SOL     OW 7481   3.121   2.414   3.025
 1863SOL    HW2 7482   3.212   2.388   3.034
 1863SOL    HW3 7483   3.111   2.437   2.933
 1863SOL    MW4 7484   3.131   2.413   3.014
 1864SOL     OW 7485   3.199   2.700   3.114
 1864SOL    HW2 7486   3.205   2.702   3.210
 1864SOL    HW3 7487   3.155   2.617   3.094
 1864SOL    MW4 7488   3.194   2.689   3.124
 1865SOL     OW 7489   3.398   2.848   2.987
 1865SOL    HW2 7490   3.388   2.923   3.046
 1865SOL    HW3 7491   3.336   2.783   3.021
 1865SOL    MW4 7492   3.389   2.850   2.999
 1866SOL     OW 7493   3.367   3.106   3.092
 1866SOL    HW2 7494   3.365   3.093   3.187
 1866SOL    HW3 7495   3.288   3.155   3.073
 1866SOL    MW4 7496   3.357   3.111   3.102
 1867SOL     OW 7497   3.152   3.263   3.000
 1867SOL    HW2 7498   3.087   3.204   3.038
 1867SOL    HW3 7499   3.158   3.235   2.908
 1867SOL    MW4 7500   3.144   3.251   2.993
 1868SOL     OW 7501   3.186   3.510   3.115
 1868SOL    HW2 7502   3.253   3.553   3.061
 1868SOL    HW3 7503   3.171   3.426   3.072
 1868SOL    MW4 7504   3.193   3.505   3.102
 1869SOL     OW 7505   3.384   3.671   2.976
 1869SOL    HW2 7506   3.455   3.616   3.009
 1869SOL    HW3 7507   3.395   3.755   3.022
 1869SOL    MW4 7508   3.394   3.675   2.986
 1870SOL     OW 7509   3.383   3.923   3.111
 1870SOL    HW2 7510   3.363   3.900   3.202
 1870SOL    HW3 7511   3.299   3.945   3.072
 1870SOL    MW4 7512   3.370   3.923   3.118
 1871SOL     OW 7513   3.119   3.997   3.017
 1871SOL    HW2 7514   3.049   3.934   3.035
 1871SOL    HW3 7515   3.122   4.002   2.921
 1871SOL    MW4 7516   3.110   3.990   3.007
 1872SOL     OW 7517   3.133   4.254   3.097
 1872SOL    HW2 7518   3.119   4.255   3.192
 1872SOL    HW3 7519   3.125   4.161   3.073
 1872SOL    MW4 7520   3.130   4.242   3.106
 1873SOL     OW 7521   3.379   4.365   3.049
 1873SOL    HW2 7522   3.442   4.313   3.099
 1873SOL    HW3 7523   3.296   4.320   3.060
 1873SOL    MW4 7524   3.376   4.352   3.057
 1874SOL     OW 7525   3.815   4.650   3.094
 1874SOL    HW2 7526   3.804   4.560   3.063
 1874SOL    HW3 7527   3.734   4.694   3.068
 1874SOL    MW4 7528   3.803   4.644   3.087
 1875SOL     OW 7529   3.579   0.098   3.018
 1875SOL    HW2 7530   3.603   0.187   3.042
 1875SOL    HW3 7531   3.575   0.099   2.922
 1875SOL    MW4 7532   3.582   0.110   3.008
 1876SOL     OW 7533   3.605   0.356   3.115
 1876SOL    HW2 7534   3.590   0.369   3.208
 1876SOL    HW3 7535   3.687   0.402   3.096
 1876SOL    MW4 7536   3.614   0.364   3.125
 1877SOL     OW 7537   3.822   0.524   3.031
 1877SOL    HW2 7538   3.903   0.483   3.060
 1877SOL    HW3 7539   3.829   0.615   3.058
 1877SOL    MW4 7540   3.833   0.531   3.038
 1878SOL     OW 7541   3.865   0.784   3.133
 1878SOL    HW2 7542   3.842   0.799   3.225
 1878SOL    HW3 7543   3.951   0.824   3.122
 1878SOL    MW4 7544   3.873   0.791   3.144
 1879SOL     OW 7545   3.628   0.872   3.019
 1879SOL    HW2 7546   3.706   0.837   3.061
 1879SOL    HW3 7547   3.556   0.819   3.053
 1879SOL    MW4 7548   3.629   0.861   3.029
 1880SOL     OW 7549   3.577   1.128   3.146
 1880SOL    HW2 7550   3.652   1.177   3.113
 1880SOL    HW3 7551   3.587   1.040   3.110
 1880SOL    MW4 7552   3.588   1.123   3.137
 1881SOL     OW 7553   3.814   1.249   3.049
 1881SOL    HW2 7554   3.835   1.338   3.077
 1881SOL    HW3 7555   3.794   1.258   2.956
 1881SOL    MW4 7556   3.814   1.262   3.040
 1882SOL     OW 7557   3.835   1.531   3.117
 1882SOL    HW2 7558   3.825   1.532   3.212
 1882SOL    HW3 7559   3.752   1.565   3.084
 1882SOL    MW4 7560   3.822   1.535   3.125
 1883SOL     OW 7561   3.612   1.682   3.052
 1883SOL    HW2 7562   3.603   1.774   3.078
 1883SOL    HW3 7563   3.598   1.682   2.957
 1883SOL    MW4 7564   3.609   1.694   3.043
 1884SOL     OW 7565   3.587   1.939   3.163
 1884SOL    HW2 7566   3.595   1.940   3.258
 1884SOL    HW3 7567   3.671   1.974   3.132
 1884SOL    MW4 7568   3.600   1.944   3.172
 1885SOL     OW 7569   3.816   2.038   3.040
 1885SOL    HW2 7570   3.821   2.131   3.065
 1885SOL    HW3 7571   3.800   2.040   2.945
 1885SOL    MW4 7572   3.814   2.051   3.031
 1886SOL     OW 7573   3.804   2.310   3.123
 1886SOL    HW2 7574   3.803   2.335   3.215
 1886SOL    HW3 7575   3.729   2.356   3.085
 1886SOL    MW4 7576   3.794   2.319   3.130
 1887SOL     OW 7577   3.608   2.460   3.006
 1887SOL    HW2 7578   3.611   2.550   3.040
 1887SOL    HW3 7579   3.521   2.429   3.029
 1887SOL    MW4 7580   3.597   2.468   3.014
 1888SOL     OW 7581   3.612   2.714   3.122
 1888SOL    HW2 7582   3.695   2.743   3.084
 1888SOL    HW3 7583   3.545   2.758   3.070
 1888SOL    MW4 7584   3.614   2.723   3.110
 1889SOL     OW 7585   3.848   2.872   3.034
 1889SOL    HW2 7586   3.818   2.953   3.076
 1889SOL    HW3 7587   3.831   2.887   2.941
 1889SOL    MW4 7588   3.842   2.885   3.027
 1890SOL     OW 7589   3.773   3.128   3.135
 1890SOL    HW2 7590   3.855   3.173   3.115
 1890SOL    HW3 7591   3.708   3.169   3.078
 1890SOL    MW4 7592   3.775   3.139   3.125
 1891SOL     OW 7593   3.582   3.259   3.006
 1891SOL    HW2 7594   3.513   3.211   3.052
 1891SOL    HW3 7595   3.563   3.246   2.913
 1891SOL    MW4 7596   3.570   3.251   3.000
 1892SOL     OW 7597   3.581   3.527   3.082
 1892SOL    HW2 7598   3.656   3.571   3.042
 1892SOL    HW3 7599   3.605   3.434   3.082
 1892SOL    MW4 7600   3.594   3.520   3.077
 1893SOL     OW 7601   3.817   3.609   2.975
 1893SOL    HW2 7602   3.835   3.694   3.014
 1893SOL    HW3 7603   3.812   3.626   2.881
 1893SOL    MW4 7604   3.819   3.622   2.968
 1894SOL     OW 7605   3.871   3.832   3.130
 1894SOL    HW2 7606   3.886   3.842   3.224
 1894SOL    HW3 7607   3.793   3.885   3.112
 1894SOL    MW4 7608   3.862   3.840   3.140
 1895SOL     OW 7609   3.655   4.007   2.999
 1895SOL    HW2 7610   3.576   3.958   3.021
 1895SOL    HW3 7611   3.649   4.023   2.905
 1895SOL    MW4 7612   3.644   4.003   2.989
 1896SOL     OW 7613   3.604   4.242   3.162
 1896SOL    HW2 7614   3.673   4.300   3.130
 1896SOL    HW3 7615   3.613   4.163   3.108
 1896SOL    MW4 7616   3.615   4.239   3.151
 1897SOL     OW 7617   3.804   4.377   3.012
 1897SOL    HW2 7618   3.884   4.332   3.038
 1897SOL    HW3 7619   3.810   4.384   2.917
 1897SOL    MW4 7620   3.816   4.372   3.003
 1898SOL     OW 7621   4.295   4.659   3.117
 1898SOL    HW2 7622   4.268   4.661   3.208
 1898SOL    HW3 7623   4.292   4.567   3.092
 1898SOL    MW4 7624   4.291   4.647   3.125
 1899SOL     OW 7625   4.064   0.116   3.020
 1899SOL    HW2 7626   4.135   0.074   3.069
 1899SOL    HW3 7627   3.985   0.071   3.050
 1899SOL    MW4 7628   4.063   0.105   3.031
 1900SOL     OW 7629   4.041   0.378   3.121
 1900SOL    HW2 7630   4.131   0.408   3.113
 1900SOL    HW3 7631   4.042   0.289   3.085
 1900SOL    MW4 7632   4.053   0.370   3.115
 1901SOL     OW 7633   4.304   0.487   3.047
 1901SOL    HW2 7634   4.327   0.572   3.086
 1901SOL    HW3 7635   4.295   0.505   2.954
 1901SOL    MW4 7636   4.305   0.501   3.040
 1902SOL     OW 7637   4.323   0.761   3.104
 1902SOL    HW2 7638   4.248   0.812   3.075
 1902SOL    HW3 7639   4.398   0.820   3.091
 1902SOL    MW4 7640   4.323   0.775   3.098
 1903SOL     OW 7641   4.098   0.901   3.068
 1903SOL    HW2 7642   4.106   0.995   3.083
 1903SOL    HW3 7643   4.061   0.894   2.980
 1903SOL    MW4 7644   4.094   0.912   3.058
 1904SOL     OW 7645   4.049   1.161   3.138
 1904SOL    HW2 7646   4.059   1.160   3.233
 1904SOL    HW3 7647   3.958   1.189   3.123
 1904SOL    MW4 7648   4.038   1.164   3.148
 1905SOL     OW 7649   4.276   1.287   3.017
 1905SOL    HW2 7650   4.205   1.232   3.050
 1905SOL    HW3 7651   4.285   1.261   2.925
 1905SOL    MW4 7652   4.268   1.277   3.009
 1906SOL     OW 7653   4.288   1.530   3.136
 1906SOL    HW2 7654   4.211   1.579   3.108
 1906SOL    HW3 7655   4.283   1.447   3.088
 1906SOL    MW4 7656   4.277   1.525   3.126
 1907SOL     OW 7657   4.065   1.647   2.993
 1907SOL    HW2 7658   4.061   1.735   3.030
 1907SOL    HW3 7659   3.997   1.598   3.040
 1907SOL    MW4 7660   4.055   1.652   3.004
 1908SOL     OW 7661   4.048   1.896   3.140
 1908SOL    HW2 7662   4.127   1.938   3.106
 1908SOL    HW3 7663   3.976   1.941   3.096
 1908SOL    MW4 7664   4.049   1.908   3.130
 1909SOL     OW 7665   4.276   2.003   3.015
 1909SOL    HW2 7666   4.280   2.095   3.041
 1909SOL    HW3 7667   4.268   2.004   2.920
 1909SOL    MW4 7668   4.276   2.015   3.006
 1910SOL     OW 7669   4.269   2.262   3.095
 1910SOL    HW2 7670   4.185   2.308   3.085
 1910SOL    HW3 7671   4.335   2.329   3.077
 1910SOL    MW4 7672   4.267   2.277   3.092
 1911SOL     OW 7673   4.040   2.410   3.036
 1911SOL    HW2 7674   4.042   2.505   3.042
 1911SOL    HW3 7675   3.949   2.386   3.054
 1911SOL    MW4 7676   4.028   2.419   3.039
 1912SOL     OW 7677   4.051   2.701   3.094
 1912SOL    HW2 7678   4.046   2.708   3.189
 1912SOL    HW3 7679   3.983   2.760   3.062
 1912SOL    MW4 7680   4.041   2.709   3.102
 1913SOL     OW 7681   4.280   2.838   2.985
 1913SOL    HW2 7682   4.216   2.774   3.015
 1913SOL    HW3 7683   4.362   2.809   3.025
 1913SOL    MW4 7684   4.283   2.826   2.994
 1914SOL     OW 7685   4.245   3.090   3.108
 1914SOL    HW2 7686   4.165   3.120   3.067
 1914SOL    HW3 7687   4.255   2.999   3.079
 1914SOL    MW4 7688   4.236   3.082   3.099
 1915SOL     OW 7689   4.031   3.215   2.999
 1915SOL    HW2 7690   4.047   3.306   3.025
 1915SOL    HW3 7691   4.017   3.220   2.904
 1915SOL    MW4 7692   4.031   3.228   2.990
 1916SOL     OW 7693   4.045   3.465   3.093
 1916SOL    HW2 7694   4.027   3.477   3.186
 1916SOL    HW3 7695   3.977   3.516   3.049
 1916SOL    MW4 7696   4.034   3.473   3.099
 1917SOL     OW 7697   4.266   3.599   3.002
 1917SOL    HW2 7698   4.253   3.686   3.041
 1917SOL    HW3 7699   4.202   3.543   3.045
 1917SOL    MW4 7700   4.256   3.603   3.012
 1918SOL     OW 7701   4.246   3.854   3.118
 1918SOL    HW2 7702   4.195   3.914   3.064
 1918SOL    HW3 7703   4.337   3.873   3.096
 1918SOL    MW4 7704   4.251   3.864   3.108
 1919SOL     OW 7705   4.059   3.987   2.992
 1919SOL    HW2 7706   4.036   4.072   3.028
 1919SOL    HW3 7707   3.989   3.929   3.022
 1919SOL    MW4 7708   4.046   3.990   3.000
 1920SOL     OW 7709   4.038   4.254   3.084
 1920SOL    HW2 7710   4.041   4.260   3.179
 1920SOL    HW3 7711   4.107   4.313   3.053
 1920SOL    MW4 7712   4.047   4.263   3.092
 1921SOL     OW 7713   4.277   4.375   3.037
 1921SOL    HW2 7714   4.360   4.339   3.069
 1921SOL    HW3 7715   4.290   4.383   2.942
 1921SOL    MW4 7716   4.290   4.371   3.028
 1922SOL     OW 7717   0.232   0.001   3.388
 1922SOL    HW2 7718   0.283   0.062   3.442
 1922SOL    HW3 7719   0.239  -0.082   3.434
 1922SOL    MW4 7720   0.239  -0.002   3.401
 1923SOL     OW 7721   4.482   0.123   3.473
 1923SOL    HW2 7722   4.510   0.213   3.457
 1923SOL    HW3 7723   4.560   0.070   3.457
 1923SOL    MW4 7724   4.496   0.128   3.469
 1924SOL     OW 7725   0.025   0.387   3.388
 1924SOL    HW2 7726  -0.050   0.438   3.419
 1924SOL    HW3 7727   0.098   0.416   3.442
 1924SOL    MW4 7728   0.025   0.398   3.400
 1925SOL     OW 7729   0.213   0.516   3.545
 1925SOL    HW2 7730   0.301   0.485   3.525
 1925SOL    HW3 7731   0.204   0.597   3.495
 1925SOL    MW4 7732   0.223   0.523   3.536
 1926SOL     OW 7733   0.190   0.755   3.370
 1926SOL    HW2 7734   0.267   0.800   3.405
 1926SOL    HW3 7735   0.116   0.796   3.415
 1926SOL    MW4 7736   0.190   0.766   3.381
 1927SOL     OW 7737   4.479   0.876   3.505
 1927SOL    HW2 7738   4.496   0.860   3.598
 1927SOL    HW3 7739   4.478   0.971   3.497
 1927SOL    MW4 7740   4.481   0.886   3.516
 1928SOL     OW 7741   4.483   1.155   3.416
 1928SOL    HW2 7742   4.559   1.202   3.450
 1928SOL    HW3 7743   4.508   1.132   3.326
 1928SOL    MW4 7744   4.497   1.158   3.409
 1929SOL     OW 7745   0.213   1.288   3.511
 1929SOL    HW2 7746   0.289   1.240   3.480
 1929SOL    HW3 7747   0.220   1.374   3.469
 1929SOL    MW4 7748   0.224   1.293   3.502
 1930SOL     OW 7749   0.255   1.534   3.402
 1930SOL    HW2 7750   0.336   1.579   3.427
 1930SOL    HW3 7751   0.260   1.526   3.307
 1930SOL    MW4 7752   0.267   1.539   3.393
 1931SOL     OW 7753   0.026   1.655   3.502
 1931SOL    HW2 7754  -0.049   1.618   3.455
 1931SOL    HW3 7755   0.102   1.619   3.457
 1931SOL    MW4 7756   0.026   1.646   3.490
 1932SOL     OW 7757   0.017   1.918   3.441
 1932SOL    HW2 7758   0.028   1.826   3.464
 1932SOL    HW3 7759   0.025   1.920   3.346
 1932SOL    MW4 7760   0.020   1.906   3.432
 1933SOL     OW 7761   0.217   2.087   3.511
 1933SOL    HW2 7762   0.249   2.073   3.601
 1933SOL    HW3 7763   0.147   2.023   3.501
 1933SOL    MW4 7764   0.212   2.077   3.522
 1934SOL     OW 7765   0.189   2.337   3.384
 1934SOL    HW2 7766   0.123   2.389   3.430
 1934SOL    HW3 7767   0.192   2.254   3.432
 1934SOL    MW4 7768   0.181   2.333   3.397
 1935SOL     OW 7769   4.487   2.499   3.486
 1935SOL    HW2 7770   4.494   2.479   3.579
 1935SOL    HW3 7771   4.413   2.447   3.456
 1935SOL    MW4 7772   4.478   2.490   3.494
 1936SOL     OW 7773   4.474   2.761   3.416
 1936SOL    HW2 7774   4.547   2.808   3.456
 1936SOL    HW3 7775   4.483   2.671   3.446
 1936SOL    MW4 7776   4.485   2.755   3.425
 1937SOL     OW 7777   0.226   2.870   3.506
 1937SOL    HW2 7778   0.302   2.818   3.477
 1937SOL    HW3 7779   0.236   2.953   3.460
 1937SOL    MW4 7780   0.238   2.874   3.496
 1938SOL     OW 7781   0.242   3.119   3.388
 1938SOL    HW2 7782   0.153   3.135   3.419
 1938SOL    HW3 7783   0.239   3.137   3.294
 1938SOL    MW4 7784   0.230   3.124   3.380
 1939SOL     OW 7785   0.026   3.251   3.486
 1939SOL    HW2 7786  -0.057   3.222   3.447
 1939SOL    HW3 7787   0.034   3.343   3.460
 1939SOL    MW4 7788   0.016   3.259   3.477
 1940SOL     OW 7789   4.471   3.519   3.401
 1940SOL    HW2 7790   4.390   3.564   3.426
 1940SOL    HW3 7791   4.462   3.505   3.307
 1940SOL    MW4 7792   4.459   3.523   3.392
 1941SOL     OW 7793   0.208   3.637   3.489
 1941SOL    HW2 7794   0.209   3.633   3.584
 1941SOL    HW3 7795   0.122   3.602   3.464
 1941SOL    MW4 7796   0.196   3.632   3.498
 1942SOL     OW 7797   0.240   3.896   3.382
 1942SOL    HW2 7798   0.168   3.944   3.423
 1942SOL    HW3 7799   0.227   3.805   3.409
 1942SOL    MW4 7800   0.229   3.890   3.391
 1943SOL     OW 7801   0.001   4.002   3.482
 1943SOL    HW2 7802   0.010   3.997   3.577
 1943SOL    HW3 7803  -0.004   4.095   3.463
 1943SOL    MW4 7804   0.002   4.013   3.492
 1944SOL     OW 7805   0.024   4.262   3.424
 1944SOL    HW2 7806  -0.049   4.324   3.426
 1944SOL    HW3 7807   0.102   4.317   3.434
 1944SOL    MW4 7808   0.025   4.277   3.426
 1945SOL     OW 7809   0.268   4.412   3.480
 1945SOL    HW2 7810   0.264   4.377   3.569
 1945SOL    HW3 7811   0.344   4.368   3.440
 1945SOL    MW4 7812   0.278   4.402   3.486
 1946SOL     OW 7813   0.694   4.648   3.406
 1946SOL    HW2 7814   0.774   4.695   3.429
 1946SOL    HW3 7815   0.686   4.658   3.311
 1946SOL    MW4 7816   0.703   4.656   3.397
 1947SOL     OW 7817   0.437   0.135   3.540
 1947SOL    HW2 7818   0.440   0.116   3.634
 1947SOL    HW3 7819   0.505   0.080   3.502
 1947SOL    MW4 7820   0.446   0.125   3.548
 1948SOL     OW 7821   0.438   0.386   3.462
 1948SOL    HW2 7822   0.518   0.427   3.495
 1948SOL    HW3 7823   0.431   0.303   3.509
 1948SOL    MW4 7824   0.447   0.381   3.472
 1949SOL     OW 7825   0.676   0.512   3.539
 1949SOL    HW2 7826   0.677   0.517   3.634
 1949SOL    HW3 7827   0.754   0.461   3.516
 1949SOL    MW4 7828   0.687   0.506   3.548
 1950SOL     OW 7829   0.662   0.764   3.419
 1950SOL    HW2 7830   0.570   0.781   3.439
 1950SOL    HW3 7831   0.680   0.678   3.458
 1950SOL    MW4 7832   0.652   0.755   3.427
 1951SOL     OW 7833   0.421   0.883   3.490
 1951SOL    HW2 7834   0.420   0.895   3.585
 1951SOL    HW3 7835   0.425   0.972   3.456
 1951SOL    MW4 7836   0.421   0.897   3.498
 1952SOL     OW 7837   0.432   1.157   3.422
 1952SOL    HW2 7838   0.506   1.195   3.469
 1952SOL    HW3 7839   0.459   1.157   3.330
 1952SOL    MW4 7840   0.445   1.162   3.416
 1953SOL     OW 7841   0.699   1.266   3.497
 1953SOL    HW2 7842   0.767   1.221   3.447
 1953SOL    HW3 7843   0.703   1.357   3.466
 1953SOL    MW4 7844   0.709   1.272   3.486
 1954SOL     OW 7845   0.710   1.544   3.436
 1954SOL    HW2 7846   0.775   1.595   3.485
 1954SOL    HW3 7847   0.627   1.589   3.452
 1954SOL    MW4 7848   0.708   1.557   3.444
 1955SOL     OW 7849   0.471   1.683   3.485
 1955SOL    HW2 7850   0.479   1.672   3.580
 1955SOL    HW3 7851   0.464   1.777   3.472
 1955SOL    MW4 7852   0.471   1.694   3.496
 1956SOL     OW 7853   0.439   1.951   3.410
 1956SOL    HW2 7854   0.355   1.983   3.444
 1956SOL    HW3 7855   0.428   1.950   3.315
 1956SOL    MW4 7856   0.426   1.955   3.402
 1957SOL     OW 7857   0.659   2.061   3.548
 1957SOL    HW2 7858   0.664   2.044   3.642
 1957SOL    HW3 7859   0.580   2.016   3.518
 1957SOL    MW4 7860   0.649   2.053   3.556
 1958SOL     OW 7861   0.661   2.287   3.391
 1958SOL    HW2 7862   0.732   2.338   3.428
 1958SOL    HW3 7863   0.659   2.206   3.441
 1958SOL    MW4 7864   0.670   2.283   3.402
 1959SOL     OW 7865   0.446   2.450   3.477
 1959SOL    HW2 7866   0.510   2.379   3.467
 1959SOL    HW3 7867   0.365   2.414   3.443
 1959SOL    MW4 7868   0.444   2.436   3.472
 1960SOL     OW 7869   0.441   2.717   3.424
 1960SOL    HW2 7870   0.432   2.625   3.450
 1960SOL    HW3 7871   0.436   2.716   3.328
 1960SOL    MW4 7872   0.439   2.704   3.415
 1961SOL     OW 7873   0.649   2.851   3.529
 1961SOL    HW2 7874   0.722   2.800   3.494
 1961SOL    HW3 7875   0.571   2.809   3.494
 1961SOL    MW4 7876   0.649   2.839   3.520
 1962SOL     OW 7877   0.672   3.081   3.369
 1962SOL    HW2 7878   0.602   3.130   3.411
 1962SOL    HW3 7879   0.671   2.995   3.411
 1962SOL    MW4 7880   0.663   3.076   3.380
 1963SOL     OW 7881   0.468   3.235   3.502
 1963SOL    HW2 7882   0.483   3.224   3.596
 1963SOL    HW3 7883   0.398   3.173   3.482
 1963SOL    MW4 7884   0.461   3.225   3.512
 1964SOL     OW 7885   0.430   3.503   3.406
 1964SOL    HW2 7886   0.413   3.423   3.454
 1964SOL    HW3 7887   0.353   3.558   3.423
 1964SOL    MW4 7888   0.417   3.500   3.415
 1965SOL     OW 7889   0.677   3.607   3.513
 1965SOL    HW2 7890   0.735   3.555   3.457
 1965SOL    HW3 7891   0.590   3.571   3.496
 1965SOL    MW4 7892   0.674   3.596   3.503
 1966SOL     OW 7893   0.691   3.854   3.402
 1966SOL    HW2 7894   0.622   3.903   3.446
 1966SOL    HW3 7895   0.680   3.764   3.432
 1966SOL    MW4 7896   0.680   3.848   3.412
 1967SOL     OW 7897   0.474   3.992   3.505
 1967SOL    HW2 7898   0.493   4.080   3.473
 1967SOL    HW3 7899   0.388   3.971   3.468
 1967SOL    MW4 7900   0.465   4.001   3.496
 1968SOL     OW 7901   0.489   4.246   3.399
 1968SOL    HW2 7902   0.560   4.303   3.430
 1968SOL    HW3 7903   0.486   4.260   3.305
 1968SOL    MW4 7904   0.498   4.256   3.391
 1969SOL     OW 7905   0.705   4.391   3.516
 1969SOL    HW2 7906   0.782   4.339   3.493
 1969SOL    HW3 7907   0.723   4.478   3.482
 1969SOL    MW4 7908   0.717   4.396   3.509
 1970SOL     OW 7909   1.129   4.652   3.383
 1970SOL    HW2 7910   1.223   4.664   3.393
 1970SOL    HW3 7911   1.116   4.645   3.288
 1970SOL    MW4 7912   1.140   4.653   3.372
 1971SOL     OW 7913   0.913   0.133   3.487
 1971SOL    HW2 7914   0.896   0.123   3.580
 1971SOL    HW3 7915   0.996   0.087   3.473
 1971SOL    MW4 7916   0.922   0.126   3.497
 1972SOL     OW 7917   0.900   0.396   3.437
 1972SOL    HW2 7918   0.983   0.434   3.465
 1972SOL    HW3 7919   0.910   0.302   3.451
 1972SOL    MW4 7920   0.912   0.389   3.443
 1973SOL     OW 7921   1.126   0.504   3.516
 1973SOL    HW2 7922   1.107   0.503   3.610
 1973SOL    HW3 7923   1.127   0.597   3.493
 1973SOL    MW4 7924   1.123   0.516   3.526
 1974SOL     OW 7925   1.136   0.782   3.446
 1974SOL    HW2 7926   1.219   0.818   3.477
 1974SOL    HW3 7927   1.070   0.846   3.473
 1974SOL    MW4 7928   1.138   0.795   3.453
 1975SOL     OW 7929   0.904   0.903   3.496
 1975SOL    HW2 7930   0.889   0.986   3.452
 1975SOL    HW3 7931   0.830   0.848   3.471
 1975SOL    MW4 7932   0.893   0.907   3.487
 1976SOL     OW 7933   0.914   1.167   3.391
 1976SOL    HW2 7934   0.995   1.202   3.426
 1976SOL    HW3 7935   0.921   1.181   3.296
 1976SOL    MW4 7936   0.925   1.174   3.383
 1977SOL     OW 7937   1.136   1.308   3.491
 1977SOL    HW2 7938   1.114   1.300   3.584
 1977SOL    HW3 7939   1.129   1.402   3.473
 1977SOL    MW4 7940   1.132   1.319   3.501
 1978SOL     OW 7941   1.120   1.572   3.410
 1978SOL    HW2 7942   1.208   1.608   3.421
 1978SOL    HW3 7943   1.102   1.580   3.316
 1978SOL    MW4 7944   1.129   1.578   3.399
 1979SOL     OW 7945   0.905   1.691   3.555
 1979SOL    HW2 7946   0.877   1.768   3.505
 1979SOL    HW3 7947   0.974   1.652   3.502
 1979SOL    MW4 7948   0.910   1.696   3.541
 1980SOL     OW 7949   0.858   1.913   3.405
 1980SOL    HW2 7950   0.941   1.960   3.417
 1980SOL    HW3 7951   0.796   1.961   3.460
 1980SOL    MW4 7952   0.861   1.926   3.414
 1981SOL     OW 7953   1.076   2.054   3.495
 1981SOL    HW2 7954   1.160   2.019   3.464
 1981SOL    HW3 7955   1.079   2.147   3.470
 1981SOL    MW4 7956   1.088   2.062   3.487
 1982SOL     OW 7957   1.125   2.312   3.402
 1982SOL    HW2 7958   1.200   2.357   3.442
 1982SOL    HW3 7959   1.146   2.310   3.308
 1982SOL    MW4 7960   1.138   2.318   3.395
 1983SOL     OW 7961   0.875   2.439   3.479
 1983SOL    HW2 7962   0.854   2.430   3.572
 1983SOL    HW3 7963   0.962   2.401   3.470
 1983SOL    MW4 7964   0.884   2.433   3.490
 1984SOL     OW 7965   0.879   2.719   3.402
 1984SOL    HW2 7966   0.968   2.745   3.424
 1984SOL    HW3 7967   0.877   2.624   3.414
 1984SOL    MW4 7968   0.890   2.710   3.406
 1985SOL     OW 7969   1.122   2.824   3.470
 1985SOL    HW2 7970   1.116   2.830   3.565
 1985SOL    HW3 7971   1.195   2.764   3.454
 1985SOL    MW4 7972   1.131   2.817   3.480
 1986SOL     OW 7973   1.096   3.093   3.373
 1986SOL    HW2 7974   1.104   3.002   3.401
 1986SOL    HW3 7975   1.102   3.090   3.278
 1986SOL    MW4 7976   1.098   3.080   3.364
 1987SOL     OW 7977   0.878   3.214   3.489
 1987SOL    HW2 7978   0.942   3.153   3.452
 1987SOL    HW3 7979   0.794   3.186   3.451
 1987SOL    MW4 7980   0.875   3.202   3.480
 1988SOL     OW 7981   0.908   3.499   3.377
 1988SOL    HW2 7982   0.908   3.410   3.412
 1988SOL    HW3 7983   0.927   3.488   3.284
 1988SOL    MW4 7984   0.911   3.486   3.369
 1989SOL     OW 7985   1.136   3.610   3.533
 1989SOL    HW2 7986   1.127   3.574   3.622
 1989SOL    HW3 7987   1.050   3.598   3.494
 1989SOL    MW4 7988   1.124   3.603   3.540
 1990SOL     OW 7989   1.134   3.866   3.433
 1990SOL    HW2 7990   1.218   3.911   3.442
 1990SOL    HW3 7991   1.145   3.785   3.483
 1990SOL    MW4 7992   1.147   3.861   3.441
 1991SOL     OW 7993   0.883   3.990   3.527
 1991SOL    HW2 7994   0.967   3.948   3.508
 1991SOL    HW3 7995   0.817   3.925   3.501
 1991SOL    MW4 7996   0.885   3.976   3.521
 1992SOL     OW 7997   0.925   4.245   3.422
 1992SOL    HW2 7998   0.897   4.155   3.439
 1992SOL    HW3 7999   0.905   4.259   3.330
 1992SOL    MW4 8000   0.918   4.235   3.412
 1993SOL     OW 8001   1.127   4.396   3.506
 1993SOL    HW2 8002   1.049   4.349   3.477
 1993SOL    HW3 8003   1.121   4.482   3.463
 1993SOL    MW4 8004   1.116   4.401   3.497
 1994SOL     OW 8005   1.625   4.583   3.365
 1994SOL    HW2 8006   1.619   4.506   3.421
 1994SOL    HW3 8007   1.550   4.637   3.390
 1994SOL    MW4 8008   1.615   4.580   3.376
 1995SOL     OW 8009   1.404   0.084   3.432
 1995SOL    HW2 8010   1.393   0.096   3.527
 1995SOL    HW3 8011   1.392   0.171   3.395
 1995SOL    MW4 8012   1.401   0.097   3.440
 1996SOL     OW 8013   1.323   0.338   3.370
 1996SOL    HW2 8014   1.406   0.376   3.401
 1996SOL    HW3 8015   1.255   0.394   3.407
 1996SOL    MW4 8016   1.325   0.350   3.379
 1997SOL     OW 8017   1.554   0.487   3.489
 1997SOL    HW2 8018   1.557   0.498   3.584
 1997SOL    HW3 8019   1.631   0.434   3.468
 1997SOL    MW4 8020   1.564   0.482   3.498
 1998SOL     OW 8021   1.566   0.749   3.347
 1998SOL    HW2 8022   1.510   0.809   3.396
 1998SOL    HW3 8023   1.552   0.664   3.388
 1998SOL    MW4 8024   1.556   0.746   3.359
 1999SOL     OW 8025   1.368   0.892   3.498
 1999SOL    HW2 8026   1.356   0.905   3.592
 1999SOL    HW3 8027   1.348   0.977   3.459
 1999SOL    MW4 8028   1.364   0.905   3.505
 2000SOL     OW 8029   1.352   1.153   3.384
 2000SOL    HW2 8030   1.430   1.199   3.415
 2000SOL    HW3 8031   1.279   1.199   3.425
 2000SOL    MW4 8032   1.353   1.165   3.394
 2001SOL     OW 8033   1.594   1.271   3.475
 2001SOL    HW2 8034   1.584   1.277   3.570
 2001SOL    HW3 8035   1.674   1.221   3.462
 2001SOL    MW4 8036   1.603   1.265   3.486
 2002SOL     OW 8037   1.575   1.524   3.395
 2002SOL    HW2 8038   1.589   1.434   3.426
 2002SOL    HW3 8039   1.582   1.518   3.300
 2002SOL    MW4 8040   1.578   1.511   3.387
 2003SOL     OW 8041   1.358   1.693   3.460
 2003SOL    HW2 8042   1.358   1.671   3.553
 2003SOL    HW3 8043   1.433   1.646   3.424
 2003SOL    MW4 8044   1.368   1.684   3.468
 2004SOL     OW 8045   1.303   1.945   3.404
 2004SOL    HW2 8046   1.386   1.986   3.425
 2004SOL    HW3 8047   1.314   1.853   3.429
 2004SOL    MW4 8048   1.315   1.938   3.410
 2005SOL     OW 8049   1.564   2.025   3.469
 2005SOL    HW2 8050   1.645   1.974   3.471
 2005SOL    HW3 8051   1.590   2.110   3.434
 2005SOL    MW4 8052   1.578   2.029   3.465
 2006SOL     OW 8053   1.608   2.294   3.435
 2006SOL    HW2 8054   1.530   2.333   3.474
 2006SOL    HW3 8055   1.592   2.297   3.341
 2006SOL    MW4 8056   1.595   2.299   3.428
 2007SOL     OW 8057   1.375   2.414   3.517
 2007SOL    HW2 8058   1.348   2.433   3.607
 2007SOL    HW3 8059   1.352   2.493   3.468
 2007SOL    MW4 8060   1.369   2.427   3.522
 2008SOL     OW 8061   1.339   2.655   3.401
 2008SOL    HW2 8062   1.404   2.709   3.446
 2008SOL    HW3 8063   1.348   2.677   3.309
 2008SOL    MW4 8064   1.349   2.665   3.395
 2009SOL     OW 8065   1.547   2.836   3.479
 2009SOL    HW2 8066   1.640   2.817   3.464
 2009SOL    HW3 8067   1.540   2.931   3.474
 2009SOL    MW4 8068   1.558   2.846   3.476
 2010SOL     OW 8069   1.546   3.103   3.465
 2010SOL    HW2 8070   1.611   3.173   3.464
 2010SOL    HW3 8071   1.466   3.145   3.498
 2010SOL    MW4 8072   1.544   3.118   3.469
 2011SOL     OW 8073   1.301   3.236   3.508
 2011SOL    HW2 8074   1.306   3.224   3.603
 2011SOL    HW3 8075   1.232   3.175   3.480
 2011SOL    MW4 8076   1.292   3.226   3.517
 2012SOL     OW 8077   1.347   3.487   3.408
 2012SOL    HW2 8078   1.336   3.400   3.447
 2012SOL    HW3 8079   1.284   3.542   3.455
 2012SOL    MW4 8080   1.337   3.482   3.420
 2013SOL     OW 8081   1.580   3.601   3.492
 2013SOL    HW2 8082   1.576   3.609   3.587
 2013SOL    HW3 8083   1.501   3.551   3.469
 2013SOL    MW4 8084   1.569   3.595   3.501
 2014SOL     OW 8085   1.574   3.864   3.420
 2014SOL    HW2 8086   1.580   3.773   3.449
 2014SOL    HW3 8087   1.563   3.858   3.325
 2014SOL    MW4 8088   1.573   3.851   3.411
 2015SOL     OW 8089   1.356   4.016   3.516
 2015SOL    HW2 8090   1.370   4.107   3.490
 2015SOL    HW3 8091   1.422   3.966   3.468
 2015SOL    MW4 8092   1.366   4.021   3.507
 2016SOL     OW 8093   1.365   4.275   3.421
 2016SOL    HW2 8094   1.282   4.313   3.450
 2016SOL    HW3 8095   1.361   4.280   3.326
 2016SOL    MW4 8096   1.353   4.281   3.413
 2017SOL     OW 8097   1.617   4.375   3.532
 2017SOL    HW2 8098   1.694   4.323   3.508
 2017SOL    HW3 8099   1.543   4.324   3.501
 2017SOL    MW4 8100   1.618   4.362   3.524
 2018SOL     OW 8101   2.034   4.654   3.398
 2018SOL    HW2 8102   2.105   4.692   3.450
 2018SOL    HW3 8103   1.954   4.689   3.437
 2018SOL    MW4 8104   2.033   4.664   3.410
 2019SOL     OW 8105   1.799   0.091   3.489
 2019SOL    HW2 8106   1.796   0.103   3.584
 2019SOL    HW3 8107   1.730   0.027   3.471
 2019SOL    MW4 8108   1.789   0.084   3.499
 2020SOL     OW 8109   1.757   0.333   3.373
 2020SOL    HW2 8110   1.766   0.247   3.414
 2020SOL    HW3 8111   1.780   0.318   3.282
 2020SOL    MW4 8112   1.761   0.320   3.367
 2021SOL     OW 8113   1.972   0.447   3.503
 2021SOL    HW2 8114   1.980   0.536   3.467
 2021SOL    HW3 8115   1.895   0.410   3.460
 2021SOL    MW4 8116   1.963   0.454   3.492
 2022SOL     OW 8117   2.023   0.700   3.382
 2022SOL    HW2 8118   2.105   0.738   3.412
 2022SOL    HW3 8119   2.022   0.717   3.288
 2022SOL    MW4 8120   2.034   0.707   3.374
 2023SOL     OW 8121   1.786   0.856   3.483
 2023SOL    HW2 8122   1.856   0.806   3.443
 2023SOL    HW3 8123   1.706   0.824   3.440
 2023SOL    MW4 8124   1.784   0.845   3.472
 2024SOL     OW 8125   1.808   1.114   3.378
 2024SOL    HW2 8126   1.877   1.154   3.430
 2024SOL    HW3 8127   1.793   1.029   3.420
 2024SOL    MW4 8128   1.815   1.108   3.391
 2025SOL     OW 8129   2.001   1.232   3.527
 2025SOL    HW2 8130   2.004   1.251   3.621
 2025SOL    HW3 8131   2.006   1.318   3.485
 2025SOL    MW4 8132   2.002   1.246   3.534
 2026SOL     OW 8133   2.017   1.497   3.415
 2026SOL    HW2 8134   2.090   1.553   3.441
 2026SOL    HW3 8135   1.941   1.532   3.462
 2026SOL    MW4 8136   2.016   1.509   3.425
 2027SOL     OW 8137   1.803   1.626   3.510
 2027SOL    HW2 8138   1.804   1.720   3.491
 2027SOL    HW3 8139   1.724   1.594   3.467
 2027SOL    MW4 8140   1.793   1.634   3.502
 2028SOL     OW 8141   1.823   1.895   3.458
 2028SOL    HW2 8142   1.891   1.949   3.498
 2028SOL    HW3 8143   1.825   1.919   3.365
 2028SOL    MW4 8144   1.832   1.906   3.451
 2029SOL     OW 8145   2.018   2.038   3.554
 2029SOL    HW2 8146   2.085   1.990   3.504
 2029SOL    HW3 8147   2.027   2.128   3.524
 2029SOL    MW4 8148   2.028   2.043   3.543
 2030SOL     OW 8149   2.043   2.274   3.416
 2030SOL    HW2 8150   2.125   2.312   3.446
 2030SOL    HW3 8151   2.040   2.294   3.322
 2030SOL    MW4 8152   2.053   2.282   3.407
 2031SOL     OW 8153   1.837   2.445   3.518
 2031SOL    HW2 8154   1.910   2.384   3.509
 2031SOL    HW3 8155   1.761   2.396   3.488
 2031SOL    MW4 8156   1.836   2.431   3.513
 2032SOL     OW 8157   1.819   2.716   3.458
 2032SOL    HW2 8158   1.905   2.756   3.474
 2032SOL    HW3 8159   1.832   2.623   3.474
 2032SOL    MW4 8160   1.832   2.709   3.462
 2033SOL     OW 8161   2.063   2.845   3.497
 2033SOL    HW2 8162   2.061   2.838   3.593
 2033SOL    HW3 8163   2.045   2.937   3.479
 2033SOL    MW4 8164   2.061   2.856   3.507
 2034SOL     OW 8165   2.025   3.124   3.425
 2034SOL    HW2 8166   2.097   3.179   3.456
 2034SOL    HW3 8167   1.946   3.177   3.441
 2034SOL    MW4 8168   2.024   3.138   3.431
 2035SOL     OW 8169   1.788   3.272   3.455
 2035SOL    HW2 8170   1.799   3.263   3.550
 2035SOL    HW3 8171   1.808   3.364   3.437
 2035SOL    MW4 8172   1.792   3.283   3.465
 2036SOL     OW 8173   1.824   3.543   3.408
 2036SOL    HW2 8174   1.737   3.569   3.441
 2036SOL    HW3 8175   1.813   3.540   3.313
 2036SOL    MW4 8176   1.811   3.546   3.400
 2037SOL     OW 8177   2.041   3.653   3.548
 2037SOL    HW2 8178   2.122   3.615   3.515
 2037SOL    HW3 8179   1.973   3.619   3.490
 2037SOL    MW4 8180   2.043   3.644   3.536
 2038SOL     OW 8181   2.056   3.892   3.441
 2038SOL    HW2 8182   1.986   3.942   3.483
 2038SOL    HW3 8183   2.057   3.809   3.489
 2038SOL    MW4 8184   2.047   3.887   3.453
 2039SOL     OW 8185   1.799   3.976   3.547
 2039SOL    HW2 8186   1.781   3.978   3.641
 2039SOL    HW3 8187   1.720   3.939   3.508
 2039SOL    MW4 8188   1.786   3.971   3.554
 2040SOL     OW 8189   1.828   4.228   3.442
 2040SOL    HW2 8190   1.808   4.144   3.485
 2040SOL    HW3 8191   1.817   4.210   3.349
 2040SOL    MW4 8192   1.824   4.214   3.436
 2041SOL     OW 8193   2.060   4.379   3.537
 2041SOL    HW2 8194   1.998   4.322   3.491
 2041SOL    HW3 8195   2.044   4.466   3.501
 2041SOL    MW4 8196   2.049   4.383   3.527
 2042SOL     OW 8197   2.465   4.637   3.454
 2042SOL    HW2 8198   2.484   4.544   3.468
 2042SOL    HW3 8199   2.453   4.645   3.359
 2042SOL    MW4 8200   2.466   4.626   3.443
 2043SOL     OW 8201   2.228   0.104   3.573
 2043SOL    HW2 8202   2.223   0.187   3.525
 2043SOL    HW3 8203   2.300   0.057   3.532
 2043SOL    MW4 8204   2.237   0.109   3.561
 2044SOL     OW 8205   2.206   0.316   3.404
 2044SOL    HW2 8206   2.278   0.367   3.440
 2044SOL    HW3 8207   2.127   0.364   3.431
 2044SOL    MW4 8208   2.205   0.329   3.412
 2045SOL     OW 8209   2.402   0.509   3.482
 2045SOL    HW2 8210   2.487   0.478   3.451
 2045SOL    HW3 8211   2.394   0.598   3.447
 2045SOL    MW4 8212   2.412   0.517   3.473
 2046SOL     OW 8213   2.467   0.750   3.379
 2046SOL    HW2 8214   2.550   0.769   3.421
 2046SOL    HW3 8215   2.475   0.789   3.292
 2046SOL    MW4 8216   2.479   0.757   3.373
 2047SOL     OW 8217   2.232   0.851   3.489
 2047SOL    HW2 8218   2.215   0.939   3.457
 2047SOL    HW3 8219   2.307   0.821   3.438
 2047SOL    MW4 8220   2.240   0.859   3.478
 2048SOL     OW 8221   2.216   1.107   3.407
 2048SOL    HW2 8222   2.298   1.150   3.435
 2048SOL    HW3 8223   2.149   1.145   3.464
 2048SOL    MW4 8224   2.218   1.118   3.418
 2049SOL     OW 8225   2.457   1.232   3.473
 2049SOL    HW2 8226   2.442   1.230   3.568
 2049SOL    HW3 8227   2.543   1.191   3.462
 2049SOL    MW4 8228   2.467   1.226   3.484
 2050SOL     OW 8229   2.444   1.508   3.442
 2050SOL    HW2 8230   2.452   1.416   3.465
 2050SOL    HW3 8231   2.446   1.509   3.346
 2050SOL    MW4 8232   2.446   1.496   3.432
 2051SOL     OW 8233   2.234   1.666   3.480
 2051SOL    HW2 8234   2.230   1.670   3.576
 2051SOL    HW3 8235   2.319   1.625   3.462
 2051SOL    MW4 8236   2.245   1.661   3.490
 2052SOL     OW 8237   2.223   1.925   3.403
 2052SOL    HW2 8238   2.236   1.835   3.433
 2052SOL    HW3 8239   2.228   1.918   3.307
 2052SOL    MW4 8240   2.226   1.912   3.394
 2053SOL     OW 8241   2.473   2.040   3.535
 2053SOL    HW2 8242   2.472   2.045   3.630
 2053SOL    HW3 8243   2.391   1.998   3.511
 2053SOL    MW4 8244   2.462   2.035   3.544
 2054SOL     OW 8245   2.494   2.320   3.432
 2054SOL    HW2 8246   2.574   2.363   3.462
 2054SOL    HW3 8247   2.501   2.231   3.466
 2054SOL    MW4 8248   2.505   2.314   3.440
 2055SOL     OW 8249   2.255   2.407   3.527
 2055SOL    HW2 8250   2.243   2.498   3.501
 2055SOL    HW3 8251   2.346   2.387   3.506
 2055SOL    MW4 8252   2.266   2.416   3.521
 2056SOL     OW 8253   2.256   2.662   3.421
 2056SOL    HW2 8254   2.181   2.713   3.452
 2056SOL    HW3 8255   2.264   2.684   3.328
 2056SOL    MW4 8256   2.247   2.671   3.413
 2057SOL     OW 8257   2.498   2.813   3.463
 2057SOL    HW2 8258   2.478   2.897   3.423
 2057SOL    HW3 8259   2.413   2.770   3.474
 2057SOL    MW4 8260   2.484   2.818   3.460
 2058SOL     OW 8261   2.464   3.064   3.369
 2058SOL    HW2 8262   2.543   3.113   3.392
 2058SOL    HW3 8263   2.459   3.071   3.274
 2058SOL    MW4 8264   2.474   3.072   3.360
 2059SOL     OW 8265   2.290   3.256   3.479
 2059SOL    HW2 8266   2.305   3.247   3.573
 2059SOL    HW3 8267   2.348   3.192   3.439
 2059SOL    MW4 8268   2.300   3.247   3.486
 2060SOL     OW 8269   2.234   3.520   3.394
 2060SOL    HW2 8270   2.242   3.431   3.427
 2060SOL    HW3 8271   2.231   3.511   3.299
 2060SOL    MW4 8272   2.235   3.507   3.386
 2061SOL     OW 8273   2.479   3.632   3.495
 2061SOL    HW2 8274   2.484   3.723   3.465
 2061SOL    HW3 8275   2.411   3.593   3.440
 2061SOL    MW4 8276   2.471   3.639   3.484
 2062SOL     OW 8277   2.482   3.880   3.386
 2062SOL    HW2 8278   2.562   3.917   3.423
 2062SOL    HW3 8279   2.412   3.923   3.434
 2062SOL    MW4 8280   2.484   3.890   3.397
 2063SOL     OW 8281   2.270   4.029   3.511
 2063SOL    HW2 8282   2.265   4.114   3.467
 2063SOL    HW3 8283   2.197   3.979   3.475
 2063SOL    MW4 8284   2.260   4.034   3.500
 2064SOL     OW 8285   2.274   4.286   3.405
 2064SOL    HW2 8286   2.201   4.335   3.442
 2064SOL    HW3 8287   2.249   4.273   3.313
 2064SOL    MW4 8288   2.261   4.291   3.397
 2065SOL     OW 8289   2.510   4.364   3.499
 2065SOL    HW2 8290   2.515   4.378   3.593
 2065SOL    HW3 8291   2.424   4.323   3.485
 2065SOL    MW4 8292   2.499   4.361   3.509
 2066SOL     OW 8293   2.901   0.001   3.404
 2066SOL    HW2 8294   2.834   0.054   3.447
 2066SOL    HW3 8295   2.877   0.003   3.311
 2066SOL    MW4 8296   2.889   0.008   3.397
 2067SOL     OW 8297   2.682   0.114   3.528
 2067SOL    HW2 8298   2.651   0.201   3.503
 2067SOL    HW3 8299   2.611   0.055   3.504
 2067SOL    MW4 8300   2.669   0.117   3.521
 2068SOL     OW 8301   2.638   0.364   3.407
 2068SOL    HW2 8302   2.718   0.384   3.454
 2068SOL    HW3 8303   2.664   0.360   3.315
 2068SOL    MW4 8304   2.652   0.366   3.401
 2069SOL     OW 8305   2.881   0.426   3.514
 2069SOL    HW2 8306   2.873   0.429   3.609
 2069SOL    HW3 8307   2.916   0.512   3.490
 2069SOL    MW4 8308   2.884   0.438   3.523
 2070SOL     OW 8309   2.929   0.695   3.433
 2070SOL    HW2 8310   2.984   0.763   3.471
 2070SOL    HW3 8311   2.840   0.725   3.448
 2070SOL    MW4 8312   2.925   0.708   3.440
 2071SOL     OW 8313   2.718   0.826   3.499
 2071SOL    HW2 8314   2.684   0.832   3.589
 2071SOL    HW3 8315   2.737   0.917   3.475
 2071SOL    MW4 8316   2.716   0.839   3.508
 2072SOL     OW 8317   2.689   1.095   3.423
 2072SOL    HW2 8318   2.757   1.140   3.473
 2072SOL    HW3 8319   2.719   1.100   3.332
 2072SOL    MW4 8320   2.702   1.101   3.417
 2073SOL     OW 8321   2.878   1.265   3.519
 2073SOL    HW2 8322   2.879   1.254   3.614
 2073SOL    HW3 8323   2.961   1.227   3.490
 2073SOL    MW4 8324   2.889   1.258   3.528
 2074SOL     OW 8325   2.939   1.503   3.398
 2074SOL    HW2 8326   2.863   1.559   3.414
 2074SOL    HW3 8327   2.929   1.430   3.459
 2074SOL    MW4 8328   2.928   1.501   3.408
 2075SOL     OW 8329   2.685   1.646   3.496
 2075SOL    HW2 8330   2.673   1.733   3.460
 2075SOL    HW3 8331   2.604   1.600   3.477
 2075SOL    MW4 8332   2.673   1.651   3.489
 2076SOL     OW 8333   2.690   1.900   3.402
 2076SOL    HW2 8334   2.617   1.947   3.445
 2076SOL    HW3 8335   2.688   1.932   3.312
 2076SOL    MW4 8336   2.680   1.911   3.396
 2077SOL     OW 8337   2.936   2.008   3.488
 2077SOL    HW2 8338   2.912   2.021   3.580
 2077SOL    HW3 8339   2.858   1.970   3.448
 2077SOL    MW4 8340   2.922   2.005   3.495
 2078SOL     OW 8341   2.939   2.284   3.413
 2078SOL    HW2 8342   2.941   2.193   3.445
 2078SOL    HW3 8343   2.935   2.276   3.318
 2078SOL    MW4 8344   2.939   2.271   3.405
 2079SOL     OW 8345   2.725   2.425   3.528
 2079SOL    HW2 8346   2.731   2.416   3.623
 2079SOL    HW3 8347   2.785   2.359   3.493
 2079SOL    MW4 8348   2.734   2.415   3.536
 2080SOL     OW 8349   2.701   2.665   3.375
 2080SOL    HW2 8350   2.706   2.584   3.427
 2080SOL    HW3 8351   2.622   2.709   3.407
 2080SOL    MW4 8352   2.691   2.660   3.386
 2081SOL     OW 8353   2.927   2.840   3.450
 2081SOL    HW2 8354   2.931   2.844   3.546
 2081SOL    HW3 8355   2.854   2.780   3.432
 2081SOL    MW4 8356   2.918   2.833   3.460
 2082SOL     OW 8357   2.958   3.106   3.387
 2082SOL    HW2 8358   2.965   3.013   3.408
 2082SOL    HW3 8359   2.957   3.109   3.291
 2082SOL    MW4 8360   2.959   3.094   3.377
 2083SOL     OW 8361   2.710   3.188   3.475
 2083SOL    HW2 8362   2.709   3.190   3.571
 2083SOL    HW3 8363   2.799   3.161   3.453
 2083SOL    MW4 8364   2.722   3.184   3.485
 2084SOL     OW 8365   2.686   3.458   3.399
 2084SOL    HW2 8366   2.657   3.372   3.430
 2084SOL    HW3 8367   2.617   3.518   3.429
 2084SOL    MW4 8368   2.673   3.455   3.407
 2085SOL     OW 8369   2.928   3.563   3.471
 2085SOL    HW2 8370   2.912   3.651   3.438
 2085SOL    HW3 8371   2.844   3.518   3.460
 2085SOL    MW4 8372   2.915   3.568   3.465
 2086SOL     OW 8373   2.937   3.828   3.387
 2086SOL    HW2 8374   3.010   3.889   3.397
 2086SOL    HW3 8375   2.862   3.874   3.425
 2086SOL    MW4 8376   2.937   3.842   3.394
 2087SOL     OW 8377   2.722   3.972   3.499
 2087SOL    HW2 8378   2.697   3.991   3.589
 2087SOL    HW3 8379   2.739   4.058   3.461
 2087SOL    MW4 8380   2.721   3.986   3.506
 2088SOL     OW 8381   2.735   4.232   3.410
 2088SOL    HW2 8382   2.807   4.290   3.437
 2088SOL    HW3 8383   2.657   4.272   3.448
 2088SOL    MW4 8384   2.735   4.245   3.419
 2089SOL     OW 8385   2.925   4.399   3.498
 2089SOL    HW2 8386   2.931   4.396   3.594
 2089SOL    HW3 8387   2.898   4.489   3.478
 2089SOL    MW4 8388   2.923   4.411   3.508
 2090SOL     OW 8389   3.378   0.015   3.412
 2090SOL    HW2 8390   3.292   0.037   3.449
 2090SOL    HW3 8391   3.360  -0.004   3.320
 2090SOL    MW4 8392   3.364   0.015   3.404
 2091SOL     OW 8393   3.139   0.092   3.530
 2091SOL    HW2 8394   3.152   0.185   3.510
 2091SOL    HW3 8395   3.051   0.073   3.497
 2091SOL    MW4 8396   3.129   0.102   3.523
 2092SOL     OW 8397   3.144   0.354   3.435
 2092SOL    HW2 8398   3.058   0.379   3.470
 2092SOL    HW3 8399   3.137   0.367   3.341
 2092SOL    MW4 8400   3.132   0.359   3.428
 2093SOL     OW 8401   3.363   0.500   3.516
 2093SOL    HW2 8402   3.356   0.499   3.611
 2093SOL    HW3 8403   3.283   0.457   3.485
 2093SOL    MW4 8404   3.351   0.494   3.524
 2094SOL     OW 8405   3.306   0.747   3.391
 2094SOL    HW2 8406   3.383   0.798   3.417
 2094SOL    HW3 8407   3.309   0.668   3.445
 2094SOL    MW4 8408   3.316   0.744   3.402
 2095SOL     OW 8409   3.123   0.895   3.527
 2095SOL    HW2 8410   3.120   0.981   3.485
 2095SOL    HW3 8411   3.201   0.853   3.490
 2095SOL    MW4 8412   3.133   0.901   3.517
 2096SOL     OW 8413   3.100   1.155   3.392
 2096SOL    HW2 8414   3.190   1.167   3.422
 2096SOL    HW3 8415   3.108   1.146   3.297
 2096SOL    MW4 8416   3.113   1.155   3.383
 2097SOL     OW 8417   3.337   1.239   3.520
 2097SOL    HW2 8418   3.419   1.190   3.523
 2097SOL    HW3 8419   3.359   1.321   3.476
 2097SOL    MW4 8420   3.351   1.243   3.514
 2098SOL     OW 8421   3.381   1.505   3.387
 2098SOL    HW2 8422   3.457   1.546   3.429
 2098SOL    HW3 8423   3.306   1.541   3.434
 2098SOL    MW4 8424   3.381   1.515   3.399
 2099SOL     OW 8425   3.159   1.628   3.520
 2099SOL    HW2 8426   3.164   1.721   3.496
 2099SOL    HW3 8427   3.084   1.594   3.471
 2099SOL    MW4 8428   3.149   1.636   3.511
 2100SOL     OW 8429   3.176   1.890   3.430
 2100SOL    HW2 8430   3.094   1.932   3.458
 2100SOL    HW3 8431   3.170   1.886   3.335
 2100SOL    MW4 8432   3.164   1.895   3.421
 2101SOL     OW 8433   3.367   2.055   3.547
 2101SOL    HW2 8434   3.373   2.132   3.491
 2101SOL    HW3 8435   3.300   2.000   3.506
 2101SOL    MW4 8436   3.359   2.058   3.535
 2102SOL     OW 8437   3.373   2.293   3.384
 2102SOL    HW2 8438   3.442   2.329   3.440
 2102SOL    HW3 8439   3.293   2.335   3.414
 2102SOL    MW4 8440   3.372   2.303   3.396
 2103SOL     OW 8441   3.148   2.420   3.510
 2103SOL    HW2 8442   3.137   2.511   3.480
 2103SOL    HW3 8443   3.064   2.379   3.490
 2103SOL    MW4 8444   3.136   2.427   3.503
 2104SOL     OW 8445   3.162   2.694   3.396
 2104SOL    HW2 8446   3.233   2.749   3.431
 2104SOL    HW3 8447   3.082   2.738   3.425
 2104SOL    MW4 8448   3.161   2.707   3.405
 2105SOL     OW 8449   3.362   2.859   3.513
 2105SOL    HW2 8450   3.434   2.809   3.475
 2105SOL    HW3 8451   3.371   2.947   3.476
 2105SOL    MW4 8452   3.372   2.864   3.503
 2106SOL     OW 8453   3.388   3.099   3.384
 2106SOL    HW2 8454   3.460   3.149   3.423
 2106SOL    HW3 8455   3.309   3.135   3.424
 2106SOL    MW4 8456   3.387   3.110   3.394
 2107SOL     OW 8457   3.180   3.213   3.522
 2107SOL    HW2 8458   3.196   3.307   3.512
 2107SOL    HW3 8459   3.100   3.196   3.473
 2107SOL    MW4 8460   3.172   3.223   3.514
 2108SOL     OW 8461   3.187   3.474   3.400
 2108SOL    HW2 8462   3.095   3.486   3.424
 2108SOL    HW3 8463   3.189   3.490   3.305
 2108SOL    MW4 8464   3.175   3.478   3.390
 2109SOL     OW 8465   3.385   3.622   3.504
 2109SOL    HW2 8466   3.380   3.711   3.469
 2109SOL    HW3 8467   3.302   3.582   3.477
 2109SOL    MW4 8468   3.373   3.628   3.496
 2110SOL     OW 8469   3.366   3.858   3.380
 2110SOL    HW2 8470   3.433   3.922   3.406
 2110SOL    HW3 8471   3.283   3.900   3.402
 2110SOL    MW4 8472   3.364   3.872   3.387
 2111SOL     OW 8473   3.142   3.999   3.447
 2111SOL    HW2 8474   3.123   4.001   3.541
 2111SOL    HW3 8475   3.150   4.091   3.422
 2111SOL    MW4 8476   3.140   4.011   3.456
 2112SOL     OW 8477   3.144   4.271   3.381
 2112SOL    HW2 8478   3.214   4.329   3.410
 2112SOL    HW3 8479   3.065   4.309   3.419
 2112SOL    MW4 8480   3.143   4.284   3.390
 2113SOL     OW 8481   3.365   4.407   3.480
 2113SOL    HW2 8482   3.343   4.403   3.573
 2113SOL    HW3 8483   3.375   4.500   3.462
 2113SOL    MW4 8484   3.363   4.418   3.490
 2114SOL     OW 8485   3.811   0.023   3.373
 2114SOL    HW2 8486   3.731   0.070   3.400
 2114SOL    HW3 8487   3.800   0.010   3.279
 2114SOL    MW4 8488   3.799   0.028   3.364
 2115SOL     OW 8489   3.601   0.144   3.527
 2115SOL    HW2 8490   3.598   0.233   3.491
 2115SOL    HW3 8491   3.519   0.104   3.496
 2115SOL    MW4 8492   3.590   0.150   3.518
 2116SOL     OW 8493   3.598   0.393   3.401
 2116SOL    HW2 8494   3.671   0.434   3.447
 2116SOL    HW3 8495   3.520   0.430   3.443
 2116SOL    MW4 8496   3.597   0.403   3.413
 2117SOL     OW 8497   3.818   0.522   3.491
 2117SOL    HW2 8498   3.811   0.519   3.586
 2117SOL    HW3 8499   3.898   0.473   3.471
 2117SOL    MW4 8500   3.828   0.515   3.501
 2118SOL     OW 8501   3.800   0.792   3.398
 2118SOL    HW2 8502   3.881   0.829   3.433
 2118SOL    HW3 8503   3.803   0.700   3.421
 2118SOL    MW4 8504   3.811   0.785   3.405
 2119SOL     OW 8505   3.543   0.846   3.493
 2119SOL    HW2 8506   3.559   0.858   3.587
 2119SOL    HW3 8507   3.628   0.820   3.458
 2119SOL    MW4 8508   3.557   0.844   3.501
 2120SOL     OW 8509   3.579   1.114   3.455
 2120SOL    HW2 8510   3.575   1.020   3.473
 2120SOL    HW3 8511   3.569   1.120   3.360
 2120SOL    MW4 8512   3.577   1.102   3.445
 2121SOL     OW 8513   3.813   1.256   3.524
 2121SOL    HW2 8514   3.820   1.247   3.620
 2121SOL    HW3 8515   3.732   1.211   3.501
 2121SOL    MW4 8516   3.803   1.249   3.534
 2122SOL     OW 8517   3.824   1.501   3.394
 2122SOL    HW2 8518   3.899   1.539   3.438
 2122SOL    HW3 8519   3.808   1.419   3.440
 2122SOL    MW4 8520   3.832   1.495   3.406
 2123SOL     OW 8521   3.601   1.633   3.486
 2123SOL    HW2 8522   3.609   1.717   3.441
 2123SOL    HW3 8523   3.682   1.586   3.466
 2123SOL    MW4 8524   3.613   1.638   3.478
 2124SOL     OW 8525   3.605   1.929   3.432
 2124SOL    HW2 8526   3.682   1.969   3.473
 2124SOL    HW3 8527   3.530   1.976   3.470
 2124SOL    MW4 8528   3.605   1.941   3.442
 2125SOL     OW 8529   3.826   2.093   3.526
 2125SOL    HW2 8530   3.840   2.099   3.621
 2125SOL    HW3 8531   3.899   2.039   3.495
 2125SOL    MW4 8532   3.838   2.087   3.535
 2126SOL     OW 8533   3.842   2.353   3.402
 2126SOL    HW2 8534   3.934   2.375   3.412
 2126SOL    HW3 8535   3.835   2.262   3.432
 2126SOL    MW4 8536   3.853   2.344   3.407
 2127SOL     OW 8537   3.610   2.459   3.502
 2127SOL    HW2 8538   3.598   2.542   3.456
 2127SOL    HW3 8539   3.688   2.420   3.462
 2127SOL    MW4 8540   3.619   2.465   3.491
 2128SOL     OW 8541   3.591   2.721   3.398
 2128SOL    HW2 8542   3.673   2.757   3.434
 2128SOL    HW3 8543   3.601   2.729   3.304
 2128SOL    MW4 8544   3.603   2.727   3.391
 2129SOL     OW 8545   3.827   2.823   3.475
 2129SOL    HW2 8546   3.829   2.835   3.570
 2129SOL    HW3 8547   3.818   2.911   3.440
 2129SOL    MW4 8548   3.826   2.836   3.483
 2130SOL     OW 8549   3.784   3.118   3.409
 2130SOL    HW2 8550   3.870   3.155   3.431
 2130SOL    HW3 8551   3.774   3.133   3.315
 2130SOL    MW4 8552   3.794   3.125   3.400
 2131SOL     OW 8553   3.587   3.273   3.514
 2131SOL    HW2 8554   3.592   3.351   3.460
 2131SOL    HW3 8555   3.660   3.218   3.484
 2131SOL    MW4 8556   3.597   3.276   3.503
 2132SOL     OW 8557   3.605   3.493   3.361
 2132SOL    HW2 8558   3.529   3.531   3.406
 2132SOL    HW3 8559   3.596   3.522   3.270
 2132SOL    MW4 8560   3.593   3.502   3.355
 2133SOL     OW 8561   3.799   3.655   3.494
 2133SOL    HW2 8562   3.784   3.645   3.588
 2133SOL    HW3 8563   3.737   3.595   3.454
 2133SOL    MW4 8564   3.789   3.646   3.501
 2134SOL     OW 8565   3.855   3.895   3.391
 2134SOL    HW2 8566   3.773   3.943   3.406
 2134SOL    HW3 8567   3.838   3.807   3.425
 2134SOL    MW4 8568   3.842   3.890   3.398
 2135SOL     OW 8569   3.596   4.002   3.435
 2135SOL    HW2 8570   3.585   3.984   3.528
 2135SOL    HW3 8571   3.605   4.097   3.430
 2135SOL    MW4 8572   3.596   4.012   3.447
 2136SOL     OW 8573   3.601   4.282   3.430
 2136SOL    HW2 8574   3.513   4.311   3.455
 2136SOL    HW3 8575   3.600   4.280   3.335
 2136SOL    MW4 8576   3.589   4.286   3.421
 2137SOL     OW 8577   3.826   4.431   3.500
 2137SOL    HW2 8578   3.750   4.376   3.482
 2137SOL    HW3 8579   3.815   4.507   3.443
 2137SOL    MW4 8580   3.814   4.434   3.490
 2138SOL     OW 8581   4.244   0.025   3.379
 2138SOL    HW2 8582   4.258  -0.063   3.414
 2138SOL    HW3 8583   4.322   0.074   3.405
 2138SOL    MW4 8584   4.256   0.020   3.387
 2139SOL     OW 8585   4.032   0.133   3.503
 2139SOL    HW2 8586   4.099   0.084   3.455
 2139SOL    HW3 8587   3.950   0.086   3.483
 2139SOL    MW4 8588   4.030   0.120   3.494
 2140SOL     OW 8589   4.030   0.382   3.396
 2140SOL    HW2 8590   4.039   0.293   3.431
 2140SOL    HW3 8591   4.027   0.370   3.301
 2140SOL    MW4 8592   4.031   0.368   3.388
 2141SOL     OW 8593   4.264   0.512   3.497
 2141SOL    HW2 8594   4.270   0.601   3.463
 2141SOL    HW3 8595   4.184   0.476   3.458
 2141SOL    MW4 8596   4.254   0.519   3.487
 2142SOL     OW 8597   4.263   0.766   3.397
 2142SOL    HW2 8598   4.342   0.811   3.428
 2142SOL    HW3 8599   4.264   0.777   3.302
 2142SOL    MW4 8600   4.273   0.773   3.389
 2143SOL     OW 8601   4.025   0.888   3.498
 2143SOL    HW2 8602   4.037   0.973   3.456
 2143SOL    HW3 8603   4.106   0.841   3.482
 2143SOL    MW4 8604   4.037   0.893   3.490
 2144SOL     OW 8605   4.051   1.158   3.410
 2144SOL    HW2 8606   4.126   1.208   3.443
 2144SOL    HW3 8607   3.975   1.207   3.439
 2144SOL    MW4 8608   4.051   1.171   3.418
 2145SOL     OW 8609   4.272   1.286   3.505
 2145SOL    HW2 8610   4.279   1.376   3.474
 2145SOL    HW3 8611   4.353   1.244   3.474
 2145SOL    MW4 8612   4.284   1.292   3.497
 2146SOL     OW 8613   4.298   1.540   3.405
 2146SOL    HW2 8614   4.216   1.584   3.429
 2146SOL    HW3 8615   4.298   1.540   3.309
 2146SOL    MW4 8616   4.287   1.546   3.395
 2147SOL     OW 8617   4.054   1.651   3.500
 2147SOL    HW2 8618   4.070   1.655   3.595
 2147SOL    HW3 8619   4.037   1.742   3.476
 2147SOL    MW4 8620   4.054   1.664   3.510
 2148SOL     OW 8621   4.013   1.923   3.421
 2148SOL    HW2 8622   4.098   1.965   3.438
 2148SOL    HW3 8623   4.013   1.907   3.326
 2148SOL    MW4 8624   4.024   1.926   3.410
 2149SOL     OW 8625   4.259   2.051   3.461
 2149SOL    HW2 8626   4.313   2.129   3.446
 2149SOL    HW3 8627   4.322   1.980   3.468
 2149SOL    MW4 8628   4.275   2.052   3.460
 2150SOL     OW 8629   4.321   2.314   3.352
 2150SOL    HW2 8630   4.242   2.359   3.383
 2150SOL    HW3 8631   4.298   2.283   3.264
 2150SOL    MW4 8632   4.307   2.316   3.344
 2151SOL     OW 8633   4.111   2.450   3.480
 2151SOL    HW2 8634   4.080   2.446   3.570
 2151SOL    HW3 8635   4.083   2.536   3.449
 2151SOL    MW4 8636   4.103   2.461   3.488
 2152SOL     OW 8637   4.043   2.697   3.392
 2152SOL    HW2 8638   4.107   2.762   3.418
 2152SOL    HW3 8639   3.961   2.727   3.432
 2152SOL    MW4 8640   4.040   2.710   3.400
 2153SOL     OW 8641   4.236   2.897   3.479
 2153SOL    HW2 8642   4.240   2.891   3.575
 2153SOL    HW3 8643   4.320   2.861   3.450
 2153SOL    MW4 8644   4.247   2.891   3.488
 2154SOL     OW 8645   4.276   3.152   3.369
 2154SOL    HW2 8646   4.255   3.064   3.399
 2154SOL    HW3 8647   4.269   3.148   3.274
 2154SOL    MW4 8648   4.272   3.140   3.360
 2155SOL     OW 8649   4.016   3.243   3.457
 2155SOL    HW2 8650   3.995   3.329   3.419
 2155SOL    HW3 8651   4.100   3.219   3.418
 2155SOL    MW4 8652   4.025   3.251   3.447
 2156SOL     OW 8653   4.008   3.494   3.365
 2156SOL    HW2 8654   4.091   3.531   3.396
 2156SOL    HW3 8655   3.941   3.551   3.403
 2156SOL    MW4 8656   4.010   3.507   3.374
 2157SOL     OW 8657   4.236   3.610   3.486
 2157SOL    HW2 8658   4.224   3.605   3.581
 2157SOL    HW3 8659   4.250   3.703   3.469
 2157SOL    MW4 8660   4.237   3.622   3.497
 2158SOL     OW 8661   4.254   3.878   3.389
 2158SOL    HW2 8662   4.337   3.924   3.401
 2158SOL    HW3 8663   4.242   3.874   3.294
 2158SOL    MW4 8664   4.263   3.883   3.378
 2159SOL     OW 8665   4.067   4.061   3.490
 2159SOL    HW2 8666   4.141   4.003   3.471
 2159SOL    HW3 8667   3.990   4.011   3.465
 2159SOL    MW4 8668   4.067   4.047   3.484
 2160SOL     OW 8669   4.058   4.306   3.380
 2160SOL    HW2 8670   4.066   4.221   3.422
 2160SOL    HW3 8671   3.984   4.348   3.424
 2160SOL    MW4 8672   4.049   4.301   3.392
 2161SOL     OW 8673   4.298   4.445   3.476
 2161SOL    HW2 8674   4.305   4.421   3.569
 2161SOL    HW3 8675   4.214   4.407   3.448
 2161SOL    MW4 8676   4.288   4.437   3.485
 2162SOL     OW 8677   0.218   4.626   3.830
 2162SOL    HW2 8678   0.210   4.630   3.925
 2162SOL    HW3 8679   0.147   4.680   3.797
 2162SOL    MW4 8680   0.207   4.633   3.838
 2163SOL     OW 8681   0.005   0.133   3.769
 2163SOL    HW2 8682  -0.025   0.218   3.800
 2163SOL    HW3 8683  -0.008   0.135   3.674
 2163SOL    MW4 8684  -0.001   0.144   3.761
 2164SOL     OW 8685   4.443   0.358   3.914
 2164SOL    HW2 8686   4.375   0.410   3.870
 2164SOL    HW3 8687   4.526   0.402   3.891
 2164SOL    MW4 8688   4.445   0.370   3.905
 2165SOL     OW 8689   0.183   0.487   3.831
 2165SOL    HW2 8690   0.194   0.578   3.859
 2165SOL    HW3 8691   0.181   0.492   3.735
 2165SOL    MW4 8692   0.184   0.500   3.822
 2166SOL     OW 8693   0.245   0.767   3.887
 2166SOL    HW2 8694   0.221   0.769   3.980
 2166SOL    HW3 8695   0.172   0.812   3.843
 2166SOL    MW4 8696   0.232   0.773   3.893
 2167SOL     OW 8697   0.027   0.873   3.769
 2167SOL    HW2 8698  -0.052   0.840   3.811
 2167SOL    HW3 8699   0.024   0.967   3.784
 2167SOL    MW4 8700   0.016   0.881   3.776
 2168SOL     OW 8701   0.011   1.149   3.873
 2168SOL    HW2 8702  -0.066   1.190   3.832
 2168SOL    HW3 8703   0.084   1.204   3.845
 2168SOL    MW4 8704   0.010   1.162   3.864
 2169SOL     OW 8705   0.254   1.298   3.802
 2169SOL    HW2 8706   0.243   1.389   3.832
 2169SOL    HW3 8707   0.242   1.303   3.708
 2169SOL    MW4 8708   0.251   1.311   3.794
 2170SOL     OW 8709   0.216   1.548   3.880
 2170SOL    HW2 8710   0.212   1.542   3.976
 2170SOL    HW3 8711   0.130   1.580   3.854
 2170SOL    MW4 8712   0.204   1.551   3.889
 2171SOL     OW 8713   4.481   1.658   3.772
 2171SOL    HW2 8714   4.483   1.751   3.797
 2171SOL    HW3 8715   4.498   1.659   3.678
 2171SOL    MW4 8716   4.483   1.670   3.763
 2172SOL     OW 8717   0.001   1.929   3.882
 2172SOL    HW2 8718  -0.005   1.929   3.978
 2172SOL    HW3 8719  -0.082   1.968   3.853
 2172SOL    MW4 8720  -0.011   1.934   3.891
 2173SOL     OW 8721   0.240   2.035   3.793
 2173SOL    HW2 8722   0.221   2.127   3.815
 2173SOL    HW3 8723   0.159   1.988   3.815
 2173SOL    MW4 8724   0.227   2.041   3.799
 2174SOL     OW 8725   0.217   2.306   3.882
 2174SOL    HW2 8726   0.197   2.306   3.976
 2174SOL    HW3 8727   0.152   2.365   3.844
 2174SOL    MW4 8728   0.206   2.314   3.889
 2175SOL     OW 8729   4.484   2.467   3.766
 2175SOL    HW2 8730   4.407   2.421   3.799
 2175SOL    HW3 8731   4.466   2.560   3.782
 2175SOL    MW4 8732   4.472   2.473   3.773
 2176SOL     OW 8733   4.453   2.735   3.855
 2176SOL    HW2 8734   4.432   2.732   3.949
 2176SOL    HW3 8735   4.544   2.764   3.852
 2176SOL    MW4 8736   4.462   2.738   3.867
 2177SOL     OW 8737   0.228   2.843   3.795
 2177SOL    HW2 8738   0.294   2.791   3.841
 2177SOL    HW3 8739   0.258   2.845   3.704
 2177SOL    MW4 8740   0.241   2.837   3.789
 2178SOL     OW 8741   0.214   3.111   3.857
 2178SOL    HW2 8742   0.199   3.125   3.950
 2178SOL    HW3 8743   0.206   3.017   3.844
 2178SOL    MW4 8744   0.211   3.101   3.867
 2179SOL     OW 8745   4.448   3.211   3.753
 2179SOL    HW2 8746   4.529   3.181   3.794
 2179SOL    HW3 8747   4.471   3.227   3.662
 2179SOL    MW4 8748   4.461   3.209   3.747
 2180SOL     OW 8749   4.457   3.475   3.844
 2180SOL    HW2 8750   4.533   3.522   3.808
 2180SOL    HW3 8751   4.458   3.390   3.800
 2180SOL    MW4 8752   4.467   3.470   3.834
 2181SOL     OW 8753   0.194   3.599   3.769
 2181SOL    HW2 8754   0.277   3.557   3.794
 2181SOL    HW3 8755   0.199   3.686   3.807
 2181SOL    MW4 8756   0.206   3.605   3.777
 2182SOL     OW 8757   0.225   3.861   3.900
 2182SOL    HW2 8758   0.232   3.885   3.992
 2182SOL    HW3 8759   0.293   3.912   3.857
 2182SOL    MW4 8760   0.235   3.871   3.906
 2183SOL     OW 8761   0.019   4.001   3.771
 2183SOL    HW2 8762  -0.067   3.963   3.793
 2183SOL    HW3 8763   0.082   3.949   3.821
 2183SOL    MW4 8764   0.016   3.989   3.781
 2184SOL     OW 8765   0.014   4.258   3.878
 2184SOL    HW2 8766   0.092   4.305   3.849
 2184SOL    HW3 8767   0.020   4.172   3.835
 2184SOL    MW4 8768   0.025   4.252   3.868
 2185SOL     OW 8769   0.240   4.352   3.760
 2185SOL    HW2 8770   0.305   4.300   3.809
 2185SOL    HW3 8771   0.252   4.441   3.793
 2185SOL    MW4 8772   0.250   4.356   3.771
 2186SOL     OW 8773   0.679   4.660   3.906
 2186SOL    HW2 8774   0.679   4.567   3.887
 2186SOL    HW3 8775   0.610   4.696   3.851
 2186SOL    MW4 8776   0.670   4.653   3.896
 2187SOL     OW 8777   0.450   0.088   3.802
 2187SOL    HW2 8778   0.432   0.171   3.846
 2187SOL    HW3 8779   0.370   0.037   3.814
 2187SOL    MW4 8780   0.437   0.092   3.809
 2188SOL     OW 8781   0.426   0.368   3.897
 2188SOL    HW2 8782   0.501   0.424   3.876
 2188SOL    HW3 8783   0.352   0.412   3.857
 2188SOL    MW4 8784   0.426   0.381   3.889
 2189SOL     OW 8785   0.673   0.512   3.837
 2189SOL    HW2 8786   0.749   0.466   3.873
 2189SOL    HW3 8787   0.677   0.599   3.877
 2189SOL    MW4 8788   0.684   0.517   3.847
 2190SOL     OW 8789   0.673   0.780   3.917
 2190SOL    HW2 8790   0.742   0.797   3.853
 2190SOL    HW3 8791   0.592   0.810   3.874
 2190SOL    MW4 8792   0.671   0.786   3.903
 2191SOL     OW 8793   0.471   0.904   3.765
 2191SOL    HW2 8794   0.472   0.995   3.796
 2191SOL    HW3 8795   0.407   0.860   3.821
 2191SOL    MW4 8796   0.463   0.911   3.776
 2192SOL     OW 8797   0.461   1.158   3.894
 2192SOL    HW2 8798   0.540   1.199   3.859
 2192SOL    HW3 8799   0.389   1.210   3.858
 2192SOL    MW4 8800   0.462   1.170   3.884
 2193SOL     OW 8801   0.697   1.288   3.772
 2193SOL    HW2 8802   0.775   1.246   3.809
 2193SOL    HW3 8803   0.706   1.276   3.678
 2193SOL    MW4 8804   0.709   1.281   3.764
 2194SOL     OW 8805   0.632   1.529   3.889
 2194SOL    HW2 8806   0.716   1.575   3.886
 2194SOL    HW3 8807   0.647   1.450   3.837
 2194SOL    MW4 8808   0.645   1.525   3.882
 2195SOL     OW 8809   0.433   1.675   3.767
 2195SOL    HW2 8810   0.499   1.618   3.808
 2195SOL    HW3 8811   0.350   1.646   3.804
 2195SOL    MW4 8812   0.431   1.663   3.777
 2196SOL     OW 8813   0.440   1.889   3.925
 2196SOL    HW2 8814   0.434   1.811   3.870
 2196SOL    HW3 8815   0.370   1.946   3.893
 2196SOL    MW4 8816   0.430   1.887   3.914
 2197SOL     OW 8817   0.675   1.997   3.844
 2197SOL    HW2 8818   0.664   2.091   3.860
 2197SOL    HW3 8819   0.593   1.958   3.874
 2197SOL    MW4 8820   0.663   2.004   3.850
 2198SOL     OW 8821   0.640   2.301   3.869
 2198SOL    HW2 8822   0.705   2.368   3.844
 2198SOL    HW3 8823   0.557   2.336   3.837
 2198SOL    MW4 8824   0.638   2.315   3.862
 2199SOL     OW 8825   0.436   2.437   3.762
 2199SOL    HW2 8826   0.364   2.378   3.786
 2199SOL    HW3 8827   0.429   2.446   3.667
 2199SOL    MW4 8828   0.426   2.430   3.753
 2200SOL     OW 8829   0.435   2.696   3.904
 2200SOL    HW2 8830   0.517   2.738   3.878
 2200SOL    HW3 8831   0.436   2.611   3.859
 2200SOL    MW4 8832   0.446   2.690   3.895
 2201SOL     OW 8833   0.653   2.829   3.804
 2201SOL    HW2 8834   0.731   2.779   3.828
 2201SOL    HW3 8835   0.658   2.837   3.709
 2201SOL    MW4 8836   0.664   2.823   3.795
 2202SOL     OW 8837   0.691   3.098   3.897
 2202SOL    HW2 8838   0.678   3.120   3.989
 2202SOL    HW3 8839   0.670   3.005   3.890
 2202SOL    MW4 8840   0.687   3.089   3.908
 2203SOL     OW 8841   0.465   3.215   3.783
 2203SOL    HW2 8842   0.539   3.167   3.821
 2203SOL    HW3 8843   0.389   3.159   3.799
 2203SOL    MW4 8844   0.465   3.201   3.790
 2204SOL     OW 8845   0.426   3.480   3.841
 2204SOL    HW2 8846   0.516   3.503   3.817
 2204SOL    HW3 8847   0.420   3.386   3.824
 2204SOL    MW4 8848   0.437   3.471   3.835
 2205SOL     OW 8849   0.673   3.579   3.794
 2205SOL    HW2 8850   0.665   3.668   3.827
 2205SOL    HW3 8851   0.670   3.588   3.699
 2205SOL    MW4 8852   0.671   3.592   3.786
 2206SOL     OW 8853   0.650   3.840   3.892
 2206SOL    HW2 8854   0.653   3.844   3.988
 2206SOL    HW3 8855   0.727   3.890   3.864
 2206SOL    MW4 8856   0.661   3.847   3.901
 2207SOL     OW 8857   0.436   3.996   3.787
 2207SOL    HW2 8858   0.508   3.943   3.821
 2207SOL    HW3 8859   0.454   4.004   3.693
 2207SOL    MW4 8860   0.448   3.990   3.779
 2208SOL     OW 8861   0.453   4.243   3.899
 2208SOL    HW2 8862   0.528   4.295   3.871
 2208SOL    HW3 8863   0.461   4.161   3.850
 2208SOL    MW4 8864   0.464   4.239   3.889
 2209SOL     OW 8865   0.673   4.391   3.806
 2209SOL    HW2 8866   0.757   4.352   3.829
 2209SOL    HW3 8867   0.676   4.399   3.710
 2209SOL    MW4 8868   0.685   4.387   3.796
 2210SOL     OW 8869   1.144   4.652   3.850
 2210SOL    HW2 8870   1.205   4.691   3.788
 2210SOL    HW3 8871   1.132   4.562   3.820
 2210SOL    MW4 8872   1.150   4.646   3.838
 2211SOL     OW 8873   0.883   0.114   3.764
 2211SOL    HW2 8874   0.967   0.077   3.793
 2211SOL    HW3 8875   0.817   0.065   3.812
 2211SOL    MW4 8876   0.886   0.103   3.774
 2212SOL     OW 8877   0.888   0.354   3.916
 2212SOL    HW2 8878   0.876   0.330   4.008
 2212SOL    HW3 8879   0.883   0.270   3.869
 2212SOL    MW4 8880   0.885   0.339   3.921
 2213SOL     OW 8881   1.098   0.467   3.794
 2213SOL    HW2 8882   1.176   0.423   3.828
 2213SOL    HW3 8883   1.025   0.427   3.841
 2213SOL    MW4 8884   1.099   0.456   3.804
 2214SOL     OW 8885   1.152   0.727   3.868
 2214SOL    HW2 8886   1.150   0.730   3.964
 2214SOL    HW3 8887   1.124   0.638   3.847
 2214SOL    MW4 8888   1.148   0.716   3.878
 2215SOL     OW 8889   0.899   0.864   3.765
 2215SOL    HW2 8890   0.975   0.815   3.797
 2215SOL    HW3 8891   0.920   0.884   3.674
 2215SOL    MW4 8892   0.912   0.860   3.757
 2216SOL     OW 8893   0.911   1.128   3.858
 2216SOL    HW2 8894   0.900   1.127   3.954
 2216SOL    HW3 8895   0.929   1.037   3.835
 2216SOL    MW4 8896   0.912   1.116   3.868
 2217SOL     OW 8897   1.112   1.281   3.768
 2217SOL    HW2 8898   1.098   1.370   3.800
 2217SOL    HW3 8899   1.038   1.231   3.803
 2217SOL    MW4 8900   1.100   1.286   3.777
 2218SOL     OW 8901   1.130   1.521   3.897
 2218SOL    HW2 8902   1.148   1.535   3.990
 2218SOL    HW3 8903   1.205   1.559   3.851
 2218SOL    MW4 8904   1.142   1.528   3.903
 2219SOL     OW 8905   0.881   1.642   3.833
 2219SOL    HW2 8906   0.962   1.593   3.851
 2219SOL    HW3 8907   0.888   1.666   3.741
 2219SOL    MW4 8908   0.893   1.639   3.823
 2220SOL     OW 8909   0.913   1.904   3.935
 2220SOL    HW2 8910   0.904   1.814   3.906
 2220SOL    HW3 8911   0.833   1.947   3.904
 2220SOL    MW4 8912   0.901   1.898   3.927
 2221SOL     OW 8913   1.092   2.051   3.771
 2221SOL    HW2 8914   1.020   1.997   3.802
 2221SOL    HW3 8915   1.085   2.050   3.676
 2221SOL    MW4 8916   1.082   2.044   3.763
 2222SOL     OW 8917   1.104   2.327   3.854
 2222SOL    HW2 8918   1.103   2.317   3.949
 2222SOL    HW3 8919   1.111   2.238   3.820
 2222SOL    MW4 8920   1.105   2.314   3.862
 2223SOL     OW 8921   0.863   2.435   3.762
 2223SOL    HW2 8922   0.883   2.528   3.771
 2223SOL    HW3 8923   0.943   2.390   3.791
 2223SOL    MW4 8924   0.876   2.441   3.767
 2224SOL     OW 8925   0.889   2.704   3.861
 2224SOL    HW2 8926   0.903   2.698   3.955
 2224SOL    HW3 8927   0.965   2.752   3.829
 2224SOL    MW4 8928   0.901   2.709   3.869
 2225SOL     OW 8929   1.145   2.831   3.772
 2225SOL    HW2 8930   1.221   2.799   3.820
 2225SOL    HW3 8931   1.135   2.922   3.800
 2225SOL    MW4 8932   1.154   2.839   3.782
 2226SOL     OW 8933   1.126   3.092   3.870
 2226SOL    HW2 8934   1.206   3.134   3.837
 2226SOL    HW3 8935   1.055   3.139   3.827
 2226SOL    MW4 8936   1.127   3.104   3.860
 2227SOL     OW 8937   0.905   3.205   3.759
 2227SOL    HW2 8938   0.822   3.169   3.790
 2227SOL    HW3 8939   0.895   3.208   3.664
 2227SOL    MW4 8940   0.893   3.201   3.750
 2228SOL     OW 8941   0.879   3.429   3.943
 2228SOL    HW2 8942   0.899   3.354   3.888
 2228SOL    HW3 8943   0.798   3.465   3.907
 2228SOL    MW4 8944   0.871   3.424   3.931
 2229SOL     OW 8945   1.059   3.572   3.800
 2229SOL    HW2 8946   1.067   3.660   3.836
 2229SOL    HW3 8947   0.990   3.531   3.853
 2229SOL    MW4 8948   1.051   3.578   3.812
 2230SOL     OW 8949   1.102   3.844   3.880
 2230SOL    HW2 8950   1.101   3.844   3.975
 2230SOL    HW3 8951   1.185   3.885   3.856
 2230SOL    MW4 8952   1.113   3.849   3.889
 2231SOL     OW 8953   0.875   3.995   3.817
 2231SOL    HW2 8954   0.955   3.954   3.849
 2231SOL    HW3 8955   0.878   3.984   3.722
 2231SOL    MW4 8956   0.886   3.988   3.809
 2232SOL     OW 8957   0.899   4.255   3.898
 2232SOL    HW2 8958   0.906   4.244   3.993
 2232SOL    HW3 8959   0.881   4.167   3.864
 2232SOL    MW4 8960   0.897   4.242   3.906
 2233SOL     OW 8961   1.116   4.388   3.786
 2233SOL    HW2 8962   1.050   4.335   3.831
 2233SOL    HW3 8963   1.111   4.359   3.695
 2233SOL    MW4 8964   1.107   4.377   3.780
 2234SOL     OW 8965   1.548   0.003   3.833
 2234SOL    HW2 8966   1.550   0.026   3.926
 2234SOL    HW3 8967   1.555  -0.092   3.832
 2234SOL    MW4 8968   1.549  -0.006   3.845
 2235SOL     OW 8969   1.338   0.131   3.715
 2235SOL    HW2 8970   1.333   0.218   3.756
 2235SOL    HW3 8971   1.397   0.082   3.771
 2235SOL    MW4 8972   1.345   0.136   3.728
 2236SOL     OW 8973   1.342   0.360   3.873
 2236SOL    HW2 8974   1.344   0.354   3.968
 2236SOL    HW3 8975   1.413   0.421   3.852
 2236SOL    MW4 8976   1.351   0.368   3.883
 2237SOL     OW 8977   1.554   0.516   3.766
 2237SOL    HW2 8978   1.627   0.472   3.809
 2237SOL    HW3 8979   1.557   0.606   3.799
 2237SOL    MW4 8980   1.564   0.522   3.776
 2238SOL     OW 8981   1.577   0.792   3.831
 2238SOL    HW2 8982   1.648   0.839   3.787
 2238SOL    HW3 8983   1.498   0.840   3.806
 2238SOL    MW4 8984   1.576   0.805   3.822
 2239SOL     OW 8985   1.340   0.910   3.769
 2239SOL    HW2 8986   1.321   0.989   3.819
 2239SOL    HW3 8987   1.281   0.844   3.806
 2239SOL    MW4 8988   1.330   0.912   3.781
 2240SOL     OW 8989   1.341   1.164   3.884
 2240SOL    HW2 8990   1.415   1.209   3.844
 2240SOL    HW3 8991   1.264   1.200   3.840
 2240SOL    MW4 8992   1.341   1.174   3.873
 2241SOL     OW 8993   1.568   1.270   3.762
 2241SOL    HW2 8994   1.630   1.212   3.806
 2241SOL    HW3 8995   1.587   1.357   3.797
 2241SOL    MW4 8996   1.578   1.274   3.773
 2242SOL     OW 8997   1.588   1.510   3.862
 2242SOL    HW2 8998   1.575   1.524   3.956
 2242SOL    HW3 8999   1.669   1.557   3.842
 2242SOL    MW4 9000   1.597   1.518   3.872
 2243SOL     OW 9001   1.349   1.603   3.724
 2243SOL    HW2 9002   1.349   1.695   3.751
 2243SOL    HW3 9003   1.411   1.561   3.782
 2243SOL    MW4 9004   1.357   1.609   3.735
 2244SOL     OW 9005   1.314   1.876   3.825
 2244SOL    HW2 9006   1.301   1.883   3.919
 2244SOL    HW3 9007   1.236   1.917   3.787
 2244SOL    MW4 9008   1.302   1.882   3.832
 2245SOL     OW 9009   1.527   2.051   3.783
 2245SOL    HW2 9010   1.443   2.007   3.796
 2245SOL    HW3 9011   1.532   2.065   3.689
 2245SOL    MW4 9012   1.517   2.047   3.772
 2246SOL     OW 9013   1.527   2.295   3.879
 2246SOL    HW2 9014   1.607   2.329   3.838
 2246SOL    HW3 9015   1.533   2.200   3.866
 2246SOL    MW4 9016   1.539   2.287   3.872
 2247SOL     OW 9017   1.342   2.465   3.806
 2247SOL    HW2 9018   1.403   2.392   3.815
 2247SOL    HW3 9019   1.259   2.432   3.839
 2247SOL    MW4 9020   1.339   2.451   3.812
 2248SOL     OW 9021   1.382   2.727   3.883
 2248SOL    HW2 9022   1.390   2.735   3.978
 2248SOL    HW3 9023   1.374   2.633   3.867
 2248SOL    MW4 9024   1.382   2.716   3.894
 2249SOL     OW 9025   1.620   2.862   3.758
 2249SOL    HW2 9026   1.550   2.822   3.809
 2249SOL    HW3 9027   1.595   2.850   3.667
 2249SOL    MW4 9028   1.608   2.855   3.753
 2250SOL     OW 9029   1.604   3.119   3.858
 2250SOL    HW2 9030   1.615   3.098   3.950
 2250SOL    HW3 9031   1.605   3.035   3.813
 2250SOL    MW4 9032   1.605   3.105   3.864
 2251SOL     OW 9033   1.353   3.210   3.795
 2251SOL    HW2 9034   1.341   3.295   3.837
 2251SOL    HW3 9035   1.430   3.173   3.837
 2251SOL    MW4 9036   1.362   3.216   3.806
 2252SOL     OW 9037   1.326   3.481   3.890
 2252SOL    HW2 9038   1.393   3.523   3.837
 2252SOL    HW3 9039   1.243   3.515   3.856
 2252SOL    MW4 9040   1.324   3.491   3.879
 2253SOL     OW 9041   1.564   3.595   3.775
 2253SOL    HW2 9042   1.639   3.548   3.810
 2253SOL    HW3 9043   1.564   3.679   3.821
 2253SOL    MW4 9044   1.574   3.600   3.785
 2254SOL     OW 9045   1.559   3.848   3.910
 2254SOL    HW2 9046   1.554   3.843   4.005
 2254SOL    HW3 9047   1.483   3.900   3.884
 2254SOL    MW4 9048   1.548   3.854   3.919
 2255SOL     OW 9049   1.335   3.988   3.791
 2255SOL    HW2 9050   1.343   4.080   3.819
 2255SOL    HW3 9051   1.325   3.993   3.696
 2255SOL    MW4 9052   1.335   4.001   3.782
 2256SOL     OW 9053   1.332   4.252   3.890
 2256SOL    HW2 9054   1.401   4.318   3.890
 2256SOL    HW3 9055   1.258   4.295   3.847
 2256SOL    MW4 9056   1.331   4.267   3.884
 2257SOL     OW 9057   1.566   4.393   3.816
 2257SOL    HW2 9058   1.638   4.344   3.854
 2257SOL    HW3 9059   1.580   4.387   3.721
 2257SOL    MW4 9060   1.578   4.386   3.808
 2258SOL     OW 9061   1.961   0.001   3.901
 2258SOL    HW2 9062   2.039   0.054   3.885
 2258SOL    HW3 9063   1.977  -0.081   3.856
 2258SOL    MW4 9064   1.973  -0.003   3.893
 2259SOL     OW 9065   1.778   0.134   3.754
 2259SOL    HW2 9066   1.841   0.082   3.803
 2259SOL    HW3 9067   1.694   0.093   3.772
 2259SOL    MW4 9068   1.776   0.122   3.763
 2260SOL     OW 9069   1.760   0.386   3.898
 2260SOL    HW2 9070   1.778   0.376   3.991
 2260SOL    HW3 9071   1.761   0.297   3.863
 2260SOL    MW4 9072   1.763   0.373   3.905
 2261SOL     OW 9073   1.982   0.476   3.771
 2261SOL    HW2 9074   1.899   0.438   3.800
 2261SOL    HW3 9075   1.982   0.465   3.676
 2261SOL    MW4 9076   1.971   0.469   3.762
 2262SOL     OW 9077   2.032   0.742   3.836
 2262SOL    HW2 9078   2.008   0.753   3.928
 2262SOL    HW3 9079   2.017   0.649   3.819
 2262SOL    MW4 9080   2.027   0.731   3.846
 2263SOL     OW 9081   1.815   0.907   3.755
 2263SOL    HW2 9082   1.884   0.844   3.774
 2263SOL    HW3 9083   1.792   0.891   3.664
 2263SOL    MW4 9084   1.822   0.897   3.746
 2264SOL     OW 9085   1.751   1.130   3.914
 2264SOL    HW2 9086   1.748   1.120   4.009
 2264SOL    HW3 9087   1.793   1.049   3.883
 2264SOL    MW4 9088   1.756   1.118   3.922
 2265SOL     OW 9089   1.994   1.295   3.815
 2265SOL    HW2 9090   2.066   1.236   3.839
 2265SOL    HW3 9091   1.920   1.263   3.866
 2265SOL    MW4 9092   1.994   1.283   3.825
 2266SOL     OW 9093   2.010   1.559   3.933
 2266SOL    HW2 9094   1.949   1.603   3.875
 2266SOL    HW3 9095   2.011   1.468   3.903
 2266SOL    MW4 9096   2.002   1.553   3.922
 2267SOL     OW 9097   1.800   1.662   3.786
 2267SOL    HW2 9098   1.772   1.751   3.806
 2267SOL    HW3 9099   1.802   1.658   3.691
 2267SOL    MW4 9100   1.797   1.673   3.776
 2268SOL     OW 9101   1.754   1.927   3.856
 2268SOL    HW2 9102   1.760   1.914   3.951
 2268SOL    HW3 9103   1.668   1.965   3.842
 2268SOL    MW4 9104   1.743   1.930   3.867
 2269SOL     OW 9105   1.986   2.065   3.839
 2269SOL    HW2 9106   1.901   2.023   3.852
 2269SOL    HW3 9107   2.001   2.061   3.745
 2269SOL    MW4 9108   1.977   2.059   3.828
 2270SOL     OW 9109   2.040   2.338   3.908
 2270SOL    HW2 9110   1.956   2.383   3.906
 2270SOL    HW3 9111   2.018   2.245   3.902
 2270SOL    MW4 9112   2.026   2.332   3.907
 2271SOL     OW 9113   1.777   2.419   3.815
 2271SOL    HW2 9114   1.776   2.509   3.846
 2271SOL    HW3 9115   1.815   2.424   3.727
 2271SOL    MW4 9116   1.782   2.431   3.807
 2272SOL     OW 9117   1.804   2.694   3.904
 2272SOL    HW2 9118   1.806   2.720   3.995
 2272SOL    HW3 9119   1.738   2.751   3.864
 2272SOL    MW4 9120   1.795   2.705   3.910
 2273SOL     OW 9121   2.028   2.836   3.777
 2273SOL    HW2 9122   2.097   2.777   3.805
 2273SOL    HW3 9123   1.948   2.799   3.815
 2273SOL    MW4 9124   2.027   2.824   3.785
 2274SOL     OW 9125   2.040   3.112   3.820
 2274SOL    HW2 9126   2.038   3.018   3.803
 2274SOL    HW3 9127   2.126   3.141   3.792
 2274SOL    MW4 9128   2.051   3.104   3.814
 2275SOL     OW 9129   1.812   3.258   3.740
 2275SOL    HW2 9130   1.889   3.221   3.783
 2275SOL    HW3 9131   1.738   3.224   3.789
 2275SOL    MW4 9132   1.812   3.249   3.752
 2276SOL     OW 9133   1.791   3.479   3.906
 2276SOL    HW2 9134   1.877   3.519   3.899
 2276SOL    HW3 9135   1.795   3.404   3.847
 2276SOL    MW4 9136   1.803   3.474   3.898
 2277SOL     OW 9137   2.036   3.612   3.847
 2277SOL    HW2 9138   2.102   3.545   3.866
 2277SOL    HW3 9139   2.037   3.619   3.752
 2277SOL    MW4 9140   2.045   3.604   3.837
 2278SOL     OW 9141   2.020   3.879   3.929
 2278SOL    HW2 9142   2.092   3.915   3.876
 2278SOL    HW3 9143   2.021   3.785   3.910
 2278SOL    MW4 9144   2.030   3.872   3.919
 2279SOL     OW 9145   1.779   4.010   3.831
 2279SOL    HW2 9146   1.856   3.960   3.858
 2279SOL    HW3 9147   1.707   3.972   3.881
 2279SOL    MW4 9148   1.779   3.999   3.841
 2280SOL     OW 9149   1.803   4.283   3.904
 2280SOL    HW2 9150   1.881   4.329   3.872
 2280SOL    HW3 9151   1.811   4.195   3.869
 2280SOL    MW4 9152   1.815   4.278   3.895
 2281SOL     OW 9153   2.020   4.427   3.801
 2281SOL    HW2 9154   2.097   4.410   3.856
 2281SOL    HW3 9155   2.048   4.403   3.713
 2281SOL    MW4 9156   2.034   4.422   3.797
 2282SOL     OW 9157   2.457   4.665   3.903
 2282SOL    HW2 9158   2.454   4.659   3.998
 2282SOL    HW3 9159   2.544   4.702   3.885
 2282SOL    MW4 9160   2.468   4.669   3.913
 2283SOL     OW 9161   2.214   0.095   3.846
 2283SOL    HW2 9162   2.298   0.056   3.870
 2283SOL    HW3 9163   2.216   0.099   3.751
 2283SOL    MW4 9164   2.225   0.091   3.837
 2284SOL     OW 9165   2.228   0.376   3.875
 2284SOL    HW2 9166   2.229   0.283   3.856
 2284SOL    HW3 9167   2.139   0.405   3.855
 2284SOL    MW4 9168   2.217   0.368   3.870
 2285SOL     OW 9169   2.477   0.463   3.761
 2285SOL    HW2 9170   2.394   0.439   3.801
 2285SOL    HW3 9171   2.454   0.487   3.671
 2285SOL    MW4 9172   2.463   0.463   3.754
 2286SOL     OW 9173   2.455   0.712   3.895
 2286SOL    HW2 9174   2.386   0.766   3.858
 2286SOL    HW3 9175   2.474   0.647   3.828
 2286SOL    MW4 9176   2.449   0.711   3.881
 2287SOL     OW 9177   2.276   0.870   3.761
 2287SOL    HW2 9178   2.191   0.831   3.781
 2287SOL    HW3 9179   2.279   0.871   3.665
 2287SOL    MW4 9180   2.265   0.865   3.751
 2288SOL     OW 9181   2.199   1.110   3.855
 2288SOL    HW2 9182   2.216   1.113   3.950
 2288SOL    HW3 9183   2.211   1.018   3.831
 2288SOL    MW4 9184   2.203   1.098   3.865
 2289SOL     OW 9185   2.430   1.232   3.745
 2289SOL    HW2 9186   2.427   1.323   3.773
 2289SOL    HW3 9187   2.364   1.188   3.799
 2289SOL    MW4 9188   2.421   1.238   3.756
 2290SOL     OW 9189   2.412   1.511   3.857
 2290SOL    HW2 9190   2.491   1.546   3.817
 2290SOL    HW3 9191   2.340   1.561   3.817
 2290SOL    MW4 9192   2.413   1.522   3.846
 2291SOL     OW 9193   2.218   1.672   3.769
 2291SOL    HW2 9194   2.218   1.765   3.790
 2291SOL    HW3 9195   2.144   1.636   3.819
 2291SOL    MW4 9196   2.208   1.679   3.779
 2292SOL     OW 9197   2.204   1.916   3.903
 2292SOL    HW2 9198   2.217   1.913   3.998
 2292SOL    HW3 9199   2.124   1.967   3.892
 2292SOL    MW4 9200   2.195   1.923   3.914
 2293SOL     OW 9201   2.418   2.081   3.808
 2293SOL    HW2 9202   2.426   2.162   3.860
 2293SOL    HW3 9203   2.337   2.041   3.840
 2293SOL    MW4 9204   2.408   2.086   3.819
 2294SOL     OW 9205   2.485   2.320   3.928
 2294SOL    HW2 9206   2.559   2.353   3.877
 2294SOL    HW3 9207   2.411   2.377   3.903
 2294SOL    MW4 9208   2.485   2.332   3.918
 2295SOL     OW 9209   2.271   2.441   3.813
 2295SOL    HW2 9210   2.186   2.411   3.844
 2295SOL    HW3 9211   2.267   2.429   3.718
 2295SOL    MW4 9212   2.260   2.436   3.804
 2296SOL     OW 9213   2.253   2.713   3.863
 2296SOL    HW2 9214   2.259   2.758   3.947
 2296SOL    HW3 9215   2.269   2.621   3.884
 2296SOL    MW4 9216   2.256   2.707   3.877
 2297SOL     OW 9217   2.487   2.855   3.740
 2297SOL    HW2 9218   2.410   2.809   3.773
 2297SOL    HW3 9219   2.483   2.843   3.645
 2297SOL    MW4 9220   2.477   2.848   3.732
 2298SOL     OW 9221   2.523   3.101   3.881
 2298SOL    HW2 9222   2.506   3.095   3.975
 2298SOL    HW3 9223   2.502   3.013   3.848
 2298SOL    MW4 9224   2.518   3.088   3.889
 2299SOL     OW 9225   2.293   3.180   3.759
 2299SOL    HW2 9226   2.266   3.265   3.793
 2299SOL    HW3 9227   2.370   3.157   3.812
 2299SOL    MW4 9228   2.300   3.188   3.771
 2300SOL     OW 9229   2.259   3.440   3.861
 2300SOL    HW2 9230   2.250   3.437   3.956
 2300SOL    HW3 9231   2.330   3.502   3.846
 2300SOL    MW4 9232   2.267   3.448   3.871
 2301SOL     OW 9233   2.477   3.602   3.792
 2301SOL    HW2 9234   2.554   3.553   3.821
 2301SOL    HW3 9235   2.474   3.589   3.697
 2301SOL    MW4 9236   2.487   3.594   3.783
 2302SOL     OW 9237   2.430   3.888   3.848
 2302SOL    HW2 9238   2.506   3.943   3.829
 2302SOL    HW3 9239   2.452   3.802   3.811
 2302SOL    MW4 9240   2.443   3.884   3.841
 2303SOL     OW 9241   2.187   4.034   3.784
 2303SOL    HW2 9242   2.259   3.982   3.820
 2303SOL    HW3 9243   2.194   4.023   3.689
 2303SOL    MW4 9244   2.198   4.026   3.776
 2304SOL     OW 9245   2.241   4.290   3.895
 2304SOL    HW2 9246   2.224   4.287   3.989
 2304SOL    HW3 9247   2.221   4.202   3.863
 2304SOL    MW4 9248   2.236   4.278   3.903
 2305SOL     OW 9249   2.470   4.415   3.779
 2305SOL    HW2 9250   2.382   4.383   3.795
 2305SOL    HW3 9251   2.470   4.505   3.812
 2305SOL    MW4 9252   2.459   4.423   3.785
 2306SOL     OW 9253   2.908   4.640   3.882
 2306SOL    HW2 9254   2.896   4.645   3.977
 2306SOL    HW3 9255   2.991   4.685   3.866
 2306SOL    MW4 9256   2.917   4.647   3.892
 2307SOL     OW 9257   2.688   0.127   3.806
 2307SOL    HW2 9258   2.770   0.082   3.827
 2307SOL    HW3 9259   2.687   0.131   3.711
 2307SOL    MW4 9260   2.699   0.121   3.797
 2308SOL     OW 9261   2.678   0.375   3.912
 2308SOL    HW2 9262   2.683   0.282   3.889
 2308SOL    HW3 9263   2.602   0.407   3.864
 2308SOL    MW4 9264   2.669   0.367   3.903
 2309SOL     OW 9265   2.907   0.485   3.798
 2309SOL    HW2 9266   2.984   0.437   3.826
 2309SOL    HW3 9267   2.837   0.455   3.856
 2309SOL    MW4 9268   2.908   0.475   3.809
 2310SOL     OW 9269   2.891   0.744   3.866
 2310SOL    HW2 9270   2.968   0.787   3.827
 2310SOL    HW3 9271   2.905   0.651   3.848
 2310SOL    MW4 9272   2.903   0.738   3.858
 2311SOL     OW 9273   2.662   0.863   3.776
 2311SOL    HW2 9274   2.747   0.832   3.808
 2311SOL    HW3 9275   2.599   0.805   3.818
 2311SOL    MW4 9276   2.665   0.851   3.786
 2312SOL     OW 9277   2.641   1.120   3.899
 2312SOL    HW2 9278   2.628   1.029   3.870
 2312SOL    HW3 9279   2.578   1.171   3.847
 2312SOL    MW4 9280   2.631   1.114   3.888
 2313SOL     OW 9281   2.877   1.241   3.798
 2313SOL    HW2 9282   2.872   1.334   3.818
 2313SOL    HW3 9283   2.798   1.204   3.837
 2313SOL    MW4 9284   2.866   1.248   3.805
 2314SOL     OW 9285   2.895   1.518   3.873
 2314SOL    HW2 9286   2.892   1.520   3.968
 2314SOL    HW3 9287   2.979   1.559   3.850
 2314SOL    MW4 9288   2.906   1.524   3.882
 2315SOL     OW 9289   2.655   1.608   3.776
 2315SOL    HW2 9290   2.734   1.584   3.823
 2315SOL    HW3 9291   2.681   1.613   3.685
 2315SOL    MW4 9292   2.669   1.606   3.770
 2316SOL     OW 9293   2.623   1.891   3.902
 2316SOL    HW2 9294   2.614   1.804   3.863
 2316SOL    HW3 9295   2.558   1.944   3.858
 2316SOL    MW4 9296   2.613   1.886   3.891
 2317SOL     OW 9297   2.835   2.045   3.753
 2317SOL    HW2 9298   2.836   2.127   3.803
 2317SOL    HW3 9299   2.767   1.993   3.796
 2317SOL    MW4 9300   2.826   2.049   3.766
 2318SOL     OW 9301   2.914   2.279   3.904
 2318SOL    HW2 9302   2.924   2.293   3.998
 2318SOL    HW3 9303   2.995   2.313   3.866
 2318SOL    MW4 9304   2.926   2.285   3.912
 2319SOL     OW 9305   2.706   2.423   3.801
 2319SOL    HW2 9306   2.736   2.512   3.814
 2319SOL    HW3 9307   2.772   2.368   3.842
 2319SOL    MW4 9308   2.718   2.427   3.808
 2320SOL     OW 9309   2.749   2.684   3.853
 2320SOL    HW2 9310   2.764   2.665   3.946
 2320SOL    HW3 9311   2.665   2.730   3.852
 2320SOL    MW4 9312   2.740   2.687   3.865
 2321SOL     OW 9313   2.956   2.846   3.751
 2321SOL    HW2 9314   2.957   2.929   3.798
 2321SOL    HW3 9315   2.894   2.791   3.799
 2321SOL    MW4 9316   2.948   2.850   3.763
 2322SOL     OW 9317   2.915   3.082   3.925
 2322SOL    HW2 9318   3.004   3.111   3.905
 2322SOL    HW3 9319   2.859   3.135   3.869
 2322SOL    MW4 9320   2.919   3.093   3.915
 2323SOL     OW 9321   2.732   3.200   3.754
 2323SOL    HW2 9322   2.741   3.285   3.797
 2323SOL    HW3 9323   2.661   3.157   3.801
 2323SOL    MW4 9324   2.724   3.206   3.766
 2324SOL     OW 9325   2.725   3.470   3.844
 2324SOL    HW2 9326   2.735   3.470   3.939
 2324SOL    HW3 9327   2.805   3.511   3.812
 2324SOL    MW4 9328   2.737   3.476   3.853
 2325SOL     OW 9329   2.930   3.672   3.740
 2325SOL    HW2 9330   2.984   3.610   3.788
 2325SOL    HW3 9331   2.941   3.647   3.648
 2325SOL    MW4 9332   2.938   3.661   3.734
 2326SOL     OW 9333   2.903   3.916   3.855
 2326SOL    HW2 9334   2.930   3.920   3.947
 2326SOL    HW3 9335   2.905   3.823   3.834
 2326SOL    MW4 9336   2.906   3.904   3.864
 2327SOL     OW 9337   2.662   4.036   3.798
 2327SOL    HW2 9338   2.649   4.113   3.853
 2327SOL    HW3 9339   2.743   3.996   3.830
 2327SOL    MW4 9340   2.671   4.041   3.809
 2328SOL     OW 9341   2.668   4.280   3.924
 2328SOL    HW2 9342   2.748   4.318   3.887
 2328SOL    HW3 9343   2.597   4.331   3.885
 2328SOL    MW4 9344   2.669   4.292   3.914
 2329SOL     OW 9345   2.911   4.381   3.765
 2329SOL    HW2 9346   2.987   4.337   3.803
 2329SOL    HW3 9347   2.899   4.460   3.816
 2329SOL    MW4 9348   2.919   4.385   3.776
 2330SOL     OW 9349   3.331   4.618   3.930
 2330SOL    HW2 9350   3.338   4.647   4.021
 2330SOL    HW3 9351   3.403   4.663   3.885
 2330SOL    MW4 9352   3.341   4.628   3.936
 2331SOL     OW 9353   3.135   0.103   3.812
 2331SOL    HW2 9354   3.199   0.042   3.850
 2331SOL    HW3 9355   3.147   0.092   3.717
 2331SOL    MW4 9356   3.145   0.093   3.804
 2332SOL     OW 9357   3.146   0.380   3.890
 2332SOL    HW2 9358   3.164   0.375   3.984
 2332SOL    HW3 9359   3.158   0.290   3.859
 2332SOL    MW4 9360   3.150   0.367   3.899
 2333SOL     OW 9361   3.372   0.484   3.784
 2333SOL    HW2 9362   3.443   0.440   3.832
 2333SOL    HW3 9363   3.292   0.443   3.816
 2333SOL    MW4 9364   3.371   0.473   3.794
 2334SOL     OW 9365   3.357   0.738   3.871
 2334SOL    HW2 9366   3.352   0.738   3.967
 2334SOL    HW3 9367   3.366   0.646   3.847
 2334SOL    MW4 9368   3.357   0.726   3.880
 2335SOL     OW 9369   3.128   0.885   3.800
 2335SOL    HW2 9370   3.212   0.846   3.826
 2335SOL    HW3 9371   3.135   0.896   3.705
 2335SOL    MW4 9372   3.140   0.882   3.791
 2336SOL     OW 9373   3.113   1.148   3.892
 2336SOL    HW2 9374   3.121   1.058   3.858
 2336SOL    HW3 9375   3.024   1.175   3.869
 2336SOL    MW4 9376   3.103   1.139   3.884
 2337SOL     OW 9377   3.297   1.312   3.790
 2337SOL    HW2 9378   3.223   1.257   3.815
 2337SOL    HW3 9379   3.304   1.301   3.695
 2337SOL    MW4 9380   3.288   1.303   3.780
 2338SOL     OW 9381   3.369   1.556   3.885
 2338SOL    HW2 9382   3.304   1.609   3.839
 2338SOL    HW3 9383   3.338   1.466   3.875
 2338SOL    MW4 9384   3.356   1.551   3.878
 2339SOL     OW 9385   3.127   1.678   3.804
 2339SOL    HW2 9386   3.116   1.772   3.818
 2339SOL    HW3 9387   3.129   1.668   3.709
 2339SOL    MW4 9388   3.126   1.689   3.793
 2340SOL     OW 9389   3.080   1.947   3.849
 2340SOL    HW2 9390   3.075   1.938   3.944
 2340SOL    HW3 9391   2.994   1.980   3.823
 2340SOL    MW4 9392   3.068   1.950   3.858
 2341SOL     OW 9393   3.342   2.052   3.813
 2341SOL    HW2 9394   3.255   2.014   3.825
 2341SOL    HW3 9395   3.355   2.053   3.718
 2341SOL    MW4 9396   3.332   2.047   3.802
 2342SOL     OW 9397   3.363   2.327   3.854
 2342SOL    HW2 9398   3.275   2.364   3.851
 2342SOL    HW3 9399   3.349   2.232   3.848
 2342SOL    MW4 9400   3.349   2.319   3.852
 2343SOL     OW 9401   3.111   2.425   3.786
 2343SOL    HW2 9402   3.114   2.517   3.813
 2343SOL    HW3 9403   3.117   2.428   3.690
 2343SOL    MW4 9404   3.112   2.437   3.777
 2344SOL     OW 9405   3.150   2.698   3.870
 2344SOL    HW2 9406   3.132   2.713   3.962
 2344SOL    HW3 9407   3.080   2.744   3.823
 2344SOL    MW4 9408   3.138   2.706   3.876
 2345SOL     OW 9409   3.365   2.853   3.777
 2345SOL    HW2 9410   3.285   2.808   3.803
 2345SOL    HW3 9411   3.364   2.852   3.681
 2345SOL    MW4 9412   3.354   2.847   3.768
 2346SOL     OW 9413   3.354   3.056   3.956
 2346SOL    HW2 9414   3.402   3.123   3.907
 2346SOL    HW3 9415   3.365   2.976   3.904
 2346SOL    MW4 9416   3.362   3.054   3.943
 2347SOL     OW 9417   3.153   3.189   3.826
 2347SOL    HW2 9418   3.223   3.148   3.876
 2347SOL    HW3 9419   3.182   3.183   3.735
 2347SOL    MW4 9420   3.166   3.183   3.821
 2348SOL     OW 9421   3.099   3.478   3.840
 2348SOL    HW2 9422   3.184   3.515   3.817
 2348SOL    HW3 9423   3.108   3.384   3.819
 2348SOL    MW4 9424   3.111   3.470   3.834
 2349SOL     OW 9425   3.331   3.634   3.778
 2349SOL    HW2 9426   3.328   3.725   3.806
 2349SOL    HW3 9427   3.368   3.637   3.690
 2349SOL    MW4 9428   3.335   3.646   3.770
 2350SOL     OW 9429   3.348   3.902   3.871
 2350SOL    HW2 9430   3.433   3.929   3.838
 2350SOL    HW3 9431   3.285   3.947   3.814
 2350SOL    MW4 9432   3.351   3.911   3.859
 2351SOL     OW 9433   3.128   4.007   3.719
 2351SOL    HW2 9434   3.134   4.095   3.755
 2351SOL    HW3 9435   3.061   3.964   3.773
 2351SOL    MW4 9436   3.120   4.013   3.731
 2352SOL     OW 9437   3.136   4.244   3.863
 2352SOL    HW2 9438   3.124   4.258   3.957
 2352SOL    HW3 9439   3.217   4.290   3.842
 2352SOL    MW4 9440   3.145   4.252   3.873
 2353SOL     OW 9441   3.346   4.396   3.748
 2353SOL    HW2 9442   3.436   4.367   3.761
 2353SOL    HW3 9443   3.339   4.475   3.802
 2353SOL    MW4 9444   3.357   4.403   3.757
 2354SOL     OW 9445   3.808   4.654   3.866
 2354SOL    HW2 9446   3.881   4.714   3.850
 2354SOL    HW3 9447   3.843   4.567   3.843
 2354SOL    MW4 9448   3.822   4.650   3.861
 2355SOL     OW 9449   3.537   0.090   3.791
 2355SOL    HW2 9450   3.620   0.047   3.811
 2355SOL    HW3 9451   3.539   0.103   3.696
 2355SOL    MW4 9452   3.548   0.086   3.781
 2356SOL     OW 9453   3.562   0.345   3.922
 2356SOL    HW2 9454   3.637   0.384   3.877
 2356SOL    HW3 9455   3.551   0.260   3.881
 2356SOL    MW4 9456   3.570   0.339   3.911
 2357SOL     OW 9457   3.774   0.482   3.787
 2357SOL    HW2 9458   3.864   0.454   3.806
 2357SOL    HW3 9459   3.770   0.572   3.820
 2357SOL    MW4 9460   3.786   0.490   3.794
 2358SOL     OW 9461   3.770   0.746   3.870
 2358SOL    HW2 9462   3.852   0.793   3.854
 2358SOL    HW3 9463   3.703   0.799   3.829
 2358SOL    MW4 9464   3.772   0.759   3.863
 2359SOL     OW 9465   3.557   0.902   3.759
 2359SOL    HW2 9466   3.556   0.994   3.786
 2359SOL    HW3 9467   3.488   0.861   3.812
 2359SOL    MW4 9468   3.547   0.909   3.770
 2360SOL     OW 9469   3.538   1.156   3.860
 2360SOL    HW2 9470   3.610   1.206   3.821
 2360SOL    HW3 9471   3.459   1.200   3.827
 2360SOL    MW4 9472   3.537   1.169   3.851
 2361SOL     OW 9473   3.801   1.257   3.791
 2361SOL    HW2 9474   3.865   1.199   3.833
 2361SOL    HW3 9475   3.826   1.345   3.819
 2361SOL    MW4 9476   3.813   1.261   3.800
 2362SOL     OW 9477   3.835   1.541   3.907
 2362SOL    HW2 9478   3.814   1.522   3.998
 2362SOL    HW3 9479   3.756   1.583   3.873
 2362SOL    MW4 9480   3.821   1.544   3.914
 2363SOL     OW 9481   3.593   1.690   3.777
 2363SOL    HW2 9482   3.515   1.643   3.807
 2363SOL    HW3 9483   3.603   1.663   3.686
 2363SOL    MW4 9484   3.584   1.680   3.769
 2364SOL     OW 9485   3.597   1.962   3.878
 2364SOL    HW2 9486   3.602   1.870   3.853
 2364SOL    HW3 9487   3.509   1.989   3.853
 2364SOL    MW4 9488   3.586   1.954   3.872
 2365SOL     OW 9489   3.833   2.082   3.795
 2365SOL    HW2 9490   3.894   2.013   3.821
 2365SOL    HW3 9491   3.746   2.043   3.806
 2365SOL    MW4 9492   3.830   2.068   3.800
 2366SOL     OW 9493   3.849   2.332   3.922
 2366SOL    HW2 9494   3.767   2.370   3.890
 2366SOL    HW3 9495   3.846   2.241   3.891
 2366SOL    MW4 9496   3.838   2.325   3.914
 2367SOL     OW 9497   3.616   2.426   3.769
 2367SOL    HW2 9498   3.533   2.382   3.790
 2367SOL    HW3 9499   3.619   2.426   3.673
 2367SOL    MW4 9500   3.605   2.420   3.759
 2368SOL     OW 9501   3.591   2.706   3.856
 2368SOL    HW2 9502   3.580   2.622   3.811
 2368SOL    HW3 9503   3.510   2.755   3.835
 2368SOL    MW4 9504   3.579   2.702   3.847
 2369SOL     OW 9505   3.789   2.849   3.734
 2369SOL    HW2 9506   3.865   2.812   3.780
 2369SOL    HW3 9507   3.714   2.802   3.770
 2369SOL    MW4 9508   3.789   2.837   3.745
 2370SOL     OW 9509   3.758   3.100   3.869
 2370SOL    HW2 9510   3.676   3.141   3.843
 2370SOL    HW3 9511   3.768   3.024   3.811
 2370SOL    MW4 9512   3.749   3.095   3.858
 2371SOL     OW 9513   3.521   3.238   3.799
 2371SOL    HW2 9514   3.525   3.330   3.823
 2371SOL    HW3 9515   3.518   3.238   3.703
 2371SOL    MW4 9516   3.521   3.250   3.790
 2372SOL     OW 9517   3.544   3.504   3.897
 2372SOL    HW2 9518   3.561   3.541   3.983
 2372SOL    HW3 9519   3.463   3.546   3.868
 2372SOL    MW4 9520   3.536   3.514   3.904
 2373SOL     OW 9521   3.757   3.637   3.769
 2373SOL    HW2 9522   3.758   3.723   3.812
 2373SOL    HW3 9523   3.682   3.592   3.808
 2373SOL    MW4 9524   3.747   3.643   3.780
 2374SOL     OW 9525   3.776   3.911   3.864
 2374SOL    HW2 9526   3.783   3.899   3.959
 2374SOL    HW3 9527   3.863   3.940   3.837
 2374SOL    MW4 9528   3.788   3.913   3.873
 2375SOL     OW 9529   3.556   4.033   3.735
 2375SOL    HW2 9530   3.546   4.120   3.774
 2375SOL    HW3 9531   3.644   4.005   3.762
 2375SOL    MW4 9532   3.567   4.041   3.744
 2376SOL     OW 9533   3.608   4.292   3.820
 2376SOL    HW2 9534   3.601   4.308   3.914
 2376SOL    HW3 9535   3.698   4.315   3.797
 2376SOL    MW4 9536   3.619   4.297   3.829
 2377SOL     OW 9537   3.857   4.414   3.761
 2377SOL    HW2 9538   3.932   4.355   3.772
 2377SOL    HW3 9539   3.852   4.430   3.667
 2377SOL    MW4 9540   3.866   4.408   3.750
 2378SOL     OW 9541   4.277   4.654   3.863
 2378SOL    HW2 9542   4.270   4.654   3.959
 2378SOL    HW3 9543   4.349   4.714   3.845
 2378SOL    MW4 9544   4.285   4.662   3.874
 2379SOL     OW 9545   4.054   0.113   3.779
 2379SOL    HW2 9546   4.130   0.057   3.799
 2379SOL    HW3 9547   4.052   0.118   3.683
 2379SOL    MW4 9548   4.064   0.106   3.769
 2380SOL     OW 9549   4.031   0.399   3.869
 2380SOL    HW2 9550   4.035   0.406   3.965
 2380SOL    HW3 9551   4.051   0.307   3.852
 2380SOL    MW4 9552   4.034   0.388   3.880
 2381SOL     OW 9553   4.266   0.515   3.762
 2381SOL    HW2 9554   4.182   0.485   3.796
 2381SOL    HW3 9555   4.254   0.515   3.667
 2381SOL    MW4 9556   4.253   0.511   3.754
 2382SOL     OW 9557   4.285   0.772   3.890
 2382SOL    HW2 9558   4.203   0.816   3.866
 2382SOL    HW3 9559   4.279   0.686   3.850
 2382SOL    MW4 9560   4.273   0.767   3.882
 2383SOL     OW 9561   4.011   0.862   3.777
 2383SOL    HW2 9562   4.009   0.954   3.804
 2383SOL    HW3 9563   4.010   0.865   3.682
 2383SOL    MW4 9564   4.011   0.875   3.768
 2384SOL     OW 9565   4.025   1.117   3.881
 2384SOL    HW2 9566   4.038   1.116   3.975
 2384SOL    HW3 9567   4.107   1.150   3.845
 2384SOL    MW4 9568   4.037   1.121   3.889
 2385SOL     OW 9569   4.256   1.259   3.776
 2385SOL    HW2 9570   4.236   1.347   3.808
 2385SOL    HW3 9571   4.267   1.269   3.682
 2385SOL    MW4 9572   4.255   1.272   3.768
 2386SOL     OW 9573   4.277   1.511   3.891
 2386SOL    HW2 9574   4.200   1.565   3.871
 2386SOL    HW3 9575   4.351   1.564   3.862
 2386SOL    MW4 9576   4.277   1.525   3.885
 2387SOL     OW 9577   4.060   1.658   3.773
 2387SOL    HW2 9578   4.069   1.747   3.808
 2387SOL    HW3 9579   3.985   1.622   3.821
 2387SOL    MW4 9580   4.051   1.665   3.784
 2388SOL     OW 9581   4.048   1.920   3.861
 2388SOL    HW2 9582   4.034   1.935   3.954
 2388SOL    HW3 9583   4.123   1.976   3.839
 2388SOL    MW4 9584   4.056   1.930   3.870
 2389SOL     OW 9585   4.277   2.052   3.756
 2389SOL    HW2 9586   4.269   2.143   3.782
 2389SOL    HW3 9587   4.268   2.053   3.660
 2389SOL    MW4 9588   4.275   2.064   3.747
 2390SOL     OW 9589   4.286   2.304   3.862
 2390SOL    HW2 9590   4.267   2.307   3.956
 2390SOL    HW3 9591   4.207   2.339   3.820
 2390SOL    MW4 9592   4.273   2.309   3.869
 2391SOL     OW 9593   4.038   2.412   3.736
 2391SOL    HW2 9594   4.036   2.504   3.764
 2391SOL    HW3 9595   3.971   2.369   3.788
 2391SOL    MW4 9596   4.029   2.419   3.747
 2392SOL     OW 9597   4.001   2.702   3.817
 2392SOL    HW2 9598   4.004   2.700   3.913
 2392SOL    HW3 9599   4.080   2.750   3.792
 2392SOL    MW4 9600   4.012   2.708   3.826
 2393SOL     OW 9601   4.216   2.873   3.771
 2393SOL    HW2 9602   4.196   2.955   3.816
 2393SOL    HW3 9603   4.297   2.842   3.812
 2393SOL    MW4 9604   4.224   2.880   3.783
 2394SOL     OW 9605   4.187   3.127   3.886
 2394SOL    HW2 9606   4.132   3.174   3.823
 2394SOL    HW3 9607   4.276   3.156   3.865
 2394SOL    MW4 9608   4.192   3.137   3.875
 2395SOL     OW 9609   3.999   3.284   3.731
 2395SOL    HW2 9610   3.910   3.258   3.755
 2395SOL    HW3 9611   4.000   3.279   3.635
 2395SOL    MW4 9612   3.987   3.280   3.721
 2396SOL     OW 9613   3.984   3.516   3.902
 2396SOL    HW2 9614   3.999   3.437   3.849
 2396SOL    HW3 9615   3.912   3.562   3.857
 2396SOL    MW4 9616   3.976   3.512   3.889
 2397SOL     OW 9617   4.222   3.621   3.795
 2397SOL    HW2 9618   4.151   3.583   3.846
 2397SOL    HW3 9619   4.296   3.562   3.810
 2397SOL    MW4 9620   4.223   3.608   3.803
 2398SOL     OW 9621   4.264   3.901   3.824
 2398SOL    HW2 9622   4.183   3.943   3.796
 2398SOL    HW3 9623   4.249   3.808   3.810
 2398SOL    MW4 9624   4.252   3.894   3.819
 2399SOL     OW 9625   4.022   3.998   3.776
 2399SOL    HW2 9626   4.051   4.083   3.811
 2399SOL    HW3 9627   4.029   4.009   3.681
 2399SOL    MW4 9628   4.027   4.011   3.768
 2400SOL     OW 9629   4.068   4.263   3.847
 2400SOL    HW2 9630   4.059   4.279   3.941
 2400SOL    HW3 9631   4.140   4.320   3.820
 2400SOL    MW4 9632   4.077   4.272   3.856
 2401SOL     OW 9633   4.300   4.397   3.752
 2401SOL    HW2 9634   4.293   4.482   3.796
 2401SOL    HW3 9635   4.376   4.356   3.793
 2401SOL    MW4 9636   4.309   4.403   3.764
 2402SOL     OW 9637   0.188   0.029   4.109
 2402SOL    HW2 9638   0.268   0.069   4.145
 2402SOL    HW3 9639   0.193  -0.062   4.137
 2402SOL    MW4 9640   0.199   0.022   4.118
 2403SOL     OW 9641   4.456   0.130   4.237
 2403SOL    HW2 9642   4.453   0.117   4.332
 2403SOL    HW3 9643   4.538   0.089   4.209
 2403SOL    MW4 9644   4.466   0.123   4.246
 2404SOL     OW 9645   4.474   0.392   4.186
 2404SOL    HW2 9646   4.484   0.300   4.213
 2404SOL    HW3 9647   4.459   0.387   4.092
 2404SOL    MW4 9648   4.474   0.379   4.177
 2405SOL     OW 9649   0.191   0.520   4.300
 2405SOL    HW2 9650   0.267   0.472   4.266
 2405SOL    HW3 9651   0.116   0.469   4.270
 2405SOL    MW4 9652   0.191   0.507   4.292
 2406SOL     OW 9653   0.206   0.764   4.158
 2406SOL    HW2 9654   0.127   0.812   4.181
 2406SOL    HW3 9655   0.203   0.684   4.210
 2406SOL    MW4 9656   0.195   0.760   4.168
 2407SOL     OW 9657   4.482   0.914   4.260
 2407SOL    HW2 9658   4.396   0.876   4.244
 2407SOL    HW3 9659   4.480   0.997   4.213
 2407SOL    MW4 9660   4.470   0.920   4.251
 2408SOL     OW 9661   4.475   1.152   4.144
 2408SOL    HW2 9662   4.562   1.184   4.170
 2408SOL    HW3 9663   4.472   1.164   4.049
 2408SOL    MW4 9664   4.486   1.158   4.135
 2409SOL     OW 9665   0.202   1.292   4.246
 2409SOL    HW2 9666   0.192   1.319   4.337
 2409SOL    HW3 9667   0.294   1.264   4.239
 2409SOL    MW4 9668   0.213   1.292   4.257
 2410SOL     OW 9669   4.434   1.771   4.515
 2410SOL    HW2 9670   4.442   1.742   4.424
 2410SOL    HW3 9671   4.355   1.825   4.516
 2410SOL    MW4 9672   4.424   1.775   4.503
 2411SOL     OW 9673   4.448   1.663   4.247
 2411SOL    HW2 9674   4.359   1.628   4.237
 2411SOL    HW3 9675   4.443   1.752   4.213
 2411SOL    MW4 9676   4.436   1.670   4.241
 2412SOL     OW 9677   0.201   2.050   4.268
 2412SOL    HW2 9678   0.195   2.069   4.362
 2412SOL    HW3 9679   0.294   2.034   4.253
 2412SOL    MW4 9680   0.213   2.051   4.279
 2413SOL     OW 9681   0.780   1.698   4.685
 2413SOL    HW2 9682   0.761   1.791   4.672
 2413SOL    HW3 9683   0.837   1.696   4.762
 2413SOL    MW4 9684   0.785   1.710   4.694
 2414SOL     OW 9685   0.181   2.322   4.177
 2414SOL    HW2 9686   0.258   2.355   4.225
 2414SOL    HW3 9687   0.174   2.230   4.203
 2414SOL    MW4 9688   0.190   2.315   4.187
 2415SOL     OW 9689   4.454   2.499   4.197
 2415SOL    HW2 9690   4.383   2.442   4.165
 2415SOL    HW3 9691   4.531   2.442   4.198
 2415SOL    MW4 9692   4.455   2.484   4.193
 2416SOL     OW 9693   4.411   2.770   4.133
 2416SOL    HW2 9694   4.479   2.809   4.189
 2416SOL    HW3 9695   4.411   2.677   4.157
 2416SOL    MW4 9696   4.420   2.763   4.143
 2417SOL     OW 9697   0.163   2.845   4.252
 2417SOL    HW2 9698   0.249   2.804   4.247
 2417SOL    HW3 9699   0.176   2.933   4.216
 2417SOL    MW4 9700   0.176   2.852   4.247
 2418SOL     OW 9701   0.156   3.096   4.121
 2418SOL    HW2 9702   0.240   3.138   4.138
 2418SOL    HW3 9703   0.094   3.141   4.178
 2418SOL    MW4 9704   0.159   3.108   4.131
 2419SOL     OW 9705   4.477   3.232   4.285
 2419SOL    HW2 9706   4.393   3.213   4.244
 2419SOL    HW3 9707   4.500   3.320   4.255
 2419SOL    MW4 9708   4.469   3.241   4.276
 2420SOL     OW 9709   0.005   3.479   4.116
 2420SOL    HW2 9710  -0.067   3.533   4.150
 2420SOL    HW3 9711  -0.012   3.474   4.022
 2420SOL    MW4 9712  -0.007   3.486   4.108
 2421SOL     OW 9713   0.211   3.630   4.206
 2421SOL    HW2 9714   0.282   3.582   4.164
 2421SOL    HW3 9715   0.131   3.589   4.172
 2421SOL    MW4 9716   0.210   3.618   4.196
 2422SOL     OW 9717   0.257   3.898   4.181
 2422SOL    HW2 9718   0.181   3.942   4.220
 2422SOL    HW3 9719   0.239   3.805   4.192
 2422SOL    MW4 9720   0.245   3.892   4.188
 2423SOL     OW 9721   4.474   3.983   4.242
 2423SOL    HW2 9722   4.433   3.961   4.326
 2423SOL    HW3 9723   4.414   3.947   4.176
 2423SOL    MW4 9724   4.461   3.975   4.244
 2424SOL     OW 9725   0.013   4.258   4.166
 2424SOL    HW2 9726   0.000   4.172   4.206
 2424SOL    HW3 9727  -0.005   4.244   4.073
 2424SOL    MW4 9728   0.009   4.245   4.159
 2425SOL     OW 9729   0.202   4.447   4.216
 2425SOL    HW2 9730   0.190   4.479   4.305
 2425SOL    HW3 9731   0.138   4.377   4.206
 2425SOL    MW4 9732   0.192   4.442   4.226
 2426SOL     OW 9733   0.681   0.026   4.177
 2426SOL    HW2 9734   0.594   0.063   4.189
 2426SOL    HW3 9735   0.690   0.016   4.082
 2426SOL    MW4 9736   0.671   0.030   4.166
 2427SOL     OW 9737   0.417   0.111   4.257
 2427SOL    HW2 9738   0.418   0.103   4.352
 2427SOL    HW3 9739   0.413   0.206   4.241
 2427SOL    MW4 9740   0.417   0.123   4.267
 2428SOL     OW 9741   0.420   0.399   4.167
 2428SOL    HW2 9742   0.505   0.436   4.191
 2428SOL    HW3 9743   0.426   0.387   4.072
 2428SOL    MW4 9744   0.432   0.403   4.157
 2429SOL     OW 9745   0.661   0.469   4.272
 2429SOL    HW2 9746   0.743   0.434   4.235
 2429SOL    HW3 9747   0.667   0.563   4.257
 2429SOL    MW4 9748   0.673   0.477   4.265
 2430SOL     OW 9749   0.683   0.751   4.223
 2430SOL    HW2 9750   0.598   0.786   4.250
 2430SOL    HW3 9751   0.690   0.777   4.131
 2430SOL    MW4 9752   0.672   0.759   4.214
 2431SOL     OW 9753   0.455   0.892   4.252
 2431SOL    HW2 9754   0.461   0.982   4.218
 2431SOL    HW3 9755   0.380   0.854   4.206
 2431SOL    MW4 9756   0.446   0.899   4.241
 2432SOL     OW 9757   0.455   1.179   4.172
 2432SOL    HW2 9758   0.522   1.245   4.185
 2432SOL    HW3 9759   0.445   1.172   4.077
 2432SOL    MW4 9760   0.462   1.187   4.162
 2433SOL     OW 9761   0.698   1.294   4.260
 2433SOL    HW2 9762   0.709   1.275   4.354
 2433SOL    HW3 9763   0.684   1.389   4.256
 2433SOL    MW4 9764   0.698   1.304   4.272
 2434SOL     OW 9765   0.643   1.556   4.181
 2434SOL    HW2 9766   0.731   1.583   4.208
 2434SOL    HW3 9767   0.648   1.552   4.085
 2434SOL    MW4 9768   0.655   1.559   4.172
 2435SOL     OW 9769   0.196   1.541   4.145
 2435SOL    HW2 9770   0.191   1.454   4.185
 2435SOL    HW3 9771   0.128   1.592   4.188
 2435SOL    MW4 9772   0.187   1.537   4.156
 2436SOL     OW 9773   0.441   1.930   4.208
 2436SOL    HW2 9774   0.412   1.850   4.252
 2436SOL    HW3 9775   0.443   1.908   4.115
 2436SOL    MW4 9776   0.437   1.916   4.202
 2437SOL     OW 9777   0.679   2.088   4.296
 2437SOL    HW2 9778   0.669   2.093   4.391
 2437SOL    HW3 9779   0.606   2.033   4.267
 2437SOL    MW4 9780   0.668   2.081   4.305
 2438SOL     OW 9781   0.642   2.314   4.166
 2438SOL    HW2 9782   0.650   2.227   4.206
 2438SOL    HW3 9783   0.629   2.297   4.073
 2438SOL    MW4 9784   0.641   2.301   4.159
 2439SOL     OW 9785   0.433   2.426   4.292
 2439SOL    HW2 9786   0.447   2.521   4.293
 2439SOL    HW3 9787   0.518   2.389   4.269
 2439SOL    MW4 9788   0.446   2.434   4.289
 2440SOL     OW 9789   0.439   2.710   4.194
 2440SOL    HW2 9790   0.518   2.763   4.206
 2440SOL    HW3 9791   0.435   2.695   4.100
 2440SOL    MW4 9792   0.449   2.715   4.183
 2441SOL     OW 9793   0.664   2.864   4.227
 2441SOL    HW2 9794   0.699   2.863   4.316
 2441SOL    HW3 9795   0.655   2.957   4.206
 2441SOL    MW4 9796   0.667   2.876   4.236
 2442SOL     OW 9797   0.631   3.139   4.173
 2442SOL    HW2 9798   0.700   3.194   4.213
 2442SOL    HW3 9799   0.552   3.162   4.221
 2442SOL    MW4 9800   0.630   3.149   4.185
 2443SOL     OW 9801   0.376   3.244   4.225
 2443SOL    HW2 9802   0.347   3.267   4.313
 2443SOL    HW3 9803   0.409   3.325   4.188
 2443SOL    MW4 9804   0.376   3.258   4.232
 2444SOL     OW 9805   0.432   3.499   4.127
 2444SOL    HW2 9806   0.512   3.532   4.168
 2444SOL    HW3 9807   0.455   3.487   4.035
 2444SOL    MW4 9808   0.446   3.502   4.121
 2445SOL     OW 9809   0.647   3.576   4.275
 2445SOL    HW2 9810   0.637   3.573   4.370
 2445SOL    HW3 9811   0.733   3.537   4.258
 2445SOL    MW4 9812   0.657   3.570   4.285
 2446SOL     OW 9813   0.685   3.850   4.171
 2446SOL    HW2 9814   0.622   3.908   4.215
 2446SOL    HW3 9815   0.675   3.766   4.216
 2446SOL    MW4 9816   0.675   3.847   4.183
 2447SOL     OW 9817   0.495   4.021   4.290
 2447SOL    HW2 9818   0.464   4.106   4.261
 2447SOL    HW3 9819   0.418   3.964   4.283
 2447SOL    MW4 9820   0.480   4.024   4.285
 2448SOL     OW 9821   0.437   4.299   4.170
 2448SOL    HW2 9822   0.356   4.350   4.178
 2448SOL    HW3 9823   0.443   4.278   4.077
 2448SOL    MW4 9824   0.427   4.303   4.159
 2449SOL     OW 9825   0.693   4.421   4.258
 2449SOL    HW2 9826   0.607   4.386   4.235
 2449SOL    HW3 9827   0.699   4.503   4.209
 2449SOL    MW4 9828   0.682   4.427   4.249
 2450SOL     OW 9829   1.115   0.009   4.117
 2450SOL    HW2 9830   1.125  -0.081   4.149
 2450SOL    HW3 9831   1.125   0.001   4.022
 2450SOL    MW4 9832   1.118  -0.004   4.109
 2451SOL     OW 9833   0.911   0.104   4.311
 2451SOL    HW2 9834   0.979   0.079   4.249
 2451SOL    HW3 9835   0.830   0.069   4.274
 2451SOL    MW4 9836   0.909   0.096   4.298
 2452SOL     OW 9837   0.884   0.343   4.185
 2452SOL    HW2 9838   0.963   0.386   4.219
 2452SOL    HW3 9839   0.883   0.257   4.228
 2452SOL    MW4 9840   0.895   0.337   4.196
 2453SOL     OW 9841   1.135   0.480   4.250
 2453SOL    HW2 9842   1.139   0.467   4.345
 2453SOL    HW3 9843   1.201   0.421   4.215
 2453SOL    MW4 9844   1.145   0.471   4.258
 2454SOL     OW 9845   1.118   0.747   4.163
 2454SOL    HW2 9846   1.192   0.798   4.197
 2454SOL    HW3 9847   1.144   0.656   4.179
 2454SOL    MW4 9848   1.131   0.741   4.170
 2455SOL     OW 9849   0.926   0.913   4.297
 2455SOL    HW2 9850   0.997   0.863   4.256
 2455SOL    HW3 9851   0.847   0.863   4.277
 2455SOL    MW4 9852   0.925   0.900   4.289
 2456SOL     OW 9853   0.899   1.133   4.146
 2456SOL    HW2 9854   0.907   1.066   4.213
 2456SOL    HW3 9855   0.840   1.198   4.184
 2456SOL    MW4 9856   0.892   1.133   4.160
 2457SOL     OW 9857   1.116   1.295   4.243
 2457SOL    HW2 9858   1.113   1.281   4.338
 2457SOL    HW3 9859   1.036   1.256   4.210
 2457SOL    MW4 9860   1.105   1.288   4.252
 2458SOL     OW 9861   1.147   1.565   4.165
 2458SOL    HW2 9862   1.068   1.608   4.198
 2458SOL    HW3 9863   1.141   1.476   4.200
 2458SOL    MW4 9864   1.136   1.559   4.174
 2459SOL     OW 9865   0.905   1.657   4.273
 2459SOL    HW2 9866   0.928   1.641   4.364
 2459SOL    HW3 9867   0.882   1.750   4.271
 2459SOL    MW4 9868   0.905   1.667   4.285
 2460SOL     OW 9869   0.872   1.914   4.210
 2460SOL    HW2 9870   0.814   1.991   4.208
 2460SOL    HW3 9871   0.892   1.898   4.118
 2460SOL    MW4 9872   0.867   1.922   4.197
 2461SOL     OW 9873   1.119   2.015   4.241
 2461SOL    HW2 9874   1.138   2.029   4.334
 2461SOL    HW3 9875   1.039   1.963   4.240
 2461SOL    MW4 9876   1.111   2.010   4.253
 2462SOL     OW 9877   1.100   2.291   4.127
 2462SOL    HW2 9878   1.181   2.330   4.159
 2462SOL    HW3 9879   1.098   2.204   4.168
 2462SOL    MW4 9880   1.111   2.285   4.137
 2463SOL     OW 9881   0.870   2.436   4.235
 2463SOL    HW2 9882   0.938   2.378   4.200
 2463SOL    HW3 9883   0.789   2.407   4.192
 2463SOL    MW4 9884   0.868   2.425   4.225
 2464SOL     OW 9885   0.881   2.721   4.137
 2464SOL    HW2 9886   0.861   2.638   4.181
 2464SOL    HW3 9887   0.809   2.779   4.162
 2464SOL    MW4 9888   0.869   2.717   4.146
 2465SOL     OW 9889   1.120   2.809   4.245
 2465SOL    HW2 9890   1.151   2.886   4.196
 2465SOL    HW3 9891   1.035   2.789   4.206
 2465SOL    MW4 9892   1.113   2.817   4.233
 2466SOL     OW 9893   1.142   3.057   4.147
 2466SOL    HW2 9894   1.221   3.101   4.179
 2466SOL    HW3 9895   1.131   3.089   4.058
 2466SOL    MW4 9896   1.151   3.067   4.139
 2467SOL     OW 9897   0.903   3.180   4.274
 2467SOL    HW2 9898   0.902   3.163   4.368
 2467SOL    HW3 9899   0.987   3.143   4.245
 2467SOL    MW4 9900   0.914   3.173   4.283
 2468SOL     OW 9901   0.883   3.452   4.213
 2468SOL    HW2 9902   0.894   3.362   4.242
 2468SOL    HW3 9903   0.887   3.447   4.117
 2468SOL    MW4 9904   0.885   3.440   4.204
 2469SOL     OW 9905   1.106   3.607   4.288
 2469SOL    HW2 9906   1.107   3.693   4.247
 2469SOL    HW3 9907   1.028   3.565   4.253
 2469SOL    MW4 9908   1.095   3.613   4.278
 2470SOL     OW 9909   1.093   3.851   4.154
 2470SOL    HW2 9910   1.180   3.885   4.173
 2470SOL    HW3 9911   1.033   3.908   4.202
 2470SOL    MW4 9912   1.096   3.863   4.163
 2471SOL     OW 9913   0.897   3.995   4.302
 2471SOL    HW2 9914   0.898   4.086   4.275
 2471SOL    HW3 9915   0.828   3.955   4.250
 2471SOL    MW4 9916   0.888   4.002   4.292
 2472SOL     OW 9917   0.902   4.257   4.185
 2472SOL    HW2 9918   0.980   4.304   4.214
 2472SOL    HW3 9919   0.829   4.312   4.215
 2472SOL    MW4 9920   0.902   4.271   4.193
 2473SOL     OW 9921   1.133   4.411   4.228
 2473SOL    HW2 9922   1.143   4.412   4.323
 2473SOL    HW3 9923   1.189   4.338   4.199
 2473SOL    MW4 9924   1.142   4.401   4.237
 2474SOL     OW 9925   1.589   4.653   4.138
 2474SOL    HW2 9926   1.662   4.696   4.182
 2474SOL    HW3 9927   1.511   4.689   4.180
 2474SOL    MW4 9928   1.589   4.663   4.149
 2475SOL     OW 9929   1.355   0.093   4.247
 2475SOL    HW2 9930   1.320   0.072   4.334
 2475SOL    HW3 9931   1.285   0.068   4.187
 2475SOL    MW4 9932   1.341   0.087   4.251
 2476SOL     OW 9933   1.349   0.349   4.149
 2476SOL    HW2 9934   1.426   0.400   4.174
 2476SOL    HW3 9935   1.364   0.263   4.189
 2476SOL    MW4 9936   1.361   0.344   4.157
 2477SOL     OW 9937   1.550   0.507   4.252
 2477SOL    HW2 9938   1.508   0.531   4.335
 2477SOL    HW3 9939   1.541   0.585   4.197
 2477SOL    MW4 9940   1.543   0.521   4.256
 2478SOL     OW 9941   1.550   0.736   4.105
 2478SOL    HW2 9942   1.619   0.783   4.152
 2478SOL    HW3 9943   1.564   0.757   4.013
 2478SOL    MW4 9944   1.561   0.745   4.099
 2479SOL     OW 9945   1.356   0.863   4.264
 2479SOL    HW2 9946   1.349   0.952   4.229
 2479SOL    HW3 9947   1.423   0.822   4.211
 2479SOL    MW4 9948   1.364   0.870   4.253
 2480SOL     OW 9949   1.337   1.131   4.161
 2480SOL    HW2 9950   1.258   1.178   4.188
 2480SOL    HW3 9951   1.338   1.138   4.066
 2480SOL    MW4 9952   1.327   1.138   4.152
 2481SOL     OW 9953   1.536   1.305   4.233
 2481SOL    HW2 9954   1.538   1.305   4.329
 2481SOL    HW3 9955   1.463   1.247   4.212
 2481SOL    MW4 9956   1.527   1.297   4.243
 2482SOL     OW 9957   1.589   1.561   4.143
 2482SOL    HW2 9958   1.520   1.611   4.188
 2482SOL    HW3 9959   1.573   1.470   4.169
 2482SOL    MW4 9960   1.578   1.556   4.152
 2483SOL     OW 9961   1.379   1.683   4.252
 2483SOL    HW2 9962   1.383   1.767   4.206
 2483SOL    HW3 9963   1.301   1.640   4.216
 2483SOL    MW4 9964   1.369   1.688   4.241
 2484SOL     OW 9965   1.357   1.914   4.102
 2484SOL    HW2 9966   1.432   1.964   4.134
 2484SOL    HW3 9967   1.280   1.960   4.138
 2484SOL    MW4 9968   1.356   1.927   4.111
 2485SOL     OW 9969   1.575   2.032   4.241
 2485SOL    HW2 9970   1.559   2.022   4.335
 2485SOL    HW3 9971   1.578   2.127   4.227
 2485SOL    MW4 9972   1.573   2.043   4.252
 2486SOL     OW 9973   1.543   2.320   4.189
 2486SOL    HW2 9974   1.617   2.371   4.223
 2486SOL    HW3 9975   1.562   2.311   4.095
 2486SOL    MW4 9976   1.555   2.326   4.181
 2487SOL     OW 9977   1.518   2.781   4.436
 2487SOL    HW2 9978   1.507   2.839   4.512
 2487SOL    HW3 9979   1.612   2.780   4.420
 2487SOL    MW4 9980   1.529   2.789   4.444
 2488SOL     OW 9981   1.348   2.717   4.157
 2488SOL    HW2 9982   1.404   2.762   4.220
 2488SOL    HW3 9983   1.259   2.729   4.191
 2488SOL    MW4 9984   1.344   2.724   4.170
 2489SOL     OW 9985   1.479   2.561   4.588
 2489SOL    HW2 9986   1.570   2.535   4.600
 2489SOL    HW3 9987   1.482   2.633   4.526
 2489SOL    MW4 9988   1.492   2.567   4.582
 2490SOL     OW 9989   1.614   3.064   4.160
 2490SOL    HW2 9990   1.677   3.113   4.215
 2490SOL    HW3 9991   1.653   2.977   4.152
 2490SOL    MW4 9992   1.628   3.059   4.166
 2491SOL     OW 9993   1.372   3.182   4.274
 2491SOL    HW2 9994   1.444   3.139   4.228
 2491SOL    HW3 9995   1.388   3.275   4.263
 2491SOL    MW4 9996   1.384   3.188   4.266
 2492SOL     OW 9997   1.346   3.482   4.164
 2492SOL    HW2 9998   1.276   3.518   4.218
 2492SOL    HW3 9999   1.310   3.480   4.076
 2492SOL    MW410000   1.332   3.486   4.160
 2493SOL     OW10001   1.583   3.594   4.276
 2493SOL    HW210002   1.554   3.587   4.367
 2493SOL    HW310003   1.507   3.568   4.224
 2493SOL    MW410004   1.569   3.590   4.281
 2494SOL     OW10005   1.592   3.846   4.186
 2494SOL    HW210006   1.502   3.859   4.217
 2494SOL    HW310007   1.613   3.756   4.211
 2494SOL    MW410008   1.583   3.836   4.193
 2495SOL     OW10009   1.339   3.951   4.217
 2495SOL    HW210010   1.326   3.954   4.312
 2495SOL    HW310011   1.333   4.042   4.189
 2495SOL    MW410012   1.337   3.963   4.226
 2496SOL     OW10013   1.312   4.214   4.160
 2496SOL    HW210014   1.378   4.260   4.212
 2496SOL    HW310015   1.332   4.237   4.069
 2496SOL    MW410016   1.324   4.223   4.155
 2497SOL     OW10017   1.517   4.391   4.259
 2497SOL    HW210018   1.519   4.482   4.228
 2497SOL    HW310019   1.600   4.354   4.231
 2497SOL    MW410020   1.528   4.398   4.251
 2498SOL     OW10021   2.010   4.634   4.172
 2498SOL    HW210022   1.940   4.684   4.214
 2498SOL    HW310023   1.994   4.646   4.078
 2498SOL    MW410024   1.999   4.642   4.165
 2499SOL     OW10025   1.775   0.095   4.303
 2499SOL    HW210026   1.789   0.088   4.398
 2499SOL    HW310027   1.801   0.185   4.281
 2499SOL    MW410028   1.780   0.106   4.313
 2500SOL     OW10029   1.783   0.363   4.185
 2500SOL    HW210030   1.861   0.418   4.191
 2500SOL    HW310031   1.716   0.410   4.235
 2500SOL    MW410032   1.784   0.376   4.192
 2501SOL     OW10033   2.000   0.525   4.222
 2501SOL    HW210034   2.003   0.543   4.316
 2501SOL    HW310035   2.081   0.479   4.203
 2501SOL    MW410036   2.011   0.521   4.232
 2502SOL     OW10037   1.989   0.772   4.107
 2502SOL    HW210038   2.063   0.804   4.159
 2502SOL    HW310039   1.976   0.682   4.137
 2502SOL    MW410040   1.997   0.764   4.118
 2503SOL     OW10041   1.751   0.837   4.255
 2503SOL    HW210042   1.737   0.931   4.255
 2503SOL    HW310043   1.826   0.823   4.197
 2503SOL    MW410044   1.759   0.848   4.248
 2504SOL     OW10045   1.724   1.107   4.183
 2504SOL    HW210046   1.808   1.145   4.210
 2504SOL    HW310047   1.659   1.173   4.207
 2504SOL    MW410048   1.727   1.121   4.190
 2505SOL     OW10049   1.968   1.238   4.224
 2505SOL    HW210050   2.048   1.188   4.206
 2505SOL    HW310051   1.992   1.329   4.210
 2505SOL    MW410052   1.982   1.244   4.220
 2506SOL     OW10053   2.032   1.518   4.215
 2506SOL    HW210054   2.123   1.545   4.232
 2506SOL    HW310055   2.016   1.544   4.124
 2506SOL    MW410056   2.042   1.525   4.205
 2507SOL     OW10057   1.807   1.666   4.284
 2507SOL    HW210058   1.881   1.612   4.259
 2507SOL    HW310059   1.730   1.620   4.249
 2507SOL    MW410060   1.806   1.653   4.276
 2508SOL     OW10061   1.800   1.917   4.127
 2508SOL    HW210062   1.812   1.829   4.163
 2508SOL    HW310063   1.727   1.954   4.176
 2508SOL    MW410064   1.792   1.910   4.138
 2509SOL     OW10065   1.771   2.421   4.313
 2509SOL    HW210066   1.843   2.453   4.258
 2509SOL    HW310067   1.811   2.351   4.366
 2509SOL    MW410068   1.786   2.416   4.313
 2510SOL     OW10069   2.133   2.334   4.175
 2510SOL    HW210070   2.099   2.248   4.199
 2510SOL    HW310071   2.126   2.337   4.080
 2510SOL    MW410072   2.127   2.323   4.166
 2511SOL     OW10073   1.800   2.731   4.390
 2511SOL    HW210074   1.848   2.658   4.351
 2511SOL    HW310075   1.868   2.791   4.420
 2511SOL    MW410076   1.815   2.729   4.389
 2512SOL     OW10077   1.762   2.840   4.140
 2512SOL    HW210078   1.775   2.811   4.230
 2512SOL    HW310079   1.846   2.881   4.116
 2512SOL    MW410080   1.775   2.842   4.149
 2513SOL     OW10081   2.049   3.091   4.357
 2513SOL    HW210082   2.048   3.010   4.408
 2513SOL    HW310083   2.043   3.062   4.266
 2513SOL    MW410084   2.048   3.076   4.351
 2514SOL     OW10085   2.237   2.828   4.119
 2514SOL    HW210086   2.331   2.837   4.132
 2514SOL    HW310087   2.205   2.789   4.200
 2514SOL    MW410088   2.245   2.824   4.131
 2515SOL     OW10089   1.794   3.195   4.343
 2515SOL    HW210090   1.800   3.274   4.291
 2515SOL    HW310091   1.885   3.163   4.347
 2515SOL    MW410092   1.807   3.201   4.337
 2516SOL     OW10093   1.773   3.438   4.177
 2516SOL    HW210094   1.702   3.496   4.206
 2516SOL    HW310095   1.773   3.446   4.082
 2516SOL    MW410096   1.764   3.447   4.168
 2517SOL     OW10097   2.002   3.577   4.277
 2517SOL    HW210098   1.991   3.669   4.252
 2517SOL    HW310099   1.926   3.533   4.239
 2517SOL    MW410100   1.990   3.584   4.269
 2518SOL     OW10101   1.977   3.846   4.201
 2518SOL    HW210102   1.908   3.895   4.245
 2518SOL    HW310103   1.971   3.874   4.110
 2518SOL    MW410104   1.967   3.856   4.195
 2519SOL     OW10105   1.792   4.007   4.306
 2519SOL    HW210106   1.768   4.087   4.258
 2519SOL    HW310107   1.721   3.946   4.286
 2519SOL    MW410108   1.779   4.010   4.297
 2520SOL     OW10109   1.756   4.251   4.189
 2520SOL    HW210110   1.835   4.282   4.233
 2520SOL    HW310111   1.779   4.251   4.096
 2520SOL    MW410112   1.769   4.255   4.183
 2521SOL     OW10113   1.971   4.370   4.310
 2521SOL    HW210114   2.001   4.355   4.400
 2521SOL    HW310115   1.979   4.465   4.298
 2521SOL    MW410116   1.976   4.380   4.320
 2522SOL     OW10117   2.450   4.640   4.178
 2522SOL    HW210118   2.517   4.694   4.220
 2522SOL    HW310119   2.446   4.560   4.230
 2522SOL    MW410120   2.458   4.637   4.191
 2523SOL     OW10121   2.220   0.136   4.278
 2523SOL    HW210122   2.297   0.104   4.230
 2523SOL    HW310123   2.148   0.084   4.243
 2523SOL    MW410124   2.221   0.125   4.267
 2524SOL     OW10125   2.244   0.392   4.148
 2524SOL    HW210126   2.236   0.300   4.171
 2524SOL    HW310127   2.242   0.393   4.052
 2524SOL    MW410128   2.243   0.380   4.139
 2525SOL     OW10129   2.444   0.493   4.292
 2525SOL    HW210130   2.427   0.457   4.379
 2525SOL    HW310131   2.382   0.448   4.235
 2525SOL    MW410132   2.433   0.483   4.296
 2526SOL     OW10133   2.400   0.753   4.169
 2526SOL    HW210134   2.393   0.667   4.210
 2526SOL    HW310135   2.408   0.734   4.076
 2526SOL    MW410136   2.400   0.739   4.162
 2527SOL     OW10137   2.171   0.867   4.276
 2527SOL    HW210138   2.156   0.848   4.368
 2527SOL    HW310139   2.252   0.820   4.255
 2527SOL    MW410140   2.180   0.858   4.285
 2528SOL     OW10141   2.202   1.112   4.125
 2528SOL    HW210142   2.271   1.153   4.177
 2528SOL    HW310143   2.186   1.028   4.167
 2528SOL    MW410144   2.209   1.106   4.137
 2529SOL     OW10145   2.432   1.263   4.219
 2529SOL    HW210146   2.425   1.279   4.313
 2529SOL    HW310147   2.516   1.219   4.208
 2529SOL    MW410148   2.442   1.259   4.230
 2530SOL     OW10149   2.477   1.526   4.129
 2530SOL    HW210150   2.497   1.433   4.139
 2530SOL    HW310151   2.440   1.533   4.041
 2530SOL    MW410152   2.474   1.515   4.119
 2531SOL     OW10153   2.269   1.643   4.288
 2531SOL    HW210154   2.342   1.613   4.233
 2531SOL    HW310155   2.246   1.729   4.252
 2531SOL    MW410156   2.276   1.651   4.276
 2532SOL     OW10157   2.226   1.911   4.201
 2532SOL    HW210158   2.301   1.952   4.245
 2532SOL    HW310159   2.152   1.968   4.222
 2532SOL    MW410160   2.226   1.924   4.210
 2533SOL     OW10161   2.417   2.052   4.333
 2533SOL    HW210162   2.415   2.011   4.419
 2533SOL    HW310163   2.491   2.011   4.289
 2533SOL    MW410164   2.427   2.041   4.338
 2534SOL     OW10165   2.510   2.441   4.178
 2534SOL    HW210166   2.521   2.380   4.250
 2534SOL    HW310167   2.493   2.386   4.101
 2534SOL    MW410168   2.509   2.426   4.177
 2535SOL     OW10169   2.468   2.401   4.567
 2535SOL    HW210170   2.392   2.415   4.510
 2535SOL    HW310171   2.507   2.488   4.577
 2535SOL    MW410172   2.463   2.414   4.561
 2536SOL     OW10173   1.998   2.574   4.251
 2536SOL    HW210174   2.061   2.624   4.303
 2536SOL    HW310175   2.048   2.500   4.218
 2536SOL    MW410176   2.013   2.571   4.254
 2537SOL     OW10177   2.457   2.692   4.294
 2537SOL    HW210178   2.459   2.613   4.241
 2537SOL    HW310179   2.365   2.702   4.319
 2537SOL    MW410180   2.445   2.683   4.291
 2538SOL     OW10181   2.511   3.093   4.149
 2538SOL    HW210182   2.592   3.140   4.169
 2538SOL    HW310183   2.473   3.074   4.235
 2538SOL    MW410184   2.516   3.097   4.163
 2539SOL     OW10185   2.004   2.987   4.091
 2539SOL    HW210186   2.012   3.047   4.018
 2539SOL    HW310187   2.083   2.933   4.087
 2539SOL    MW410188   2.015   2.987   4.081
 2540SOL     OW10189   2.213   3.426   4.119
 2540SOL    HW210190   2.243   3.365   4.187
 2540SOL    HW310191   2.152   3.484   4.164
 2540SOL    MW410192   2.209   3.425   4.134
 2541SOL     OW10193   2.461   3.552   4.232
 2541SOL    HW210194   2.396   3.506   4.180
 2541SOL    HW310195   2.464   3.641   4.195
 2541SOL    MW410196   2.453   3.558   4.220
 2542SOL     OW10197   2.435   3.824   4.146
 2542SOL    HW210198   2.509   3.882   4.166
 2542SOL    HW310199   2.418   3.838   4.053
 2542SOL    MW410200   2.443   3.834   4.137
 2543SOL     OW10201   2.212   3.990   4.261
 2543SOL    HW210202   2.287   3.937   4.236
 2543SOL    HW310203   2.137   3.932   4.250
 2543SOL    MW410204   2.212   3.975   4.257
 2544SOL     OW10205   2.197   4.256   4.193
 2544SOL    HW210206   2.195   4.161   4.205
 2544SOL    HW310207   2.113   4.286   4.227
 2544SOL    MW410208   2.186   4.247   4.199
 2545SOL     OW10209   2.419   4.390   4.322
 2545SOL    HW210210   2.492   4.344   4.279
 2545SOL    HW310211   2.341   4.349   4.285
 2545SOL    MW410212   2.419   4.378   4.311
 2546SOL     OW10213   2.900   4.659   4.179
 2546SOL    HW210214   2.985   4.684   4.216
 2546SOL    HW310215   2.882   4.572   4.217
 2546SOL    MW410216   2.909   4.651   4.189
 2547SOL     OW10217   2.679   0.105   4.317
 2547SOL    HW210218   2.691   0.198   4.299
 2547SOL    HW310219   2.753   0.062   4.274
 2547SOL    MW410220   2.690   0.112   4.309
 2548SOL     OW10221   2.675   0.369   4.190
 2548SOL    HW210222   2.602   0.422   4.221
 2548SOL    HW310223   2.659   0.358   4.096
 2548SOL    MW410224   2.664   0.374   4.182
 2549SOL     OW10225   2.922   0.522   4.202
 2549SOL    HW210226   2.898   0.615   4.198
 2549SOL    HW310227   2.841   0.475   4.182
 2549SOL    MW410228   2.908   0.528   4.199
 2550SOL     OW10229   2.843   0.798   4.143
 2550SOL    HW210230   2.927   0.836   4.167
 2550SOL    HW310231   2.851   0.780   4.049
 2550SOL    MW410232   2.855   0.801   4.134
 2551SOL     OW10233   2.617   0.895   4.286
 2551SOL    HW210234   2.692   0.844   4.254
 2551SOL    HW310235   2.540   0.847   4.256
 2551SOL    MW410236   2.617   0.882   4.278
 2552SOL     OW10237   2.676   1.140   4.184
 2552SOL    HW210238   2.655   1.050   4.207
 2552SOL    HW310239   2.680   1.140   4.088
 2552SOL    MW410240   2.673   1.129   4.174
 2553SOL     OW10241   2.899   1.286   4.268
 2553SOL    HW210242   2.975   1.243   4.228
 2553SOL    HW310243   2.825   1.231   4.245
 2553SOL    MW410244   2.899   1.273   4.260
 2554SOL     OW10245   2.909   1.545   4.167
 2554SOL    HW210246   2.996   1.573   4.197
 2554SOL    HW310247   2.897   1.458   4.206
 2554SOL    MW410248   2.919   1.537   4.176
 2555SOL     OW10249   2.681   1.665   4.233
 2555SOL    HW210250   2.761   1.623   4.202
 2555SOL    HW310251   2.610   1.612   4.196
 2555SOL    MW410252   2.682   1.652   4.224
 2556SOL     OW10253   2.609   1.933   4.182
 2556SOL    HW210254   2.634   1.849   4.221
 2556SOL    HW310255   2.627   1.923   4.088
 2556SOL    MW410256   2.614   1.921   4.175
 2557SOL     OW10257   2.889   2.055   4.272
 2557SOL    HW210258   2.905   2.144   4.243
 2557SOL    HW310259   2.802   2.033   4.237
 2557SOL    MW410260   2.879   2.064   4.264
 2558SOL     OW10261   2.945   2.310   4.197
 2558SOL    HW210262   3.027   2.351   4.225
 2558SOL    HW310263   2.891   2.383   4.168
 2558SOL    MW410264   2.949   2.325   4.197
 2559SOL     OW10265   2.781   2.529   4.142
 2559SOL    HW210266   2.691   2.497   4.153
 2559SOL    HW310267   2.802   2.571   4.225
 2559SOL    MW410268   2.772   2.530   4.154
 2560SOL     OW10269   2.590   2.828   4.103
 2560SOL    HW210270   2.555   2.772   4.172
 2560SOL    HW310271   2.566   2.917   4.130
 2560SOL    MW410272   2.582   2.832   4.115
 2561SOL     OW10273   2.873   2.890   4.114
 2561SOL    HW210274   2.780   2.872   4.100
 2561SOL    HW310275   2.888   2.972   4.067
 2561SOL    MW410276   2.863   2.899   4.106
 2562SOL     OW10277   2.905   3.056   4.341
 2562SOL    HW210278   2.877   3.007   4.418
 2562SOL    HW310279   2.903   2.992   4.270
 2562SOL    MW410280   2.901   3.042   4.341
 2563SOL     OW10281   2.720   3.252   4.258
 2563SOL    HW210282   2.690   3.278   4.346
 2563SOL    HW310283   2.790   3.190   4.274
 2563SOL    MW410284   2.725   3.247   4.272
 2564SOL     OW10285   2.712   3.494   4.115
 2564SOL    HW210286   2.735   3.409   4.154
 2564SOL    HW310287   2.624   3.513   4.149
 2564SOL    MW410288   2.703   3.485   4.125
 2565SOL     OW10289   2.912   3.657   4.184
 2565SOL    HW210290   2.916   3.658   4.280
 2565SOL    HW310291   2.830   3.612   4.164
 2565SOL    MW410292   2.902   3.651   4.194
 2566SOL     OW10293   2.908   3.927   4.130
 2566SOL    HW210294   2.990   3.963   4.165
 2566SOL    HW310295   2.906   3.837   4.163
 2566SOL    MW410296   2.919   3.920   4.139
 2567SOL     OW10297   2.651   3.997   4.183
 2567SOL    HW210298   2.641   4.092   4.192
 2567SOL    HW310299   2.746   3.983   4.179
 2567SOL    MW410300   2.663   4.008   4.184
 2568SOL     OW10301   2.622   4.280   4.199
 2568SOL    HW210302   2.699   4.320   4.239
 2568SOL    HW310303   2.638   4.287   4.104
 2568SOL    MW410304   2.635   4.286   4.191
 2569SOL     OW10305   2.879   4.401   4.279
 2569SOL    HW210306   2.889   4.373   4.370
 2569SOL    HW310307   2.961   4.373   4.237
 2569SOL    MW410308   2.891   4.393   4.285
 2570SOL     OW10309   3.395   0.024   4.209
 2570SOL    HW210310   3.479   0.052   4.247
 2570SOL    HW310311   3.380  -0.063   4.247
 2570SOL    MW410312   3.404   0.016   4.219
 2571SOL     OW10313   3.133   0.102   4.263
 2571SOL    HW210314   3.128   0.082   4.357
 2571SOL    HW310315   3.225   0.087   4.240
 2571SOL    MW410316   3.145   0.098   4.272
 2572SOL     OW10317   3.156   0.376   4.155
 2572SOL    HW210318   3.137   0.295   4.202
 2572SOL    HW310319   3.078   0.431   4.170
 2572SOL    MW410320   3.143   0.373   4.163
 2573SOL     OW10321   3.408   0.500   4.265
 2573SOL    HW210322   3.475   0.435   4.241
 2573SOL    HW310323   3.327   0.465   4.230
 2573SOL    MW410324   3.406   0.487   4.257
 2574SOL     OW10325   3.347   0.744   4.145
 2574SOL    HW210326   3.272   0.765   4.200
 2574SOL    HW310327   3.372   0.655   4.172
 2574SOL    MW410328   3.340   0.735   4.156
 2575SOL     OW10329   3.105   0.849   4.242
 2575SOL    HW210330   3.093   0.866   4.336
 2575SOL    HW310331   3.127   0.935   4.205
 2575SOL    MW410332   3.107   0.863   4.250
 2576SOL     OW10333   3.123   1.138   4.183
 2576SOL    HW210334   3.206   1.177   4.210
 2576SOL    HW310335   3.126   1.139   4.087
 2576SOL    MW410336   3.134   1.143   4.174
 2577SOL     OW10337   3.342   1.307   4.304
 2577SOL    HW210338   3.346   1.255   4.384
 2577SOL    HW310339   3.362   1.396   4.332
 2577SOL    MW410340   3.345   1.312   4.318
 2578SOL     OW10341   3.434   1.544   4.434
 2578SOL    HW210342   3.513   1.582   4.473
 2578SOL    HW310343   3.362   1.599   4.467
 2578SOL    MW410344   3.435   1.557   4.444
 2579SOL     OW10345   3.152   1.651   4.238
 2579SOL    HW210346   3.187   1.656   4.327
 2579SOL    HW310347   3.153   1.741   4.206
 2579SOL    MW410348   3.157   1.663   4.245
 2580SOL     OW10349   3.106   1.941   4.131
 2580SOL    HW210350   3.184   1.989   4.158
 2580SOL    HW310351   3.036   1.974   4.188
 2580SOL    MW410352   3.107   1.951   4.142
 2581SOL     OW10353   3.322   2.075   4.247
 2581SOL    HW210354   3.403   2.036   4.215
 2581SOL    HW310355   3.327   2.167   4.221
 2581SOL    MW410356   3.333   2.082   4.239
 2582SOL     OW10357   3.342   2.335   4.142
 2582SOL    HW210358   3.428   2.368   4.169
 2582SOL    HW310359   3.346   2.336   4.046
 2582SOL    MW410360   3.354   2.340   4.133
 2583SOL     OW10361   3.147   2.476   4.283
 2583SOL    HW210362   3.128   2.556   4.234
 2583SOL    HW310363   3.224   2.439   4.239
 2583SOL    MW410364   3.155   2.482   4.271
 2584SOL     OW10365   3.088   2.720   4.135
 2584SOL    HW210366   3.150   2.764   4.193
 2584SOL    HW310367   3.005   2.763   4.151
 2584SOL    MW410368   3.086   2.731   4.145
 2585SOL     OW10369   3.314   2.876   4.278
 2585SOL    HW210370   3.380   2.836   4.221
 2585SOL    HW310371   3.326   2.970   4.265
 2585SOL    MW410372   3.325   2.883   4.268
 2586SOL     OW10373   3.405   3.133   4.218
 2586SOL    HW210374   3.321   3.170   4.246
 2586SOL    HW310375   3.391   3.107   4.127
 2586SOL    MW410376   3.392   3.134   4.210
 2587SOL     OW10377   3.143   3.224   4.296
 2587SOL    HW210378   3.104   3.294   4.244
 2587SOL    HW310379   3.069   3.170   4.323
 2587SOL    MW410380   3.128   3.226   4.292
 2588SOL     OW10381   3.072   3.448   4.144
 2588SOL    HW210382   3.003   3.512   4.160
 2588SOL    HW310383   3.093   3.458   4.051
 2588SOL    MW410384   3.066   3.458   4.134
 2589SOL     OW10385   3.303   3.596   4.205
 2589SOL    HW210386   3.323   3.575   4.296
 2589SOL    HW310387   3.214   3.564   4.192
 2589SOL    MW410388   3.293   3.589   4.215
 2590SOL     OW10389   3.310   3.865   4.129
 2590SOL    HW210390   3.307   3.772   4.150
 2590SOL    HW310391   3.297   3.869   4.034
 2590SOL    MW410392   3.308   3.853   4.119
 2591SOL     OW10393   3.134   4.049   4.253
 2591SOL    HW210394   3.137   4.001   4.336
 2591SOL    HW310395   3.205   4.012   4.201
 2591SOL    MW410396   3.144   4.038   4.257
 2592SOL     OW10397   3.119   4.319   4.159
 2592SOL    HW210398   3.188   4.382   4.180
 2592SOL    HW310399   3.133   4.247   4.220
 2592SOL    MW410400   3.130   4.318   4.170
 2593SOL     OW10401   3.355   4.442   4.253
 2593SOL    HW210402   3.394   4.403   4.331
 2593SOL    HW310403   3.408   4.410   4.181
 2593SOL    MW410404   3.367   4.433   4.254
 2594SOL     OW10405   3.789   4.643   4.158
 2594SOL    HW210406   3.863   4.700   4.180
 2594SOL    HW310407   3.783   4.648   4.062
 2594SOL    MW410408   3.798   4.651   4.148
 2595SOL     OW10409   3.627   0.103   4.340
 2595SOL    HW210410   3.622   0.194   4.311
 2595SOL    HW310411   3.672   0.057   4.270
 2595SOL    MW410412   3.632   0.109   4.327
 2596SOL     OW10413   3.615   0.325   4.190
 2596SOL    HW210414   3.703   0.363   4.192
 2596SOL    HW310415   3.592   0.321   4.097
 2596SOL    MW410416   3.623   0.329   4.178
 2597SOL     OW10417   3.824   0.497   4.256
 2597SOL    HW210418   3.811   0.491   4.351
 2597SOL    HW310419   3.789   0.583   4.233
 2597SOL    MW410420   3.818   0.507   4.266
 2598SOL     OW10421   3.753   0.752   4.152
 2598SOL    HW210422   3.684   0.811   4.182
 2598SOL    HW310423   3.744   0.752   4.057
 2598SOL    MW410424   3.743   0.760   4.143
 2599SOL     OW10425   3.549   0.905   4.244
 2599SOL    HW210426   3.535   0.995   4.216
 2599SOL    HW310427   3.474   0.856   4.209
 2599SOL    MW410428   3.537   0.910   4.235
 2600SOL     OW10429   3.519   1.164   4.132
 2600SOL    HW210430   3.459   1.233   4.162
 2600SOL    HW310431   3.522   1.176   4.037
 2600SOL    MW410432   3.511   1.175   4.123
 2601SOL     OW10433   3.767   1.264   4.274
 2601SOL    HW210434   3.696   1.227   4.222
 2601SOL    HW310435   3.762   1.359   4.258
 2601SOL    MW410436   3.757   1.272   4.265
 2602SOL     OW10437   3.743   1.497   4.160
 2602SOL    HW210438   3.817   1.556   4.174
 2602SOL    HW310439   3.666   1.554   4.160
 2602SOL    MW410440   3.742   1.512   4.162
 2603SOL     OW10441   3.554   1.933   4.150
 2603SOL    HW210442   3.557   1.956   4.057
 2603SOL    HW310443   3.528   1.841   4.151
 2603SOL    MW410444   3.551   1.924   4.138
 2604SOL     OW10445   3.451   1.665   4.135
 2604SOL    HW210446   3.369   1.653   4.183
 2604SOL    HW310447   3.433   1.628   4.048
 2604SOL    MW410448   3.437   1.659   4.130
 2605SOL     OW10449   3.786   2.082   4.254
 2605SOL    HW210450   3.787   2.108   4.346
 2605SOL    HW310451   3.714   2.019   4.247
 2605SOL    MW410452   3.777   2.077   4.265
 2606SOL     OW10453   3.790   2.340   4.197
 2606SOL    HW210454   3.782   2.246   4.211
 2606SOL    HW310455   3.806   2.350   4.103
 2606SOL    MW410456   3.791   2.329   4.187
 2607SOL     OW10457   3.563   2.475   4.249
 2607SOL    HW210458   3.545   2.480   4.343
 2607SOL    HW310459   3.645   2.426   4.242
 2607SOL    MW410460   3.571   2.469   4.260
 2608SOL     OW10461   3.517   2.745   4.122
 2608SOL    HW210462   3.542   2.672   4.179
 2608SOL    HW310463   3.537   2.714   4.033
 2608SOL    MW410464   3.523   2.731   4.118
 2609SOL     OW10465   3.767   2.858   4.221
 2609SOL    HW210466   3.763   2.890   4.311
 2609SOL    HW310467   3.679   2.827   4.203
 2609SOL    MW410468   3.755   2.858   4.231
 2610SOL     OW10469   3.843   3.119   4.127
 2610SOL    HW210470   3.827   3.034   4.166
 2610SOL    HW310471   3.822   3.107   4.034
 2610SOL    MW410472   3.838   3.106   4.120
 2611SOL     OW10473   3.635   3.305   4.205
 2611SOL    HW210474   3.710   3.254   4.177
 2611SOL    HW310475   3.562   3.243   4.206
 2611SOL    MW410476   3.635   3.290   4.202
 2612SOL     OW10477   3.598   3.571   4.166
 2612SOL    HW210478   3.615   3.477   4.161
 2612SOL    HW310479   3.503   3.578   4.175
 2612SOL    MW410480   3.588   3.559   4.166
 2613SOL     OW10481   3.816   3.698   4.284
 2613SOL    HW210482   3.888   3.649   4.243
 2613SOL    HW310483   3.737   3.658   4.248
 2613SOL    MW410484   3.815   3.686   4.274
 2614SOL     OW10485   3.795   3.935   4.131
 2614SOL    HW210486   3.707   3.973   4.133
 2614SOL    HW310487   3.792   3.865   4.196
 2614SOL    MW410488   3.783   3.931   4.140
 2615SOL     OW10489   3.546   4.058   4.175
 2615SOL    HW210490   3.548   4.043   4.269
 2615SOL    HW310491   3.477   3.999   4.143
 2615SOL    MW410492   3.537   4.048   4.183
 2616SOL     OW10493   3.557   4.318   4.092
 2616SOL    HW210494   3.640   4.330   4.137
 2616SOL    HW310495   3.529   4.229   4.114
 2616SOL    MW410496   3.564   4.308   4.101
 2617SOL     OW10497   3.793   4.376   4.226
 2617SOL    HW210498   3.880   4.348   4.195
 2617SOL    HW310499   3.790   4.470   4.206
 2617SOL    MW410500   3.804   4.385   4.219
 2618SOL     OW10501   4.235   4.654   4.148
 2618SOL    HW210502   4.255   4.566   4.180
 2618SOL    HW310503   4.311   4.707   4.171
 2618SOL    MW410504   4.247   4.650   4.155
 2619SOL     OW10505   4.010   0.105   4.266
 2619SOL    HW210506   4.012   0.187   4.215
 2619SOL    HW310507   4.079   0.051   4.226
 2619SOL    MW410508   4.020   0.109   4.254
 2620SOL     OW10509   4.035   0.365   4.157
 2620SOL    HW210510   4.116   0.392   4.199
 2620SOL    HW310511   3.970   0.427   4.189
 2620SOL    MW410512   4.037   0.377   4.167
 2621SOL     OW10513   4.240   0.500   4.293
 2621SOL    HW210514   4.242   0.591   4.264
 2621SOL    HW310515   4.320   0.461   4.258
 2621SOL    MW410516   4.251   0.507   4.285
 2622SOL     OW10517   4.255   0.774   4.181
 2622SOL    HW210518   4.170   0.815   4.199
 2622SOL    HW310519   4.268   0.786   4.087
 2622SOL    MW410520   4.245   0.781   4.171
 2623SOL     OW10521   3.999   0.861   4.251
 2623SOL    HW210522   3.996   0.952   4.220
 2623SOL    HW310523   3.919   0.822   4.217
 2623SOL    MW410524   3.988   0.868   4.242
 2624SOL     OW10525   4.002   1.134   4.168
 2624SOL    HW210526   4.082   1.181   4.192
 2624SOL    HW310527   3.933   1.175   4.220
 2624SOL    MW410528   4.004   1.145   4.178
 2625SOL     OW10529   4.240   1.266   4.240
 2625SOL    HW210530   4.244   1.276   4.335
 2625SOL    HW310531   4.324   1.226   4.216
 2625SOL    MW410532   4.251   1.262   4.249
 2626SOL     OW10533   4.216   1.535   4.164
 2626SOL    HW210534   4.204   1.445   4.194
 2626SOL    HW310535   4.245   1.527   4.073
 2626SOL    MW410536   4.218   1.522   4.156
 2627SOL     OW10537   3.978   1.666   4.199
 2627SOL    HW210538   3.961   1.676   4.293
 2627SOL    HW310539   4.065   1.628   4.194
 2627SOL    MW410540   3.987   1.663   4.211
 2628SOL     OW10541   3.996   1.940   4.136
 2628SOL    HW210542   3.985   1.852   4.171
 2628SOL    HW310543   3.923   1.989   4.174
 2628SOL    MW410544   3.985   1.935   4.146
 2629SOL     OW10545   4.459   1.938   4.149
 2629SOL    HW210546   4.540   1.980   4.179
 2629SOL    HW310547   4.394   2.008   4.152
 2629SOL    MW410548   4.461   1.953   4.154
 2630SOL     OW10549   4.233   2.354   4.147
 2630SOL    HW210550   4.164   2.414   4.177
 2630SOL    HW310551   4.215   2.272   4.193
 2630SOL    MW410552   4.221   2.351   4.157
 2631SOL     OW10553   4.024   2.505   4.243
 2631SOL    HW210554   4.054   2.527   4.331
 2631SOL    HW310555   3.956   2.439   4.257
 2631SOL    MW410556   4.019   2.499   4.257
 2632SOL     OW10557   3.997   2.748   4.119
 2632SOL    HW210558   3.993   2.656   4.144
 2632SOL    HW310559   3.915   2.785   4.151
 2632SOL    MW410560   3.986   2.741   4.126
 2633SOL     OW10561   4.191   2.897   4.241
 2633SOL    HW210562   4.132   2.865   4.173
 2633SOL    HW310563   4.277   2.861   4.217
 2633SOL    MW410564   4.195   2.888   4.229
 2634SOL     OW10565   4.253   3.146   4.151
 2634SOL    HW210566   4.224   3.063   4.190
 2634SOL    HW310567   4.236   3.135   4.058
 2634SOL    MW410568   4.247   3.133   4.144
 2635SOL     OW10569   4.037   3.275   4.247
 2635SOL    HW210570   4.118   3.248   4.203
 2635SOL    HW310571   3.967   3.232   4.198
 2635SOL    MW410572   4.039   3.266   4.235
 2636SOL     OW10573   4.020   3.545   4.184
 2636SOL    HW210574   4.002   3.453   4.205
 2636SOL    HW310575   4.010   3.550   4.089
 2636SOL    MW410576   4.016   3.534   4.174
 2637SOL     OW10577   4.284   3.618   4.222
 2637SOL    HW210578   4.275   3.705   4.182
 2637SOL    HW310579   4.194   3.585   4.225
 2637SOL    MW410580   4.271   3.625   4.217
 2638SOL     OW10581   4.269   3.869   4.099
 2638SOL    HW210582   4.198   3.926   4.130
 2638SOL    HW310583   4.262   3.875   4.003
 2638SOL    MW410584   4.259   3.877   4.090
 2639SOL     OW10585   4.058   4.044   4.170
 2639SOL    HW210586   4.053   4.025   4.264
 2639SOL    HW310587   3.976   4.011   4.134
 2639SOL    MW410588   4.046   4.037   4.178
 2640SOL     OW10589   4.059   4.330   4.133
 2640SOL    HW210590   4.133   4.368   4.181
 2640SOL    HW310591   4.070   4.236   4.144
 2640SOL    MW410592   4.071   4.323   4.141
 2641SOL     OW10593   4.031   4.279   4.557
 2641SOL    HW210594   4.015   4.238   4.643
 2641SOL    HW310595   3.947   4.320   4.534
 2641SOL    MW410596   4.018   4.279   4.565
 2642SOL     OW10597   4.266   0.259   4.845
 2642SOL    HW210598   4.340   0.307   4.807
 2642SOL    HW310599   4.191   0.317   4.834
 2642SOL    MW410600   4.266   0.273   4.839
 2643SOL     OW10601   4.257   4.470   4.573
 2643SOL    HW210602   4.240   4.561   4.598
 2643SOL    HW310603   4.170   4.432   4.562
 2643SOL    MW410604   4.243   4.477   4.575
 2644SOL     OW10605   3.997   0.148   4.550
 2644SOL    HW210606   4.014   0.138   4.456
 2644SOL    HW310607   3.917   0.097   4.565
 2644SOL    MW410608   3.988   0.140   4.539
 2645SOL     OW10609   4.214   1.671   4.761
 2645SOL    HW210610   4.301   1.638   4.738
 2645SOL    HW310611   4.154   1.602   4.731
 2645SOL    MW410612   4.217   1.658   4.754
 2646SOL     OW10613   0.413   0.054   4.518
 2646SOL    HW210614   0.345  -0.013   4.524
 2646SOL    HW310615   0.494   0.006   4.535
 2646SOL    MW410616   0.415   0.039   4.521
 2647SOL     OW10617   0.285   0.765   4.646
 2647SOL    HW210618   0.216   0.822   4.613
 2647SOL    HW310619   0.254   0.676   4.631
 2647SOL    MW410620   0.272   0.761   4.640
 2648SOL     OW10621   4.305   0.830   4.605
 2648SOL    HW210622   4.308   0.734   4.602
 2648SOL    HW310623   4.396   0.857   4.591
 2648SOL    MW410624   4.317   0.821   4.603
 2649SOL     OW10625   0.598   1.494   4.615
 2649SOL    HW210626   0.663   1.562   4.631
 2649SOL    HW310627   0.514   1.535   4.636
 2649SOL    MW410628   0.596   1.508   4.620
 2650SOL     OW10629   1.061   2.007   4.713
 2650SOL    HW210630   1.111   2.041   4.639
 2650SOL    HW310631   1.059   2.078   4.776
 2650SOL    MW410632   1.067   2.021   4.712
 2651SOL     OW10633   4.242   1.349   4.501
 2651SOL    HW210634   4.252   1.266   4.547
 2651SOL    HW310635   4.313   1.404   4.534
 2651SOL    MW410636   4.252   1.345   4.511
 2652SOL     OW10637   0.203   1.859   4.554
 2652SOL    HW210638   0.114   1.829   4.533
 2652SOL    HW310639   0.193   1.952   4.572
 2652SOL    MW410640   0.190   1.867   4.553
 2653SOL     OW10641   0.395   1.647   4.306
 2653SOL    HW210642   0.329   1.606   4.251
 2653SOL    HW310643   0.479   1.618   4.269
 2653SOL    MW410644   0.398   1.638   4.294
 2654SOL     OW10645   0.176   2.141   4.528
 2654SOL    HW210646   0.248   2.200   4.551
 2654SOL    HW310647   0.097   2.186   4.556
 2654SOL    MW410648   0.175   2.154   4.534
 2655SOL     OW10649   3.981   2.380   4.569
 2655SOL    HW210650   4.032   2.336   4.636
 2655SOL    HW310651   4.031   2.460   4.549
 2655SOL    MW410652   3.994   2.385   4.575
 2656SOL     OW10653   0.391   2.834   4.516
 2656SOL    HW210654   0.375   2.815   4.423
 2656SOL    HW310655   0.426   2.752   4.551
 2656SOL    MW410656   0.394   2.821   4.508
 2657SOL     OW10657   0.336   3.272   4.531
 2657SOL    HW210658   0.405   3.207   4.549
 2657SOL    HW310659   0.353   3.343   4.593
 2657SOL    MW410660   0.348   3.273   4.541
 2658SOL     OW10661   4.402   2.555   4.476
 2658SOL    HW210662   4.412   2.529   4.384
 2658SOL    HW310663   4.477   2.613   4.492
 2658SOL    MW410664   4.414   2.559   4.466
 2659SOL     OW10665   4.315   3.406   4.614
 2659SOL    HW210666   4.371   3.328   4.608
 2659SOL    HW310667   4.226   3.372   4.599
 2659SOL    MW410668   4.311   3.391   4.611
 2660SOL     OW10669   0.374   3.541   4.659
 2660SOL    HW210670   0.357   3.587   4.741
 2660SOL    HW310671   0.307   3.573   4.599
 2660SOL    MW410672   0.363   3.551   4.662
 2661SOL     OW10673   4.345   3.930   4.480
 2661SOL    HW210674   4.256   3.964   4.469
 2661SOL    HW310675   4.332   3.842   4.515
 2661SOL    MW410676   4.331   3.923   4.483
 2662SOL     OW10677   4.454   0.130   4.512
 2662SOL    HW210678   4.379   0.102   4.566
 2662SOL    HW310679   4.471   0.219   4.541
 2662SOL    MW410680   4.446   0.138   4.523
 2663SOL     OW10681   3.815   0.532   4.547
 2663SOL    HW210682   3.756   0.476   4.597
 2663SOL    HW310683   3.802   0.620   4.584
 2663SOL    MW410684   3.805   0.536   4.558
 2664SOL     OW10685   4.193   3.843   4.755
 2664SOL    HW210686   4.235   3.920   4.794
 2664SOL    HW310687   4.222   3.769   4.809
 2664SOL    MW410688   4.202   3.843   4.768
 2665SOL     OW10689   3.948   4.143   4.805
 2665SOL    HW210690   4.001   4.064   4.799
 2665SOL    HW310691   3.872   4.126   4.749
 2665SOL    MW410692   3.945   4.131   4.797
 2666SOL     OW10693   0.646   4.565   4.534
 2666SOL    HW210694   0.671   4.548   4.443
 2666SOL    HW310695   0.700   4.640   4.560
 2666SOL    MW410696   0.657   4.573   4.525
 2667SOL     OW10697   4.284   1.105   4.627
 2667SOL    HW210698   4.285   1.011   4.612
 2667SOL    HW310699   4.298   1.115   4.721
 2667SOL    MW410700   4.286   1.094   4.638
 2668SOL     OW10701   1.183   0.922   4.681
 2668SOL    HW210702   1.188   0.856   4.750
 2668SOL    HW310703   1.112   0.893   4.625
 2668SOL    MW410704   1.175   0.910   4.683
 2669SOL     OW10705   0.462   0.345   4.614
 2669SOL    HW210706   0.477   0.267   4.562
 2669SOL    HW310707   0.470   0.316   4.705
 2669SOL    MW410708   0.465   0.331   4.620
 2670SOL     OW10709   0.931   0.838   4.561
 2670SOL    HW210710   0.944   0.856   4.467
 2670SOL    HW310711   0.869   0.904   4.589
 2670SOL    MW410712   0.925   0.849   4.552
 2671SOL     OW10713   0.475   0.960   4.544
 2671SOL    HW210714   0.441   0.883   4.588
 2671SOL    HW310715   0.457   0.944   4.451
 2671SOL    MW410716   0.468   0.948   4.537
 2672SOL     OW10717   1.949   1.198   4.504
 2672SOL    HW210718   1.948   1.217   4.410
 2672SOL    HW310719   2.016   1.256   4.539
 2672SOL    MW410720   1.958   1.208   4.496
 2673SOL     OW10721   0.347   1.628   4.599
 2673SOL    HW210722   0.308   1.715   4.592
 2673SOL    HW310723   0.411   1.625   4.529
 2673SOL    MW410724   0.350   1.639   4.589
 2674SOL     OW10725   1.249   1.169   4.565
 2674SOL    HW210726   1.237   1.092   4.621
 2674SOL    HW310727   1.165   1.216   4.570
 2674SOL    MW410728   1.236   1.165   4.573
 2675SOL     OW10729   0.982   1.617   4.521
 2675SOL    HW210730   0.908   1.650   4.571
 2675SOL    HW310731   1.059   1.651   4.568
 2675SOL    MW410732   0.983   1.626   4.534
 2676SOL     OW10733   0.652   2.177   4.563
 2676SOL    HW210734   0.726   2.236   4.550
 2676SOL    HW310735   0.689   2.104   4.613
 2676SOL    MW410736   0.667   2.175   4.568
 2677SOL     OW10737   1.167   1.753   4.677
 2677SOL    HW210738   1.249   1.751   4.627
 2677SOL    HW310739   1.154   1.846   4.697
 2677SOL    MW410740   1.176   1.765   4.673
 2678SOL     OW10741   0.397   2.297   4.530
 2678SOL    HW210742   0.474   2.243   4.548
 2678SOL    HW310743   0.423   2.351   4.455
 2678SOL    MW410744   0.411   2.297   4.522
 2679SOL     OW10745   1.083   2.662   4.674
 2679SOL    HW210746   1.088   2.736   4.614
 2679SOL    HW310747   1.162   2.669   4.727
 2679SOL    MW410748   1.094   2.672   4.673
 2680SOL     OW10749   0.774   2.627   4.618
 2680SOL    HW210750   0.847   2.625   4.679
 2680SOL    HW310751   0.780   2.545   4.569
 2680SOL    MW410752   0.784   2.616   4.619
 2681SOL     OW10753   0.972   3.272   4.572
 2681SOL    HW210754   0.877   3.273   4.575
 2681SOL    HW310755   0.998   3.233   4.656
 2681SOL    MW410756   0.963   3.267   4.584
 2682SOL     OW10757   0.689   3.289   4.574
 2682SOL    HW210758   0.655   3.378   4.566
 2682SOL    HW310759   0.611   3.235   4.583
 2682SOL    MW410760   0.674   3.294   4.574
 2683SOL     OW10761   1.262   0.010   4.486
 2683SOL    HW210762   1.220  -0.076   4.482
 2683SOL    HW310763   1.344  -0.006   4.533
 2683SOL    MW410764   1.267  -0.003   4.492
 2684SOL     OW10765   0.129   2.723   4.511
 2684SOL    HW210766   0.213   2.756   4.543
 2684SOL    HW310767   0.115   2.769   4.428
 2684SOL    MW410768   0.139   2.733   4.505
 2685SOL     OW10769   4.380   3.653   4.480
 2685SOL    HW210770   4.372   3.566   4.520
 2685SOL    HW310771   4.346   3.641   4.391
 2685SOL    MW410772   4.374   3.640   4.474
 2686SOL     OW10773   1.124   3.741   4.716
 2686SOL    HW210774   1.052   3.795   4.684
 2686SOL    HW310775   1.114   3.657   4.670
 2686SOL    MW410776   1.113   3.737   4.706
 2687SOL     OW10777   0.012   4.351   4.574
 2687SOL    HW210778   0.016   4.255   4.569
 2687SOL    HW310779  -0.081   4.372   4.570
 2687SOL    MW410780   0.000   4.341   4.573
 2688SOL     OW10781   0.034   4.058   4.643
 2688SOL    HW210782   0.118   4.013   4.641
 2688SOL    HW310783  -0.026   4.000   4.597
 2688SOL    MW410784   0.037   4.045   4.637
 2689SOL     OW10785   0.152   4.567   4.461
 2689SOL    HW210786   0.082   4.631   4.469
 2689SOL    HW310787   0.119   4.489   4.504
 2689SOL    MW410788   0.139   4.566   4.468
 2690SOL     OW10789   0.763   0.133   4.631
 2690SOL    HW210790   0.758   0.213   4.578
 2690SOL    HW310791   0.851   0.136   4.670
 2690SOL    MW410792   0.774   0.144   4.629
 2691SOL     OW10793   1.164   4.392   4.517
 2691SOL    HW210794   1.243   4.345   4.543
 2691SOL    HW310795   1.093   4.348   4.565
 2691SOL    MW410796   1.165   4.380   4.527
 2692SOL     OW10797   0.733   0.396   4.540
 2692SOL    HW210798   0.714   0.436   4.456
 2692SOL    HW310799   0.650   0.400   4.588
 2692SOL    MW410800   0.719   0.401   4.535
 2693SOL     OW10801   1.411   0.863   4.533
 2693SOL    HW210802   1.378   0.866   4.443
 2693SOL    HW310803   1.335   0.886   4.587
 2693SOL    MW410804   1.396   0.866   4.528
 2694SOL     OW10805   1.638   0.931   4.686
 2694SOL    HW210806   1.701   0.877   4.638
 2694SOL    HW310807   1.554   0.913   4.644
 2694SOL    MW410808   1.635   0.922   4.674
 2695SOL     OW10809   0.264   1.121   4.653
 2695SOL    HW210810   0.338   1.080   4.608
 2695SOL    HW310811   0.252   1.069   4.732
 2695SOL    MW410812   0.272   1.109   4.658
 2696SOL     OW10813   0.782   1.967   4.676
 2696SOL    HW210814   0.878   1.974   4.671
 2696SOL    HW310815   0.764   1.959   4.770
 2696SOL    MW410816   0.792   1.967   4.688
 2697SOL     OW10817   0.743   1.255   4.542
 2697SOL    HW210818   0.695   1.319   4.594
 2697SOL    HW310819   0.737   1.173   4.591
 2697SOL    MW410820   0.736   1.253   4.555
 2698SOL     OW10821   1.731   1.203   4.679
 2698SOL    HW210822   1.710   1.110   4.675
 2698SOL    HW310823   1.797   1.216   4.610
 2698SOL    MW410824   1.737   1.192   4.669
 2699SOL     OW10825   1.004   1.333   4.542
 2699SOL    HW210826   0.916   1.296   4.553
 2699SOL    HW310827   0.990   1.428   4.549
 2699SOL    MW410828   0.990   1.341   4.545
 2700SOL     OW10829   1.063   2.401   4.632
 2700SOL    HW210830   1.060   2.496   4.640
 2700SOL    HW310831   1.144   2.383   4.584
 2700SOL    MW410832   1.073   2.411   4.627
 2701SOL     OW10833   1.506   2.783   5.020
 2701SOL    HW210834   1.549   2.798   5.104
 2701SOL    HW310835   1.576   2.795   4.955
 2701SOL    MW410836   1.521   2.786   5.022
 2702SOL     OW10837   1.478   2.926   4.674
 2702SOL    HW210838   1.559   2.914   4.724
 2702SOL    HW310839   1.421   2.855   4.704
 2702SOL    MW410840   1.481   2.915   4.685
 2703SOL     OW10841   1.383   3.371   4.568
 2703SOL    HW210842   1.342   3.285   4.560
 2703SOL    HW310843   1.310   3.433   4.570
 2703SOL    MW410844   1.368   3.368   4.567
 2704SOL     OW10845   0.765   2.901   4.478
 2704SOL    HW210846   0.857   2.912   4.502
 2704SOL    HW310847   0.735   2.827   4.532
 2704SOL    MW410848   0.773   2.893   4.488
 2705SOL     OW10849   0.524   4.009   4.583
 2705SOL    HW210850   0.542   4.098   4.614
 2705SOL    HW310851   0.510   4.019   4.489
 2705SOL    MW410852   0.524   4.022   4.575
 2706SOL     OW10853   1.068   2.913   4.493
 2706SOL    HW210854   1.078   2.877   4.404
 2706SOL    HW310855   1.140   2.975   4.502
 2706SOL    MW410856   1.079   2.916   4.482
 2707SOL     OW10857   0.514   3.073   4.592
 2707SOL    HW210858   0.459   2.995   4.587
 2707SOL    HW310859   0.604   3.039   4.586
 2707SOL    MW410860   0.519   3.058   4.591
 2708SOL     OW10861   1.530   3.604   4.566
 2708SOL    HW210862   1.623   3.588   4.585
 2708SOL    HW310863   1.489   3.517   4.572
 2708SOL    MW410864   1.537   3.590   4.569
 2709SOL     OW10865   0.617   3.589   4.542
 2709SOL    HW210866   0.662   3.667   4.572
 2709SOL    HW310867   0.540   3.582   4.598
 2709SOL    MW410868   0.612   3.598   4.553
 2710SOL     OW10869   0.262   3.883   4.640
 2710SOL    HW210870   0.354   3.902   4.625
 2710SOL    HW310871   0.239   3.819   4.572
 2710SOL    MW410872   0.271   3.877   4.629
 2711SOL     OW10873   0.951   4.246   4.640
 2711SOL    HW210874   0.860   4.261   4.666
 2711SOL    HW310875   0.955   4.152   4.621
 2711SOL    MW410876   0.939   4.236   4.641
 2712SOL     OW10877   0.650   4.288   4.670
 2712SOL    HW210878   0.635   4.330   4.755
 2712SOL    HW310879   0.620   4.352   4.606
 2712SOL    MW410880   0.644   4.302   4.673
 2713SOL     OW10881   2.160   3.834   4.648
 2713SOL    HW210882   2.148   3.752   4.601
 2713SOL    HW310883   2.095   3.831   4.718
 2713SOL    MW410884   2.150   3.823   4.651
 2714SOL     OW10885   1.511   4.626   4.634
 2714SOL    HW210886   1.507   4.626   4.730
 2714SOL    HW310887   1.563   4.548   4.612
 2714SOL    MW410888   1.517   4.615   4.644
 2715SOL     OW10889   1.396   4.234   4.556
 2715SOL    HW210890   1.472   4.271   4.512
 2715SOL    HW310891   1.432   4.178   4.625
 2715SOL    MW410892   1.410   4.231   4.559
 2716SOL     OW10893   0.940   0.553   4.644
 2716SOL    HW210894   0.915   0.638   4.609
 2716SOL    HW310895   0.878   0.491   4.604
 2716SOL    MW410896   0.928   0.556   4.634
 2717SOL     OW10897   1.828   0.065   4.589
 2717SOL    HW210898   1.755   0.008   4.613
 2717SOL    HW310899   1.903   0.005   4.585
 2717SOL    MW410900   1.828   0.049   4.591
 2718SOL     OW10901   1.178   0.442   4.516
 2718SOL    HW210902   1.111   0.499   4.553
 2718SOL    HW310903   1.141   0.354   4.522
 2718SOL    MW410904   1.164   0.438   4.522
 2719SOL     OW10905   1.811   1.644   4.571
 2719SOL    HW210906   1.742   1.582   4.596
 2719SOL    HW310907   1.799   1.658   4.477
 2719SOL    MW410908   1.801   1.637   4.562
 2720SOL     OW10909   0.717   1.001   4.677
 2720SOL    HW210910   0.639   0.976   4.627
 2720SOL    HW310911   0.721   0.937   4.749
 2720SOL    MW410912   0.708   0.989   4.680
 2721SOL     OW10913   2.022   0.568   4.490
 2721SOL    HW210914   2.103   0.591   4.535
 2721SOL    HW310915   2.008   0.476   4.512
 2721SOL    MW410916   2.031   0.559   4.499
 2722SOL     OW10917   1.525   1.265   4.502
 2722SOL    HW210918   1.442   1.220   4.520
 2722SOL    HW310919   1.588   1.222   4.559
 2722SOL    MW410920   1.522   1.253   4.512
 2723SOL     OW10921   1.395   1.739   4.520
 2723SOL    HW210922   1.448   1.668   4.556
 2723SOL    HW310923   1.387   1.718   4.427
 2723SOL    MW410924   1.401   1.727   4.513
 2724SOL     OW10925   1.328   2.704   4.786
 2724SOL    HW210926   1.371   2.644   4.725
 2724SOL    HW310927   1.388   2.710   4.860
 2724SOL    MW410928   1.342   2.697   4.788
 2725SOL     OW10929   2.248   2.443   4.409
 2725SOL    HW210930   2.206   2.404   4.332
 2725SOL    HW310931   2.225   2.536   4.405
 2725SOL    MW410932   2.239   2.450   4.398
 2726SOL     OW10933   0.824   2.370   4.488
 2726SOL    HW210934   0.903   2.381   4.541
 2726SOL    HW310935   0.851   2.394   4.399
 2726SOL    MW410936   0.838   2.375   4.483
 2727SOL     OW10937   1.406   3.834   4.689
 2727SOL    HW210938   1.323   3.808   4.729
 2727SOL    HW310939   1.436   3.756   4.643
 2727SOL    MW410940   1.399   3.820   4.688
 2728SOL     OW10941   1.300   2.444   4.233
 2728SOL    HW210942   1.306   2.533   4.199
 2728SOL    HW310943   1.387   2.406   4.216
 2728SOL    MW410944   1.313   2.450   4.226
 2729SOL     OW10945   1.311   2.362   4.500
 2729SOL    HW210946   1.300   2.390   4.409
 2729SOL    HW310947   1.377   2.421   4.535
 2729SOL    MW410948   1.318   2.374   4.493
 2730SOL     OW10949   1.314   3.097   4.550
 2730SOL    HW210950   1.333   3.091   4.457
 2730SOL    HW310951   1.385   3.050   4.592
 2730SOL    MW410952   1.326   3.090   4.543
 2731SOL     OW10953   1.129   3.505   4.548
 2731SOL    HW210954   1.077   3.427   4.530
 2731SOL    HW310955   1.120   3.560   4.470
 2731SOL    MW410956   1.121   3.502   4.536
 2732SOL     OW10957   0.720   3.821   4.601
 2732SOL    HW210958   0.650   3.884   4.584
 2732SOL    HW310959   0.801   3.871   4.588
 2732SOL    MW410960   0.722   3.836   4.597
 2733SOL     OW10961   2.081   3.596   4.538
 2733SOL    HW210962   2.043   3.581   4.451
 2733SOL    HW310963   2.128   3.515   4.557
 2733SOL    MW410964   2.082   3.583   4.529
 2734SOL     OW10965   1.723   3.229   4.614
 2734SOL    HW210966   1.629   3.215   4.626
 2734SOL    HW310967   1.736   3.225   4.519
 2734SOL    MW410968   1.712   3.226   4.603
 2735SOL     OW10969   2.267   3.244   4.322
 2735SOL    HW210970   2.185   3.197   4.335
 2735SOL    HW310971   2.335   3.179   4.337
 2735SOL    MW410972   2.265   3.229   4.325
 2736SOL     OW10973   0.989   3.965   4.551
 2736SOL    HW210974   0.948   3.967   4.464
 2736SOL    HW310975   1.083   3.970   4.533
 2736SOL    MW410976   0.996   3.966   4.537
 2737SOL     OW10977   1.755   4.126   4.548
 2737SOL    HW210978   1.791   4.072   4.478
 2737SOL    HW310979   1.830   4.176   4.581
 2737SOL    MW410980   1.769   4.125   4.543
 2738SOL     OW10981   2.257   0.164   4.538
 2738SOL    HW210982   2.255   0.149   4.443
 2738SOL    HW310983   2.299   0.250   4.547
 2738SOL    MW410984   2.262   0.174   4.526
 2739SOL     OW10985   1.044   0.189   4.546
 2739SOL    HW210986   0.977   0.165   4.481
 2739SOL    HW310987   1.114   0.125   4.532
 2739SOL    MW410988   1.044   0.177   4.535
 2740SOL     OW10989   2.001   0.308   4.560
 2740SOL    HW210990   2.081   0.257   4.573
 2740SOL    HW310991   1.930   0.250   4.588
 2740SOL    MW410992   2.002   0.294   4.565
 2741SOL     OW10993   2.424   4.584   4.574
 2741SOL    HW210994   2.417   4.504   4.521
 2741SOL    HW310995   2.347   4.635   4.550
 2741SOL    MW410996   2.413   4.580   4.564
 2742SOL     OW10997   1.840   0.790   4.514
 2742SOL    HW210998   1.889   0.708   4.521
 2742SOL    HW310999   1.808   0.791   4.424
 2742SOL    MW411000   1.842   0.779   4.503
 2743SOL     OW11001   1.426   0.574   4.490
 2743SOL    HW211002   1.419   0.668   4.507
 2743SOL    HW311003   1.339   0.539   4.511
 2743SOL    MW411004   1.413   0.582   4.495
 2744SOL     OW11005   2.067   1.582   4.666
 2744SOL    HW211006   2.080   1.487   4.668
 2744SOL    HW311007   1.989   1.595   4.613
 2744SOL    MW411008   2.059   1.571   4.659
 2745SOL     OW11009   0.988   1.645   4.861
 2745SOL    HW211010   1.051   1.701   4.815
 2745SOL    HW311011   1.040   1.570   4.891
 2745SOL    MW411012   1.003   1.643   4.859
 2746SOL     OW11013   1.540   1.517   4.623
 2746SOL    HW211014   1.527   1.439   4.569
 2746SOL    HW311015   1.567   1.484   4.708
 2746SOL    MW411016   1.542   1.503   4.627
 2747SOL     OW11017   1.054   2.218   4.883
 2747SOL    HW211018   1.110   2.257   4.950
 2747SOL    HW311019   1.040   2.287   4.819
 2747SOL    MW411020   1.059   2.232   4.883
 2748SOL     OW11021   1.541   1.966   4.517
 2748SOL    HW211022   1.627   1.933   4.489
 2748SOL    HW311023   1.490   1.888   4.536
 2748SOL    MW411024   1.546   1.952   4.516
 2749SOL     OW11025   2.006   2.087   4.221
 2749SOL    HW211026   1.968   2.103   4.307
 2749SOL    HW311027   1.948   2.023   4.181
 2749SOL    MW411028   1.993   2.081   4.227
 2750SOL     OW11029   1.240   2.080   4.502
 2750SOL    HW211030   1.325   2.041   4.522
 2750SOL    HW311031   1.259   2.174   4.491
 2750SOL    MW411032   1.254   2.088   4.503
 2751SOL     OW11033   2.416   3.025   4.391
 2751SOL    HW211034   2.487   3.028   4.456
 2751SOL    HW311035   2.353   2.962   4.427
 2751SOL    MW411036   2.417   3.017   4.405
 2752SOL     OW11037   1.725   2.813   4.799
 2752SOL    HW211038   1.750   2.737   4.747
 2752SOL    HW311039   1.791   2.880   4.778
 2752SOL    MW411040   1.737   2.812   4.789
 2753SOL     OW11041   1.641   4.386   4.526
 2753SOL    HW211042   1.690   4.305   4.518
 2753SOL    HW311043   1.619   4.410   4.436
 2753SOL    MW411044   1.644   4.379   4.513
 2754SOL     OW11045   2.591   3.038   4.610
 2754SOL    HW211046   2.678   2.999   4.596
 2754SOL    HW311047   2.543   2.971   4.658
 2754SOL    MW411048   2.596   3.024   4.615
 2755SOL     OW11049   2.228   3.345   4.566
 2755SOL    HW211050   2.239   3.310   4.477
 2755SOL    HW311051   2.205   3.269   4.619
 2755SOL    MW411052   2.226   3.330   4.561
 2756SOL     OW11053   2.669   3.949   4.468
 2756SOL    HW211054   2.584   3.912   4.493
 2756SOL    HW311055   2.662   3.962   4.373
 2756SOL    MW411056   2.657   3.946   4.459
 2757SOL     OW11057   2.435   3.819   4.521
 2757SOL    HW211058   2.427   3.725   4.504
 2757SOL    HW311059   2.387   3.833   4.602
 2757SOL    MW411060   2.427   3.808   4.529
 2758SOL     OW11061   2.464   3.508   4.509
 2758SOL    HW211062   2.388   3.451   4.515
 2758SOL    HW311063   2.472   3.527   4.415
 2758SOL    MW411064   2.455   3.503   4.497
 2759SOL     OW11065   1.798   3.509   4.590
 2759SOL    HW211066   1.892   3.528   4.599
 2759SOL    HW311067   1.786   3.425   4.633
 2759SOL    MW411068   1.809   3.501   4.597
 2760SOL     OW11069   1.995   4.265   4.586
 2760SOL    HW211070   2.050   4.190   4.563
 2760SOL    HW311071   2.053   4.323   4.637
 2760SOL    MW411072   2.010   4.263   4.590
 2761SOL     OW11073   1.292   3.998   4.489
 2761SOL    HW211074   1.312   4.092   4.493
 2761SOL    HW311075   1.336   3.960   4.564
 2761SOL    MW411076   1.300   4.005   4.499
 2762SOL     OW11077   2.085   4.616   4.550
 2762SOL    HW211078   2.110   4.568   4.629
 2762SOL    HW311079   2.129   4.700   4.558
 2762SOL    MW411080   2.094   4.621   4.561
 2763SOL     OW11081   2.170   4.428   4.739
 2763SOL    HW211082   2.265   4.422   4.733
 2763SOL    HW311083   2.151   4.422   4.832
 2763SOL    MW411084   2.180   4.427   4.750
 2764SOL     OW11085   1.626   1.372   4.862
 2764SOL    HW211086   1.662   1.298   4.812
 2764SOL    HW311087   1.545   1.338   4.899
 2764SOL    MW411088   1.620   1.357   4.860
 2765SOL     OW11089   2.626   0.098   4.601
 2765SOL    HW211090   2.567   0.023   4.611
 2765SOL    HW311091   2.638   0.106   4.506
 2765SOL    MW411092   2.620   0.089   4.590
 2766SOL     OW11093   2.325   0.709   4.577
 2766SOL    HW211094   2.295   0.755   4.656
 2766SOL    HW311095   2.409   0.751   4.556
 2766SOL    MW411096   2.332   0.721   4.584
 2767SOL     OW11097   2.825   0.684   4.619
 2767SOL    HW211098   2.905   0.737   4.611
 2767SOL    HW311099   2.842   0.626   4.694
 2767SOL    MW411100   2.838   0.683   4.628
 2768SOL     OW11101   2.169   1.335   4.619
 2768SOL    HW211102   2.177   1.257   4.674
 2768SOL    HW311103   2.252   1.339   4.571
 2768SOL    MW411104   2.181   1.325   4.620
 2769SOL     OW11105   2.427   1.304   4.503
 2769SOL    HW211106   2.441   1.229   4.561
 2769SOL    HW311107   2.468   1.377   4.549
 2769SOL    MW411108   2.434   1.304   4.517
 2770SOL     OW11109   2.531   1.512   4.636
 2770SOL    HW211110   2.605   1.559   4.597
 2770SOL    HW311111   2.461   1.577   4.641
 2770SOL    MW411112   2.531   1.527   4.632
 2771SOL     OW11113   2.303   1.663   4.554
 2771SOL    HW211114   2.292   1.647   4.460
 2771SOL    HW311115   2.219   1.637   4.592
 2771SOL    MW411116   2.290   1.658   4.546
 2772SOL     OW11117   2.290   2.052   4.832
 2772SOL    HW211118   2.304   2.146   4.823
 2772SOL    HW311119   2.195   2.042   4.836
 2772SOL    MW411120   2.280   2.063   4.831
 2773SOL     OW11121   2.371   1.935   4.580
 2773SOL    HW211122   2.355   1.843   4.602
 2773SOL    HW311123   2.354   1.982   4.661
 2773SOL    MW411124   2.367   1.929   4.594
 2774SOL     OW11125   2.591   2.265   4.376
 2774SOL    HW211126   2.545   2.313   4.445
 2774SOL    HW311127   2.533   2.193   4.353
 2774SOL    MW411128   2.577   2.262   4.382
 2775SOL     OW11129   1.771   2.574   4.646
 2775SOL    HW211130   1.784   2.606   4.556
 2775SOL    HW311131   1.859   2.557   4.678
 2775SOL    MW411132   1.784   2.576   4.638
 2776SOL     OW11133   2.190   3.086   4.688
 2776SOL    HW211134   2.097   3.067   4.700
 2776SOL    HW311135   2.221   3.018   4.628
 2776SOL    MW411136   2.182   3.075   4.682
 2777SOL     OW11137   2.663   3.323   4.536
 2777SOL    HW211138   2.649   3.247   4.592
 2777SOL    HW311139   2.586   3.378   4.550
 2777SOL    MW411140   2.651   3.320   4.545
 2778SOL     OW11141   2.276   2.958   4.924
 2778SOL    HW211142   2.236   3.015   4.989
 2778SOL    HW311143   2.252   2.997   4.840
 2778SOL    MW411144   2.268   2.971   4.921
 2779SOL     OW11145   1.542   4.070   4.723
 2779SOL    HW211146   1.509   3.980   4.717
 2779SOL    HW311147   1.614   4.072   4.659
 2779SOL    MW411148   1.547   4.058   4.714
 2780SOL     OW11149   2.686   4.191   4.602
 2780SOL    HW211150   2.596   4.222   4.609
 2780SOL    HW311151   2.679   4.106   4.558
 2780SOL    MW411152   2.673   4.184   4.597
 2781SOL     OW11153   1.902   2.999   4.668
 2781SOL    HW211154   1.928   2.945   4.593
 2781SOL    HW311155   1.852   3.071   4.630
 2781SOL    MW411156   1.898   3.001   4.653
 2782SOL     OW11157   3.406   3.801   4.538
 2782SOL    HW211158   3.315   3.821   4.561
 2782SOL    HW311159   3.407   3.706   4.526
 2782SOL    MW411160   3.394   3.791   4.539
 2783SOL     OW11161   3.129   3.889   4.523
 2783SOL    HW211162   3.046   3.842   4.512
 2783SOL    HW311163   3.105   3.969   4.571
 2783SOL    MW411164   3.115   3.893   4.528
 2784SOL     OW11165   2.198   4.075   4.524
 2784SOL    HW211166   2.179   3.989   4.563
 2784SOL    HW311167   2.214   4.055   4.432
 2784SOL    MW411168   2.197   4.061   4.517
 2785SOL     OW11169   2.413   4.240   4.569
 2785SOL    HW211170   2.341   4.178   4.566
 2785SOL    HW311171   2.419   4.274   4.479
 2785SOL    MW411172   2.404   4.236   4.557
 2786SOL     OW11173   2.935   0.453   4.467
 2786SOL    HW211174   2.928   0.483   4.376
 2786SOL    HW311175   2.904   0.527   4.519
 2786SOL    MW411176   2.930   0.467   4.461
 2787SOL     OW11177   2.566   0.339   4.716
 2787SOL    HW211178   2.590   0.251   4.687
 2787SOL    HW311179   2.648   0.380   4.742
 2787SOL    MW411180   2.580   0.333   4.716
 2788SOL     OW11181   3.280   0.178   4.648
 2788SOL    HW211182   3.203   0.216   4.691
 2788SOL    HW311183   3.311   0.247   4.590
 2788SOL    MW411184   3.274   0.192   4.646
 2789SOL     OW11185   2.601   0.850   4.564
 2789SOL    HW211186   2.688   0.815   4.581
 2789SOL    HW311187   2.602   0.873   4.471
 2789SOL    MW411188   2.613   0.849   4.554
 2790SOL     OW11189   3.531   0.655   4.805
 2790SOL    HW211190   3.607   0.711   4.795
 2790SOL    HW311191   3.568   0.568   4.825
 2790SOL    MW411192   3.546   0.651   4.806
 2791SOL     OW11193   2.072   0.938   4.543
 2791SOL    HW211194   2.038   1.024   4.520
 2791SOL    HW311195   1.994   0.884   4.559
 2791SOL    MW411196   2.057   0.942   4.542
 2792SOL     OW11197   2.510   1.091   4.661
 2792SOL    HW211198   2.585   1.138   4.697
 2792SOL    HW311199   2.545   1.007   4.632
 2792SOL    MW411200   2.524   1.086   4.662
 2793SOL     OW11201   2.938   1.290   4.544
 2793SOL    HW211202   2.857   1.296   4.594
 2793SOL    HW311203   2.910   1.288   4.453
 2793SOL    MW411204   2.924   1.291   4.539
 2794SOL     OW11205   2.987   1.563   4.554
 2794SOL    HW211206   2.898   1.593   4.534
 2794SOL    HW311207   2.979   1.468   4.558
 2794SOL    MW411208   2.974   1.554   4.552
 2795SOL     OW11209   2.726   1.632   4.499
 2795SOL    HW211210   2.707   1.720   4.529
 2795SOL    HW311211   2.708   1.634   4.405
 2795SOL    MW411212   2.721   1.644   4.491
 2796SOL     OW11213   2.658   1.880   4.563
 2796SOL    HW211214   2.700   1.966   4.562
 2796SOL    HW311215   2.566   1.899   4.582
 2796SOL    MW411216   2.652   1.894   4.565
 2797SOL     OW11217   2.800   2.125   4.525
 2797SOL    HW211218   2.734   2.192   4.510
 2797SOL    HW311219   2.836   2.107   4.438
 2797SOL    MW411220   2.796   2.131   4.511
 2798SOL     OW11221   3.064   2.207   4.608
 2798SOL    HW211222   3.052   2.194   4.702
 2798SOL    HW311223   2.978   2.187   4.570
 2798SOL    MW411224   3.051   2.203   4.615
 2799SOL     OW11225   2.442   2.825   4.718
 2799SOL    HW211226   2.389   2.849   4.794
 2799SOL    HW311227   2.380   2.828   4.645
 2799SOL    MW411228   2.427   2.828   4.718
 2800SOL     OW11229   3.512   3.111   4.506
 2800SOL    HW211230   3.480   3.119   4.417
 2800SOL    HW311231   3.551   3.197   4.525
 2800SOL    MW411232   3.513   3.124   4.497
 2801SOL     OW11233   2.592   2.674   4.543
 2801SOL    HW211234   2.552   2.731   4.609
 2801SOL    HW311235   2.540   2.689   4.464
 2801SOL    MW411236   2.580   2.683   4.541
 2802SOL     OW11237   2.885   3.510   4.530
 2802SOL    HW211238   2.962   3.463   4.562
 2802SOL    HW311239   2.812   3.451   4.549
 2802SOL    MW411240   2.885   3.496   4.537
 2803SOL     OW11241   2.800   2.868   4.536
 2803SOL    HW211242   2.866   2.809   4.573
 2803SOL    HW311243   2.724   2.812   4.518
 2803SOL    MW411244   2.799   2.853   4.538
 2804SOL     OW11245   2.871   4.649   4.657
 2804SOL    HW211246   2.873   4.553   4.662
 2804SOL    HW311247   2.781   4.670   4.634
 2804SOL    MW411248   2.860   4.639   4.655
 2805SOL     OW11249   3.533   3.892   4.770
 2805SOL    HW211250   3.527   3.825   4.838
 2805SOL    HW311251   3.492   3.852   4.693
 2805SOL    MW411252   3.527   3.878   4.769
 2806SOL     OW11253   3.962   3.831   4.610
 2806SOL    HW211254   4.025   3.842   4.680
 2806SOL    HW311255   3.955   3.736   4.598
 2806SOL    MW411256   3.969   3.820   4.617
 2807SOL     OW11257   2.887   3.777   4.445
 2807SOL    HW211258   2.816   3.836   4.471
 2807SOL    HW311259   2.880   3.704   4.508
 2807SOL    MW411260   2.876   3.775   4.457
 2808SOL     OW11261   2.872   4.366   4.585
 2808SOL    HW211262   2.809   4.294   4.593
 2808SOL    HW311263   2.957   4.325   4.596
 2808SOL    MW411264   2.875   4.351   4.587
 2809SOL     OW11265   2.985   0.264   4.677
 2809SOL    HW211266   2.978   0.314   4.595
 2809SOL    HW311267   2.945   0.180   4.657
 2809SOL    MW411268   2.979   0.260   4.663
 2810SOL     OW11269   3.369   0.426   4.547
 2810SOL    HW211270   3.377   0.451   4.455
 2810SOL    HW311271   3.344   0.507   4.591
 2810SOL    MW411272   3.367   0.440   4.541
 2811SOL     OW11273   2.369   0.429   4.555
 2811SOL    HW211274   2.443   0.404   4.610
 2811SOL    HW311275   2.356   0.522   4.572
 2811SOL    MW411276   2.377   0.438   4.565
 2812SOL     OW11277   2.228   1.083   4.724
 2812SOL    HW211278   2.320   1.061   4.711
 2812SOL    HW311279   2.181   1.024   4.664
 2812SOL    MW411280   2.234   1.072   4.715
 2813SOL     OW11281   2.823   0.459   4.803
 2813SOL    HW211282   2.810   0.413   4.886
 2813SOL    HW311283   2.886   0.405   4.756
 2813SOL    MW411284   2.829   0.445   4.808
 2814SOL     OW11285   3.358   0.754   4.608
 2814SOL    HW211286   3.435   0.779   4.558
 2814SOL    HW311287   3.392   0.717   4.689
 2814SOL    MW411288   3.372   0.752   4.612
 2815SOL     OW11289   3.365   1.147   4.526
 2815SOL    HW211290   3.284   1.143   4.577
 2815SOL    HW311291   3.390   1.055   4.514
 2815SOL    MW411292   3.358   1.134   4.531
 2816SOL     OW11293   2.716   1.292   4.724
 2816SOL    HW211294   2.685   1.272   4.813
 2816SOL    HW311295   2.666   1.370   4.699
 2816SOL    MW411296   2.705   1.300   4.733
 2817SOL     OW11297   4.020   0.906   4.521
 2817SOL    HW211298   4.004   0.883   4.430
 2817SOL    HW311299   4.115   0.907   4.529
 2817SOL    MW411300   4.030   0.903   4.510
 2818SOL     OW11301   3.502   1.332   4.685
 2818SOL    HW211302   3.481   1.414   4.640
 2818SOL    HW311303   3.474   1.263   4.624
 2818SOL    MW411304   3.496   1.334   4.671
 2819SOL     OW11305   3.220   1.701   4.510
 2819SOL    HW211306   3.217   1.795   4.491
 2819SOL    HW311307   3.128   1.677   4.525
 2819SOL    MW411308   3.208   1.710   4.509
 2820SOL     OW11309   3.237   1.975   4.486
 2820SOL    HW211310   3.194   2.041   4.541
 2820SOL    HW311311   3.237   2.013   4.398
 2820SOL    MW411312   3.231   1.989   4.482
 2821SOL     OW11313   3.605   1.791   4.744
 2821SOL    HW211314   3.560   1.756   4.821
 2821SOL    HW311315   3.643   1.714   4.702
 2821SOL    MW411316   3.604   1.776   4.749
 2822SOL     OW11317   2.827   2.607   4.405
 2822SOL    HW211318   2.741   2.628   4.441
 2822SOL    HW311319   2.889   2.636   4.473
 2822SOL    MW411320   2.824   2.614   4.419
 2823SOL     OW11321   3.436   2.489   4.496
 2823SOL    HW211322   3.345   2.479   4.523
 2823SOL    HW311323   3.463   2.574   4.531
 2823SOL    MW411324   3.428   2.499   4.504
 2824SOL     OW11325   3.174   2.471   4.561
 2824SOL    HW211326   3.163   2.486   4.467
 2824SOL    HW311327   3.131   2.387   4.577
 2824SOL    MW411328   3.167   2.462   4.551
 2825SOL     OW11329   3.537   2.719   4.576
 2825SOL    HW211330   3.599   2.773   4.527
 2825SOL    HW311331   3.593   2.663   4.631
 2825SOL    MW411332   3.553   2.719   4.577
 2826SOL     OW11333   3.265   3.115   4.612
 2826SOL    HW211334   3.231   3.026   4.608
 2826SOL    HW311335   3.353   3.109   4.575
 2826SOL    MW411336   3.272   3.103   4.607
 2827SOL     OW11337   3.272   2.815   4.559
 2827SOL    HW211338   3.278   2.833   4.465
 2827SOL    HW311339   3.361   2.793   4.585
 2827SOL    MW411340   3.285   2.815   4.550
 2828SOL     OW11341   4.126   2.596   4.506
 2828SOL    HW211342   4.220   2.576   4.507
 2828SOL    HW311343   4.121   2.690   4.521
 2828SOL    MW411344   4.138   2.606   4.508
 2829SOL     OW11345   3.597   3.364   4.479
 2829SOL    HW211346   3.667   3.417   4.519
 2829SOL    HW311347   3.620   3.359   4.387
 2829SOL    MW411348   3.609   3.370   4.472
 2830SOL     OW11349   3.522   4.049   4.456
 2830SOL    HW211350   3.598   4.054   4.513
 2830SOL    HW311351   3.484   3.963   4.473
 2830SOL    MW411352   3.527   4.038   4.465
 2831SOL     OW11353   3.100   4.145   4.637
 2831SOL    HW211354   3.133   4.143   4.727
 2831SOL    HW311355   3.135   4.226   4.600
 2831SOL    MW411356   3.109   4.156   4.644
 2832SOL     OW11357   3.119   4.665   4.513
 2832SOL    HW211358   3.044   4.651   4.572
 2832SOL    HW311359   3.178   4.721   4.563
 2832SOL    MW411360   3.117   4.670   4.527
 2833SOL     OW11361   3.500   4.332   4.477
 2833SOL    HW211362   3.499   4.237   4.485
 2833SOL    HW311363   3.591   4.356   4.494
 2833SOL    MW411364   3.512   4.323   4.480
 2834SOL     OW11365   3.746   4.024   4.638
 2834SOL    HW211366   3.798   3.944   4.628
 2834SOL    HW311367   3.674   3.998   4.696
 2834SOL    MW411368   3.743   4.010   4.645
 2835SOL     OW11369   3.550   0.093   4.764
 2835SOL    HW211370   3.533   0.043   4.843
 2835SOL    HW311371   3.467   0.137   4.745
 2835SOL    MW411372   3.537   0.092   4.772
 2836SOL     OW11373   3.083   0.824   4.558
 2836SOL    HW211374   3.096   0.912   4.593
 2836SOL    HW311375   3.171   0.785   4.559
 2836SOL    MW411376   3.097   0.830   4.563
 2837SOL     OW11377   3.117   1.078   4.634
 2837SOL    HW211378   3.139   1.071   4.727
 2837SOL    HW311379   3.050   1.146   4.630
 2837SOL    MW411380   3.111   1.086   4.646
 2838SOL     OW11381   4.038   1.479   4.651
 2838SOL    HW211382   4.092   1.428   4.590
 2838SOL    HW311383   3.974   1.416   4.684
 2838SOL    MW411384   4.036   1.464   4.647
 2839SOL     OW11385   3.789   1.101   4.499
 2839SOL    HW211386   3.785   1.153   4.418
 2839SOL    HW311387   3.877   1.062   4.498
 2839SOL    MW411388   3.800   1.103   4.488
 2840SOL     OW11389   0.071   0.919   4.536
 2840SOL    HW211390   0.044   0.918   4.445
 2840SOL    HW311391   0.094   1.011   4.553
 2840SOL    MW411392   0.070   0.931   4.527
 2841SOL     OW11393   4.288   0.562   4.576
 2841SOL    HW211394   4.304   0.536   4.485
 2841SOL    HW311395   4.203   0.526   4.597
 2841SOL    MW411396   4.279   0.554   4.566
 2842SOL     OW11397   3.673   1.573   4.594
 2842SOL    HW211398   3.737   1.607   4.531
 2842SOL    HW311399   3.713   1.493   4.627
 2842SOL    MW411400   3.687   1.567   4.590
 2843SOL     OW11401   3.863   1.891   4.649
 2843SOL    HW211402   3.781   1.864   4.691
 2843SOL    HW311403   3.845   1.979   4.616
 2843SOL    MW411404   3.850   1.899   4.650
 2844SOL     OW11405   3.505   2.013   4.549
 2844SOL    HW211406   3.539   1.943   4.604
 2844SOL    HW311407   3.424   1.977   4.513
 2844SOL    MW411408   3.498   1.999   4.552
 2845SOL     OW11409   4.155   2.271   4.791
 2845SOL    HW211410   4.165   2.176   4.798
 2845SOL    HW311411   4.152   2.301   4.882
 2845SOL    MW411412   4.156   2.262   4.804
 2846SOL     OW11413   4.127   1.944   4.700
 2846SOL    HW211414   4.034   1.936   4.718
 2846SOL    HW311415   4.166   1.865   4.738
 2846SOL    MW411416   4.120   1.933   4.708
 2847SOL     OW11417   3.833   2.130   4.518
 2847SOL    HW211418   3.891   2.204   4.537
 2847SOL    HW311419   3.745   2.166   4.525
 2847SOL    MW411420   3.829   2.144   4.521
 2848SOL     OW11421   3.706   2.509   4.687
 2848SOL    HW211422   3.679   2.418   4.672
 2848SOL    HW311423   3.790   2.517   4.641
 2848SOL    MW411424   3.713   2.498   4.679
 2849SOL     OW11425   3.719   2.931   4.500
 2849SOL    HW211426   3.799   2.962   4.542
 2849SOL    HW311427   3.654   2.999   4.518
 2849SOL    MW411428   3.721   2.944   4.508
 2850SOL     OW11429   3.949   3.068   4.603
 2850SOL    HW211430   3.966   3.068   4.697
 2850SOL    HW311431   4.020   3.016   4.566
 2850SOL    MW411432   3.961   3.061   4.611
 2851SOL     OW11433   3.146   3.369   4.543
 2851SOL    HW211434   3.170   3.288   4.587
 2851SOL    HW311435   3.127   3.343   4.453
 2851SOL    MW411436   3.147   3.355   4.537
 2852SOL     OW11437   3.998   3.322   4.514
 2852SOL    HW211438   3.966   3.237   4.543
 2852SOL    HW311439   4.024   3.309   4.423
 2852SOL    MW411440   3.997   3.309   4.506
 2853SOL     OW11441   3.363   3.513   4.471
 2853SOL    HW211442   3.288   3.464   4.501
 2853SOL    HW311443   3.436   3.451   4.474
 2853SOL    MW411444   3.363   3.499   4.475
 2854SOL     OW11445   3.831   3.569   4.539
 2854SOL    HW211446   3.807   3.611   4.457
 2854SOL    HW311447   3.901   3.508   4.516
 2854SOL    MW411448   3.837   3.567   4.525
 2855SOL     OW11449   4.400   2.919   4.627
 2855SOL    HW211450   4.455   2.846   4.599
 2855SOL    HW311451   4.450   2.997   4.603
 2855SOL    MW411452   4.414   2.920   4.620
 2856SOL     OW11453   4.091   4.039   4.446
 2856SOL    HW211454   4.065   4.123   4.485
 2856SOL    HW311455   4.038   3.974   4.492
 2856SOL    MW411456   4.080   4.041   4.458
 2857SOL     OW11457   3.781   4.386   4.508
 2857SOL    HW211458   3.783   4.386   4.412
 2857SOL    HW311459   3.780   4.479   4.532
 2857SOL    MW411460   3.781   4.398   4.498
 2858SOL     OW11461   3.222   4.390   4.565
 2858SOL    HW211462   3.311   4.382   4.529
 2858SOL    HW311463   3.199   4.482   4.553
 2858SOL    MW411464   3.231   4.401   4.559
 2859SOL     OW11465   3.574   0.925   4.505
 2859SOL    HW211466   3.647   0.986   4.506
 2859SOL    HW311467   3.565   0.899   4.413
 2859SOL    MW411468   3.583   0.929   4.493
 2860SOL     OW11469   3.796   0.790   4.668
 2860SOL    HW211470   3.883   0.815   4.634
 2860SOL    HW311471   3.735   0.841   4.615
 2860SOL    MW411472   3.800   0.800   4.657
 2861SOL     OW11473   4.449   0.367   4.662
 2861SOL    HW211474   4.541   0.392   4.655
 2861SOL    HW311475   4.400   0.445   4.632
 2861SOL    MW411476   4.455   0.381   4.657
 2862SOL     OW11477   0.213   0.484   4.569
 2862SOL    HW211478   0.298   0.440   4.573
 2862SOL    HW311479   0.198   0.499   4.476
 2862SOL    MW411480   0.223   0.480   4.557
 2863SOL     OW11481   4.035   0.412   4.640
 2863SOL    HW211482   3.951   0.453   4.616
 2863SOL    HW311483   4.028   0.322   4.607
 2863SOL    MW411484   4.023   0.405   4.632
 2864SOL     OW11485   3.771   1.322   4.653
 2864SOL    HW211486   3.776   1.248   4.592
 2864SOL    HW311487   3.688   1.310   4.699
 2864SOL    MW411488   3.761   1.311   4.651
 2865SOL     OW11489   4.436   1.512   4.621
 2865SOL    HW211490   4.524   1.475   4.608
 2865SOL    HW311491   4.446   1.605   4.601
 2865SOL    MW411492   4.449   1.520   4.617
 2866SOL     OW11493   0.195   1.386   4.547
 2866SOL    HW211494   0.231   1.332   4.618
 2866SOL    HW311495   0.249   1.465   4.546
 2866SOL    MW411496   0.207   1.389   4.556
 2867SOL     OW11497   3.922   1.650   4.477
 2867SOL    HW211498   3.973   1.583   4.520
 2867SOL    HW311499   3.927   1.726   4.536
 2867SOL    MW411500   3.929   1.651   4.490
 2868SOL     OW11501   3.012   2.697   4.595
 2868SOL    HW211502   3.099   2.738   4.588
 2868SOL    HW311503   3.031   2.605   4.610
 2868SOL    MW411504   3.026   2.691   4.596
 2869SOL     OW11505   4.221   2.098   4.235
 2869SOL    HW211506   4.143   2.047   4.216
 2869SOL    HW311507   4.250   2.067   4.321
 2869SOL    MW411508   4.215   2.087   4.244
 2870SOL     OW11509   4.407   2.286   4.621
 2870SOL    HW211510   4.330   2.300   4.676
 2870SOL    HW311511   4.405   2.358   4.558
 2870SOL    MW411512   4.396   2.297   4.620
 2871SOL     OW11513   4.293   2.028   4.497
 2871SOL    HW211514   4.232   2.013   4.570
 2871SOL    HW311515   4.366   2.075   4.537
 2871SOL    MW411516   4.294   2.032   4.512
 2872SOL     OW11517   3.602   2.269   4.549
 2872SOL    HW211518   3.537   2.334   4.524
 2872SOL    HW311519   3.551   2.189   4.566
 2872SOL    MW411520   3.587   2.267   4.548
 2873SOL     OW11521   0.501   2.592   4.607
 2873SOL    HW211522   0.483   2.499   4.615
 2873SOL    HW311523   0.590   2.602   4.641
 2873SOL    MW411524   0.511   2.581   4.613
 2874SOL     OW11525   4.147   2.891   4.506
 2874SOL    HW211526   4.232   2.891   4.550
 2874SOL    HW311527   4.168   2.905   4.414
 2874SOL    MW411528   4.161   2.893   4.500
 2875SOL     OW11529   0.021   3.171   4.554
 2875SOL    HW211530  -0.003   3.202   4.467
 2875SOL    HW311531   0.114   3.189   4.562
 2875SOL    MW411532   0.030   3.178   4.544
 2876SOL     OW11533   0.186   3.653   4.492
 2876SOL    HW211534   0.213   3.625   4.405
 2876SOL    HW311535   0.091   3.663   4.486
 2876SOL    MW411536   0.177   3.651   4.480
 2877SOL     OW11537   4.228   0.074   4.651
 2877SOL    HW211538   4.144   0.106   4.619
 2877SOL    HW311539   4.242   0.118   4.734
 2877SOL    MW411540   4.219   0.084   4.657
 2878SOL     OW11541   3.770   4.666   4.549
 2878SOL    HW211542   3.727   4.688   4.632
 2878SOL    HW311543   3.715   4.706   4.482
 2878SOL    MW411544   3.757   4.674   4.551
 2879SOL     OW11545   4.310   4.088   4.836
 2879SOL    HW211546   4.290   4.179   4.858
 2879SOL    HW311547   4.393   4.093   4.790
 2879SOL    MW411548   4.318   4.101   4.833
 2880SOL     OW11549   3.625   0.373   4.696
 2880SOL    HW211550   3.622   0.286   4.736
 2880SOL    HW311551   3.548   0.376   4.639
 2880SOL    MW411552   3.614   0.362   4.693
 2881SOL     OW11553   4.287   4.424   4.271
 2881SOL    HW211554   4.358   4.361   4.265
 2881SOL    HW311555   4.290   4.456   4.361
 2881SOL    MW411556   4.297   4.420   4.282
 2882NA      NA11557   2.576   4.380   0.582
 2883NA      NA11558   0.710   2.435   0.360
   4.49070   4.66690  10.00000
