Gromacs Runs On Most of All Computer Systems in water t= 400.00000 step= 400000
11558
    1RG35     P    1   2.170   2.867   4.495
    1RG35   O1P    2   2.177   2.794   4.366
    1RG35   O2P    3   2.080   2.982   4.496
    1RG35   O5'    4   2.099   2.762   4.588
    1RG35   C5'    5   2.010   2.797   4.697
    1RG35  H5'1    6   1.931   2.861   4.659
    1RG35  H5'2    7   2.054   2.865   4.770
    1RG35   C4'    8   1.945   2.688   4.778
    1RG35   H4'    9   1.864   2.734   4.834
    1RG35   O4'   10   1.887   2.582   4.698
    1RG35   C1'   11   1.951   2.461   4.720
    1RG35   H1'   12   1.892   2.401   4.789
    1RG35    N9   13   1.980   2.384   4.599
    1RG35    C8   14   2.065   2.410   4.495
    1RG35    H8   15   2.117   2.504   4.487
    1RG35    N7   16   2.088   2.307   4.416
    1RG35    C5   17   1.993   2.215   4.459
    1RG35    C6   18   1.959   2.085   4.406
    1RG35    O6   19   1.998   2.026   4.301
    1RG35    N1   20   1.872   2.012   4.486
    1RG35    H1   21   1.867   1.915   4.456
    1RG35    C2   22   1.808   2.066   4.593
    1RG35    N2   23   1.713   2.003   4.660
    1RG35   H21   24   1.676   1.915   4.628
    1RG35   H22   25   1.667   2.056   4.732
    1RG35    N3   26   1.839   2.185   4.641
    1RG35    C4   27   1.931   2.254   4.572
    1RG35   C3'   28   2.042   2.618   4.872
    1RG35   H3'   29   2.127   2.681   4.897
    1RG35   C2'   30   2.085   2.497   4.788
    1RG35  H2'1   31   2.163   2.530   4.719
    1RG35   O2'   32   2.127   2.384   4.865
    1RG35  HO'2   33   2.174   2.326   4.806
    1RG35   O3'   34   1.973   2.572   4.990
    1RG35   H3T   35   2.025   2.501   5.027
    1RG35   O3P   36   2.298   2.897   4.557
    2SOL     OW   37   0.475   0.119   0.426
    2SOL    HW2   38   0.487   0.025   0.415
    2SOL    HW3   39   0.558   0.158   0.396
    2SOL    MW4   40   0.488   0.112   0.421
    3SOL     OW   41   4.025   0.010   0.447
    3SOL    HW2   42   4.112  -0.006   0.413
    3SOL    HW3   43   3.999  -0.073   0.488
    3SOL    MW4   44   4.033  -0.003   0.448
    4SOL     OW   45   3.858   0.468   0.472
    4SOL    HW2   46   3.774   0.503   0.442
    4SOL    HW3   47   3.858   0.484   0.567
    4SOL    MW4   48   3.846   0.475   0.481
    5SOL     OW   49   0.335   1.519   0.495
    5SOL    HW2   50   0.321   1.425   0.483
    5SOL    HW3   51   0.263   1.560   0.447
    5SOL    MW4   52   0.324   1.512   0.487
    6SOL     OW   53   1.483   0.834   0.575
    6SOL    HW2   54   1.520   0.922   0.569
    6SOL    HW3   55   1.390   0.849   0.593
    6SOL    MW4   56   1.476   0.848   0.577
    7SOL     OW   57   0.249   0.560   0.473
    7SOL    HW2   58   0.234   0.549   0.567
    7SOL    HW3   59   0.252   0.471   0.438
    7SOL    MW4   60   0.248   0.547   0.481
    8SOL     OW   61   0.410   0.993   0.420
    8SOL    HW2   62   0.420   0.979   0.514
    8SOL    HW3   63   0.420   0.906   0.382
    8SOL    MW4   64   0.412   0.980   0.428
    9SOL     OW   65   0.912   0.912   0.453
    9SOL    HW2   66   0.901   0.926   0.547
    9SOL    HW3   67   0.832   0.945   0.414
    9SOL    MW4   68   0.900   0.918   0.460
   10SOL     OW   69   0.692   1.038   0.327
   10SOL    HW2   70   0.709   1.056   0.235
   10SOL    HW3   71   0.600   1.011   0.330
   10SOL    MW4   72   0.682   1.037   0.316
   11SOL     OW   73   0.212   1.856   0.277
   11SOL    HW2   74   0.193   1.763   0.266
   11SOL    HW3   75   0.305   1.859   0.299
   11SOL    MW4   76   0.222   1.844   0.278
   12SOL     OW   77   4.066   2.295   0.611
   12SOL    HW2   78   3.974   2.269   0.608
   12SOL    HW3   79   4.113   2.213   0.625
   12SOL    MW4   80   4.060   2.280   0.612
   13SOL     OW   81   0.125   1.600   0.312
   13SOL    HW2   82   0.103   1.511   0.283
   13SOL    HW3   83   0.041   1.638   0.338
   13SOL    MW4   84   0.111   1.593   0.311
   14SOL     OW   85   0.527   2.352   0.201
   14SOL    HW2   86   0.543   2.445   0.183
   14SOL    HW3   87   0.436   2.349   0.232
   14SOL    MW4   88   0.517   2.364   0.203
   15SOL     OW   89   0.224   2.797   0.471
   15SOL    HW2   90   0.305   2.764   0.434
   15SOL    HW3   91   0.201   2.872   0.415
   15SOL    MW4   92   0.232   2.803   0.459
   16SOL     OW   93   4.242   3.284   0.414
   16SOL    HW2   94   4.158   3.259   0.453
   16SOL    HW3   95   4.302   3.214   0.439
   16SOL    MW4   96   4.239   3.272   0.423
   17SOL     OW   97   0.127   2.987   0.294
   17SOL    HW2   98   0.117   2.949   0.207
   17SOL    HW3   99   0.156   3.077   0.277
   17SOL    MW4  100   0.129   2.994   0.280
   18SOL     OW  101   0.476   3.357   0.385
   18SOL    HW2  102   0.502   3.268   0.407
   18SOL    HW3  103   0.556   3.409   0.398
   18SOL    MW4  104   0.490   3.352   0.390
   19SOL     OW  105   0.672   3.797   0.368
   19SOL    HW2  106   0.740   3.795   0.301
   19SOL    HW3  107   0.672   3.887   0.400
   19SOL    MW4  108   0.681   3.809   0.363
   20SOL     OW  109   4.254   3.814   0.423
   20SOL    HW2  110   4.280   3.871   0.495
   20SOL    HW3  111   4.289   3.728   0.446
   20SOL    MW4  112   4.262   3.810   0.436
   21SOL     OW  113   0.164   3.831   0.205
   21SOL    HW2  114   0.243   3.844   0.258
   21SOL    HW3  115   0.178   3.886   0.128
   21SOL    MW4  116   0.177   3.840   0.202
   22SOL     OW  117   4.454   4.419   0.411
   22SOL    HW2  118   4.397   4.344   0.397
   22SOL    HW3  119   4.431   4.451   0.498
   22SOL    MW4  120   4.444   4.413   0.421
   23SOL     OW  121   4.282   4.206   0.356
   23SOL    HW2  122   4.330   4.128   0.331
   23SOL    HW3  123   4.192   4.188   0.330
   23SOL    MW4  124   4.276   4.193   0.349
   24SOL     OW  125   4.461   3.992   0.308
   24SOL    HW2  126   4.398   3.928   0.342
   24SOL    HW3  127   4.529   3.940   0.266
   24SOL    MW4  128   4.461   3.977   0.307
   25SOL     OW  129   0.567   3.099   0.477
   25SOL    HW2  130   0.539   3.128   0.564
   25SOL    HW3  131   0.659   3.124   0.472
   25SOL    MW4  132   0.575   3.106   0.488
   26SOL     OW  133   0.470   4.519   0.347
   26SOL    HW2  134   0.389   4.478   0.377
   26SOL    HW3  135   0.452   4.543   0.256
   26SOL    MW4  136   0.457   4.517   0.339
   27SOL     OW  137   0.245   0.290   0.364
   27SOL    HW2  138   0.166   0.242   0.388
   27SOL    HW3  139   0.317   0.231   0.387
   27SOL    MW4  140   0.244   0.276   0.371
   28SOL     OW  141   0.026   0.667   0.365
   28SOL    HW2  142   0.028   0.637   0.274
   28SOL    HW3  143   0.112   0.642   0.400
   28SOL    MW4  144   0.038   0.660   0.358
   29SOL     OW  145   0.982   4.443   0.456
   29SOL    HW2  146   1.040   4.420   0.529
   29SOL    HW3  147   0.894   4.421   0.487
   29SOL    MW4  148   0.978   4.437   0.470
   30SOL     OW  149   1.140   1.083   0.427
   30SOL    HW2  150   1.065   1.024   0.418
   30SOL    HW3  151   1.187   1.049   0.504
   30SOL    MW4  152   1.137   1.071   0.436
   31SOL     OW  153   0.670   0.495   0.440
   31SOL    HW2  154   0.741   0.541   0.394
   31SOL    HW3  155   0.694   0.403   0.434
   31SOL    MW4  156   0.683   0.489   0.433
   32SOL     OW  157   0.274   1.242   0.480
   32SOL    HW2  158   0.329   1.169   0.451
   32SOL    HW3  159   0.215   1.259   0.407
   32SOL    MW4  160   0.274   1.235   0.467
   33SOL     OW  161   0.135   2.088   0.408
   33SOL    HW2  162   0.047   2.118   0.384
   33SOL    HW3  163   0.141   2.000   0.370
   33SOL    MW4  164   0.124   2.080   0.400
   34SOL     OW  165   0.623   2.098   0.256
   34SOL    HW2  166   0.602   2.165   0.191
   34SOL    HW3  167   0.713   2.071   0.236
   34SOL    MW4  168   0.632   2.103   0.245
   35SOL     OW  169   0.874   2.678   0.206
   35SOL    HW2  170   0.954   2.665   0.155
   35SOL    HW3  171   0.887   2.761   0.252
   35SOL    MW4  172   0.886   2.687   0.205
   36SOL     OW  173   0.597   2.690   0.112
   36SOL    HW2  174   0.592   2.676   0.018
   36SOL    HW3  175   0.690   2.704   0.130
   36SOL    MW4  176   0.609   2.690   0.102
   37SOL     OW  177   3.902   2.520   0.255
   37SOL    HW2  178   3.992   2.489   0.267
   37SOL    HW3  179   3.885   2.509   0.162
   37SOL    MW4  180   3.912   2.515   0.245
   38SOL     OW  181   1.357   2.407   0.425
   38SOL    HW2  182   1.272   2.364   0.415
   38SOL    HW3  183   1.341   2.497   0.396
   38SOL    MW4  184   1.344   2.413   0.420
   39SOL     OW  185   0.587   2.517   0.501
   39SOL    HW2  186   0.519   2.566   0.455
   39SOL    HW3  187   0.657   2.581   0.517
   39SOL    MW4  188   0.587   2.532   0.497
   40SOL     OW  189   4.400   3.065   0.488
   40SOL    HW2  190   4.466   3.038   0.424
   40SOL    HW3  191   4.339   2.992   0.493
   40SOL    MW4  192   4.401   3.052   0.480
   41SOL     OW  193   0.465   2.737   0.342
   41SOL    HW2  194   0.504   2.738   0.254
   41SOL    HW3  195   0.527   2.785   0.397
   41SOL    MW4  196   0.478   2.743   0.337
   42SOL     OW  197   0.908   0.431   0.213
   42SOL    HW2  198   0.883   0.464   0.127
   42SOL    HW3  199   0.922   0.511   0.265
   42SOL    MW4  200   0.907   0.446   0.209
   43SOL     OW  201   0.294   3.547   0.462
   43SOL    HW2  202   0.339   3.629   0.443
   43SOL    HW3  203   0.356   3.479   0.437
   43SOL    MW4  204   0.308   3.549   0.456
   44SOL     OW  205   0.705   3.530   0.468
   44SOL    HW2  206   0.683   3.613   0.427
   44SOL    HW3  207   0.681   3.542   0.560
   44SOL    MW4  208   0.699   3.542   0.475
   45SOL     OW  209   1.125   3.537   0.497
   45SOL    HW2  210   1.055   3.493   0.449
   45SOL    HW3  211   1.204   3.488   0.474
   45SOL    MW4  212   1.126   3.525   0.487
   46SOL     OW  213   0.248   4.364   0.440
   46SOL    HW2  214   0.155   4.387   0.435
   46SOL    HW3  215   0.249   4.269   0.450
   46SOL    MW4  216   0.236   4.354   0.441
   47SOL     OW  217   0.915   3.448   0.314
   47SOL    HW2  218   0.919   3.521   0.253
   47SOL    HW3  219   0.841   3.469   0.371
   47SOL    MW4  220   0.906   3.460   0.314
   48SOL     OW  221   0.717   4.407   0.509
   48SOL    HW2  222   0.644   4.446   0.462
   48SOL    HW3  223   0.691   4.409   0.601
   48SOL    MW4  224   0.704   4.412   0.515
   49SOL     OW  225   0.757   0.234   0.366
   49SOL    HW2  226   0.816   0.164   0.392
   49SOL    HW3  227   0.811   0.295   0.316
   49SOL    MW4  228   0.772   0.233   0.363
   50SOL     OW  229   0.929   0.644   0.393
   50SOL    HW2  230   0.928   0.739   0.410
   50SOL    HW3  231   1.008   0.613   0.436
   50SOL    MW4  232   0.939   0.653   0.401
   51SOL     OW  233   0.465   0.721   0.367
   51SOL    HW2  234   0.388   0.672   0.397
   51SOL    HW3  235   0.539   0.664   0.389
   51SOL    MW4  236   0.465   0.707   0.374
   52SOL     OW  237   1.416   0.427   0.527
   52SOL    HW2  238   1.418   0.411   0.621
   52SOL    HW3  239   1.505   0.455   0.505
   52SOL    MW4  240   1.428   0.429   0.536
   53SOL     OW  241   1.922   0.795   0.490
   53SOL    HW2  242   1.836   0.770   0.455
   53SOL    HW3  243   1.902   0.835   0.574
   53SOL    MW4  244   1.908   0.797   0.496
   54SOL     OW  245   1.670   0.720   0.379
   54SOL    HW2  246   1.593   0.749   0.427
   54SOL    HW3  247   1.653   0.743   0.288
   54SOL    MW4  248   1.658   0.727   0.373
   55SOL     OW  249   0.812   1.725   0.475
   55SOL    HW2  250   0.738   1.667   0.459
   55SOL    HW3  251   0.835   1.711   0.566
   55SOL    MW4  252   0.805   1.716   0.485
   56SOL     OW  253   0.719   1.322   0.462
   56SOL    HW2  254   0.703   1.236   0.425
   56SOL    HW3  255   0.814   1.330   0.466
   56SOL    MW4  256   0.729   1.312   0.458
   57SOL     OW  257   1.341   1.484   0.315
   57SOL    HW2  258   1.372   1.545   0.248
   57SOL    HW3  259   1.255   1.518   0.340
   57SOL    MW4  260   1.334   1.497   0.310
   58SOL     OW  261   0.989   1.333   0.474
   58SOL    HW2  262   1.045   1.259   0.451
   58SOL    HW3  263   1.042   1.411   0.456
   58SOL    MW4  264   1.003   1.334   0.469
   59SOL     OW  265   1.074   1.603   0.446
   59SOL    HW2  266   1.151   1.659   0.458
   59SOL    HW3  267   1.001   1.664   0.445
   59SOL    MW4  268   1.075   1.618   0.447
   60SOL     OW  269   4.348   2.186   0.324
   60SOL    HW2  270   4.286   2.259   0.328
   60SOL    HW3  271   4.350   2.162   0.231
   60SOL    MW4  272   4.340   2.193   0.312
   61SOL     OW  273   0.482   1.842   0.378
   61SOL    HW2  274   0.524   1.756   0.372
   61SOL    HW3  275   0.531   1.898   0.317
   61SOL    MW4  276   0.494   1.838   0.369
   62SOL     OW  277   0.815   2.178   0.538
   62SOL    HW2  278   0.845   2.175   0.629
   62SOL    HW3  279   0.809   2.086   0.512
   62SOL    MW4  280   0.818   2.165   0.547
   63SOL     OW  281   0.486   2.222   0.546
   63SOL    HW2  282   0.464   2.138   0.587
   63SOL    HW3  283   0.405   2.250   0.504
   63SOL    MW4  284   0.472   2.215   0.546
   64SOL     OW  285   0.860   2.574   0.566
   64SOL    HW2  286   0.879   2.503   0.504
   64SOL    HW3  287   0.891   2.542   0.650
   64SOL    MW4  288   0.867   2.560   0.569
   65SOL     OW  289   0.854   2.425   0.337
   65SOL    HW2  290   0.941   2.391   0.355
   65SOL    HW3  291   0.869   2.507   0.291
   65SOL    MW4  292   0.867   2.431   0.334
   66SOL     OW  293   0.651   2.833   0.540
   66SOL    HW2  294   0.620   2.923   0.530
   66SOL    HW3  295   0.637   2.813   0.633
   66SOL    MW4  296   0.645   2.842   0.551
   67SOL     OW  297   0.845   3.182   0.469
   67SOL    HW2  298   0.869   3.206   0.559
   67SOL    HW3  299   0.882   3.253   0.415
   67SOL    MW4  300   0.853   3.195   0.474
   68SOL     OW  301   2.145   3.532   0.456
   68SOL    HW2  302   2.100   3.563   0.535
   68SOL    HW3  303   2.081   3.476   0.412
   68SOL    MW4  304   2.131   3.529   0.461
   69SOL     OW  305   0.924   4.013   0.528
   69SOL    HW2  306   0.829   4.023   0.533
   69SOL    HW3  307   0.951   4.000   0.618
   69SOL    MW4  308   0.915   4.013   0.540
   70SOL     OW  309   0.659   4.054   0.497
   70SOL    HW2  310   0.590   4.038   0.561
   70SOL    HW3  311   0.643   4.144   0.467
   70SOL    MW4  312   0.648   4.064   0.501
   71SOL     OW  313   1.110   4.199   0.376
   71SOL    HW2  314   1.066   4.139   0.436
   71SOL    HW3  315   1.055   4.278   0.378
   71SOL    MW4  316   1.097   4.202   0.384
   72SOL     OW  317   1.152   0.480   0.475
   72SOL    HW2  318   1.140   0.395   0.434
   72SOL    HW3  319   1.246   0.484   0.495
   72SOL    MW4  320   1.163   0.469   0.472
   73SOL     OW  321   0.938   0.071   0.474
   73SOL    HW2  322   0.937  -0.024   0.463
   73SOL    HW3  323   0.930   0.085   0.568
   73SOL    MW4  324   0.937   0.061   0.485
   74SOL     OW  325   1.386   0.182   0.412
   74SOL    HW2  326   1.295   0.177   0.384
   74SOL    HW3  327   1.393   0.269   0.454
   74SOL    MW4  328   1.375   0.193   0.414
   75SOL     OW  329   2.109   0.158   0.313
   75SOL    HW2  330   2.060   0.239   0.317
   75SOL    HW3  331   2.051   0.092   0.350
   75SOL    MW4  332   2.095   0.160   0.318
   76SOL     OW  333   1.105   0.234   0.334
   76SOL    HW2  334   1.056   0.169   0.385
   76SOL    HW3  335   1.040   0.273   0.276
   76SOL    MW4  336   1.090   0.231   0.333
   77SOL     OW  337   2.417   0.485   0.496
   77SOL    HW2  338   2.327   0.516   0.503
   77SOL    HW3  339   2.410   0.399   0.453
   77SOL    MW4  340   2.404   0.478   0.491
   78SOL     OW  341   2.414   0.945   0.506
   78SOL    HW2  342   2.474   0.893   0.452
   78SOL    HW3  343   2.326   0.919   0.476
   78SOL    MW4  344   2.410   0.934   0.494
   79SOL     OW  345   1.749   1.243   0.354
   79SOL    HW2  346   1.756   1.260   0.260
   79SOL    HW3  347   1.726   1.328   0.392
   79SOL    MW4  348   1.747   1.256   0.347
   80SOL     OW  349   1.584   1.095   0.527
   80SOL    HW2  350   1.656   1.135   0.479
   80SOL    HW3  351   1.505   1.133   0.490
   80SOL    MW4  352   1.583   1.105   0.516
   81SOL     OW  353   1.376   1.239   0.436
   81SOL    HW2  354   1.306   1.181   0.406
   81SOL    HW3  355   1.364   1.320   0.386
   81SOL    MW4  356   1.365   1.242   0.425
   82SOL     OW  357   1.535   1.725   0.305
   82SOL    HW2  358   1.605   1.784   0.275
   82SOL    HW3  359   1.582   1.652   0.346
   82SOL    MW4  360   1.551   1.723   0.306
   83SOL     OW  361   1.139   2.733   0.108
   83SOL    HW2  362   1.212   2.735   0.045
   83SOL    HW3  363   1.181   2.719   0.193
   83SOL    MW4  364   1.154   2.731   0.111
   84SOL     OW  365   1.285   2.666   0.360
   84SOL    HW2  366   1.213   2.688   0.419
   84SOL    HW3  367   1.362   2.709   0.399
   84SOL    MW4  368   1.286   2.675   0.373
   85SOL     OW  369   1.777   2.189   0.174
   85SOL    HW2  370   1.865   2.227   0.179
   85SOL    HW3  371   1.720   2.255   0.213
   85SOL    MW4  372   1.781   2.203   0.180
   86SOL     OW  373   1.515   2.049   0.451
   86SOL    HW2  374   1.504   2.117   0.385
   86SOL    HW3  375   1.593   2.001   0.423
   86SOL    MW4  376   1.524   2.051   0.439
   87SOL     OW  377   0.864   1.943   0.305
   87SOL    HW2  378   0.939   1.974   0.356
   87SOL    HW3  379   0.843   1.858   0.342
   87SOL    MW4  380   0.871   1.936   0.316
   88SOL     OW  381   0.885   2.888   0.390
   88SOL    HW2  382   0.886   2.983   0.406
   88SOL    HW3  383   0.823   2.854   0.454
   88SOL    MW4  384   0.877   2.896   0.400
   89SOL     OW  385   2.019   2.252   0.340
   89SOL    HW2  386   2.010   2.171   0.390
   89SOL    HW3  387   2.112   2.271   0.341
   89SOL    MW4  388   2.030   2.244   0.347
   90SOL     OW  389   2.123   0.581   0.452
   90SOL    HW2  390   2.071   0.660   0.469
   90SOL    HW3  391   2.070   0.530   0.391
   90SOL    MW4  392   2.109   0.585   0.446
   91SOL     OW  393   1.137   3.812   0.424
   91SOL    HW2  394   1.128   3.721   0.454
   91SOL    HW3  395   1.065   3.858   0.467
   91SOL    MW4  396   1.126   3.806   0.434
   92SOL     OW  397   1.822   2.706   0.336
   92SOL    HW2  398   1.888   2.754   0.387
   92SOL    HW3  399   1.838   2.734   0.245
   92SOL    MW4  400   1.833   2.716   0.331
   93SOL     OW  401   1.386   3.942   0.499
   93SOL    HW2  402   1.300   3.901   0.484
   93SOL    HW3  403   1.381   4.025   0.453
   93SOL    MW4  404   1.374   3.947   0.491
   94SOL     OW  405   1.663   3.026   0.360
   94SOL    HW2  406   1.745   2.989   0.394
   94SOL    HW3  407   1.599   2.955   0.370
   94SOL    MW4  408   1.665   3.012   0.366
   95SOL     OW  409   2.227   3.776   0.366
   95SOL    HW2  410   2.190   3.692   0.393
   95SOL    HW3  411   2.321   3.759   0.358
   95SOL    MW4  412   2.235   3.763   0.369
   96SOL     OW  413   0.966   3.714   0.210
   96SOL    HW2  414   0.987   3.761   0.129
   96SOL    HW3  415   1.028   3.748   0.274
   96SOL    MW4  416   0.977   3.725   0.208
   97SOL     OW  417   1.920   4.636   0.459
   97SOL    HW2  418   1.830   4.667   0.447
   97SOL    HW3  419   1.917   4.544   0.433
   97SOL    MW4  420   1.908   4.628   0.454
   98SOL     OW  421   2.097   4.563   0.659
   98SOL    HW2  422   2.075   4.473   0.684
   98SOL    HW3  423   2.040   4.582   0.585
   98SOL    MW4  424   2.086   4.553   0.653
   99SOL     OW  425   2.235   4.602   0.233
   99SOL    HW2  426   2.264   4.616   0.142
   99SOL    HW3  427   2.205   4.688   0.262
   99SOL    MW4  428   2.235   4.615   0.225
  100SOL     OW  429   1.403   4.201   0.418
  100SOL    HW2  430   1.309   4.213   0.419
  100SOL    HW3  431   1.439   4.284   0.451
  100SOL    MW4  432   1.396   4.213   0.423
  101SOL     OW  433   2.674   0.630   0.474
  101SOL    HW2  434   2.585   0.598   0.482
  101SOL    HW3  435   2.667   0.708   0.418
  101SOL    MW4  436   2.662   0.636   0.468
  102SOL     OW  437   1.741   1.958   0.326
  102SOL    HW2  438   1.819   1.961   0.382
  102SOL    HW3  439   1.756   2.026   0.261
  102SOL    MW4  440   1.753   1.967   0.325
  103SOL     OW  441   2.048   1.268   0.445
  103SOL    HW2  442   2.115   1.318   0.399
  103SOL    HW3  443   1.965   1.294   0.405
  103SOL    MW4  444   2.046   1.278   0.434
  104SOL     OW  445   2.468   1.223   0.471
  104SOL    HW2  446   2.563   1.214   0.480
  104SOL    HW3  447   2.436   1.134   0.460
  104SOL    MW4  448   2.476   1.210   0.471
  105SOL     OW  449   2.217   1.873   0.426
  105SOL    HW2  450   2.285   1.941   0.430
  105SOL    HW3  451   2.254   1.800   0.475
  105SOL    MW4  452   2.231   1.873   0.433
  106SOL     OW  453   1.617   1.481   0.420
  106SOL    HW2  454   1.526   1.475   0.393
  106SOL    HW3  455   1.614   1.492   0.515
  106SOL    MW4  456   1.605   1.481   0.429
  107SOL     OW  457   1.275   1.797   0.447
  107SOL    HW2  458   1.361   1.827   0.416
  107SOL    HW3  459   1.292   1.759   0.533
  107SOL    MW4  460   1.289   1.796   0.454
  108SOL     OW  461   2.284   2.353   0.454
  108SOL    HW2  462   2.356   2.415   0.444
  108SOL    HW3  463   2.240   2.381   0.535
  108SOL    MW4  464   2.288   2.365   0.464
  109SOL     OW  465   1.694   3.315   0.418
  109SOL    HW2  466   1.682   3.225   0.387
  109SOL    HW3  467   1.783   3.337   0.393
  109SOL    MW4  468   1.704   3.306   0.411
  110SOL     OW  469   1.079   2.750   0.524
  110SOL    HW2  470   1.035   2.810   0.463
  110SOL    HW3  471   1.010   2.692   0.554
  110SOL    MW4  472   1.064   2.751   0.520
  111SOL     OW  473   1.539   3.534   0.498
  111SOL    HW2  474   1.600   3.468   0.465
  111SOL    HW3  475   1.551   3.609   0.439
  111SOL    MW4  476   1.549   3.535   0.485
  112SOL     OW  477   1.117   2.038   0.446
  112SOL    HW2  478   1.092   2.029   0.538
  112SOL    HW3  479   1.171   1.962   0.428
  112SOL    MW4  480   1.121   2.027   0.456
  113SOL     OW  481   3.859   1.691   0.351
  113SOL    HW2  482   3.802   1.750   0.401
  113SOL    HW3  483   3.819   1.604   0.362
  113SOL    MW4  484   3.846   1.687   0.359
  114SOL     OW  485   1.840   2.441   0.456
  114SOL    HW2  486   1.887   2.386   0.394
  114SOL    HW3  487   1.828   2.524   0.410
  114SOL    MW4  488   1.845   2.445   0.442
  115SOL     OW  489   1.117   2.286   0.317
  115SOL    HW2  490   1.184   2.271   0.250
  115SOL    HW3  491   1.113   2.203   0.364
  115SOL    MW4  492   1.125   2.273   0.314
  116SOL     OW  493   1.327   3.353   0.440
  116SOL    HW2  494   1.397   3.418   0.434
  116SOL    HW3  495   1.356   3.281   0.384
  116SOL    MW4  496   1.340   3.352   0.432
  117SOL     OW  497   2.428   3.458   0.451
  117SOL    HW2  498   2.334   3.462   0.465
  117SOL    HW3  499   2.466   3.492   0.532
  117SOL    MW4  500   2.421   3.463   0.463
  118SOL     OW  501   1.853   4.363   0.369
  118SOL    HW2  502   1.802   4.314   0.305
  118SOL    HW3  503   1.925   4.304   0.393
  118SOL    MW4  504   1.856   4.349   0.364
  119SOL     OW  505   1.577   3.778   0.348
  119SOL    HW2  506   1.496   3.822   0.374
  119SOL    HW3  507   1.646   3.842   0.364
  119SOL    MW4  508   1.575   3.792   0.354
  120SOL     OW  509   1.567   4.416   0.500
  120SOL    HW2  510   1.567   4.410   0.596
  120SOL    HW3  511   1.655   4.389   0.474
  120SOL    MW4  512   1.578   4.411   0.509
  121SOL     OW  513   1.643   0.032   0.470
  121SOL    HW2  514   1.563   0.069   0.435
  121SOL    HW3  515   1.631  -0.063   0.463
  121SOL    MW4  516   1.631   0.025   0.465
  122SOL     OW  517   2.407   4.430   0.654
  122SOL    HW2  518   2.434   4.507   0.705
  122SOL    HW3  519   2.423   4.356   0.712
  122SOL    MW4  520   2.413   4.431   0.668
  123SOL     OW  521   2.384   0.209   0.402
  123SOL    HW2  522   2.376   0.174   0.491
  123SOL    HW3  523   2.299   0.192   0.361
  123SOL    MW4  524   2.371   0.202   0.408
  124SOL     OW  525   2.861   1.486   0.376
  124SOL    HW2  526   2.779   1.517   0.415
  124SOL    HW3  527   2.864   1.393   0.400
  124SOL    MW4  528   2.850   1.478   0.385
  125SOL     OW  529   3.023   0.381   0.494
  125SOL    HW2  530   2.937   0.376   0.451
  125SOL    HW3  531   3.070   0.448   0.444
  125SOL    MW4  532   3.018   0.389   0.482
  126SOL     OW  533   2.127   0.988   0.463
  126SOL    HW2  534   2.093   1.077   0.458
  126SOL    HW3  535   2.049   0.933   0.458
  126SOL    MW4  536   2.112   0.992   0.462
  127SOL     OW  537   2.760   1.234   0.470
  127SOL    HW2  538   2.780   1.141   0.457
  127SOL    HW3  539   2.810   1.258   0.548
  127SOL    MW4  540   2.769   1.225   0.479
  128SOL     OW  541   2.651   1.668   0.491
  128SOL    HW2  542   2.700   1.744   0.461
  128SOL    HW3  543   2.657   1.671   0.586
  128SOL    MW4  544   2.659   1.678   0.499
  129SOL     OW  545   3.084   1.844   0.443
  129SOL    HW2  546   3.099   1.921   0.498
  129SOL    HW3  547   3.167   1.831   0.396
  129SOL    MW4  548   3.097   1.853   0.444
  130SOL     OW  549   3.007   4.547   0.438
  130SOL    HW2  550   3.064   4.624   0.430
  130SOL    HW3  551   2.987   4.542   0.532
  130SOL    MW4  552   3.012   4.557   0.450
  131SOL     OW  553   1.983   2.010   0.467
  131SOL    HW2  554   1.981   2.025   0.562
  131SOL    HW3  555   2.063   1.958   0.453
  131SOL    MW4  556   1.993   2.005   0.478
  132SOL     OW  557   1.543   1.504   0.694
  132SOL    HW2  558   1.605   1.549   0.752
  132SOL    HW3  559   1.472   1.566   0.682
  132SOL    MW4  560   1.542   1.518   0.700
  133SOL     OW  561   2.405   2.081   0.454
  133SOL    HW2  562   2.364   2.165   0.431
  133SOL    HW3  563   2.492   2.085   0.413
  133SOL    MW4  564   2.411   2.093   0.446
  134SOL     OW  565   2.685   2.135   0.406
  134SOL    HW2  566   2.722   2.062   0.356
  134SOL    HW3  567   2.733   2.134   0.489
  134SOL    MW4  568   2.696   2.125   0.410
  135SOL     OW  569   2.489   2.526   0.477
  135SOL    HW2  570   2.574   2.509   0.436
  135SOL    HW3  571   2.476   2.620   0.468
  135SOL    MW4  572   2.499   2.536   0.470
  136SOL     OW  573   1.606   2.323   0.344
  136SOL    HW2  574   1.524   2.353   0.382
  136SOL    HW3  575   1.674   2.369   0.393
  136SOL    MW4  576   1.604   2.333   0.355
  137SOL     OW  577   1.552   2.761   0.425
  137SOL    HW2  578   1.561   2.780   0.518
  137SOL    HW3  579   1.642   2.765   0.390
  137SOL    MW4  580   1.565   2.764   0.432
  138SOL     OW  581   2.030   3.969   0.334
  138SOL    HW2  582   2.056   4.016   0.255
  138SOL    HW3  583   2.100   3.906   0.349
  138SOL    MW4  584   2.042   3.967   0.326
  139SOL     OW  585   2.437   4.214   0.249
  139SOL    HW2  586   2.518   4.263   0.235
  139SOL    HW3  587   2.377   4.277   0.288
  139SOL    MW4  588   2.440   4.229   0.252
  140SOL     OW  589   1.771   3.991   0.451
  140SOL    HW2  590   1.723   4.067   0.416
  140SOL    HW3  591   1.853   3.990   0.402
  140SOL    MW4  592   1.775   4.001   0.440
  141SOL     OW  593   1.969   3.350   0.343
  141SOL    HW2  594   2.028   3.278   0.366
  141SOL    HW3  595   1.986   3.366   0.251
  141SOL    MW4  596   1.979   3.342   0.334
  142SOL     OW  597   2.271   4.365   0.408
  142SOL    HW2  598   2.311   4.390   0.492
  142SOL    HW3  599   2.263   4.446   0.359
  142SOL    MW4  600   2.275   4.379   0.413
  143SOL     OW  601   2.065   4.207   0.458
  143SOL    HW2  602   2.078   4.121   0.418
  143SOL    HW3  603   2.144   4.256   0.435
  143SOL    MW4  604   2.077   4.202   0.450
  144SOL     OW  605   3.148   0.125   0.478
  144SOL    HW2  606   3.094   0.204   0.471
  144SOL    HW3  607   3.157   0.111   0.573
  144SOL    MW4  608   3.142   0.134   0.490
  145SOL     OW  609   2.482   3.693   0.290
  145SOL    HW2  610   2.461   3.605   0.320
  145SOL    HW3  611   2.482   3.687   0.195
  145SOL    MW4  612   2.479   3.681   0.281
  146SOL     OW  613   2.530   4.056   0.455
  146SOL    HW2  614   2.446   4.037   0.498
  146SOL    HW3  615   2.508   4.114   0.383
  146SOL    MW4  616   2.516   4.061   0.451
  147SOL     OW  617   2.651   0.178   0.434
  147SOL    HW2  618   2.684   0.251   0.381
  147SOL    HW3  619   2.556   0.180   0.421
  147SOL    MW4  620   2.643   0.188   0.425
  148SOL     OW  621   1.946   0.400   0.318
  148SOL    HW2  622   1.859   0.382   0.355
  148SOL    HW3  623   1.930   0.408   0.224
  148SOL    MW4  624   1.932   0.398   0.311
  149SOL     OW  625   3.107   0.669   0.383
  149SOL    HW2  626   3.108   0.762   0.408
  149SOL    HW3  627   3.189   0.634   0.417
  149SOL    MW4  628   3.118   0.677   0.391
  150SOL     OW  629   2.371   1.640   0.527
  150SOL    HW2  630   2.462   1.663   0.507
  150SOL    HW3  631   2.348   1.574   0.462
  150SOL    MW4  632   2.380   1.635   0.516
  151SOL     OW  633   2.648   0.878   0.333
  151SOL    HW2  634   2.734   0.914   0.355
  151SOL    HW3  635   2.643   0.885   0.238
  151SOL    MW4  636   2.659   0.884   0.323
  152SOL     OW  637   3.082   1.581   0.506
  152SOL    HW2  638   3.001   1.556   0.462
  152SOL    HW3  639   3.080   1.677   0.506
  152SOL    MW4  640   3.071   1.591   0.500
  153SOL     OW  641   3.473   1.266   0.449
  153SOL    HW2  642   3.447   1.269   0.541
  153SOL    HW3  643   3.455   1.176   0.422
  153SOL    MW4  644   3.467   1.254   0.458
  154SOL     OW  645   3.718   1.454   0.411
  154SOL    HW2  646   3.641   1.399   0.396
  154SOL    HW3  647   3.699   1.502   0.492
  154SOL    MW4  648   3.706   1.453   0.420
  155SOL     OW  649   2.680   0.088   0.706
  155SOL    HW2  650   2.693   0.170   0.753
  155SOL    HW3  651   2.689   0.112   0.613
  155SOL    MW4  652   2.683   0.102   0.700
  156SOL     OW  653   3.122   2.032   0.650
  156SOL    HW2  654   3.028   2.046   0.654
  156SOL    HW3  655   3.143   1.987   0.732
  156SOL    MW4  656   3.113   2.028   0.662
  157SOL     OW  657   2.761   2.461   0.380
  157SOL    HW2  658   2.851   2.492   0.385
  157SOL    HW3  659   2.768   2.366   0.374
  157SOL    MW4  660   2.774   2.453   0.379
  158SOL     OW  661   2.802   1.870   0.342
  158SOL    HW2  662   2.827   1.876   0.249
  158SOL    HW3  663   2.875   1.825   0.383
  158SOL    MW4  664   2.815   1.865   0.335
  159SOL     OW  665   2.523   2.816   0.451
  159SOL    HW2  666   2.469   2.879   0.403
  159SOL    HW3  667   2.495   2.825   0.542
  159SOL    MW4  668   2.512   2.826   0.457
  160SOL     OW  669   2.766   2.942   0.448
  160SOL    HW2  670   2.752   3.029   0.410
  160SOL    HW3  671   2.685   2.894   0.429
  160SOL    MW4  672   2.753   2.947   0.440
  161SOL     OW  673   3.011   3.262   0.361
  161SOL    HW2  674   3.087   3.243   0.416
  161SOL    HW3  675   3.044   3.258   0.271
  161SOL    MW4  676   3.025   3.259   0.356
  162SOL     OW  677   3.235   3.151   0.489
  162SOL    HW2  678   3.276   3.066   0.472
  162SOL    HW3  679   3.202   3.144   0.579
  162SOL    MW4  680   3.236   3.139   0.499
  163SOL     OW  681   2.111   3.126   0.418
  163SOL    HW2  682   2.142   3.142   0.507
  163SOL    HW3  683   2.168   3.056   0.385
  163SOL    MW4  684   2.123   3.119   0.425
  164SOL     OW  685   1.646   4.178   0.265
  164SOL    HW2  686   1.629   4.138   0.179
  164SOL    HW3  687   1.560   4.192   0.303
  164SOL    MW4  688   1.633   4.175   0.258
  165SOL     OW  689   3.301   4.063   0.405
  165SOL    HW2  690   3.219   4.109   0.421
  165SOL    HW3  691   3.310   4.002   0.479
  165SOL    MW4  692   3.291   4.061   0.417
  166SOL     OW  693   2.742   3.229   0.424
  166SOL    HW2  694   2.726   3.207   0.516
  166SOL    HW3  695   2.836   3.216   0.413
  166SOL    MW4  696   2.752   3.224   0.435
  167SOL     OW  697   2.477   3.196   0.330
  167SOL    HW2  698   2.571   3.187   0.341
  167SOL    HW3  699   2.454   3.273   0.382
  167SOL    MW4  700   2.486   3.205   0.339
  168SOL     OW  701   3.581   4.081   0.323
  168SOL    HW2  702   3.585   4.090   0.227
  168SOL    HW3  703   3.488   4.079   0.343
  168SOL    MW4  704   3.569   4.082   0.313
  169SOL     OW  705   3.115   4.274   0.430
  169SOL    HW2  706   3.025   4.241   0.436
  169SOL    HW3  707   3.105   4.368   0.419
  169SOL    MW4  708   3.102   4.282   0.429
  170SOL     OW  709   3.401   0.227   0.401
  170SOL    HW2  710   3.320   0.178   0.413
  170SOL    HW3  711   3.469   0.171   0.438
  170SOL    MW4  712   3.399   0.213   0.407
  171SOL     OW  713   2.746   4.594   0.333
  171SOL    HW2  714   2.711   4.682   0.351
  171SOL    HW3  715   2.837   4.598   0.363
  171SOL    MW4  716   2.753   4.606   0.340
  172SOL     OW  717   2.801   3.944   0.269
  172SOL    HW2  718   2.754   3.877   0.317
  172SOL    HW3  719   2.733   3.996   0.227
  172SOL    MW4  720   2.786   3.942   0.270
  173SOL     OW  721   2.796   0.427   0.337
  173SOL    HW2  722   2.762   0.505   0.382
  173SOL    HW3  723   2.853   0.462   0.268
  173SOL    MW4  724   2.799   0.442   0.334
  174SOL     OW  725   3.158   0.972   0.449
  174SOL    HW2  726   3.159   0.958   0.544
  174SOL    HW3  727   3.246   1.004   0.429
  174SOL    MW4  728   3.170   0.975   0.459
  175SOL     OW  729   3.351   0.506   0.435
  175SOL    HW2  730   3.367   0.413   0.418
  175SOL    HW3  731   3.434   0.549   0.416
  175SOL    MW4  732   3.364   0.500   0.430
  176SOL     OW  733   3.599   0.877   0.436
  176SOL    HW2  734   3.615   0.791   0.397
  176SOL    HW3  735   3.629   0.869   0.527
  176SOL    MW4  736   3.605   0.865   0.443
  177SOL     OW  737   3.603   0.345   0.228
  177SOL    HW2  738   3.519   0.301   0.241
  177SOL    HW3  739   3.668   0.279   0.254
  177SOL    MW4  740   3.601   0.330   0.234
  178SOL     OW  741   3.424   1.820   0.741
  178SOL    HW2  742   3.416   1.813   0.646
  178SOL    HW3  743   3.335   1.838   0.771
  178SOL    MW4  744   3.412   1.821   0.732
  179SOL     OW  745   3.399   1.816   0.456
  179SOL    HW2  746   3.415   1.723   0.442
  179SOL    HW3  747   3.469   1.860   0.408
  179SOL    MW4  748   3.410   1.810   0.448
  180SOL     OW  749   3.394   1.020   0.331
  180SOL    HW2  750   3.458   0.964   0.376
  180SOL    HW3  751   3.424   1.021   0.239
  180SOL    MW4  752   3.407   1.013   0.324
  181SOL     OW  753   3.964   1.986   0.358
  181SOL    HW2  754   3.937   1.897   0.333
  181SOL    HW3  755   3.883   2.035   0.365
  181SOL    MW4  756   3.950   1.981   0.356
  182SOL     OW  757   3.286   2.256   0.608
  182SOL    HW2  758   3.235   2.175   0.616
  182SOL    HW3  759   3.350   2.251   0.679
  182SOL    MW4  760   3.288   2.245   0.619
  183SOL     OW  761   3.503   2.664   0.509
  183SOL    HW2  762   3.530   2.657   0.601
  183SOL    HW3  763   3.451   2.586   0.494
  183SOL    MW4  764   3.500   2.653   0.519
  184SOL     OW  765   1.916   2.935   0.467
  184SOL    HW2  766   1.914   2.919   0.561
  184SOL    HW3  767   1.974   3.011   0.458
  184SOL    MW4  768   1.923   2.943   0.478
  185SOL     OW  769   3.213   2.632   0.269
  185SOL    HW2  770   3.183   2.589   0.189
  185SOL    HW3  771   3.300   2.596   0.284
  185SOL    MW4  772   3.220   2.621   0.261
  186SOL     OW  773   2.970   2.817   0.776
  186SOL    HW2  774   2.979   2.793   0.684
  186SOL    HW3  775   3.043   2.774   0.821
  186SOL    MW4  776   2.980   2.808   0.770
  187SOL     OW  777   2.993   0.573   0.145
  187SOL    HW2  778   3.042   0.610   0.218
  187SOL    HW3  779   3.051   0.580   0.070
  187SOL    MW4  780   3.007   0.579   0.145
  188SOL     OW  781   2.872   4.103   0.479
  188SOL    HW2  782   2.862   4.049   0.401
  188SOL    HW3  783   2.931   4.054   0.536
  188SOL    MW4  784   2.878   4.090   0.477
  189SOL     OW  785   3.359   3.555   0.622
  189SOL    HW2  786   3.398   3.483   0.573
  189SOL    HW3  787   3.312   3.513   0.694
  189SOL    MW4  788   3.358   3.540   0.625
  190SOL     OW  789   3.741   3.324   0.564
  190SOL    HW2  790   3.770   3.412   0.588
  190SOL    HW3  791   3.658   3.337   0.519
  190SOL    MW4  792   3.734   3.337   0.562
  191SOL     OW  793   3.459   3.324   0.478
  191SOL    HW2  794   3.470   3.307   0.384
  191SOL    HW3  795   3.385   3.270   0.504
  191SOL    MW4  796   3.451   3.314   0.469
  192SOL     OW  797   2.713   3.741   0.438
  192SOL    HW2  798   2.756   3.657   0.419
  192SOL    HW3  799   2.625   3.731   0.403
  192SOL    MW4  800   2.707   3.728   0.431
  193SOL     OW  801   2.312   2.963   0.322
  193SOL    HW2  802   2.317   2.933   0.231
  193SOL    HW3  803   2.346   3.052   0.320
  193SOL    MW4  804   2.317   2.970   0.310
  194SOL     OW  805   4.312   4.658   0.385
  194SOL    HW2  806   4.346   4.670   0.296
  194SOL    HW3  807   4.338   4.569   0.409
  194SOL    MW4  808   4.320   4.648   0.377
  195SOL     OW  809   3.809   0.178   0.395
  195SOL    HW2  810   3.833   0.270   0.409
  195SOL    HW3  811   3.890   0.130   0.412
  195SOL    MW4  812   3.823   0.184   0.399
  196SOL     OW  813   3.647   0.593   0.352
  196SOL    HW2  814   3.615   0.514   0.309
  196SOL    HW3  815   3.729   0.613   0.308
  196SOL    MW4  816   3.654   0.585   0.341
  197SOL     OW  817   3.863   0.724   0.207
  197SOL    HW2  818   3.873   0.817   0.230
  197SOL    HW3  819   3.948   0.699   0.172
  197SOL    MW4  820   3.876   0.733   0.206
  198SOL     OW  821   4.100   0.609   0.389
  198SOL    HW2  822   4.176   0.562   0.422
  198SOL    HW3  823   4.026   0.551   0.407
  198SOL    MW4  824   4.100   0.595   0.396
  199SOL     OW  825   4.358   0.916   0.444
  199SOL    HW2  826   4.271   0.876   0.446
  199SOL    HW3  827   4.416   0.847   0.413
  199SOL    MW4  828   4.354   0.902   0.440
  200SOL     OW  829   3.865   0.973   0.351
  200SOL    HW2  830   3.864   1.066   0.375
  200SOL    HW3  831   3.776   0.943   0.367
  200SOL    MW4  832   3.853   0.981   0.356
  201SOL     OW  833   4.094   1.578   0.491
  201SOL    HW2  834   4.031   1.606   0.424
  201SOL    HW3  835   4.178   1.612   0.460
  201SOL    MW4  836   4.097   1.587   0.478
  202SOL     OW  837   3.855   1.233   0.480
  202SOL    HW2  838   3.947   1.260   0.472
  202SOL    HW3  839   3.805   1.313   0.466
  202SOL    MW4  840   3.861   1.247   0.478
  203SOL     OW  841   3.364   1.530   0.443
  203SOL    HW2  842   3.269   1.525   0.452
  203SOL    HW3  843   3.390   1.441   0.416
  203SOL    MW4  844   3.355   1.517   0.441
  204SOL     OW  845   2.872   0.991   0.447
  204SOL    HW2  846   2.865   0.948   0.532
  204SOL    HW3  847   2.966   0.994   0.428
  204SOL    MW4  848   2.883   0.986   0.455
  205SOL     OW  849   3.675   2.392   0.393
  205SOL    HW2  850   3.752   2.427   0.348
  205SOL    HW3  851   3.711   2.343   0.467
  205SOL    MW4  852   3.690   2.390   0.397
  206SOL     OW  853   4.238   2.834   0.518
  206SOL    HW2  854   4.256   2.752   0.473
  206SOL    HW3  855   4.143   2.843   0.515
  206SOL    MW4  856   4.228   2.825   0.511
  207SOL     OW  857   3.038   2.529   0.458
  207SOL    HW2  858   3.072   2.512   0.546
  207SOL    HW3  859   3.115   2.552   0.407
  207SOL    MW4  860   3.053   2.530   0.463
  208SOL     OW  861   2.822   3.480   0.433
  208SOL    HW2  862   2.913   3.455   0.417
  208SOL    HW3  863   2.774   3.398   0.431
  208SOL    MW4  864   2.828   3.466   0.430
  209SOL     OW  865   3.338   2.891   0.481
  209SOL    HW2  866   3.400   2.820   0.467
  209SOL    HW3  867   3.256   2.858   0.446
  209SOL    MW4  868   3.336   2.878   0.474
  210SOL     OW  869   3.969   2.905   0.466
  210SOL    HW2  870   3.899   2.888   0.404
  210SOL    HW3  871   3.982   3.000   0.462
  210SOL    MW4  872   3.962   2.916   0.457
  211SOL     OW  873   3.743   2.742   0.386
  211SOL    HW2  874   3.796   2.665   0.367
  211SOL    HW3  875   3.667   2.708   0.433
  211SOL    MW4  876   3.740   2.728   0.389
  212SOL     OW  877   3.822   4.030   0.481
  212SOL    HW2  878   3.870   3.949   0.463
  212SOL    HW3  879   3.736   4.016   0.440
  212SOL    MW4  880   3.817   4.018   0.473
  213SOL     OW  881   3.383   2.439   0.397
  213SOL    HW2  882   3.348   2.370   0.454
  213SOL    HW3  883   3.476   2.420   0.388
  213SOL    MW4  884   3.390   2.428   0.404
  214SOL     OW  885   3.318   3.853   0.597
  214SOL    HW2  886   3.360   3.859   0.682
  214SOL    HW3  887   3.329   3.761   0.571
  214SOL    MW4  888   3.325   3.842   0.605
  215SOL     OW  889   4.340   3.964   0.636
  215SOL    HW2  890   4.284   3.916   0.696
  215SOL    HW3  891   4.301   4.051   0.629
  215SOL    MW4  892   4.328   3.969   0.643
  216SOL     OW  893   3.424   4.306   0.494
  216SOL    HW2  894   3.383   4.246   0.431
  216SOL    HW3  895   3.501   4.260   0.526
  216SOL    MW4  896   3.428   4.292   0.490
  217SOL     OW  897   3.652   4.429   0.386
  217SOL    HW2  898   3.565   4.393   0.404
  217SOL    HW3  899   3.700   4.357   0.345
  217SOL    MW4  900   3.647   4.415   0.383
  218SOL     OW  901   4.483   0.190   0.472
  218SOL    HW2  902   4.431   0.127   0.423
  218SOL    HW3  903   4.475   0.161   0.563
  218SOL    MW4  904   4.475   0.178   0.478
  219SOL     OW  905   4.070   0.850   0.482
  219SOL    HW2  906   4.006   0.893   0.426
  219SOL    HW3  907   4.070   0.758   0.454
  219SOL    MW4  908   4.062   0.843   0.471
  220SOL     OW  909   0.585   1.582   0.417
  220SOL    HW2  910   0.505   1.549   0.459
  220SOL    HW3  911   0.642   1.506   0.410
  220SOL    MW4  912   0.582   1.568   0.421
  221SOL     OW  913   4.359   0.445   0.473
  221SOL    HW2  914   4.403   0.360   0.474
  221SOL    HW3  915   4.424   0.506   0.439
  221SOL    MW4  916   4.373   0.442   0.469
  222SOL     OW  917   4.349   1.187   0.382
  222SOL    HW2  918   4.350   1.093   0.402
  222SOL    HW3  919   4.267   1.219   0.418
  222SOL    MW4  920   4.339   1.179   0.390
  223SOL     OW  921   3.599   0.054   0.492
  223SOL    HW2  922   3.605  -0.023   0.435
  223SOL    HW3  923   3.676   0.106   0.469
  223SOL    MW4  924   3.610   0.051   0.481
  224SOL     OW  925   4.131   1.298   0.519
  224SOL    HW2  926   4.146   1.390   0.499
  224SOL    HW3  927   4.176   1.284   0.602
  224SOL    MW4  928   4.139   1.308   0.527
  225SOL     OW  929   0.078   1.315   0.286
  225SOL    HW2  930   0.085   1.276   0.199
  225SOL    HW3  931  -0.010   1.290   0.316
  225SOL    MW4  932   0.067   1.307   0.279
  226SOL     OW  933   4.153   2.382   0.361
  226SOL    HW2  934   4.107   2.343   0.436
  226SOL    HW3  935   4.213   2.445   0.400
  226SOL    MW4  936   4.155   2.385   0.376
  227SOL     OW  937   4.371   1.691   0.421
  227SOL    HW2  938   4.331   1.778   0.422
  227SOL    HW3  939   4.413   1.684   0.507
  227SOL    MW4  940   4.371   1.701   0.433
  228SOL     OW  941   0.297   2.320   0.368
  228SOL    HW2  942   0.245   2.240   0.365
  228SOL    HW3  943   0.236   2.387   0.397
  228SOL    MW4  944   0.282   2.318   0.372
  229SOL     OW  945   4.243   1.960   0.436
  229SOL    HW2  946   4.150   1.967   0.416
  229SOL    HW3  947   4.282   2.039   0.398
  229SOL    MW4  948   4.236   1.971   0.428
  230SOL     OW  949   0.112   2.519   0.479
  230SOL    HW2  950   0.133   2.613   0.478
  230SOL    HW3  951   0.110   2.496   0.571
  230SOL    MW4  952   0.114   2.528   0.491
  231SOL     OW  953   4.314   3.541   0.470
  231SOL    HW2  954   4.398   3.535   0.424
  231SOL    HW3  955   4.267   3.462   0.443
  231SOL    MW4  956   4.319   3.530   0.460
  232SOL     OW  957   4.328   2.572   0.475
  232SOL    HW2  958   4.291   2.563   0.563
  232SOL    HW3  959   4.422   2.563   0.488
  232SOL    MW4  960   4.335   2.570   0.488
  233SOL     OW  961   0.376   3.830   0.401
  233SOL    HW2  962   0.349   3.898   0.463
  233SOL    HW3  963   0.471   3.842   0.393
  233SOL    MW4  964   0.385   3.840   0.408
  234SOL     OW  965   0.059   3.558   0.296
  234SOL    HW2  966   0.053   3.637   0.243
  234SOL    HW3  967   0.142   3.567   0.344
  234SOL    MW4  968   0.069   3.569   0.295
  235SOL     OW  969   0.211   3.254   0.277
  235SOL    HW2  970   0.160   3.335   0.273
  235SOL    HW3  971   0.299   3.283   0.302
  235SOL    MW4  972   0.216   3.269   0.280
  236SOL     OW  973   3.977   3.794   0.494
  236SOL    HW2  974   3.957   3.716   0.546
  236SOL    HW3  975   4.066   3.779   0.462
  236SOL    MW4  976   3.986   3.782   0.497
  237SOL     OW  977   3.994   3.187   0.491
  237SOL    HW2  978   4.024   3.186   0.582
  237SOL    HW3  979   3.909   3.231   0.494
  237SOL    MW4  980   3.987   3.192   0.503
  238SOL     OW  981   0.209   4.059   0.448
  238SOL    HW2  982   0.177   4.055   0.538
  238SOL    HW3  983   0.131   4.044   0.394
  238SOL    MW4  984   0.194   4.057   0.453
  239SOL     OW  985   3.996   4.228   0.381
  239SOL    HW2  986   3.928   4.169   0.413
  239SOL    HW3  987   3.978   4.311   0.426
  239SOL    MW4  988   3.985   4.231   0.391
  240SOL     OW  989   4.215   4.211   0.630
  240SOL    HW2  990   4.284   4.267   0.666
  240SOL    HW3  991   4.224   4.221   0.535
  240SOL    MW4  992   4.225   4.220   0.622
  241SOL     OW  993   3.903   4.440   0.536
  241SOL    HW2  994   3.888   4.403   0.623
  241SOL    HW3  995   3.816   4.458   0.502
  241SOL    MW4  996   3.890   4.438   0.543
  242SOL     OW  997   0.243   0.017   0.790
  242SOL    HW2  998   0.246  -0.076   0.766
  242SOL    HW3  999   0.162   0.050   0.750
  242SOL    MW4 1000   0.233   0.009   0.781
  243SOL     OW 1001   4.474   0.083   0.729
  243SOL    HW2 1002   4.399   0.044   0.773
  243SOL    HW3 1003   4.483   0.170   0.769
  243SOL    MW4 1004   4.465   0.089   0.740
  244SOL     OW 1005   0.033   0.334   0.853
  244SOL    HW2 1006   0.037   0.347   0.948
  244SOL    HW3 1007   0.095   0.398   0.818
  244SOL    MW4 1008   0.042   0.344   0.861
  245SOL     OW 1009   0.207   0.537   0.749
  245SOL    HW2 1010   0.295   0.507   0.769
  245SOL    HW3 1011   0.206   0.629   0.774
  245SOL    MW4 1012   0.218   0.545   0.755
  246SOL     OW 1013   0.216   0.804   0.819
  246SOL    HW2 1014   0.205   0.833   0.909
  246SOL    HW3 1015   0.153   0.856   0.769
  246SOL    MW4 1016   0.206   0.814   0.824
  247SOL     OW 1017   4.448   0.901   0.719
  247SOL    HW2 1018   4.397   0.831   0.759
  247SOL    HW3 1019   4.407   0.915   0.634
  247SOL    MW4 1020   4.436   0.894   0.713
  248SOL     OW 1021   4.480   1.174   0.818
  248SOL    HW2 1022   4.501   1.173   0.911
  248SOL    HW3 1023   4.477   1.082   0.793
  248SOL    MW4 1024   4.483   1.162   0.827
  249SOL     OW 1025   0.210   1.302   0.740
  249SOL    HW2 1026   0.134   1.248   0.759
  249SOL    HW3 1027   0.228   1.287   0.647
  249SOL    MW4 1028   0.203   1.293   0.730
  250SOL     OW 1029   0.219   1.560   0.833
  250SOL    HW2 1030   0.305   1.583   0.797
  250SOL    HW3 1031   0.206   1.469   0.806
  250SOL    MW4 1032   0.229   1.551   0.824
  251SOL     OW 1033   4.452   1.669   0.714
  251SOL    HW2 1034   4.383   1.620   0.758
  251SOL    HW3 1035   4.534   1.627   0.743
  251SOL    MW4 1036   4.454   1.657   0.724
  252SOL     OW 1037   4.457   1.929   0.818
  252SOL    HW2 1038   4.535   1.973   0.784
  252SOL    HW3 1039   4.454   1.845   0.771
  252SOL    MW4 1040   4.467   1.923   0.807
  253SOL     OW 1041   0.172   2.048   0.678
  253SOL    HW2 1042   0.205   2.129   0.717
  253SOL    HW3 1043   0.148   2.072   0.588
  253SOL    MW4 1044   0.173   2.062   0.671
  254SOL     OW 1045   0.274   2.258   0.813
  254SOL    HW2 1046   0.246   2.279   0.902
  254SOL    HW3 1047   0.352   2.312   0.799
  254SOL    MW4 1048   0.280   2.268   0.823
  255SOL     OW 1049   0.082   2.476   0.753
  255SOL    HW2 1050   0.000   2.427   0.765
  255SOL    HW3 1051   0.151   2.412   0.767
  255SOL    MW4 1052   0.080   2.461   0.756
  256SOL     OW 1053   0.041   2.726   0.862
  256SOL    HW2 1054   0.031   2.708   0.956
  256SOL    HW3 1055   0.038   2.639   0.821
  256SOL    MW4 1056   0.039   2.712   0.869
  257SOL     OW 1057   0.256   2.845   0.757
  257SOL    HW2 1058   0.176   2.806   0.791
  257SOL    HW3 1059   0.249   2.836   0.662
  257SOL    MW4 1060   0.245   2.838   0.749
  258SOL     OW 1061   0.256   3.110   0.844
  258SOL    HW2 1062   0.244   3.107   0.939
  258SOL    HW3 1063   0.260   3.018   0.818
  258SOL    MW4 1064   0.255   3.097   0.853
  259SOL     OW 1065   4.481   3.192   0.776
  259SOL    HW2 1066   4.571   3.162   0.790
  259SOL    HW3 1067   4.472   3.198   0.681
  259SOL    MW4 1068   4.492   3.189   0.766
  260SOL     OW 1069   4.477   3.465   0.848
  260SOL    HW2 1070   4.402   3.511   0.810
  260SOL    HW3 1071   4.469   3.375   0.818
  260SOL    MW4 1072   4.466   3.460   0.839
  261SOL     OW 1073   0.225   3.583   0.740
  261SOL    HW2 1074   0.153   3.528   0.771
  261SOL    HW3 1075   0.242   3.551   0.651
  261SOL    MW4 1076   0.218   3.571   0.732
  262SOL     OW 1077   0.285   3.852   0.826
  262SOL    HW2 1078   0.275   3.847   0.921
  262SOL    HW3 1079   0.259   3.766   0.794
  262SOL    MW4 1080   0.280   3.840   0.834
  263SOL     OW 1081   0.109   4.025   0.697
  263SOL    HW2 1082   0.022   3.989   0.685
  263SOL    HW3 1083   0.162   3.952   0.728
  263SOL    MW4 1084   0.105   4.011   0.699
  264SOL     OW 1085   0.076   4.259   0.825
  264SOL    HW2 1086   0.058   4.255   0.919
  264SOL    HW3 1087   0.086   4.168   0.798
  264SOL    MW4 1088   0.075   4.247   0.834
  265SOL     OW 1089   0.259   4.424   0.714
  265SOL    HW2 1090   0.198   4.362   0.753
  265SOL    HW3 1091   0.262   4.401   0.622
  265SOL    MW4 1092   0.251   4.413   0.707
  266SOL     OW 1093   0.664   0.030   0.816
  266SOL    HW2 1094   0.649   0.020   0.910
  266SOL    HW3 1095   0.598   0.092   0.787
  266SOL    MW4 1096   0.653   0.037   0.824
  267SOL     OW 1097   0.458   0.175   0.705
  267SOL    HW2 1098   0.383   0.126   0.739
  267SOL    HW3 1099   0.462   0.152   0.612
  267SOL    MW4 1100   0.448   0.166   0.697
  268SOL     OW 1101   0.469   0.447   0.828
  268SOL    HW2 1102   0.538   0.498   0.786
  268SOL    HW3 1103   0.462   0.367   0.776
  268SOL    MW4 1104   0.477   0.443   0.816
  269SOL     OW 1105   0.663   0.592   0.696
  269SOL    HW2 1106   0.746   0.554   0.727
  269SOL    HW3 1107   0.664   0.578   0.601
  269SOL    MW4 1108   0.674   0.585   0.687
  270SOL     OW 1109   0.626   0.829   0.834
  270SOL    HW2 1110   0.554   0.865   0.782
  270SOL    HW3 1111   0.636   0.739   0.801
  270SOL    MW4 1112   0.617   0.822   0.823
  271SOL     OW 1113   0.419   0.943   0.687
  271SOL    HW2 1114   0.411   1.023   0.739
  271SOL    HW3 1115   0.352   0.884   0.722
  271SOL    MW4 1116   0.409   0.946   0.698
  272SOL     OW 1117   0.412   1.164   0.862
  272SOL    HW2 1118   0.493   1.205   0.832
  272SOL    HW3 1119   0.343   1.210   0.815
  272SOL    MW4 1120   0.414   1.175   0.852
  273SOL     OW 1121   0.635   1.306   0.747
  273SOL    HW2 1122   0.638   1.397   0.778
  273SOL    HW3 1123   0.658   1.312   0.654
  273SOL    MW4 1124   0.639   1.319   0.739
  274SOL     OW 1125   0.705   1.567   0.841
  274SOL    HW2 1126   0.700   1.588   0.934
  274SOL    HW3 1127   0.623   1.602   0.805
  274SOL    MW4 1128   0.693   1.574   0.848
  275SOL     OW 1129   0.454   1.656   0.718
  275SOL    HW2 1130   0.451   1.747   0.688
  275SOL    HW3 1131   0.441   1.604   0.639
  275SOL    MW4 1132   0.452   1.661   0.704
  276SOL     OW 1133   0.434   1.931   0.628
  276SOL    HW2 1134   0.341   1.945   0.646
  276SOL    HW3 1135   0.436   1.901   0.537
  276SOL    MW4 1136   0.422   1.929   0.618
  277SOL     OW 1137   0.588   2.057   0.841
  277SOL    HW2 1138   0.532   2.040   0.917
  277SOL    HW3 1139   0.535   2.031   0.766
  277SOL    MW4 1140   0.574   2.051   0.841
  278SOL     OW 1141   0.710   2.296   0.894
  278SOL    HW2 1142   0.706   2.310   0.989
  278SOL    HW3 1143   0.658   2.217   0.879
  278SOL    MW4 1144   0.702   2.287   0.904
  279SOL     OW 1145   0.487   2.430   0.763
  279SOL    HW2 1146   0.559   2.390   0.812
  279SOL    HW3 1147   0.526   2.457   0.680
  279SOL    MW4 1148   0.501   2.429   0.759
  280SOL     OW 1149   0.456   2.675   0.878
  280SOL    HW2 1150   0.454   2.592   0.830
  280SOL    HW3 1151   0.381   2.725   0.845
  280SOL    MW4 1152   0.446   2.671   0.867
  281SOL     OW 1153   0.666   2.838   0.835
  281SOL    HW2 1154   0.741   2.787   0.864
  281SOL    HW3 1155   0.592   2.778   0.845
  281SOL    MW4 1156   0.666   2.823   0.840
  282SOL     OW 1157   0.685   3.106   0.878
  282SOL    HW2 1158   0.604   3.142   0.843
  282SOL    HW3 1159   0.676   3.011   0.866
  282SOL    MW4 1160   0.673   3.098   0.871
  283SOL     OW 1161   0.477   3.207   0.734
  283SOL    HW2 1162   0.492   3.295   0.769
  283SOL    HW3 1163   0.403   3.174   0.784
  283SOL    MW4 1164   0.470   3.214   0.745
  284SOL     OW 1165   0.456   3.460   0.884
  284SOL    HW2 1166   0.455   3.474   0.979
  284SOL    HW3 1167   0.374   3.499   0.854
  284SOL    MW4 1168   0.445   3.467   0.893
  285SOL     OW 1169   0.655   3.620   0.746
  285SOL    HW2 1170   0.583   3.587   0.801
  285SOL    HW3 1171   0.671   3.709   0.777
  285SOL    MW4 1172   0.647   3.627   0.757
  286SOL     OW 1173   0.671   3.871   0.840
  286SOL    HW2 1174   0.755   3.910   0.818
  286SOL    HW3 1175   0.607   3.922   0.790
  286SOL    MW4 1176   0.674   3.883   0.831
  287SOL     OW 1177   0.472   3.995   0.676
  287SOL    HW2 1178   0.450   4.080   0.715
  287SOL    HW3 1179   0.415   3.932   0.720
  287SOL    MW4 1180   0.462   3.998   0.687
  288SOL     OW 1181   0.446   4.246   0.792
  288SOL    HW2 1182   0.435   4.243   0.887
  288SOL    HW3 1183   0.382   4.311   0.763
  288SOL    MW4 1184   0.436   4.254   0.801
  289SOL     OW 1185   0.693   4.400   0.774
  289SOL    HW2 1186   0.616   4.347   0.795
  289SOL    HW3 1187   0.667   4.489   0.798
  289SOL    MW4 1188   0.679   4.405   0.780
  290SOL     OW 1189   1.171   4.625   0.829
  290SOL    HW2 1190   1.241   4.665   0.777
  290SOL    HW3 1191   1.095   4.680   0.812
  290SOL    MW4 1192   1.170   4.638   0.820
  291SOL     OW 1193   0.930   0.106   0.748
  291SOL    HW2 1194   0.923   0.201   0.760
  291SOL    HW3 1195   0.847   0.071   0.779
  291SOL    MW4 1196   0.918   0.114   0.753
  292SOL     OW 1197   0.880   0.428   0.813
  292SOL    HW2 1198   0.857   0.427   0.906
  292SOL    HW3 1199   0.975   0.425   0.812
  292SOL    MW4 1200   0.889   0.427   0.825
  293SOL     OW 1201   1.146   0.461   0.752
  293SOL    HW2 1202   1.238   0.439   0.766
  293SOL    HW3 1203   1.136   0.466   0.657
  293SOL    MW4 1204   1.156   0.459   0.742
  294SOL     OW 1205   1.101   0.760   0.798
  294SOL    HW2 1206   1.114   0.769   0.893
  294SOL    HW3 1207   1.100   0.665   0.783
  294SOL    MW4 1208   1.103   0.748   0.809
  295SOL     OW 1209   0.867   0.912   0.721
  295SOL    HW2 1210   0.933   0.863   0.770
  295SOL    HW3 1211   0.784   0.869   0.741
  295SOL    MW4 1212   0.865   0.900   0.730
  296SOL     OW 1213   0.852   1.170   0.865
  296SOL    HW2 1214   0.840   1.088   0.817
  296SOL    HW3 1215   0.780   1.226   0.836
  296SOL    MW4 1216   0.841   1.167   0.854
  297SOL     OW 1217   1.057   1.324   0.747
  297SOL    HW2 1218   0.984   1.290   0.798
  297SOL    HW3 1219   1.028   1.317   0.656
  297SOL    MW4 1220   1.044   1.318   0.742
  298SOL     OW 1221   1.124   1.567   0.840
  298SOL    HW2 1222   1.049   1.613   0.802
  298SOL    HW3 1223   1.116   1.477   0.807
  298SOL    MW4 1224   1.113   1.561   0.830
  299SOL     OW 1225   0.903   1.716   0.744
  299SOL    HW2 1226   0.888   1.803   0.781
  299SOL    HW3 1227   0.844   1.658   0.792
  299SOL    MW4 1228   0.893   1.720   0.755
  300SOL     OW 1229   0.838   1.941   0.860
  300SOL    HW2 1230   0.863   1.951   0.952
  300SOL    HW3 1231   0.756   1.989   0.852
  300SOL    MW4 1232   0.830   1.949   0.871
  301SOL     OW 1233   1.054   2.054   0.725
  301SOL    HW2 1234   1.086   2.140   0.751
  301SOL    HW3 1235   0.992   2.029   0.793
  301SOL    MW4 1236   1.050   2.062   0.737
  302SOL     OW 1237   1.157   2.291   0.848
  302SOL    HW2 1238   1.150   2.312   0.941
  302SOL    HW3 1239   1.242   2.326   0.822
  302SOL    MW4 1240   1.168   2.298   0.857
  303SOL     OW 1241   0.940   2.440   0.802
  303SOL    HW2 1242   1.022   2.394   0.821
  303SOL    HW3 1243   0.872   2.381   0.834
  303SOL    MW4 1244   0.942   2.426   0.809
  304SOL     OW 1245   0.930   2.717   0.892
  304SOL    HW2 1246   0.916   2.715   0.987
  304SOL    HW3 1247   0.941   2.625   0.868
  304SOL    MW4 1248   0.929   2.704   0.902
  305SOL     OW 1249   1.135   2.862   0.767
  305SOL    HW2 1250   1.065   2.823   0.819
  305SOL    HW3 1251   1.130   2.818   0.683
  305SOL    MW4 1252   1.125   2.851   0.763
  306SOL     OW 1253   1.111   3.143   0.838
  306SOL    HW2 1254   1.020   3.158   0.813
  306SOL    HW3 1255   1.121   3.048   0.837
  306SOL    MW4 1256   1.101   3.133   0.835
  307SOL     OW 1257   0.874   3.226   0.730
  307SOL    HW2 1258   0.858   3.313   0.767
  307SOL    HW3 1259   0.805   3.171   0.767
  307SOL    MW4 1260   0.863   3.230   0.740
  308SOL     OW 1261   0.887   3.478   0.862
  308SOL    HW2 1262   0.971   3.520   0.841
  308SOL    HW3 1263   0.821   3.539   0.829
  308SOL    MW4 1264   0.890   3.491   0.855
  309SOL     OW 1265   1.115   3.601   0.773
  309SOL    HW2 1266   1.197   3.558   0.800
  309SOL    HW3 1267   1.105   3.577   0.681
  309SOL    MW4 1268   1.125   3.592   0.764
  310SOL     OW 1269   1.140   3.868   0.849
  310SOL    HW2 1270   1.145   3.876   0.944
  310SOL    HW3 1271   1.137   3.773   0.834
  310SOL    MW4 1272   1.140   3.856   0.860
  311SOL     OW 1273   0.899   4.000   0.794
  311SOL    HW2 1274   0.899   4.094   0.814
  311SOL    HW3 1275   0.983   3.968   0.829
  311SOL    MW4 1276   0.910   4.008   0.801
  312SOL     OW 1277   0.904   4.261   0.875
  312SOL    HW2 1278   0.975   4.298   0.822
  312SOL    HW3 1279   0.826   4.309   0.849
  312SOL    MW4 1280   0.903   4.272   0.864
  313SOL     OW 1281   1.110   4.402   0.707
  313SOL    HW2 1282   1.181   4.345   0.740
  313SOL    HW3 1283   1.122   4.484   0.755
  313SOL    MW4 1284   1.121   4.405   0.718
  314SOL     OW 1285   1.663   0.008   0.812
  314SOL    HW2 1286   1.637   0.021   0.903
  314SOL    HW3 1287   1.588   0.037   0.761
  314SOL    MW4 1288   1.650   0.014   0.817
  315SOL     OW 1289   1.395   0.074   0.690
  315SOL    HW2 1290   1.401   0.163   0.724
  315SOL    HW3 1291   1.388   0.085   0.595
  315SOL    MW4 1292   1.395   0.087   0.682
  316SOL     OW 1293   1.414   0.335   0.784
  316SOL    HW2 1294   1.373   0.301   0.864
  316SOL    HW3 1295   1.499   0.368   0.813
  316SOL    MW4 1296   1.420   0.335   0.798
  317SOL     OW 1297   1.660   0.436   0.864
  317SOL    HW2 1298   1.661   0.531   0.850
  317SOL    HW3 1299   1.734   0.403   0.813
  317SOL    MW4 1300   1.670   0.444   0.856
  318SOL     OW 1301   1.631   0.704   0.805
  318SOL    HW2 1302   1.717   0.742   0.787
  318SOL    HW3 1303   1.574   0.738   0.736
  318SOL    MW4 1304   1.635   0.714   0.793
  319SOL     OW 1305   1.233   0.948   0.646
  319SOL    HW2 1306   1.242   1.011   0.718
  319SOL    HW3 1307   1.159   0.893   0.671
  319SOL    MW4 1308   1.225   0.949   0.659
  320SOL     OW 1309   1.264   1.148   0.833
  320SOL    HW2 1310   1.340   1.193   0.797
  320SOL    HW3 1311   1.190   1.207   0.814
  320SOL    MW4 1312   1.264   1.162   0.826
  321SOL     OW 1313   1.526   1.228   0.782
  321SOL    HW2 1314   1.513   1.320   0.758
  321SOL    HW3 1315   1.543   1.184   0.699
  321SOL    MW4 1316   1.527   1.234   0.768
  322SOL     OW 1317   1.747   1.633   0.869
  322SOL    HW2 1318   1.707   1.585   0.941
  322SOL    HW3 1319   1.832   1.591   0.856
  322SOL    MW4 1320   1.753   1.621   0.876
  323SOL     OW 1321   1.326   1.688   0.690
  323SOL    HW2 1322   1.331   1.770   0.738
  323SOL    HW3 1323   1.248   1.644   0.724
  323SOL    MW4 1324   1.316   1.693   0.701
  324SOL     OW 1325   1.294   1.929   0.824
  324SOL    HW2 1326   1.286   1.933   0.919
  324SOL    HW3 1327   1.216   1.975   0.792
  324SOL    MW4 1328   1.283   1.936   0.832
  325SOL     OW 1329   1.539   2.049   0.739
  325SOL    HW2 1330   1.455   2.024   0.776
  325SOL    HW3 1331   1.522   2.057   0.645
  325SOL    MW4 1332   1.526   2.047   0.731
  326SOL     OW 1333   1.579   2.311   0.848
  326SOL    HW2 1334   1.505   2.351   0.802
  326SOL    HW3 1335   1.581   2.220   0.817
  326SOL    MW4 1336   1.570   2.304   0.838
  327SOL     OW 1337   1.367   2.424   0.739
  327SOL    HW2 1338   1.347   2.516   0.758
  327SOL    HW3 1339   1.357   2.418   0.644
  327SOL    MW4 1340   1.363   2.436   0.729
  328SOL     OW 1341   1.342   2.687   0.820
  328SOL    HW2 1342   1.358   2.697   0.914
  328SOL    HW3 1343   1.273   2.751   0.801
  328SOL    MW4 1344   1.335   2.697   0.830
  329SOL     OW 1345   1.560   2.822   0.701
  329SOL    HW2 1346   1.559   2.915   0.726
  329SOL    HW3 1347   1.491   2.782   0.753
  329SOL    MW4 1348   1.551   2.829   0.711
  330SOL     OW 1349   1.581   3.083   0.789
  330SOL    HW2 1350   1.598   3.087   0.884
  330SOL    HW3 1351   1.498   3.129   0.778
  330SOL    MW4 1352   1.572   3.089   0.800
  331SOL     OW 1353   1.343   3.222   0.715
  331SOL    HW2 1354   1.262   3.183   0.749
  331SOL    HW3 1355   1.321   3.250   0.626
  331SOL    MW4 1356   1.329   3.220   0.708
  332SOL     OW 1357   1.345   3.478   0.836
  332SOL    HW2 1358   1.426   3.522   0.810
  332SOL    HW3 1359   1.351   3.392   0.795
  332SOL    MW4 1360   1.356   3.473   0.827
  333SOL     OW 1361   1.582   3.614   0.752
  333SOL    HW2 1362   1.668   3.578   0.773
  333SOL    HW3 1363   1.562   3.582   0.664
  333SOL    MW4 1364   1.590   3.605   0.743
  334SOL     OW 1365   1.606   3.880   0.856
  334SOL    HW2 1366   1.523   3.915   0.825
  334SOL    HW3 1367   1.602   3.786   0.835
  334SOL    MW4 1368   1.595   3.872   0.849
  335SOL     OW 1369   1.380   3.992   0.776
  335SOL    HW2 1370   1.294   3.958   0.801
  335SOL    HW3 1371   1.379   3.989   0.680
  335SOL    MW4 1372   1.368   3.987   0.767
  336SOL     OW 1373   1.302   4.258   0.838
  336SOL    HW2 1374   1.376   4.316   0.818
  336SOL    HW3 1375   1.338   4.169   0.828
  336SOL    MW4 1376   1.317   4.254   0.834
  337SOL     OW 1377   1.535   4.425   0.779
  337SOL    HW2 1378   1.619   4.379   0.781
  337SOL    HW3 1379   1.558   4.517   0.791
  337SOL    MW4 1380   1.549   4.431   0.781
  338SOL     OW 1381   1.938   0.068   0.819
  338SOL    HW2 1382   1.985   0.008   0.761
  338SOL    HW3 1383   1.845   0.051   0.802
  338SOL    MW4 1384   1.932   0.058   0.809
  339SOL     OW 1385   1.746   0.305   0.480
  339SOL    HW2 1386   1.708   0.218   0.495
  339SOL    HW3 1387   1.792   0.326   0.562
  339SOL    MW4 1388   1.747   0.296   0.493
  340SOL     OW 1389   1.857   0.328   0.724
  340SOL    HW2 1390   1.903   0.247   0.747
  340SOL    HW3 1391   1.927   0.392   0.711
  340SOL    MW4 1392   1.873   0.326   0.725
  341SOL     OW 1393   2.058   0.524   0.714
  341SOL    HW2 1394   2.085   0.541   0.624
  341SOL    HW3 1395   2.125   0.465   0.749
  341SOL    MW4 1396   2.070   0.519   0.707
  342SOL     OW 1397   2.096   0.759   0.845
  342SOL    HW2 1398   2.185   0.790   0.827
  342SOL    HW3 1399   2.091   0.673   0.803
  342SOL    MW4 1400   2.107   0.752   0.837
  343SOL     OW 1401   1.844   0.867   0.754
  343SOL    HW2 1402   1.818   0.951   0.792
  343SOL    HW3 1403   1.932   0.851   0.789
  343SOL    MW4 1404   1.852   0.876   0.764
  344SOL     OW 1405   1.789   1.130   0.840
  344SOL    HW2 1406   1.839   1.187   0.782
  344SOL    HW3 1407   1.699   1.162   0.833
  344SOL    MW4 1408   1.783   1.142   0.831
  345SOL     OW 1409   2.005   1.288   0.746
  345SOL    HW2 1410   2.078   1.249   0.793
  345SOL    HW3 1411   2.037   1.300   0.657
  345SOL    MW4 1412   2.019   1.285   0.741
  346SOL     OW 1413   2.025   1.550   0.884
  346SOL    HW2 1414   2.099   1.597   0.846
  346SOL    HW3 1415   2.024   1.466   0.838
  346SOL    MW4 1416   2.035   1.545   0.873
  347SOL     OW 1417   2.272   1.411   0.341
  347SOL    HW2 1418   2.266   1.397   0.247
  347SOL    HW3 1419   2.350   1.362   0.367
  347SOL    MW4 1420   2.282   1.402   0.332
  348SOL     OW 1421   1.777   1.908   0.833
  348SOL    HW2 1422   1.764   1.813   0.841
  348SOL    HW3 1423   1.692   1.941   0.803
  348SOL    MW4 1424   1.764   1.900   0.830
  349SOL     OW 1425   1.999   2.049   0.755
  349SOL    HW2 1426   1.985   2.133   0.799
  349SOL    HW3 1427   1.929   1.993   0.787
  349SOL    MW4 1428   1.988   2.053   0.765
  350SOL     OW 1429   1.979   2.298   0.857
  350SOL    HW2 1430   1.986   2.305   0.952
  350SOL    HW3 1431   1.913   2.363   0.833
  350SOL    MW4 1432   1.971   2.308   0.866
  351SOL     OW 1433   1.793   2.476   0.729
  351SOL    HW2 1434   1.721   2.424   0.763
  351SOL    HW3 1435   1.801   2.449   0.637
  351SOL    MW4 1436   1.785   2.466   0.721
  352SOL     OW 1437   1.755   2.715   0.861
  352SOL    HW2 1438   1.771   2.632   0.815
  352SOL    HW3 1439   1.694   2.762   0.805
  352SOL    MW4 1440   1.749   2.710   0.848
  353SOL     OW 1441   1.949   2.861   0.734
  353SOL    HW2 1442   2.030   2.813   0.754
  353SOL    HW3 1443   1.880   2.808   0.774
  353SOL    MW4 1444   1.951   2.848   0.742
  354SOL     OW 1445   1.985   3.126   0.835
  354SOL    HW2 1446   1.920   3.178   0.788
  354SOL    HW3 1447   1.967   3.035   0.809
  354SOL    MW4 1448   1.974   3.121   0.826
  355SOL     OW 1449   1.781   3.245   0.680
  355SOL    HW2 1450   1.711   3.185   0.707
  355SOL    HW3 1451   1.760   3.268   0.590
  355SOL    MW4 1452   1.769   3.240   0.672
  356SOL     OW 1453   1.839   3.504   0.825
  356SOL    HW2 1454   1.850   3.484   0.918
  356SOL    HW3 1455   1.829   3.418   0.783
  356SOL    MW4 1456   1.840   3.490   0.831
  357SOL     OW 1457   2.027   3.645   0.673
  357SOL    HW2 1458   2.031   3.737   0.699
  357SOL    HW3 1459   1.958   3.608   0.728
  357SOL    MW4 1460   2.018   3.653   0.683
  358SOL     OW 1461   2.026   3.915   0.790
  358SOL    HW2 1462   2.003   3.906   0.882
  358SOL    HW3 1463   1.946   3.947   0.748
  358SOL    MW4 1464   2.013   3.918   0.797
  359SOL     OW 1465   1.792   4.025   0.714
  359SOL    HW2 1466   1.739   3.956   0.752
  359SOL    HW3 1467   1.774   4.020   0.620
  359SOL    MW4 1468   1.783   4.016   0.706
  360SOL     OW 1469   1.768   4.291   0.780
  360SOL    HW2 1470   1.783   4.284   0.874
  360SOL    HW3 1471   1.758   4.201   0.750
  360SOL    MW4 1472   1.769   4.278   0.789
  361SOL     OW 1473   2.038   4.299   0.735
  361SOL    HW2 1474   1.943   4.301   0.747
  361SOL    HW3 1475   2.050   4.265   0.646
  361SOL    MW4 1476   2.027   4.294   0.724
  362SOL     OW 1477   2.452   4.644   0.823
  362SOL    HW2 1478   2.454   4.653   0.918
  362SOL    HW3 1479   2.536   4.679   0.793
  362SOL    MW4 1480   2.463   4.650   0.831
  363SOL     OW 1481   2.249   0.138   0.689
  363SOL    HW2 1482   2.316   0.108   0.750
  363SOL    HW3 1483   2.196   0.061   0.670
  363SOL    MW4 1484   2.251   0.124   0.694
  364SOL     OW 1485   2.238   0.369   0.853
  364SOL    HW2 1486   2.330   0.390   0.839
  364SOL    HW3 1487   2.225   0.287   0.804
  364SOL    MW4 1488   2.248   0.361   0.845
  365SOL     OW 1489   2.481   0.464   0.789
  365SOL    HW2 1490   2.483   0.459   0.694
  365SOL    HW3 1491   2.558   0.416   0.818
  365SOL    MW4 1492   2.491   0.457   0.780
  366SOL     OW 1493   2.545   0.713   0.864
  366SOL    HW2 1494   2.616   0.729   0.802
  366SOL    HW3 1495   2.522   0.621   0.852
  366SOL    MW4 1496   2.551   0.703   0.854
  367SOL     OW 1497   2.338   0.905   0.781
  367SOL    HW2 1498   2.405   0.847   0.818
  367SOL    HW3 1499   2.372   0.928   0.694
  367SOL    MW4 1500   2.352   0.901   0.775
  368SOL     OW 1501   2.229   1.169   0.881
  368SOL    HW2 1502   2.240   1.164   0.976
  368SOL    HW3 1503   2.268   1.089   0.848
  368SOL    MW4 1504   2.235   1.158   0.889
  369SOL     OW 1505   2.475   1.252   0.758
  369SOL    HW2 1506   2.385   1.243   0.789
  369SOL    HW3 1507   2.468   1.258   0.663
  369SOL    MW4 1508   2.462   1.251   0.750
  370SOL     OW 1509   2.472   1.510   0.880
  370SOL    HW2 1510   2.551   1.563   0.868
  370SOL    HW3 1511   2.489   1.431   0.830
  370SOL    MW4 1512   2.485   1.507   0.872
  371SOL     OW 1513   2.272   1.670   0.784
  371SOL    HW2 1514   2.346   1.631   0.830
  371SOL    HW3 1515   2.295   1.665   0.691
  371SOL    MW4 1516   2.285   1.664   0.778
  372SOL     OW 1517   2.243   1.930   0.848
  372SOL    HW2 1518   2.238   1.839   0.819
  372SOL    HW3 1519   2.160   1.969   0.820
  372SOL    MW4 1520   2.232   1.924   0.840
  373SOL     OW 1521   2.456   2.076   0.739
  373SOL    HW2 1522   2.380   2.027   0.769
  373SOL    HW3 1523   2.444   2.084   0.644
  373SOL    MW4 1524   2.445   2.071   0.730
  374SOL     OW 1525   2.437   2.325   0.826
  374SOL    HW2 1526   2.515   2.375   0.803
  374SOL    HW3 1527   2.452   2.238   0.788
  374SOL    MW4 1528   2.449   2.320   0.818
  375SOL     OW 1529   2.216   2.457   0.710
  375SOL    HW2 1530   2.294   2.421   0.752
  375SOL    HW3 1531   2.143   2.422   0.761
  375SOL    MW4 1532   2.217   2.448   0.723
  376SOL     OW 1533   2.183   2.721   0.787
  376SOL    HW2 1534   2.192   2.712   0.882
  376SOL    HW3 1535   2.179   2.631   0.754
  376SOL    MW4 1536   2.184   2.708   0.795
  377SOL     OW 1537   2.432   2.825   0.718
  377SOL    HW2 1538   2.511   2.789   0.758
  377SOL    HW3 1539   2.360   2.782   0.765
  377SOL    MW4 1540   2.433   2.815   0.730
  378SOL     OW 1541   2.432   3.076   0.792
  378SOL    HW2 1542   2.449   3.080   0.886
  378SOL    HW3 1543   2.433   2.982   0.772
  378SOL    MW4 1544   2.434   3.064   0.802
  379SOL     OW 1545   2.207   3.203   0.676
  379SOL    HW2 1546   2.143   3.156   0.729
  379SOL    HW3 1547   2.292   3.178   0.713
  379SOL    MW4 1548   2.210   3.193   0.688
  380SOL     OW 1549   2.210   3.464   0.790
  380SOL    HW2 1550   2.202   3.377   0.750
  380SOL    HW3 1551   2.146   3.518   0.744
  380SOL    MW4 1552   2.201   3.459   0.779
  381SOL     OW 1553   2.449   3.583   0.726
  381SOL    HW2 1554   2.512   3.532   0.776
  381SOL    HW3 1555   2.366   3.538   0.740
  381SOL    MW4 1556   2.446   3.570   0.735
  382SOL     OW 1557   2.451   3.852   0.795
  382SOL    HW2 1558   2.386   3.890   0.735
  382SOL    HW3 1559   2.450   3.758   0.776
  382SOL    MW4 1560   2.442   3.845   0.785
  383SOL     OW 1561   2.299   3.962   0.593
  383SOL    HW2 1562   2.215   3.982   0.636
  383SOL    HW3 1563   2.277   3.893   0.530
  383SOL    MW4 1564   2.285   3.956   0.591
  384SOL     OW 1565   2.233   4.126   0.849
  384SOL    HW2 1566   2.183   4.044   0.852
  384SOL    HW3 1567   2.172   4.189   0.810
  384SOL    MW4 1568   2.218   4.123   0.844
  385SOL     OW 1569   2.480   4.181   0.768
  385SOL    HW2 1570   2.514   4.185   0.857
  385SOL    HW3 1571   2.394   4.141   0.776
  385SOL    MW4 1572   2.473   4.176   0.780
  386SOL     OW 1573   2.931   0.034   0.819
  386SOL    HW2 1574   2.951  -0.054   0.786
  386SOL    HW3 1575   2.845   0.054   0.783
  386SOL    MW4 1576   2.922   0.025   0.810
  387SOL     OW 1577   2.676   4.377   0.582
  387SOL    HW2 1578   2.587   4.412   0.592
  387SOL    HW3 1579   2.689   4.375   0.487
  387SOL    MW4 1580   2.666   4.381   0.571
  388SOL     OW 1581   2.709   0.345   0.850
  388SOL    HW2 1582   2.711   0.361   0.944
  388SOL    HW3 1583   2.788   0.388   0.817
  388SOL    MW4 1584   2.720   0.353   0.858
  389SOL     OW 1585   2.934   0.477   0.756
  389SOL    HW2 1586   3.013   0.444   0.799
  389SOL    HW3 1587   2.944   0.450   0.664
  389SOL    MW4 1588   2.946   0.469   0.749
  390SOL     OW 1589   2.945   0.740   0.852
  390SOL    HW2 1590   2.952   0.735   0.947
  390SOL    HW3 1591   2.953   0.649   0.823
  390SOL    MW4 1592   2.947   0.727   0.861
  391SOL     OW 1593   2.752   0.820   0.657
  391SOL    HW2 1594   2.823   0.795   0.717
  391SOL    HW3 1595   2.737   0.741   0.605
  391SOL    MW4 1596   2.760   0.806   0.658
  392SOL     OW 1597   2.696   1.089   0.789
  392SOL    HW2 1598   2.707   1.013   0.733
  392SOL    HW3 1599   2.610   1.124   0.765
  392SOL    MW4 1600   2.686   1.084   0.779
  393SOL     OW 1601   2.889   1.270   0.702
  393SOL    HW2 1602   2.974   1.232   0.722
  393SOL    HW3 1603   2.826   1.205   0.733
  393SOL    MW4 1604   2.892   1.256   0.708
  394SOL     OW 1605   2.904   1.482   0.870
  394SOL    HW2 1606   2.992   1.513   0.847
  394SOL    HW3 1607   2.889   1.406   0.814
  394SOL    MW4 1608   2.913   1.476   0.860
  395SOL     OW 1609   2.686   1.654   0.766
  395SOL    HW2 1610   2.704   1.744   0.793
  395SOL    HW3 1611   2.760   1.604   0.802
  395SOL    MW4 1612   2.698   1.659   0.774
  396SOL     OW 1613   2.694   1.915   0.851
  396SOL    HW2 1614   2.681   1.915   0.946
  396SOL    HW3 1615   2.633   1.982   0.819
  396SOL    MW4 1616   2.684   1.924   0.859
  397SOL     OW 1617   2.849   2.070   0.655
  397SOL    HW2 1618   2.839   2.155   0.700
  397SOL    HW3 1619   2.804   2.008   0.712
  397SOL    MW4 1620   2.842   2.073   0.669
  398SOL     OW 1621   2.855   2.314   0.799
  398SOL    HW2 1622   2.868   2.329   0.893
  398SOL    HW3 1623   2.798   2.386   0.771
  398SOL    MW4 1624   2.849   2.326   0.808
  399SOL     OW 1625   2.627   2.496   0.732
  399SOL    HW2 1626   2.579   2.506   0.650
  399SOL    HW3 1627   2.676   2.578   0.741
  399SOL    MW4 1628   2.627   2.508   0.722
  400SOL     OW 1629   2.705   2.769   0.799
  400SOL    HW2 1630   2.705   2.749   0.893
  400SOL    HW3 1631   2.797   2.788   0.779
  400SOL    MW4 1632   2.717   2.769   0.809
  401SOL     OW 1633   3.015   2.805   0.498
  401SOL    HW2 1634   3.004   2.712   0.479
  401SOL    HW3 1635   2.931   2.845   0.478
  401SOL    MW4 1636   3.003   2.798   0.493
  402SOL     OW 1637   2.926   3.090   0.810
  402SOL    HW2 1638   2.845   3.110   0.763
  402SOL    HW3 1639   2.928   2.994   0.815
  402SOL    MW4 1640   2.916   3.080   0.804
  403SOL     OW 1641   2.688   3.201   0.698
  403SOL    HW2 1642   2.683   3.286   0.741
  403SOL    HW3 1643   2.603   3.160   0.716
  403SOL    MW4 1644   2.676   3.207   0.706
  404SOL     OW 1645   2.691   3.448   0.813
  404SOL    HW2 1646   2.697   3.461   0.907
  404SOL    HW3 1647   2.775   3.478   0.779
  404SOL    MW4 1648   2.703   3.453   0.821
  405SOL     OW 1649   2.914   3.552   0.684
  405SOL    HW2 1650   2.907   3.645   0.705
  405SOL    HW3 1651   2.872   3.543   0.599
  405SOL    MW4 1652   2.907   3.563   0.676
  406SOL     OW 1653   2.912   3.834   0.831
  406SOL    HW2 1654   2.910   3.831   0.927
  406SOL    HW3 1655   2.831   3.877   0.806
  406SOL    MW4 1656   2.901   3.839   0.840
  407SOL     OW 1657   2.688   3.907   0.663
  407SOL    HW2 1658   2.612   3.879   0.714
  407SOL    HW3 1659   2.690   3.848   0.588
  407SOL    MW4 1660   2.678   3.896   0.660
  408SOL     OW 1661   2.807   4.206   0.790
  408SOL    HW2 1662   2.901   4.212   0.804
  408SOL    HW3 1663   2.768   4.228   0.875
  408SOL    MW4 1664   2.814   4.210   0.803
  409SOL     OW 1665   2.938   4.471   0.702
  409SOL    HW2 1666   3.003   4.402   0.687
  409SOL    HW3 1667   2.856   4.434   0.670
  409SOL    MW4 1668   2.935   4.457   0.696
  410SOL     OW 1669   3.359   4.599   0.849
  410SOL    HW2 1670   3.360   4.603   0.944
  410SOL    HW3 1671   3.295   4.665   0.823
  410SOL    MW4 1672   3.351   4.608   0.858
  411SOL     OW 1673   3.186   0.148   0.774
  411SOL    HW2 1674   3.186   0.239   0.802
  411SOL    HW3 1675   3.097   0.117   0.792
  411SOL    MW4 1676   3.175   0.156   0.780
  412SOL     OW 1677   3.161   0.417   0.883
  412SOL    HW2 1678   3.181   0.432   0.975
  412SOL    HW3 1679   3.242   0.437   0.836
  412SOL    MW4 1680   3.174   0.422   0.889
  413SOL     OW 1681   3.368   0.519   0.720
  413SOL    HW2 1682   3.445   0.467   0.744
  413SOL    HW3 1683   3.351   0.496   0.629
  413SOL    MW4 1684   3.376   0.510   0.711
  414SOL     OW 1685   3.374   0.797   0.770
  414SOL    HW2 1686   3.295   0.842   0.740
  414SOL    HW3 1687   3.358   0.705   0.749
  414SOL    MW4 1688   3.361   0.791   0.763
  415SOL     OW 1689   3.118   0.912   0.728
  415SOL    HW2 1690   3.118   1.000   0.766
  415SOL    HW3 1691   3.058   0.862   0.783
  415SOL    MW4 1692   3.110   0.917   0.740
  416SOL     OW 1693   3.158   1.181   0.782
  416SOL    HW2 1694   3.163   1.187   0.877
  416SOL    HW3 1695   3.241   1.216   0.751
  416SOL    MW4 1696   3.169   1.187   0.791
  417SOL     OW 1697   3.409   1.267   0.721
  417SOL    HW2 1698   3.467   1.214   0.776
  417SOL    HW3 1699   3.416   1.356   0.756
  417SOL    MW4 1700   3.417   1.272   0.733
  418SOL     OW 1701   3.423   1.546   0.803
  418SOL    HW2 1702   3.391   1.536   0.892
  418SOL    HW3 1703   3.436   1.640   0.792
  418SOL    MW4 1704   3.421   1.557   0.813
  419SOL     OW 1705   3.147   1.581   0.786
  419SOL    HW2 1706   3.236   1.547   0.781
  419SOL    HW3 1707   3.115   1.578   0.696
  419SOL    MW4 1708   3.154   1.576   0.774
  420SOL     OW 1709   3.176   1.852   0.851
  420SOL    HW2 1710   3.161   1.879   0.942
  420SOL    HW3 1711   3.148   1.761   0.848
  420SOL    MW4 1712   3.170   1.843   0.863
  421SOL     OW 1713   3.591   2.006   0.856
  421SOL    HW2 1714   3.547   2.091   0.847
  421SOL    HW3 1715   3.527   1.943   0.823
  421SOL    MW4 1716   3.577   2.009   0.850
  422SOL     OW 1717   3.463   2.258   0.849
  422SOL    HW2 1718   3.429   2.292   0.932
  422SOL    HW3 1719   3.537   2.315   0.828
  422SOL    MW4 1720   3.468   2.270   0.857
  423SOL     OW 1721   3.092   2.448   0.705
  423SOL    HW2 1722   3.142   2.367   0.693
  423SOL    HW3 1723   3.018   2.423   0.761
  423SOL    MW4 1724   3.089   2.434   0.711
  424SOL     OW 1725   3.186   2.674   0.884
  424SOL    HW2 1726   3.165   2.611   0.815
  424SOL    HW3 1727   3.261   2.723   0.851
  424SOL    MW4 1728   3.193   2.672   0.871
  425SOL     OW 1729   3.395   2.850   0.758
  425SOL    HW2 1730   3.374   2.867   0.667
  425SOL    HW3 1731   3.463   2.782   0.755
  425SOL    MW4 1732   3.401   2.843   0.746
  426SOL     OW 1733   3.392   3.116   0.863
  426SOL    HW2 1734   3.405   3.117   0.958
  426SOL    HW3 1735   3.390   3.023   0.840
  426SOL    MW4 1736   3.394   3.104   0.873
  427SOL     OW 1737   3.158   3.214   0.743
  427SOL    HW2 1738   3.225   3.180   0.802
  427SOL    HW3 1739   3.077   3.172   0.772
  427SOL    MW4 1740   3.156   3.204   0.755
  428SOL     OW 1741   3.168   3.476   0.793
  428SOL    HW2 1742   3.151   3.382   0.789
  428SOL    HW3 1743   3.089   3.516   0.757
  428SOL    MW4 1744   3.155   3.469   0.788
  429SOL     OW 1745   3.650   4.185   0.641
  429SOL    HW2 1746   3.711   4.135   0.586
  429SOL    HW3 1747   3.705   4.229   0.704
  429SOL    MW4 1748   3.665   4.184   0.642
  430SOL     OW 1749   3.436   3.936   0.833
  430SOL    HW2 1750   3.417   4.029   0.818
  430SOL    HW3 1751   3.381   3.913   0.908
  430SOL    MW4 1752   3.426   3.946   0.841
  431SOL     OW 1753   3.058   3.968   0.655
  431SOL    HW2 1754   3.130   3.913   0.624
  431SOL    HW3 1755   3.010   3.911   0.716
  431SOL    MW4 1756   3.061   3.953   0.659
  432SOL     OW 1757   3.075   4.212   0.813
  432SOL    HW2 1758   3.144   4.268   0.778
  432SOL    HW3 1759   3.097   4.125   0.782
  432SOL    MW4 1760   3.087   4.208   0.805
  433SOL     OW 1761   3.232   4.400   0.680
  433SOL    HW2 1762   3.286   4.462   0.730
  433SOL    HW3 1763   3.274   4.396   0.594
  433SOL    MW4 1764   3.245   4.408   0.675
  434SOL     OW 1765   3.816   4.634   0.856
  434SOL    HW2 1766   3.900   4.666   0.822
  434SOL    HW3 1767   3.752   4.698   0.825
  434SOL    MW4 1768   3.819   4.647   0.848
  435SOL     OW 1769   3.593   0.081   0.761
  435SOL    HW2 1770   3.518   0.032   0.794
  435SOL    HW3 1771   3.594   0.063   0.667
  435SOL    MW4 1772   3.583   0.072   0.753
  436SOL     OW 1773   3.577   0.364   0.839
  436SOL    HW2 1774   3.580   0.352   0.934
  436SOL    HW3 1775   3.564   0.276   0.804
  436SOL    MW4 1776   3.576   0.351   0.847
  437SOL     OW 1777   3.822   0.484   0.759
  437SOL    HW2 1778   3.828   0.562   0.813
  437SOL    HW3 1779   3.743   0.439   0.789
  437SOL    MW4 1780   3.813   0.488   0.770
  438SOL     OW 1781   3.827   0.747   0.876
  438SOL    HW2 1782   3.828   0.754   0.972
  438SOL    HW3 1783   3.905   0.794   0.848
  438SOL    MW4 1784   3.837   0.754   0.885
  439SOL     OW 1785   3.636   0.873   0.722
  439SOL    HW2 1786   3.700   0.816   0.766
  439SOL    HW3 1787   3.551   0.835   0.745
  439SOL    MW4 1788   3.633   0.860   0.731
  440SOL     OW 1789   3.591   1.124   0.857
  440SOL    HW2 1790   3.600   1.100   0.949
  440SOL    HW3 1791   3.604   1.042   0.809
  440SOL    MW4 1792   3.594   1.110   0.863
  441SOL     OW 1793   3.832   1.243   0.753
  441SOL    HW2 1794   3.749   1.205   0.784
  441SOL    HW3 1795   3.832   1.226   0.659
  441SOL    MW4 1796   3.821   1.236   0.745
  442SOL     OW 1797   3.863   1.510   0.848
  442SOL    HW2 1798   3.930   1.569   0.810
  442SOL    HW3 1799   3.896   1.422   0.830
  442SOL    MW4 1800   3.876   1.506   0.841
  443SOL     OW 1801   3.669   1.586   0.654
  443SOL    HW2 1802   3.591   1.572   0.707
  443SOL    HW3 1803   3.740   1.547   0.705
  443SOL    MW4 1804   3.668   1.579   0.668
  444SOL     OW 1805   3.806   1.985   0.701
  444SOL    HW2 1806   3.887   1.970   0.750
  444SOL    HW3 1807   3.738   1.990   0.768
  444SOL    MW4 1808   3.808   1.983   0.716
  445SOL     OW 1809   3.798   2.243   0.623
  445SOL    HW2 1810   3.766   2.292   0.698
  445SOL    HW3 1811   3.805   2.153   0.654
  445SOL    MW4 1812   3.795   2.237   0.637
  446SOL     OW 1813   3.705   1.833   0.516
  446SOL    HW2 1814   3.736   1.896   0.581
  446SOL    HW3 1815   3.689   1.753   0.565
  446SOL    MW4 1816   3.707   1.831   0.531
  447SOL     OW 1817   3.700   2.403   0.826
  447SOL    HW2 1818   3.709   2.498   0.813
  447SOL    HW3 1819   3.737   2.388   0.913
  447SOL    MW4 1820   3.706   2.414   0.836
  448SOL     OW 1821   3.626   2.685   0.772
  448SOL    HW2 1822   3.605   2.714   0.861
  448SOL    HW3 1823   3.692   2.747   0.741
  448SOL    MW4 1824   3.632   2.697   0.780
  449SOL     OW 1825   3.823   2.867   0.696
  449SOL    HW2 1826   3.818   2.950   0.743
  449SOL    HW3 1827   3.858   2.890   0.610
  449SOL    MW4 1828   3.827   2.881   0.691
  450SOL     OW 1829   3.809   3.090   0.858
  450SOL    HW2 1830   3.886   3.136   0.825
  450SOL    HW3 1831   3.741   3.158   0.862
  450SOL    MW4 1832   3.810   3.105   0.854
  451SOL     OW 1833   3.606   3.275   0.798
  451SOL    HW2 1834   3.531   3.214   0.800
  451SOL    HW3 1835   3.642   3.265   0.710
  451SOL    MW4 1836   3.601   3.265   0.787
  452SOL     OW 1837   3.581   3.542   0.808
  452SOL    HW2 1838   3.596   3.448   0.805
  452SOL    HW3 1839   3.501   3.555   0.757
  452SOL    MW4 1840   3.572   3.531   0.800
  453SOL     OW 1841   3.850   3.598   0.657
  453SOL    HW2 1842   3.775   3.641   0.697
  453SOL    HW3 1843   3.900   3.564   0.731
  453SOL    MW4 1844   3.847   3.599   0.672
  454SOL     OW 1845   3.680   3.803   0.821
  454SOL    HW2 1846   3.595   3.847   0.820
  454SOL    HW3 1847   3.659   3.710   0.832
  454SOL    MW4 1848   3.666   3.797   0.822
  455SOL     OW 1849   2.702   4.320   0.297
  455SOL    HW2 1850   2.734   4.405   0.267
  455SOL    HW3 1851   2.780   4.265   0.301
  455SOL    MW4 1852   2.716   4.324   0.294
  456SOL     OW 1853   3.424   4.207   0.796
  456SOL    HW2 1854   3.510   4.197   0.754
  456SOL    HW3 1855   3.370   4.250   0.729
  456SOL    MW4 1856   3.428   4.211   0.781
  457SOL     OW 1857   3.734   4.344   0.872
  457SOL    HW2 1858   3.825   4.314   0.870
  457SOL    HW3 1859   3.740   4.439   0.863
  457SOL    MW4 1860   3.747   4.353   0.871
  458SOL     OW 1861   4.269   4.596   0.861
  458SOL    HW2 1862   4.280   4.614   0.954
  458SOL    HW3 1863   4.180   4.626   0.841
  458SOL    MW4 1864   4.259   4.603   0.871
  459SOL     OW 1865   4.038   0.076   0.730
  459SOL    HW2 1866   4.063   0.167   0.742
  459SOL    HW3 1867   4.049   0.061   0.636
  459SOL    MW4 1868   4.043   0.086   0.719
  460SOL     OW 1869   4.062   0.348   0.819
  460SOL    HW2 1870   4.133   0.406   0.792
  460SOL    HW3 1871   3.982   0.392   0.791
  460SOL    MW4 1872   4.061   0.361   0.812
  461SOL     OW 1873   4.307   0.469   0.763
  461SOL    HW2 1874   4.376   0.423   0.811
  461SOL    HW3 1875   4.338   0.468   0.672
  461SOL    MW4 1876   4.320   0.462   0.757
  462SOL     OW 1877   4.289   0.726   0.873
  462SOL    HW2 1878   4.207   0.755   0.834
  462SOL    HW3 1879   4.293   0.632   0.855
  462SOL    MW4 1880   4.279   0.717   0.865
  463SOL     OW 1881   4.041   0.858   0.762
  463SOL    HW2 1882   4.030   0.951   0.780
  463SOL    HW3 1883   4.044   0.853   0.667
  463SOL    MW4 1884   4.040   0.870   0.752
  464SOL     OW 1885   4.044   1.110   0.860
  464SOL    HW2 1886   4.050   1.132   0.953
  464SOL    HW3 1887   3.964   1.154   0.830
  464SOL    MW4 1888   4.034   1.118   0.868
  465SOL     OW 1889   4.231   1.279   0.763
  465SOL    HW2 1890   4.173   1.212   0.801
  465SOL    HW3 1891   4.319   1.247   0.780
  465SOL    MW4 1892   4.235   1.266   0.770
  466SOL     OW 1893   4.257   1.551   0.852
  466SOL    HW2 1894   4.261   1.537   0.947
  466SOL    HW3 1895   4.229   1.467   0.817
  466SOL    MW4 1896   4.254   1.538   0.860
  467SOL     OW 1897   4.056   1.691   0.738
  467SOL    HW2 1898   4.142   1.655   0.760
  467SOL    HW3 1899   4.049   1.682   0.643
  467SOL    MW4 1900   4.066   1.685   0.728
  468SOL     OW 1901   4.038   1.956   0.851
  468SOL    HW2 1902   4.057   1.874   0.806
  468SOL    HW3 1903   4.108   2.015   0.825
  468SOL    MW4 1904   4.050   1.953   0.841
  469SOL     OW 1905   4.261   2.078   0.705
  469SOL    HW2 1906   4.326   2.021   0.746
  469SOL    HW3 1907   4.238   2.033   0.623
  469SOL    MW4 1908   4.266   2.064   0.700
  470SOL     OW 1909   4.316   2.337   0.832
  470SOL    HW2 1910   4.248   2.402   0.816
  470SOL    HW3 1911   4.284   2.258   0.789
  470SOL    MW4 1912   4.303   2.335   0.824
  471SOL     OW 1913   4.165   2.523   0.688
  471SOL    HW2 1914   4.088   2.568   0.723
  471SOL    HW3 1915   4.129   2.450   0.637
  471SOL    MW4 1916   4.150   2.519   0.686
  472SOL     OW 1917   4.006   2.704   0.848
  472SOL    HW2 1918   4.092   2.743   0.834
  472SOL    HW3 1919   3.944   2.775   0.829
  472SOL    MW4 1920   4.009   2.718   0.843
  473SOL     OW 1921   4.276   2.837   0.803
  473SOL    HW2 1922   4.349   2.792   0.845
  473SOL    HW3 1923   4.295   2.832   0.710
  473SOL    MW4 1924   4.288   2.830   0.797
  474SOL     OW 1925   4.254   3.092   0.900
  474SOL    HW2 1926   4.257   3.003   0.866
  474SOL    HW3 1927   4.337   3.131   0.874
  474SOL    MW4 1928   4.265   3.086   0.892
  475SOL     OW 1929   4.048   3.220   0.774
  475SOL    HW2 1930   4.041   3.312   0.800
  475SOL    HW3 1931   4.127   3.190   0.818
  475SOL    MW4 1932   4.058   3.228   0.784
  476SOL     OW 1933   4.019   3.501   0.861
  476SOL    HW2 1934   4.034   3.492   0.955
  476SOL    HW3 1935   4.107   3.511   0.824
  476SOL    MW4 1936   4.033   3.501   0.869
  477SOL     OW 1937   4.261   3.573   0.737
  477SOL    HW2 1938   4.228   3.659   0.764
  477SOL    HW3 1939   4.280   3.583   0.643
  477SOL    MW4 1940   4.259   3.586   0.728
  478SOL     OW 1941   4.171   3.842   0.801
  478SOL    HW2 1942   4.198   3.870   0.888
  478SOL    HW3 1943   4.095   3.896   0.781
  478SOL    MW4 1944   4.165   3.853   0.810
  479SOL     OW 1945   3.913   3.961   0.756
  479SOL    HW2 1946   3.832   3.918   0.784
  479SOL    HW3 1947   3.921   3.938   0.663
  479SOL    MW4 1948   3.903   3.952   0.747
  480SOL     OW 1949   3.997   4.221   0.838
  480SOL    HW2 1950   4.059   4.226   0.766
  480SOL    HW3 1951   3.958   4.134   0.831
  480SOL    MW4 1952   4.000   4.210   0.828
  481SOL     OW 1953   4.388   4.419   0.689
  481SOL    HW2 1954   4.349   4.469   0.761
  481SOL    HW3 1955   4.464   4.377   0.728
  481SOL    MW4 1956   4.393   4.420   0.704
  482SOL     OW 1957   0.237   4.635   1.086
  482SOL    HW2 1958   0.292   4.709   1.114
  482SOL    HW3 1959   0.233   4.643   0.991
  482SOL    MW4 1960   0.244   4.646   1.077
  483SOL     OW 1961   0.037   0.098   1.244
  483SOL    HW2 1962  -0.050   0.064   1.221
  483SOL    HW3 1963   0.097   0.057   1.183
  483SOL    MW4 1964   0.033   0.088   1.233
  484SOL     OW 1965   0.006   0.356   1.123
  484SOL    HW2 1966  -0.082   0.385   1.147
  484SOL    HW3 1967   0.021   0.276   1.173
  484SOL    MW4 1968  -0.004   0.349   1.133
  485SOL     OW 1969   0.230   0.491   1.175
  485SOL    HW2 1970   0.216   0.577   1.135
  485SOL    HW3 1971   0.150   0.441   1.155
  485SOL    MW4 1972   0.218   0.495   1.167
  486SOL     OW 1973   0.185   0.784   1.097
  486SOL    HW2 1974   0.262   0.824   1.138
  486SOL    HW3 1975   0.110   0.823   1.142
  486SOL    MW4 1976   0.186   0.794   1.108
  487SOL     OW 1977   4.470   0.919   1.200
  487SOL    HW2 1978   4.477   0.918   1.295
  487SOL    HW3 1979   4.387   0.874   1.181
  487SOL    MW4 1980   4.460   0.913   1.210
  488SOL     OW 1981   0.015   1.184   1.108
  488SOL    HW2 1982  -0.056   1.229   1.153
  488SOL    HW3 1983  -0.001   1.091   1.126
  488SOL    MW4 1984   0.004   1.178   1.116
  489SOL     OW 1985   0.216   1.302   1.240
  489SOL    HW2 1986   0.292   1.246   1.222
  489SOL    HW3 1987   0.143   1.256   1.198
  489SOL    MW4 1988   0.216   1.288   1.232
  490SOL     OW 1989   0.203   1.565   1.110
  490SOL    HW2 1990   0.204   1.475   1.144
  490SOL    HW3 1991   0.216   1.555   1.016
  490SOL    MW4 1992   0.205   1.552   1.102
  491SOL     OW 1993   4.482   1.699   1.217
  491SOL    HW2 1994   4.469   1.784   1.176
  491SOL    HW3 1995   4.557   1.661   1.171
  491SOL    MW4 1996   4.490   1.705   1.205
  492SOL     OW 1997   4.484   1.963   1.102
  492SOL    HW2 1998   4.402   1.980   1.149
  492SOL    HW3 1999   4.459   1.959   1.010
  492SOL    MW4 2000   4.470   1.965   1.096
  493SOL     OW 2001   0.229   2.098   1.199
  493SOL    HW2 2002   0.216   2.179   1.149
  493SOL    HW3 2003   0.165   2.037   1.163
  493SOL    MW4 2004   0.219   2.101   1.188
  494SOL     OW 2005   0.221   2.353   1.069
  494SOL    HW2 2006   0.292   2.378   1.127
  494SOL    HW3 2007   0.141   2.371   1.118
  494SOL    MW4 2008   0.220   2.358   1.083
  495SOL     OW 2009   0.011   2.431   1.216
  495SOL    HW2 2010   0.006   2.445   1.311
  495SOL    HW3 2011  -0.072   2.389   1.194
  495SOL    MW4 2012  -0.001   2.428   1.226
  496SOL     OW 2013   4.489   2.712   1.134
  496SOL    HW2 2014   4.399   2.737   1.156
  496SOL    HW3 2015   4.499   2.624   1.171
  496SOL    MW4 2016   4.479   2.703   1.142
  497SOL     OW 2017   0.202   2.856   1.246
  497SOL    HW2 2018   0.185   2.847   1.339
  497SOL    HW3 2019   0.136   2.801   1.204
  497SOL    MW4 2020   0.191   2.848   1.252
  498SOL     OW 2021   0.210   3.099   1.114
  498SOL    HW2 2022   0.274   3.145   1.169
  498SOL    HW3 2023   0.201   3.013   1.155
  498SOL    MW4 2024   0.218   3.094   1.127
  499SOL     OW 2025   4.484   3.226   1.222
  499SOL    HW2 2026   4.410   3.172   1.193
  499SOL    HW3 2027   4.561   3.180   1.188
  499SOL    MW4 2028   4.484   3.213   1.214
  500SOL     OW 2029   4.459   3.480   1.130
  500SOL    HW2 2030   4.466   3.393   1.169
  500SOL    HW3 2031   4.467   3.466   1.036
  500SOL    MW4 2032   4.461   3.467   1.123
  501SOL     OW 2033   0.185   3.605   1.212
  501SOL    HW2 2034   0.178   3.630   1.304
  501SOL    HW3 2035   0.103   3.560   1.193
  501SOL    MW4 2036   0.174   3.602   1.222
  502SOL     OW 2037   0.238   3.855   1.100
  502SOL    HW2 2038   0.164   3.912   1.119
  502SOL    HW3 2039   0.216   3.772   1.142
  502SOL    MW4 2040   0.225   3.852   1.108
  503SOL     OW 2041   0.016   3.979   1.224
  503SOL    HW2 2042  -0.002   3.964   1.317
  503SOL    HW3 2043  -0.067   3.957   1.181
  503SOL    MW4 2044   0.002   3.974   1.231
  504SOL     OW 2045   0.022   4.230   1.088
  504SOL    HW2 2046   0.105   4.269   1.118
  504SOL    HW3 2047   0.015   4.148   1.138
  504SOL    MW4 2048   0.032   4.224   1.099
  505SOL     OW 2049   0.231   4.390   1.188
  505SOL    HW2 2050   0.227   4.393   1.283
  505SOL    HW3 2051   0.257   4.478   1.161
  505SOL    MW4 2052   0.234   4.402   1.197
  506SOL     OW 2053   0.660   4.639   1.083
  506SOL    HW2 2054   0.729   4.696   1.118
  506SOL    HW3 2055   0.676   4.554   1.124
  506SOL    MW4 2056   0.671   4.635   1.093
  507SOL     OW 2057   0.430   0.131   1.196
  507SOL    HW2 2058   0.448   0.223   1.177
  507SOL    HW3 2059   0.508   0.084   1.168
  507SOL    MW4 2060   0.443   0.137   1.190
  508SOL     OW 2061   0.488   0.377   1.114
  508SOL    HW2 2062   0.404   0.420   1.131
  508SOL    HW3 2063   0.493   0.373   1.018
  508SOL    MW4 2064   0.478   0.382   1.103
  509SOL     OW 2065   0.702   0.543   1.208
  509SOL    HW2 2066   0.692   0.631   1.173
  509SOL    HW3 2067   0.621   0.498   1.183
  509SOL    MW4 2068   0.690   0.549   1.200
  510SOL     OW 2069   0.638   0.781   1.103
  510SOL    HW2 2070   0.565   0.810   1.158
  510SOL    HW3 2071   0.612   0.805   1.014
  510SOL    MW4 2072   0.625   0.788   1.099
  511SOL     OW 2073   0.419   0.883   1.229
  511SOL    HW2 2074   0.406   0.882   1.324
  511SOL    HW3 2075   0.420   0.975   1.206
  511SOL    MW4 2076   0.417   0.895   1.239
  512SOL     OW 2077   0.439   1.156   1.149
  512SOL    HW2 2078   0.523   1.195   1.172
  512SOL    HW3 2079   0.437   1.158   1.053
  512SOL    MW4 2080   0.450   1.161   1.139
  513SOL     OW 2081   0.681   1.310   1.228
  513SOL    HW2 2082   0.754   1.258   1.196
  513SOL    HW3 2083   0.683   1.390   1.175
  513SOL    MW4 2084   0.691   1.314   1.216
  514SOL     OW 2085   0.678   1.571   1.118
  514SOL    HW2 2086   0.747   1.612   1.171
  514SOL    HW3 2087   0.603   1.629   1.128
  514SOL    MW4 2088   0.677   1.584   1.126
  515SOL     OW 2089   0.415   1.706   1.182
  515SOL    HW2 2090   0.427   1.696   1.276
  515SOL    HW3 2091   0.326   1.673   1.166
  515SOL    MW4 2092   0.405   1.700   1.192
  516SOL     OW 2093   0.451   1.986   1.078
  516SOL    HW2 2094   0.436   1.893   1.093
  516SOL    HW3 2095   0.378   2.029   1.122
  516SOL    MW4 2096   0.439   1.979   1.086
  517SOL     OW 2097   0.665   2.075   1.278
  517SOL    HW2 2098   0.664   2.069   1.374
  517SOL    HW3 2099   0.589   2.024   1.250
  517SOL    MW4 2100   0.655   2.067   1.287
  518SOL     OW 2101   0.679   2.334   1.183
  518SOL    HW2 2102   0.586   2.353   1.198
  518SOL    HW3 2103   0.693   2.249   1.223
  518SOL    MW4 2104   0.668   2.325   1.191
  519SOL     OW 2105   0.432   2.454   1.233
  519SOL    HW2 2106   0.446   2.444   1.327
  519SOL    HW3 2107   0.419   2.548   1.220
  519SOL    MW4 2108   0.432   2.465   1.243
  520SOL     OW 2109   0.438   2.723   1.173
  520SOL    HW2 2110   0.351   2.762   1.184
  520SOL    HW3 2111   0.444   2.704   1.080
  520SOL    MW4 2112   0.427   2.726   1.162
  521SOL     OW 2113   0.679   2.824   1.251
  521SOL    HW2 2114   0.689   2.910   1.211
  521SOL    HW3 2115   0.589   2.798   1.230
  521SOL    MW4 2116   0.668   2.832   1.243
  522SOL     OW 2117   0.677   3.086   1.156
  522SOL    HW2 2118   0.739   3.158   1.168
  522SOL    HW3 2119   0.663   3.082   1.061
  522SOL    MW4 2120   0.684   3.095   1.145
  523SOL     OW 2121   0.438   3.193   1.261
  523SOL    HW2 2122   0.447   3.283   1.228
  523SOL    HW3 2123   0.522   3.152   1.240
  523SOL    MW4 2124   0.450   3.200   1.254
  524SOL     OW 2125   0.430   3.466   1.162
  524SOL    HW2 2126   0.506   3.518   1.190
  524SOL    HW3 2127   0.355   3.515   1.194
  524SOL    MW4 2128   0.430   3.479   1.170
  525SOL     OW 2129   0.629   3.630   1.247
  525SOL    HW2 2130   0.647   3.620   1.341
  525SOL    HW3 2131   0.639   3.724   1.230
  525SOL    MW4 2132   0.632   3.641   1.257
  526SOL     OW 2133   0.666   3.883   1.126
  526SOL    HW2 2134   0.594   3.940   1.154
  526SOL    HW3 2135   0.655   3.876   1.031
  526SOL    MW4 2136   0.655   3.890   1.117
  527SOL     OW 2137   0.441   4.006   1.204
  527SOL    HW2 2138   0.460   4.083   1.150
  527SOL    HW3 2139   0.362   3.968   1.164
  527SOL    MW4 2140   0.433   4.011   1.192
  528SOL     OW 2141   0.445   4.256   1.073
  528SOL    HW2 2142   0.522   4.305   1.103
  528SOL    HW3 2143   0.371   4.302   1.111
  528SOL    MW4 2144   0.446   4.269   1.082
  529SOL     OW 2145   0.651   4.387   1.191
  529SOL    HW2 2146   0.645   4.386   1.287
  529SOL    HW3 2147   0.732   4.341   1.172
  529SOL    MW4 2148   0.661   4.381   1.201
  530SOL     OW 2149   1.126   0.004   1.107
  530SOL    HW2 2150   1.128  -0.082   1.149
  530SOL    HW3 2151   1.163  -0.011   1.019
  530SOL    MW4 2152   1.131  -0.009   1.101
  531SOL     OW 2153   0.869   0.127   1.171
  531SOL    HW2 2154   0.874   0.134   1.266
  531SOL    HW3 2155   0.959   0.109   1.143
  531SOL    MW4 2156   0.881   0.125   1.180
  532SOL     OW 2157   0.890   0.387   1.091
  532SOL    HW2 2158   0.874   0.301   1.131
  532SOL    HW3 2159   0.818   0.441   1.123
  532SOL    MW4 2160   0.878   0.382   1.101
  533SOL     OW 2161   1.132   0.518   1.170
  533SOL    HW2 2162   1.100   0.516   1.260
  533SOL    HW3 2163   1.065   0.469   1.121
  533SOL    MW4 2164   1.119   0.511   1.175
  534SOL     OW 2165   1.118   0.783   1.103
  534SOL    HW2 2166   1.033   0.811   1.138
  534SOL    HW3 2167   1.126   0.692   1.130
  534SOL    MW4 2168   1.108   0.775   1.111
  535SOL     OW 2169   0.869   0.886   1.232
  535SOL    HW2 2170   0.883   0.977   1.205
  535SOL    HW3 2171   0.779   0.866   1.204
  535SOL    MW4 2172   0.859   0.895   1.225
  536SOL     OW 2173   0.901   1.173   1.147
  536SOL    HW2 2174   0.982   1.218   1.169
  536SOL    HW3 2175   0.893   1.183   1.052
  536SOL    MW4 2176   0.910   1.180   1.137
  537SOL     OW 2177   1.135   1.284   1.227
  537SOL    HW2 2178   1.147   1.307   1.319
  537SOL    HW3 2179   1.222   1.261   1.196
  537SOL    MW4 2180   1.148   1.284   1.235
  538SOL     OW 2181   1.106   1.554   1.126
  538SOL    HW2 2182   1.106   1.464   1.160
  538SOL    HW3 2183   1.116   1.543   1.031
  538SOL    MW4 2184   1.108   1.541   1.118
  539SOL     OW 2185   0.888   1.714   1.221
  539SOL    HW2 2186   0.900   1.804   1.193
  539SOL    HW3 2187   0.966   1.668   1.190
  539SOL    MW4 2188   0.900   1.720   1.213
  540SOL     OW 2189   0.891   1.985   1.134
  540SOL    HW2 2190   0.974   2.019   1.168
  540SOL    HW3 2191   0.824   2.028   1.187
  540SOL    MW4 2192   0.893   1.995   1.145
  541SOL     OW 2193   1.114   2.064   1.247
  541SOL    HW2 2194   1.119   2.076   1.341
  541SOL    HW3 2195   1.103   2.152   1.212
  541SOL    MW4 2196   1.113   2.077   1.255
  542SOL     OW 2197   1.080   2.321   1.122
  542SOL    HW2 2198   1.154   2.378   1.144
  542SOL    HW3 2199   1.009   2.351   1.179
  542SOL    MW4 2200   1.080   2.333   1.133
  543SOL     OW 2201   0.903   2.442   1.300
  543SOL    HW2 2202   0.911   2.456   1.394
  543SOL    HW3 2203   0.809   2.434   1.285
  543SOL    MW4 2204   0.892   2.443   1.310
  544SOL     OW 2205   0.899   2.685   1.158
  544SOL    HW2 2206   0.907   2.600   1.201
  544SOL    HW3 2207   0.819   2.722   1.194
  544SOL    MW4 2208   0.890   2.679   1.168
  545SOL     OW 2209   1.097   2.883   1.211
  545SOL    HW2 2210   1.099   2.867   1.305
  545SOL    HW3 2211   1.036   2.817   1.177
  545SOL    MW4 2212   1.089   2.872   1.219
  546SOL     OW 2213   1.119   3.177   1.116
  546SOL    HW2 2214   1.119   3.082   1.127
  546SOL    HW3 2215   1.104   3.190   1.022
  546SOL    MW4 2216   1.117   3.166   1.105
  547SOL     OW 2217   0.874   3.286   1.222
  547SOL    HW2 2218   0.894   3.378   1.204
  547SOL    HW3 2219   0.953   3.239   1.196
  547SOL    MW4 2220   0.887   3.292   1.216
  548SOL     OW 2221   0.910   3.547   1.156
  548SOL    HW2 2222   0.823   3.574   1.187
  548SOL    HW3 2223   0.902   3.543   1.061
  548SOL    MW4 2224   0.897   3.550   1.148
  549SOL     OW 2225   1.159   3.671   1.240
  549SOL    HW2 2226   1.230   3.617   1.205
  549SOL    HW3 2227   1.080   3.617   1.228
  549SOL    MW4 2228   1.158   3.657   1.234
  550SOL     OW 2229   1.127   3.904   1.128
  550SOL    HW2 2230   1.039   3.937   1.148
  550SOL    HW3 2231   1.133   3.822   1.177
  550SOL    MW4 2232   1.116   3.898   1.137
  551SOL     OW 2233   0.891   4.011   1.205
  551SOL    HW2 2234   0.883   3.986   1.297
  551SOL    HW3 2235   0.814   3.972   1.163
  551SOL    MW4 2236   0.880   4.003   1.212
  552SOL     OW 2237   0.907   4.281   1.150
  552SOL    HW2 2238   0.906   4.188   1.174
  552SOL    HW3 2239   0.927   4.281   1.056
  552SOL    MW4 2240   0.910   4.269   1.141
  553SOL     OW 2241   1.120   4.417   1.236
  553SOL    HW2 2242   1.117   4.412   1.332
  553SOL    HW3 2243   1.042   4.371   1.207
  553SOL    MW4 2244   1.110   4.410   1.245
  554SOL     OW 2245   1.553   0.009   1.076
  554SOL    HW2 2246   1.617   0.061   1.125
  554SOL    HW3 2247   1.561  -0.079   1.113
  554SOL    MW4 2248   1.563   0.005   1.087
  555SOL     OW 2249   1.345   0.115   1.236
  555SOL    HW2 2250   1.417   0.089   1.179
  555SOL    HW3 2251   1.268   0.071   1.199
  555SOL    MW4 2252   1.344   0.106   1.224
  556SOL     OW 2253   1.310   0.341   1.054
  556SOL    HW2 2254   1.340   0.278   1.119
  556SOL    HW3 2255   1.247   0.395   1.100
  556SOL    MW4 2256   1.306   0.340   1.068
  557SOL     OW 2257   1.517   0.521   1.202
  557SOL    HW2 2258   1.541   0.607   1.169
  557SOL    HW3 2259   1.437   0.498   1.154
  557SOL    MW4 2260   1.510   0.529   1.191
  558SOL     OW 2261   1.565   0.774   1.102
  558SOL    HW2 2262   1.653   0.809   1.114
  558SOL    HW3 2263   1.558   0.760   1.008
  558SOL    MW4 2264   1.576   0.777   1.091
  559SOL     OW 2265   1.335   0.922   1.223
  559SOL    HW2 2266   1.412   0.874   1.192
  559SOL    HW3 2267   1.262   0.884   1.175
  559SOL    MW4 2268   1.335   0.911   1.213
  560SOL     OW 2269   1.362   1.170   1.112
  560SOL    HW2 2270   1.363   1.081   1.148
  560SOL    HW3 2271   1.350   1.158   1.017
  560SOL    MW4 2272   1.361   1.157   1.104
  561SOL     OW 2273   1.601   1.294   1.206
  561SOL    HW2 2274   1.670   1.241   1.166
  561SOL    HW3 2275   1.520   1.260   1.169
  561SOL    MW4 2276   1.600   1.283   1.196
  562SOL     OW 2277   1.588   1.543   1.104
  562SOL    HW2 2278   1.661   1.580   1.154
  562SOL    HW3 2279   1.582   1.453   1.135
  562SOL    MW4 2280   1.597   1.536   1.115
  563SOL     OW 2281   1.351   1.673   1.190
  563SOL    HW2 2282   1.427   1.621   1.163
  563SOL    HW3 2283   1.277   1.631   1.147
  563SOL    MW4 2284   1.351   1.660   1.180
  564SOL     OW 2285   1.349   1.930   1.106
  564SOL    HW2 2286   1.358   1.841   1.141
  564SOL    HW3 2287   1.268   1.963   1.144
  564SOL    MW4 2288   1.340   1.923   1.116
  565SOL     OW 2289   1.576   2.062   1.239
  565SOL    HW2 2290   1.569   2.154   1.214
  565SOL    HW3 2291   1.501   2.020   1.197
  565SOL    MW4 2292   1.565   2.068   1.230
  566SOL     OW 2293   1.562   2.316   1.119
  566SOL    HW2 2294   1.489   2.377   1.126
  566SOL    HW3 2295   1.568   2.296   1.026
  566SOL    MW4 2296   1.553   2.321   1.108
  567SOL     OW 2297   1.331   2.477   1.168
  567SOL    HW2 2298   1.336   2.483   1.263
  567SOL    HW3 2299   1.325   2.567   1.138
  567SOL    MW4 2300   1.331   2.489   1.176
  568SOL     OW 2301   1.316   2.739   1.106
  568SOL    HW2 2302   1.398   2.776   1.137
  568SOL    HW3 2303   1.249   2.774   1.165
  568SOL    MW4 2304   1.318   2.749   1.118
  569SOL     OW 2305   1.543   2.843   1.212
  569SOL    HW2 2306   1.616   2.784   1.196
  569SOL    HW3 2307   1.569   2.925   1.171
  569SOL    MW4 2308   1.556   2.846   1.205
  570SOL     OW 2309   1.604   3.111   1.078
  570SOL    HW2 2310   1.682   3.154   1.113
  570SOL    HW3 2311   1.530   3.155   1.122
  570SOL    MW4 2312   1.604   3.122   1.089
  571SOL     OW 2313   1.369   3.223   1.201
  571SOL    HW2 2314   1.367   3.201   1.294
  571SOL    HW3 2315   1.280   3.206   1.171
  571SOL    MW4 2316   1.357   3.218   1.210
  572SOL     OW 2317   1.305   3.482   1.105
  572SOL    HW2 2318   1.309   3.392   1.138
  572SOL    HW3 2319   1.319   3.473   1.010
  572SOL    MW4 2320   1.307   3.469   1.097
  573SOL     OW 2321   1.583   3.588   1.162
  573SOL    HW2 2322   1.581   3.684   1.153
  573SOL    HW3 2323   1.492   3.561   1.149
  573SOL    MW4 2324   1.571   3.597   1.159
  574SOL     OW 2325   1.584   3.860   1.154
  574SOL    HW2 2326   1.505   3.910   1.175
  574SOL    HW3 2327   1.594   3.869   1.060
  574SOL    MW4 2328   1.575   3.868   1.145
  575SOL     OW 2329   1.361   4.012   1.211
  575SOL    HW2 2330   1.365   4.106   1.191
  575SOL    HW3 2331   1.276   3.984   1.178
  575SOL    MW4 2332   1.350   4.021   1.204
  576SOL     OW 2333   1.353   4.276   1.123
  576SOL    HW2 2334   1.282   4.328   1.163
  576SOL    HW3 2335   1.344   4.292   1.029
  576SOL    MW4 2336   1.342   4.285   1.116
  577SOL     OW 2337   1.578   4.407   1.185
  577SOL    HW2 2338   1.585   4.399   1.281
  577SOL    HW3 2339   1.496   4.362   1.164
  577SOL    MW4 2340   1.568   4.400   1.195
  578SOL     OW 2341   1.958   4.655   1.101
  578SOL    HW2 2342   1.971   4.561   1.109
  578SOL    HW3 2343   1.954   4.671   1.007
  578SOL    MW4 2344   1.959   4.645   1.090
  579SOL     OW 2345   1.756   0.148   1.218
  579SOL    HW2 2346   1.752   0.241   1.197
  579SOL    HW3 2347   1.836   0.116   1.176
  579SOL    MW4 2348   1.766   0.156   1.210
  580SOL     OW 2349   1.762   0.407   1.124
  580SOL    HW2 2350   1.686   0.444   1.169
  580SOL    HW3 2351   1.730   0.386   1.036
  580SOL    MW4 2352   1.748   0.409   1.118
  581SOL     OW 2353   1.997   0.524   1.199
  581SOL    HW2 2354   1.999   0.521   1.294
  581SOL    HW3 2355   1.913   0.484   1.175
  581SOL    MW4 2356   1.986   0.519   1.208
  582SOL     OW 2357   2.067   0.793   1.127
  582SOL    HW2 2358   2.047   0.702   1.151
  582SOL    HW3 2359   2.074   0.791   1.031
  582SOL    MW4 2360   2.065   0.780   1.117
  583SOL     OW 2361   1.803   0.876   1.173
  583SOL    HW2 2362   1.810   0.888   1.268
  583SOL    HW3 2363   1.892   0.853   1.146
  583SOL    MW4 2364   1.816   0.875   1.182
  584SOL     OW 2365   1.816   1.137   1.123
  584SOL    HW2 2366   1.824   1.044   1.147
  584SOL    HW3 2367   1.822   1.138   1.028
  584SOL    MW4 2368   1.818   1.125   1.114
  585SOL     OW 2369   2.023   1.287   1.239
  585SOL    HW2 2370   2.092   1.221   1.227
  585SOL    HW3 2371   1.943   1.245   1.208
  585SOL    MW4 2372   2.022   1.273   1.233
  586SOL     OW 2373   2.054   1.542   1.168
  586SOL    HW2 2374   2.045   1.449   1.186
  586SOL    HW3 2375   2.051   1.549   1.073
  586SOL    MW4 2376   2.053   1.531   1.158
  587SOL     OW 2377   1.804   1.666   1.216
  587SOL    HW2 2378   1.798   1.752   1.175
  587SOL    HW3 2379   1.886   1.628   1.183
  587SOL    MW4 2380   1.814   1.672   1.207
  588SOL     OW 2381   1.786   1.921   1.123
  588SOL    HW2 2382   1.710   1.966   1.158
  588SOL    HW3 2383   1.773   1.921   1.028
  588SOL    MW4 2384   1.774   1.927   1.115
  589SOL     OW 2385   2.018   2.058   1.211
  589SOL    HW2 2386   2.019   2.053   1.306
  589SOL    HW3 2387   1.941   2.007   1.185
  589SOL    MW4 2388   2.008   2.050   1.220
  590SOL     OW 2389   2.007   2.341   1.136
  590SOL    HW2 2390   2.085   2.383   1.173
  590SOL    HW3 2391   2.024   2.247   1.146
  590SOL    MW4 2392   2.020   2.334   1.142
  591SOL     OW 2393   1.767   2.464   1.227
  591SOL    HW2 2394   1.846   2.416   1.204
  591SOL    HW3 2395   1.695   2.407   1.198
  591SOL    MW4 2396   1.768   2.451   1.220
  592SOL     OW 2397   1.787   2.727   1.146
  592SOL    HW2 2398   1.780   2.637   1.178
  592SOL    HW3 2399   1.776   2.719   1.051
  592SOL    MW4 2400   1.784   2.714   1.138
  593SOL     OW 2401   2.023   2.811   1.202
  593SOL    HW2 2402   2.033   2.895   1.157
  593SOL    HW3 2403   1.936   2.780   1.175
  593SOL    MW4 2404   2.013   2.818   1.192
  594SOL     OW 2405   2.021   3.068   1.105
  594SOL    HW2 2406   1.960   3.121   1.156
  594SOL    HW3 2407   2.020   3.107   1.018
  594SOL    MW4 2408   2.013   3.080   1.101
  595SOL     OW 2409   1.830   3.218   1.236
  595SOL    HW2 2410   1.820   3.220   1.331
  595SOL    HW3 2411   1.800   3.304   1.207
  595SOL    MW4 2412   1.824   3.230   1.245
  596SOL     OW 2413   1.811   3.462   1.088
  596SOL    HW2 2414   1.882   3.517   1.123
  596SOL    HW3 2415   1.732   3.512   1.105
  596SOL    MW4 2416   1.810   3.476   1.095
  597SOL     OW 2417   2.018   3.643   1.171
  597SOL    HW2 2418   2.045   3.647   1.263
  597SOL    HW3 2419   2.087   3.596   1.127
  597SOL    MW4 2420   2.030   3.637   1.177
  598SOL     OW 2421   2.010   3.903   1.067
  598SOL    HW2 2422   1.942   3.952   1.113
  598SOL    HW3 2423   1.998   3.813   1.095
  598SOL    MW4 2424   2.000   3.898   1.077
  599SOL     OW 2425   1.774   4.046   1.190
  599SOL    HW2 2426   1.796   4.054   1.283
  599SOL    HW3 2427   1.717   3.969   1.186
  599SOL    MW4 2428   1.770   4.037   1.202
  600SOL     OW 2429   1.786   4.282   1.060
  600SOL    HW2 2430   1.768   4.198   1.104
  600SOL    HW3 2431   1.729   4.345   1.104
  600SOL    MW4 2432   1.776   4.279   1.072
  601SOL     OW 2433   2.013   4.382   1.170
  601SOL    HW2 2434   1.997   4.388   1.264
  601SOL    HW3 2435   1.935   4.340   1.135
  601SOL    MW4 2436   2.001   4.377   1.178
  602SOL     OW 2437   2.442   0.001   1.110
  602SOL    HW2 2438   2.516   0.053   1.141
  602SOL    HW3 2439   2.369   0.028   1.167
  602SOL    MW4 2440   2.442   0.012   1.122
  603SOL     OW 2441   2.208   0.087   1.214
  603SOL    HW2 2442   2.215   0.175   1.177
  603SOL    HW3 2443   2.131   0.049   1.172
  603SOL    MW4 2444   2.199   0.093   1.204
  604SOL     OW 2445   2.197   0.343   1.113
  604SOL    HW2 2446   2.135   0.408   1.148
  604SOL    HW3 2447   2.206   0.366   1.021
  604SOL    MW4 2448   2.190   0.355   1.106
  605SOL     OW 2449   2.414   0.478   1.201
  605SOL    HW2 2450   2.434   0.470   1.295
  605SOL    HW3 2451   2.338   0.421   1.189
  605SOL    MW4 2452   2.406   0.469   1.212
  606SOL     OW 2453   2.501   0.731   1.128
  606SOL    HW2 2454   2.473   0.640   1.139
  606SOL    HW3 2455   2.518   0.739   1.034
  606SOL    MW4 2456   2.500   0.720   1.117
  607SOL     OW 2457   2.289   0.858   1.256
  607SOL    HW2 2458   2.361   0.803   1.227
  607SOL    HW3 2459   2.213   0.827   1.207
  607SOL    MW4 2460   2.288   0.847   1.246
  608SOL     OW 2461   2.251   1.123   1.156
  608SOL    HW2 2462   2.336   1.163   1.172
  608SOL    HW3 2463   2.261   1.033   1.185
  608SOL    MW4 2464   2.263   1.117   1.162
  609SOL     OW 2465   2.501   1.211   1.230
  609SOL    HW2 2466   2.587   1.177   1.203
  609SOL    HW3 2467   2.501   1.302   1.199
  609SOL    MW4 2468   2.513   1.219   1.223
  610SOL     OW 2469   2.471   1.489   1.167
  610SOL    HW2 2470   2.399   1.550   1.176
  610SOL    HW3 2471   2.491   1.490   1.073
  610SOL    MW4 2472   2.464   1.497   1.155
  611SOL     OW 2473   2.285   1.669   1.255
  611SOL    HW2 2474   2.274   1.761   1.230
  611SOL    HW3 2475   2.206   1.626   1.222
  611SOL    MW4 2476   2.273   1.675   1.247
  612SOL     OW 2477   2.251   1.937   1.124
  612SOL    HW2 2478   2.166   1.973   1.150
  612SOL    HW3 2479   2.248   1.934   1.029
  612SOL    MW4 2480   2.239   1.941   1.115
  613SOL     OW 2481   2.469   2.066   1.226
  613SOL    HW2 2482   2.540   2.011   1.195
  613SOL    HW3 2483   2.389   2.022   1.198
  613SOL    MW4 2484   2.468   2.053   1.218
  614SOL     OW 2485   2.430   2.314   1.100
  614SOL    HW2 2486   2.433   2.222   1.125
  614SOL    HW3 2487   2.415   2.313   1.005
  614SOL    MW4 2488   2.428   2.302   1.091
  615SOL     OW 2489   2.240   2.453   1.211
  615SOL    HW2 2490   2.253   2.445   1.306
  615SOL    HW3 2491   2.313   2.404   1.173
  615SOL    MW4 2492   2.252   2.445   1.218
  616SOL     OW 2493   2.218   2.672   1.066
  616SOL    HW2 2494   2.232   2.590   1.114
  616SOL    HW3 2495   2.154   2.720   1.117
  616SOL    MW4 2496   2.211   2.667   1.079
  617SOL     OW 2497   2.438   2.811   1.167
  617SOL    HW2 2498   2.410   2.828   1.256
  617SOL    HW3 2499   2.366   2.759   1.129
  617SOL    MW4 2500   2.425   2.806   1.173
  618SOL     OW 2501   2.478   3.073   1.074
  618SOL    HW2 2502   2.397   3.110   1.110
  618SOL    HW3 2503   2.475   2.981   1.100
  618SOL    MW4 2504   2.467   3.065   1.082
  619SOL     OW 2505   2.256   3.188   1.186
  619SOL    HW2 2506   2.245   3.281   1.168
  619SOL    HW3 2507   2.171   3.149   1.167
  619SOL    MW4 2508   2.244   3.195   1.181
  620SOL     OW 2509   2.225   3.438   1.087
  620SOL    HW2 2510   2.298   3.494   1.114
  620SOL    HW3 2511   2.223   3.446   0.991
  620SOL    MW4 2512   2.234   3.447   1.078
  621SOL     OW 2513   2.462   3.602   1.184
  621SOL    HW2 2514   2.476   3.625   1.276
  621SOL    HW3 2515   2.454   3.686   1.139
  621SOL    MW4 2516   2.463   3.616   1.190
  622SOL     OW 2517   2.435   3.850   1.076
  622SOL    HW2 2518   2.369   3.914   1.103
  622SOL    HW3 2519   2.439   3.859   0.981
  622SOL    MW4 2520   2.427   3.860   1.067
  623SOL     OW 2521   2.245   4.023   1.165
  623SOL    HW2 2522   2.263   4.114   1.139
  623SOL    HW3 2523   2.160   4.003   1.127
  623SOL    MW4 2524   2.237   4.033   1.156
  624SOL     OW 2525   2.272   4.300   1.115
  624SOL    HW2 2526   2.185   4.337   1.132
  624SOL    HW3 2527   2.272   4.280   1.021
  624SOL    MW4 2528   2.261   4.302   1.105
  625SOL     OW 2529   2.512   4.399   1.195
  625SOL    HW2 2530   2.423   4.364   1.193
  625SOL    HW3 2531   2.504   4.487   1.157
  625SOL    MW4 2532   2.499   4.406   1.189
  626SOL     OW 2533   2.892   4.656   1.146
  626SOL    HW2 2534   2.877   4.567   1.178
  626SOL    HW3 2535   2.886   4.648   1.051
  626SOL    MW4 2536   2.889   4.643   1.138
  627SOL     OW 2537   2.668   0.122   1.194
  627SOL    HW2 2538   2.658   0.111   1.288
  627SOL    HW3 2539   2.743   0.066   1.172
  627SOL    MW4 2540   2.676   0.113   1.203
  628SOL     OW 2541   2.675   0.378   1.128
  628SOL    HW2 2542   2.682   0.287   1.155
  628SOL    HW3 2543   2.590   0.407   1.162
  628SOL    MW4 2544   2.665   0.370   1.136
  629SOL     OW 2545   2.918   0.478   1.237
  629SOL    HW2 2546   2.917   0.572   1.217
  629SOL    HW3 2547   2.849   0.442   1.182
  629SOL    MW4 2548   2.909   0.486   1.227
  630SOL     OW 2549   2.952   0.736   1.132
  630SOL    HW2 2550   3.029   0.789   1.152
  630SOL    HW3 2551   2.879   0.783   1.172
  630SOL    MW4 2552   2.953   0.749   1.140
  631SOL     OW 2553   2.733   0.880   1.221
  631SOL    HW2 2554   2.724   0.960   1.170
  631SOL    HW3 2555   2.652   0.831   1.204
  631SOL    MW4 2556   2.721   0.884   1.212
  632SOL     OW 2557   2.729   1.116   1.074
  632SOL    HW2 2558   2.805   1.170   1.092
  632SOL    HW3 2559   2.727   1.109   0.978
  632SOL    MW4 2560   2.738   1.122   1.063
  633SOL     OW 2561   2.912   1.285   1.201
  633SOL    HW2 2562   2.901   1.274   1.296
  633SOL    HW3 2563   2.891   1.377   1.185
  633SOL    MW4 2564   2.908   1.296   1.212
  634SOL     OW 2565   2.900   1.554   1.163
  634SOL    HW2 2566   2.986   1.594   1.179
  634SOL    HW3 2567   2.899   1.536   1.070
  634SOL    MW4 2568   2.911   1.557   1.153
  635SOL     OW 2569   2.660   1.664   1.265
  635SOL    HW2 2570   2.740   1.644   1.216
  635SOL    HW3 2571   2.594   1.607   1.227
  635SOL    MW4 2572   2.662   1.654   1.254
  636SOL     OW 2573   2.692   1.909   1.123
  636SOL    HW2 2574   2.779   1.942   1.148
  636SOL    HW3 2575   2.679   1.831   1.178
  636SOL    MW4 2576   2.702   1.903   1.134
  637SOL     OW 2577   2.908   2.037   1.220
  637SOL    HW2 2578   2.913   2.047   1.315
  637SOL    HW3 2579   2.880   2.123   1.188
  637SOL    MW4 2580   2.905   2.049   1.228
  638SOL     OW 2581   2.897   2.335   1.068
  638SOL    HW2 2582   2.982   2.352   1.108
  638SOL    HW3 2583   2.834   2.368   1.132
  638SOL    MW4 2584   2.900   2.342   1.082
  639SOL     OW 2585   2.674   2.429   1.217
  639SOL    HW2 2586   2.655   2.437   1.311
  639SOL    HW3 2587   2.597   2.383   1.182
  639SOL    MW4 2588   2.661   2.424   1.225
  640SOL     OW 2589   2.669   2.692   1.097
  640SOL    HW2 2590   2.665   2.600   1.122
  640SOL    HW3 2591   2.588   2.730   1.131
  640SOL    MW4 2592   2.658   2.685   1.105
  641SOL     OW 2593   2.900   2.797   1.227
  641SOL    HW2 2594   2.887   2.811   1.321
  641SOL    HW3 2595   2.818   2.759   1.197
  641SOL    MW4 2596   2.888   2.794   1.236
  642SOL     OW 2597   2.935   3.084   1.114
  642SOL    HW2 2598   2.920   2.993   1.137
  642SOL    HW3 2599   2.942   3.084   1.019
  642SOL    MW4 2600   2.934   3.072   1.105
  643SOL     OW 2601   2.702   3.221   1.182
  643SOL    HW2 2602   2.782   3.184   1.145
  643SOL    HW3 2603   2.631   3.166   1.147
  643SOL    MW4 2604   2.703   3.209   1.172
  644SOL     OW 2605   2.692   3.473   1.090
  644SOL    HW2 2606   2.684   3.385   1.126
  644SOL    HW3 2607   2.605   3.511   1.102
  644SOL    MW4 2608   2.679   3.467   1.096
  645SOL     OW 2609   2.938   3.589   1.216
  645SOL    HW2 2610   3.011   3.545   1.172
  645SOL    HW3 2611   2.860   3.548   1.179
  645SOL    MW4 2612   2.937   3.578   1.205
  646SOL     OW 2613   2.883   3.837   1.109
  646SOL    HW2 2614   2.952   3.893   1.144
  646SOL    HW3 2615   2.909   3.748   1.134
  646SOL    MW4 2616   2.895   3.833   1.117
  647SOL     OW 2617   2.648   4.013   1.185
  647SOL    HW2 2618   2.733   3.970   1.179
  647SOL    HW3 2619   2.587   3.952   1.143
  647SOL    MW4 2620   2.651   4.000   1.178
  648SOL     OW 2621   2.636   4.244   1.011
  648SOL    HW2 2622   2.629   4.161   1.058
  648SOL    HW3 2623   2.578   4.303   1.059
  648SOL    MW4 2624   2.627   4.241   1.024
  649SOL     OW 2625   2.830   4.382   1.220
  649SOL    HW2 2626   2.892   4.335   1.165
  649SOL    HW3 2627   2.747   4.336   1.207
  649SOL    MW4 2628   2.827   4.370   1.211
  650SOL     OW 2629   3.376   4.625   1.131
  650SOL    HW2 2630   3.453   4.669   1.167
  650SOL    HW3 2631   3.303   4.660   1.181
  650SOL    MW4 2632   3.377   4.635   1.142
  651SOL     OW 2633   3.130   0.093   1.243
  651SOL    HW2 2634   3.126   0.098   1.338
  651SOL    HW3 2635   3.043   0.060   1.217
  651SOL    MW4 2636   3.118   0.089   1.252
  652SOL     OW 2637   3.161   0.363   1.173
  652SOL    HW2 2638   3.157   0.271   1.200
  652SOL    HW3 2639   3.078   0.400   1.203
  652SOL    MW4 2640   3.150   0.356   1.181
  653SOL     OW 2641   3.383   0.517   1.189
  653SOL    HW2 2642   3.356   0.601   1.153
  653SOL    HW3 2643   3.306   0.461   1.180
  653SOL    MW4 2644   3.369   0.520   1.183
  654SOL     OW 2645   3.374   0.765   1.059
  654SOL    HW2 2646   3.311   0.833   1.086
  654SOL    HW3 2647   3.386   0.780   0.965
  654SOL    MW4 2648   3.367   0.776   1.050
  655SOL     OW 2649   3.158   0.904   1.197
  655SOL    HW2 2650   3.178   0.930   1.287
  655SOL    HW3 2651   3.145   0.986   1.150
  655SOL    MW4 2652   3.159   0.918   1.203
  656SOL     OW 2653   3.127   1.173   1.073
  656SOL    HW2 2654   3.206   1.196   1.123
  656SOL    HW3 2655   3.057   1.222   1.116
  656SOL    MW4 2656   3.128   1.183   1.085
  657SOL     OW 2657   3.369   1.266   1.191
  657SOL    HW2 2658   3.354   1.287   1.283
  657SOL    HW3 2659   3.380   1.350   1.148
  657SOL    MW4 2660   3.368   1.280   1.198
  658SOL     OW 2661   3.335   1.525   1.057
  658SOL    HW2 2662   3.417   1.544   1.103
  658SOL    HW3 2663   3.268   1.569   1.109
  658SOL    MW4 2664   3.337   1.533   1.070
  659SOL     OW 2665   3.136   1.679   1.233
  659SOL    HW2 2666   3.137   1.673   1.328
  659SOL    HW3 2667   3.128   1.773   1.215
  659SOL    MW4 2668   3.135   1.690   1.243
  660SOL     OW 2669   3.156   1.957   1.110
  660SOL    HW2 2670   3.231   1.984   1.163
  660SOL    HW3 2671   3.084   2.014   1.140
  660SOL    MW4 2672   3.156   1.968   1.121
  661SOL     OW 2673   3.374   2.056   1.260
  661SOL    HW2 2674   3.447   2.012   1.217
  661SOL    HW3 2675   3.383   2.147   1.234
  661SOL    MW4 2676   3.385   2.062   1.251
  662SOL     OW 2677   3.358   2.336   1.134
  662SOL    HW2 2678   3.428   2.387   1.175
  662SOL    HW3 2679   3.278   2.383   1.154
  662SOL    MW4 2680   3.357   2.349   1.142
  663SOL     OW 2681   3.119   2.465   1.193
  663SOL    HW2 2682   3.106   2.456   1.287
  663SOL    HW3 2683   3.119   2.560   1.178
  663SOL    MW4 2684   3.117   2.476   1.204
  664SOL     OW 2685   3.162   2.739   1.154
  664SOL    HW2 2686   3.073   2.769   1.173
  664SOL    HW3 2687   3.161   2.720   1.060
  664SOL    MW4 2688   3.150   2.740   1.144
  665SOL     OW 2689   3.388   2.856   1.242
  665SOL    HW2 2690   3.391   2.949   1.216
  665SOL    HW3 2691   3.302   2.827   1.213
  665SOL    MW4 2692   3.377   2.865   1.235
  666SOL     OW 2693   3.389   3.122   1.141
  666SOL    HW2 2694   3.459   3.178   1.176
  666SOL    HW3 2695   3.308   3.159   1.177
  666SOL    MW4 2696   3.388   3.134   1.151
  667SOL     OW 2697   3.153   3.233   1.210
  667SOL    HW2 2698   3.132   3.312   1.160
  667SOL    HW3 2699   3.092   3.167   1.177
  667SOL    MW4 2700   3.142   3.234   1.199
  668SOL     OW 2701   3.157   3.476   1.087
  668SOL    HW2 2702   3.239   3.506   1.127
  668SOL    HW3 2703   3.177   3.468   0.994
  668SOL    MW4 2704   3.170   3.479   1.080
  669SOL     OW 2705   3.368   3.653   1.223
  669SOL    HW2 2706   3.364   3.660   1.318
  669SOL    HW3 2707   3.453   3.613   1.205
  669SOL    MW4 2708   3.379   3.649   1.233
  670SOL     OW 2709   3.337   3.901   1.093
  670SOL    HW2 2710   3.257   3.948   1.118
  670SOL    HW3 2711   3.334   3.820   1.144
  670SOL    MW4 2712   3.326   3.896   1.103
  671SOL     OW 2713   3.095   4.007   1.206
  671SOL    HW2 2714   3.101   4.014   1.302
  671SOL    HW3 2715   3.088   4.098   1.177
  671SOL    MW4 2716   3.095   4.020   1.215
  672SOL     OW 2717   3.058   4.286   1.106
  672SOL    HW2 2718   3.141   4.330   1.127
  672SOL    HW3 2719   3.067   4.262   1.014
  672SOL    MW4 2720   3.070   4.289   1.097
  673SOL     OW 2721   3.307   4.366   1.203
  673SOL    HW2 2722   3.381   4.326   1.157
  673SOL    HW3 2723   3.318   4.460   1.188
  673SOL    MW4 2724   3.318   4.373   1.195
  674SOL     OW 2725   3.810   4.654   1.130
  674SOL    HW2 2726   3.817   4.564   1.160
  674SOL    HW3 2727   3.813   4.648   1.034
  674SOL    MW4 2728   3.812   4.642   1.121
  675SOL     OW 2729   3.580   0.105   1.250
  675SOL    HW2 2730   3.580   0.197   1.224
  675SOL    HW3 2731   3.657   0.067   1.208
  675SOL    MW4 2732   3.590   0.112   1.241
  676SOL     OW 2733   3.604   0.366   1.108
  676SOL    HW2 2734   3.679   0.413   1.145
  676SOL    HW3 2735   3.529   0.423   1.123
  676SOL    MW4 2736   3.604   0.379   1.114
  677SOL     OW 2737   3.800   0.488   1.230
  677SOL    HW2 2738   3.880   0.457   1.186
  677SOL    HW3 2739   3.800   0.582   1.216
  677SOL    MW4 2740   3.811   0.496   1.222
  678SOL     OW 2741   3.827   0.757   1.159
  678SOL    HW2 2742   3.896   0.794   1.215
  678SOL    HW3 2743   3.748   0.802   1.187
  678SOL    MW4 2744   3.826   0.768   1.170
  679SOL     OW 2745   3.575   0.837   1.231
  679SOL    HW2 2746   3.573   0.929   1.205
  679SOL    HW3 2747   3.514   0.794   1.171
  679SOL    MW4 2748   3.567   0.843   1.220
  680SOL     OW 2749   3.581   1.110   1.142
  680SOL    HW2 2750   3.659   1.159   1.169
  680SOL    HW3 2751   3.507   1.165   1.166
  680SOL    MW4 2752   3.582   1.124   1.148
  681SOL     OW 2753   3.806   1.282   1.209
  681SOL    HW2 2754   3.798   1.299   1.303
  681SOL    HW3 2755   3.830   1.367   1.171
  681SOL    MW4 2756   3.808   1.295   1.216
  682SOL     OW 2757   3.834   1.540   1.118
  682SOL    HW2 2758   3.909   1.596   1.140
  682SOL    HW3 2759   3.830   1.541   1.023
  682SOL    MW4 2760   3.843   1.548   1.108
  683SOL     OW 2761   3.578   1.614   1.182
  683SOL    HW2 2762   3.572   1.705   1.154
  683SOL    HW3 2763   3.665   1.586   1.157
  683SOL    MW4 2764   3.588   1.622   1.175
  684SOL     OW 2765   3.583   1.907   1.112
  684SOL    HW2 2766   3.659   1.952   1.148
  684SOL    HW3 2767   3.565   1.952   1.030
  684SOL    MW4 2768   3.590   1.919   1.106
  685SOL     OW 2769   3.769   2.090   1.215
  685SOL    HW2 2770   3.778   2.097   1.311
  685SOL    HW3 2771   3.846   2.041   1.187
  685SOL    MW4 2772   3.780   2.085   1.224
  686SOL     OW 2773   3.808   2.345   1.089
  686SOL    HW2 2774   3.886   2.376   1.134
  686SOL    HW3 2775   3.801   2.253   1.113
  686SOL    MW4 2776   3.817   2.337   1.098
  687SOL     OW 2777   3.593   2.491   1.200
  687SOL    HW2 2778   3.579   2.482   1.294
  687SOL    HW3 2779   3.657   2.423   1.179
  687SOL    MW4 2780   3.599   2.481   1.210
  688SOL     OW 2781   3.588   2.740   1.055
  688SOL    HW2 2782   3.573   2.651   1.088
  688SOL    HW3 2783   3.525   2.794   1.104
  688SOL    MW4 2784   3.578   2.736   1.066
  689SOL     OW 2785   3.786   2.810   1.226
  689SOL    HW2 2786   3.769   2.820   1.319
  689SOL    HW3 2787   3.704   2.775   1.190
  689SOL    MW4 2788   3.773   2.806   1.233
  690SOL     OW 2789   3.811   3.075   1.146
  690SOL    HW2 2790   3.805   2.986   1.180
  690SOL    HW3 2791   3.821   3.065   1.052
  690SOL    MW4 2792   3.811   3.062   1.138
  691SOL     OW 2793   3.623   3.270   1.220
  691SOL    HW2 2794   3.640   3.352   1.174
  691SOL    HW3 2795   3.688   3.209   1.185
  691SOL    MW4 2796   3.634   3.273   1.209
  692SOL     OW 2797   3.595   3.539   1.118
  692SOL    HW2 2798   3.684   3.568   1.134
  692SOL    HW3 2799   3.591   3.524   1.024
  692SOL    MW4 2800   3.606   3.541   1.108
  693SOL     OW 2801   3.861   3.628   1.213
  693SOL    HW2 2802   3.829   3.643   1.302
  693SOL    HW3 2803   3.855   3.714   1.171
  693SOL    MW4 2804   3.856   3.642   1.219
  694SOL     OW 2805   3.810   3.878   1.086
  694SOL    HW2 2806   3.723   3.915   1.102
  694SOL    HW3 2807   3.802   3.832   1.002
  694SOL    MW4 2808   3.797   3.877   1.077
  695SOL     OW 2809   3.574   3.998   1.162
  695SOL    HW2 2810   3.573   3.966   1.252
  695SOL    HW3 2811   3.491   3.970   1.125
  695SOL    MW4 2812   3.563   3.990   1.169
  696SOL     OW 2813   3.565   4.267   1.095
  696SOL    HW2 2814   3.561   4.172   1.102
  696SOL    HW3 2815   3.588   4.284   1.004
  696SOL    MW4 2816   3.567   4.257   1.084
  697SOL     OW 2817   3.821   4.382   1.188
  697SOL    HW2 2818   3.823   4.365   1.282
  697SOL    HW3 2819   3.736   4.348   1.159
  697SOL    MW4 2820   3.810   4.375   1.196
  698SOL     OW 2821   4.306   4.641   1.141
  698SOL    HW2 2822   4.291   4.547   1.154
  698SOL    HW3 2823   4.226   4.683   1.173
  698SOL    MW4 2824   4.293   4.634   1.147
  699SOL     OW 2825   4.050   0.115   1.183
  699SOL    HW2 2826   4.056   0.117   1.279
  699SOL    HW3 2827   3.972   0.063   1.165
  699SOL    MW4 2828   4.040   0.108   1.194
  700SOL     OW 2829   4.012   0.381   1.105
  700SOL    HW2 2830   4.005   0.290   1.133
  700SOL    HW3 2831   4.028   0.376   1.011
  700SOL    MW4 2832   4.013   0.368   1.096
  701SOL     OW 2833   4.270   0.475   1.203
  701SOL    HW2 2834   4.265   0.495   1.297
  701SOL    HW3 2835   4.184   0.439   1.182
  701SOL    MW4 2836   4.258   0.473   1.213
  702SOL     OW 2837   4.237   0.765   1.142
  702SOL    HW2 2838   4.241   0.671   1.164
  702SOL    HW3 2839   4.240   0.767   1.046
  702SOL    MW4 2840   4.238   0.752   1.132
  703SOL     OW 2841   4.050   0.916   1.263
  703SOL    HW2 2842   4.069   0.905   1.357
  703SOL    HW3 2843   4.123   0.873   1.219
  703SOL    MW4 2844   4.062   0.909   1.270
  704SOL     OW 2845   4.051   1.167   1.129
  704SOL    HW2 2846   4.065   1.082   1.172
  704SOL    HW3 2847   3.970   1.199   1.167
  704SOL    MW4 2848   4.042   1.160   1.140
  705SOL     OW 2849   4.271   1.308   1.236
  705SOL    HW2 2850   4.277   1.300   1.331
  705SOL    HW3 2851   4.202   1.246   1.211
  705SOL    MW4 2852   4.262   1.299   1.245
  706SOL     OW 2853   4.274   1.557   1.120
  706SOL    HW2 2854   4.280   1.469   1.155
  706SOL    HW3 2855   4.350   1.603   1.157
  706SOL    MW4 2856   4.285   1.552   1.130
  707SOL     OW 2857   4.063   1.691   1.221
  707SOL    HW2 2858   4.070   1.700   1.316
  707SOL    HW3 2859   4.135   1.633   1.197
  707SOL    MW4 2860   4.073   1.684   1.231
  708SOL     OW 2861   3.991   1.952   1.129
  708SOL    HW2 2862   3.998   1.860   1.155
  708SOL    HW3 2863   4.011   1.952   1.035
  708SOL    MW4 2864   3.995   1.940   1.120
  709SOL     OW 2865   4.251   2.031   1.217
  709SOL    HW2 2866   4.266   2.123   1.196
  709SOL    HW3 2867   4.158   2.016   1.197
  709SOL    MW4 2868   4.241   2.041   1.212
  710SOL     OW 2869   4.276   2.289   1.118
  710SOL    HW2 2870   4.194   2.333   1.141
  710SOL    HW3 2871   4.285   2.301   1.024
  710SOL    MW4 2872   4.267   2.297   1.109
  711SOL     OW 2873   4.050   2.427   1.192
  711SOL    HW2 2874   4.033   2.424   1.286
  711SOL    HW3 2875   4.044   2.520   1.170
  711SOL    MW4 2876   4.047   2.439   1.202
  712SOL     OW 2877   4.023   2.698   1.139
  712SOL    HW2 2878   3.946   2.739   1.179
  712SOL    HW3 2879   4.002   2.695   1.046
  712SOL    MW4 2880   4.010   2.703   1.132
  713SOL     OW 2881   4.251   2.819   1.265
  713SOL    HW2 2882   4.253   2.913   1.248
  713SOL    HW3 2883   4.171   2.789   1.222
  713SOL    MW4 2884   4.241   2.827   1.257
  714SOL     OW 2885   4.254   3.095   1.171
  714SOL    HW2 2886   4.174   3.127   1.213
  714SOL    HW3 2887   4.232   3.091   1.078
  714SOL    MW4 2888   4.240   3.098   1.164
  715SOL     OW 2889   4.017   3.213   1.273
  715SOL    HW2 2890   4.018   3.220   1.368
  715SOL    HW3 2891   3.936   3.166   1.253
  715SOL    MW4 2892   4.007   3.208   1.283
  716SOL     OW 2893   4.038   3.446   1.119
  716SOL    HW2 2894   4.028   3.366   1.171
  716SOL    HW3 2895   3.964   3.500   1.144
  716SOL    MW4 2896   4.027   3.443   1.129
  717SOL     OW 2897   4.243   3.638   1.208
  717SOL    HW2 2898   4.163   3.587   1.204
  717SOL    HW3 2899   4.312   3.579   1.178
  717SOL    MW4 2900   4.242   3.624   1.204
  718SOL     OW 2901   4.267   3.904   1.084
  718SOL    HW2 2902   4.188   3.935   1.127
  718SOL    HW3 2903   4.264   3.808   1.095
  718SOL    MW4 2904   4.256   3.895   1.091
  719SOL     OW 2905   4.013   4.019   1.183
  719SOL    HW2 2906   4.019   4.107   1.145
  719SOL    HW3 2907   3.937   3.979   1.142
  719SOL    MW4 2908   4.004   4.025   1.172
  720SOL     OW 2909   4.045   4.271   1.099
  720SOL    HW2 2910   3.969   4.313   1.138
  720SOL    HW3 2911   4.023   4.263   1.006
  720SOL    MW4 2912   4.032   4.275   1.092
  721SOL     OW 2913   4.281   4.369   1.187
  721SOL    HW2 2914   4.200   4.333   1.151
  721SOL    HW3 2915   4.350   4.317   1.147
  721SOL    MW4 2916   4.279   4.357   1.177
  722SOL     OW 2917   0.243   4.619   1.610
  722SOL    HW2 2918   0.329   4.652   1.583
  722SOL    HW3 2919   0.182   4.690   1.588
  722SOL    MW4 2920   0.246   4.633   1.604
  723SOL     OW 2921   0.054   0.124   1.520
  723SOL    HW2 2922  -0.034   0.085   1.524
  723SOL    HW3 2923   0.076   0.125   1.427
  723SOL    MW4 2924   0.045   0.119   1.509
  724SOL     OW 2925   0.024   0.399   1.602
  724SOL    HW2 2926   0.009   0.385   1.695
  724SOL    HW3 2927   0.040   0.312   1.566
  724SOL    MW4 2928   0.024   0.386   1.609
  725SOL     OW 2929   0.212   0.539   1.464
  725SOL    HW2 2930   0.151   0.487   1.515
  725SOL    HW3 2931   0.202   0.508   1.374
  725SOL    MW4 2932   0.203   0.528   1.459
  726SOL     OW 2933   0.188   0.774   1.604
  726SOL    HW2 2934   0.275   0.811   1.587
  726SOL    HW3 2935   0.186   0.693   1.553
  726SOL    MW4 2936   0.199   0.768   1.595
  727SOL     OW 2937   4.463   0.912   1.468
  727SOL    HW2 2938   4.466   0.996   1.515
  727SOL    HW3 2939   4.537   0.862   1.504
  727SOL    MW4 2940   4.473   0.917   1.479
  728SOL     OW 2941   0.033   1.157   1.590
  728SOL    HW2 2942   0.032   1.176   1.683
  728SOL    HW3 2943   0.111   1.202   1.557
  728SOL    MW4 2944   0.043   1.166   1.598
  729SOL     OW 2945   0.243   1.306   1.521
  729SOL    HW2 2946   0.251   1.391   1.564
  729SOL    HW3 2947   0.222   1.327   1.430
  729SOL    MW4 2948   0.241   1.320   1.515
  730SOL     OW 2949   0.274   1.554   1.607
  730SOL    HW2 2950   0.249   1.578   1.697
  730SOL    HW3 2951   0.209   1.596   1.552
  730SOL    MW4 2952   0.263   1.563   1.612
  731SOL     OW 2953   0.053   1.674   1.493
  731SOL    HW2 2954   0.045   1.751   1.550
  731SOL    HW3 2955   0.036   1.708   1.405
  731SOL    MW4 2956   0.050   1.689   1.489
  732SOL     OW 2957   0.029   1.954   1.605
  732SOL    HW2 2958   0.040   1.958   1.700
  732SOL    HW3 2959  -0.060   1.986   1.589
  732SOL    MW4 2960   0.019   1.959   1.615
  733SOL     OW 2961   0.237   2.099   1.498
  733SOL    HW2 2962   0.154   2.057   1.523
  733SOL    HW3 2963   0.228   2.116   1.405
  733SOL    MW4 2964   0.225   2.096   1.489
  734SOL     OW 2965   0.230   2.350   1.591
  734SOL    HW2 2966   0.201   2.342   1.682
  734SOL    HW3 2967   0.225   2.260   1.557
  734SOL    MW4 2968   0.225   2.337   1.599
  735SOL     OW 2969   4.487   2.450   1.480
  735SOL    HW2 2970   4.418   2.400   1.524
  735SOL    HW3 2971   4.568   2.425   1.524
  735SOL    MW4 2972   4.488   2.440   1.491
  736SOL     OW 2973   4.475   2.688   1.620
  736SOL    HW2 2974   4.397   2.741   1.604
  736SOL    HW3 2975   4.471   2.619   1.555
  736SOL    MW4 2976   4.464   2.686   1.610
  737SOL     OW 2977   0.213   2.802   1.516
  737SOL    HW2 2978   0.284   2.783   1.578
  737SOL    HW3 2979   0.133   2.775   1.563
  737SOL    MW4 2980   0.212   2.796   1.531
  738SOL     OW 2981   0.229   3.061   1.643
  738SOL    HW2 2982   0.166   3.111   1.591
  738SOL    HW3 2983   0.249   2.984   1.589
  738SOL    MW4 2984   0.223   3.057   1.629
  739SOL     OW 2985   0.037   3.197   1.489
  739SOL    HW2 2986   0.032   3.281   1.534
  739SOL    HW3 2987   0.018   3.217   1.398
  739SOL    MW4 2988   0.034   3.211   1.483
  740SOL     OW 2989   4.485   3.454   1.606
  740SOL    HW2 2990   4.486   3.462   1.702
  740SOL    HW3 2991   4.407   3.503   1.579
  740SOL    MW4 2992   4.475   3.462   1.615
  741SOL     OW 2993   0.189   3.603   1.493
  741SOL    HW2 2994   0.197   3.689   1.533
  741SOL    HW3 2995   0.113   3.564   1.535
  741SOL    MW4 2996   0.180   3.609   1.504
  742SOL     OW 2997   0.201   3.860   1.605
  742SOL    HW2 2998   0.195   3.889   1.696
  742SOL    HW3 2999   0.274   3.911   1.568
  742SOL    MW4 3000   0.210   3.871   1.612
  743SOL     OW 3001   4.479   3.975   1.504
  743SOL    HW2 3002   4.486   4.069   1.523
  743SOL    HW3 3003   4.556   3.936   1.547
  743SOL    MW4 3004   4.490   3.982   1.512
  744SOL     OW 3005   4.483   4.240   1.573
  744SOL    HW2 3006   4.494   4.264   1.665
  744SOL    HW3 3007   4.410   4.293   1.542
  744SOL    MW4 3008   4.475   4.250   1.581
  745SOL     OW 3009   0.209   4.385   1.467
  745SOL    HW2 3010   0.132   4.340   1.501
  745SOL    HW3 3011   0.209   4.470   1.511
  745SOL    MW4 3012   0.199   4.390   1.478
  746SOL     OW 3013   0.668   4.632   1.595
  746SOL    HW2 3014   0.740   4.675   1.549
  746SOL    HW3 3015   0.590   4.680   1.566
  746SOL    MW4 3016   0.667   4.644   1.585
  747SOL     OW 3017   0.447   0.111   1.476
  747SOL    HW2 3018   0.440   0.205   1.491
  747SOL    HW3 3019   0.434   0.101   1.382
  747SOL    MW4 3020   0.444   0.122   1.466
  748SOL     OW 3021   0.414   0.413   1.589
  748SOL    HW2 3022   0.493   0.428   1.537
  748SOL    HW3 3023   0.348   0.470   1.550
  748SOL    MW4 3024   0.416   0.422   1.577
  749SOL     OW 3025   0.648   0.530   1.487
  749SOL    HW2 3026   0.643   0.618   1.524
  749SOL    HW3 3027   0.668   0.543   1.395
  749SOL    MW4 3028   0.650   0.543   1.480
  750SOL     OW 3029   0.668   0.775   1.604
  750SOL    HW2 3030   0.688   0.754   1.695
  750SOL    HW3 3031   0.741   0.830   1.575
  750SOL    MW4 3032   0.680   0.780   1.612
  751SOL     OW 3033   0.434   0.879   1.503
  751SOL    HW2 3034   0.439   0.972   1.527
  751SOL    HW3 3035   0.505   0.838   1.552
  751SOL    MW4 3036   0.444   0.886   1.512
  752SOL     OW 3037   0.461   1.163   1.603
  752SOL    HW2 3038   0.540   1.204   1.567
  752SOL    HW3 3039   0.389   1.221   1.575
  752SOL    MW4 3040   0.462   1.176   1.595
  753SOL     OW 3041   0.690   1.303   1.505
  753SOL    HW2 3042   0.698   1.393   1.538
  753SOL    HW3 3043   0.671   1.314   1.412
  753SOL    MW4 3044   0.688   1.316   1.497
  754SOL     OW 3045   0.679   1.585   1.609
  754SOL    HW2 3046   0.756   1.631   1.575
  754SOL    HW3 3047   0.608   1.611   1.551
  754SOL    MW4 3048   0.680   1.595   1.597
  755SOL     OW 3049   0.454   1.691   1.463
  755SOL    HW2 3050   0.468   1.777   1.503
  755SOL    HW3 3051   0.395   1.645   1.522
  755SOL    MW4 3052   0.448   1.696   1.476
  756SOL     OW 3053   0.456   1.944   1.593
  756SOL    HW2 3054   0.461   1.957   1.688
  756SOL    HW3 3055   0.377   1.990   1.566
  756SOL    MW4 3056   0.447   1.952   1.602
  757SOL     OW 3057   0.689   2.109   1.543
  757SOL    HW2 3058   0.764   2.076   1.592
  757SOL    HW3 3059   0.617   2.051   1.567
  757SOL    MW4 3060   0.690   2.097   1.553
  758SOL     OW 3061   0.708   2.373   1.617
  758SOL    HW2 3062   0.628   2.415   1.586
  758SOL    HW3 3063   0.698   2.281   1.592
  758SOL    MW4 3064   0.696   2.366   1.610
  759SOL     OW 3065   0.460   2.465   1.519
  759SOL    HW2 3066   0.454   2.553   1.557
  759SOL    HW3 3067   0.388   2.417   1.560
  759SOL    MW4 3068   0.450   2.470   1.529
  760SOL     OW 3069   0.457   2.709   1.636
  760SOL    HW2 3070   0.475   2.700   1.729
  760SOL    HW3 3071   0.535   2.753   1.600
  760SOL    MW4 3072   0.470   2.714   1.643
  761SOL     OW 3073   0.667   2.852   1.524
  761SOL    HW2 3074   0.656   2.944   1.549
  761SOL    HW3 3075   0.663   2.853   1.428
  761SOL    MW4 3076   0.665   2.864   1.514
  762SOL     OW 3077   0.659   3.105   1.626
  762SOL    HW2 3078   0.731   3.162   1.598
  762SOL    HW3 3079   0.580   3.151   1.597
  762SOL    MW4 3080   0.658   3.119   1.618
  763SOL     OW 3081   0.438   3.229   1.546
  763SOL    HW2 3082   0.359   3.192   1.585
  763SOL    HW3 3083   0.432   3.207   1.453
  763SOL    MW4 3084   0.427   3.221   1.539
  764SOL     OW 3085   0.442   3.510   1.586
  764SOL    HW2 3086   0.450   3.418   1.560
  764SOL    HW3 3087   0.353   3.534   1.561
  764SOL    MW4 3088   0.431   3.501   1.579
  765SOL     OW 3089   0.674   3.615   1.520
  765SOL    HW2 3090   0.745   3.570   1.565
  765SOL    HW3 3091   0.595   3.582   1.562
  765SOL    MW4 3092   0.673   3.605   1.532
  766SOL     OW 3093   0.655   3.885   1.591
  766SOL    HW2 3094   0.729   3.932   1.553
  766SOL    HW3 3095   0.670   3.794   1.569
  766SOL    MW4 3096   0.667   3.879   1.583
  767SOL     OW 3097   0.421   3.996   1.506
  767SOL    HW2 3098   0.502   3.951   1.533
  767SOL    HW3 3099   0.431   4.009   1.412
  767SOL    MW4 3100   0.433   3.991   1.497
  768SOL     OW 3101   0.436   4.264   1.587
  768SOL    HW2 3102   0.427   4.172   1.562
  768SOL    HW3 3103   0.362   4.307   1.544
  768SOL    MW4 3104   0.425   4.257   1.578
  769SOL     OW 3105   0.658   4.388   1.471
  769SOL    HW2 3106   0.580   4.351   1.511
  769SOL    HW3 3107   0.668   4.474   1.511
  769SOL    MW4 3108   0.649   4.394   1.482
  770SOL     OW 3109   1.060   4.653   1.602
  770SOL    HW2 3110   1.068   4.657   1.697
  770SOL    HW3 3111   1.138   4.699   1.570
  770SOL    MW4 3112   1.072   4.659   1.610
  771SOL     OW 3113   0.856   0.123   1.459
  771SOL    HW2 3114   0.857   0.209   1.502
  771SOL    HW3 3115   0.928   0.075   1.500
  771SOL    MW4 3116   0.865   0.128   1.470
  772SOL     OW 3117   0.863   0.375   1.557
  772SOL    HW2 3118   0.876   0.388   1.651
  772SOL    HW3 3119   0.784   0.424   1.536
  772SOL    MW4 3120   0.854   0.383   1.567
  773SOL     OW 3121   1.071   0.510   1.458
  773SOL    HW2 3122   1.062   0.587   1.514
  773SOL    HW3 3123   1.001   0.451   1.487
  773SOL    MW4 3124   1.060   0.512   1.469
  774SOL     OW 3125   1.066   0.723   1.622
  774SOL    HW2 3126   1.074   0.723   1.717
  774SOL    HW3 3127   1.148   0.762   1.591
  774SOL    MW4 3128   1.078   0.728   1.630
  775SOL     OW 3129   0.884   0.912   1.508
  775SOL    HW2 3130   0.960   0.859   1.532
  775SOL    HW3 3131   0.870   0.894   1.415
  775SOL    MW4 3132   0.892   0.903   1.499
  776SOL     OW 3133   0.930   1.189   1.587
  776SOL    HW2 3134   0.919   1.100   1.553
  776SOL    HW3 3135   0.844   1.230   1.573
  776SOL    MW4 3136   0.917   1.182   1.581
  777SOL     OW 3137   1.147   1.312   1.500
  777SOL    HW2 3138   1.221   1.259   1.530
  777SOL    HW3 3139   1.071   1.271   1.540
  777SOL    MW4 3140   1.147   1.300   1.509
  778SOL     OW 3141   1.123   1.581   1.609
  778SOL    HW2 3142   1.185   1.625   1.551
  778SOL    HW3 3143   1.118   1.492   1.576
  778SOL    MW4 3144   1.130   1.575   1.597
  779SOL     OW 3145   0.896   1.712   1.501
  779SOL    HW2 3146   0.983   1.678   1.523
  779SOL    HW3 3147   0.892   1.707   1.405
  779SOL    MW4 3148   0.907   1.707   1.491
  780SOL     OW 3149   0.901   1.974   1.647
  780SOL    HW2 3150   0.981   2.021   1.626
  780SOL    HW3 3151   0.895   1.906   1.580
  780SOL    MW4 3152   0.910   1.972   1.635
  781SOL     OW 3153   1.121   2.086   1.535
  781SOL    HW2 3154   1.194   2.025   1.549
  781SOL    HW3 3155   1.146   2.165   1.583
  781SOL    MW4 3156   1.134   2.088   1.543
  782SOL     OW 3157   1.189   2.356   1.661
  782SOL    HW2 3158   1.270   2.402   1.638
  782SOL    HW3 3159   1.120   2.405   1.616
  782SOL    MW4 3160   1.191   2.369   1.652
  783SOL     OW 3161   0.951   2.498   1.573
  783SOL    HW2 3162   0.925   2.589   1.584
  783SOL    HW3 3163   0.874   2.448   1.599
  783SOL    MW4 3164   0.937   2.503   1.578
  784SOL     OW 3165   0.902   2.780   1.628
  784SOL    HW2 3166   0.897   2.782   1.724
  784SOL    HW3 3167   0.815   2.806   1.598
  784SOL    MW4 3168   0.890   2.784   1.637
  785SOL     OW 3169   1.115   2.867   1.477
  785SOL    HW2 3170   1.121   2.960   1.498
  785SOL    HW3 3171   1.047   2.834   1.535
  785SOL    MW4 3172   1.107   2.875   1.487
  786SOL     OW 3173   1.113   3.135   1.569
  786SOL    HW2 3174   1.121   3.133   1.664
  786SOL    HW3 3175   1.199   3.163   1.538
  786SOL    MW4 3176   1.125   3.139   1.577
  787SOL     OW 3177   0.864   3.262   1.501
  787SOL    HW2 3178   0.944   3.215   1.524
  787SOL    HW3 3179   0.858   3.254   1.406
  787SOL    MW4 3180   0.874   3.254   1.492
  788SOL     OW 3181   0.913   3.499   1.628
  788SOL    HW2 3182   0.989   3.538   1.585
  788SOL    HW3 3183   0.903   3.413   1.587
  788SOL    MW4 3184   0.921   3.493   1.617
  789SOL     OW 3185   1.138   3.577   1.495
  789SOL    HW2 3186   1.227   3.561   1.528
  789SOL    HW3 3187   1.150   3.602   1.404
  789SOL    MW4 3188   1.152   3.578   1.488
  790SOL     OW 3189   1.144   3.856   1.597
  790SOL    HW2 3190   1.217   3.916   1.580
  790SOL    HW3 3191   1.174   3.771   1.565
  790SOL    MW4 3192   1.158   3.853   1.590
  791SOL     OW 3193   0.892   3.966   1.484
  791SOL    HW2 3194   0.895   4.054   1.523
  791SOL    HW3 3195   0.978   3.929   1.506
  791SOL    MW4 3196   0.904   3.973   1.492
  792SOL     OW 3197   0.873   4.232   1.544
  792SOL    HW2 3198   0.878   4.245   1.639
  792SOL    HW3 3199   0.794   4.279   1.517
  792SOL    MW4 3200   0.863   4.240   1.553
  793SOL     OW 3201   1.108   4.380   1.523
  793SOL    HW2 3202   1.030   4.325   1.530
  793SOL    HW3 3203   1.077   4.467   1.548
  793SOL    MW4 3204   1.093   4.384   1.527
  794SOL     OW 3205   1.544   4.633   1.595
  794SOL    HW2 3206   1.563   4.638   1.689
  794SOL    HW3 3207   1.462   4.682   1.585
  794SOL    MW4 3208   1.536   4.640   1.606
  795SOL     OW 3209   1.307   0.113   1.508
  795SOL    HW2 3210   1.282   0.203   1.527
  795SOL    HW3 3211   1.322   0.111   1.414
  795SOL    MW4 3212   1.306   0.124   1.498
  796SOL     OW 3213   1.295   0.379   1.573
  796SOL    HW2 3214   1.378   0.417   1.546
  796SOL    HW3 3215   1.229   0.433   1.529
  796SOL    MW4 3216   1.297   0.391   1.563
  797SOL     OW 3217   1.539   0.503   1.473
  797SOL    HW2 3218   1.624   0.464   1.495
  797SOL    HW3 3219   1.539   0.506   1.377
  797SOL    MW4 3220   1.550   0.498   1.463
  798SOL     OW 3221   1.547   0.784   1.550
  798SOL    HW2 3222   1.552   0.786   1.646
  798SOL    HW3 3223   1.550   0.691   1.528
  798SOL    MW4 3224   1.548   0.772   1.560
  799SOL     OW 3225   1.288   0.889   1.495
  799SOL    HW2 3226   1.370   0.854   1.529
  799SOL    HW3 3227   1.302   0.896   1.400
  799SOL    MW4 3228   1.300   0.885   1.487
  800SOL     OW 3229   1.367   1.156   1.582
  800SOL    HW2 3230   1.356   1.154   1.677
  800SOL    HW3 3231   1.343   1.068   1.553
  800SOL    MW4 3232   1.362   1.144   1.591
  801SOL     OW 3233   1.584   1.306   1.502
  801SOL    HW2 3234   1.513   1.248   1.529
  801SOL    HW3 3235   1.594   1.291   1.408
  801SOL    MW4 3236   1.576   1.297   1.493
  802SOL     OW 3237   1.594   1.596   1.590
  802SOL    HW2 3238   1.592   1.585   1.685
  802SOL    HW3 3239   1.577   1.508   1.555
  802SOL    MW4 3240   1.592   1.583   1.598
  803SOL     OW 3241   1.350   1.660   1.467
  803SOL    HW2 3242   1.436   1.646   1.507
  803SOL    HW3 3243   1.368   1.661   1.373
  803SOL    MW4 3244   1.364   1.659   1.460
  804SOL     OW 3245   1.333   1.922   1.591
  804SOL    HW2 3246   1.346   1.915   1.686
  804SOL    HW3 3247   1.345   1.833   1.559
  804SOL    MW4 3248   1.337   1.910   1.599
  805SOL     OW 3249   1.551   2.071   1.506
  805SOL    HW2 3250   1.478   2.016   1.534
  805SOL    HW3 3251   1.541   2.076   1.411
  805SOL    MW4 3252   1.540   2.064   1.497
  806SOL     OW 3253   1.504   2.344   1.605
  806SOL    HW2 3254   1.586   2.381   1.573
  806SOL    HW3 3255   1.505   2.253   1.574
  806SOL    MW4 3256   1.515   2.337   1.597
  807SOL     OW 3257   1.360   2.496   1.442
  807SOL    HW2 3258   1.349   2.577   1.492
  807SOL    HW3 3259   1.416   2.441   1.497
  807SOL    MW4 3260   1.366   2.500   1.456
  808SOL     OW 3261   1.320   2.724   1.589
  808SOL    HW2 3262   1.389   2.784   1.562
  808SOL    HW3 3263   1.238   2.769   1.566
  808SOL    MW4 3264   1.318   2.738   1.583
  809SOL     OW 3265   1.548   2.878   1.479
  809SOL    HW2 3266   1.608   2.808   1.503
  809SOL    HW3 3267   1.555   2.884   1.384
  809SOL    MW4 3268   1.557   2.870   1.470
  810SOL     OW 3269   1.577   3.118   1.625
  810SOL    HW2 3270   1.654   3.158   1.585
  810SOL    HW3 3271   1.561   3.040   1.572
  810SOL    MW4 3272   1.585   3.113   1.613
  811SOL     OW 3273   1.362   3.221   1.494
  811SOL    HW2 3274   1.364   3.310   1.527
  811SOL    HW3 3275   1.428   3.175   1.545
  811SOL    MW4 3276   1.371   3.226   1.505
  812SOL     OW 3277   1.404   3.500   1.578
  812SOL    HW2 3278   1.395   3.513   1.672
  812SOL    HW3 3279   1.491   3.533   1.557
  812SOL    MW4 3280   1.414   3.506   1.588
  813SOL     OW 3281   1.633   3.597   1.450
  813SOL    HW2 3282   1.629   3.690   1.471
  813SOL    HW3 3283   1.593   3.591   1.363
  813SOL    MW4 3284   1.627   3.608   1.441
  814SOL     OW 3285   1.596   3.870   1.550
  814SOL    HW2 3286   1.603   3.884   1.645
  814SOL    HW3 3287   1.531   3.934   1.522
  814SOL    MW4 3288   1.589   3.880   1.559
  815SOL     OW 3289   1.364   3.990   1.499
  815SOL    HW2 3290   1.359   4.082   1.527
  815SOL    HW3 3291   1.345   3.993   1.405
  815SOL    MW4 3292   1.361   4.003   1.490
  816SOL     OW 3293   1.343   4.251   1.585
  816SOL    HW2 3294   1.413   4.291   1.534
  816SOL    HW3 3295   1.269   4.310   1.576
  816SOL    MW4 3296   1.342   4.264   1.577
  817SOL     OW 3297   1.567   4.356   1.452
  817SOL    HW2 3298   1.642   4.335   1.508
  817SOL    HW3 3299   1.536   4.441   1.485
  817SOL    MW4 3300   1.573   4.365   1.464
  818SOL     OW 3301   1.985   4.604   1.609
  818SOL    HW2 3302   1.998   4.604   1.704
  818SOL    HW3 3303   1.918   4.671   1.595
  818SOL    MW4 3304   1.978   4.613   1.620
  819SOL     OW 3305   1.774   0.094   1.515
  819SOL    HW2 3306   1.689   0.057   1.538
  819SOL    HW3 3307   1.772   0.099   1.419
  819SOL    MW4 3308   1.763   0.090   1.505
  820SOL     OW 3309   1.770   0.365   1.582
  820SOL    HW2 3310   1.851   0.396   1.540
  820SOL    HW3 3311   1.762   0.275   1.553
  820SOL    MW4 3312   1.780   0.357   1.572
  821SOL     OW 3313   2.011   0.500   1.475
  821SOL    HW2 3314   2.073   0.454   1.531
  821SOL    HW3 3315   1.977   0.571   1.530
  821SOL    MW4 3316   2.014   0.503   1.490
  822SOL     OW 3317   1.971   0.733   1.594
  822SOL    HW2 3318   2.057   0.769   1.575
  822SOL    HW3 3319   1.910   0.793   1.551
  822SOL    MW4 3320   1.974   0.746   1.586
  823SOL     OW 3321   1.779   0.884   1.448
  823SOL    HW2 3322   1.788   0.972   1.486
  823SOL    HW3 3323   1.699   0.849   1.488
  823SOL    MW4 3324   1.770   0.891   1.458
  824SOL     OW 3325   1.791   1.121   1.575
  824SOL    HW2 3326   1.867   1.178   1.560
  824SOL    HW3 3327   1.716   1.173   1.547
  824SOL    MW4 3328   1.791   1.136   1.569
  825SOL     OW 3329   2.008   1.294   1.529
  825SOL    HW2 3330   2.016   1.387   1.549
  825SOL    HW3 3331   2.013   1.290   1.433
  825SOL    MW4 3332   2.010   1.306   1.519
  826SOL     OW 3333   2.012   1.568   1.598
  826SOL    HW2 3334   2.094   1.617   1.594
  826SOL    HW3 3335   1.948   1.624   1.554
  826SOL    MW4 3336   2.015   1.582   1.591
  827SOL     OW 3337   1.807   1.724   1.492
  827SOL    HW2 3338   1.725   1.682   1.519
  827SOL    HW3 3339   1.804   1.725   1.396
  827SOL    MW4 3340   1.796   1.719   1.483
  828SOL     OW 3341   1.796   1.973   1.593
  828SOL    HW2 3342   1.799   1.878   1.581
  828SOL    HW3 3343   1.710   1.998   1.560
  828SOL    MW4 3344   1.785   1.964   1.587
  829SOL     OW 3345   2.044   2.048   1.499
  829SOL    HW2 3346   2.118   2.007   1.544
  829SOL    HW3 3347   1.967   2.018   1.548
  829SOL    MW4 3348   2.043   2.038   1.512
  830SOL     OW 3349   2.032   2.316   1.576
  830SOL    HW2 3350   2.019   2.318   1.671
  830SOL    HW3 3351   2.031   2.223   1.554
  830SOL    MW4 3352   2.030   2.304   1.586
  831SOL     OW 3353   1.751   2.414   1.496
  831SOL    HW2 3354   1.836   2.372   1.508
  831SOL    HW3 3355   1.755   2.450   1.407
  831SOL    MW4 3356   1.763   2.413   1.486
  832SOL     OW 3357   1.724   2.669   1.583
  832SOL    HW2 3358   1.809   2.708   1.561
  832SOL    HW3 3359   1.736   2.576   1.568
  832SOL    MW4 3360   1.737   2.662   1.578
  833SOL     OW 3361   1.979   2.773   1.477
  833SOL    HW2 3362   1.976   2.865   1.503
  833SOL    HW3 3363   2.000   2.775   1.384
  833SOL    MW4 3364   1.981   2.786   1.468
  834SOL     OW 3365   2.042   3.046   1.559
  834SOL    HW2 3366   2.028   3.066   1.652
  834SOL    HW3 3367   2.122   3.093   1.536
  834SOL    MW4 3368   2.051   3.055   1.568
  835SOL     OW 3369   1.820   3.225   1.525
  835SOL    HW2 3370   1.857   3.313   1.535
  835SOL    HW3 3371   1.895   3.167   1.533
  835SOL    MW4 3372   1.835   3.229   1.528
  836SOL     OW 3373   1.847   3.502   1.575
  836SOL    HW2 3374   1.817   3.507   1.666
  836SOL    HW3 3375   1.771   3.528   1.523
  836SOL    MW4 3376   1.833   3.506   1.580
  837SOL     OW 3377   2.041   3.631   1.451
  837SOL    HW2 3378   2.117   3.576   1.473
  837SOL    HW3 3379   1.966   3.580   1.482
  837SOL    MW4 3380   2.041   3.617   1.458
  838SOL     OW 3381   2.038   3.876   1.580
  838SOL    HW2 3382   2.114   3.922   1.544
  838SOL    HW3 3383   2.039   3.791   1.535
  838SOL    MW4 3384   2.048   3.871   1.569
  839SOL     OW 3385   1.823   4.008   1.463
  839SOL    HW2 3386   1.891   3.963   1.514
  839SOL    HW3 3387   1.743   3.959   1.483
  839SOL    MW4 3388   1.822   3.995   1.473
  840SOL     OW 3389   1.804   4.257   1.575
  840SOL    HW2 3390   1.863   4.315   1.526
  840SOL    HW3 3391   1.827   4.169   1.545
  840SOL    MW4 3392   1.815   4.253   1.564
  841SOL     OW 3393   2.001   4.398   1.449
  841SOL    HW2 3394   2.085   4.356   1.465
  841SOL    HW3 3395   1.998   4.471   1.511
  841SOL    MW4 3396   2.011   4.402   1.460
  842SOL     OW 3397   2.453   4.658   1.558
  842SOL    HW2 3398   2.447   4.652   1.653
  842SOL    HW3 3399   2.374   4.705   1.532
  842SOL    MW4 3400   2.442   4.663   1.567
  843SOL     OW 3401   2.207   0.102   1.500
  843SOL    HW2 3402   2.161   0.027   1.535
  843SOL    HW3 3403   2.195   0.095   1.405
  843SOL    MW4 3404   2.200   0.091   1.492
  844SOL     OW 3405   2.202   0.360   1.615
  844SOL    HW2 3406   2.195   0.353   1.710
  844SOL    HW3 3407   2.202   0.270   1.584
  844SOL    MW4 3408   2.201   0.348   1.623
  845SOL     OW 3409   2.412   0.451   1.486
  845SOL    HW2 3410   2.490   0.420   1.532
  845SOL    HW3 3411   2.339   0.411   1.533
  845SOL    MW4 3412   2.413   0.441   1.498
  846SOL     OW 3413   2.454   0.704   1.557
  846SOL    HW2 3414   2.377   0.759   1.544
  846SOL    HW3 3415   2.425   0.616   1.530
  846SOL    MW4 3416   2.440   0.699   1.552
  847SOL     OW 3417   2.219   0.837   1.520
  847SOL    HW2 3418   2.223   0.928   1.547
  847SOL    HW3 3419   2.237   0.838   1.426
  847SOL    MW4 3420   2.222   0.849   1.511
  848SOL     OW 3421   2.204   1.107   1.594
  848SOL    HW2 3422   2.204   1.116   1.689
  848SOL    HW3 3423   2.141   1.173   1.563
  848SOL    MW4 3424   2.196   1.117   1.602
  849SOL     OW 3425   2.430   1.249   1.538
  849SOL    HW2 3426   2.358   1.190   1.559
  849SOL    HW3 3427   2.443   1.238   1.444
  849SOL    MW4 3428   2.422   1.240   1.528
  850SOL     OW 3429   2.477   1.507   1.652
  850SOL    HW2 3430   2.565   1.539   1.632
  850SOL    HW3 3431   2.472   1.422   1.608
  850SOL    MW4 3432   2.488   1.500   1.643
  851SOL     OW 3433   2.273   1.670   1.543
  851SOL    HW2 3434   2.345   1.619   1.580
  851SOL    HW3 3435   2.278   1.653   1.449
  851SOL    MW4 3436   2.283   1.661   1.535
  852SOL     OW 3437   2.266   1.942   1.604
  852SOL    HW2 3438   2.228   1.919   1.689
  852SOL    HW3 3439   2.289   1.858   1.564
  852SOL    MW4 3440   2.264   1.928   1.610
  853SOL     OW 3441   2.488   2.063   1.516
  853SOL    HW2 3442   2.409   2.014   1.536
  853SOL    HW3 3443   2.491   2.067   1.420
  853SOL    MW4 3444   2.478   2.057   1.506
  854SOL     OW 3445   2.460   2.307   1.640
  854SOL    HW2 3446   2.469   2.293   1.735
  854SOL    HW3 3447   2.484   2.223   1.602
  854SOL    MW4 3448   2.464   2.294   1.648
  855SOL     OW 3449   2.265   2.437   1.494
  855SOL    HW2 3450   2.337   2.385   1.531
  855SOL    HW3 3451   2.186   2.399   1.532
  855SOL    MW4 3452   2.264   2.425   1.504
  856SOL     OW 3453   2.226   2.695   1.590
  856SOL    HW2 3454   2.251   2.611   1.551
  856SOL    HW3 3455   2.138   2.711   1.556
  856SOL    MW4 3456   2.217   2.686   1.580
  857SOL     OW 3457   2.445   2.853   1.459
  857SOL    HW2 3458   2.448   2.933   1.511
  857SOL    HW3 3459   2.372   2.804   1.495
  857SOL    MW4 3460   2.436   2.857   1.471
  858SOL     OW 3461   2.489   3.117   1.586
  858SOL    HW2 3462   2.566   3.156   1.545
  858SOL    HW3 3463   2.415   3.158   1.541
  858SOL    MW4 3464   2.489   3.127   1.575
  859SOL     OW 3465   2.248   3.197   1.465
  859SOL    HW2 3466   2.244   3.292   1.474
  859SOL    HW3 3467   2.247   3.181   1.371
  859SOL    MW4 3468   2.247   3.207   1.454
  860SOL     OW 3469   2.247   3.468   1.533
  860SOL    HW2 3470   2.239   3.482   1.628
  860SOL    HW3 3471   2.324   3.518   1.508
  860SOL    MW4 3472   2.256   3.476   1.543
  861SOL     OW 3473   2.481   3.611   1.462
  861SOL    HW2 3474   2.550   3.562   1.507
  861SOL    HW3 3475   2.483   3.697   1.504
  861SOL    MW4 3476   2.491   3.616   1.474
  862SOL     OW 3477   2.489   3.863   1.555
  862SOL    HW2 3478   2.487   3.874   1.650
  862SOL    HW3 3479   2.576   3.893   1.529
  862SOL    MW4 3480   2.500   3.868   1.564
  863SOL     OW 3481   2.251   3.977   1.445
  863SOL    HW2 3482   2.333   3.929   1.461
  863SOL    HW3 3483   2.251   3.993   1.351
  863SOL    MW4 3484   2.262   3.973   1.435
  864SOL     OW 3485   2.236   4.263   1.521
  864SOL    HW2 3486   2.326   4.295   1.509
  864SOL    HW3 3487   2.241   4.170   1.498
  864SOL    MW4 3488   2.249   4.255   1.517
  865SOL     OW 3489   2.484   4.396   1.472
  865SOL    HW2 3490   2.468   4.483   1.508
  865SOL    HW3 3491   2.517   4.411   1.384
  865SOL    MW4 3492   2.486   4.409   1.465
  866SOL     OW 3493   2.891   4.643   1.582
  866SOL    HW2 3494   2.872   4.641   1.676
  866SOL    HW3 3495   2.819   4.693   1.544
  866SOL    MW4 3496   2.879   4.649   1.589
  867SOL     OW 3497   2.680   0.126   1.475
  867SOL    HW2 3498   2.682   0.212   1.517
  867SOL    HW3 3499   2.600   0.085   1.509
  867SOL    MW4 3500   2.669   0.132   1.485
  868SOL     OW 3501   2.639   0.368   1.609
  868SOL    HW2 3502   2.642   0.386   1.703
  868SOL    HW3 3503   2.718   0.412   1.575
  868SOL    MW4 3504   2.650   0.376   1.617
  869SOL     OW 3505   2.882   0.499   1.522
  869SOL    HW2 3506   2.883   0.591   1.548
  869SOL    HW3 3507   2.922   0.498   1.435
  869SOL    MW4 3508   2.887   0.511   1.514
  870SOL     OW 3509   2.933   0.765   1.584
  870SOL    HW2 3510   2.944   0.744   1.677
  870SOL    HW3 3511   2.858   0.824   1.582
  870SOL    MW4 3512   2.925   0.770   1.596
  871SOL     OW 3513   2.668   0.879   1.502
  871SOL    HW2 3514   2.590   0.830   1.527
  871SOL    HW3 3515   2.658   0.896   1.409
  871SOL    MW4 3516   2.656   0.875   1.493
  872SOL     OW 3517   2.669   1.133   1.616
  872SOL    HW2 3518   2.670   1.046   1.577
  872SOL    HW3 3519   2.591   1.174   1.581
  872SOL    MW4 3520   2.659   1.127   1.606
  873SOL     OW 3521   2.878   1.273   1.507
  873SOL    HW2 3522   2.952   1.224   1.541
  873SOL    HW3 3523   2.801   1.234   1.549
  873SOL    MW4 3524   2.877   1.262   1.517
  874SOL     OW 3525   2.929   1.548   1.587
  874SOL    HW2 3526   2.845   1.592   1.574
  874SOL    HW3 3527   2.913   1.457   1.560
  874SOL    MW4 3528   2.916   1.542   1.581
  875SOL     OW 3529   2.676   1.663   1.545
  875SOL    HW2 3530   2.687   1.757   1.559
  875SOL    HW3 3531   2.652   1.655   1.453
  875SOL    MW4 3532   2.674   1.675   1.535
  876SOL     OW 3533   2.722   1.931   1.604
  876SOL    HW2 3534   2.724   1.932   1.700
  876SOL    HW3 3535   2.652   1.992   1.582
  876SOL    MW4 3536   2.713   1.939   1.614
  877SOL     OW 3537   2.930   2.079   1.511
  877SOL    HW2 3538   2.906   2.163   1.550
  877SOL    HW3 3539   2.859   2.020   1.536
  877SOL    MW4 3540   2.918   2.082   1.520
  878SOL     OW 3541   2.884   2.333   1.594
  878SOL    HW2 3542   2.881   2.346   1.689
  878SOL    HW3 3543   2.803   2.372   1.562
  878SOL    MW4 3544   2.873   2.339   1.603
  879SOL     OW 3545   2.654   2.458   1.499
  879SOL    HW2 3546   2.652   2.548   1.530
  879SOL    HW3 3547   2.590   2.411   1.552
  879SOL    MW4 3548   2.645   2.463   1.510
  880SOL     OW 3549   2.638   2.716   1.592
  880SOL    HW2 3550   2.719   2.756   1.559
  880SOL    HW3 3551   2.568   2.771   1.555
  880SOL    MW4 3552   2.640   2.729   1.583
  881SOL     OW 3553   2.872   2.835   1.484
  881SOL    HW2 3554   2.945   2.782   1.517
  881SOL    HW3 3555   2.877   2.916   1.535
  881SOL    MW4 3556   2.882   2.839   1.495
  882SOL     OW 3557   2.911   3.071   1.608
  882SOL    HW2 3558   2.928   3.051   1.700
  882SOL    HW3 3559   2.985   3.124   1.581
  882SOL    MW4 3560   2.923   3.075   1.617
  883SOL     OW 3561   2.733   3.228   1.479
  883SOL    HW2 3562   2.799   3.177   1.525
  883SOL    HW3 3563   2.751   3.213   1.386
  883SOL    MW4 3564   2.744   3.220   1.473
  884SOL     OW 3565   2.715   3.488   1.568
  884SOL    HW2 3566   2.750   3.483   1.658
  884SOL    HW3 3567   2.713   3.397   1.539
  884SOL    MW4 3568   2.719   3.475   1.576
  885SOL     OW 3569   2.945   3.629   1.488
  885SOL    HW2 3570   2.867   3.579   1.513
  885SOL    HW3 3571   2.948   3.622   1.393
  885SOL    MW4 3572   2.935   3.621   1.479
  886SOL     OW 3573   2.904   3.870   1.602
  886SOL    HW2 3574   2.826   3.898   1.554
  886SOL    HW3 3575   2.928   3.786   1.561
  886SOL    MW4 3576   2.897   3.862   1.590
  887SOL     OW 3577   2.702   4.006   1.460
  887SOL    HW2 3578   2.720   4.091   1.500
  887SOL    HW3 3579   2.679   4.026   1.370
  887SOL    MW4 3580   2.701   4.020   1.454
  888SOL     OW 3581   2.709   4.257   1.580
  888SOL    HW2 3582   2.780   4.314   1.552
  888SOL    HW3 3583   2.629   4.306   1.561
  888SOL    MW4 3584   2.708   4.271   1.574
  889SOL     OW 3585   2.952   4.393   1.476
  889SOL    HW2 3586   2.924   4.482   1.499
  889SOL    HW3 3587   2.934   4.386   1.382
  889SOL    MW4 3588   2.946   4.404   1.466
  890SOL     OW 3589   3.341   4.626   1.595
  890SOL    HW2 3590   3.417   4.681   1.577
  890SOL    HW3 3591   3.364   4.540   1.560
  890SOL    MW4 3592   3.354   4.622   1.588
  891SOL     OW 3593   3.126   0.118   1.527
  891SOL    HW2 3594   3.200   0.069   1.563
  891SOL    HW3 3595   3.049   0.066   1.552
  891SOL    MW4 3596   3.126   0.105   1.535
  892SOL     OW 3597   3.156   0.386   1.611
  892SOL    HW2 3598   3.149   0.298   1.573
  892SOL    HW3 3599   3.068   0.423   1.600
  892SOL    MW4 3600   3.143   0.379   1.605
  893SOL     OW 3601   3.372   0.533   1.497
  893SOL    HW2 3602   3.298   0.479   1.525
  893SOL    HW3 3603   3.369   0.531   1.402
  893SOL    MW4 3604   3.362   0.526   1.488
  894SOL     OW 3605   3.328   0.804   1.575
  894SOL    HW2 3606   3.336   0.796   1.670
  894SOL    HW3 3607   3.345   0.715   1.542
  894SOL    MW4 3608   3.331   0.791   1.583
  895SOL     OW 3609   3.124   0.940   1.468
  895SOL    HW2 3610   3.197   0.898   1.514
  895SOL    HW3 3611   3.048   0.885   1.488
  895SOL    MW4 3612   3.124   0.927   1.477
  896SOL     OW 3613   3.139   1.186   1.611
  896SOL    HW2 3614   3.137   1.170   1.705
  896SOL    HW3 3615   3.135   1.099   1.572
  896SOL    MW4 3616   3.138   1.172   1.618
  897SOL     OW 3617   3.356   1.277   1.461
  897SOL    HW2 3618   3.441   1.246   1.493
  897SOL    HW3 3619   3.292   1.237   1.520
  897SOL    MW4 3620   3.359   1.267   1.473
  898SOL     OW 3621   3.351   1.539   1.584
  898SOL    HW2 3622   3.346   1.532   1.679
  898SOL    HW3 3623   3.332   1.451   1.552
  898SOL    MW4 3624   3.348   1.527   1.592
  899SOL     OW 3625   3.145   1.690   1.511
  899SOL    HW2 3626   3.218   1.640   1.548
  899SOL    HW3 3627   3.067   1.639   1.535
  899SOL    MW4 3628   3.144   1.676   1.519
  900SOL     OW 3629   3.149   1.941   1.619
  900SOL    HW2 3630   3.136   1.850   1.591
  900SOL    HW3 3631   3.077   1.988   1.577
  900SOL    MW4 3632   3.137   1.935   1.609
  901SOL     OW 3633   3.406   2.036   1.524
  901SOL    HW2 3634   3.325   1.992   1.549
  901SOL    HW3 3635   3.409   2.028   1.429
  901SOL    MW4 3636   3.396   2.029   1.515
  902SOL     OW 3637   3.360   2.295   1.585
  902SOL    HW2 3638   3.418   2.353   1.536
  902SOL    HW3 3639   3.378   2.207   1.551
  902SOL    MW4 3640   3.370   2.291   1.574
  903SOL     OW 3641   3.124   2.413   1.462
  903SOL    HW2 3642   3.203   2.380   1.505
  903SOL    HW3 3643   3.053   2.363   1.502
  903SOL    MW4 3644   3.125   2.402   1.473
  904SOL     OW 3645   3.091   2.696   1.581
  904SOL    HW2 3646   3.170   2.745   1.558
  904SOL    HW3 3647   3.106   2.608   1.545
  904SOL    MW4 3648   3.103   2.691   1.573
  905SOL     OW 3649   3.334   2.815   1.518
  905SOL    HW2 3650   3.335   2.908   1.541
  905SOL    HW3 3651   3.345   2.813   1.423
  905SOL    MW4 3652   3.336   2.827   1.509
  906SOL     OW 3653   3.359   3.087   1.587
  906SOL    HW2 3654   3.388   3.084   1.678
  906SOL    HW3 3655   3.414   3.155   1.547
  906SOL    MW4 3656   3.370   3.096   1.593
  907SOL     OW 3657   3.143   3.196   1.497
  907SOL    HW2 3658   3.222   3.151   1.527
  907SOL    HW3 3659   3.149   3.195   1.401
  907SOL    MW4 3660   3.154   3.190   1.488
  908SOL     OW 3661   3.153   3.466   1.564
  908SOL    HW2 3662   3.140   3.374   1.541
  908SOL    HW3 3663   3.071   3.509   1.539
  908SOL    MW4 3664   3.141   3.460   1.557
  909SOL     OW 3665   3.367   3.645   1.489
  909SOL    HW2 3666   3.442   3.607   1.534
  909SOL    HW3 3667   3.291   3.598   1.524
  909SOL    MW4 3668   3.367   3.634   1.499
  910SOL     OW 3669   3.351   3.897   1.567
  910SOL    HW2 3670   3.275   3.935   1.524
  910SOL    HW3 3671   3.347   3.804   1.546
  910SOL    MW4 3672   3.341   3.890   1.559
  911SOL     OW 3673   3.112   4.014   1.486
  911SOL    HW2 3674   3.116   4.091   1.543
  911SOL    HW3 3675   3.034   3.967   1.514
  911SOL    MW4 3676   3.102   4.018   1.497
  912SOL     OW 3677   3.165   4.275   1.602
  912SOL    HW2 3678   3.168   4.292   1.696
  912SOL    HW3 3679   3.094   4.330   1.570
  912SOL    MW4 3680   3.156   4.284   1.610
  913SOL     OW 3681   3.378   4.367   1.474
  913SOL    HW2 3682   3.303   4.328   1.518
  913SOL    HW3 3683   3.360   4.355   1.381
  913SOL    MW4 3684   3.366   4.360   1.468
  914SOL     OW 3685   3.833   4.639   1.582
  914SOL    HW2 3686   3.838   4.661   1.675
  914SOL    HW3 3687   3.904   4.691   1.541
  914SOL    MW4 3688   3.843   4.649   1.588
  915SOL     OW 3689   3.581   0.090   1.518
  915SOL    HW2 3690   3.661   0.041   1.536
  915SOL    HW3 3691   3.576   0.094   1.422
  915SOL    MW4 3692   3.591   0.084   1.507
  916SOL     OW 3693   3.570   0.373   1.611
  916SOL    HW2 3694   3.548   0.281   1.592
  916SOL    HW3 3695   3.498   0.423   1.573
  916SOL    MW4 3696   3.557   0.367   1.604
  917SOL     OW 3697   3.805   0.467   1.511
  917SOL    HW2 3698   3.720   0.431   1.534
  917SOL    HW3 3699   3.801   0.480   1.416
  917SOL    MW4 3700   3.793   0.464   1.501
  918SOL     OW 3701   3.810   0.748   1.588
  918SOL    HW2 3702   3.728   0.784   1.555
  918SOL    HW3 3703   3.801   0.653   1.579
  918SOL    MW4 3704   3.798   0.740   1.583
  919SOL     OW 3705   3.595   0.886   1.487
  919SOL    HW2 3706   3.513   0.855   1.525
  919SOL    HW3 3707   3.592   0.859   1.396
  919SOL    MW4 3708   3.584   0.879   1.480
  920SOL     OW 3709   3.601   1.170   1.536
  920SOL    HW2 3710   3.688   1.210   1.540
  920SOL    HW3 3711   3.618   1.077   1.525
  920SOL    MW4 3712   3.615   1.163   1.535
  921SOL     OW 3713   3.849   1.315   1.482
  921SOL    HW2 3714   3.920   1.267   1.525
  921SOL    HW3 3715   3.847   1.400   1.527
  921SOL    MW4 3716   3.858   1.320   1.494
  922SOL     OW 3717   3.843   1.585   1.600
  922SOL    HW2 3718   3.824   1.596   1.693
  922SOL    HW3 3719   3.759   1.601   1.557
  922SOL    MW4 3720   3.829   1.589   1.607
  923SOL     OW 3721   3.607   1.643   1.462
  923SOL    HW2 3722   3.524   1.610   1.496
  923SOL    HW3 3723   3.600   1.634   1.367
  923SOL    MW4 3724   3.595   1.638   1.454
  924SOL     OW 3725   3.625   1.916   1.608
  924SOL    HW2 3726   3.636   1.829   1.570
  924SOL    HW3 3727   3.545   1.949   1.569
  924SOL    MW4 3728   3.616   1.909   1.598
  925SOL     OW 3729   3.820   2.092   1.496
  925SOL    HW2 3730   3.810   2.182   1.527
  925SOL    HW3 3731   3.752   2.043   1.543
  925SOL    MW4 3732   3.810   2.097   1.507
  926SOL     OW 3733   3.772   2.348   1.580
  926SOL    HW2 3734   3.778   2.346   1.675
  926SOL    HW3 3735   3.852   2.392   1.551
  926SOL    MW4 3736   3.783   2.354   1.588
  927SOL     OW 3737   3.541   2.454   1.467
  927SOL    HW2 3738   3.523   2.538   1.509
  927SOL    HW3 3739   3.612   2.415   1.517
  927SOL    MW4 3740   3.548   2.460   1.479
  928SOL     OW 3741   3.567   2.701   1.607
  928SOL    HW2 3742   3.565   2.697   1.702
  928SOL    HW3 3743   3.489   2.753   1.584
  928SOL    MW4 3744   3.556   2.708   1.616
  929SOL     OW 3745   3.773   2.844   1.500
  929SOL    HW2 3746   3.850   2.788   1.513
  929SOL    HW3 3747   3.703   2.798   1.546
  929SOL    MW4 3748   3.774   2.830   1.508
  930SOL     OW 3749   3.755   3.121   1.601
  930SOL    HW2 3750   3.842   3.158   1.584
  930SOL    HW3 3751   3.752   3.041   1.549
  930SOL    MW4 3752   3.766   3.116   1.592
  931SOL     OW 3753   3.541   3.252   1.479
  931SOL    HW2 3754   3.610   3.213   1.533
  931SOL    HW3 3755   3.581   3.263   1.393
  931SOL    MW4 3756   3.555   3.249   1.475
  932SOL     OW 3757   3.565   3.487   1.612
  932SOL    HW2 3758   3.644   3.529   1.578
  932SOL    HW3 3759   3.556   3.407   1.561
  932SOL    MW4 3760   3.574   3.482   1.601
  933SOL     OW 3761   3.809   3.626   1.500
  933SOL    HW2 3762   3.891   3.580   1.518
  933SOL    HW3 3763   3.824   3.715   1.533
  933SOL    MW4 3764   3.821   3.632   1.507
  934SOL     OW 3765   3.825   3.868   1.607
  934SOL    HW2 3766   3.894   3.924   1.572
  934SOL    HW3 3767   3.744   3.906   1.572
  934SOL    MW4 3768   3.823   3.881   1.598
  935SOL     OW 3769   3.591   3.981   1.463
  935SOL    HW2 3770   3.604   4.070   1.493
  935SOL    HW3 3771   3.505   3.957   1.496
  935SOL    MW4 3772   3.581   3.989   1.472
  936SOL     OW 3773   3.611   4.226   1.571
  936SOL    HW2 3774   3.611   4.223   1.667
  936SOL    HW3 3775   3.530   4.271   1.549
  936SOL    MW4 3776   3.600   4.231   1.581
  937SOL     OW 3777   3.832   4.377   1.463
  937SOL    HW2 3778   3.758   4.337   1.508
  937SOL    HW3 3779   3.840   4.464   1.502
  937SOL    MW4 3780   3.824   4.383   1.474
  938SOL     OW 3781   4.281   4.654   1.573
  938SOL    HW2 3782   4.272   4.635   1.666
  938SOL    HW3 3783   4.279   4.568   1.531
  938SOL    MW4 3784   4.279   4.640   1.579
  939SOL     OW 3785   4.035   0.112   1.474
  939SOL    HW2 3786   4.036   0.203   1.504
  939SOL    HW3 3787   4.103   0.069   1.526
  939SOL    MW4 3788   4.044   0.118   1.485
  940SOL     OW 3789   4.049   0.371   1.567
  940SOL    HW2 3790   4.051   0.383   1.661
  940SOL    HW3 3791   3.962   0.401   1.540
  940SOL    MW4 3792   4.038   0.377   1.576
  941SOL     OW 3793   4.290   0.513   1.496
  941SOL    HW2 3794   4.221   0.454   1.526
  941SOL    HW3 3795   4.371   0.476   1.531
  941SOL    MW4 3796   4.292   0.500   1.505
  942SOL     OW 3797   4.274   0.749   1.597
  942SOL    HW2 3798   4.278   0.665   1.551
  942SOL    HW3 3799   4.340   0.803   1.553
  942SOL    MW4 3800   4.283   0.745   1.585
  943SOL     OW 3801   4.049   0.885   1.547
  943SOL    HW2 3802   4.114   0.823   1.579
  943SOL    HW3 3803   3.966   0.836   1.550
  943SOL    MW4 3804   4.046   0.870   1.552
  944SOL     OW 3805   4.039   1.155   1.570
  944SOL    HW2 3806   4.026   1.150   1.665
  944SOL    HW3 3807   4.046   1.064   1.542
  944SOL    MW4 3808   4.038   1.142   1.579
  945SOL     OW 3809   4.274   1.279   1.512
  945SOL    HW2 3810   4.197   1.232   1.543
  945SOL    HW3 3811   4.345   1.247   1.568
  945SOL    MW4 3812   4.273   1.269   1.524
  946SOL     OW 3813   4.293   1.543   1.602
  946SOL    HW2 3814   4.286   1.457   1.560
  946SOL    HW3 3815   4.376   1.578   1.572
  946SOL    MW4 3816   4.303   1.536   1.593
  947SOL     OW 3817   4.090   1.714   1.509
  947SOL    HW2 3818   4.174   1.672   1.528
  947SOL    HW3 3819   4.025   1.656   1.549
  947SOL    MW4 3820   4.092   1.701   1.517
  948SOL     OW 3821   4.078   1.973   1.627
  948SOL    HW2 3822   4.090   1.887   1.587
  948SOL    HW3 3823   3.994   2.004   1.592
  948SOL    MW4 3824   4.069   1.966   1.617
  949SOL     OW 3825   4.289   2.045   1.499
  949SOL    HW2 3826   4.212   2.025   1.552
  949SOL    HW3 3827   4.260   2.033   1.409
  949SOL    MW4 3828   4.275   2.041   1.494
  950SOL     OW 3829   4.266   2.319   1.588
  950SOL    HW2 3830   4.272   2.298   1.681
  950SOL    HW3 3831   4.279   2.235   1.544
  950SOL    MW4 3832   4.268   2.305   1.595
  951SOL     OW 3833   4.046   2.437   1.490
  951SOL    HW2 3834   4.060   2.532   1.500
  951SOL    HW3 3835   4.123   2.398   1.532
  951SOL    MW4 3836   4.058   2.445   1.497
  952SOL     OW 3837   3.999   2.697   1.585
  952SOL    HW2 3838   4.008   2.679   1.678
  952SOL    HW3 3839   4.072   2.755   1.564
  952SOL    MW4 3840   4.010   2.702   1.594
  953SOL     OW 3841   4.239   2.837   1.529
  953SOL    HW2 3842   4.241   2.929   1.553
  953SOL    HW3 3843   4.234   2.837   1.433
  953SOL    MW4 3844   4.238   2.849   1.519
  954SOL     OW 3845   4.277   3.102   1.597
  954SOL    HW2 3846   4.288   3.123   1.690
  954SOL    HW3 3847   4.360   3.128   1.557
  954SOL    MW4 3848   4.290   3.108   1.604
  955SOL     OW 3849   4.014   3.219   1.550
  955SOL    HW2 3850   4.046   3.309   1.561
  955SOL    HW3 3851   4.081   3.166   1.594
  955SOL    MW4 3852   4.027   3.224   1.557
  956SOL     OW 3853   4.058   3.498   1.588
  956SOL    HW2 3854   4.065   3.511   1.683
  956SOL    HW3 3855   4.132   3.546   1.552
  956SOL    MW4 3856   4.069   3.506   1.596
  957SOL     OW 3857   4.306   3.633   1.474
  957SOL    HW2 3858   4.295   3.718   1.517
  957SOL    HW3 3859   4.291   3.650   1.382
  957SOL    MW4 3860   4.303   3.646   1.468
  958SOL     OW 3861   4.249   3.875   1.611
  958SOL    HW2 3862   4.174   3.907   1.560
  958SOL    HW3 3863   4.325   3.918   1.572
  958SOL    MW4 3864   4.249   3.885   1.599
  959SOL     OW 3865   4.051   4.010   1.475
  959SOL    HW2 3866   4.067   4.098   1.508
  959SOL    HW3 3867   4.016   4.024   1.387
  959SOL    MW4 3868   4.048   4.023   1.467
  960SOL     OW 3869   4.064   4.272   1.563
  960SOL    HW2 3870   4.068   4.276   1.659
  960SOL    HW3 3871   3.979   4.310   1.541
  960SOL    MW4 3872   4.053   4.277   1.573
  961SOL     OW 3873   4.280   4.396   1.464
  961SOL    HW2 3874   4.200   4.354   1.495
  961SOL    HW3 3875   4.281   4.379   1.370
  961SOL    MW4 3876   4.269   4.388   1.456
  962SOL     OW 3877   0.220   0.009   1.889
  962SOL    HW2 3878   0.302   0.036   1.931
  962SOL    HW3 3879   0.247  -0.024   1.803
  962SOL    MW4 3880   0.234   0.008   1.883
  963SOL     OW 3881   4.463   0.101   1.999
  963SOL    HW2 3882   4.447   0.192   1.974
  963SOL    HW3 3883   4.556   0.086   1.980
  963SOL    MW4 3884   4.474   0.111   1.993
  964SOL     OW 3885   4.447   0.361   1.880
  964SOL    HW2 3886   4.381   0.421   1.917
  964SOL    HW3 3887   4.530   0.388   1.920
  964SOL    MW4 3888   4.449   0.372   1.890
  965SOL     OW 3889   0.182   0.467   2.000
  965SOL    HW2 3890   0.256   0.419   1.963
  965SOL    HW3 3891   0.191   0.556   1.963
  965SOL    MW4 3892   0.193   0.473   1.990
  966SOL     OW 3893   0.192   0.724   1.881
  966SOL    HW2 3894   0.264   0.784   1.901
  966SOL    HW3 3895   0.181   0.730   1.786
  966SOL    MW4 3896   0.200   0.732   1.871
  967SOL     OW 3897   0.001   0.909   1.944
  967SOL    HW2 3898  -0.083   0.872   1.916
  967SOL    HW3 3899   0.066   0.845   1.915
  967SOL    MW4 3900  -0.002   0.896   1.936
  968SOL     OW 3901   0.031   1.160   1.866
  968SOL    HW2 3902  -0.055   1.194   1.890
  968SOL    HW3 3903   0.030   1.068   1.893
  968SOL    MW4 3904   0.020   1.152   1.872
  969SOL     OW 3905   0.240   1.298   1.976
  969SOL    HW2 3906   0.223   1.384   1.937
  969SOL    HW3 3907   0.167   1.243   1.947
  969SOL    MW4 3908   0.228   1.302   1.967
  970SOL     OW 3909   0.224   1.573   1.867
  970SOL    HW2 3910   0.306   1.601   1.907
  970SOL    HW3 3911   0.157   1.627   1.910
  970SOL    MW4 3912   0.226   1.584   1.878
  971SOL     OW 3913   0.004   1.690   1.993
  971SOL    HW2 3914  -0.007   1.671   2.086
  971SOL    HW3 3915  -0.067   1.641   1.950
  971SOL    MW4 3916  -0.007   1.681   2.000
  972SOL     OW 3917   0.052   1.943   1.889
  972SOL    HW2 3918  -0.031   1.983   1.917
  972SOL    HW3 3919   0.042   1.850   1.913
  972SOL    MW4 3920   0.040   1.936   1.896
  973SOL     OW 3921   0.261   2.080   2.008
  973SOL    HW2 3922   0.249   2.164   1.963
  973SOL    HW3 3923   0.191   2.025   1.976
  973SOL    MW4 3924   0.250   2.084   1.998
  974SOL     OW 3925   0.205   2.306   1.859
  974SOL    HW2 3926   0.270   2.365   1.898
  974SOL    HW3 3927   0.123   2.328   1.902
  974SOL    MW4 3928   0.203   2.317   1.870
  975SOL     OW 3929   4.465   2.409   1.975
  975SOL    HW2 3930   4.468   2.415   2.070
  975SOL    HW3 3931   4.477   2.499   1.945
  975SOL    MW4 3932   4.467   2.421   1.984
  976SOL     OW 3933   4.481   2.668   1.895
  976SOL    HW2 3934   4.411   2.727   1.922
  976SOL    HW3 3935   4.488   2.681   1.800
  976SOL    MW4 3936   4.473   2.677   1.886
  977SOL     OW 3937   0.227   2.823   1.995
  977SOL    HW2 3938   0.222   2.915   1.967
  977SOL    HW3 3939   0.149   2.783   1.956
  977SOL    MW4 3940   0.216   2.830   1.986
  978SOL     OW 3941   0.204   3.097   1.910
  978SOL    HW2 3942   0.274   3.153   1.943
  978SOL    HW3 3943   0.218   3.095   1.815
  978SOL    MW4 3944   0.215   3.104   1.902
  979SOL     OW 3945   0.009   3.241   2.024
  979SOL    HW2 3946  -0.075   3.206   1.991
  979SOL    HW3 3947   0.076   3.189   1.979
  979SOL    MW4 3948   0.006   3.230   2.014
  980SOL     OW 3949   0.019   3.488   1.888
  980SOL    HW2 3950   0.088   3.539   1.931
  980SOL    HW3 3951   0.019   3.404   1.934
  980SOL    MW4 3952   0.028   3.484   1.899
  981SOL     OW 3953   0.229   3.623   1.992
  981SOL    HW2 3954   0.228   3.623   2.087
  981SOL    HW3 3955   0.297   3.560   1.968
  981SOL    MW4 3956   0.238   3.615   2.001
  982SOL     OW 3957   0.219   3.886   1.906
  982SOL    HW2 3958   0.302   3.923   1.934
  982SOL    HW3 3959   0.222   3.795   1.936
  982SOL    MW4 3960   0.230   3.879   1.913
  983SOL     OW 3961   4.459   4.013   1.959
  983SOL    HW2 3962   4.468   4.100   1.921
  983SOL    HW3 3963   4.549   3.981   1.968
  983SOL    MW4 3964   4.472   4.020   1.955
  984SOL     OW 3965   4.486   4.269   1.850
  984SOL    HW2 3966   4.404   4.304   1.884
  984SOL    HW3 3967   4.554   4.315   1.900
  984SOL    MW4 3968   4.484   4.280   1.861
  985SOL     OW 3969   0.195   4.414   1.993
  985SOL    HW2 3970   0.181   4.425   2.087
  985SOL    HW3 3971   0.194   4.503   1.958
  985SOL    MW4 3972   0.193   4.427   2.001
  986SOL     OW 3973   0.645   4.650   1.870
  986SOL    HW2 3974   0.647   4.559   1.900
  986SOL    HW3 3975   0.660   4.645   1.776
  986SOL    MW4 3976   0.647   4.637   1.862
  987SOL     OW 3977   0.452   0.122   1.997
  987SOL    HW2 3978   0.434   0.207   1.957
  987SOL    HW3 3979   0.529   0.090   1.950
  987SOL    MW4 3980   0.460   0.129   1.985
  988SOL     OW 3981   0.422   0.410   1.879
  988SOL    HW2 3982   0.513   0.418   1.907
  988SOL    HW3 3983   0.427   0.411   1.783
  988SOL    MW4 3984   0.435   0.411   1.870
  989SOL     OW 3985   0.672   0.459   1.981
  989SOL    HW2 3986   0.680   0.477   2.075
  989SOL    HW3 3987   0.739   0.393   1.964
  989SOL    MW4 3988   0.682   0.452   1.991
  990SOL     OW 3989   0.668   0.746   1.884
  990SOL    HW2 3990   0.749   0.783   1.919
  990SOL    HW3 3991   0.664   0.657   1.921
  990SOL    MW4 3992   0.678   0.739   1.893
  991SOL     OW 3993   0.433   0.861   1.956
  991SOL    HW2 3994   0.460   0.953   1.960
  991SOL    HW3 3995   0.511   0.815   1.926
  991SOL    MW4 3996   0.447   0.867   1.953
  992SOL     OW 3997   0.448   1.141   1.883
  992SOL    HW2 3998   0.387   1.207   1.914
  992SOL    HW3 3999   0.441   1.145   1.787
  992SOL    MW4 4000   0.439   1.150   1.874
  993SOL     OW 4001   0.683   1.236   1.956
  993SOL    HW2 4002   0.664   1.243   2.050
  993SOL    HW3 4003   0.601   1.205   1.918
  993SOL    MW4 4004   0.669   1.233   1.964
  994SOL     OW 4005   0.695   1.519   1.880
  994SOL    HW2 4006   0.708   1.424   1.888
  994SOL    HW3 4007   0.669   1.532   1.788
  994SOL    MW4 4008   0.693   1.508   1.869
  995SOL     OW 4009   0.468   1.674   1.967
  995SOL    HW2 4010   0.457   1.673   2.063
  995SOL    HW3 4011   0.545   1.619   1.952
  995SOL    MW4 4012   0.477   1.667   1.978
  996SOL     OW 4013   0.497   1.931   1.887
  996SOL    HW2 4014   0.482   1.839   1.910
  996SOL    HW3 4015   0.438   1.980   1.945
  996SOL    MW4 4016   0.487   1.925   1.897
  997SOL     OW 4017   0.682   2.100   1.999
  997SOL    HW2 4018   0.652   2.091   2.090
  997SOL    HW3 4019   0.625   2.042   1.949
  997SOL    MW4 4020   0.671   2.091   2.004
  998SOL     OW 4021   0.690   2.357   1.912
  998SOL    HW2 4022   0.684   2.268   1.945
  998SOL    HW3 4023   0.698   2.348   1.817
  998SOL    MW4 4024   0.690   2.344   1.904
  999SOL     OW 4025   0.432   2.412   1.974
  999SOL    HW2 4026   0.435   2.428   2.068
  999SOL    HW3 4027   0.524   2.395   1.950
  999SOL    MW4 4028   0.445   2.412   1.983
 1000SOL     OW 4029   0.457   2.674   1.913
 1000SOL    HW2 4030   0.425   2.585   1.927
 1000SOL    HW3 4031   0.379   2.729   1.915
 1000SOL    MW4 4032   0.443   2.670   1.915
 1001SOL     OW 4033   0.685   2.819   2.020
 1001SOL    HW2 4034   0.685   2.818   2.115
 1001SOL    HW3 4035   0.607   2.770   1.995
 1001SOL    MW4 4036   0.675   2.812   2.029
 1002SOL     OW 4037   0.646   3.068   1.908
 1002SOL    HW2 4038   0.671   2.984   1.947
 1002SOL    HW3 4039   0.663   3.056   1.814
 1002SOL    MW4 4040   0.652   3.055   1.900
 1003SOL     OW 4041   0.432   3.249   1.974
 1003SOL    HW2 4042   0.445   3.335   1.933
 1003SOL    HW3 4043   0.512   3.201   1.953
 1003SOL    MW4 4044   0.444   3.254   1.965
 1004SOL     OW 4045   0.445   3.496   1.856
 1004SOL    HW2 4046   0.528   3.540   1.869
 1004SOL    HW3 4047   0.430   3.499   1.761
 1004SOL    MW4 4048   0.454   3.502   1.845
 1005SOL     OW 4049   0.664   3.618   1.979
 1005SOL    HW2 4050   0.745   3.572   1.957
 1005SOL    HW3 4051   0.668   3.700   1.931
 1005SOL    MW4 4052   0.675   3.622   1.970
 1006SOL     OW 4053   0.664   3.874   1.870
 1006SOL    HW2 4054   0.747   3.917   1.889
 1006SOL    HW3 4055   0.651   3.887   1.776
 1006SOL    MW4 4056   0.673   3.882   1.860
 1007SOL     OW 4057   0.451   4.001   1.986
 1007SOL    HW2 4058   0.451   4.085   1.939
 1007SOL    HW3 4059   0.518   3.949   1.941
 1007SOL    MW4 4060   0.460   4.005   1.974
 1008SOL     OW 4061   0.434   4.268   1.882
 1008SOL    HW2 4062   0.348   4.300   1.911
 1008SOL    HW3 4063   0.432   4.278   1.787
 1008SOL    MW4 4064   0.422   4.274   1.874
 1009SOL     OW 4065   0.678   4.380   1.958
 1009SOL    HW2 4066   0.748   4.328   1.921
 1009SOL    HW3 4067   0.597   4.338   1.928
 1009SOL    MW4 4068   0.676   4.368   1.949
 1010SOL     OW 4069   1.098   4.656   1.886
 1010SOL    HW2 4070   1.182   4.693   1.914
 1010SOL    HW3 4071   1.108   4.562   1.897
 1010SOL    MW4 4072   1.111   4.649   1.891
 1011SOL     OW 4073   0.870   0.110   2.007
 1011SOL    HW2 4074   0.947   0.066   1.972
 1011SOL    HW3 4075   0.797   0.074   1.957
 1011SOL    MW4 4076   0.870   0.099   1.996
 1012SOL     OW 4077   0.911   0.339   1.855
 1012SOL    HW2 4078   0.979   0.386   1.902
 1012SOL    HW3 4079   0.890   0.264   1.911
 1012SOL    MW4 4080   0.917   0.335   1.868
 1013SOL     OW 4081   1.108   0.477   1.988
 1013SOL    HW2 4082   1.191   0.448   1.950
 1013SOL    HW3 4083   1.090   0.562   1.947
 1013SOL    MW4 4084   1.117   0.484   1.978
 1014SOL     OW 4085   1.107   0.743   1.893
 1014SOL    HW2 4086   1.190   0.787   1.912
 1014SOL    HW3 4087   1.040   0.806   1.920
 1014SOL    MW4 4088   1.109   0.757   1.899
 1015SOL     OW 4089   0.895   0.891   1.969
 1015SOL    HW2 4090   0.892   0.900   2.065
 1015SOL    HW3 4091   0.884   0.980   1.937
 1015SOL    MW4 4092   0.893   0.904   1.978
 1016SOL     OW 4093   0.919   1.158   1.870
 1016SOL    HW2 4094   0.835   1.198   1.892
 1016SOL    HW3 4095   0.930   1.177   1.776
 1016SOL    MW4 4096   0.909   1.166   1.860
 1017SOL     OW 4097   1.158   1.266   1.967
 1017SOL    HW2 4098   1.141   1.350   1.924
 1017SOL    HW3 4099   1.077   1.217   1.957
 1017SOL    MW4 4100   1.145   1.271   1.960
 1018SOL     OW 4101   1.136   1.536   1.902
 1018SOL    HW2 4102   1.052   1.562   1.938
 1018SOL    HW3 4103   1.128   1.552   1.808
 1018SOL    MW4 4104   1.124   1.541   1.894
 1019SOL     OW 4105   0.882   1.654   2.010
 1019SOL    HW2 4106   0.875   1.746   1.984
 1019SOL    HW3 4107   0.812   1.610   1.961
 1019SOL    MW4 4108   0.872   1.660   2.000
 1020SOL     OW 4109   0.904   1.931   1.941
 1020SOL    HW2 4110   0.844   1.995   1.979
 1020SOL    HW3 4111   0.886   1.934   1.847
 1020SOL    MW4 4112   0.894   1.940   1.934
 1021SOL     OW 4113   1.168   1.989   1.994
 1021SOL    HW2 4114   1.160   2.080   1.964
 1021SOL    HW3 4115   1.078   1.956   1.993
 1021SOL    MW4 4116   1.155   1.997   1.990
 1022SOL     OW 4117   1.133   2.261   1.927
 1022SOL    HW2 4118   1.196   2.305   1.984
 1022SOL    HW3 4119   1.146   2.302   1.841
 1022SOL    MW4 4120   1.143   2.272   1.923
 1023SOL     OW 4121   0.941   2.456   1.981
 1023SOL    HW2 4122   0.996   2.382   1.955
 1023SOL    HW3 4123   0.852   2.425   1.969
 1023SOL    MW4 4124   0.937   2.442   1.976
 1024SOL     OW 4125   0.926   2.736   1.883
 1024SOL    HW2 4126   0.941   2.648   1.917
 1024SOL    HW3 4127   0.848   2.767   1.929
 1024SOL    MW4 4128   0.918   2.728   1.893
 1025SOL     OW 4129   1.138   2.874   1.974
 1025SOL    HW2 4130   1.122   2.874   2.068
 1025SOL    HW3 4131   1.058   2.839   1.935
 1025SOL    MW4 4132   1.126   2.869   1.981
 1026SOL     OW 4133   1.125   3.114   1.856
 1026SOL    HW2 4134   1.048   3.165   1.881
 1026SOL    HW3 4135   1.130   3.044   1.921
 1026SOL    MW4 4136   1.115   3.111   1.868
 1027SOL     OW 4137   0.880   3.208   1.969
 1027SOL    HW2 4138   0.902   3.202   2.062
 1027SOL    HW3 4139   0.807   3.148   1.958
 1027SOL    MW4 4140   0.873   3.200   1.980
 1028SOL     OW 4141   0.905   3.495   1.924
 1028SOL    HW2 4142   0.880   3.405   1.948
 1028SOL    HW3 4143   0.897   3.497   1.829
 1028SOL    MW4 4144   0.900   3.483   1.915
 1029SOL     OW 4145   1.132   3.655   2.010
 1029SOL    HW2 4146   1.151   3.651   2.103
 1029SOL    HW3 4147   1.055   3.598   1.999
 1029SOL    MW4 4148   1.124   3.647   2.021
 1030SOL     OW 4149   1.126   3.904   1.885
 1030SOL    HW2 4150   1.124   3.818   1.927
 1030SOL    HW3 4151   1.128   3.885   1.792
 1030SOL    MW4 4152   1.126   3.890   1.879
 1031SOL     OW 4153   0.899   4.026   1.930
 1031SOL    HW2 4154   0.898   4.028   2.026
 1031SOL    HW3 4155   0.976   3.974   1.908
 1031SOL    MW4 4156   0.909   4.019   1.940
 1032SOL     OW 4157   0.906   4.274   1.820
 1032SOL    HW2 4158   0.988   4.315   1.851
 1032SOL    HW3 4159   0.910   4.185   1.854
 1032SOL    MW4 4160   0.918   4.268   1.828
 1033SOL     OW 4161   1.132   4.372   1.943
 1033SOL    HW2 4162   1.127   4.345   2.035
 1033SOL    HW3 4163   1.210   4.329   1.909
 1033SOL    MW4 4164   1.141   4.363   1.951
 1034SOL     OW 4165   1.583   4.657   1.872
 1034SOL    HW2 4166   1.669   4.688   1.901
 1034SOL    HW3 4167   1.573   4.571   1.913
 1034SOL    MW4 4168   1.593   4.650   1.882
 1035SOL     OW 4169   1.340   0.085   1.981
 1035SOL    HW2 4170   1.334   0.080   2.077
 1035SOL    HW3 4171   1.431   0.064   1.962
 1035SOL    MW4 4172   1.351   0.082   1.991
 1036SOL     OW 4173   1.338   0.382   1.860
 1036SOL    HW2 4174   1.345   0.296   1.901
 1036SOL    HW3 4175   1.326   0.364   1.767
 1036SOL    MW4 4176   1.337   0.368   1.853
 1037SOL     OW 4177   1.567   0.485   2.001
 1037SOL    HW2 4178   1.636   0.439   1.952
 1037SOL    HW3 4179   1.485   0.453   1.963
 1037SOL    MW4 4180   1.565   0.475   1.989
 1038SOL     OW 4181   1.571   0.746   1.892
 1038SOL    HW2 4182   1.641   0.796   1.934
 1038SOL    HW3 4183   1.576   0.659   1.931
 1038SOL    MW4 4184   1.581   0.741   1.903
 1039SOL     OW 4185   1.337   0.858   1.974
 1039SOL    HW2 4186   1.342   0.867   2.069
 1039SOL    HW3 4187   1.420   0.818   1.949
 1039SOL    MW4 4188   1.348   0.854   1.983
 1040SOL     OW 4189   1.360   1.109   1.848
 1040SOL    HW2 4190   1.359   1.016   1.872
 1040SOL    HW3 4191   1.293   1.149   1.904
 1040SOL    MW4 4192   1.351   1.102   1.859
 1041SOL     OW 4193   1.560   1.270   1.954
 1041SOL    HW2 4194   1.563   1.357   1.912
 1041SOL    HW3 4195   1.496   1.221   1.902
 1041SOL    MW4 4196   1.552   1.275   1.941
 1042SOL     OW 4197   1.579   1.539   1.866
 1042SOL    HW2 4198   1.650   1.584   1.911
 1042SOL    HW3 4199   1.501   1.559   1.918
 1042SOL    MW4 4200   1.578   1.548   1.879
 1043SOL     OW 4201   1.361   1.641   1.992
 1043SOL    HW2 4202   1.345   1.658   2.085
 1043SOL    HW3 4203   1.276   1.617   1.956
 1043SOL    MW4 4204   1.348   1.640   2.000
 1044SOL     OW 4205   1.364   1.886   1.850
 1044SOL    HW2 4206   1.374   1.797   1.885
 1044SOL    HW3 4207   1.287   1.920   1.895
 1044SOL    MW4 4208   1.355   1.879   1.861
 1045SOL     OW 4209   1.572   2.022   1.980
 1045SOL    HW2 4210   1.569   2.117   1.973
 1045SOL    HW3 4211   1.493   1.992   1.933
 1045SOL    MW4 4212   1.561   2.030   1.973
 1046SOL     OW 4213   1.554   2.302   1.872
 1046SOL    HW2 4214   1.642   2.334   1.896
 1046SOL    HW3 4215   1.550   2.312   1.777
 1046SOL    MW4 4216   1.565   2.308   1.863
 1047SOL     OW 4217   1.348   2.462   1.981
 1047SOL    HW2 4218   1.352   2.543   1.930
 1047SOL    HW3 4219   1.424   2.412   1.953
 1047SOL    MW4 4220   1.358   2.466   1.971
 1048SOL     OW 4221   1.338   2.713   1.867
 1048SOL    HW2 4222   1.268   2.769   1.900
 1048SOL    HW3 4223   1.327   2.713   1.772
 1048SOL    MW4 4224   1.328   2.721   1.859
 1049SOL     OW 4225   1.558   2.842   1.973
 1049SOL    HW2 4226   1.635   2.800   1.933
 1049SOL    HW3 4227   1.483   2.797   1.933
 1049SOL    MW4 4228   1.559   2.830   1.962
 1050SOL     OW 4229   1.567   3.095   1.896
 1050SOL    HW2 4230   1.571   3.004   1.926
 1050SOL    HW3 4231   1.554   3.088   1.801
 1050SOL    MW4 4232   1.566   3.082   1.887
 1051SOL     OW 4233   1.352   3.256   1.948
 1051SOL    HW2 4234   1.424   3.192   1.942
 1051SOL    HW3 4235   1.275   3.208   1.917
 1051SOL    MW4 4236   1.352   3.241   1.943
 1052SOL     OW 4237   1.365   3.534   1.857
 1052SOL    HW2 4238   1.360   3.443   1.887
 1052SOL    HW3 4239   1.284   3.574   1.889
 1052SOL    MW4 4240   1.354   3.527   1.865
 1053SOL     OW 4241   1.593   3.638   1.970
 1053SOL    HW2 4242   1.572   3.640   2.064
 1053SOL    HW3 4243   1.512   3.606   1.929
 1053SOL    MW4 4244   1.579   3.634   1.977
 1054SOL     OW 4245   1.572   3.890   1.835
 1054SOL    HW2 4246   1.639   3.946   1.875
 1054SOL    HW3 4247   1.591   3.802   1.868
 1054SOL    MW4 4248   1.583   3.886   1.845
 1055SOL     OW 4249   1.362   4.016   1.950
 1055SOL    HW2 4250   1.421   3.951   1.912
 1055SOL    HW3 4251   1.274   3.983   1.930
 1055SOL    MW4 4252   1.358   4.003   1.942
 1056SOL     OW 4253   1.360   4.267   1.858
 1056SOL    HW2 4254   1.365   4.177   1.890
 1056SOL    HW3 4255   1.359   4.259   1.763
 1056SOL    MW4 4256   1.360   4.254   1.850
 1057SOL     OW 4257   1.575   4.408   1.984
 1057SOL    HW2 4258   1.568   4.413   2.079
 1057SOL    HW3 4259   1.495   4.364   1.955
 1057SOL    MW4 4260   1.564   4.403   1.992
 1058SOL     OW 4261   2.043   4.598   1.868
 1058SOL    HW2 4262   2.109   4.655   1.908
 1058SOL    HW3 4263   2.038   4.522   1.926
 1058SOL    MW4 4264   2.051   4.595   1.881
 1059SOL     OW 4265   1.833   0.096   1.946
 1059SOL    HW2 4266   1.812   0.089   2.039
 1059SOL    HW3 4267   1.911   0.042   1.935
 1059SOL    MW4 4268   1.840   0.088   1.957
 1060SOL     OW 4269   1.793   0.370   1.847
 1060SOL    HW2 4270   1.821   0.284   1.877
 1060SOL    HW3 4271   1.776   0.358   1.753
 1060SOL    MW4 4272   1.794   0.357   1.838
 1061SOL     OW 4273   2.004   0.489   2.001
 1061SOL    HW2 4274   2.008   0.577   1.963
 1061SOL    HW3 4275   1.927   0.449   1.962
 1061SOL    MW4 4276   1.995   0.495   1.991
 1062SOL     OW 4277   2.014   0.720   1.868
 1062SOL    HW2 4278   2.086   0.780   1.888
 1062SOL    HW3 4279   2.001   0.728   1.774
 1062SOL    MW4 4280   2.022   0.729   1.858
 1063SOL     OW 4281   1.781   0.885   1.993
 1063SOL    HW2 4282   1.791   0.964   1.940
 1063SOL    HW3 4283   1.849   0.826   1.961
 1063SOL    MW4 4284   1.791   0.888   1.982
 1064SOL     OW 4285   1.790   1.121   1.865
 1064SOL    HW2 4286   1.713   1.169   1.895
 1064SOL    HW3 4287   1.788   1.128   1.770
 1064SOL    MW4 4288   1.779   1.128   1.857
 1065SOL     OW 4289   2.020   1.256   1.927
 1065SOL    HW2 4290   2.096   1.202   1.905
 1065SOL    HW3 4291   1.944   1.201   1.904
 1065SOL    MW4 4292   2.020   1.241   1.921
 1066SOL     OW 4293   2.054   1.526   1.882
 1066SOL    HW2 4294   2.035   1.434   1.903
 1066SOL    HW3 4295   2.048   1.530   1.787
 1066SOL    MW4 4296   2.051   1.514   1.872
 1067SOL     OW 4297   1.833   1.667   1.965
 1067SOL    HW2 4298   1.846   1.755   1.929
 1067SOL    HW3 4299   1.911   1.619   1.938
 1067SOL    MW4 4300   1.845   1.673   1.956
 1068SOL     OW 4301   1.810   1.936   1.875
 1068SOL    HW2 4302   1.722   1.952   1.908
 1068SOL    HW3 4303   1.801   1.938   1.780
 1068SOL    MW4 4304   1.797   1.938   1.867
 1069SOL     OW 4305   2.022   2.063   2.007
 1069SOL    HW2 4306   2.085   1.998   1.974
 1069SOL    HW3 4307   1.937   2.032   1.976
 1069SOL    MW4 4308   2.019   2.050   1.998
 1070SOL     OW 4309   2.004   2.335   1.865
 1070SOL    HW2 4310   2.075   2.392   1.895
 1070SOL    HW3 4311   2.024   2.250   1.904
 1070SOL    MW4 4312   2.016   2.332   1.874
 1071SOL     OW 4313   1.769   2.459   1.964
 1071SOL    HW2 4314   1.777   2.461   2.059
 1071SOL    HW3 4315   1.849   2.414   1.935
 1071SOL    MW4 4316   1.781   2.453   1.973
 1072SOL     OW 4317   1.782   2.709   1.843
 1072SOL    HW2 4318   1.792   2.624   1.886
 1072SOL    HW3 4319   1.778   2.688   1.749
 1072SOL    MW4 4320   1.783   2.695   1.836
 1073SOL     OW 4321   2.020   2.828   1.968
 1073SOL    HW2 4322   2.010   2.839   2.062
 1073SOL    HW3 4323   1.935   2.797   1.937
 1073SOL    MW4 4324   2.008   2.826   1.976
 1074SOL     OW 4325   2.016   3.095   1.847
 1074SOL    HW2 4326   1.937   3.144   1.870
 1074SOL    HW3 4327   2.014   3.018   1.903
 1074SOL    MW4 4328   2.005   3.091   1.857
 1075SOL     OW 4329   1.804   3.241   1.950
 1075SOL    HW2 4330   1.806   3.228   2.045
 1075SOL    HW3 4331   1.720   3.205   1.923
 1075SOL    MW4 4332   1.793   3.235   1.959
 1076SOL     OW 4333   1.780   3.495   1.840
 1076SOL    HW2 4334   1.782   3.407   1.878
 1076SOL    HW3 4335   1.720   3.544   1.896
 1076SOL    MW4 4336   1.772   3.490   1.853
 1077SOL     OW 4337   1.995   3.627   1.963
 1077SOL    HW2 4338   1.995   3.717   1.930
 1077SOL    HW3 4339   1.919   3.586   1.921
 1077SOL    MW4 4340   1.985   3.634   1.953
 1078SOL     OW 4341   1.998   3.873   1.851
 1078SOL    HW2 4342   2.082   3.906   1.885
 1078SOL    HW3 4343   2.006   3.880   1.756
 1078SOL    MW4 4344   2.010   3.878   1.843
 1079SOL     OW 4345   1.794   3.991   1.958
 1079SOL    HW2 4346   1.794   4.082   1.930
 1079SOL    HW3 4347   1.872   3.953   1.919
 1079SOL    MW4 4348   1.804   3.998   1.949
 1080SOL     OW 4349   1.762   4.239   1.853
 1080SOL    HW2 4350   1.686   4.295   1.869
 1080SOL    HW3 4351   1.767   4.232   1.757
 1080SOL    MW4 4352   1.752   4.246   1.842
 1081SOL     OW 4353   1.993   4.349   1.996
 1081SOL    HW2 4354   2.064   4.306   1.949
 1081SOL    HW3 4355   1.914   4.327   1.946
 1081SOL    MW4 4356   1.992   4.341   1.983
 1082SOL     OW 4357   2.440   4.644   1.838
 1082SOL    HW2 4358   2.510   4.700   1.873
 1082SOL    HW3 4359   2.460   4.557   1.873
 1082SOL    MW4 4360   2.452   4.640   1.848
 1083SOL     OW 4361   2.232   0.074   1.988
 1083SOL    HW2 4362   2.244   0.080   2.083
 1083SOL    HW3 4363   2.318   0.047   1.956
 1083SOL    MW4 4364   2.245   0.071   1.997
 1084SOL     OW 4365   2.206   0.345   1.892
 1084SOL    HW2 4366   2.206   0.260   1.936
 1084SOL    HW3 4367   2.141   0.396   1.941
 1084SOL    MW4 4368   2.197   0.340   1.905
 1085SOL     OW 4369   2.422   0.523   1.981
 1085SOL    HW2 4370   2.505   0.480   1.961
 1085SOL    HW3 4371   2.356   0.468   1.939
 1085SOL    MW4 4372   2.424   0.510   1.973
 1086SOL     OW 4373   2.470   0.742   1.823
 1086SOL    HW2 4374   2.448   0.659   1.864
 1086SOL    HW3 4375   2.480   0.720   1.730
 1086SOL    MW4 4376   2.468   0.728   1.816
 1087SOL     OW 4377   2.235   0.871   1.915
 1087SOL    HW2 4378   2.247   0.871   2.010
 1087SOL    HW3 4379   2.309   0.820   1.881
 1087SOL    MW4 4380   2.247   0.864   1.923
 1088SOL     OW 4381   2.250   1.136   1.860
 1088SOL    HW2 4382   2.314   1.177   1.918
 1088SOL    HW3 4383   2.249   1.044   1.886
 1088SOL    MW4 4384   2.258   1.129   1.871
 1089SOL     OW 4385   2.480   1.242   1.990
 1089SOL    HW2 4386   2.453   1.235   2.082
 1089SOL    HW3 4387   2.495   1.336   1.976
 1089SOL    MW4 4388   2.479   1.254   2.001
 1090SOL     OW 4389   2.505   1.518   1.941
 1090SOL    HW2 4390   2.430   1.539   1.997
 1090SOL    HW3 4391   2.469   1.522   1.852
 1090SOL    MW4 4392   2.490   1.521   1.937
 1091SOL     OW 4393   2.273   1.653   2.004
 1091SOL    HW2 4394   2.258   1.676   2.096
 1091SOL    HW3 4395   2.202   1.594   1.982
 1091SOL    MW4 4396   2.262   1.649   2.013
 1092SOL     OW 4397   2.206   1.895   1.890
 1092SOL    HW2 4398   2.293   1.930   1.908
 1092SOL    HW3 4399   2.206   1.807   1.930
 1092SOL    MW4 4400   2.217   1.888   1.897
 1093SOL     OW 4401   2.451   2.023   1.972
 1093SOL    HW2 4402   2.537   2.007   1.933
 1093SOL    HW3 4403   2.428   2.113   1.945
 1093SOL    MW4 4404   2.459   2.033   1.963
 1094SOL     OW 4405   2.432   2.293   1.918
 1094SOL    HW2 4406   2.511   2.344   1.935
 1094SOL    HW3 4407   2.360   2.354   1.933
 1094SOL    MW4 4408   2.433   2.308   1.922
 1095SOL     OW 4409   2.229   2.478   1.962
 1095SOL    HW2 4410   2.219   2.486   2.056
 1095SOL    HW3 4411   2.258   2.564   1.933
 1095SOL    MW4 4412   2.231   2.490   1.970
 1096SOL     OW 4413   2.273   2.744   1.859
 1096SOL    HW2 4414   2.182   2.773   1.870
 1096SOL    HW3 4415   2.281   2.728   1.765
 1096SOL    MW4 4416   2.262   2.746   1.848
 1097SOL     OW 4417   2.486   2.875   1.966
 1097SOL    HW2 4418   2.465   2.964   1.934
 1097SOL    HW3 4419   2.416   2.820   1.931
 1097SOL    MW4 4420   2.474   2.880   1.957
 1098SOL     OW 4421   2.496   3.144   1.866
 1098SOL    HW2 4422   2.412   3.181   1.891
 1098SOL    HW3 4423   2.492   3.135   1.771
 1098SOL    MW4 4424   2.484   3.148   1.857
 1099SOL     OW 4425   2.242   3.223   1.920
 1099SOL    HW2 4426   2.226   3.224   2.014
 1099SOL    HW3 4427   2.163   3.184   1.882
 1099SOL    MW4 4428   2.230   3.218   1.927
 1100SOL     OW 4429   2.214   3.491   1.820
 1100SOL    HW2 4430   2.215   3.400   1.852
 1100SOL    HW3 4431   2.145   3.533   1.870
 1100SOL    MW4 4432   2.205   3.484   1.831
 1101SOL     OW 4433   2.480   3.591   1.907
 1101SOL    HW2 4434   2.479   3.595   2.003
 1101SOL    HW3 4435   2.393   3.559   1.884
 1101SOL    MW4 4436   2.469   3.587   1.916
 1102SOL     OW 4437   2.462   3.865   1.825
 1102SOL    HW2 4438   2.387   3.907   1.868
 1102SOL    HW3 4439   2.458   3.774   1.855
 1102SOL    MW4 4440   2.451   3.859   1.835
 1103SOL     OW 4441   2.248   4.005   1.948
 1103SOL    HW2 4442   2.256   4.000   2.043
 1103SOL    HW3 4443   2.239   4.098   1.929
 1103SOL    MW4 4444   2.248   4.017   1.958
 1104SOL     OW 4445   2.241   4.274   1.843
 1104SOL    HW2 4446   2.327   4.308   1.867
 1104SOL    HW3 4447   2.240   4.276   1.747
 1104SOL    MW4 4448   2.252   4.279   1.833
 1105SOL     OW 4449   2.484   4.379   1.924
 1105SOL    HW2 4450   2.474   4.370   2.018
 1105SOL    HW3 4451   2.577   4.362   1.908
 1105SOL    MW4 4452   2.495   4.376   1.934
 1106SOL     OW 4453   2.850   4.624   1.848
 1106SOL    HW2 4454   2.926   4.670   1.882
 1106SOL    HW3 4455   2.851   4.539   1.893
 1106SOL    MW4 4456   2.860   4.619   1.858
 1107SOL     OW 4457   2.659   0.128   1.966
 1107SOL    HW2 4458   2.670   0.119   2.060
 1107SOL    HW3 4459   2.731   0.077   1.929
 1107SOL    MW4 4460   2.670   0.120   1.973
 1108SOL     OW 4461   2.656   0.402   1.886
 1108SOL    HW2 4462   2.745   0.419   1.916
 1108SOL    HW3 4463   2.641   0.310   1.906
 1108SOL    MW4 4464   2.666   0.392   1.893
 1109SOL     OW 4465   2.933   0.449   1.917
 1109SOL    HW2 4466   3.024   0.420   1.922
 1109SOL    HW3 4467   2.937   0.531   1.867
 1109SOL    MW4 4468   2.946   0.456   1.911
 1110SOL     OW 4469   2.952   0.723   1.853
 1110SOL    HW2 4470   3.020   0.776   1.896
 1110SOL    HW3 4471   2.870   0.760   1.885
 1110SOL    MW4 4472   2.950   0.735   1.863
 1111SOL     OW 4473   2.704   0.835   1.927
 1111SOL    HW2 4474   2.704   0.930   1.920
 1111SOL    HW3 4475   2.622   0.808   1.887
 1111SOL    MW4 4476   2.693   0.844   1.920
 1112SOL     OW 4477   2.715   1.127   1.891
 1112SOL    HW2 4478   2.643   1.176   1.933
 1112SOL    HW3 4479   2.695   1.130   1.798
 1112SOL    MW4 4480   2.703   1.134   1.884
 1113SOL     OW 4481   2.937   1.269   1.999
 1113SOL    HW2 4482   2.948   1.353   1.954
 1113SOL    HW3 4483   2.865   1.226   1.952
 1113SOL    MW4 4484   2.929   1.274   1.987
 1114SOL     OW 4485   2.949   1.508   1.872
 1114SOL    HW2 4486   3.005   1.578   1.904
 1114SOL    HW3 4487   2.939   1.526   1.779
 1114SOL    MW4 4488   2.955   1.520   1.864
 1115SOL     OW 4489   2.727   1.665   1.968
 1115SOL    HW2 4490   2.791   1.598   1.944
 1115SOL    HW3 4491   2.642   1.626   1.945
 1115SOL    MW4 4492   2.724   1.651   1.962
 1116SOL     OW 4493   2.695   1.930   1.882
 1116SOL    HW2 4494   2.759   1.984   1.927
 1116SOL    HW3 4495   2.718   1.840   1.905
 1116SOL    MW4 4496   2.706   1.925   1.891
 1117SOL     OW 4497   2.894   2.089   1.977
 1117SOL    HW2 4498   2.898   2.084   2.072
 1117SOL    HW3 4499   2.972   2.042   1.946
 1117SOL    MW4 4500   2.905   2.082   1.985
 1118SOL     OW 4501   2.878   2.345   1.896
 1118SOL    HW2 4502   2.964   2.381   1.917
 1118SOL    HW3 4503   2.884   2.252   1.921
 1118SOL    MW4 4504   2.890   2.337   1.902
 1119SOL     OW 4505   2.655   2.484   1.963
 1119SOL    HW2 4506   2.664   2.564   1.912
 1119SOL    HW3 4507   2.729   2.430   1.937
 1119SOL    MW4 4508   2.666   2.487   1.953
 1120SOL     OW 4509   2.695   2.731   1.855
 1120SOL    HW2 4510   2.647   2.788   1.916
 1120SOL    HW3 4511   2.663   2.755   1.769
 1120SOL    MW4 4512   2.685   2.741   1.852
 1121SOL     OW 4513   2.929   2.815   1.973
 1121SOL    HW2 4514   2.935   2.903   1.937
 1121SOL    HW3 4515   2.846   2.781   1.939
 1121SOL    MW4 4516   2.919   2.822   1.964
 1122SOL     OW 4517   2.951   3.063   1.888
 1122SOL    HW2 4518   3.033   3.093   1.927
 1122SOL    HW3 4519   2.886   3.128   1.916
 1122SOL    MW4 4520   2.953   3.076   1.897
 1123SOL     OW 4521   2.734   3.217   1.966
 1123SOL    HW2 4522   2.753   3.303   1.929
 1123SOL    HW3 4523   2.648   3.194   1.931
 1123SOL    MW4 4524   2.725   3.225   1.956
 1124SOL     OW 4525   2.759   3.465   1.859
 1124SOL    HW2 4526   2.827   3.531   1.874
 1124SOL    HW3 4527   2.677   3.510   1.876
 1124SOL    MW4 4528   2.757   3.479   1.863
 1125SOL     OW 4529   2.980   3.631   1.916
 1125SOL    HW2 4530   2.972   3.629   2.011
 1125SOL    HW3 4531   3.050   3.569   1.896
 1125SOL    MW4 4532   2.988   3.622   1.926
 1126SOL     OW 4533   2.943   3.902   1.867
 1126SOL    HW2 4534   2.970   3.814   1.893
 1126SOL    HW3 4535   2.927   3.894   1.773
 1126SOL    MW4 4536   2.944   3.889   1.858
 1127SOL     OW 4537   2.706   3.976   1.980
 1127SOL    HW2 4538   2.789   3.960   1.936
 1127SOL    HW3 4539   2.643   3.923   1.931
 1127SOL    MW4 4540   2.708   3.967   1.967
 1128SOL     OW 4541   2.725   4.244   1.869
 1128SOL    HW2 4542   2.704   4.164   1.917
 1128SOL    HW3 4543   2.741   4.215   1.779
 1128SOL    MW4 4544   2.724   4.230   1.863
 1129SOL     OW 4545   2.923   4.399   1.980
 1129SOL    HW2 4546   2.917   4.409   2.075
 1129SOL    HW3 4547   2.863   4.328   1.959
 1129SOL    MW4 4548   2.915   4.391   1.990
 1130SOL     OW 4549   3.334   4.636   1.874
 1130SOL    HW2 4550   3.347   4.549   1.912
 1130SOL    HW3 4551   3.334   4.621   1.779
 1130SOL    MW4 4552   3.336   4.623   1.866
 1131SOL     OW 4553   3.100   0.088   1.946
 1131SOL    HW2 4554   3.107   0.115   2.037
 1131SOL    HW3 4555   3.186   0.054   1.924
 1131SOL    MW4 4556   3.112   0.087   1.955
 1132SOL     OW 4557   3.190   0.341   1.894
 1132SOL    HW2 4558   3.152   0.254   1.909
 1132SOL    HW3 4559   3.185   0.353   1.799
 1132SOL    MW4 4560   3.185   0.331   1.883
 1133SOL     OW 4561   3.390   0.510   1.966
 1133SOL    HW2 4562   3.467   0.453   1.962
 1133SOL    HW3 4563   3.317   0.453   1.943
 1133SOL    MW4 4564   3.391   0.495   1.962
 1134SOL     OW 4565   3.403   0.769   1.844
 1134SOL    HW2 4566   3.327   0.803   1.891
 1134SOL    HW3 4567   3.413   0.680   1.877
 1134SOL    MW4 4568   3.394   0.761   1.854
 1135SOL     OW 4569   3.176   0.878   1.972
 1135SOL    HW2 4570   3.170   0.873   2.068
 1135SOL    HW3 4571   3.174   0.972   1.953
 1135SOL    MW4 4572   3.175   0.890   1.982
 1136SOL     OW 4573   3.154   1.126   1.890
 1136SOL    HW2 4574   3.233   1.175   1.912
 1136SOL    HW3 4575   3.084   1.169   1.939
 1136SOL    MW4 4576   3.155   1.138   1.899
 1137SOL     OW 4577   3.363   1.285   1.958
 1137SOL    HW2 4578   3.362   1.292   2.054
 1137SOL    HW3 4579   3.357   1.376   1.927
 1137SOL    MW4 4580   3.362   1.298   1.967
 1138SOL     OW 4581   3.342   1.540   1.879
 1138SOL    HW2 4582   3.417   1.583   1.920
 1138SOL    HW3 4583   3.268   1.598   1.897
 1138SOL    MW4 4584   3.342   1.553   1.887
 1139SOL     OW 4585   3.136   1.699   1.994
 1139SOL    HW2 4586   3.117   1.696   2.087
 1139SOL    HW3 4587   3.128   1.791   1.970
 1139SOL    MW4 4588   3.132   1.710   2.003
 1140SOL     OW 4589   3.103   1.954   1.894
 1140SOL    HW2 4590   3.192   1.969   1.926
 1140SOL    HW3 4591   3.114   1.935   1.801
 1140SOL    MW4 4592   3.117   1.953   1.886
 1141SOL     OW 4593   3.364   2.014   2.001
 1141SOL    HW2 4594   3.451   1.986   1.973
 1141SOL    HW3 4595   3.349   2.096   1.955
 1141SOL    MW4 4596   3.373   2.021   1.991
 1142SOL     OW 4597   3.357   2.278   1.854
 1142SOL    HW2 4598   3.277   2.327   1.876
 1142SOL    HW3 4599   3.363   2.283   1.759
 1142SOL    MW4 4600   3.347   2.285   1.845
 1143SOL     OW 4601   3.136   2.415   1.968
 1143SOL    HW2 4602   3.142   2.429   2.063
 1143SOL    HW3 4603   3.152   2.502   1.930
 1143SOL    MW4 4604   3.139   2.428   1.976
 1144SOL     OW 4605   3.149   2.679   1.878
 1144SOL    HW2 4606   3.069   2.726   1.902
 1144SOL    HW3 4607   3.143   2.667   1.784
 1144SOL    MW4 4608   3.138   2.684   1.869
 1145SOL     OW 4609   3.365   2.852   2.009
 1145SOL    HW2 4610   3.391   2.836   2.100
 1145SOL    HW3 4611   3.300   2.784   1.991
 1145SOL    MW4 4612   3.360   2.841   2.019
 1146SOL     OW 4613   3.417   3.078   1.864
 1146SOL    HW2 4614   3.494   3.112   1.910
 1146SOL    HW3 4615   3.394   2.999   1.911
 1146SOL    MW4 4616   3.424   3.072   1.876
 1147SOL     OW 4617   3.185   3.189   1.976
 1147SOL    HW2 4618   3.159   3.270   1.931
 1147SOL    HW3 4619   3.273   3.171   1.944
 1147SOL    MW4 4620   3.193   3.197   1.966
 1148SOL     OW 4621   3.160   3.447   1.861
 1148SOL    HW2 4622   3.238   3.491   1.893
 1148SOL    HW3 4623   3.162   3.459   1.766
 1148SOL    MW4 4624   3.170   3.454   1.853
 1149SOL     OW 4625   3.365   3.590   1.950
 1149SOL    HW2 4626   3.456   3.571   1.927
 1149SOL    HW3 4627   3.351   3.680   1.919
 1149SOL    MW4 4628   3.375   3.599   1.943
 1150SOL     OW 4629   3.353   3.846   1.833
 1150SOL    HW2 4630   3.291   3.915   1.856
 1150SOL    HW3 4631   3.356   3.847   1.738
 1150SOL    MW4 4632   3.345   3.855   1.824
 1151SOL     OW 4633   3.172   4.040   1.909
 1151SOL    HW2 4634   3.193   4.012   1.998
 1151SOL    HW3 4635   3.085   4.004   1.892
 1151SOL    MW4 4636   3.163   4.032   1.919
 1152SOL     OW 4637   3.169   4.331   1.879
 1152SOL    HW2 4638   3.142   4.241   1.897
 1152SOL    HW3 4639   3.093   4.384   1.904
 1152SOL    MW4 4640   3.155   4.326   1.885
 1153SOL     OW 4641   3.417   4.387   1.988
 1153SOL    HW2 4642   3.486   4.337   1.944
 1153SOL    HW3 4643   3.336   4.349   1.955
 1153SOL    MW4 4644   3.416   4.375   1.978
 1154SOL     OW 4645   3.838   4.622   1.865
 1154SOL    HW2 4646   3.818   4.534   1.895
 1154SOL    HW3 4647   3.764   4.675   1.896
 1154SOL    MW4 4648   3.826   4.618   1.873
 1155SOL     OW 4649   3.593   0.062   1.950
 1155SOL    HW2 4650   3.602   0.062   2.045
 1155SOL    HW3 4651   3.502   0.037   1.934
 1155SOL    MW4 4652   3.582   0.059   1.960
 1156SOL     OW 4653   3.594   0.342   1.898
 1156SOL    HW2 4654   3.597   0.247   1.904
 1156SOL    HW3 4655   3.568   0.360   1.808
 1156SOL    MW4 4656   3.591   0.332   1.887
 1157SOL     OW 4657   3.836   0.473   1.930
 1157SOL    HW2 4658   3.812   0.554   1.886
 1157SOL    HW3 4659   3.759   0.416   1.919
 1157SOL    MW4 4660   3.823   0.476   1.922
 1158SOL     OW 4661   3.792   0.748   1.861
 1158SOL    HW2 4662   3.727   0.807   1.899
 1158SOL    HW3 4663   3.787   0.765   1.766
 1158SOL    MW4 4664   3.783   0.758   1.853
 1159SOL     OW 4665   3.609   0.924   1.950
 1159SOL    HW2 4666   3.615   1.012   1.914
 1159SOL    HW3 4667   3.531   0.886   1.909
 1159SOL    MW4 4668   3.599   0.931   1.940
 1160SOL     OW 4669   3.608   1.173   1.827
 1160SOL    HW2 4670   3.535   1.221   1.867
 1160SOL    HW3 4671   3.594   1.181   1.733
 1160SOL    MW4 4672   3.597   1.180   1.820
 1161SOL     OW 4673   3.815   1.324   1.952
 1161SOL    HW2 4674   3.805   1.311   2.047
 1161SOL    HW3 4675   3.738   1.282   1.914
 1161SOL    MW4 4676   3.803   1.317   1.960
 1162SOL     OW 4677   3.807   1.583   1.875
 1162SOL    HW2 4678   3.878   1.626   1.924
 1162SOL    HW3 4679   3.807   1.493   1.907
 1162SOL    MW4 4680   3.816   1.577   1.886
 1163SOL     OW 4681   3.577   1.667   1.988
 1163SOL    HW2 4682   3.569   1.752   1.945
 1163SOL    HW3 4683   3.658   1.630   1.954
 1163SOL    MW4 4684   3.587   1.673   1.978
 1164SOL     OW 4685   3.594   1.911   1.878
 1164SOL    HW2 4686   3.668   1.958   1.917
 1164SOL    HW3 4687   3.608   1.917   1.784
 1164SOL    MW4 4688   3.605   1.918   1.871
 1165SOL     OW 4689   3.804   2.069   2.000
 1165SOL    HW2 4690   3.882   2.018   1.979
 1165SOL    HW3 4691   3.818   2.153   1.957
 1165SOL    MW4 4692   3.816   2.074   1.992
 1166SOL     OW 4693   3.832   2.338   1.840
 1166SOL    HW2 4694   3.906   2.395   1.863
 1166SOL    HW3 4695   3.757   2.376   1.887
 1166SOL    MW4 4696   3.832   2.351   1.850
 1167SOL     OW 4697   3.573   2.411   1.939
 1167SOL    HW2 4698   3.562   2.502   1.910
 1167SOL    HW3 4699   3.494   2.366   1.909
 1167SOL    MW4 4700   3.561   2.417   1.931
 1168SOL     OW 4701   3.539   2.695   1.884
 1168SOL    HW2 4702   3.623   2.715   1.926
 1168SOL    HW3 4703   3.479   2.762   1.916
 1168SOL    MW4 4704   3.542   2.706   1.893
 1169SOL     OW 4705   3.826   2.789   1.978
 1169SOL    HW2 4706   3.843   2.787   2.072
 1169SOL    HW3 4707   3.815   2.882   1.957
 1169SOL    MW4 4708   3.827   2.801   1.987
 1170SOL     OW 4709   3.858   3.052   1.881
 1170SOL    HW2 4710   3.787   3.109   1.911
 1170SOL    HW3 4711   3.838   3.035   1.789
 1170SOL    MW4 4712   3.846   3.057   1.873
 1171SOL     OW 4713   3.631   3.187   1.989
 1171SOL    HW2 4714   3.614   3.182   2.083
 1171SOL    HW3 4715   3.604   3.276   1.965
 1171SOL    MW4 4716   3.625   3.198   1.998
 1172SOL     OW 4717   3.599   3.441   1.885
 1172SOL    HW2 4718   3.680   3.484   1.909
 1172SOL    HW3 4719   3.597   3.446   1.789
 1172SOL    MW4 4720   3.609   3.447   1.875
 1173SOL     OW 4721   3.833   3.580   2.003
 1173SOL    HW2 4722   3.914   3.539   1.974
 1173SOL    HW3 4723   3.833   3.666   1.962
 1173SOL    MW4 4724   3.843   3.586   1.994
 1174SOL     OW 4725   3.827   3.832   1.885
 1174SOL    HW2 4726   3.740   3.868   1.904
 1174SOL    HW3 4727   3.840   3.848   1.792
 1174SOL    MW4 4728   3.817   3.839   1.875
 1175SOL     OW 4729   3.601   3.963   1.932
 1175SOL    HW2 4730   3.586   3.988   2.024
 1175SOL    HW3 4731   3.517   3.928   1.903
 1175SOL    MW4 4732   3.588   3.962   1.941
 1176SOL     OW 4733   3.602   4.228   1.839
 1176SOL    HW2 4734   3.667   4.277   1.889
 1176SOL    HW3 4735   3.609   4.138   1.871
 1176SOL    MW4 4736   3.611   4.223   1.850
 1177SOL     OW 4737   3.807   4.367   1.967
 1177SOL    HW2 4738   3.825   4.378   2.061
 1177SOL    HW3 4739   3.889   4.333   1.931
 1177SOL    MW4 4740   3.821   4.364   1.975
 1178SOL     OW 4741   4.307   4.613   1.858
 1178SOL    HW2 4742   4.232   4.645   1.908
 1178SOL    HW3 4743   4.384   4.651   1.901
 1178SOL    MW4 4744   4.307   4.622   1.870
 1179SOL     OW 4745   4.085   0.088   1.948
 1179SOL    HW2 4746   4.088   0.108   2.041
 1179SOL    HW3 4747   3.999   0.047   1.935
 1179SOL    MW4 4748   4.074   0.085   1.958
 1180SOL     OW 4749   4.079   0.354   1.839
 1180SOL    HW2 4750   4.075   0.262   1.863
 1180SOL    HW3 4751   3.995   0.390   1.870
 1180SOL    MW4 4752   4.067   0.347   1.847
 1181SOL     OW 4753   4.238   0.524   1.964
 1181SOL    HW2 4754   4.214   0.526   2.056
 1181SOL    HW3 4755   4.169   0.471   1.923
 1181SOL    MW4 4756   4.225   0.517   1.971
 1182SOL     OW 4757   4.260   0.786   1.874
 1182SOL    HW2 4758   4.248   0.699   1.914
 1182SOL    HW3 4759   4.258   0.770   1.780
 1182SOL    MW4 4760   4.258   0.772   1.867
 1183SOL     OW 4761   4.020   0.906   1.963
 1183SOL    HW2 4762   4.103   0.878   1.924
 1183SOL    HW3 4763   3.957   0.841   1.934
 1183SOL    MW4 4764   4.023   0.894   1.954
 1184SOL     OW 4765   4.013   1.153   1.853
 1184SOL    HW2 4766   4.002   1.066   1.892
 1184SOL    HW3 4767   3.949   1.208   1.899
 1184SOL    MW4 4768   4.003   1.149   1.864
 1185SOL     OW 4769   4.265   1.271   1.933
 1185SOL    HW2 4770   4.267   1.273   2.029
 1185SOL    HW3 4771   4.187   1.221   1.911
 1185SOL    MW4 4772   4.255   1.264   1.943
 1186SOL     OW 4773   4.283   1.531   1.872
 1186SOL    HW2 4774   4.280   1.438   1.894
 1186SOL    HW3 4775   4.283   1.533   1.777
 1186SOL    MW4 4776   4.283   1.519   1.863
 1187SOL     OW 4777   4.046   1.679   1.968
 1187SOL    HW2 4778   4.064   1.688   2.061
 1187SOL    HW3 4779   4.114   1.619   1.936
 1187SOL    MW4 4780   4.057   1.672   1.976
 1188SOL     OW 4781   4.026   1.950   1.890
 1188SOL    HW2 4782   4.017   1.855   1.889
 1188SOL    HW3 4783   4.043   1.974   1.799
 1188SOL    MW4 4784   4.027   1.941   1.878
 1189SOL     OW 4785   4.284   2.022   1.984
 1189SOL    HW2 4786   4.288   2.034   2.079
 1189SOL    HW3 4787   4.191   2.006   1.966
 1189SOL    MW4 4788   4.272   2.021   1.994
 1190SOL     OW 4789   4.257   2.260   1.850
 1190SOL    HW2 4790   4.261   2.175   1.894
 1190SOL    HW3 4791   4.329   2.310   1.888
 1190SOL    MW4 4792   4.267   2.255   1.861
 1191SOL     OW 4793   4.068   2.449   1.948
 1191SOL    HW2 4794   4.079   2.436   2.042
 1191SOL    HW3 4795   4.123   2.383   1.907
 1191SOL    MW4 4796   4.077   2.439   1.955
 1192SOL     OW 4797   4.056   2.710   1.862
 1192SOL    HW2 4798   4.073   2.620   1.892
 1192SOL    HW3 4799   3.976   2.736   1.907
 1192SOL    MW4 4800   4.048   2.701   1.872
 1193SOL     OW 4801   4.281   2.863   1.960
 1193SOL    HW2 4802   4.283   2.847   2.054
 1193SOL    HW3 4803   4.205   2.814   1.929
 1193SOL    MW4 4804   4.271   2.855   1.968
 1194SOL     OW 4805   4.282   3.136   1.887
 1194SOL    HW2 4806   4.198   3.168   1.921
 1194SOL    HW3 4807   4.283   3.043   1.908
 1194SOL    MW4 4808   4.271   3.128   1.894
 1195SOL     OW 4809   4.043   3.237   1.980
 1195SOL    HW2 4810   4.054   3.214   2.072
 1195SOL    HW3 4811   3.986   3.169   1.945
 1195SOL    MW4 4812   4.037   3.225   1.988
 1196SOL     OW 4813   4.047   3.491   1.886
 1196SOL    HW2 4814   4.123   3.512   1.941
 1196SOL    HW3 4815   4.031   3.398   1.902
 1196SOL    MW4 4816   4.055   3.482   1.895
 1197SOL     OW 4817   4.268   3.584   2.001
 1197SOL    HW2 4818   4.261   3.671   1.962
 1197SOL    HW3 4819   4.353   3.551   1.971
 1197SOL    MW4 4820   4.279   3.592   1.992
 1198SOL     OW 4821   4.227   3.870   1.887
 1198SOL    HW2 4822   4.307   3.909   1.920
 1198SOL    HW3 4823   4.235   3.874   1.791
 1198SOL    MW4 4824   4.238   3.875   1.879
 1199SOL     OW 4825   4.016   4.025   1.981
 1199SOL    HW2 4826   4.096   3.977   1.962
 1199SOL    HW3 4827   3.946   3.966   1.952
 1199SOL    MW4 4828   4.017   4.011   1.974
 1200SOL     OW 4829   4.017   4.265   1.849
 1200SOL    HW2 4830   4.087   4.312   1.895
 1200SOL    HW3 4831   4.011   4.181   1.895
 1200SOL    MW4 4832   4.025   4.261   1.861
 1201SOL     OW 4833   4.235   4.376   1.972
 1201SOL    HW2 4834   4.233   4.371   2.067
 1201SOL    HW3 4835   4.272   4.462   1.953
 1201SOL    MW4 4836   4.240   4.387   1.982
 1202SOL     OW 4837   0.214   0.011   2.365
 1202SOL    HW2 4838   0.210   0.013   2.460
 1202SOL    HW3 4839   0.292   0.063   2.343
 1202SOL    MW4 4840   0.224   0.018   2.375
 1203SOL     OW 4841   4.456   0.102   2.301
 1203SOL    HW2 4842   4.547   0.083   2.325
 1203SOL    HW3 4843   4.454   0.090   2.206
 1203SOL    MW4 4844   4.467   0.098   2.291
 1204SOL     OW 4845   4.461   0.357   2.395
 1204SOL    HW2 4846   4.538   0.404   2.362
 1204SOL    HW3 4847   4.464   0.272   2.351
 1204SOL    MW4 4848   4.471   0.352   2.384
 1205SOL     OW 4849   0.194   0.491   2.299
 1205SOL    HW2 4850   0.282   0.471   2.331
 1205SOL    HW3 4851   0.200   0.478   2.204
 1205SOL    MW4 4852   0.207   0.486   2.291
 1206SOL     OW 4853   0.221   0.764   2.325
 1206SOL    HW2 4854   0.204   0.781   2.417
 1206SOL    HW3 4855   0.221   0.668   2.318
 1206SOL    MW4 4856   0.219   0.754   2.336
 1207SOL     OW 4857   4.464   0.873   2.234
 1207SOL    HW2 4858   4.545   0.830   2.260
 1207SOL    HW3 4859   4.469   0.879   2.138
 1207SOL    MW4 4860   4.475   0.868   2.224
 1208SOL     OW 4861   4.430   1.123   2.325
 1208SOL    HW2 4862   4.438   1.118   2.420
 1208SOL    HW3 4863   4.451   1.035   2.294
 1208SOL    MW4 4864   4.434   1.111   2.333
 1209SOL     OW 4865   0.211   1.257   2.244
 1209SOL    HW2 4866   0.120   1.236   2.264
 1209SOL    HW3 4867   0.214   1.261   2.148
 1209SOL    MW4 4868   0.200   1.254   2.234
 1210SOL     OW 4869   0.225   1.520   2.355
 1210SOL    HW2 4870   0.198   1.523   2.447
 1210SOL    HW3 4871   0.214   1.428   2.329
 1210SOL    MW4 4872   0.220   1.508   2.363
 1211SOL     OW 4873   0.000   1.637   2.278
 1211SOL    HW2 4874  -0.001   1.727   2.311
 1211SOL    HW3 4875   0.084   1.602   2.308
 1211SOL    MW4 4876   0.011   1.645   2.286
 1212SOL     OW 4877   0.001   1.924   2.374
 1212SOL    HW2 4878  -0.076   1.965   2.334
 1212SOL    HW3 4879   0.074   1.981   2.352
 1212SOL    MW4 4880   0.000   1.937   2.366
 1213SOL     OW 4881   0.227   2.051   2.274
 1213SOL    HW2 4882   0.295   1.988   2.297
 1213SOL    HW3 4883   0.223   2.048   2.179
 1213SOL    MW4 4884   0.236   2.042   2.265
 1214SOL     OW 4885   0.208   2.306   2.349
 1214SOL    HW2 4886   0.215   2.313   2.444
 1214SOL    HW3 4887   0.224   2.213   2.330
 1214SOL    MW4 4888   0.211   2.294   2.359
 1215SOL     OW 4889   4.477   2.441   2.244
 1215SOL    HW2 4890   4.473   2.527   2.285
 1215SOL    HW3 4891   4.559   2.402   2.277
 1215SOL    MW4 4892   4.487   2.447   2.254
 1216SOL     OW 4893   0.027   2.684   2.372
 1216SOL    HW2 4894   0.018   2.690   2.467
 1216SOL    HW3 4895   0.104   2.739   2.352
 1216SOL    MW4 4896   0.036   2.692   2.382
 1217SOL     OW 4897   0.245   2.855   2.268
 1217SOL    HW2 4898   0.325   2.819   2.305
 1217SOL    HW3 4899   0.256   2.848   2.173
 1217SOL    MW4 4900   0.257   2.850   2.260
 1218SOL     OW 4901   0.276   3.114   2.343
 1218SOL    HW2 4902   0.193   3.157   2.325
 1218SOL    HW3 4903   0.261   3.023   2.317
 1218SOL    MW4 4904   0.263   3.107   2.337
 1219SOL     OW 4905   0.026   3.222   2.283
 1219SOL    HW2 4906   0.020   3.314   2.310
 1219SOL    HW3 4907   0.019   3.224   2.188
 1219SOL    MW4 4908   0.024   3.235   2.274
 1220SOL     OW 4909   0.001   3.485   2.371
 1220SOL    HW2 4910   0.010   3.487   2.467
 1220SOL    HW3 4911  -0.082   3.530   2.354
 1220SOL    MW4 4912  -0.009   3.491   2.382
 1221SOL     OW 4913   0.216   3.628   2.258
 1221SOL    HW2 4914   0.289   3.575   2.289
 1221SOL    HW3 4915   0.138   3.578   2.284
 1221SOL    MW4 4916   0.215   3.614   2.265
 1222SOL     OW 4917   0.214   3.892   2.350
 1222SOL    HW2 4918   0.133   3.932   2.319
 1222SOL    HW3 4919   0.209   3.801   2.321
 1222SOL    MW4 4920   0.203   3.885   2.342
 1223SOL     OW 4921   4.465   3.984   2.237
 1223SOL    HW2 4922   4.478   4.077   2.255
 1223SOL    HW3 4923   4.462   3.978   2.142
 1223SOL    MW4 4924   4.466   3.995   2.227
 1224SOL     OW 4925   0.014   4.231   2.362
 1224SOL    HW2 4926   0.004   4.223   2.457
 1224SOL    HW3 4927   0.082   4.297   2.351
 1224SOL    MW4 4928   0.021   4.239   2.373
 1225SOL     OW 4929   0.204   4.410   2.276
 1225SOL    HW2 4930   0.294   4.376   2.282
 1225SOL    HW3 4931   0.205   4.490   2.330
 1225SOL    MW4 4932   0.216   4.416   2.284
 1226SOL     OW 4933   0.674   4.659   2.322
 1226SOL    HW2 4934   0.670   4.638   2.415
 1226SOL    HW3 4935   0.757   4.704   2.310
 1226SOL    MW4 4936   0.684   4.662   2.332
 1227SOL     OW 4937   0.472   0.167   2.288
 1227SOL    HW2 4938   0.539   0.102   2.309
 1227SOL    HW3 4939   0.472   0.172   2.193
 1227SOL    MW4 4940   0.481   0.159   2.279
 1228SOL     OW 4941   0.451   0.414   2.407
 1228SOL    HW2 4942   0.422   0.387   2.494
 1228SOL    HW3 4943   0.476   0.333   2.364
 1228SOL    MW4 4944   0.450   0.400   2.413
 1229SOL     OW 4945   0.661   0.525   2.258
 1229SOL    HW2 4946   0.653   0.619   2.271
 1229SOL    HW3 4947   0.593   0.487   2.314
 1229SOL    MW4 4948   0.651   0.532   2.267
 1230SOL     OW 4949   0.676   0.780   2.334
 1230SOL    HW2 4950   0.666   0.756   2.426
 1230SOL    HW3 4951   0.593   0.822   2.311
 1230SOL    MW4 4952   0.664   0.783   2.343
 1231SOL     OW 4953   0.443   0.881   2.228
 1231SOL    HW2 4954   0.372   0.828   2.263
 1231SOL    HW3 4955   0.433   0.875   2.133
 1231SOL    MW4 4956   0.432   0.873   2.220
 1232SOL     OW 4957   0.437   1.145   2.334
 1232SOL    HW2 4958   0.435   1.055   2.300
 1232SOL    HW3 4959   0.357   1.185   2.298
 1232SOL    MW4 4960   0.426   1.138   2.325
 1233SOL     OW 4961   0.675   1.298   2.240
 1233SOL    HW2 4962   0.678   1.383   2.285
 1233SOL    HW3 4963   0.604   1.251   2.284
 1233SOL    MW4 4964   0.666   1.303   2.252
 1234SOL     OW 4965   0.670   1.543   2.379
 1234SOL    HW2 4966   0.679   1.538   2.475
 1234SOL    HW3 4967   0.747   1.593   2.351
 1234SOL    MW4 4968   0.682   1.549   2.388
 1235SOL     OW 4969   0.447   1.654   2.240
 1235SOL    HW2 4970   0.519   1.626   2.297
 1235SOL    HW3 4971   0.370   1.608   2.274
 1235SOL    MW4 4972   0.446   1.645   2.252
 1236SOL     OW 4973   0.444   1.907   2.377
 1236SOL    HW2 4974   0.512   1.960   2.337
 1236SOL    HW3 4975   0.447   1.824   2.329
 1236SOL    MW4 4976   0.453   1.903   2.365
 1237SOL     OW 4977   0.631   2.080   2.275
 1237SOL    HW2 4978   0.719   2.055   2.303
 1237SOL    HW3 4979   0.618   2.168   2.310
 1237SOL    MW4 4980   0.641   2.088   2.283
 1238SOL     OW 4981   0.660   2.337   2.378
 1238SOL    HW2 4982   0.660   2.331   2.474
 1238SOL    HW3 4983   0.750   2.360   2.355
 1238SOL    MW4 4984   0.671   2.339   2.388
 1239SOL     OW 4985   0.425   2.448   2.247
 1239SOL    HW2 4986   0.495   2.399   2.291
 1239SOL    HW3 4987   0.344   2.406   2.277
 1239SOL    MW4 4988   0.424   2.436   2.257
 1240SOL     OW 4989   0.464   2.702   2.358
 1240SOL    HW2 4990   0.428   2.687   2.445
 1240SOL    HW3 4991   0.453   2.618   2.313
 1240SOL    MW4 4992   0.458   2.689   2.364
 1241SOL     OW 4993   0.681   2.831   2.287
 1241SOL    HW2 4994   0.757   2.779   2.313
 1241SOL    HW3 4995   0.606   2.785   2.324
 1241SOL    MW4 4996   0.681   2.818   2.295
 1242SOL     OW 4997   0.702   3.076   2.393
 1242SOL    HW2 4998   0.631   3.123   2.349
 1242SOL    HW3 4999   0.692   2.985   2.363
 1242SOL    MW4 5000   0.691   3.070   2.383
 1243SOL     OW 5001   0.510   3.228   2.255
 1243SOL    HW2 5002   0.437   3.177   2.290
 1243SOL    HW3 5003   0.493   3.231   2.161
 1243SOL    MW4 5004   0.498   3.221   2.247
 1244SOL     OW 5005   0.434   3.493   2.343
 1244SOL    HW2 5006   0.513   3.522   2.296
 1244SOL    HW3 5007   0.431   3.398   2.328
 1244SOL    MW4 5008   0.444   3.484   2.335
 1245SOL     OW 5009   0.664   3.619   2.247
 1245SOL    HW2 5010   0.681   3.712   2.262
 1245SOL    HW3 5011   0.668   3.608   2.152
 1245SOL    MW4 5012   0.666   3.630   2.237
 1246SOL     OW 5013   0.700   3.879   2.366
 1246SOL    HW2 5014   0.689   3.881   2.461
 1246SOL    HW3 5015   0.623   3.925   2.332
 1246SOL    MW4 5016   0.689   3.885   2.374
 1247SOL     OW 5017   0.468   4.026   2.284
 1247SOL    HW2 5018   0.395   3.981   2.326
 1247SOL    HW3 5019   0.454   4.012   2.191
 1247SOL    MW4 5020   0.456   4.018   2.277
 1248SOL     OW 5021   0.449   4.296   2.332
 1248SOL    HW2 5022   0.535   4.330   2.308
 1248SOL    HW3 5023   0.458   4.201   2.325
 1248SOL    MW4 5024   0.462   4.288   2.328
 1249SOL     OW 5025   0.694   4.389   2.238
 1249SOL    HW2 5026   0.691   4.484   2.244
 1249SOL    HW3 5027   0.693   4.371   2.144
 1249SOL    MW4 5028   0.693   4.399   2.226
 1250SOL     OW 5029   1.091   4.595   2.321
 1250SOL    HW2 5030   1.096   4.581   2.415
 1250SOL    HW3 5031   1.038   4.673   2.310
 1250SOL    MW4 5032   1.085   4.603   2.332
 1251SOL     OW 5033   0.897   0.136   2.288
 1251SOL    HW2 5034   0.897   0.231   2.302
 1251SOL    HW3 5035   0.895   0.126   2.192
 1251SOL    MW4 5036   0.897   0.147   2.277
 1252SOL     OW 5037   0.895   0.399   2.369
 1252SOL    HW2 5038   0.981   0.441   2.360
 1252SOL    HW3 5039   0.836   0.453   2.316
 1252SOL    MW4 5040   0.899   0.412   2.361
 1253SOL     OW 5041   1.123   0.500   2.266
 1253SOL    HW2 5042   1.193   0.437   2.284
 1253SOL    HW3 5043   1.101   0.487   2.174
 1253SOL    MW4 5044   1.129   0.490   2.256
 1254SOL     OW 5045   1.136   0.760   2.370
 1254SOL    HW2 5046   1.063   0.792   2.317
 1254SOL    HW3 5047   1.149   0.670   2.341
 1254SOL    MW4 5048   1.128   0.752   2.359
 1255SOL     OW 5049   0.913   0.894   2.242
 1255SOL    HW2 5050   0.911   0.979   2.286
 1255SOL    HW3 5051   0.839   0.847   2.280
 1255SOL    MW4 5052   0.903   0.899   2.253
 1256SOL     OW 5053   0.904   1.150   2.347
 1256SOL    HW2 5054   0.986   1.186   2.315
 1256SOL    HW3 5055   0.837   1.206   2.308
 1256SOL    MW4 5056   0.906   1.162   2.338
 1257SOL     OW 5057   1.143   1.296   2.254
 1257SOL    HW2 5058   1.212   1.247   2.299
 1257SOL    HW3 5059   1.169   1.297   2.162
 1257SOL    MW4 5060   1.156   1.290   2.248
 1258SOL     OW 5061   1.137   1.553   2.376
 1258SOL    HW2 5062   1.060   1.604   2.354
 1258SOL    HW3 5063   1.125   1.469   2.330
 1258SOL    MW4 5064   1.125   1.548   2.367
 1259SOL     OW 5065   0.915   1.694   2.280
 1259SOL    HW2 5066   0.892   1.784   2.301
 1259SOL    HW3 5067   0.906   1.688   2.185
 1259SOL    MW4 5068   0.911   1.705   2.270
 1260SOL     OW 5069   0.888   1.961   2.355
 1260SOL    HW2 5070   0.888   1.950   2.451
 1260SOL    HW3 5071   0.974   1.997   2.336
 1260SOL    MW4 5072   0.900   1.964   2.365
 1261SOL     OW 5073   1.157   2.039   2.281
 1261SOL    HW2 5074   1.232   1.987   2.310
 1261SOL    HW3 5075   1.146   2.017   2.188
 1261SOL    MW4 5076   1.165   2.029   2.272
 1262SOL     OW 5077   1.137   2.334   2.361
 1262SOL    HW2 5078   1.216   2.389   2.352
 1262SOL    HW3 5079   1.164   2.248   2.328
 1262SOL    MW4 5080   1.151   2.330   2.355
 1263SOL     OW 5081   0.895   2.434   2.269
 1263SOL    HW2 5082   0.978   2.408   2.309
 1263SOL    HW3 5083   0.908   2.419   2.175
 1263SOL    MW4 5084   0.908   2.428   2.262
 1264SOL     OW 5085   0.924   2.689   2.353
 1264SOL    HW2 5086   0.933   2.687   2.449
 1264SOL    HW3 5087   0.909   2.598   2.328
 1264SOL    MW4 5088   0.923   2.677   2.363
 1265SOL     OW 5089   1.103   2.858   2.244
 1265SOL    HW2 5090   1.190   2.826   2.269
 1265SOL    HW3 5091   1.043   2.792   2.280
 1265SOL    MW4 5092   1.107   2.845   2.252
 1266SOL     OW 5093   1.107   3.099   2.370
 1266SOL    HW2 5094   1.039   3.157   2.337
 1266SOL    HW3 5095   1.090   3.015   2.326
 1266SOL    MW4 5096   1.096   3.096   2.360
 1267SOL     OW 5097   0.897   3.218   2.242
 1267SOL    HW2 5098   0.908   3.310   2.269
 1267SOL    HW3 5099   0.836   3.182   2.305
 1267SOL    MW4 5100   0.891   3.225   2.254
 1268SOL     OW 5101   0.892   3.483   2.373
 1268SOL    HW2 5102   0.886   3.467   2.468
 1268SOL    HW3 5103   0.809   3.526   2.351
 1268SOL    MW4 5104   0.880   3.487   2.383
 1269SOL     OW 5105   1.109   3.611   2.281
 1269SOL    HW2 5106   1.175   3.557   2.324
 1269SOL    HW3 5107   1.025   3.576   2.310
 1269SOL    MW4 5108   1.107   3.599   2.290
 1270SOL     OW 5109   1.143   3.880   2.325
 1270SOL    HW2 5110   1.228   3.918   2.301
 1270SOL    HW3 5111   1.150   3.788   2.301
 1270SOL    MW4 5112   1.155   3.873   2.319
 1271SOL     OW 5113   0.923   3.992   2.220
 1271SOL    HW2 5114   1.010   3.976   2.257
 1271SOL    HW3 5115   0.866   3.927   2.262
 1271SOL    MW4 5116   0.927   3.981   2.230
 1272SOL     OW 5117   0.895   4.243   2.352
 1272SOL    HW2 5118   0.870   4.153   2.330
 1272SOL    HW3 5119   0.821   4.296   2.321
 1272SOL    MW4 5120   0.882   4.238   2.345
 1273SOL     OW 5121   1.112   4.338   2.220
 1273SOL    HW2 5122   1.044   4.287   2.263
 1273SOL    HW3 5123   1.094   4.428   2.246
 1273SOL    MW4 5124   1.101   4.343   2.229
 1274SOL     OW 5125   1.575   4.645   2.372
 1274SOL    HW2 5126   1.651   4.675   2.322
 1274SOL    HW3 5127   1.502   4.698   2.340
 1274SOL    MW4 5128   1.575   4.656   2.361
 1275SOL     OW 5129   1.325   0.075   2.258
 1275SOL    HW2 5130   1.305   0.165   2.282
 1275SOL    HW3 5131   1.246   0.026   2.280
 1275SOL    MW4 5132   1.312   0.080   2.264
 1276SOL     OW 5133   1.323   0.339   2.348
 1276SOL    HW2 5134   1.304   0.349   2.441
 1276SOL    HW3 5135   1.414   0.367   2.339
 1276SOL    MW4 5136   1.332   0.344   2.359
 1277SOL     OW 5137   1.559   0.465   2.289
 1277SOL    HW2 5138   1.648   0.436   2.305
 1277SOL    HW3 5139   1.551   0.467   2.193
 1277SOL    MW4 5140   1.569   0.462   2.278
 1278SOL     OW 5141   1.554   0.743   2.360
 1278SOL    HW2 5142   1.640   0.784   2.347
 1278SOL    HW3 5143   1.572   0.649   2.358
 1278SOL    MW4 5144   1.568   0.736   2.358
 1279SOL     OW 5145   1.353   0.899   2.263
 1279SOL    HW2 5146   1.431   0.862   2.304
 1279SOL    HW3 5147   1.280   0.846   2.297
 1279SOL    MW4 5148   1.353   0.887   2.273
 1280SOL     OW 5149   1.363   1.153   2.373
 1280SOL    HW2 5150   1.348   1.144   2.467
 1280SOL    HW3 5151   1.358   1.063   2.340
 1280SOL    MW4 5152   1.360   1.140   2.381
 1281SOL     OW 5153   1.579   1.276   2.232
 1281SOL    HW2 5154   1.495   1.246   2.268
 1281SOL    HW3 5155   1.565   1.275   2.137
 1281SOL    MW4 5156   1.566   1.272   2.224
 1282SOL     OW 5157   1.557   1.531   2.348
 1282SOL    HW2 5158   1.640   1.571   2.323
 1282SOL    HW3 5159   1.555   1.448   2.300
 1282SOL    MW4 5160   1.568   1.525   2.338
 1283SOL     OW 5161   1.351   1.685   2.263
 1283SOL    HW2 5162   1.425   1.634   2.297
 1283SOL    HW3 5163   1.274   1.646   2.303
 1283SOL    MW4 5164   1.351   1.673   2.273
 1284SOL     OW 5165   1.371   1.914   2.404
 1284SOL    HW2 5166   1.435   1.964   2.353
 1284SOL    HW3 5167   1.364   1.830   2.359
 1284SOL    MW4 5168   1.379   1.909   2.391
 1285SOL     OW 5169   1.591   2.045   2.267
 1285SOL    HW2 5170   1.671   1.996   2.281
 1285SOL    HW3 5171   1.568   2.028   2.176
 1285SOL    MW4 5172   1.598   2.036   2.257
 1286SOL     OW 5173   1.565   2.311   2.327
 1286SOL    HW2 5174   1.537   2.305   2.418
 1286SOL    HW3 5175   1.604   2.225   2.309
 1286SOL    MW4 5176   1.566   2.299   2.337
 1287SOL     OW 5177   1.348   2.475   2.265
 1287SOL    HW2 5178   1.429   2.423   2.271
 1287SOL    HW3 5179   1.335   2.486   2.171
 1287SOL    MW4 5180   1.357   2.470   2.253
 1288SOL     OW 5181   1.333   2.750   2.338
 1288SOL    HW2 5182   1.410   2.806   2.328
 1288SOL    HW3 5183   1.365   2.662   2.318
 1288SOL    MW4 5184   1.347   2.746   2.334
 1289SOL     OW 5185   1.587   2.875   2.252
 1289SOL    HW2 5186   1.599   2.969   2.262
 1289SOL    HW3 5187   1.595   2.860   2.158
 1289SOL    MW4 5188   1.589   2.885   2.241
 1290SOL     OW 5189   1.588   3.138   2.330
 1290SOL    HW2 5190   1.578   3.121   2.423
 1290SOL    HW3 5191   1.500   3.160   2.300
 1290SOL    MW4 5192   1.575   3.139   2.338
 1291SOL     OW 5193   1.342   3.198   2.248
 1291SOL    HW2 5194   1.263   3.154   2.280
 1291SOL    HW3 5195   1.332   3.198   2.153
 1291SOL    MW4 5196   1.330   3.192   2.239
 1292SOL     OW 5197   1.367   3.493   2.382
 1292SOL    HW2 5198   1.359   3.483   2.477
 1292SOL    HW3 5199   1.400   3.409   2.351
 1292SOL    MW4 5200   1.370   3.481   2.390
 1293SOL     OW 5201   1.565   3.622   2.253
 1293SOL    HW2 5202   1.572   3.711   2.288
 1293SOL    HW3 5203   1.500   3.579   2.309
 1293SOL    MW4 5204   1.558   3.628   2.265
 1294SOL     OW 5205   1.580   3.884   2.350
 1294SOL    HW2 5206   1.575   3.884   2.445
 1294SOL    HW3 5207   1.661   3.931   2.329
 1294SOL    MW4 5208   1.590   3.890   2.359
 1295SOL     OW 5209   1.370   4.016   2.227
 1295SOL    HW2 5210   1.449   3.970   2.255
 1295SOL    HW3 5211   1.372   4.012   2.131
 1295SOL    MW4 5212   1.380   4.009   2.218
 1296SOL     OW 5213   1.339   4.261   2.347
 1296SOL    HW2 5214   1.360   4.179   2.303
 1296SOL    HW3 5215   1.260   4.293   2.303
 1296SOL    MW4 5216   1.332   4.254   2.335
 1297SOL     OW 5217   1.560   4.405   2.271
 1297SOL    HW2 5218   1.478   4.378   2.313
 1297SOL    HW3 5219   1.568   4.498   2.291
 1297SOL    MW4 5220   1.550   4.414   2.279
 1298SOL     OW 5221   1.995   4.631   2.348
 1298SOL    HW2 5222   2.069   4.681   2.314
 1298SOL    HW3 5223   2.013   4.541   2.322
 1298SOL    MW4 5224   2.007   4.625   2.340
 1299SOL     OW 5225   1.781   0.084   2.223
 1299SOL    HW2 5226   1.782   0.172   2.260
 1299SOL    HW3 5227   1.864   0.045   2.251
 1299SOL    MW4 5228   1.792   0.090   2.232
 1300SOL     OW 5229   1.799   0.338   2.370
 1300SOL    HW2 5230   1.799   0.362   2.462
 1300SOL    HW3 5231   1.877   0.380   2.334
 1300SOL    MW4 5232   1.809   0.346   2.377
 1301SOL     OW 5233   2.031   0.473   2.279
 1301SOL    HW2 5234   2.045   0.560   2.315
 1301SOL    HW3 5235   2.030   0.486   2.184
 1301SOL    MW4 5236   2.033   0.486   2.271
 1302SOL     OW 5237   2.040   0.742   2.340
 1302SOL    HW2 5238   2.112   0.791   2.300
 1302SOL    HW3 5239   1.961   0.791   2.315
 1302SOL    MW4 5240   2.039   0.755   2.332
 1303SOL     OW 5241   1.796   0.867   2.285
 1303SOL    HW2 5242   1.788   0.957   2.316
 1303SOL    HW3 5243   1.786   0.872   2.190
 1303SOL    MW4 5244   1.794   0.879   2.277
 1304SOL     OW 5245   1.791   1.143   2.359
 1304SOL    HW2 5246   1.867   1.190   2.326
 1304SOL    HW3 5247   1.720   1.166   2.299
 1304SOL    MW4 5248   1.791   1.152   2.347
 1305SOL     OW 5249   2.023   1.249   2.244
 1305SOL    HW2 5250   2.024   1.332   2.290
 1305SOL    HW3 5251   2.036   1.272   2.151
 1305SOL    MW4 5252   2.025   1.263   2.237
 1306SOL     OW 5253   2.004   1.499   2.394
 1306SOL    HW2 5254   1.997   1.500   2.490
 1306SOL    HW3 5255   1.925   1.544   2.364
 1306SOL    MW4 5256   1.993   1.505   2.403
 1307SOL     OW 5257   1.796   1.651   2.271
 1307SOL    HW2 5258   1.793   1.744   2.293
 1307SOL    HW3 5259   1.802   1.648   2.176
 1307SOL    MW4 5260   1.796   1.663   2.262
 1308SOL     OW 5261   1.810   1.902   2.349
 1308SOL    HW2 5262   1.802   1.922   2.443
 1308SOL    HW3 5263   1.885   1.953   2.321
 1308SOL    MW4 5264   1.819   1.911   2.358
 1309SOL     OW 5265   2.004   2.111   2.288
 1309SOL    HW2 5266   2.085   2.068   2.314
 1309SOL    HW3 5267   1.995   2.090   2.195
 1309SOL    MW4 5268   2.013   2.103   2.279
 1310SOL     OW 5269   2.010   2.374   2.358
 1310SOL    HW2 5270   2.092   2.401   2.316
 1310SOL    HW3 5271   1.999   2.283   2.331
 1310SOL    MW4 5272   2.019   2.366   2.349
 1311SOL     OW 5273   1.783   2.475   2.239
 1311SOL    HW2 5274   1.856   2.442   2.291
 1311SOL    HW3 5275   1.708   2.423   2.267
 1311SOL    MW4 5276   1.783   2.464   2.250
 1312SOL     OW 5277   1.795   2.732   2.376
 1312SOL    HW2 5278   1.786   2.647   2.335
 1312SOL    HW3 5279   1.723   2.784   2.340
 1312SOL    MW4 5280   1.784   2.728   2.366
 1313SOL     OW 5281   2.030   2.857   2.241
 1313SOL    HW2 5282   2.109   2.808   2.266
 1313SOL    HW3 5283   1.959   2.813   2.288
 1313SOL    MW4 5284   2.031   2.845   2.250
 1314SOL     OW 5285   2.039   3.112   2.331
 1314SOL    HW2 5286   2.119   3.149   2.292
 1314SOL    HW3 5287   2.042   3.019   2.310
 1314SOL    MW4 5288   2.050   3.105   2.323
 1315SOL     OW 5289   1.802   3.244   2.222
 1315SOL    HW2 5290   1.878   3.211   2.269
 1315SOL    HW3 5291   1.729   3.191   2.255
 1315SOL    MW4 5292   1.802   3.233   2.233
 1316SOL     OW 5293   1.801   3.508   2.340
 1316SOL    HW2 5294   1.788   3.421   2.304
 1316SOL    HW3 5295   1.726   3.559   2.308
 1316SOL    MW4 5296   1.789   3.503   2.331
 1317SOL     OW 5297   1.983   3.684   2.236
 1317SOL    HW2 5298   1.922   3.620   2.273
 1317SOL    HW3 5299   1.980   3.669   2.142
 1317SOL    MW4 5300   1.975   3.674   2.229
 1318SOL     OW 5301   2.057   3.927   2.344
 1318SOL    HW2 5302   2.045   3.932   2.439
 1318SOL    HW3 5303   2.020   3.842   2.319
 1318SOL    MW4 5304   2.051   3.917   2.353
 1319SOL     OW 5305   1.816   4.029   2.243
 1319SOL    HW2 5306   1.898   3.986   2.268
 1319SOL    HW3 5307   1.810   4.015   2.148
 1319SOL    MW4 5308   1.826   4.021   2.234
 1320SOL     OW 5309   1.777   4.262   2.382
 1320SOL    HW2 5310   1.791   4.182   2.331
 1320SOL    HW3 5311   1.699   4.301   2.342
 1320SOL    MW4 5312   1.769   4.257   2.370
 1321SOL     OW 5313   2.021   4.368   2.280
 1321SOL    HW2 5314   1.948   4.329   2.327
 1321SOL    HW3 5315   2.000   4.354   2.187
 1321SOL    MW4 5316   2.009   4.361   2.274
 1322SOL     OW 5317   2.459   4.613   2.340
 1322SOL    HW2 5318   2.533   4.667   2.313
 1322SOL    HW3 5319   2.476   4.527   2.300
 1322SOL    MW4 5320   2.471   4.609   2.331
 1323SOL     OW 5321   2.235   0.079   2.267
 1323SOL    HW2 5322   2.246   0.168   2.299
 1323SOL    HW3 5323   2.312   0.032   2.299
 1323SOL    MW4 5324   2.247   0.084   2.276
 1324SOL     OW 5325   2.250   0.328   2.369
 1324SOL    HW2 5326   2.316   0.386   2.331
 1324SOL    HW3 5327   2.166   0.369   2.350
 1324SOL    MW4 5328   2.248   0.341   2.362
 1325SOL     OW 5329   2.431   0.485   2.251
 1325SOL    HW2 5330   2.513   0.442   2.277
 1325SOL    HW3 5331   2.440   0.497   2.156
 1325SOL    MW4 5332   2.443   0.481   2.242
 1326SOL     OW 5333   2.467   0.756   2.327
 1326SOL    HW2 5334   2.556   0.780   2.300
 1326SOL    HW3 5335   2.461   0.662   2.308
 1326SOL    MW4 5336   2.478   0.747   2.321
 1327SOL     OW 5337   2.245   0.871   2.200
 1327SOL    HW2 5338   2.234   0.937   2.268
 1327SOL    HW3 5339   2.316   0.815   2.232
 1327SOL    MW4 5340   2.253   0.872   2.213
 1328SOL     OW 5341   2.211   1.081   2.374
 1328SOL    HW2 5342   2.284   1.132   2.339
 1328SOL    HW3 5343   2.133   1.122   2.336
 1328SOL    MW4 5344   2.210   1.093   2.364
 1329SOL     OW 5345   2.442   1.231   2.265
 1329SOL    HW2 5346   2.525   1.191   2.289
 1329SOL    HW3 5347   2.450   1.322   2.294
 1329SOL    MW4 5348   2.454   1.238   2.272
 1330SOL     OW 5349   2.476   1.496   2.341
 1330SOL    HW2 5350   2.478   1.514   2.435
 1330SOL    HW3 5351   2.542   1.554   2.304
 1330SOL    MW4 5352   2.485   1.506   2.348
 1331SOL     OW 5353   2.247   1.667   2.287
 1331SOL    HW2 5354   2.332   1.629   2.309
 1331SOL    HW3 5355   2.186   1.626   2.348
 1331SOL    MW4 5356   2.250   1.657   2.298
 1332SOL     OW 5357   2.247   1.962   2.345
 1332SOL    HW2 5358   2.331   1.988   2.305
 1332SOL    HW3 5359   2.228   1.877   2.305
 1332SOL    MW4 5360   2.256   1.954   2.334
 1333SOL     OW 5361   2.487   2.064   2.235
 1333SOL    HW2 5362   2.547   1.996   2.266
 1333SOL    HW3 5363   2.475   2.044   2.142
 1333SOL    MW4 5364   2.494   2.052   2.227
 1334SOL     OW 5365   2.451   2.327   2.319
 1334SOL    HW2 5366   2.529   2.375   2.291
 1334SOL    HW3 5367   2.461   2.240   2.283
 1334SOL    MW4 5368   2.462   2.322   2.311
 1335SOL     OW 5369   2.245   2.479   2.242
 1335SOL    HW2 5370   2.252   2.570   2.268
 1335SOL    HW3 5371   2.328   2.440   2.270
 1335SOL    MW4 5372   2.257   2.486   2.249
 1336SOL     OW 5373   2.255   2.736   2.353
 1336SOL    HW2 5374   2.277   2.710   2.443
 1336SOL    HW3 5375   2.331   2.786   2.324
 1336SOL    MW4 5376   2.268   2.739   2.361
 1337SOL     OW 5377   2.456   2.886   2.249
 1337SOL    HW2 5378   2.538   2.847   2.279
 1337SOL    HW3 5379   2.463   2.888   2.154
 1337SOL    MW4 5380   2.468   2.881   2.241
 1338SOL     OW 5381   2.472   3.151   2.334
 1338SOL    HW2 5382   2.557   3.183   2.303
 1338SOL    HW3 5383   2.468   3.061   2.301
 1338SOL    MW4 5384   2.483   3.143   2.325
 1339SOL     OW 5385   2.247   3.264   2.191
 1339SOL    HW2 5386   2.227   3.352   2.222
 1339SOL    HW3 5387   2.331   3.242   2.233
 1339SOL    MW4 5388   2.255   3.273   2.201
 1340SOL     OW 5389   2.201   3.509   2.292
 1340SOL    HW2 5390   2.208   3.503   2.387
 1340SOL    HW3 5391   2.133   3.574   2.276
 1340SOL    MW4 5392   2.193   3.517   2.302
 1341SOL     OW 5393   2.490   3.625   2.190
 1341SOL    HW2 5394   2.501   3.713   2.226
 1341SOL    HW3 5395   2.410   3.592   2.231
 1341SOL    MW4 5396   2.481   3.632   2.200
 1342SOL     OW 5397   2.485   3.888   2.325
 1342SOL    HW2 5398   2.484   3.903   2.420
 1342SOL    HW3 5399   2.413   3.942   2.292
 1342SOL    MW4 5400   2.475   3.897   2.333
 1343SOL     OW 5401   2.288   4.031   2.216
 1343SOL    HW2 5402   2.277   4.122   2.245
 1343SOL    HW3 5403   2.218   3.983   2.261
 1343SOL    MW4 5404   2.277   4.037   2.226
 1344SOL     OW 5405   2.278   4.271   2.338
 1344SOL    HW2 5406   2.277   4.255   2.432
 1344SOL    HW3 5407   2.191   4.307   2.319
 1344SOL    MW4 5408   2.267   4.274   2.348
 1345SOL     OW 5409   2.504   4.371   2.218
 1345SOL    HW2 5410   2.567   4.304   2.244
 1345SOL    HW3 5411   2.424   4.347   2.264
 1345SOL    MW4 5412   2.502   4.359   2.228
 1346SOL     OW 5413   2.930   0.000   2.363
 1346SOL    HW2 5414   2.999   0.041   2.310
 1346SOL    HW3 5415   2.939  -0.094   2.346
 1346SOL    MW4 5416   2.941  -0.007   2.354
 1347SOL     OW 5417   2.685   0.101   2.252
 1347SOL    HW2 5418   2.688   0.196   2.263
 1347SOL    HW3 5419   2.765   0.070   2.296
 1347SOL    MW4 5420   2.696   0.110   2.259
 1348SOL     OW 5421   2.676   0.366   2.315
 1348SOL    HW2 5422   2.690   0.372   2.409
 1348SOL    HW3 5423   2.759   0.392   2.276
 1348SOL    MW4 5424   2.688   0.370   2.322
 1349SOL     OW 5425   2.896   0.472   2.205
 1349SOL    HW2 5426   2.917   0.559   2.238
 1349SOL    HW3 5427   2.892   0.484   2.110
 1349SOL    MW4 5428   2.898   0.485   2.197
 1350SOL     OW 5429   2.936   0.724   2.321
 1350SOL    HW2 5430   2.945   0.741   2.415
 1350SOL    HW3 5431   2.862   0.777   2.294
 1350SOL    MW4 5432   2.928   0.733   2.330
 1351SOL     OW 5433   2.695   0.851   2.222
 1351SOL    HW2 5434   2.708   0.940   2.256
 1351SOL    HW3 5435   2.701   0.860   2.127
 1351SOL    MW4 5436   2.697   0.864   2.214
 1352SOL     OW 5437   2.693   1.108   2.337
 1352SOL    HW2 5438   2.677   1.122   2.430
 1352SOL    HW3 5439   2.773   1.157   2.319
 1352SOL    MW4 5440   2.702   1.116   2.347
 1353SOL     OW 5441   2.899   1.274   2.267
 1353SOL    HW2 5442   2.981   1.240   2.302
 1353SOL    HW3 5443   2.912   1.274   2.172
 1353SOL    MW4 5444   2.911   1.269   2.259
 1354SOL     OW 5445   2.881   1.542   2.372
 1354SOL    HW2 5446   2.881   1.544   2.468
 1354SOL    HW3 5447   2.871   1.449   2.351
 1354SOL    MW4 5448   2.880   1.530   2.382
 1355SOL     OW 5449   2.666   1.657   2.236
 1355SOL    HW2 5450   2.743   1.621   2.280
 1355SOL    HW3 5451   2.690   1.655   2.143
 1355SOL    MW4 5452   2.679   1.652   2.229
 1356SOL     OW 5453   2.677   1.903   2.323
 1356SOL    HW2 5454   2.667   1.906   2.418
 1356SOL    HW3 5455   2.668   1.811   2.300
 1356SOL    MW4 5456   2.674   1.891   2.332
 1357SOL     OW 5457   2.876   2.086   2.242
 1357SOL    HW2 5458   2.952   2.053   2.289
 1357SOL    HW3 5459   2.804   2.030   2.270
 1357SOL    MW4 5460   2.877   2.074   2.252
 1358SOL     OW 5461   2.909   2.348   2.322
 1358SOL    HW2 5462   2.882   2.339   2.413
 1358SOL    HW3 5463   2.913   2.259   2.288
 1358SOL    MW4 5464   2.906   2.335   2.329
 1359SOL     OW 5465   2.680   2.473   2.240
 1359SOL    HW2 5466   2.758   2.423   2.264
 1359SOL    HW3 5467   2.671   2.459   2.146
 1359SOL    MW4 5468   2.689   2.465   2.231
 1360SOL     OW 5469   2.697   2.757   2.352
 1360SOL    HW2 5470   2.786   2.775   2.321
 1360SOL    HW3 5471   2.681   2.666   2.328
 1360SOL    MW4 5472   2.707   2.748   2.344
 1361SOL     OW 5473   2.947   2.806   2.275
 1361SOL    HW2 5474   2.971   2.891   2.313
 1361SOL    HW3 5475   2.961   2.817   2.181
 1361SOL    MW4 5476   2.952   2.818   2.268
 1362SOL     OW 5477   2.953   3.083   2.333
 1362SOL    HW2 5478   3.027   3.130   2.293
 1362SOL    HW3 5479   2.876   3.132   2.305
 1362SOL    MW4 5480   2.953   3.096   2.324
 1363SOL     OW 5481   2.733   3.225   2.245
 1363SOL    HW2 5482   2.736   3.318   2.268
 1363SOL    HW3 5483   2.732   3.224   2.149
 1363SOL    MW4 5484   2.733   3.237   2.235
 1364SOL     OW 5485   2.709   3.496   2.302
 1364SOL    HW2 5486   2.786   3.539   2.265
 1364SOL    HW3 5487   2.635   3.538   2.260
 1364SOL    MW4 5488   2.710   3.507   2.292
 1365SOL     OW 5489   2.958   3.627   2.198
 1365SOL    HW2 5490   3.029   3.575   2.236
 1365SOL    HW3 5491   2.972   3.715   2.235
 1365SOL    MW4 5492   2.970   3.632   2.208
 1366SOL     OW 5493   2.993   3.878   2.305
 1366SOL    HW2 5494   3.004   3.869   2.400
 1366SOL    HW3 5495   2.903   3.909   2.295
 1366SOL    MW4 5496   2.982   3.881   2.316
 1367SOL     OW 5497   2.735   3.965   2.238
 1367SOL    HW2 5498   2.652   3.933   2.273
 1367SOL    HW3 5499   2.724   3.962   2.143
 1367SOL    MW4 5500   2.723   3.960   2.230
 1368SOL     OW 5501   2.723   4.232   2.309
 1368SOL    HW2 5502   2.733   4.234   2.404
 1368SOL    HW3 5503   2.724   4.139   2.287
 1368SOL    MW4 5504   2.725   4.220   2.318
 1369SOL     OW 5505   2.914   4.412   2.242
 1369SOL    HW2 5506   2.996   4.367   2.260
 1369SOL    HW3 5507   2.846   4.353   2.274
 1369SOL    MW4 5508   2.916   4.398   2.248
 1370SOL     OW 5509   3.380   0.027   2.308
 1370SOL    HW2 5510   3.375   0.020   2.404
 1370SOL    HW3 5511   3.472   0.043   2.290
 1370SOL    MW4 5512   3.391   0.028   2.318
 1371SOL     OW 5513   3.127   0.133   2.220
 1371SOL    HW2 5514   3.122   0.205   2.283
 1371SOL    HW3 5515   3.215   0.097   2.231
 1371SOL    MW4 5516   3.138   0.137   2.230
 1372SOL     OW 5517   3.112   0.363   2.342
 1372SOL    HW2 5518   3.190   0.405   2.306
 1372SOL    HW3 5519   3.041   0.392   2.285
 1372SOL    MW4 5520   3.113   0.372   2.330
 1373SOL     OW 5521   3.342   0.477   2.238
 1373SOL    HW2 5522   3.411   0.413   2.252
 1373SOL    HW3 5523   3.346   0.499   2.145
 1373SOL    MW4 5524   3.351   0.472   2.228
 1374SOL     OW 5525   3.377   0.736   2.358
 1374SOL    HW2 5526   3.454   0.764   2.309
 1374SOL    HW3 5527   3.374   0.641   2.346
 1374SOL    MW4 5528   3.387   0.727   2.350
 1375SOL     OW 5529   3.163   0.876   2.266
 1375SOL    HW2 5530   3.242   0.831   2.294
 1375SOL    HW3 5531   3.095   0.809   2.270
 1375SOL    MW4 5532   3.164   0.861   2.270
 1376SOL     OW 5533   3.130   1.146   2.364
 1376SOL    HW2 5534   3.201   1.186   2.314
 1376SOL    HW3 5535   3.149   1.052   2.363
 1376SOL    MW4 5536   3.142   1.139   2.357
 1377SOL     OW 5537   3.340   1.291   2.240
 1377SOL    HW2 5538   3.408   1.239   2.281
 1377SOL    HW3 5539   3.347   1.378   2.280
 1377SOL    MW4 5540   3.350   1.296   2.250
 1378SOL     OW 5541   3.336   1.539   2.346
 1378SOL    HW2 5542   3.340   1.538   2.442
 1378SOL    HW3 5543   3.252   1.580   2.326
 1378SOL    MW4 5544   3.326   1.545   2.356
 1379SOL     OW 5545   3.100   1.676   2.275
 1379SOL    HW2 5546   3.097   1.765   2.311
 1379SOL    HW3 5547   3.021   1.634   2.308
 1379SOL    MW4 5548   3.089   1.683   2.284
 1380SOL     OW 5549   3.085   1.932   2.370
 1380SOL    HW2 5550   3.073   1.905   2.460
 1380SOL    HW3 5551   3.179   1.950   2.363
 1380SOL    MW4 5552   3.096   1.931   2.381
 1381SOL     OW 5553   3.342   1.995   2.271
 1381SOL    HW2 5554   3.427   1.993   2.316
 1381SOL    HW3 5555   3.363   1.973   2.180
 1381SOL    MW4 5556   3.356   1.992   2.265
 1382SOL     OW 5557   3.375   2.280   2.337
 1382SOL    HW2 5558   3.306   2.329   2.292
 1382SOL    HW3 5559   3.358   2.189   2.314
 1382SOL    MW4 5560   3.364   2.275   2.328
 1383SOL     OW 5561   3.165   2.410   2.237
 1383SOL    HW2 5562   3.164   2.503   2.263
 1383SOL    HW3 5563   3.083   2.375   2.272
 1383SOL    MW4 5564   3.154   2.418   2.245
 1384SOL     OW 5565   3.178   2.665   2.358
 1384SOL    HW2 5566   3.174   2.625   2.445
 1384SOL    HW3 5567   3.099   2.718   2.352
 1384SOL    MW4 5568   3.167   2.667   2.369
 1385SOL     OW 5569   3.430   2.790   2.261
 1385SOL    HW2 5570   3.438   2.874   2.307
 1385SOL    HW3 5571   3.350   2.752   2.295
 1385SOL    MW4 5572   3.421   2.796   2.272
 1386SOL     OW 5573   3.407   3.059   2.364
 1386SOL    HW2 5574   3.475   3.122   2.343
 1386SOL    HW3 5575   3.329   3.093   2.320
 1386SOL    MW4 5576   3.406   3.072   2.356
 1387SOL     OW 5577   3.196   3.205   2.246
 1387SOL    HW2 5578   3.189   3.298   2.267
 1387SOL    HW3 5579   3.191   3.202   2.150
 1387SOL    MW4 5580   3.194   3.217   2.236
 1388SOL     OW 5581   3.180   3.465   2.309
 1388SOL    HW2 5582   3.179   3.465   2.405
 1388SOL    HW3 5583   3.257   3.516   2.286
 1388SOL    MW4 5584   3.190   3.472   2.319
 1389SOL     OW 5585   3.416   3.595   2.229
 1389SOL    HW2 5586   3.497   3.549   2.253
 1389SOL    HW3 5587   3.419   3.598   2.133
 1389SOL    MW4 5588   3.427   3.589   2.219
 1390SOL     OW 5589   3.403   3.856   2.336
 1390SOL    HW2 5590   3.483   3.890   2.296
 1390SOL    HW3 5591   3.401   3.764   2.312
 1390SOL    MW4 5592   3.413   3.849   2.327
 1391SOL     OW 5593   3.214   4.011   2.191
 1391SOL    HW2 5594   3.283   3.991   2.254
 1391SOL    HW3 5595   3.142   3.952   2.215
 1391SOL    MW4 5596   3.213   4.001   2.203
 1392SOL     OW 5597   3.139   4.260   2.276
 1392SOL    HW2 5598   3.224   4.302   2.288
 1392SOL    HW3 5599   3.158   4.178   2.229
 1392SOL    MW4 5600   3.153   4.255   2.271
 1393SOL     OW 5601   3.406   4.407   2.266
 1393SOL    HW2 5602   3.386   4.500   2.273
 1393SOL    HW3 5603   3.419   4.392   2.173
 1393SOL    MW4 5604   3.405   4.417   2.255
 1394SOL     OW 5605   3.822   4.654   2.352
 1394SOL    HW2 5606   3.836   4.660   2.446
 1394SOL    HW3 5607   3.895   4.702   2.313
 1394SOL    MW4 5608   3.833   4.661   2.359
 1395SOL     OW 5609   3.623   0.098   2.211
 1395SOL    HW2 5610   3.634   0.188   2.241
 1395SOL    HW3 5611   3.684   0.047   2.264
 1395SOL    MW4 5612   3.632   0.103   2.222
 1396SOL     OW 5613   3.572   0.343   2.314
 1396SOL    HW2 5614   3.576   0.328   2.408
 1396SOL    HW3 5615   3.657   0.383   2.292
 1396SOL    MW4 5616   3.584   0.346   2.323
 1397SOL     OW 5617   3.803   0.452   2.246
 1397SOL    HW2 5618   3.795   0.541   2.279
 1397SOL    HW3 5619   3.818   0.462   2.152
 1397SOL    MW4 5620   3.804   0.465   2.238
 1398SOL     OW 5621   3.797   0.699   2.354
 1398SOL    HW2 5622   3.808   0.728   2.445
 1398SOL    HW3 5623   3.852   0.759   2.303
 1398SOL    MW4 5624   3.805   0.711   2.359
 1399SOL     OW 5625   3.586   0.865   2.240
 1399SOL    HW2 5626   3.650   0.805   2.277
 1399SOL    HW3 5627   3.606   0.867   2.146
 1399SOL    MW4 5628   3.597   0.857   2.232
 1400SOL     OW 5629   3.564   1.133   2.329
 1400SOL    HW2 5630   3.554   1.131   2.424
 1400SOL    HW3 5631   3.587   1.043   2.306
 1400SOL    MW4 5632   3.565   1.121   2.339
 1401SOL     OW 5633   3.813   1.287   2.230
 1401SOL    HW2 5634   3.822   1.371   2.274
 1401SOL    HW3 5635   3.729   1.253   2.260
 1401SOL    MW4 5636   3.803   1.294   2.240
 1402SOL     OW 5637   3.803   1.545   2.333
 1402SOL    HW2 5638   3.793   1.548   2.428
 1402SOL    HW3 5639   3.723   1.585   2.299
 1402SOL    MW4 5640   3.791   1.551   2.341
 1403SOL     OW 5641   3.569   1.684   2.254
 1403SOL    HW2 5642   3.488   1.639   2.276
 1403SOL    HW3 5643   3.575   1.679   2.158
 1403SOL    MW4 5644   3.559   1.678   2.244
 1404SOL     OW 5645   3.569   1.930   2.403
 1404SOL    HW2 5646   3.650   1.976   2.381
 1404SOL    HW3 5647   3.568   1.854   2.344
 1404SOL    MW4 5648   3.579   1.926   2.392
 1405SOL     OW 5649   3.793   2.046   2.290
 1405SOL    HW2 5650   3.879   2.010   2.310
 1405SOL    HW3 5651   3.789   2.047   2.194
 1405SOL    MW4 5652   3.803   2.041   2.280
 1406SOL     OW 5653   3.830   2.301   2.369
 1406SOL    HW2 5654   3.754   2.345   2.331
 1406SOL    HW3 5655   3.822   2.210   2.340
 1406SOL    MW4 5656   3.819   2.295   2.360
 1407SOL     OW 5657   3.603   2.400   2.221
 1407SOL    HW2 5658   3.534   2.346   2.260
 1407SOL    HW3 5659   3.582   2.403   2.128
 1407SOL    MW4 5660   3.591   2.394   2.214
 1408SOL     OW 5661   3.652   2.643   2.330
 1408SOL    HW2 5662   3.639   2.554   2.296
 1408SOL    HW3 5663   3.575   2.691   2.298
 1408SOL    MW4 5664   3.640   2.637   2.321
 1409SOL     OW 5665   3.875   2.810   2.267
 1409SOL    HW2 5666   3.859   2.902   2.291
 1409SOL    HW3 5667   3.797   2.764   2.294
 1409SOL    MW4 5668   3.863   2.816   2.273
 1410SOL     OW 5669   3.858   3.083   2.349
 1410SOL    HW2 5670   3.849   3.071   2.444
 1410SOL    HW3 5671   3.947   3.117   2.338
 1410SOL    MW4 5672   3.869   3.085   2.360
 1411SOL     OW 5673   3.611   3.200   2.265
 1411SOL    HW2 5674   3.617   3.289   2.298
 1411SOL    HW3 5675   3.688   3.156   2.300
 1411SOL    MW4 5676   3.622   3.206   2.274
 1412SOL     OW 5677   3.647   3.469   2.350
 1412SOL    HW2 5678   3.643   3.472   2.445
 1412SOL    HW3 5679   3.731   3.511   2.328
 1412SOL    MW4 5680   3.658   3.475   2.359
 1413SOL     OW 5681   3.879   3.604   2.285
 1413SOL    HW2 5682   3.856   3.694   2.308
 1413SOL    HW3 5683   3.862   3.598   2.191
 1413SOL    MW4 5684   3.874   3.615   2.276
 1414SOL     OW 5685   3.813   3.857   2.365
 1414SOL    HW2 5686   3.827   3.866   2.460
 1414SOL    HW3 5687   3.876   3.916   2.326
 1414SOL    MW4 5688   3.823   3.866   2.373
 1415SOL     OW 5689   3.607   4.025   2.208
 1415SOL    HW2 5690   3.606   4.103   2.263
 1415SOL    HW3 5691   3.683   3.975   2.238
 1415SOL    MW4 5692   3.617   4.028   2.219
 1416SOL     OW 5693   3.622   4.252   2.363
 1416SOL    HW2 5694   3.689   4.305   2.322
 1416SOL    HW3 5695   3.543   4.306   2.361
 1416SOL    MW4 5696   3.620   4.266   2.358
 1417SOL     OW 5697   3.837   4.400   2.245
 1417SOL    HW2 5698   3.917   4.366   2.284
 1417SOL    HW3 5699   3.833   4.491   2.273
 1417SOL    MW4 5700   3.847   4.408   2.254
 1418SOL     OW 5701   4.260   4.607   2.366
 1418SOL    HW2 5702   4.247   4.607   2.461
 1418SOL    HW3 5703   4.338   4.660   2.353
 1418SOL    MW4 5704   4.268   4.614   2.377
 1419SOL     OW 5705   4.068   0.081   2.226
 1419SOL    HW2 5706   4.062   0.173   2.254
 1419SOL    HW3 5707   4.140   0.045   2.277
 1419SOL    MW4 5708   4.077   0.089   2.236
 1420SOL     OW 5709   4.036   0.348   2.332
 1420SOL    HW2 5710   4.112   0.404   2.316
 1420SOL    HW3 5711   3.962   0.398   2.299
 1420SOL    MW4 5712   4.037   0.362   2.326
 1421SOL     OW 5713   4.241   0.508   2.257
 1421SOL    HW2 5714   4.233   0.598   2.289
 1421SOL    HW3 5715   4.315   0.472   2.306
 1421SOL    MW4 5716   4.250   0.515   2.268
 1422SOL     OW 5717   4.229   0.767   2.348
 1422SOL    HW2 5718   4.154   0.813   2.309
 1422SOL    HW3 5719   4.304   0.797   2.296
 1422SOL    MW4 5720   4.229   0.777   2.336
 1423SOL     OW 5721   4.002   0.869   2.248
 1423SOL    HW2 5722   3.997   0.957   2.286
 1423SOL    HW3 5723   4.009   0.885   2.153
 1423SOL    MW4 5724   4.003   0.883   2.240
 1424SOL     OW 5725   4.023   1.152   2.320
 1424SOL    HW2 5726   4.030   1.182   2.411
 1424SOL    HW3 5727   3.952   1.205   2.283
 1424SOL    MW4 5728   4.014   1.163   2.327
 1425SOL     OW 5729   4.236   1.274   2.211
 1425SOL    HW2 5730   4.160   1.231   2.249
 1425SOL    HW3 5731   4.311   1.227   2.249
 1425SOL    MW4 5732   4.236   1.262   2.221
 1426SOL     OW 5733   4.247   1.523   2.348
 1426SOL    HW2 5734   4.234   1.436   2.310
 1426SOL    HW3 5735   4.337   1.545   2.327
 1426SOL    MW4 5736   4.257   1.514   2.340
 1427SOL     OW 5737   4.026   1.679   2.257
 1427SOL    HW2 5738   4.101   1.631   2.293
 1427SOL    HW3 5739   3.951   1.622   2.273
 1427SOL    MW4 5740   4.026   1.665   2.264
 1428SOL     OW 5741   4.032   1.946   2.359
 1428SOL    HW2 5742   4.000   1.932   2.448
 1428SOL    HW3 5743   4.023   1.861   2.316
 1428SOL    MW4 5744   4.027   1.933   2.365
 1429SOL     OW 5745   4.271   2.055   2.268
 1429SOL    HW2 5746   4.274   2.138   2.316
 1429SOL    HW3 5747   4.191   2.013   2.298
 1429SOL    MW4 5748   4.261   2.060   2.278
 1430SOL     OW 5749   4.268   2.312   2.370
 1430SOL    HW2 5750   4.194   2.342   2.317
 1430SOL    HW3 5751   4.344   2.354   2.331
 1430SOL    MW4 5752   4.268   2.322   2.358
 1431SOL     OW 5753   4.057   2.403   2.221
 1431SOL    HW2 5754   4.065   2.484   2.270
 1431SOL    HW3 5755   3.981   2.359   2.259
 1431SOL    MW4 5756   4.048   2.408   2.232
 1432SOL     OW 5757   4.073   2.646   2.360
 1432SOL    HW2 5758   4.061   2.626   2.453
 1432SOL    HW3 5759   4.002   2.707   2.339
 1432SOL    MW4 5760   4.062   2.652   2.370
 1433SOL     OW 5761   4.304   2.770   2.230
 1433SOL    HW2 5762   4.228   2.726   2.268
 1433SOL    HW3 5763   4.379   2.737   2.280
 1433SOL    MW4 5764   4.304   2.760   2.241
 1434SOL     OW 5765   4.320   3.062   2.396
 1434SOL    HW2 5766   4.310   2.973   2.365
 1434SOL    HW3 5767   4.399   3.094   2.352
 1434SOL    MW4 5768   4.329   3.055   2.386
 1435SOL     OW 5769   4.104   3.189   2.257
 1435SOL    HW2 5770   4.099   3.279   2.288
 1435SOL    HW3 5771   4.173   3.149   2.310
 1435SOL    MW4 5772   4.112   3.196   2.268
 1436SOL     OW 5773   4.090   3.440   2.351
 1436SOL    HW2 5774   4.159   3.503   2.327
 1436SOL    HW3 5775   4.008   3.485   2.332
 1436SOL    MW4 5776   4.089   3.454   2.345
 1437SOL     OW 5777   4.274   3.634   2.277
 1437SOL    HW2 5778   4.233   3.718   2.297
 1437SOL    HW3 5779   4.270   3.627   2.182
 1437SOL    MW4 5780   4.268   3.644   2.267
 1438SOL     OW 5781   4.233   3.900   2.350
 1438SOL    HW2 5782   4.251   3.881   2.442
 1438SOL    HW3 5783   4.319   3.921   2.312
 1438SOL    MW4 5784   4.247   3.901   2.357
 1439SOL     OW 5785   4.018   4.017   2.254
 1439SOL    HW2 5786   4.091   3.973   2.296
 1439SOL    HW3 5787   4.044   4.025   2.162
 1439SOL    MW4 5788   4.031   4.012   2.247
 1440SOL     OW 5789   4.061   4.281   2.362
 1440SOL    HW2 5790   4.142   4.312   2.323
 1440SOL    HW3 5791   4.039   4.202   2.312
 1440SOL    MW4 5792   4.068   4.275   2.350
 1441SOL     OW 5793   4.310   4.370   2.241
 1441SOL    HW2 5794   4.301   4.448   2.297
 1441SOL    HW3 5795   4.378   4.318   2.284
 1441SOL    MW4 5796   4.318   4.374   2.254
 1442SOL     OW 5797   0.201   4.665   2.635
 1442SOL    HW2 5798   0.206   4.582   2.682
 1442SOL    HW3 5799   0.125   4.710   2.672
 1442SOL    MW4 5800   0.192   4.660   2.646
 1443SOL     OW 5801   4.469   0.094   2.741
 1443SOL    HW2 5802   4.475   0.085   2.836
 1443SOL    HW3 5803   4.458   0.188   2.726
 1443SOL    MW4 5804   4.468   0.105   2.752
 1444SOL     OW 5805   4.440   0.349   2.686
 1444SOL    HW2 5806   4.518   0.402   2.705
 1444SOL    HW3 5807   4.431   0.354   2.590
 1444SOL    MW4 5808   4.449   0.357   2.676
 1445SOL     OW 5809   0.169   0.534   2.737
 1445SOL    HW2 5810   0.162   0.533   2.833
 1445SOL    HW3 5811   0.244   0.477   2.718
 1445SOL    MW4 5812   0.178   0.526   2.747
 1446SOL     OW 5813   0.171   0.797   2.602
 1446SOL    HW2 5814   0.243   0.842   2.645
 1446SOL    HW3 5815   0.165   0.713   2.646
 1446SOL    MW4 5816   0.180   0.792   2.613
 1447SOL     OW 5817   4.451   0.924   2.751
 1447SOL    HW2 5818   4.374   0.870   2.736
 1447SOL    HW3 5819   4.522   0.880   2.703
 1447SOL    MW4 5820   4.450   0.911   2.743
 1448SOL     OW 5821   4.439   1.161   2.606
 1448SOL    HW2 5822   4.525   1.196   2.629
 1448SOL    HW3 5823   4.437   1.074   2.648
 1448SOL    MW4 5824   4.450   1.154   2.615
 1449SOL     OW 5825   0.179   1.269   2.706
 1449SOL    HW2 5826   0.264   1.230   2.683
 1449SOL    HW3 5827   0.178   1.353   2.660
 1449SOL    MW4 5828   0.190   1.275   2.697
 1450SOL     OW 5829   0.170   1.535   2.623
 1450SOL    HW2 5830   0.252   1.577   2.650
 1450SOL    HW3 5831   0.102   1.587   2.667
 1450SOL    MW4 5832   0.172   1.548   2.633
 1451SOL     OW 5833   4.439   1.669   2.755
 1451SOL    HW2 5834   4.466   1.659   2.847
 1451SOL    HW3 5835   4.446   1.763   2.738
 1451SOL    MW4 5836   4.444   1.680   2.765
 1452SOL     OW 5837   4.446   1.948   2.652
 1452SOL    HW2 5838   4.524   1.990   2.688
 1452SOL    HW3 5839   4.459   1.947   2.558
 1452SOL    MW4 5840   4.458   1.953   2.645
 1453SOL     OW 5841   0.169   2.074   2.756
 1453SOL    HW2 5842   0.252   2.043   2.718
 1453SOL    HW3 5843   0.158   2.162   2.721
 1453SOL    MW4 5844   0.179   2.081   2.746
 1454SOL     OW 5845   0.198   2.348   2.628
 1454SOL    HW2 5846   0.271   2.375   2.684
 1454SOL    HW3 5847   0.121   2.387   2.670
 1454SOL    MW4 5848   0.198   2.357   2.641
 1455SOL     OW 5849   4.466   2.433   2.788
 1455SOL    HW2 5850   4.461   2.423   2.883
 1455SOL    HW3 5851   4.390   2.387   2.754
 1455SOL    MW4 5852   4.456   2.426   2.796
 1456SOL     OW 5853   4.483   2.706   2.652
 1456SOL    HW2 5854   4.395   2.736   2.672
 1456SOL    HW3 5855   4.494   2.627   2.704
 1456SOL    MW4 5856   4.473   2.699   2.661
 1457SOL     OW 5857   0.243   2.838   2.748
 1457SOL    HW2 5858   0.245   2.922   2.702
 1457SOL    HW3 5859   0.161   2.798   2.720
 1457SOL    MW4 5860   0.232   2.844   2.738
 1458SOL     OW 5861   0.291   3.087   2.627
 1458SOL    HW2 5862   0.355   3.145   2.669
 1458SOL    HW3 5863   0.292   3.112   2.535
 1458SOL    MW4 5864   0.300   3.098   2.620
 1459SOL     OW 5865   0.056   3.198   2.781
 1459SOL    HW2 5866  -0.029   3.162   2.754
 1459SOL    HW3 5867   0.120   3.138   2.744
 1459SOL    MW4 5868   0.053   3.186   2.772
 1460SOL     OW 5869   0.020   3.446   2.648
 1460SOL    HW2 5870   0.094   3.504   2.665
 1460SOL    HW3 5871   0.040   3.366   2.698
 1460SOL    MW4 5872   0.033   3.443   2.657
 1461SOL     OW 5873   0.204   3.636   2.718
 1461SOL    HW2 5874   0.216   3.616   2.811
 1461SOL    HW3 5875   0.283   3.601   2.676
 1461SOL    MW4 5876   0.216   3.629   2.725
 1462SOL     OW 5877   0.194   3.917   2.638
 1462SOL    HW2 5878   0.192   3.828   2.673
 1462SOL    HW3 5879   0.206   3.906   2.544
 1462SOL    MW4 5880   0.195   3.904   2.630
 1463SOL     OW 5881   4.458   3.997   2.757
 1463SOL    HW2 5882   4.439   4.083   2.721
 1463SOL    HW3 5883   4.543   3.974   2.720
 1463SOL    MW4 5884   4.466   4.005   2.748
 1464SOL     OW 5885   4.488   4.265   2.640
 1464SOL    HW2 5886   4.416   4.322   2.666
 1464SOL    HW3 5887   4.566   4.305   2.679
 1464SOL    MW4 5888   4.489   4.278   2.649
 1465SOL     OW 5889   0.221   4.413   2.744
 1465SOL    HW2 5890   0.216   4.403   2.839
 1465SOL    HW3 5891   0.282   4.346   2.715
 1465SOL    MW4 5892   0.228   4.403   2.753
 1466SOL     OW 5893   0.679   4.658   2.603
 1466SOL    HW2 5894   0.755   4.705   2.637
 1466SOL    HW3 5895   0.604   4.714   2.624
 1466SOL    MW4 5896   0.679   4.672   2.610
 1467SOL     OW 5897   0.443   0.111   2.702
 1467SOL    HW2 5898   0.451   0.093   2.796
 1467SOL    HW3 5899   0.361   0.069   2.676
 1467SOL    MW4 5900   0.433   0.103   2.711
 1468SOL     OW 5901   0.379   0.380   2.663
 1468SOL    HW2 5902   0.457   0.416   2.706
 1468SOL    HW3 5903   0.391   0.285   2.667
 1468SOL    MW4 5904   0.391   0.372   2.669
 1469SOL     OW 5905   0.604   0.530   2.739
 1469SOL    HW2 5906   0.613   0.530   2.834
 1469SOL    HW3 5907   0.679   0.479   2.708
 1469SOL    MW4 5908   0.615   0.523   2.748
 1470SOL     OW 5909   0.631   0.761   2.607
 1470SOL    HW2 5910   0.702   0.805   2.654
 1470SOL    HW3 5911   0.603   0.691   2.666
 1470SOL    MW4 5912   0.637   0.758   2.621
 1471SOL     OW 5913   0.403   0.919   2.675
 1471SOL    HW2 5914   0.416   1.007   2.640
 1471SOL    HW3 5915   0.469   0.865   2.631
 1471SOL    MW4 5916   0.414   0.923   2.665
 1472SOL     OW 5917   0.436   1.180   2.620
 1472SOL    HW2 5918   0.520   1.222   2.638
 1472SOL    HW3 5919   0.425   1.187   2.525
 1472SOL    MW4 5920   0.445   1.187   2.610
 1473SOL     OW 5921   0.678   1.286   2.700
 1473SOL    HW2 5922   0.677   1.281   2.795
 1473SOL    HW3 5923   0.747   1.226   2.673
 1473SOL    MW4 5924   0.687   1.278   2.709
 1474SOL     OW 5925   0.666   1.555   2.657
 1474SOL    HW2 5926   0.589   1.603   2.689
 1474SOL    HW3 5927   0.647   1.463   2.677
 1474SOL    MW4 5928   0.653   1.549   2.664
 1475SOL     OW 5929   0.402   1.676   2.738
 1475SOL    HW2 5930   0.422   1.670   2.832
 1475SOL    HW3 5931   0.394   1.770   2.722
 1475SOL    MW4 5932   0.404   1.687   2.749
 1476SOL     OW 5933   0.399   1.948   2.668
 1476SOL    HW2 5934   0.485   1.965   2.707
 1476SOL    HW3 5935   0.418   1.924   2.577
 1476SOL    MW4 5936   0.413   1.947   2.661
 1477SOL     OW 5937   0.663   2.045   2.704
 1477SOL    HW2 5938   0.667   2.063   2.797
 1477SOL    HW3 5939   0.732   1.980   2.689
 1477SOL    MW4 5940   0.673   2.039   2.714
 1478SOL     OW 5941   0.678   2.300   2.644
 1478SOL    HW2 5942   0.758   2.330   2.687
 1478SOL    HW3 5943   0.678   2.205   2.658
 1478SOL    MW4 5944   0.689   2.291   2.652
 1479SOL     OW 5945   0.440   2.409   2.743
 1479SOL    HW2 5946   0.444   2.501   2.717
 1479SOL    HW3 5947   0.523   2.371   2.714
 1479SOL    MW4 5948   0.451   2.416   2.736
 1480SOL     OW 5949   0.434   2.668   2.641
 1480SOL    HW2 5950   0.515   2.695   2.684
 1480SOL    HW3 5951   0.367   2.728   2.674
 1480SOL    MW4 5952   0.436   2.679   2.651
 1481SOL     OW 5953   0.661   2.786   2.754
 1481SOL    HW2 5954   0.685   2.796   2.846
 1481SOL    HW3 5955   0.670   2.874   2.717
 1481SOL    MW4 5956   0.666   2.799   2.762
 1482SOL     OW 5957   0.712   3.054   2.664
 1482SOL    HW2 5958   0.786   3.111   2.687
 1482SOL    HW3 5959   0.702   3.065   2.569
 1482SOL    MW4 5960   0.721   3.063   2.655
 1483SOL     OW 5961   0.533   3.262   2.744
 1483SOL    HW2 5962   0.508   3.246   2.835
 1483SOL    HW3 5963   0.588   3.187   2.721
 1483SOL    MW4 5964   0.537   3.250   2.753
 1484SOL     OW 5965   0.439   3.507   2.632
 1484SOL    HW2 5966   0.464   3.422   2.670
 1484SOL    HW3 5967   0.439   3.492   2.538
 1484SOL    MW4 5968   0.442   3.494   2.625
 1485SOL     OW 5969   0.665   3.616   2.739
 1485SOL    HW2 5970   0.672   3.606   2.834
 1485SOL    HW3 5971   0.588   3.564   2.714
 1485SOL    MW4 5972   0.656   3.608   2.748
 1486SOL     OW 5973   0.665   3.875   2.647
 1486SOL    HW2 5974   0.589   3.921   2.683
 1486SOL    HW3 5975   0.652   3.784   2.673
 1486SOL    MW4 5976   0.653   3.869   2.655
 1487SOL     OW 5977   0.434   4.025   2.722
 1487SOL    HW2 5978   0.429   4.110   2.678
 1487SOL    HW3 5979   0.364   3.973   2.683
 1487SOL    MW4 5980   0.424   4.029   2.711
 1488SOL     OW 5981   0.441   4.277   2.630
 1488SOL    HW2 5982   0.521   4.316   2.666
 1488SOL    HW3 5983   0.434   4.314   2.542
 1488SOL    MW4 5984   0.451   4.287   2.623
 1489SOL     OW 5985   0.659   4.408   2.734
 1489SOL    HW2 5986   0.730   4.358   2.694
 1489SOL    HW3 5987   0.667   4.496   2.695
 1489SOL    MW4 5988   0.670   4.413   2.723
 1490SOL     OW 5989   1.094   4.591   2.598
 1490SOL    HW2 5990   1.159   4.643   2.646
 1490SOL    HW3 5991   1.107   4.502   2.630
 1490SOL    MW4 5992   1.104   4.586   2.609
 1491SOL     OW 5993   0.916   0.127   2.704
 1491SOL    HW2 5994   0.920   0.075   2.784
 1491SOL    HW3 5995   0.975   0.082   2.643
 1491SOL    MW4 5996   0.924   0.114   2.706
 1492SOL     OW 5997   0.817   0.376   2.643
 1492SOL    HW2 5998   0.831   0.291   2.683
 1492SOL    HW3 5999   0.848   0.365   2.553
 1492SOL    MW4 6000   0.823   0.363   2.636
 1493SOL     OW 6001   1.059   0.457   2.764
 1493SOL    HW2 6002   1.080   0.541   2.723
 1493SOL    HW3 6003   0.979   0.428   2.721
 1493SOL    MW4 6004   1.051   0.464   2.753
 1494SOL     OW 6005   1.115   0.708   2.646
 1494SOL    HW2 6006   1.175   0.765   2.693
 1494SOL    HW3 6007   1.124   0.734   2.554
 1494SOL    MW4 6008   1.124   0.719   2.640
 1495SOL     OW 6009   0.878   0.863   2.725
 1495SOL    HW2 6010   0.905   0.867   2.816
 1495SOL    HW3 6011   0.937   0.799   2.685
 1495SOL    MW4 6012   0.890   0.855   2.731
 1496SOL     OW 6013   0.881   1.122   2.629
 1496SOL    HW2 6014   0.873   1.030   2.657
 1496SOL    HW3 6015   0.878   1.118   2.534
 1496SOL    MW4 6016   0.879   1.109   2.620
 1497SOL     OW 6017   1.109   1.243   2.742
 1497SOL    HW2 6018   1.116   1.328   2.699
 1497SOL    HW3 6019   1.025   1.207   2.713
 1497SOL    MW4 6020   1.099   1.250   2.733
 1498SOL     OW 6021   1.139   1.492   2.664
 1498SOL    HW2 6022   1.062   1.539   2.698
 1498SOL    HW3 6023   1.136   1.507   2.570
 1498SOL    MW4 6024   1.128   1.500   2.656
 1499SOL     OW 6025   0.935   1.649   2.740
 1499SOL    HW2 6026   0.924   1.670   2.833
 1499SOL    HW3 6027   0.852   1.610   2.714
 1499SOL    MW4 6028   0.923   1.646   2.749
 1500SOL     OW 6029   0.902   1.906   2.651
 1500SOL    HW2 6030   0.982   1.950   2.681
 1500SOL    HW3 6031   0.922   1.813   2.656
 1500SOL    MW4 6032   0.915   1.900   2.656
 1501SOL     OW 6033   1.119   2.054   2.747
 1501SOL    HW2 6034   1.202   2.006   2.741
 1501SOL    HW3 6035   1.141   2.144   2.725
 1501SOL    MW4 6036   1.133   2.059   2.743
 1502SOL     OW 6037   1.114   2.318   2.670
 1502SOL    HW2 6038   1.169   2.390   2.703
 1502SOL    HW3 6039   1.134   2.314   2.577
 1502SOL    MW4 6040   1.124   2.327   2.662
 1503SOL     OW 6041   0.896   2.434   2.742
 1503SOL    HW2 6042   0.914   2.526   2.723
 1503SOL    HW3 6043   0.972   2.387   2.709
 1503SOL    MW4 6044   0.908   2.440   2.735
 1504SOL     OW 6045   0.885   2.696   2.640
 1504SOL    HW2 6046   0.949   2.755   2.678
 1504SOL    HW3 6047   0.802   2.723   2.678
 1504SOL    MW4 6048   0.883   2.707   2.650
 1505SOL     OW 6049   1.083   2.832   2.765
 1505SOL    HW2 6050   1.106   2.825   2.857
 1505SOL    HW3 6051   1.159   2.795   2.719
 1505SOL    MW4 6052   1.096   2.826   2.771
 1506SOL     OW 6053   1.148   3.096   2.654
 1506SOL    HW2 6054   1.122   3.007   2.678
 1506SOL    HW3 6055   1.136   3.101   2.559
 1506SOL    MW4 6056   1.143   3.085   2.645
 1507SOL     OW 6057   0.919   3.208   2.740
 1507SOL    HW2 6058   0.903   3.286   2.687
 1507SOL    HW3 6059   1.006   3.179   2.712
 1507SOL    MW4 6060   0.928   3.215   2.729
 1508SOL     OW 6061   0.887   3.462   2.639
 1508SOL    HW2 6062   0.961   3.508   2.680
 1508SOL    HW3 6063   0.810   3.512   2.667
 1508SOL    MW4 6064   0.887   3.475   2.648
 1509SOL     OW 6065   1.102   3.599   2.759
 1509SOL    HW2 6066   1.101   3.626   2.851
 1509SOL    HW3 6067   1.100   3.681   2.710
 1509SOL    MW4 6068   1.102   3.613   2.765
 1510SOL     OW 6069   1.098   3.851   2.611
 1510SOL    HW2 6070   1.178   3.889   2.649
 1510SOL    HW3 6071   1.110   3.859   2.517
 1510SOL    MW4 6072   1.110   3.857   2.604
 1511SOL     OW 6073   0.893   4.008   2.719
 1511SOL    HW2 6074   0.958   3.963   2.664
 1511SOL    HW3 6075   0.809   3.970   2.692
 1511SOL    MW4 6076   0.890   3.997   2.708
 1512SOL     OW 6077   0.888   4.266   2.633
 1512SOL    HW2 6078   0.892   4.174   2.658
 1512SOL    HW3 6079   0.884   4.265   2.537
 1512SOL    MW4 6080   0.888   4.254   2.624
 1513SOL     OW 6081   1.144   4.351   2.721
 1513SOL    HW2 6082   1.137   4.378   2.812
 1513SOL    HW3 6083   1.055   4.327   2.696
 1513SOL    MW4 6084   1.131   4.351   2.729
 1514SOL     OW 6085   1.527   4.655   2.654
 1514SOL    HW2 6086   1.565   4.573   2.686
 1514SOL    HW3 6087   1.530   4.648   2.559
 1514SOL    MW4 6088   1.533   4.644   2.646
 1515SOL     OW 6089   1.278   0.061   2.744
 1515SOL    HW2 6090   1.279   0.149   2.706
 1515SOL    HW3 6091   1.368   0.029   2.734
 1515SOL    MW4 6092   1.290   0.068   2.738
 1516SOL     OW 6093   1.269   0.332   2.646
 1516SOL    HW2 6094   1.349   0.373   2.677
 1516SOL    HW3 6095   1.199   0.378   2.692
 1516SOL    MW4 6096   1.270   0.343   2.656
 1517SOL     OW 6097   1.494   0.482   2.734
 1517SOL    HW2 6098   1.576   0.445   2.702
 1517SOL    HW3 6099   1.504   0.576   2.722
 1517SOL    MW4 6100   1.506   0.489   2.728
 1518SOL     OW 6101   1.534   0.741   2.637
 1518SOL    HW2 6102   1.463   0.798   2.666
 1518SOL    HW3 6103   1.534   0.750   2.541
 1518SOL    MW4 6104   1.525   0.750   2.628
 1519SOL     OW 6105   1.317   0.887   2.739
 1519SOL    HW2 6106   1.310   0.872   2.833
 1519SOL    HW3 6107   1.344   0.979   2.731
 1519SOL    MW4 6108   1.319   0.897   2.750
 1520SOL     OW 6109   1.333   1.144   2.641
 1520SOL    HW2 6110   1.393   1.202   2.687
 1520SOL    HW3 6111   1.247   1.167   2.674
 1520SOL    MW4 6112   1.330   1.154   2.651
 1521SOL     OW 6113   1.539   1.292   2.743
 1521SOL    HW2 6114   1.538   1.288   2.839
 1521SOL    HW3 6115   1.603   1.227   2.717
 1521SOL    MW4 6116   1.547   1.283   2.752
 1522SOL     OW 6117   1.593   1.533   2.615
 1522SOL    HW2 6118   1.571   1.444   2.641
 1522SOL    HW3 6119   1.589   1.532   2.519
 1522SOL    MW4 6120   1.589   1.522   2.606
 1523SOL     OW 6121   1.355   1.627   2.731
 1523SOL    HW2 6122   1.435   1.585   2.699
 1523SOL    HW3 6123   1.285   1.566   2.707
 1523SOL    MW4 6124   1.356   1.614   2.724
 1524SOL     OW 6125   1.343   1.899   2.668
 1524SOL    HW2 6126   1.351   1.804   2.676
 1524SOL    HW3 6127   1.354   1.916   2.574
 1524SOL    MW4 6128   1.346   1.889   2.656
 1525SOL     OW 6129   1.548   2.057   2.746
 1525SOL    HW2 6130   1.627   2.022   2.705
 1525SOL    HW3 6131   1.477   2.003   2.711
 1525SOL    MW4 6132   1.549   2.045   2.736
 1526SOL     OW 6133   1.536   2.323   2.614
 1526SOL    HW2 6134   1.616   2.371   2.637
 1526SOL    HW3 6135   1.547   2.238   2.656
 1526SOL    MW4 6136   1.548   2.318   2.623
 1527SOL     OW 6137   1.338   2.485   2.708
 1527SOL    HW2 6138   1.334   2.574   2.673
 1527SOL    HW3 6139   1.414   2.445   2.666
 1527SOL    MW4 6140   1.347   2.491   2.698
 1528SOL     OW 6141   1.296   2.731   2.623
 1528SOL    HW2 6142   1.368   2.789   2.646
 1528SOL    HW3 6143   1.286   2.740   2.528
 1528SOL    MW4 6144   1.304   2.740   2.614
 1529SOL     OW 6145   1.542   2.864   2.713
 1529SOL    HW2 6146   1.547   2.881   2.807
 1529SOL    HW3 6147   1.624   2.818   2.693
 1529SOL    MW4 6148   1.554   2.860   2.723
 1530SOL     OW 6149   1.577   3.112   2.602
 1530SOL    HW2 6150   1.663   3.147   2.625
 1530SOL    HW3 6151   1.575   3.026   2.642
 1530SOL    MW4 6152   1.588   3.106   2.610
 1531SOL     OW 6153   1.358   3.227   2.759
 1531SOL    HW2 6154   1.438   3.189   2.721
 1531SOL    HW3 6155   1.287   3.176   2.720
 1531SOL    MW4 6156   1.359   3.215   2.749
 1532SOL     OW 6157   1.322   3.469   2.663
 1532SOL    HW2 6158   1.324   3.382   2.703
 1532SOL    HW3 6159   1.242   3.509   2.696
 1532SOL    MW4 6160   1.312   3.463   2.673
 1533SOL     OW 6161   1.533   3.619   2.753
 1533SOL    HW2 6162   1.610   3.585   2.708
 1533SOL    HW3 6163   1.459   3.576   2.710
 1533SOL    MW4 6164   1.534   3.609   2.742
 1534SOL     OW 6165   1.561   3.873   2.640
 1534SOL    HW2 6166   1.477   3.913   2.663
 1534SOL    HW3 6167   1.560   3.788   2.684
 1534SOL    MW4 6168   1.550   3.867   2.649
 1535SOL     OW 6169   1.316   4.000   2.706
 1535SOL    HW2 6170   1.329   3.998   2.801
 1535SOL    HW3 6171   1.328   4.092   2.682
 1535SOL    MW4 6172   1.320   4.012   2.715
 1536SOL     OW 6173   1.384   4.260   2.625
 1536SOL    HW2 6174   1.304   4.290   2.668
 1536SOL    HW3 6175   1.360   4.254   2.532
 1536SOL    MW4 6176   1.370   4.263   2.618
 1537SOL     OW 6177   1.586   4.405   2.755
 1537SOL    HW2 6178   1.587   4.379   2.847
 1537SOL    HW3 6179   1.511   4.358   2.718
 1537SOL    MW4 6180   1.576   4.395   2.762
 1538SOL     OW 6181   1.971   0.015   2.629
 1538SOL    HW2 6182   2.060   0.039   2.655
 1538SOL    HW3 6183   1.976   0.004   2.534
 1538SOL    MW4 6184   1.983   0.017   2.620
 1539SOL     OW 6185   1.743   0.143   2.731
 1539SOL    HW2 6186   1.813   0.091   2.691
 1539SOL    HW3 6187   1.663   0.098   2.706
 1539SOL    MW4 6188   1.742   0.130   2.722
 1540SOL     OW 6189   1.766   0.398   2.653
 1540SOL    HW2 6190   1.835   0.431   2.710
 1540SOL    HW3 6191   1.757   0.306   2.677
 1540SOL    MW4 6192   1.774   0.390   2.664
 1541SOL     OW 6193   1.989   0.485   2.773
 1541SOL    HW2 6194   2.060   0.430   2.740
 1541SOL    HW3 6195   1.993   0.564   2.719
 1541SOL    MW4 6196   1.999   0.488   2.761
 1542SOL     OW 6197   1.989   0.731   2.622
 1542SOL    HW2 6198   1.916   0.786   2.651
 1542SOL    HW3 6199   1.997   0.749   2.529
 1542SOL    MW4 6200   1.980   0.741   2.614
 1543SOL     OW 6201   1.773   0.869   2.719
 1543SOL    HW2 6202   1.751   0.959   2.695
 1543SOL    HW3 6203   1.693   0.819   2.704
 1543SOL    MW4 6204   1.760   0.874   2.714
 1544SOL     OW 6205   1.744   1.132   2.644
 1544SOL    HW2 6206   1.821   1.179   2.677
 1544SOL    HW3 6207   1.743   1.150   2.550
 1544SOL    MW4 6208   1.754   1.141   2.636
 1545SOL     OW 6209   1.982   1.269   2.727
 1545SOL    HW2 6210   2.000   1.278   2.820
 1545SOL    HW3 6211   2.050   1.209   2.695
 1545SOL    MW4 6212   1.993   1.263   2.735
 1546SOL     OW 6213   1.982   1.565   2.687
 1546SOL    HW2 6214   1.903   1.613   2.714
 1546SOL    HW3 6215   1.962   1.473   2.707
 1546SOL    MW4 6216   1.969   1.559   2.694
 1547SOL     OW 6217   1.768   1.718   2.748
 1547SOL    HW2 6218   1.762   1.700   2.842
 1547SOL    HW3 6219   1.705   1.657   2.708
 1547SOL    MW4 6220   1.759   1.708   2.755
 1548SOL     OW 6221   1.783   1.976   2.636
 1548SOL    HW2 6222   1.863   2.024   2.656
 1548SOL    HW3 6223   1.796   1.890   2.676
 1548SOL    MW4 6224   1.795   1.971   2.644
 1549SOL     OW 6225   2.038   2.086   2.714
 1549SOL    HW2 6226   2.040   2.083   2.809
 1549SOL    HW3 6227   2.023   2.178   2.692
 1549SOL    MW4 6228   2.037   2.097   2.724
 1550SOL     OW 6229   2.002   2.358   2.628
 1550SOL    HW2 6230   2.077   2.389   2.678
 1550SOL    HW3 6231   2.029   2.365   2.537
 1550SOL    MW4 6232   2.015   2.363   2.623
 1551SOL     OW 6233   1.760   2.462   2.718
 1551SOL    HW2 6234   1.772   2.438   2.810
 1551SOL    HW3 6235   1.840   2.433   2.675
 1551SOL    MW4 6236   1.772   2.455   2.725
 1552SOL     OW 6237   1.790   2.733   2.655
 1552SOL    HW2 6238   1.790   2.641   2.682
 1552SOL    HW3 6239   1.789   2.731   2.559
 1552SOL    MW4 6240   1.790   2.721   2.646
 1553SOL     OW 6241   2.012   2.882   2.707
 1553SOL    HW2 6242   2.096   2.836   2.693
 1553SOL    HW3 6243   1.946   2.816   2.685
 1553SOL    MW4 6244   2.015   2.867   2.702
 1554SOL     OW 6245   2.088   3.131   2.590
 1554SOL    HW2 6246   2.060   3.047   2.628
 1554SOL    HW3 6247   2.086   3.116   2.496
 1554SOL    MW4 6248   2.084   3.118   2.583
 1555SOL     OW 6249   1.835   3.245   2.693
 1555SOL    HW2 6250   1.820   3.338   2.676
 1555SOL    HW3 6251   1.921   3.228   2.654
 1555SOL    MW4 6252   1.844   3.255   2.685
 1556SOL     OW 6253   1.761   3.513   2.627
 1556SOL    HW2 6254   1.847   3.545   2.656
 1556SOL    HW3 6255   1.764   3.520   2.532
 1556SOL    MW4 6256   1.773   3.519   2.619
 1557SOL     OW 6257   2.013   3.608   2.733
 1557SOL    HW2 6258   2.027   3.607   2.827
 1557SOL    HW3 6259   2.091   3.567   2.696
 1557SOL    MW4 6260   2.025   3.603   2.740
 1558SOL     OW 6261   2.025   3.875   2.643
 1558SOL    HW2 6262   1.950   3.908   2.692
 1558SOL    HW3 6263   2.025   3.781   2.659
 1558SOL    MW4 6264   2.015   3.867   2.652
 1559SOL     OW 6265   1.786   3.989   2.772
 1559SOL    HW2 6266   1.780   4.071   2.722
 1559SOL    HW3 6267   1.712   3.937   2.742
 1559SOL    MW4 6268   1.776   3.993   2.761
 1560SOL     OW 6269   1.789   4.240   2.656
 1560SOL    HW2 6270   1.731   4.306   2.693
 1560SOL    HW3 6271   1.777   4.248   2.562
 1560SOL    MW4 6272   1.780   4.250   2.649
 1561SOL     OW 6273   2.023   4.394   2.672
 1561SOL    HW2 6274   1.948   4.334   2.676
 1561SOL    HW3 6275   1.983   4.481   2.662
 1561SOL    MW4 6276   2.008   4.398   2.671
 1562SOL     OW 6277   2.470   4.657   2.607
 1562SOL    HW2 6278   2.551   4.708   2.614
 1562SOL    HW3 6279   2.466   4.629   2.516
 1562SOL    MW4 6280   2.480   4.660   2.596
 1563SOL     OW 6281   2.228   0.075   2.709
 1563SOL    HW2 6282   2.244   0.073   2.804
 1563SOL    HW3 6283   2.315   0.061   2.671
 1563SOL    MW4 6284   2.242   0.073   2.717
 1564SOL     OW 6285   2.214   0.357   2.649
 1564SOL    HW2 6286   2.231   0.267   2.679
 1564SOL    HW3 6287   2.228   0.353   2.554
 1564SOL    MW4 6288   2.218   0.344   2.640
 1565SOL     OW 6289   2.452   0.480   2.709
 1565SOL    HW2 6290   2.454   0.571   2.679
 1565SOL    HW3 6291   2.362   0.452   2.694
 1565SOL    MW4 6292   2.441   0.488   2.703
 1566SOL     OW 6293   2.480   0.746   2.605
 1566SOL    HW2 6294   2.393   0.782   2.625
 1566SOL    HW3 6295   2.486   0.751   2.509
 1566SOL    MW4 6296   2.469   0.751   2.595
 1567SOL     OW 6297   2.242   0.831   2.705
 1567SOL    HW2 6298   2.241   0.835   2.801
 1567SOL    HW3 6299   2.161   0.785   2.682
 1567SOL    MW4 6300   2.231   0.826   2.715
 1568SOL     OW 6301   2.215   1.111   2.647
 1568SOL    HW2 6302   2.236   1.023   2.678
 1568SOL    HW3 6303   2.203   1.101   2.552
 1568SOL    MW4 6304   2.216   1.098   2.638
 1569SOL     OW 6305   2.450   1.299   2.718
 1569SOL    HW2 6306   2.530   1.252   2.693
 1569SOL    HW3 6307   2.379   1.252   2.674
 1569SOL    MW4 6308   2.451   1.287   2.709
 1570SOL     OW 6309   2.446   1.557   2.602
 1570SOL    HW2 6310   2.371   1.592   2.650
 1570SOL    HW3 6311   2.448   1.464   2.623
 1570SOL    MW4 6312   2.437   1.550   2.611
 1571SOL     OW 6313   2.227   1.664   2.752
 1571SOL    HW2 6314   2.230   1.747   2.704
 1571SOL    HW3 6315   2.139   1.631   2.736
 1571SOL    MW4 6316   2.216   1.671   2.743
 1572SOL     OW 6317   2.248   1.919   2.625
 1572SOL    HW2 6318   2.177   1.981   2.643
 1572SOL    HW3 6319   2.258   1.920   2.530
 1572SOL    MW4 6320   2.240   1.927   2.615
 1573SOL     OW 6321   2.468   2.076   2.733
 1573SOL    HW2 6322   2.466   2.160   2.687
 1573SOL    HW3 6323   2.384   2.035   2.711
 1573SOL    MW4 6324   2.457   2.082   2.724
 1574SOL     OW 6325   2.462   2.336   2.621
 1574SOL    HW2 6326   2.530   2.401   2.639
 1574SOL    HW3 6327   2.454   2.337   2.525
 1574SOL    MW4 6328   2.470   2.345   2.611
 1575SOL     OW 6329   2.240   2.465   2.742
 1575SOL    HW2 6330   2.250   2.448   2.836
 1575SOL    HW3 6331   2.316   2.422   2.703
 1575SOL    MW4 6332   2.251   2.457   2.750
 1576SOL     OW 6333   2.247   2.745   2.650
 1576SOL    HW2 6334   2.330   2.790   2.661
 1576SOL    HW3 6335   2.262   2.657   2.682
 1576SOL    MW4 6336   2.260   2.740   2.655
 1577SOL     OW 6337   2.481   2.876   2.682
 1577SOL    HW2 6338   2.569   2.847   2.656
 1577SOL    HW3 6339   2.474   2.965   2.647
 1577SOL    MW4 6340   2.492   2.884   2.674
 1578SOL     OW 6341   2.456   3.128   2.613
 1578SOL    HW2 6342   2.387   3.178   2.658
 1578SOL    HW3 6343   2.444   3.149   2.521
 1578SOL    MW4 6344   2.445   3.138   2.607
 1579SOL     OW 6345   2.253   3.288   2.742
 1579SOL    HW2 6346   2.260   3.282   2.837
 1579SOL    HW3 6347   2.177   3.234   2.720
 1579SOL    MW4 6348   2.244   3.280   2.752
 1580SOL     OW 6349   2.245   3.514   2.574
 1580SOL    HW2 6350   2.324   3.564   2.593
 1580SOL    HW3 6351   2.258   3.430   2.617
 1580SOL    MW4 6352   2.257   3.510   2.582
 1581SOL     OW 6353   2.485   3.622   2.645
 1581SOL    HW2 6354   2.475   3.615   2.740
 1581SOL    HW3 6355   2.481   3.715   2.627
 1581SOL    MW4 6356   2.483   3.633   2.655
 1582SOL     OW 6357   2.467   3.912   2.604
 1582SOL    HW2 6358   2.551   3.938   2.643
 1582SOL    HW3 6359   2.401   3.957   2.655
 1582SOL    MW4 6360   2.470   3.921   2.616
 1583SOL     OW 6361   2.244   4.008   2.744
 1583SOL    HW2 6362   2.241   3.994   2.839
 1583SOL    HW3 6363   2.174   3.952   2.709
 1583SOL    MW4 6364   2.235   3.999   2.752
 1584SOL     OW 6365   2.273   4.263   2.618
 1584SOL    HW2 6366   2.267   4.180   2.665
 1584SOL    HW3 6367   2.190   4.307   2.635
 1584SOL    MW4 6368   2.262   4.258   2.626
 1585SOL     OW 6369   2.517   4.396   2.684
 1585SOL    HW2 6370   2.441   4.348   2.651
 1585SOL    HW3 6371   2.501   4.487   2.658
 1585SOL    MW4 6372   2.504   4.402   2.676
 1586SOL     OW 6373   2.927   4.655   2.640
 1586SOL    HW2 6374   3.005   4.702   2.669
 1586SOL    HW3 6375   2.935   4.649   2.545
 1586SOL    MW4 6376   2.938   4.660   2.631
 1587SOL     OW 6377   2.702   0.131   2.676
 1587SOL    HW2 6378   2.693   0.155   2.768
 1587SOL    HW3 6379   2.779   0.075   2.673
 1587SOL    MW4 6380   2.711   0.127   2.688
 1588SOL     OW 6381   2.695   0.399   2.600
 1588SOL    HW2 6382   2.705   0.308   2.628
 1588SOL    HW3 6383   2.614   0.428   2.642
 1588SOL    MW4 6384   2.686   0.391   2.610
 1589SOL     OW 6385   2.903   0.539   2.723
 1589SOL    HW2 6386   2.912   0.619   2.671
 1589SOL    HW3 6387   2.833   0.490   2.679
 1589SOL    MW4 6388   2.895   0.543   2.710
 1590SOL     OW 6389   2.965   0.773   2.604
 1590SOL    HW2 6390   3.037   0.812   2.653
 1590SOL    HW3 6391   2.889   0.827   2.626
 1590SOL    MW4 6392   2.965   0.786   2.614
 1591SOL     OW 6393   2.732   0.895   2.685
 1591SOL    HW2 6394   2.747   0.898   2.780
 1591SOL    HW3 6395   2.661   0.832   2.675
 1591SOL    MW4 6396   2.725   0.887   2.696
 1592SOL     OW 6397   2.672   1.157   2.649
 1592SOL    HW2 6398   2.745   1.208   2.684
 1592SOL    HW3 6399   2.699   1.066   2.662
 1592SOL    MW4 6400   2.685   1.152   2.656
 1593SOL     OW 6401   2.897   1.297   2.754
 1593SOL    HW2 6402   2.897   1.299   2.850
 1593SOL    HW3 6403   2.973   1.243   2.732
 1593SOL    MW4 6404   2.907   1.290   2.764
 1594SOL     OW 6405   2.890   1.551   2.645
 1594SOL    HW2 6406   2.813   1.587   2.689
 1594SOL    HW3 6407   2.893   1.459   2.674
 1594SOL    MW4 6408   2.880   1.543   2.655
 1595SOL     OW 6409   2.651   1.686   2.736
 1595SOL    HW2 6410   2.659   1.694   2.831
 1595SOL    HW3 6411   2.567   1.642   2.722
 1595SOL    MW4 6412   2.641   1.681   2.746
 1596SOL     OW 6413   2.671   1.920   2.609
 1596SOL    HW2 6414   2.673   1.836   2.654
 1596SOL    HW3 6415   2.596   1.965   2.647
 1596SOL    MW4 6416   2.661   1.915   2.620
 1597SOL     OW 6417   2.873   2.078   2.711
 1597SOL    HW2 6418   2.859   2.159   2.662
 1597SOL    HW3 6419   2.801   2.021   2.684
 1597SOL    MW4 6420   2.862   2.081   2.701
 1598SOL     OW 6421   2.846   2.340   2.588
 1598SOL    HW2 6422   2.930   2.346   2.634
 1598SOL    HW3 6423   2.793   2.411   2.625
 1598SOL    MW4 6424   2.850   2.350   2.599
 1599SOL     OW 6425   2.655   2.510   2.698
 1599SOL    HW2 6426   2.687   2.497   2.787
 1599SOL    HW3 6427   2.688   2.596   2.673
 1599SOL    MW4 6428   2.663   2.519   2.706
 1600SOL     OW 6429   2.729   2.758   2.627
 1600SOL    HW2 6430   2.817   2.789   2.644
 1600SOL    HW3 6431   2.720   2.760   2.531
 1600SOL    MW4 6432   2.739   2.762   2.616
 1601SOL     OW 6433   2.986   2.803   2.720
 1601SOL    HW2 6434   2.966   2.801   2.813
 1601SOL    HW3 6435   2.979   2.896   2.696
 1601SOL    MW4 6436   2.983   2.815   2.729
 1602SOL     OW 6437   2.958   3.063   2.605
 1602SOL    HW2 6438   2.874   3.090   2.641
 1602SOL    HW3 6439   2.951   3.083   2.511
 1602SOL    MW4 6440   2.946   3.069   2.597
 1603SOL     OW 6441   2.716   3.215   2.685
 1603SOL    HW2 6442   2.715   3.300   2.640
 1603SOL    HW3 6443   2.630   3.177   2.665
 1603SOL    MW4 6444   2.704   3.221   2.676
 1604SOL     OW 6445   2.728   3.472   2.577
 1604SOL    HW2 6446   2.656   3.523   2.614
 1604SOL    HW3 6447   2.719   3.482   2.482
 1604SOL    MW4 6448   2.717   3.480   2.569
 1605SOL     OW 6449   2.958   3.595   2.707
 1605SOL    HW2 6450   2.971   3.581   2.801
 1605SOL    HW3 6451   2.878   3.546   2.686
 1605SOL    MW4 6452   2.949   3.587   2.717
 1606SOL     OW 6453   2.941   3.864   2.596
 1606SOL    HW2 6454   3.021   3.894   2.639
 1606SOL    HW3 6455   2.929   3.775   2.628
 1606SOL    MW4 6456   2.950   3.856   2.606
 1607SOL     OW 6457   2.714   3.976   2.711
 1607SOL    HW2 6458   2.724   4.060   2.666
 1607SOL    HW3 6459   2.787   3.923   2.679
 1607SOL    MW4 6460   2.725   3.980   2.701
 1608SOL     OW 6461   2.741   4.247   2.598
 1608SOL    HW2 6462   2.815   4.292   2.639
 1608SOL    HW3 6463   2.664   4.295   2.629
 1608SOL    MW4 6464   2.741   4.260   2.607
 1609SOL     OW 6465   2.960   4.377   2.699
 1609SOL    HW2 6466   2.976   4.374   2.793
 1609SOL    HW3 6467   2.960   4.470   2.678
 1609SOL    MW4 6468   2.962   4.389   2.709
 1610SOL     OW 6469   3.383   4.609   2.586
 1610SOL    HW2 6470   3.376   4.520   2.623
 1610SOL    HW3 6471   3.309   4.657   2.625
 1610SOL    MW4 6472   3.372   4.603   2.596
 1611SOL     OW 6473   3.191   0.106   2.701
 1611SOL    HW2 6474   3.187   0.103   2.796
 1611SOL    HW3 6475   3.178   0.198   2.679
 1611SOL    MW4 6476   3.189   0.117   2.710
 1612SOL     OW 6477   3.115   0.363   2.625
 1612SOL    HW2 6478   3.041   0.415   2.656
 1612SOL    HW3 6479   3.110   0.368   2.529
 1612SOL    MW4 6480   3.105   0.370   2.616
 1613SOL     OW 6481   3.381   0.452   2.677
 1613SOL    HW2 6482   3.381   0.548   2.674
 1613SOL    HW3 6483   3.290   0.428   2.657
 1613SOL    MW4 6484   3.369   0.462   2.674
 1614SOL     OW 6485   3.356   0.717   2.631
 1614SOL    HW2 6486   3.428   0.759   2.678
 1614SOL    HW3 6487   3.375   0.735   2.538
 1614SOL    MW4 6488   3.368   0.725   2.625
 1615SOL     OW 6489   3.179   0.897   2.727
 1615SOL    HW2 6490   3.186   0.889   2.822
 1615SOL    HW3 6491   3.239   0.831   2.692
 1615SOL    MW4 6492   3.188   0.887   2.735
 1616SOL     OW 6493   3.146   1.163   2.651
 1616SOL    HW2 6494   3.157   1.073   2.679
 1616SOL    HW3 6495   3.149   1.159   2.556
 1616SOL    MW4 6496   3.148   1.151   2.642
 1617SOL     OW 6497   3.377   1.300   2.735
 1617SOL    HW2 6498   3.367   1.287   2.829
 1617SOL    HW3 6499   3.308   1.247   2.696
 1617SOL    MW4 6500   3.367   1.292   2.742
 1618SOL     OW 6501   3.365   1.551   2.610
 1618SOL    HW2 6502   3.279   1.584   2.637
 1618SOL    HW3 6503   3.369   1.462   2.643
 1618SOL    MW4 6504   3.354   1.544   2.618
 1619SOL     OW 6505   3.122   1.653   2.740
 1619SOL    HW2 6506   3.135   1.742   2.708
 1619SOL    HW3 6507   3.037   1.626   2.705
 1619SOL    MW4 6508   3.113   1.661   2.731
 1620SOL     OW 6509   3.079   1.911   2.644
 1620SOL    HW2 6510   3.164   1.941   2.676
 1620SOL    HW3 6511   3.018   1.980   2.670
 1620SOL    MW4 6512   3.082   1.924   2.652
 1621SOL     OW 6513   3.299   2.035   2.745
 1621SOL    HW2 6514   3.320   2.044   2.838
 1621SOL    HW3 6515   3.303   2.124   2.710
 1621SOL    MW4 6516   3.302   2.048   2.752
 1622SOL     OW 6517   3.331   2.282   2.641
 1622SOL    HW2 6518   3.390   2.340   2.689
 1622SOL    HW3 6519   3.351   2.299   2.549
 1622SOL    MW4 6520   3.342   2.292   2.635
 1623SOL     OW 6521   3.072   2.385   2.723
 1623SOL    HW2 6522   3.103   2.468   2.686
 1623SOL    HW3 6523   3.142   2.323   2.705
 1623SOL    MW4 6524   3.085   2.388   2.716
 1624SOL     OW 6525   3.181   2.624   2.641
 1624SOL    HW2 6526   3.258   2.654   2.688
 1624SOL    HW3 6527   3.115   2.692   2.657
 1624SOL    MW4 6528   3.182   2.637   2.649
 1625SOL     OW 6529   3.397   2.779   2.721
 1625SOL    HW2 6530   3.406   2.773   2.816
 1625SOL    HW3 6531   3.479   2.745   2.686
 1625SOL    MW4 6532   3.409   2.774   2.729
 1626SOL     OW 6533   3.420   3.046   2.652
 1626SOL    HW2 6534   3.406   2.954   2.675
 1626SOL    HW3 6535   3.409   3.049   2.557
 1626SOL    MW4 6536   3.417   3.034   2.642
 1627SOL     OW 6537   3.188   3.211   2.670
 1627SOL    HW2 6538   3.268   3.163   2.649
 1627SOL    HW3 6539   3.117   3.153   2.643
 1627SOL    MW4 6540   3.189   3.197   2.664
 1628SOL     OW 6541   3.201   3.503   2.582
 1628SOL    HW2 6542   3.196   3.413   2.617
 1628SOL    HW3 6543   3.121   3.545   2.614
 1628SOL    MW4 6544   3.190   3.496   2.591
 1629SOL     OW 6545   3.423   3.621   2.726
 1629SOL    HW2 6546   3.416   3.598   2.819
 1629SOL    HW3 6547   3.341   3.591   2.687
 1629SOL    MW4 6548   3.411   3.614   2.733
 1630SOL     OW 6549   3.432   3.876   2.633
 1630SOL    HW2 6550   3.438   3.791   2.676
 1630SOL    HW3 6551   3.431   3.857   2.540
 1630SOL    MW4 6552   3.433   3.862   2.627
 1631SOL     OW 6553   3.184   3.960   2.684
 1631SOL    HW2 6554   3.179   4.045   2.640
 1631SOL    HW3 6555   3.272   3.928   2.665
 1631SOL    MW4 6556   3.195   3.967   2.676
 1632SOL     OW 6557   3.142   4.211   2.594
 1632SOL    HW2 6558   3.078   4.266   2.640
 1632SOL    HW3 6559   3.121   4.223   2.501
 1632SOL    MW4 6560   3.131   4.219   2.588
 1633SOL     OW 6561   3.394   4.355   2.683
 1633SOL    HW2 6562   3.391   4.380   2.775
 1633SOL    HW3 6563   3.312   4.309   2.668
 1633SOL    MW4 6564   3.383   4.352   2.693
 1634SOL     OW 6565   3.832   4.661   2.636
 1634SOL    HW2 6566   3.835   4.572   2.671
 1634SOL    HW3 6567   3.740   4.687   2.644
 1634SOL    MW4 6568   3.820   4.653   2.642
 1635SOL     OW 6569   3.591   0.094   2.730
 1635SOL    HW2 6570   3.601   0.171   2.675
 1635SOL    HW3 6571   3.524   0.041   2.686
 1635SOL    MW4 6572   3.583   0.097   2.717
 1636SOL     OW 6573   3.620   0.340   2.595
 1636SOL    HW2 6574   3.688   0.396   2.632
 1636SOL    HW3 6575   3.539   0.372   2.634
 1636SOL    MW4 6576   3.618   0.352   2.605
 1637SOL     OW 6577   3.826   0.518   2.714
 1637SOL    HW2 6578   3.848   0.505   2.806
 1637SOL    HW3 6579   3.909   0.508   2.668
 1637SOL    MW4 6580   3.840   0.515   2.720
 1638SOL     OW 6581   3.788   0.781   2.636
 1638SOL    HW2 6582   3.704   0.822   2.659
 1638SOL    HW3 6583   3.781   0.692   2.670
 1638SOL    MW4 6584   3.776   0.775   2.644
 1639SOL     OW 6585   3.544   0.876   2.712
 1639SOL    HW2 6586   3.567   0.881   2.805
 1639SOL    HW3 6587   3.547   0.967   2.682
 1639SOL    MW4 6588   3.548   0.889   2.721
 1640SOL     OW 6589   3.571   1.133   2.614
 1640SOL    HW2 6590   3.655   1.174   2.636
 1640SOL    HW3 6591   3.505   1.190   2.652
 1640SOL    MW4 6592   3.573   1.146   2.622
 1641SOL     OW 6593   3.802   1.252   2.759
 1641SOL    HW2 6594   3.890   1.226   2.733
 1641SOL    HW3 6595   3.790   1.338   2.719
 1641SOL    MW4 6596   3.812   1.260   2.750
 1642SOL     OW 6597   3.780   1.508   2.636
 1642SOL    HW2 6598   3.851   1.542   2.691
 1642SOL    HW3 6599   3.701   1.549   2.672
 1642SOL    MW4 6600   3.779   1.518   2.648
 1643SOL     OW 6601   3.570   1.650   2.755
 1643SOL    HW2 6602   3.576   1.739   2.721
 1643SOL    HW3 6603   3.499   1.610   2.706
 1643SOL    MW4 6604   3.562   1.656   2.744
 1644SOL     OW 6605   3.557   1.920   2.679
 1644SOL    HW2 6606   3.474   1.960   2.704
 1644SOL    HW3 6607   3.553   1.915   2.584
 1644SOL    MW4 6608   3.545   1.924   2.670
 1645SOL     OW 6609   3.759   2.055   2.802
 1645SOL    HW2 6610   3.824   2.012   2.746
 1645SOL    HW3 6611   3.680   2.001   2.791
 1645SOL    MW4 6612   3.757   2.042   2.793
 1646SOL     OW 6613   3.787   2.335   2.638
 1646SOL    HW2 6614   3.773   2.243   2.661
 1646SOL    HW3 6615   3.800   2.335   2.543
 1646SOL    MW4 6616   3.787   2.323   2.629
 1647SOL     OW 6617   3.549   2.442   2.732
 1647SOL    HW2 6618   3.556   2.435   2.827
 1647SOL    HW3 6619   3.625   2.394   2.699
 1647SOL    MW4 6620   3.560   2.434   2.740
 1648SOL     OW 6621   3.620   2.676   2.611
 1648SOL    HW2 6622   3.593   2.590   2.642
 1648SOL    HW3 6623   3.627   2.666   2.516
 1648SOL    MW4 6624   3.617   2.664   2.602
 1649SOL     OW 6625   3.813   2.837   2.732
 1649SOL    HW2 6626   3.894   2.787   2.718
 1649SOL    HW3 6627   3.748   2.793   2.678
 1649SOL    MW4 6628   3.815   2.824   2.723
 1650SOL     OW 6629   3.857   3.090   2.630
 1650SOL    HW2 6630   3.779   3.131   2.664
 1650SOL    HW3 6631   3.852   2.999   2.660
 1650SOL    MW4 6632   3.846   3.083   2.638
 1651SOL     OW 6633   3.630   3.214   2.732
 1651SOL    HW2 6634   3.602   3.297   2.692
 1651SOL    HW3 6635   3.561   3.152   2.708
 1651SOL    MW4 6636   3.617   3.217   2.724
 1652SOL     OW 6637   3.652   3.489   2.623
 1652SOL    HW2 6638   3.725   3.520   2.676
 1652SOL    HW3 6639   3.575   3.531   2.660
 1652SOL    MW4 6640   3.651   3.498   2.635
 1653SOL     OW 6641   3.855   3.598   2.757
 1653SOL    HW2 6642   3.935   3.570   2.712
 1653SOL    HW3 6643   3.842   3.688   2.728
 1653SOL    MW4 6644   3.864   3.606   2.747
 1654SOL     OW 6645   3.861   3.846   2.632
 1654SOL    HW2 6646   3.945   3.885   2.653
 1654SOL    HW3 6647   3.797   3.900   2.678
 1654SOL    MW4 6648   3.864   3.858   2.641
 1655SOL     OW 6649   3.663   3.985   2.752
 1655SOL    HW2 6650   3.678   4.071   2.713
 1655SOL    HW3 6651   3.593   3.946   2.698
 1655SOL    MW4 6652   3.656   3.991   2.740
 1656SOL     OW 6653   3.649   4.242   2.636
 1656SOL    HW2 6654   3.568   4.291   2.653
 1656SOL    HW3 6655   3.643   4.218   2.544
 1656SOL    MW4 6656   3.637   4.245   2.626
 1657SOL     OW 6657   3.884   4.381   2.740
 1657SOL    HW2 6658   3.950   4.327   2.698
 1657SOL    HW3 6659   3.802   4.332   2.728
 1657SOL    MW4 6660   3.882   4.368   2.733
 1658SOL     OW 6661   4.246   4.636   2.631
 1658SOL    HW2 6662   4.178   4.685   2.678
 1658SOL    HW3 6663   4.328   4.670   2.668
 1658SOL    MW4 6664   4.248   4.647   2.642
 1659SOL     OW 6665   4.047   0.143   2.714
 1659SOL    HW2 6666   4.041   0.133   2.809
 1659SOL    HW3 6667   3.968   0.101   2.681
 1659SOL    MW4 6668   4.035   0.136   2.722
 1660SOL     OW 6669   4.047   0.404   2.604
 1660SOL    HW2 6670   4.058   0.315   2.639
 1660SOL    HW3 6671   4.038   0.392   2.510
 1660SOL    MW4 6672   4.047   0.391   2.596
 1661SOL     OW 6673   4.251   0.536   2.752
 1661SOL    HW2 6674   4.179   0.495   2.705
 1661SOL    HW3 6675   4.323   0.472   2.746
 1661SOL    MW4 6676   4.251   0.522   2.745
 1662SOL     OW 6677   4.236   0.779   2.621
 1662SOL    HW2 6678   4.248   0.691   2.654
 1662SOL    HW3 6679   4.230   0.768   2.526
 1662SOL    MW4 6680   4.237   0.766   2.612
 1663SOL     OW 6681   4.025   0.916   2.694
 1663SOL    HW2 6682   4.094   0.853   2.672
 1663SOL    HW3 6683   3.944   0.872   2.670
 1663SOL    MW4 6684   4.024   0.902   2.688
 1664SOL     OW 6685   4.014   1.168   2.596
 1664SOL    HW2 6686   4.089   1.219   2.623
 1664SOL    HW3 6687   4.036   1.077   2.619
 1664SOL    MW4 6688   4.027   1.162   2.603
 1665SOL     OW 6689   4.231   1.295   2.740
 1665SOL    HW2 6690   4.228   1.387   2.714
 1665SOL    HW3 6691   4.313   1.262   2.703
 1665SOL    MW4 6692   4.242   1.303   2.732
 1666SOL     OW 6693   4.217   1.546   2.641
 1666SOL    HW2 6694   4.296   1.591   2.670
 1666SOL    HW3 6695   4.227   1.538   2.546
 1666SOL    MW4 6696   4.229   1.551   2.633
 1667SOL     OW 6697   3.984   1.673   2.752
 1667SOL    HW2 6698   3.990   1.673   2.847
 1667SOL    HW3 6699   4.064   1.628   2.723
 1667SOL    MW4 6700   3.996   1.667   2.761
 1668SOL     OW 6701   3.976   1.933   2.651
 1668SOL    HW2 6702   4.052   1.974   2.693
 1668SOL    HW3 6703   3.970   1.847   2.693
 1668SOL    MW4 6704   3.985   1.927   2.662
 1669SOL     OW 6705   4.203   2.067   2.737
 1669SOL    HW2 6706   4.203   2.159   2.710
 1669SOL    HW3 6707   4.290   2.035   2.714
 1669SOL    MW4 6708   4.214   2.075   2.730
 1670SOL     OW 6709   4.250   2.335   2.648
 1670SOL    HW2 6710   4.173   2.388   2.667
 1670SOL    HW3 6711   4.239   2.310   2.556
 1670SOL    MW4 6712   4.238   2.338   2.638
 1671SOL     OW 6713   4.011   2.429   2.741
 1671SOL    HW2 6714   4.012   2.421   2.836
 1671SOL    HW3 6715   3.924   2.400   2.715
 1671SOL    MW4 6716   4.000   2.424   2.750
 1672SOL     OW 6717   4.035   2.692   2.645
 1672SOL    HW2 6718   4.114   2.736   2.674
 1672SOL    HW3 6719   4.039   2.606   2.687
 1672SOL    MW4 6720   4.046   2.686   2.655
 1673SOL     OW 6721   4.257   2.828   2.729
 1673SOL    HW2 6722   4.261   2.816   2.824
 1673SOL    HW3 6723   4.279   2.920   2.715
 1673SOL    MW4 6724   4.260   2.838   2.740
 1674SOL     OW 6725   4.314   3.091   2.679
 1674SOL    HW2 6726   4.238   3.141   2.708
 1674SOL    HW3 6727   4.321   3.109   2.585
 1674SOL    MW4 6728   4.305   3.100   2.670
 1675SOL     OW 6729   4.069   3.221   2.735
 1675SOL    HW2 6730   4.061   3.312   2.705
 1675SOL    HW3 6731   3.997   3.176   2.692
 1675SOL    MW4 6732   4.059   3.227   2.725
 1676SOL     OW 6733   4.075   3.478   2.639
 1676SOL    HW2 6734   4.162   3.504   2.668
 1676SOL    HW3 6735   4.085   3.456   2.547
 1676SOL    MW4 6736   4.088   3.479   2.631
 1677SOL     OW 6737   4.308   3.586   2.765
 1677SOL    HW2 6738   4.313   3.589   2.861
 1677SOL    HW3 6739   4.385   3.536   2.739
 1677SOL    MW4 6740   4.319   3.580   2.775
 1678SOL     OW 6741   4.312   3.808   2.609
 1678SOL    HW2 6742   4.309   3.732   2.668
 1678SOL    HW3 6743   4.376   3.867   2.649
 1678SOL    MW4 6744   4.320   3.806   2.622
 1679SOL     OW 6745   4.097   3.971   2.715
 1679SOL    HW2 6746   4.092   3.975   2.810
 1679SOL    HW3 6747   4.174   3.918   2.697
 1679SOL    MW4 6748   4.106   3.964   2.725
 1680SOL     OW 6749   4.122   4.240   2.635
 1680SOL    HW2 6750   4.117   4.149   2.665
 1680SOL    HW3 6751   4.102   4.236   2.542
 1680SOL    MW4 6752   4.119   4.227   2.627
 1681SOL     OW 6753   4.287   4.406   2.774
 1681SOL    HW2 6754   4.240   4.334   2.733
 1681SOL    HW3 6755   4.246   4.485   2.738
 1681SOL    MW4 6756   4.276   4.407   2.764
 1682SOL     OW 6757   0.242   4.644   3.111
 1682SOL    HW2 6758   0.236   4.650   3.206
 1682SOL    HW3 6759   0.162   4.685   3.079
 1682SOL    MW4 6760   0.231   4.650   3.119
 1683SOL     OW 6761   4.477   0.103   3.022
 1683SOL    HW2 6762   4.408   0.052   3.064
 1683SOL    HW3 6763   4.476   0.187   3.066
 1683SOL    MW4 6764   4.468   0.107   3.033
 1684SOL     OW 6765   4.468   0.353   3.136
 1684SOL    HW2 6766   4.471   0.360   3.232
 1684SOL    HW3 6767   4.378   0.379   3.113
 1684SOL    MW4 6768   4.456   0.357   3.146
 1685SOL     OW 6769   0.153   0.507   2.996
 1685SOL    HW2 6770   0.234   0.462   3.020
 1685SOL    HW3 6771   0.085   0.463   3.047
 1685SOL    MW4 6772   0.155   0.495   3.006
 1686SOL     OW 6773   0.212   0.752   3.071
 1686SOL    HW2 6774   0.210   0.765   3.166
 1686SOL    HW3 6775   0.198   0.658   3.059
 1686SOL    MW4 6776   0.210   0.742   3.082
 1687SOL     OW 6777   4.473   0.888   3.017
 1687SOL    HW2 6778   4.540   0.828   3.050
 1687SOL    HW3 6779   4.484   0.887   2.922
 1687SOL    MW4 6780   4.483   0.880   3.009
 1688SOL     OW 6781   0.004   1.171   3.105
 1688SOL    HW2 6782  -0.081   1.207   3.082
 1688SOL    HW3 6783  -0.001   1.079   3.078
 1688SOL    MW4 6784  -0.008   1.163   3.098
 1689SOL     OW 6785   0.249   1.276   2.979
 1689SOL    HW2 6786   0.178   1.241   3.032
 1689SOL    HW3 6787   0.218   1.269   2.889
 1689SOL    MW4 6788   0.235   1.271   2.974
 1690SOL     OW 6789   0.254   1.535   3.095
 1690SOL    HW2 6790   0.170   1.571   3.064
 1690SOL    HW3 6791   0.257   1.447   3.059
 1690SOL    MW4 6792   0.243   1.528   3.086
 1691SOL     OW 6793   4.490   1.627   3.027
 1691SOL    HW2 6794   4.423   1.562   3.049
 1691SOL    HW3 6795   4.465   1.705   3.075
 1691SOL    MW4 6796   4.478   1.629   3.036
 1692SOL     OW 6797   4.468   1.885   3.128
 1692SOL    HW2 6798   4.409   1.948   3.087
 1692SOL    HW3 6799   4.555   1.922   3.116
 1692SOL    MW4 6800   4.472   1.898   3.121
 1693SOL     OW 6801   0.191   2.040   3.038
 1693SOL    HW2 6802   0.189   2.132   3.064
 1693SOL    HW3 6803   0.170   2.041   2.945
 1693SOL    MW4 6804   0.188   2.052   3.029
 1694SOL     OW 6805   0.221   2.312   3.120
 1694SOL    HW2 6806   0.214   2.304   3.215
 1694SOL    HW3 6807   0.311   2.344   3.105
 1694SOL    MW4 6808   0.232   2.315   3.130
 1695SOL     OW 6809   4.441   2.395   3.073
 1695SOL    HW2 6810   4.458   2.488   3.086
 1695SOL    HW3 6811   4.528   2.354   3.074
 1695SOL    MW4 6812   4.454   2.402   3.075
 1696SOL     OW 6813   4.479   2.690   3.123
 1696SOL    HW2 6814   4.502   2.673   3.214
 1696SOL    HW3 6815   4.561   2.719   3.083
 1696SOL    MW4 6816   4.493   2.691   3.129
 1697SOL     OW 6817   0.229   2.838   3.029
 1697SOL    HW2 6818   0.307   2.793   3.062
 1697SOL    HW3 6819   0.246   2.850   2.936
 1697SOL    MW4 6820   0.241   2.834   3.021
 1698SOL     OW 6821   0.257   3.080   3.164
 1698SOL    HW2 6822   0.183   3.120   3.118
 1698SOL    HW3 6823   0.259   2.990   3.132
 1698SOL    MW4 6824   0.247   3.074   3.153
 1699SOL     OW 6825   0.055   3.214   3.058
 1699SOL    HW2 6826  -0.024   3.165   3.086
 1699SOL    HW3 6827   0.061   3.197   2.964
 1699SOL    MW4 6828   0.045   3.205   3.049
 1700SOL     OW 6829   0.061   3.467   3.152
 1700SOL    HW2 6830  -0.018   3.500   3.109
 1700SOL    HW3 6831   0.062   3.373   3.133
 1700SOL    MW4 6832   0.051   3.459   3.143
 1701SOL     OW 6833   0.248   3.603   3.000
 1701SOL    HW2 6834   0.252   3.696   3.023
 1701SOL    HW3 6835   0.178   3.568   3.055
 1701SOL    MW4 6836   0.240   3.611   3.010
 1702SOL     OW 6837   0.228   3.862   3.109
 1702SOL    HW2 6838   0.249   3.845   3.201
 1702SOL    HW3 6839   0.303   3.913   3.076
 1702SOL    MW4 6840   0.241   3.866   3.116
 1703SOL     OW 6841   4.488   3.977   3.037
 1703SOL    HW2 6842   4.570   3.928   3.045
 1703SOL    HW3 6843   4.479   3.994   2.943
 1703SOL    MW4 6844   4.498   3.973   3.026
 1704SOL     OW 6845   0.032   4.238   3.091
 1704SOL    HW2 6846   0.024   4.257   3.185
 1704SOL    HW3 6847   0.035   4.143   3.086
 1704SOL    MW4 6848   0.032   4.228   3.103
 1705SOL     OW 6849   0.242   4.376   3.029
 1705SOL    HW2 6850   0.162   4.329   3.052
 1705SOL    HW3 6851   0.238   4.457   3.080
 1705SOL    MW4 6852   0.231   4.380   3.039
 1706SOL     OW 6853   0.650   4.647   3.155
 1706SOL    HW2 6854   0.651   4.571   3.096
 1706SOL    HW3 6855   0.595   4.711   3.110
 1706SOL    MW4 6856   0.643   4.645   3.141
 1707SOL     OW 6857   0.465   0.116   2.990
 1707SOL    HW2 6858   0.436   0.207   2.998
 1707SOL    HW3 6859   0.389   0.064   3.016
 1707SOL    MW4 6860   0.451   0.121   2.995
 1708SOL     OW 6861   0.398   0.384   3.066
 1708SOL    HW2 6862   0.395   0.383   3.162
 1708SOL    HW3 6863   0.480   0.430   3.045
 1708SOL    MW4 6864   0.409   0.390   3.076
 1709SOL     OW 6865   0.638   0.534   3.030
 1709SOL    HW2 6866   0.705   0.486   3.079
 1709SOL    HW3 6867   0.658   0.627   3.047
 1709SOL    MW4 6868   0.650   0.540   3.039
 1710SOL     OW 6869   0.664   0.807   3.076
 1710SOL    HW2 6870   0.659   0.790   3.170
 1710SOL    HW3 6871   0.575   0.829   3.050
 1710SOL    MW4 6872   0.652   0.808   3.085
 1711SOL     OW 6873   0.430   0.906   2.944
 1711SOL    HW2 6874   0.340   0.888   2.974
 1711SOL    HW3 6875   0.422   0.919   2.850
 1711SOL    MW4 6876   0.417   0.906   2.936
 1712SOL     OW 6877   0.474   1.161   3.084
 1712SOL    HW2 6878   0.471   1.072   3.049
 1712SOL    HW3 6879   0.390   1.200   3.058
 1712SOL    MW4 6880   0.462   1.155   3.076
 1713SOL     OW 6881   0.715   1.263   2.982
 1713SOL    HW2 6882   0.776   1.232   3.049
 1713SOL    HW3 6883   0.632   1.219   3.003
 1713SOL    MW4 6884   0.712   1.253   2.994
 1714SOL     OW 6885   0.688   1.530   3.061
 1714SOL    HW2 6886   0.696   1.524   3.156
 1714SOL    HW3 6887   0.694   1.439   3.030
 1714SOL    MW4 6888   0.690   1.517   3.070
 1715SOL     OW 6889   0.455   1.679   2.991
 1715SOL    HW2 6890   0.538   1.639   3.017
 1715SOL    HW3 6891   0.389   1.628   3.038
 1715SOL    MW4 6892   0.457   1.667   3.001
 1716SOL     OW 6893   0.455   1.940   3.098
 1716SOL    HW2 6894   0.458   1.848   3.074
 1716SOL    HW3 6895   0.366   1.968   3.077
 1716SOL    MW4 6896   0.444   1.932   3.092
 1717SOL     OW 6897   0.679   2.072   2.977
 1717SOL    HW2 6898   0.752   2.027   3.020
 1717SOL    HW3 6899   0.601   2.033   3.016
 1717SOL    MW4 6900   0.678   2.061   2.988
 1718SOL     OW 6901   0.714   2.307   3.097
 1718SOL    HW2 6902   0.695   2.282   3.187
 1718SOL    HW3 6903   0.719   2.223   3.050
 1718SOL    MW4 6904   0.712   2.292   3.102
 1719SOL     OW 6905   0.479   2.441   2.995
 1719SOL    HW2 6906   0.564   2.405   3.021
 1719SOL    HW3 6907   0.466   2.409   2.905
 1719SOL    MW4 6908   0.489   2.432   2.986
 1720SOL     OW 6909   0.436   2.693   3.125
 1720SOL    HW2 6910   0.521   2.735   3.113
 1720SOL    HW3 6911   0.446   2.606   3.085
 1720SOL    MW4 6912   0.448   2.687   3.118
 1721SOL     OW 6913   0.696   2.832   3.032
 1721SOL    HW2 6914   0.771   2.797   3.079
 1721SOL    HW3 6915   0.692   2.924   3.058
 1721SOL    MW4 6916   0.705   2.840   3.041
 1722SOL     OW 6917   0.694   3.091   3.145
 1722SOL    HW2 6918   0.679   3.086   3.239
 1722SOL    HW3 6919   0.625   3.147   3.112
 1722SOL    MW4 6920   0.683   3.098   3.153
 1723SOL     OW 6921   0.472   3.203   3.006
 1723SOL    HW2 6922   0.475   3.293   3.039
 1723SOL    HW3 6923   0.392   3.166   3.043
 1723SOL    MW4 6924   0.462   3.210   3.015
 1724SOL     OW 6925   0.456   3.478   3.113
 1724SOL    HW2 6926   0.432   3.460   3.203
 1724SOL    HW3 6927   0.378   3.518   3.074
 1724SOL    MW4 6928   0.443   3.481   3.119
 1725SOL     OW 6929   0.684   3.598   3.009
 1725SOL    HW2 6930   0.761   3.563   3.053
 1725SOL    HW3 6931   0.610   3.563   3.058
 1725SOL    MW4 6932   0.684   3.589   3.021
 1726SOL     OW 6933   0.672   3.865   3.102
 1726SOL    HW2 6934   0.681   3.863   3.197
 1726SOL    HW3 6935   0.687   3.775   3.075
 1726SOL    MW4 6936   0.675   3.853   3.111
 1727SOL     OW 6937   0.458   3.979   3.009
 1727SOL    HW2 6938   0.538   3.933   3.032
 1727SOL    HW3 6939   0.461   3.988   2.914
 1727SOL    MW4 6940   0.469   3.974   3.000
 1728SOL     OW 6941   0.467   4.242   3.133
 1728SOL    HW2 6942   0.479   4.154   3.097
 1728SOL    HW3 6943   0.389   4.276   3.087
 1728SOL    MW4 6944   0.458   4.235   3.122
 1729SOL     OW 6945   0.658   4.413   3.007
 1729SOL    HW2 6946   0.586   4.355   3.031
 1729SOL    HW3 6947   0.660   4.412   2.912
 1729SOL    MW4 6948   0.649   4.405   2.998
 1730SOL     OW 6949   1.128   4.630   3.141
 1730SOL    HW2 6950   1.203   4.683   3.113
 1730SOL    HW3 6951   1.052   4.683   3.117
 1730SOL    MW4 6952   1.128   4.644   3.134
 1731SOL     OW 6953   0.914   0.090   3.034
 1731SOL    HW2 6954   0.889   0.182   3.038
 1731SOL    HW3 6955   0.833   0.043   3.051
 1731SOL    MW4 6956   0.900   0.096   3.037
 1732SOL     OW 6957   0.858   0.365   3.119
 1732SOL    HW2 6958   0.879   0.350   3.211
 1732SOL    HW3 6959   0.934   0.413   3.084
 1732SOL    MW4 6960   0.871   0.369   3.126
 1733SOL     OW 6961   1.100   0.475   3.042
 1733SOL    HW2 6962   1.179   0.423   3.060
 1733SOL    HW3 6963   1.083   0.461   2.949
 1733SOL    MW4 6964   1.109   0.466   3.032
 1734SOL     OW 6965   1.105   0.736   3.147
 1734SOL    HW2 6966   1.097   0.738   3.243
 1734SOL    HW3 6967   1.111   0.643   3.126
 1734SOL    MW4 6968   1.105   0.724   3.157
 1735SOL     OW 6969   0.918   0.881   2.996
 1735SOL    HW2 6970   0.978   0.840   3.060
 1735SOL    HW3 6971   0.831   0.866   3.032
 1735SOL    MW4 6972   0.915   0.873   3.009
 1736SOL     OW 6973   0.924   1.135   3.121
 1736SOL    HW2 6974   0.997   1.186   3.086
 1736SOL    HW3 6975   0.938   1.047   3.085
 1736SOL    MW4 6976   0.936   1.130   3.111
 1737SOL     OW 6977   1.113   1.311   3.018
 1737SOL    HW2 6978   1.194   1.266   3.042
 1737SOL    HW3 6979   1.099   1.288   2.926
 1737SOL    MW4 6980   1.122   1.302   3.009
 1738SOL     OW 6981   1.106   1.553   3.151
 1738SOL    HW2 6982   1.177   1.601   3.107
 1738SOL    HW3 6983   1.118   1.462   3.124
 1738SOL    MW4 6984   1.117   1.548   3.142
 1739SOL     OW 6985   0.912   1.711   3.028
 1739SOL    HW2 6986   0.989   1.667   3.065
 1739SOL    HW3 6987   0.839   1.654   3.053
 1739SOL    MW4 6988   0.913   1.697   3.036
 1740SOL     OW 6989   0.899   1.969   3.109
 1740SOL    HW2 6990   0.899   1.971   3.204
 1740SOL    HW3 6991   0.890   1.876   3.087
 1740SOL    MW4 6992   0.898   1.957   3.119
 1741SOL     OW 6993   1.149   2.074   3.026
 1741SOL    HW2 6994   1.065   2.037   3.054
 1741SOL    HW3 6995   1.149   2.064   2.931
 1741SOL    MW4 6996   1.138   2.068   3.017
 1742SOL     OW 6997   1.167   2.349   3.076
 1742SOL    HW2 6998   1.082   2.383   3.050
 1742SOL    HW3 6999   1.164   2.255   3.055
 1742SOL    MW4 7000   1.156   2.341   3.070
 1743SOL     OW 7001   0.939   2.480   3.016
 1743SOL    HW2 7002   0.876   2.428   3.067
 1743SOL    HW3 7003   0.921   2.457   2.925
 1743SOL    MW4 7004   0.929   2.470   3.011
 1744SOL     OW 7005   0.952   2.754   3.150
 1744SOL    HW2 7006   0.928   2.755   3.243
 1744SOL    HW3 7007   0.942   2.662   3.124
 1744SOL    MW4 7008   0.948   2.742   3.159
 1745SOL     OW 7009   1.170   2.877   3.034
 1745SOL    HW2 7010   1.152   2.969   3.056
 1745SOL    HW3 7011   1.106   2.828   3.084
 1745SOL    MW4 7012   1.159   2.883   3.044
 1746SOL     OW 7013   1.142   3.126   3.140
 1746SOL    HW2 7014   1.212   3.175   3.095
 1746SOL    HW3 7015   1.061   3.164   3.107
 1746SOL    MW4 7016   1.141   3.137   3.130
 1747SOL     OW 7017   0.908   3.230   3.034
 1747SOL    HW2 7018   0.827   3.187   3.062
 1747SOL    HW3 7019   0.915   3.211   2.941
 1747SOL    MW4 7020   0.898   3.222   3.026
 1748SOL     OW 7021   0.893   3.476   3.126
 1748SOL    HW2 7022   0.951   3.541   3.088
 1748SOL    HW3 7023   0.914   3.394   3.080
 1748SOL    MW4 7024   0.903   3.473   3.115
 1749SOL     OW 7025   1.115   3.639   3.038
 1749SOL    HW2 7026   1.192   3.613   3.088
 1749SOL    HW3 7027   1.103   3.731   3.059
 1749SOL    MW4 7028   1.123   3.648   3.047
 1750SOL     OW 7029   1.125   3.916   3.073
 1750SOL    HW2 7030   1.122   3.903   3.168
 1750SOL    HW3 7031   1.045   3.965   3.053
 1750SOL    MW4 7032   1.114   3.920   3.083
 1751SOL     OW 7033   0.864   4.023   3.006
 1751SOL    HW2 7034   0.794   3.961   3.028
 1751SOL    HW3 7035   0.897   3.993   2.921
 1751SOL    MW4 7036   0.859   4.011   2.998
 1752SOL     OW 7037   0.884   4.287   3.107
 1752SOL    HW2 7038   0.854   4.202   3.075
 1752SOL    HW3 7039   0.816   4.349   3.079
 1752SOL    MW4 7040   0.871   4.284   3.099
 1753SOL     OW 7041   1.113   4.402   2.985
 1753SOL    HW2 7042   1.025   4.367   3.003
 1753SOL    HW3 7043   1.120   4.479   3.041
 1753SOL    MW4 7044   1.102   4.408   2.995
 1754SOL     OW 7045   1.582   4.644   3.125
 1754SOL    HW2 7046   1.566   4.641   3.219
 1754SOL    HW3 7047   1.500   4.675   3.087
 1754SOL    MW4 7048   1.569   4.648   3.132
 1755SOL     OW 7049   1.348   0.080   3.010
 1755SOL    HW2 7050   1.348   0.174   3.026
 1755SOL    HW3 7051   1.318   0.070   2.920
 1755SOL    MW4 7052   1.344   0.091   3.000
 1756SOL     OW 7053   1.353   0.346   3.117
 1756SOL    HW2 7054   1.339   0.355   3.211
 1756SOL    HW3 7055   1.430   0.398   3.099
 1756SOL    MW4 7056   1.361   0.354   3.127
 1757SOL     OW 7057   1.564   0.478   3.007
 1757SOL    HW2 7058   1.589   0.570   3.016
 1757SOL    HW3 7059   1.528   0.471   2.919
 1757SOL    MW4 7060   1.563   0.489   2.997
 1758SOL     OW 7061   1.587   0.743   3.074
 1758SOL    HW2 7062   1.595   0.745   3.169
 1758SOL    HW3 7063   1.497   0.769   3.056
 1758SOL    MW4 7064   1.576   0.747   3.084
 1759SOL     OW 7065   1.330   0.860   3.028
 1759SOL    HW2 7066   1.325   0.954   3.045
 1759SOL    HW3 7067   1.255   0.822   3.073
 1759SOL    MW4 7068   1.320   0.867   3.036
 1760SOL     OW 7069   1.303   1.140   3.110
 1760SOL    HW2 7070   1.306   1.130   3.205
 1760SOL    HW3 7071   1.379   1.195   3.090
 1760SOL    MW4 7072   1.314   1.146   3.120
 1761SOL     OW 7073   1.544   1.281   3.016
 1761SOL    HW2 7074   1.633   1.251   3.033
 1761SOL    HW3 7075   1.546   1.375   3.037
 1761SOL    MW4 7076   1.556   1.290   3.021
 1762SOL     OW 7077   1.542   1.534   3.107
 1762SOL    HW2 7078   1.604   1.604   3.090
 1762SOL    HW3 7079   1.456   1.577   3.104
 1762SOL    MW4 7080   1.539   1.549   3.105
 1763SOL     OW 7081   1.317   1.670   3.017
 1763SOL    HW2 7082   1.339   1.761   3.034
 1763SOL    HW3 7083   1.310   1.664   2.922
 1763SOL    MW4 7084   1.319   1.681   3.007
 1764SOL     OW 7085   1.365   1.934   3.110
 1764SOL    HW2 7086   1.346   1.922   3.203
 1764SOL    HW3 7087   1.297   1.993   3.078
 1764SOL    MW4 7088   1.354   1.940   3.118
 1765SOL     OW 7089   1.584   2.076   3.026
 1765SOL    HW2 7090   1.501   2.033   3.049
 1765SOL    HW3 7091   1.593   2.062   2.932
 1765SOL    MW4 7092   1.574   2.069   3.017
 1766SOL     OW 7093   1.623   2.344   3.108
 1766SOL    HW2 7094   1.547   2.390   3.072
 1766SOL    HW3 7095   1.615   2.254   3.074
 1766SOL    MW4 7096   1.612   2.338   3.098
 1767SOL     OW 7097   1.393   2.482   2.980
 1767SOL    HW2 7098   1.313   2.441   3.012
 1767SOL    HW3 7099   1.384   2.483   2.885
 1767SOL    MW4 7100   1.381   2.477   2.972
 1768SOL     OW 7101   1.385   2.748   3.132
 1768SOL    HW2 7102   1.368   2.662   3.094
 1768SOL    HW3 7103   1.324   2.806   3.087
 1768SOL    MW4 7104   1.374   2.744   3.121
 1769SOL     OW 7105   1.601   2.887   2.980
 1769SOL    HW2 7106   1.686   2.849   3.005
 1769SOL    HW3 7107   1.536   2.834   3.026
 1769SOL    MW4 7108   1.604   2.875   2.990
 1770SOL     OW 7109   1.615   3.122   3.112
 1770SOL    HW2 7110   1.583   3.109   3.202
 1770SOL    HW3 7111   1.604   3.037   3.070
 1770SOL    MW4 7112   1.609   3.109   3.118
 1771SOL     OW 7113   1.375   3.252   3.027
 1771SOL    HW2 7114   1.460   3.213   3.049
 1771SOL    HW3 7115   1.369   3.243   2.932
 1771SOL    MW4 7116   1.385   3.246   3.017
 1772SOL     OW 7117   1.338   3.499   3.134
 1772SOL    HW2 7118   1.353   3.483   3.227
 1772SOL    HW3 7119   1.335   3.412   3.094
 1772SOL    MW4 7120   1.339   3.486   3.141
 1773SOL     OW 7121   1.583   3.635   3.040
 1773SOL    HW2 7122   1.501   3.587   3.054
 1773SOL    HW3 7123   1.599   3.627   2.946
 1773SOL    MW4 7124   1.574   3.628   3.029
 1774SOL     OW 7125   1.555   3.890   3.137
 1774SOL    HW2 7126   1.630   3.940   3.104
 1774SOL    HW3 7127   1.563   3.804   3.096
 1774SOL    MW4 7128   1.566   3.885   3.127
 1775SOL     OW 7129   1.354   4.011   2.991
 1775SOL    HW2 7130   1.416   3.965   3.047
 1775SOL    HW3 7131   1.268   3.982   3.021
 1775SOL    MW4 7132   1.351   4.001   3.002
 1776SOL     OW 7133   1.309   4.255   3.123
 1776SOL    HW2 7134   1.329   4.178   3.069
 1776SOL    HW3 7135   1.238   4.300   3.077
 1776SOL    MW4 7136   1.302   4.251   3.110
 1777SOL     OW 7137   1.573   4.369   3.066
 1777SOL    HW2 7138   1.485   4.340   3.091
 1777SOL    HW3 7139   1.577   4.460   3.095
 1777SOL    MW4 7140   1.562   4.377   3.073
 1778SOL     OW 7141   2.042   4.652   3.089
 1778SOL    HW2 7142   2.044   4.645   3.185
 1778SOL    HW3 7143   1.968   4.710   3.071
 1778SOL    MW4 7144   2.032   4.659   3.100
 1779SOL     OW 7145   1.802   0.112   2.999
 1779SOL    HW2 7146   1.724   0.062   3.026
 1779SOL    HW3 7147   1.789   0.127   2.906
 1779SOL    MW4 7148   1.790   0.107   2.990
 1780SOL     OW 7149   1.742   0.339   3.145
 1780SOL    HW2 7150   1.780   0.258   3.111
 1780SOL    HW3 7151   1.682   0.369   3.077
 1780SOL    MW4 7152   1.739   0.332   3.132
 1781SOL     OW 7153   1.977   0.462   3.045
 1781SOL    HW2 7154   1.905   0.419   3.093
 1781SOL    HW3 7155   1.956   0.447   2.953
 1781SOL    MW4 7156   1.964   0.454   3.040
 1782SOL     OW 7157   2.032   0.742   3.092
 1782SOL    HW2 7158   1.958   0.799   3.071
 1782SOL    HW3 7159   2.007   0.657   3.055
 1782SOL    MW4 7160   2.019   0.738   3.084
 1783SOL     OW 7161   1.806   0.872   2.999
 1783SOL    HW2 7162   1.724   0.830   3.022
 1783SOL    HW3 7163   1.800   0.886   2.904
 1783SOL    MW4 7164   1.795   0.868   2.989
 1784SOL     OW 7165   1.810   1.139   3.062
 1784SOL    HW2 7166   1.818   1.135   3.158
 1784SOL    HW3 7167   1.813   1.047   3.034
 1784SOL    MW4 7168   1.812   1.126   3.071
 1785SOL     OW 7169   2.033   1.294   3.002
 1785SOL    HW2 7170   2.104   1.237   3.032
 1785SOL    HW3 7171   1.954   1.241   3.010
 1785SOL    MW4 7172   2.032   1.280   3.007
 1786SOL     OW 7173   2.003   1.559   3.118
 1786SOL    HW2 7174   1.999   1.551   3.214
 1786SOL    HW3 7175   2.008   1.468   3.087
 1786SOL    MW4 7176   2.003   1.546   3.127
 1787SOL     OW 7177   1.769   1.683   3.012
 1787SOL    HW2 7178   1.785   1.774   3.038
 1787SOL    HW3 7179   1.847   1.636   3.040
 1787SOL    MW4 7180   1.781   1.689   3.019
 1788SOL     OW 7181   1.813   1.954   3.116
 1788SOL    HW2 7182   1.882   2.017   3.094
 1788SOL    HW3 7183   1.732   1.995   3.087
 1788SOL    MW4 7184   1.812   1.968   3.109
 1789SOL     OW 7185   2.041   2.111   2.991
 1789SOL    HW2 7186   2.109   2.059   3.034
 1789SOL    HW3 7187   2.042   2.195   3.037
 1789SOL    MW4 7188   2.050   2.115   3.003
 1790SOL     OW 7189   2.040   2.354   3.133
 1790SOL    HW2 7190   2.125   2.377   3.095
 1790SOL    HW3 7191   1.977   2.403   3.082
 1790SOL    MW4 7192   2.043   2.363   3.122
 1791SOL     OW 7193   1.838   2.467   2.993
 1791SOL    HW2 7194   1.834   2.557   3.024
 1791SOL    HW3 7195   1.769   2.421   3.041
 1791SOL    MW4 7196   1.829   2.473   3.004
 1792SOL     OW 7197   1.827   2.743   3.083
 1792SOL    HW2 7198   1.829   2.747   3.179
 1792SOL    HW3 7199   1.900   2.797   3.056
 1792SOL    MW4 7200   1.837   2.750   3.092
 1793SOL     OW 7201   2.044   2.890   2.979
 1793SOL    HW2 7202   2.039   2.982   3.007
 1793SOL    HW3 7203   2.013   2.892   2.888
 1793SOL    MW4 7204   2.039   2.902   2.971
 1794SOL     OW 7205   2.038   3.144   3.070
 1794SOL    HW2 7206   2.038   3.141   3.166
 1794SOL    HW3 7207   1.954   3.184   3.047
 1794SOL    MW4 7208   2.027   3.149   3.080
 1795SOL     OW 7209   1.808   3.255   2.980
 1795SOL    HW2 7210   1.741   3.204   3.025
 1795SOL    HW3 7211   1.796   3.234   2.887
 1795SOL    MW4 7212   1.797   3.245   2.974
 1796SOL     OW 7213   1.813   3.490   3.138
 1796SOL    HW2 7214   1.806   3.401   3.102
 1796SOL    HW3 7215   1.733   3.533   3.110
 1796SOL    MW4 7216   1.802   3.484   3.130
 1797SOL     OW 7217   2.041   3.618   3.021
 1797SOL    HW2 7218   2.055   3.701   3.067
 1797SOL    HW3 7219   1.964   3.580   3.062
 1797SOL    MW4 7220   2.033   3.624   3.032
 1798SOL     OW 7221   2.057   3.866   3.130
 1798SOL    HW2 7222   2.069   3.858   3.225
 1798SOL    HW3 7223   1.975   3.914   3.119
 1798SOL    MW4 7224   2.048   3.871   3.141
 1799SOL     OW 7225   1.793   3.992   3.066
 1799SOL    HW2 7226   1.798   4.083   3.096
 1799SOL    HW3 7227   1.781   3.999   2.972
 1799SOL    MW4 7228   1.792   4.005   3.058
 1800SOL     OW 7229   1.827   4.263   3.140
 1800SOL    HW2 7230   1.890   4.307   3.082
 1800SOL    HW3 7231   1.742   4.300   3.115
 1800SOL    MW4 7232   1.824   4.274   3.129
 1801SOL     OW 7233   2.023   4.424   2.960
 1801SOL    HW2 7234   2.026   4.507   3.007
 1801SOL    HW3 7235   2.028   4.449   2.867
 1801SOL    MW4 7236   2.024   4.439   2.954
 1802SOL     OW 7237   2.492   0.019   3.060
 1802SOL    HW2 7238   2.502  -0.068   3.021
 1802SOL    HW3 7239   2.409   0.052   3.026
 1802SOL    MW4 7240   2.483   0.012   3.050
 1803SOL     OW 7241   2.253   0.142   2.985
 1803SOL    HW2 7242   2.259   0.232   3.016
 1803SOL    HW3 7243   2.192   0.100   3.045
 1803SOL    MW4 7244   2.246   0.148   2.997
 1804SOL     OW 7245   2.243   0.400   3.129
 1804SOL    HW2 7246   2.232   0.417   3.223
 1804SOL    HW3 7247   2.157   0.416   3.091
 1804SOL    MW4 7248   2.230   0.404   3.137
 1805SOL     OW 7249   2.420   0.548   2.977
 1805SOL    HW2 7250   2.349   0.500   3.020
 1805SOL    HW3 7251   2.415   0.522   2.885
 1805SOL    MW4 7252   2.410   0.538   2.971
 1806SOL     OW 7253   2.495   0.821   3.026
 1806SOL    HW2 7254   2.583   0.852   3.005
 1806SOL    HW3 7255   2.499   0.727   3.009
 1806SOL    MW4 7256   2.507   0.812   3.021
 1807SOL     OW 7257   2.226   0.886   2.979
 1807SOL    HW2 7258   2.314   0.852   2.996
 1807SOL    HW3 7259   2.168   0.831   3.033
 1807SOL    MW4 7260   2.230   0.874   2.989
 1808SOL     OW 7261   2.241   1.138   3.083
 1808SOL    HW2 7262   2.257   1.125   3.176
 1808SOL    HW3 7263   2.248   1.051   3.045
 1808SOL    MW4 7264   2.244   1.125   3.090
 1809SOL     OW 7265   2.452   1.261   2.993
 1809SOL    HW2 7266   2.372   1.221   3.027
 1809SOL    HW3 7267   2.436   1.271   2.899
 1809SOL    MW4 7268   2.439   1.257   2.985
 1810SOL     OW 7269   2.500   1.523   3.086
 1810SOL    HW2 7270   2.423   1.574   3.063
 1810SOL    HW3 7271   2.488   1.439   3.041
 1810SOL    MW4 7272   2.489   1.518   3.077
 1811SOL     OW 7273   2.253   1.666   3.034
 1811SOL    HW2 7274   2.174   1.628   3.072
 1811SOL    HW3 7275   2.238   1.664   2.940
 1811SOL    MW4 7276   2.241   1.661   3.027
 1812SOL     OW 7277   2.212   1.939   3.111
 1812SOL    HW2 7278   2.296   1.982   3.092
 1812SOL    HW3 7279   2.226   1.848   3.087
 1812SOL    MW4 7280   2.225   1.933   3.106
 1813SOL     OW 7281   2.456   2.053   3.023
 1813SOL    HW2 7282   2.534   2.012   3.059
 1813SOL    HW3 7283   2.476   2.065   2.930
 1813SOL    MW4 7284   2.469   2.049   3.015
 1814SOL     OW 7285   2.501   2.318   3.093
 1814SOL    HW2 7286   2.487   2.320   3.188
 1814SOL    HW3 7287   2.494   2.225   3.070
 1814SOL    MW4 7288   2.498   2.306   3.103
 1815SOL     OW 7289   2.259   2.446   3.020
 1815SOL    HW2 7290   2.258   2.538   3.047
 1815SOL    HW3 7291   2.343   2.413   3.051
 1815SOL    MW4 7292   2.270   2.454   3.028
 1816SOL     OW 7293   2.253   2.732   3.073
 1816SOL    HW2 7294   2.326   2.778   3.030
 1816SOL    HW3 7295   2.176   2.786   3.055
 1816SOL    MW4 7296   2.253   2.745   3.065
 1817SOL     OW 7297   2.488   2.824   2.965
 1817SOL    HW2 7298   2.494   2.911   3.005
 1817SOL    HW3 7299   2.478   2.841   2.871
 1817SOL    MW4 7300   2.487   2.838   2.958
 1818SOL     OW 7301   2.490   3.089   3.051
 1818SOL    HW2 7302   2.565   3.138   3.018
 1818SOL    HW3 7303   2.415   3.145   3.033
 1818SOL    MW4 7304   2.490   3.103   3.044
 1819SOL     OW 7305   2.281   3.271   3.017
 1819SOL    HW2 7306   2.286   3.359   3.054
 1819SOL    HW3 7307   2.203   3.232   3.056
 1819SOL    MW4 7308   2.272   3.277   3.027
 1820SOL     OW 7309   2.281   3.544   3.132
 1820SOL    HW2 7310   2.323   3.599   3.066
 1820SOL    HW3 7311   2.189   3.540   3.104
 1820SOL    MW4 7312   2.274   3.551   3.120
 1821SOL     OW 7313   2.464   3.638   2.940
 1821SOL    HW2 7314   2.519   3.572   2.982
 1821SOL    HW3 7315   2.494   3.721   2.977
 1821SOL    MW4 7316   2.475   3.640   2.950
 1822SOL     OW 7317   2.510   3.894   3.060
 1822SOL    HW2 7318   2.514   3.887   3.155
 1822SOL    HW3 7319   2.581   3.953   3.037
 1822SOL    MW4 7320   2.520   3.901   3.070
 1823SOL     OW 7321   2.257   4.015   3.019
 1823SOL    HW2 7322   2.338   3.968   3.034
 1823SOL    HW3 7323   2.190   3.963   3.063
 1823SOL    MW4 7324   2.259   4.002   3.027
 1824SOL     OW 7325   2.250   4.306   3.057
 1824SOL    HW2 7326   2.249   4.211   3.042
 1824SOL    HW3 7327   2.167   4.337   3.020
 1824SOL    MW4 7328   2.239   4.298   3.050
 1825SOL     OW 7329   2.494   4.428   2.974
 1825SOL    HW2 7330   2.410   4.385   2.990
 1825SOL    HW3 7331   2.504   4.427   2.879
 1825SOL    MW4 7332   2.484   4.422   2.964
 1826SOL     OW 7333   2.934   0.029   3.079
 1826SOL    HW2 7334   3.010   0.071   3.039
 1826SOL    HW3 7335   2.935  -0.061   3.045
 1826SOL    MW4 7336   2.945   0.022   3.069
 1827SOL     OW 7337   2.714   0.185   2.960
 1827SOL    HW2 7338   2.792   0.135   2.985
 1827SOL    HW3 7339   2.641   0.135   2.997
 1827SOL    MW4 7340   2.714   0.172   2.968
 1828SOL     OW 7341   2.672   0.439   3.101
 1828SOL    HW2 7342   2.648   0.358   3.056
 1828SOL    HW3 7343   2.603   0.501   3.077
 1828SOL    MW4 7344   2.660   0.437   3.092
 1829SOL     OW 7345   2.929   0.521   3.007
 1829SOL    HW2 7346   2.842   0.490   3.032
 1829SOL    HW3 7347   2.927   0.524   2.911
 1829SOL    MW4 7348   2.917   0.517   2.998
 1830SOL     OW 7349   2.922   0.794   3.110
 1830SOL    HW2 7350   2.937   0.790   3.204
 1830SOL    HW3 7351   2.884   0.709   3.088
 1830SOL    MW4 7352   2.919   0.782   3.120
 1831SOL     OW 7353   2.753   0.926   2.960
 1831SOL    HW2 7354   2.725   1.011   2.992
 1831SOL    HW3 7355   2.820   0.897   3.022
 1831SOL    MW4 7356   2.759   0.933   2.972
 1832SOL     OW 7357   2.685   1.144   3.123
 1832SOL    HW2 7358   2.755   1.200   3.090
 1832SOL    HW3 7359   2.606   1.178   3.082
 1832SOL    MW4 7360   2.684   1.155   3.114
 1833SOL     OW 7361   2.893   1.277   3.029
 1833SOL    HW2 7362   2.979   1.243   3.052
 1833SOL    HW3 7363   2.894   1.369   3.057
 1833SOL    MW4 7364   2.904   1.285   3.035
 1834SOL     OW 7365   2.924   1.599   3.126
 1834SOL    HW2 7366   2.931   1.583   3.220
 1834SOL    HW3 7367   3.007   1.642   3.103
 1834SOL    MW4 7368   2.936   1.603   3.135
 1835SOL     OW 7369   2.690   1.702   3.013
 1835SOL    HW2 7370   2.778   1.674   3.038
 1835SOL    HW3 7371   2.632   1.636   3.052
 1835SOL    MW4 7372   2.694   1.689   3.021
 1836SOL     OW 7373   2.673   1.935   3.147
 1836SOL    HW2 7374   2.739   1.996   3.114
 1836SOL    HW3 7375   2.689   1.854   3.099
 1836SOL    MW4 7376   2.684   1.932   3.136
 1837SOL     OW 7377   2.882   2.095   3.010
 1837SOL    HW2 7378   2.918   2.181   3.033
 1837SOL    HW3 7379   2.881   2.095   2.914
 1837SOL    MW4 7380   2.887   2.106   3.000
 1838SOL     OW 7381   2.927   2.347   3.099
 1838SOL    HW2 7382   2.995   2.402   3.059
 1838SOL    HW3 7383   2.848   2.366   3.049
 1838SOL    MW4 7384   2.926   2.357   3.087
 1839SOL     OW 7385   2.707   2.441   2.957
 1839SOL    HW2 7386   2.707   2.522   3.008
 1839SOL    HW3 7387   2.626   2.398   2.982
 1839SOL    MW4 7388   2.697   2.446   2.967
 1840SOL     OW 7389   2.696   2.690   3.081
 1840SOL    HW2 7390   2.674   2.707   3.172
 1840SOL    HW3 7391   2.633   2.741   3.030
 1840SOL    MW4 7392   2.685   2.699   3.086
 1841SOL     OW 7393   2.950   2.811   2.992
 1841SOL    HW2 7394   3.020   2.778   3.048
 1841SOL    HW3 7395   2.870   2.777   3.032
 1841SOL    MW4 7396   2.949   2.802   3.005
 1842SOL     OW 7397   2.961   3.089   3.061
 1842SOL    HW2 7398   2.880   3.134   3.039
 1842SOL    HW3 7399   2.947   2.998   3.032
 1842SOL    MW4 7400   2.949   3.083   3.055
 1843SOL     OW 7401   2.719   3.226   2.967
 1843SOL    HW2 7402   2.716   3.315   3.002
 1843SOL    HW3 7403   2.731   3.238   2.873
 1843SOL    MW4 7404   2.720   3.240   2.959
 1844SOL     OW 7405   2.660   3.482   3.055
 1844SOL    HW2 7406   2.666   3.461   3.148
 1844SOL    HW3 7407   2.744   3.522   3.033
 1844SOL    MW4 7408   2.672   3.485   3.064
 1845SOL     OW 7409   2.920   3.597   2.993
 1845SOL    HW2 7410   2.992   3.540   3.022
 1845SOL    HW3 7411   2.931   3.676   3.045
 1845SOL    MW4 7412   2.931   3.600   3.004
 1846SOL     OW 7413   2.933   3.862   3.098
 1846SOL    HW2 7414   2.912   3.844   3.189
 1846SOL    HW3 7415   2.866   3.923   3.069
 1846SOL    MW4 7416   2.921   3.868   3.106
 1847SOL     OW 7417   2.738   4.047   2.994
 1847SOL    HW2 7418   2.721   4.141   3.000
 1847SOL    HW3 7419   2.763   4.032   2.903
 1847SOL    MW4 7420   2.739   4.057   2.983
 1848SOL     OW 7421   2.728   4.317   3.056
 1848SOL    HW2 7422   2.702   4.282   3.141
 1848SOL    HW3 7423   2.651   4.367   3.027
 1848SOL    MW4 7424   2.714   4.319   3.063
 1849SOL     OW 7425   2.974   4.441   2.963
 1849SOL    HW2 7426   3.032   4.375   3.001
 1849SOL    HW3 7427   2.886   4.410   2.983
 1849SOL    MW4 7428   2.970   4.428   2.971
 1850SOL     OW 7429   3.343   0.007   3.084
 1850SOL    HW2 7430   3.428   0.033   3.048
 1850SOL    HW3 7431   3.338  -0.087   3.067
 1850SOL    MW4 7432   3.354  -0.002   3.077
 1851SOL     OW 7433   3.147   0.161   2.967
 1851SOL    HW2 7434   3.169   0.248   3.001
 1851SOL    HW3 7435   3.215   0.103   3.001
 1851SOL    MW4 7436   3.159   0.165   2.976
 1852SOL     OW 7437   3.143   0.381   3.113
 1852SOL    HW2 7438   3.218   0.427   3.074
 1852SOL    HW3 7439   3.067   0.425   3.076
 1852SOL    MW4 7440   3.143   0.393   3.103
 1853SOL     OW 7441   3.350   0.504   2.974
 1853SOL    HW2 7442   3.422   0.446   3.001
 1853SOL    HW3 7443   3.346   0.492   2.879
 1853SOL    MW4 7444   3.359   0.494   2.965
 1854SOL     OW 7445   3.388   0.761   3.094
 1854SOL    HW2 7446   3.375   0.738   3.186
 1854SOL    HW3 7447   3.386   0.677   3.048
 1854SOL    MW4 7448   3.386   0.747   3.100
 1855SOL     OW 7449   3.161   0.893   3.010
 1855SOL    HW2 7450   3.233   0.838   3.040
 1855SOL    HW3 7451   3.083   0.854   3.050
 1855SOL    MW4 7452   3.161   0.881   3.019
 1856SOL     OW 7453   3.136   1.169   3.091
 1856SOL    HW2 7454   3.217   1.208   3.057
 1856SOL    HW3 7455   3.142   1.077   3.066
 1856SOL    MW4 7456   3.148   1.162   3.083
 1857SOL     OW 7457   3.378   1.273   3.008
 1857SOL    HW2 7458   3.447   1.225   3.054
 1857SOL    HW3 7459   3.371   1.356   3.055
 1857SOL    MW4 7460   3.386   1.278   3.020
 1858SOL     OW 7461   3.345   1.520   3.130
 1858SOL    HW2 7462   3.368   1.527   3.223
 1858SOL    HW3 7463   3.408   1.577   3.085
 1858SOL    MW4 7464   3.357   1.528   3.136
 1859SOL     OW 7465   3.160   1.718   3.046
 1859SOL    HW2 7466   3.216   1.653   3.090
 1859SOL    HW3 7467   3.157   1.689   2.955
 1859SOL    MW4 7468   3.167   1.705   3.040
 1860SOL     OW 7469   3.074   1.954   3.161
 1860SOL    HW2 7470   3.087   1.871   3.115
 1860SOL    HW3 7471   3.016   2.004   3.104
 1860SOL    MW4 7472   3.068   1.949   3.148
 1861SOL     OW 7473   3.341   2.031   3.024
 1861SOL    HW2 7474   3.423   1.993   3.054
 1861SOL    HW3 7475   3.273   1.979   3.068
 1861SOL    MW4 7476   3.343   2.019   3.034
 1862SOL     OW 7477   3.318   2.274   3.130
 1862SOL    HW2 7478   3.322   2.270   3.225
 1862SOL    HW3 7479   3.322   2.183   3.101
 1862SOL    MW4 7480   3.319   2.262   3.139
 1863SOL     OW 7481   3.159   2.462   2.999
 1863SOL    HW2 7482   3.220   2.402   3.042
 1863SOL    HW3 7483   3.162   2.437   2.907
 1863SOL    MW4 7484   3.168   2.451   2.992
 1864SOL     OW 7485   3.174   2.709   3.119
 1864SOL    HW2 7486   3.183   2.692   3.213
 1864SOL    HW3 7487   3.187   2.623   3.079
 1864SOL    MW4 7488   3.177   2.695   3.126
 1865SOL     OW 7489   3.408   2.814   3.005
 1865SOL    HW2 7490   3.408   2.908   3.021
 1865SOL    HW3 7491   3.321   2.785   3.032
 1865SOL    MW4 7492   3.397   2.822   3.011
 1866SOL     OW 7493   3.408   3.083   3.068
 1866SOL    HW2 7494   3.405   3.098   3.163
 1866SOL    HW3 7495   3.331   3.128   3.034
 1866SOL    MW4 7496   3.398   3.091   3.076
 1867SOL     OW 7497   3.191   3.210   2.958
 1867SOL    HW2 7498   3.116   3.153   2.977
 1867SOL    HW3 7499   3.189   3.221   2.863
 1867SOL    MW4 7500   3.180   3.204   2.948
 1868SOL     OW 7501   3.157   3.460   3.066
 1868SOL    HW2 7502   3.231   3.517   3.044
 1868SOL    HW3 7503   3.187   3.372   3.044
 1868SOL    MW4 7504   3.171   3.456   3.060
 1869SOL     OW 7505   3.394   3.586   3.002
 1869SOL    HW2 7506   3.469   3.535   3.034
 1869SOL    HW3 7507   3.401   3.670   3.047
 1869SOL    MW4 7508   3.405   3.590   3.012
 1870SOL     OW 7509   3.385   3.847   3.125
 1870SOL    HW2 7510   3.374   3.849   3.220
 1870SOL    HW3 7511   3.316   3.906   3.092
 1870SOL    MW4 7512   3.374   3.855   3.133
 1871SOL     OW 7513   3.176   3.942   2.987
 1871SOL    HW2 7514   3.114   3.892   3.040
 1871SOL    HW3 7515   3.154   3.919   2.897
 1871SOL    MW4 7516   3.165   3.932   2.982
 1872SOL     OW 7517   3.150   4.232   3.036
 1872SOL    HW2 7518   3.174   4.246   3.128
 1872SOL    HW3 7519   3.154   4.137   3.024
 1872SOL    MW4 7520   3.154   4.221   3.046
 1873SOL     OW 7521   3.363   4.409   2.960
 1873SOL    HW2 7522   3.448   4.367   2.974
 1873SOL    HW3 7523   3.299   4.341   2.980
 1873SOL    MW4 7524   3.366   4.395   2.965
 1874SOL     OW 7525   3.801   0.002   3.109
 1874SOL    HW2 7526   3.800  -0.088   3.076
 1874SOL    HW3 7527   3.728   0.045   3.062
 1874SOL    MW4 7528   3.791  -0.004   3.098
 1875SOL     OW 7529   3.578   0.119   3.000
 1875SOL    HW2 7530   3.578   0.213   3.017
 1875SOL    HW3 7531   3.585   0.112   2.905
 1875SOL    MW4 7532   3.579   0.131   2.990
 1876SOL     OW 7533   3.589   0.386   3.073
 1876SOL    HW2 7534   3.607   0.359   3.163
 1876SOL    HW3 7535   3.674   0.417   3.040
 1876SOL    MW4 7536   3.603   0.387   3.081
 1877SOL     OW 7537   3.832   0.483   2.989
 1877SOL    HW2 7538   3.908   0.435   3.020
 1877SOL    HW3 7539   3.837   0.567   3.034
 1877SOL    MW4 7540   3.843   0.488   2.999
 1878SOL     OW 7541   3.839   0.731   3.090
 1878SOL    HW2 7542   3.825   0.750   3.182
 1878SOL    HW3 7543   3.917   0.781   3.066
 1878SOL    MW4 7544   3.847   0.740   3.099
 1879SOL     OW 7545   3.618   0.884   2.991
 1879SOL    HW2 7546   3.696   0.833   3.014
 1879SOL    HW3 7547   3.546   0.840   3.035
 1879SOL    MW4 7548   3.619   0.871   3.000
 1880SOL     OW 7549   3.590   1.135   3.126
 1880SOL    HW2 7550   3.666   1.185   3.098
 1880SOL    HW3 7551   3.601   1.049   3.085
 1880SOL    MW4 7552   3.601   1.130   3.117
 1881SOL     OW 7553   3.819   1.280   3.040
 1881SOL    HW2 7554   3.798   1.371   3.057
 1881SOL    HW3 7555   3.809   1.270   2.945
 1881SOL    MW4 7556   3.815   1.290   3.030
 1882SOL     OW 7557   3.780   1.535   3.110
 1882SOL    HW2 7558   3.774   1.533   3.206
 1882SOL    HW3 7559   3.709   1.594   3.084
 1882SOL    MW4 7560   3.770   1.542   3.119
 1883SOL     OW 7561   3.551   1.685   3.030
 1883SOL    HW2 7562   3.570   1.773   3.063
 1883SOL    HW3 7563   3.552   1.694   2.935
 1883SOL    MW4 7564   3.554   1.698   3.022
 1884SOL     OW 7565   3.584   1.927   3.145
 1884SOL    HW2 7566   3.577   1.929   3.241
 1884SOL    HW3 7567   3.669   1.965   3.126
 1884SOL    MW4 7568   3.594   1.932   3.155
 1885SOL     OW 7569   3.846   2.010   3.065
 1885SOL    HW2 7570   3.843   2.102   3.092
 1885SOL    HW3 7571   3.827   2.012   2.971
 1885SOL    MW4 7572   3.843   2.023   3.056
 1886SOL     OW 7573   3.797   2.289   3.142
 1886SOL    HW2 7574   3.773   2.301   3.233
 1886SOL    HW3 7575   3.721   2.319   3.092
 1886SOL    MW4 7576   3.784   2.295   3.147
 1887SOL     OW 7577   3.572   2.378   3.005
 1887SOL    HW2 7578   3.587   2.466   3.042
 1887SOL    HW3 7579   3.503   2.341   3.060
 1887SOL    MW4 7580   3.565   2.385   3.017
 1888SOL     OW 7581   3.621   2.636   3.093
 1888SOL    HW2 7582   3.697   2.683   3.058
 1888SOL    HW3 7583   3.548   2.696   3.081
 1888SOL    MW4 7584   3.621   2.650   3.087
 1889SOL     OW 7585   3.836   2.787   3.000
 1889SOL    HW2 7586   3.838   2.879   3.025
 1889SOL    HW3 7587   3.819   2.788   2.906
 1889SOL    MW4 7588   3.834   2.799   2.991
 1890SOL     OW 7589   3.873   3.033   3.127
 1890SOL    HW2 7590   3.951   3.082   3.103
 1890SOL    HW3 7591   3.800   3.085   3.092
 1890SOL    MW4 7592   3.874   3.046   3.119
 1891SOL     OW 7593   3.655   3.173   3.000
 1891SOL    HW2 7594   3.570   3.137   3.027
 1891SOL    HW3 7595   3.644   3.189   2.906
 1891SOL    MW4 7596   3.642   3.170   2.991
 1892SOL     OW 7597   3.621   3.443   3.145
 1892SOL    HW2 7598   3.691   3.502   3.120
 1892SOL    HW3 7599   3.636   3.364   3.094
 1892SOL    MW4 7600   3.632   3.440   3.135
 1893SOL     OW 7601   3.839   3.579   3.035
 1893SOL    HW2 7602   3.840   3.674   3.043
 1893SOL    HW3 7603   3.851   3.563   2.941
 1893SOL    MW4 7604   3.841   3.589   3.023
 1894SOL     OW 7605   3.816   3.866   3.096
 1894SOL    HW2 7606   3.809   3.842   3.188
 1894SOL    HW3 7607   3.737   3.917   3.078
 1894SOL    MW4 7608   3.805   3.870   3.106
 1895SOL     OW 7609   3.590   4.010   3.027
 1895SOL    HW2 7610   3.524   3.956   3.070
 1895SOL    HW3 7611   3.582   3.987   2.934
 1895SOL    MW4 7612   3.580   4.000   3.020
 1896SOL     OW 7613   3.587   4.299   3.069
 1896SOL    HW2 7614   3.671   4.330   3.034
 1896SOL    HW3 7615   3.589   4.204   3.054
 1896SOL    MW4 7616   3.598   4.290   3.063
 1897SOL     OW 7617   3.835   4.402   3.014
 1897SOL    HW2 7618   3.889   4.343   3.066
 1897SOL    HW3 7619   3.878   4.404   2.928
 1897SOL    MW4 7620   3.848   4.395   3.009
 1898SOL     OW 7621   4.252   4.623   3.103
 1898SOL    HW2 7622   4.256   4.626   3.198
 1898SOL    HW3 7623   4.259   4.530   3.081
 1898SOL    MW4 7624   4.253   4.611   3.113
 1899SOL     OW 7625   4.041   0.082   2.985
 1899SOL    HW2 7626   4.114   0.030   3.019
 1899SOL    HW3 7627   3.963   0.043   3.024
 1899SOL    MW4 7628   4.041   0.070   2.995
 1900SOL     OW 7629   4.035   0.336   3.119
 1900SOL    HW2 7630   4.113   0.376   3.081
 1900SOL    HW3 7631   4.037   0.245   3.088
 1900SOL    MW4 7632   4.045   0.329   3.110
 1901SOL     OW 7633   4.249   0.488   3.044
 1901SOL    HW2 7634   4.263   0.571   3.090
 1901SOL    HW3 7635   4.237   0.513   2.953
 1901SOL    MW4 7636   4.249   0.502   3.038
 1902SOL     OW 7637   4.262   0.760   3.108
 1902SOL    HW2 7638   4.185   0.803   3.071
 1902SOL    HW3 7639   4.335   0.793   3.057
 1902SOL    MW4 7640   4.261   0.770   3.096
 1903SOL     OW 7641   4.056   0.885   2.978
 1903SOL    HW2 7642   4.041   0.970   3.017
 1903SOL    HW3 7643   4.052   0.900   2.884
 1903SOL    MW4 7644   4.054   0.898   2.971
 1904SOL     OW 7645   4.027   1.117   3.123
 1904SOL    HW2 7646   4.024   1.115   3.219
 1904SOL    HW3 7647   3.953   1.172   3.098
 1904SOL    MW4 7648   4.017   1.124   3.133
 1905SOL     OW 7649   4.265   1.243   3.014
 1905SOL    HW2 7650   4.184   1.199   3.041
 1905SOL    HW3 7651   4.252   1.264   2.922
 1905SOL    MW4 7652   4.253   1.240   3.006
 1906SOL     OW 7653   4.257   1.503   3.118
 1906SOL    HW2 7654   4.172   1.535   3.089
 1906SOL    HW3 7655   4.260   1.413   3.087
 1906SOL    MW4 7656   4.246   1.495   3.110
 1907SOL     OW 7657   4.021   1.617   3.016
 1907SOL    HW2 7658   4.023   1.702   3.060
 1907SOL    HW3 7659   3.948   1.571   3.057
 1907SOL    MW4 7660   4.012   1.622   3.028
 1908SOL     OW 7661   4.066   1.878   3.137
 1908SOL    HW2 7662   4.134   1.929   3.092
 1908SOL    HW3 7663   3.984   1.917   3.107
 1908SOL    MW4 7664   4.064   1.890   3.127
 1909SOL     OW 7665   4.257   2.012   2.998
 1909SOL    HW2 7666   4.260   2.094   3.047
 1909SOL    HW3 7667   4.236   2.038   2.909
 1909SOL    MW4 7668   4.255   2.026   2.993
 1910SOL     OW 7669   4.222   2.246   3.136
 1910SOL    HW2 7670   4.144   2.284   3.096
 1910SOL    HW3 7671   4.292   2.308   3.116
 1910SOL    MW4 7672   4.221   2.259   3.128
 1911SOL     OW 7673   4.006   2.420   3.028
 1911SOL    HW2 7674   4.009   2.506   3.071
 1911SOL    HW3 7675   3.934   2.374   3.071
 1911SOL    MW4 7676   3.997   2.425   3.040
 1912SOL     OW 7677   4.071   2.706   3.102
 1912SOL    HW2 7678   4.050   2.709   3.195
 1912SOL    HW3 7679   3.994   2.743   3.058
 1912SOL    MW4 7680   4.058   2.711   3.108
 1913SOL     OW 7681   4.288   2.835   3.006
 1913SOL    HW2 7682   4.212   2.790   3.043
 1913SOL    HW3 7683   4.361   2.774   3.021
 1913SOL    MW4 7684   4.288   2.821   3.013
 1914SOL     OW 7685   4.305   3.082   3.124
 1914SOL    HW2 7686   4.226   3.122   3.088
 1914SOL    HW3 7687   4.304   2.993   3.091
 1914SOL    MW4 7688   4.294   3.076   3.115
 1915SOL     OW 7689   4.079   3.195   3.028
 1915SOL    HW2 7690   4.056   3.279   3.068
 1915SOL    HW3 7691   4.072   3.211   2.934
 1915SOL    MW4 7692   4.075   3.208   3.021
 1916SOL     OW 7693   4.079   3.463   3.149
 1916SOL    HW2 7694   4.062   3.450   3.242
 1916SOL    HW3 7695   4.014   3.527   3.122
 1916SOL    MW4 7696   4.068   3.469   3.158
 1917SOL     OW 7697   4.314   3.559   3.046
 1917SOL    HW2 7698   4.301   3.648   3.079
 1917SOL    HW3 7699   4.238   3.510   3.079
 1917SOL    MW4 7700   4.302   3.564   3.054
 1918SOL     OW 7701   4.269   3.825   3.120
 1918SOL    HW2 7702   4.194   3.862   3.074
 1918SOL    HW3 7703   4.342   3.880   3.096
 1918SOL    MW4 7704   4.269   3.837   3.111
 1919SOL     OW 7705   4.060   3.966   2.995
 1919SOL    HW2 7706   4.064   4.052   3.038
 1919SOL    HW3 7707   3.987   3.921   3.039
 1919SOL    MW4 7708   4.051   3.972   3.007
 1920SOL     OW 7709   4.046   4.224   3.111
 1920SOL    HW2 7710   4.037   4.223   3.206
 1920SOL    HW3 7711   4.131   4.265   3.096
 1920SOL    MW4 7712   4.056   4.230   3.121
 1921SOL     OW 7713   4.286   4.364   3.044
 1921SOL    HW2 7714   4.355   4.302   3.066
 1921SOL    HW3 7715   4.303   4.389   2.953
 1921SOL    MW4 7716   4.297   4.359   3.035
 1922SOL     OW 7717   0.256   0.001   3.406
 1922SOL    HW2 7718   0.343   0.040   3.413
 1922SOL    HW3 7719   0.266  -0.088   3.438
 1922SOL    MW4 7720   0.269  -0.005   3.411
 1923SOL     OW 7721   4.483   0.086   3.458
 1923SOL    HW2 7722   4.483   0.181   3.444
 1923SOL    HW3 7723   4.573   0.059   3.437
 1923SOL    MW4 7724   4.495   0.095   3.454
 1924SOL     OW 7725   4.473   0.370   3.401
 1924SOL    HW2 7726   4.402   0.398   3.460
 1924SOL    HW3 7727   4.551   0.413   3.435
 1924SOL    MW4 7728   4.474   0.379   3.414
 1925SOL     OW 7729   0.237   0.494   3.489
 1925SOL    HW2 7730   0.307   0.450   3.442
 1925SOL    HW3 7731   0.237   0.583   3.454
 1925SOL    MW4 7732   0.247   0.500   3.478
 1926SOL     OW 7733   0.207   0.739   3.355
 1926SOL    HW2 7734   0.282   0.781   3.395
 1926SOL    HW3 7735   0.131   0.779   3.398
 1926SOL    MW4 7736   0.207   0.750   3.366
 1927SOL     OW 7737   4.468   0.878   3.503
 1927SOL    HW2 7738   4.483   0.882   3.597
 1927SOL    HW3 7739   4.455   0.969   3.477
 1927SOL    MW4 7740   4.468   0.890   3.512
 1928SOL     OW 7741   4.489   1.140   3.372
 1928SOL    HW2 7742   4.571   1.183   3.397
 1928SOL    HW3 7743   4.481   1.156   3.278
 1928SOL    MW4 7744   4.499   1.148   3.363
 1929SOL     OW 7745   0.230   1.273   3.476
 1929SOL    HW2 7746   0.303   1.248   3.420
 1929SOL    HW3 7747   0.211   1.364   3.453
 1929SOL    MW4 7748   0.237   1.281   3.466
 1930SOL     OW 7749   0.216   1.532   3.375
 1930SOL    HW2 7750   0.299   1.574   3.397
 1930SOL    HW3 7751   0.215   1.532   3.279
 1930SOL    MW4 7752   0.227   1.537   3.365
 1931SOL     OW 7753   4.485   1.631   3.486
 1931SOL    HW2 7754   4.408   1.588   3.450
 1931SOL    HW3 7755   4.559   1.594   3.438
 1931SOL    MW4 7756   4.485   1.621   3.475
 1932SOL     OW 7757   4.437   1.886   3.402
 1932SOL    HW2 7758   4.428   1.796   3.434
 1932SOL    HW3 7759   4.459   1.877   3.309
 1932SOL    MW4 7760   4.439   1.873   3.394
 1933SOL     OW 7761   0.194   2.026   3.455
 1933SOL    HW2 7762   0.167   2.051   3.544
 1933SOL    HW3 7763   0.123   1.972   3.423
 1933SOL    MW4 7764   0.181   2.022   3.463
 1934SOL     OW 7765   0.219   2.292   3.395
 1934SOL    HW2 7766   0.144   2.335   3.434
 1934SOL    HW3 7767   0.202   2.198   3.405
 1934SOL    MW4 7768   0.207   2.285   3.401
 1935SOL     OW 7769   4.481   2.387   3.495
 1935SOL    HW2 7770   4.476   2.392   3.590
 1935SOL    HW3 7771   4.394   2.358   3.468
 1935SOL    MW4 7772   4.468   2.384   3.504
 1936SOL     OW 7773   0.000   2.663   3.400
 1936SOL    HW2 7774   0.078   2.696   3.444
 1936SOL    HW3 7775  -0.004   2.570   3.424
 1936SOL    MW4 7776   0.010   2.655   3.409
 1937SOL     OW 7777   0.213   2.783   3.510
 1937SOL    HW2 7778   0.298   2.741   3.492
 1937SOL    HW3 7779   0.224   2.873   3.479
 1937SOL    MW4 7780   0.226   2.789   3.504
 1938SOL     OW 7781   0.256   3.054   3.432
 1938SOL    HW2 7782   0.180   3.105   3.460
 1938SOL    HW3 7783   0.250   3.051   3.337
 1938SOL    MW4 7784   0.245   3.060   3.423
 1939SOL     OW 7785   0.055   3.210   3.526
 1939SOL    HW2 7786  -0.029   3.168   3.505
 1939SOL    HW3 7787   0.044   3.300   3.496
 1939SOL    MW4 7788   0.042   3.216   3.519
 1940SOL     OW 7789   0.035   3.462   3.414
 1940SOL    HW2 7790  -0.039   3.521   3.430
 1940SOL    HW3 7791   0.050   3.469   3.320
 1940SOL    MW4 7792   0.027   3.471   3.404
 1941SOL     OW 7793   0.268   3.606   3.506
 1941SOL    HW2 7794   0.279   3.595   3.600
 1941SOL    HW3 7795   0.195   3.548   3.484
 1941SOL    MW4 7796   0.260   3.597   3.515
 1942SOL     OW 7797   0.264   3.850   3.389
 1942SOL    HW2 7798   0.181   3.894   3.408
 1942SOL    HW3 7799   0.253   3.762   3.425
 1942SOL    MW4 7800   0.252   3.844   3.396
 1943SOL     OW 7801   0.020   3.988   3.459
 1943SOL    HW2 7802   0.010   3.978   3.554
 1943SOL    HW3 7803   0.027   4.082   3.445
 1943SOL    MW4 7804   0.019   3.999   3.470
 1944SOL     OW 7805   0.031   4.274   3.369
 1944SOL    HW2 7806  -0.046   4.324   3.396
 1944SOL    HW3 7807   0.106   4.323   3.404
 1944SOL    MW4 7808   0.031   4.287   3.378
 1945SOL     OW 7809   0.258   4.393   3.462
 1945SOL    HW2 7810   0.245   4.374   3.555
 1945SOL    HW3 7811   0.334   4.341   3.436
 1945SOL    MW4 7812   0.266   4.384   3.471
 1946SOL     OW 7813   0.666   4.613   3.428
 1946SOL    HW2 7814   0.740   4.670   3.451
 1946SOL    HW3 7815   0.659   4.621   3.333
 1946SOL    MW4 7816   0.674   4.622   3.418
 1947SOL     OW 7817   0.474   0.130   3.503
 1947SOL    HW2 7818   0.467   0.133   3.599
 1947SOL    HW3 7819   0.546   0.069   3.487
 1947SOL    MW4 7820   0.482   0.122   3.514
 1948SOL     OW 7821   0.455   0.349   3.362
 1948SOL    HW2 7822   0.535   0.395   3.385
 1948SOL    HW3 7823   0.460   0.267   3.411
 1948SOL    MW4 7824   0.466   0.344   3.371
 1949SOL     OW 7825   0.639   0.513   3.448
 1949SOL    HW2 7826   0.631   0.515   3.543
 1949SOL    HW3 7827   0.725   0.475   3.432
 1949SOL    MW4 7828   0.649   0.508   3.458
 1950SOL     OW 7829   0.658   0.767   3.362
 1950SOL    HW2 7830   0.588   0.818   3.403
 1950SOL    HW3 7831   0.641   0.677   3.390
 1950SOL    MW4 7832   0.646   0.762   3.371
 1951SOL     OW 7833   0.430   0.890   3.470
 1951SOL    HW2 7834   0.425   0.894   3.565
 1951SOL    HW3 7835   0.409   0.979   3.442
 1951SOL    MW4 7836   0.427   0.903   3.479
 1952SOL     OW 7837   0.446   1.155   3.351
 1952SOL    HW2 7838   0.518   1.211   3.382
 1952SOL    HW3 7839   0.458   1.151   3.257
 1952SOL    MW4 7840   0.457   1.162   3.343
 1953SOL     OW 7841   0.661   1.289   3.481
 1953SOL    HW2 7842   0.736   1.238   3.451
 1953SOL    HW3 7843   0.671   1.374   3.440
 1953SOL    MW4 7844   0.672   1.293   3.472
 1954SOL     OW 7845   0.699   1.546   3.346
 1954SOL    HW2 7846   0.765   1.593   3.398
 1954SOL    HW3 7847   0.615   1.579   3.377
 1954SOL    MW4 7848   0.697   1.557   3.357
 1955SOL     OW 7849   0.456   1.647   3.469
 1955SOL    HW2 7850   0.466   1.649   3.564
 1955SOL    HW3 7851   0.463   1.739   3.442
 1955SOL    MW4 7852   0.458   1.659   3.478
 1956SOL     OW 7853   0.452   1.928   3.390
 1956SOL    HW2 7854   0.373   1.973   3.419
 1956SOL    HW3 7855   0.454   1.943   3.295
 1956SOL    MW4 7856   0.442   1.936   3.381
 1957SOL     OW 7857   0.672   2.035   3.495
 1957SOL    HW2 7858   0.661   2.036   3.590
 1957SOL    HW3 7859   0.594   1.989   3.463
 1957SOL    MW4 7860   0.660   2.029   3.503
 1958SOL     OW 7861   0.677   2.279   3.383
 1958SOL    HW2 7862   0.750   2.327   3.421
 1958SOL    HW3 7863   0.687   2.189   3.416
 1958SOL    MW4 7864   0.688   2.273   3.392
 1959SOL     OW 7865   0.441   2.422   3.469
 1959SOL    HW2 7866   0.515   2.369   3.441
 1959SOL    HW3 7867   0.364   2.370   3.448
 1959SOL    MW4 7868   0.441   2.408   3.463
 1960SOL     OW 7869   0.462   2.678   3.408
 1960SOL    HW2 7870   0.457   2.586   3.434
 1960SOL    HW3 7871   0.447   2.677   3.313
 1960SOL    MW4 7872   0.459   2.666   3.399
 1961SOL     OW 7873   0.675   2.825   3.520
 1961SOL    HW2 7874   0.754   2.794   3.477
 1961SOL    HW3 7875   0.604   2.776   3.478
 1961SOL    MW4 7876   0.676   2.815   3.509
 1962SOL     OW 7877   0.675   3.093   3.412
 1962SOL    HW2 7878   0.609   3.131   3.470
 1962SOL    HW3 7879   0.692   3.006   3.448
 1962SOL    MW4 7880   0.668   3.086   3.424
 1963SOL     OW 7881   0.455   3.203   3.546
 1963SOL    HW2 7882   0.417   3.201   3.634
 1963SOL    HW3 7883   0.396   3.149   3.493
 1963SOL    MW4 7884   0.442   3.195   3.551
 1964SOL     OW 7885   0.479   3.452   3.400
 1964SOL    HW2 7886   0.473   3.377   3.459
 1964SOL    HW3 7887   0.427   3.520   3.443
 1964SOL    MW4 7888   0.471   3.451   3.413
 1965SOL     OW 7889   0.708   3.592   3.467
 1965SOL    HW2 7890   0.787   3.541   3.449
 1965SOL    HW3 7891   0.636   3.536   3.437
 1965SOL    MW4 7892   0.709   3.578   3.460
 1966SOL     OW 7893   0.702   3.856   3.377
 1966SOL    HW2 7894   0.633   3.905   3.422
 1966SOL    HW3 7895   0.697   3.768   3.414
 1966SOL    MW4 7896   0.692   3.851   3.388
 1967SOL     OW 7897   0.487   3.963   3.508
 1967SOL    HW2 7898   0.486   4.053   3.474
 1967SOL    HW3 7899   0.417   3.919   3.459
 1967SOL    MW4 7900   0.477   3.969   3.497
 1968SOL     OW 7901   0.460   4.206   3.394
 1968SOL    HW2 7902   0.535   4.247   3.437
 1968SOL    HW3 7903   0.465   4.234   3.303
 1968SOL    MW4 7904   0.470   4.215   3.388
 1969SOL     OW 7905   0.672   4.352   3.499
 1969SOL    HW2 7906   0.746   4.317   3.450
 1969SOL    HW3 7907   0.672   4.445   3.478
 1969SOL    MW4 7908   0.682   4.360   3.490
 1970SOL     OW 7909   1.096   4.611   3.417
 1970SOL    HW2 7910   1.174   4.651   3.455
 1970SOL    HW3 7911   1.118   4.599   3.325
 1970SOL    MW4 7912   1.109   4.615   3.410
 1971SOL     OW 7913   0.889   0.107   3.493
 1971SOL    HW2 7914   0.894   0.096   3.588
 1971SOL    HW3 7915   0.956   0.048   3.459
 1971SOL    MW4 7916   0.899   0.097   3.501
 1972SOL     OW 7917   0.877   0.383   3.390
 1972SOL    HW2 7918   0.952   0.423   3.433
 1972SOL    HW3 7919   0.875   0.293   3.425
 1972SOL    MW4 7920   0.887   0.376   3.400
 1973SOL     OW 7921   1.113   0.473   3.512
 1973SOL    HW2 7922   1.102   0.477   3.608
 1973SOL    HW3 7923   1.111   0.564   3.484
 1973SOL    MW4 7924   1.111   0.485   3.521
 1974SOL     OW 7925   1.115   0.724   3.430
 1974SOL    HW2 7926   1.190   0.781   3.447
 1974SOL    HW3 7927   1.039   0.775   3.461
 1974SOL    MW4 7928   1.115   0.738   3.437
 1975SOL     OW 7929   0.887   0.868   3.504
 1975SOL    HW2 7930   0.883   0.954   3.461
 1975SOL    HW3 7931   0.806   0.824   3.478
 1975SOL    MW4 7932   0.876   0.874   3.495
 1976SOL     OW 7933   0.874   1.139   3.399
 1976SOL    HW2 7934   0.943   1.191   3.442
 1976SOL    HW3 7935   0.904   1.130   3.308
 1976SOL    MW4 7936   0.887   1.144   3.393
 1977SOL     OW 7937   1.086   1.279   3.518
 1977SOL    HW2 7938   1.101   1.291   3.612
 1977SOL    HW3 7939   1.085   1.368   3.483
 1977SOL    MW4 7940   1.087   1.293   3.526
 1978SOL     OW 7941   1.115   1.532   3.440
 1978SOL    HW2 7942   1.205   1.562   3.456
 1978SOL    HW3 7943   1.104   1.540   3.346
 1978SOL    MW4 7944   1.126   1.537   3.430
 1979SOL     OW 7945   0.899   1.675   3.505
 1979SOL    HW2 7946   0.903   1.755   3.453
 1979SOL    HW3 7947   0.983   1.632   3.489
 1979SOL    MW4 7948   0.911   1.680   3.496
 1980SOL     OW 7949   0.904   1.925   3.377
 1980SOL    HW2 7950   0.977   1.982   3.401
 1980SOL    HW3 7951   0.828   1.966   3.419
 1980SOL    MW4 7952   0.903   1.938   3.386
 1981SOL     OW 7953   1.112   2.087   3.476
 1981SOL    HW2 7954   1.178   2.036   3.430
 1981SOL    HW3 7955   1.112   2.172   3.432
 1981SOL    MW4 7956   1.121   2.092   3.464
 1982SOL     OW 7957   1.124   2.344   3.350
 1982SOL    HW2 7958   1.205   2.367   3.396
 1982SOL    HW3 7959   1.145   2.354   3.258
 1982SOL    MW4 7960   1.137   2.348   3.344
 1983SOL     OW 7961   0.896   2.454   3.475
 1983SOL    HW2 7962   0.898   2.437   3.569
 1983SOL    HW3 7963   0.978   2.417   3.443
 1983SOL    MW4 7964   0.907   2.447   3.483
 1984SOL     OW 7965   0.908   2.727   3.423
 1984SOL    HW2 7966   0.992   2.760   3.456
 1984SOL    HW3 7967   0.913   2.633   3.436
 1984SOL    MW4 7968   0.920   2.719   3.429
 1985SOL     OW 7969   1.135   2.859   3.513
 1985SOL    HW2 7970   1.113   2.825   3.600
 1985SOL    HW3 7971   1.209   2.805   3.484
 1985SOL    MW4 7972   1.142   2.848   3.521
 1986SOL     OW 7973   1.121   3.120   3.427
 1986SOL    HW2 7974   1.134   3.033   3.463
 1986SOL    HW3 7975   1.124   3.108   3.332
 1986SOL    MW4 7976   1.123   3.107   3.420
 1987SOL     OW 7977   0.891   3.237   3.503
 1987SOL    HW2 7978   0.969   3.191   3.470
 1987SOL    HW3 7979   0.817   3.186   3.470
 1987SOL    MW4 7980   0.892   3.224   3.495
 1988SOL     OW 7981   0.932   3.479   3.385
 1988SOL    HW2 7982   0.918   3.390   3.416
 1988SOL    HW3 7983   0.915   3.475   3.291
 1988SOL    MW4 7984   0.928   3.467   3.376
 1989SOL     OW 7985   1.135   3.642   3.495
 1989SOL    HW2 7986   1.131   3.640   3.591
 1989SOL    HW3 7987   1.071   3.577   3.467
 1989SOL    MW4 7988   1.126   3.633   3.504
 1990SOL     OW 7989   1.129   3.878   3.346
 1990SOL    HW2 7990   1.202   3.921   3.391
 1990SOL    HW3 7991   1.122   3.792   3.389
 1990SOL    MW4 7992   1.137   3.872   3.358
 1991SOL     OW 7993   0.925   3.973   3.500
 1991SOL    HW2 7994   1.005   3.949   3.453
 1991SOL    HW3 7995   0.855   3.929   3.453
 1991SOL    MW4 7996   0.926   3.964   3.488
 1992SOL     OW 7997   0.899   4.244   3.387
 1992SOL    HW2 7998   0.908   4.149   3.397
 1992SOL    HW3 7999   0.910   4.259   3.294
 1992SOL    MW4 8000   0.902   4.233   3.376
 1993SOL     OW 8001   1.109   4.352   3.511
 1993SOL    HW2 8002   1.030   4.312   3.474
 1993SOL    HW3 8003   1.106   4.443   3.481
 1993SOL    MW4 8004   1.098   4.358   3.502
 1994SOL     OW 8005   1.558   4.652   3.395
 1994SOL    HW2 8006   1.577   4.570   3.441
 1994SOL    HW3 8007   1.475   4.681   3.433
 1994SOL    MW4 8008   1.549   4.645   3.406
 1995SOL     OW 8009   1.320   0.082   3.498
 1995SOL    HW2 8010   1.304   0.098   3.591
 1995SOL    HW3 8011   1.322   0.170   3.459
 1995SOL    MW4 8012   1.318   0.096   3.505
 1996SOL     OW 8013   1.318   0.356   3.387
 1996SOL    HW2 8014   1.399   0.393   3.423
 1996SOL    HW3 8015   1.249   0.393   3.442
 1996SOL    MW4 8016   1.320   0.366   3.399
 1997SOL     OW 8017   1.565   0.477   3.471
 1997SOL    HW2 8018   1.561   0.479   3.566
 1997SOL    HW3 8019   1.651   0.439   3.451
 1997SOL    MW4 8020   1.576   0.472   3.481
 1998SOL     OW 8021   1.560   0.718   3.343
 1998SOL    HW2 8022   1.500   0.777   3.390
 1998SOL    HW3 8023   1.550   0.634   3.389
 1998SOL    MW4 8024   1.551   0.715   3.355
 1999SOL     OW 8025   1.351   0.872   3.487
 1999SOL    HW2 8026   1.350   0.875   3.583
 1999SOL    HW3 8027   1.334   0.962   3.460
 1999SOL    MW4 8028   1.349   0.884   3.496
 2000SOL     OW 8029   1.309   1.141   3.405
 2000SOL    HW2 8030   1.387   1.186   3.435
 2000SOL    HW3 8031   1.236   1.189   3.445
 2000SOL    MW4 8032   1.309   1.153   3.414
 2001SOL     OW 8033   1.563   1.283   3.431
 2001SOL    HW2 8034   1.577   1.299   3.524
 2001SOL    HW3 8035   1.642   1.237   3.402
 2001SOL    MW4 8036   1.575   1.279   3.439
 2002SOL     OW 8037   1.553   1.551   3.390
 2002SOL    HW2 8038   1.566   1.458   3.408
 2002SOL    HW3 8039   1.549   1.557   3.294
 2002SOL    MW4 8040   1.554   1.539   3.379
 2003SOL     OW 8041   1.341   1.690   3.483
 2003SOL    HW2 8042   1.353   1.707   3.577
 2003SOL    HW3 8043   1.421   1.645   3.456
 2003SOL    MW4 8044   1.353   1.686   3.492
 2004SOL     OW 8045   1.317   1.934   3.382
 2004SOL    HW2 8046   1.396   1.977   3.416
 2004SOL    HW3 8047   1.319   1.847   3.421
 2004SOL    MW4 8048   1.328   1.928   3.392
 2005SOL     OW 8049   1.543   2.078   3.487
 2005SOL    HW2 8050   1.620   2.026   3.464
 2005SOL    HW3 8051   1.563   2.166   3.456
 2005SOL    MW4 8052   1.556   2.083   3.480
 2006SOL     OW 8053   1.586   2.325   3.402
 2006SOL    HW2 8054   1.508   2.368   3.434
 2006SOL    HW3 8055   1.578   2.329   3.306
 2006SOL    MW4 8056   1.575   2.331   3.393
 2007SOL     OW 8057   1.341   2.432   3.492
 2007SOL    HW2 8058   1.332   2.427   3.587
 2007SOL    HW3 8059   1.342   2.525   3.472
 2007SOL    MW4 8060   1.340   2.443   3.502
 2008SOL     OW 8061   1.358   2.711   3.405
 2008SOL    HW2 8062   1.428   2.765   3.443
 2008SOL    HW3 8063   1.362   2.728   3.311
 2008SOL    MW4 8064   1.368   2.721   3.398
 2009SOL     OW 8065   1.581   2.852   3.503
 2009SOL    HW2 8066   1.645   2.816   3.441
 2009SOL    HW3 8067   1.572   2.944   3.477
 2009SOL    MW4 8068   1.588   2.859   3.491
 2010SOL     OW 8069   1.552   3.106   3.396
 2010SOL    HW2 8070   1.637   3.144   3.420
 2010SOL    HW3 8071   1.492   3.137   3.464
 2010SOL    MW4 8072   1.555   3.115   3.408
 2011SOL     OW 8073   1.341   3.247   3.544
 2011SOL    HW2 8074   1.320   3.235   3.637
 2011SOL    HW3 8075   1.261   3.220   3.498
 2011SOL    MW4 8076   1.327   3.241   3.550
 2012SOL     OW 8077   1.369   3.504   3.421
 2012SOL    HW2 8078   1.350   3.418   3.459
 2012SOL    HW3 8079   1.295   3.559   3.448
 2012SOL    MW4 8080   1.357   3.500   3.430
 2013SOL     OW 8081   1.612   3.637   3.504
 2013SOL    HW2 8082   1.606   3.621   3.598
 2013SOL    HW3 8083   1.531   3.602   3.468
 2013SOL    MW4 8084   1.601   3.630   3.511
 2014SOL     OW 8085   1.614   3.893   3.420
 2014SOL    HW2 8086   1.623   3.800   3.440
 2014SOL    HW3 8087   1.597   3.895   3.326
 2014SOL    MW4 8088   1.613   3.881   3.410
 2015SOL     OW 8089   1.354   3.981   3.471
 2015SOL    HW2 8090   1.363   4.070   3.436
 2015SOL    HW3 8091   1.442   3.945   3.466
 2015SOL    MW4 8092   1.367   3.988   3.466
 2016SOL     OW 8093   1.362   4.250   3.399
 2016SOL    HW2 8094   1.282   4.283   3.440
 2016SOL    HW3 8095   1.345   4.257   3.305
 2016SOL    MW4 8096   1.349   4.256   3.392
 2017SOL     OW 8097   1.564   4.394   3.503
 2017SOL    HW2 8098   1.643   4.355   3.466
 2017SOL    HW3 8099   1.492   4.345   3.463
 2017SOL    MW4 8100   1.565   4.383   3.493
 2018SOL     OW 8101   2.043   4.652   3.375
 2018SOL    HW2 8102   2.111   4.713   3.405
 2018SOL    HW3 8103   1.961   4.690   3.406
 2018SOL    MW4 8104   2.041   4.665   3.383
 2019SOL     OW 8105   1.812   0.083   3.489
 2019SOL    HW2 8106   1.800   0.079   3.584
 2019SOL    HW3 8107   1.726   0.063   3.453
 2019SOL    MW4 8108   1.799   0.080   3.497
 2020SOL     OW 8109   1.800   0.354   3.406
 2020SOL    HW2 8110   1.811   0.264   3.437
 2020SOL    HW3 8111   1.771   0.344   3.315
 2020SOL    MW4 8112   1.798   0.340   3.398
 2021SOL     OW 8113   1.988   0.527   3.533
 2021SOL    HW2 8114   1.989   0.613   3.491
 2021SOL    HW3 8115   1.919   0.478   3.488
 2021SOL    MW4 8116   1.979   0.532   3.522
 2022SOL     OW 8117   2.008   0.750   3.379
 2022SOL    HW2 8118   2.077   0.812   3.403
 2022SOL    HW3 8119   2.018   0.739   3.284
 2022SOL    MW4 8120   2.018   0.757   3.369
 2023SOL     OW 8121   1.769   0.869   3.477
 2023SOL    HW2 8122   1.835   0.810   3.441
 2023SOL    HW3 8123   1.686   0.839   3.440
 2023SOL    MW4 8124   1.767   0.858   3.468
 2024SOL     OW 8125   1.798   1.143   3.364
 2024SOL    HW2 8126   1.876   1.186   3.399
 2024SOL    HW3 8127   1.794   1.059   3.410
 2024SOL    MW4 8128   1.808   1.137   3.374
 2025SOL     OW 8129   2.032   1.290   3.458
 2025SOL    HW2 8130   2.040   1.288   3.553
 2025SOL    HW3 8131   2.032   1.383   3.436
 2025SOL    MW4 8132   2.033   1.302   3.468
 2026SOL     OW 8133   2.022   1.552   3.380
 2026SOL    HW2 8134   2.101   1.598   3.408
 2026SOL    HW3 8135   1.951   1.595   3.427
 2026SOL    MW4 8136   2.023   1.564   3.390
 2027SOL     OW 8137   1.804   1.671   3.500
 2027SOL    HW2 8138   1.785   1.756   3.459
 2027SOL    HW3 8139   1.725   1.619   3.485
 2027SOL    MW4 8140   1.791   1.675   3.492
 2028SOL     OW 8141   1.750   1.920   3.390
 2028SOL    HW2 8142   1.824   1.964   3.432
 2028SOL    HW3 8143   1.758   1.944   3.297
 2028SOL    MW4 8144   1.761   1.929   3.383
 2029SOL     OW 8145   1.965   2.079   3.477
 2029SOL    HW2 8146   2.044   2.033   3.449
 2029SOL    HW3 8147   1.985   2.172   3.461
 2029SOL    MW4 8148   1.978   2.085   3.471
 2030SOL     OW 8149   2.014   2.345   3.430
 2030SOL    HW2 8150   2.093   2.392   3.458
 2030SOL    HW3 8151   2.025   2.334   3.336
 2030SOL    MW4 8152   2.026   2.350   3.421
 2031SOL     OW 8153   1.785   2.486   3.500
 2031SOL    HW2 8154   1.871   2.447   3.484
 2031SOL    HW3 8155   1.722   2.420   3.471
 2031SOL    MW4 8156   1.788   2.472   3.494
 2032SOL     OW 8157   1.786   2.740   3.353
 2032SOL    HW2 8158   1.853   2.796   3.392
 2032SOL    HW3 8159   1.790   2.659   3.405
 2032SOL    MW4 8160   1.795   2.736   3.365
 2033SOL     OW 8161   2.023   2.867   3.416
 2033SOL    HW2 8162   2.032   2.857   3.511
 2033SOL    HW3 8163   2.025   2.961   3.401
 2033SOL    MW4 8164   2.024   2.878   3.427
 2034SOL     OW 8165   2.016   3.134   3.340
 2034SOL    HW2 8166   2.086   3.190   3.373
 2034SOL    HW3 8167   1.938   3.164   3.385
 2034SOL    MW4 8168   2.015   3.145   3.350
 2035SOL     OW 8169   1.796   3.212   3.491
 2035SOL    HW2 8170   1.802   3.199   3.586
 2035SOL    HW3 8171   1.794   3.308   3.481
 2035SOL    MW4 8172   1.796   3.223   3.502
 2036SOL     OW 8173   1.809   3.484   3.420
 2036SOL    HW2 8174   1.753   3.554   3.453
 2036SOL    HW3 8175   1.817   3.502   3.326
 2036SOL    MW4 8176   1.803   3.496   3.412
 2037SOL     OW 8177   2.044   3.620   3.503
 2037SOL    HW2 8178   2.129   3.586   3.474
 2037SOL    HW3 8179   1.980   3.569   3.452
 2037SOL    MW4 8180   2.047   3.609   3.493
 2038SOL     OW 8181   2.074   3.869   3.395
 2038SOL    HW2 8182   1.994   3.915   3.423
 2038SOL    HW3 8183   2.075   3.789   3.446
 2038SOL    MW4 8184   2.063   3.865   3.405
 2039SOL     OW 8185   1.857   4.005   3.496
 2039SOL    HW2 8186   1.870   4.002   3.591
 2039SOL    HW3 8187   1.772   3.964   3.482
 2039SOL    MW4 8188   1.848   3.999   3.507
 2040SOL     OW 8189   1.794   4.270   3.419
 2040SOL    HW2 8190   1.818   4.184   3.452
 2040SOL    HW3 8191   1.788   4.259   3.324
 2040SOL    MW4 8192   1.797   4.258   3.411
 2041SOL     OW 8193   2.069   4.377   3.443
 2041SOL    HW2 8194   1.982   4.347   3.418
 2041SOL    HW3 8195   2.072   4.469   3.418
 2041SOL    MW4 8196   2.058   4.385   3.437
 2042SOL     OW 8197   2.460   0.015   3.330
 2042SOL    HW2 8198   2.460  -0.080   3.347
 2042SOL    HW3 8199   2.480   0.023   3.237
 2042SOL    MW4 8200   2.463   0.003   3.320
 2043SOL     OW 8201   2.246   0.152   3.475
 2043SOL    HW2 8202   2.248   0.241   3.440
 2043SOL    HW3 8203   2.316   0.106   3.428
 2043SOL    MW4 8204   2.256   0.158   3.464
 2044SOL     OW 8205   2.215   0.429   3.406
 2044SOL    HW2 8206   2.294   0.461   3.450
 2044SOL    HW3 8207   2.143   0.460   3.460
 2044SOL    MW4 8208   2.216   0.437   3.419
 2045SOL     OW 8209   2.450   0.544   3.481
 2045SOL    HW2 8210   2.521   0.487   3.453
 2045SOL    HW3 8211   2.456   0.621   3.424
 2045SOL    MW4 8212   2.460   0.547   3.470
 2046SOL     OW 8213   2.471   0.798   3.328
 2046SOL    HW2 8214   2.539   0.849   3.372
 2046SOL    HW3 8215   2.483   0.816   3.235
 2046SOL    MW4 8216   2.482   0.807   3.322
 2047SOL     OW 8217   2.223   0.886   3.499
 2047SOL    HW2 8218   2.224   0.972   3.457
 2047SOL    HW3 8219   2.296   0.839   3.459
 2047SOL    MW4 8220   2.233   0.892   3.488
 2048SOL     OW 8221   2.250   1.133   3.363
 2048SOL    HW2 8222   2.321   1.192   3.389
 2048SOL    HW3 8223   2.170   1.184   3.380
 2048SOL    MW4 8224   2.249   1.148   3.369
 2049SOL     OW 8225   2.462   1.303   3.488
 2049SOL    HW2 8226   2.471   1.320   3.582
 2049SOL    HW3 8227   2.537   1.247   3.467
 2049SOL    MW4 8228   2.473   1.298   3.498
 2050SOL     OW 8229   2.482   1.556   3.390
 2050SOL    HW2 8230   2.470   1.471   3.431
 2050SOL    HW3 8231   2.505   1.536   3.299
 2050SOL    MW4 8232   2.483   1.542   3.383
 2051SOL     OW 8233   2.255   1.704   3.476
 2051SOL    HW2 8234   2.278   1.703   3.568
 2051SOL    HW3 8235   2.332   1.669   3.431
 2051SOL    MW4 8236   2.268   1.699   3.482
 2052SOL     OW 8237   2.209   1.970   3.382
 2052SOL    HW2 8238   2.225   1.879   3.408
 2052SOL    HW3 8239   2.198   1.966   3.287
 2052SOL    MW4 8240   2.210   1.958   3.373
 2053SOL     OW 8241   2.455   2.068   3.472
 2053SOL    HW2 8242   2.432   2.078   3.565
 2053SOL    HW3 8243   2.373   2.047   3.429
 2053SOL    MW4 8244   2.441   2.067   3.479
 2054SOL     OW 8245   2.477   2.332   3.370
 2054SOL    HW2 8246   2.551   2.373   3.416
 2054SOL    HW3 8247   2.471   2.244   3.408
 2054SOL    MW4 8248   2.486   2.325   3.381
 2055SOL     OW 8249   2.292   2.478   3.503
 2055SOL    HW2 8250   2.285   2.561   3.456
 2055SOL    HW3 8251   2.356   2.427   3.454
 2055SOL    MW4 8252   2.300   2.482   3.491
 2056SOL     OW 8253   2.258   2.709   3.342
 2056SOL    HW2 8254   2.170   2.739   3.364
 2056SOL    HW3 8255   2.264   2.722   3.247
 2056SOL    MW4 8256   2.247   2.714   3.332
 2057SOL     OW 8257   2.433   2.860   3.496
 2057SOL    HW2 8258   2.418   2.946   3.455
 2057SOL    HW3 8259   2.359   2.807   3.467
 2057SOL    MW4 8260   2.421   2.865   3.487
 2058SOL     OW 8261   2.449   3.110   3.352
 2058SOL    HW2 8262   2.522   3.123   3.413
 2058SOL    HW3 8263   2.491   3.101   3.267
 2058SOL    MW4 8264   2.464   3.110   3.349
 2059SOL     OW 8265   2.242   3.265   3.455
 2059SOL    HW2 8266   2.260   3.250   3.548
 2059SOL    HW3 8267   2.315   3.223   3.410
 2059SOL    MW4 8268   2.254   3.257   3.461
 2060SOL     OW 8269   2.281   3.522   3.401
 2060SOL    HW2 8270   2.275   3.427   3.410
 2060SOL    HW3 8271   2.276   3.538   3.306
 2060SOL    MW4 8272   2.279   3.512   3.389
 2061SOL     OW 8273   2.545   3.604   3.459
 2061SOL    HW2 8274   2.540   3.684   3.406
 2061SOL    HW3 8275   2.456   3.569   3.458
 2061SOL    MW4 8276   2.533   3.610   3.452
 2062SOL     OW 8277   2.503   3.852   3.354
 2062SOL    HW2 8278   2.575   3.910   3.378
 2062SOL    HW3 8279   2.427   3.888   3.400
 2062SOL    MW4 8280   2.502   3.865   3.363
 2063SOL     OW 8281   2.316   4.004   3.477
 2063SOL    HW2 8282   2.305   4.081   3.420
 2063SOL    HW3 8283   2.233   3.957   3.469
 2063SOL    MW4 8284   2.303   4.008   3.468
 2064SOL     OW 8285   2.292   4.255   3.325
 2064SOL    HW2 8286   2.209   4.275   3.368
 2064SOL    HW3 8287   2.277   4.276   3.233
 2064SOL    MW4 8288   2.279   4.261   3.319
 2065SOL     OW 8289   2.477   4.420   3.441
 2065SOL    HW2 8290   2.482   4.414   3.536
 2065SOL    HW3 8291   2.405   4.362   3.417
 2065SOL    MW4 8292   2.468   4.412   3.450
 2066SOL     OW 8293   2.909   4.659   3.365
 2066SOL    HW2 8294   2.834   4.711   3.394
 2066SOL    HW3 8295   2.920   4.682   3.273
 2066SOL    MW4 8296   2.901   4.669   3.356
 2067SOL     OW 8297   2.675   0.108   3.458
 2067SOL    HW2 8298   2.676   0.202   3.438
 2067SOL    HW3 8299   2.597   0.075   3.415
 2067SOL    MW4 8300   2.665   0.116   3.450
 2068SOL     OW 8301   2.635   0.367   3.364
 2068SOL    HW2 8302   2.712   0.409   3.402
 2068SOL    HW3 8303   2.639   0.390   3.271
 2068SOL    MW4 8304   2.646   0.376   3.357
 2069SOL     OW 8305   2.850   0.486   3.489
 2069SOL    HW2 8306   2.849   0.501   3.583
 2069SOL    HW3 8307   2.859   0.574   3.451
 2069SOL    MW4 8308   2.851   0.500   3.496
 2070SOL     OW 8309   2.900   0.736   3.382
 2070SOL    HW2 8310   2.980   0.781   3.408
 2070SOL    HW3 8311   2.829   0.790   3.416
 2070SOL    MW4 8312   2.901   0.749   3.390
 2071SOL     OW 8313   2.699   0.895   3.470
 2071SOL    HW2 8314   2.678   0.894   3.563
 2071SOL    HW3 8315   2.703   0.988   3.447
 2071SOL    MW4 8316   2.697   0.907   3.479
 2072SOL     OW 8317   2.674   1.162   3.399
 2072SOL    HW2 8318   2.763   1.189   3.419
 2072SOL    HW3 8319   2.669   1.165   3.303
 2072SOL    MW4 8320   2.685   1.166   3.389
 2073SOL     OW 8321   2.941   1.275   3.467
 2073SOL    HW2 8322   2.921   1.260   3.560
 2073SOL    HW3 8323   2.999   1.203   3.443
 2073SOL    MW4 8324   2.946   1.264   3.476
 2074SOL     OW 8325   2.953   1.545   3.416
 2074SOL    HW2 8326   2.866   1.575   3.442
 2074SOL    HW3 8327   2.951   1.450   3.430
 2074SOL    MW4 8328   2.941   1.536   3.421
 2075SOL     OW 8329   2.722   1.677   3.506
 2075SOL    HW2 8330   2.718   1.769   3.479
 2075SOL    HW3 8331   2.642   1.638   3.470
 2075SOL    MW4 8332   2.711   1.684   3.498
 2076SOL     OW 8333   2.682   1.934   3.431
 2076SOL    HW2 8334   2.594   1.962   3.458
 2076SOL    HW3 8335   2.678   1.934   3.335
 2076SOL    MW4 8336   2.670   1.938   3.422
 2077SOL     OW 8337   2.873   2.112   3.549
 2077SOL    HW2 8338   2.874   2.091   3.642
 2077SOL    HW3 8339   2.806   2.054   3.512
 2077SOL    MW4 8340   2.864   2.102   3.556
 2078SOL     OW 8341   2.920   2.343   3.401
 2078SOL    HW2 8342   2.897   2.258   3.439
 2078SOL    HW3 8343   2.889   2.337   3.310
 2078SOL    MW4 8344   2.913   2.331   3.394
 2079SOL     OW 8345   2.695   2.477   3.476
 2079SOL    HW2 8346   2.681   2.463   3.570
 2079SOL    HW3 8347   2.773   2.425   3.456
 2079SOL    MW4 8348   2.704   2.468   3.486
 2080SOL     OW 8349   2.665   2.745   3.346
 2080SOL    HW2 8350   2.693   2.665   3.391
 2080SOL    HW3 8351   2.585   2.771   3.392
 2080SOL    MW4 8352   2.658   2.738   3.358
 2081SOL     OW 8353   2.930   2.825   3.413
 2081SOL    HW2 8354   2.933   2.819   3.509
 2081SOL    HW3 8355   2.839   2.804   3.391
 2081SOL    MW4 8356   2.918   2.821   3.423
 2082SOL     OW 8357   2.965   3.082   3.344
 2082SOL    HW2 8358   2.951   2.988   3.357
 2082SOL    HW3 8359   2.965   3.093   3.249
 2082SOL    MW4 8360   2.963   3.071   3.333
 2083SOL     OW 8361   2.707   3.179   3.432
 2083SOL    HW2 8362   2.731   3.183   3.525
 2083SOL    HW3 8363   2.783   3.140   3.389
 2083SOL    MW4 8364   2.720   3.174   3.439
 2084SOL     OW 8365   2.728   3.436   3.327
 2084SOL    HW2 8366   2.739   3.349   3.364
 2084SOL    HW3 8367   2.651   3.472   3.371
 2084SOL    MW4 8368   2.719   3.429   3.338
 2085SOL     OW 8369   2.919   3.575   3.460
 2085SOL    HW2 8370   2.911   3.664   3.427
 2085SOL    HW3 8371   2.838   3.531   3.432
 2085SOL    MW4 8372   2.907   3.581   3.452
 2086SOL     OW 8373   2.948   3.835   3.373
 2086SOL    HW2 8374   3.024   3.894   3.380
 2086SOL    HW3 8375   2.873   3.891   3.393
 2086SOL    MW4 8376   2.948   3.850   3.377
 2087SOL     OW 8377   2.729   4.006   3.407
 2087SOL    HW2 8378   2.735   4.015   3.502
 2087SOL    HW3 8379   2.725   4.096   3.375
 2087SOL    MW4 8380   2.729   4.019   3.415
 2088SOL     OW 8381   2.685   4.286   3.312
 2088SOL    HW2 8382   2.765   4.313   3.357
 2088SOL    HW3 8383   2.614   4.325   3.363
 2088SOL    MW4 8384   2.686   4.295   3.325
 2089SOL     OW 8385   2.899   4.384   3.448
 2089SOL    HW2 8386   2.893   4.379   3.543
 2089SOL    HW3 8387   2.896   4.478   3.429
 2089SOL    MW4 8388   2.898   4.396   3.458
 2090SOL     OW 8389   3.361   4.663   3.371
 2090SOL    HW2 8390   3.281   4.707   3.400
 2090SOL    HW3 8391   3.351   4.656   3.276
 2090SOL    MW4 8392   3.349   4.668   3.362
 2091SOL     OW 8393   3.129   0.117   3.449
 2091SOL    HW2 8394   3.127   0.208   3.420
 2091SOL    HW3 8395   3.051   0.078   3.410
 2091SOL    MW4 8396   3.118   0.124   3.440
 2092SOL     OW 8397   3.123   0.383   3.382
 2092SOL    HW2 8398   3.044   0.428   3.411
 2092SOL    HW3 8399   3.113   0.375   3.287
 2092SOL    MW4 8400   3.112   0.388   3.373
 2093SOL     OW 8401   3.380   0.484   3.436
 2093SOL    HW2 8402   3.381   0.454   3.527
 2093SOL    HW3 8403   3.300   0.446   3.399
 2093SOL    MW4 8404   3.370   0.475   3.443
 2094SOL     OW 8405   3.360   0.748   3.375
 2094SOL    HW2 8406   3.441   0.792   3.404
 2094SOL    HW3 8407   3.369   0.659   3.408
 2094SOL    MW4 8408   3.372   0.742   3.383
 2095SOL     OW 8409   3.140   0.866   3.469
 2095SOL    HW2 8410   3.138   0.953   3.429
 2095SOL    HW3 8411   3.221   0.827   3.436
 2095SOL    MW4 8412   3.150   0.872   3.459
 2096SOL     OW 8413   3.127   1.107   3.367
 2096SOL    HW2 8414   3.201   1.148   3.412
 2096SOL    HW3 8415   3.144   1.122   3.274
 2096SOL    MW4 8416   3.139   1.115   3.361
 2097SOL     OW 8417   3.325   1.287   3.482
 2097SOL    HW2 8418   3.406   1.249   3.448
 2097SOL    HW3 8419   3.330   1.380   3.459
 2097SOL    MW4 8420   3.336   1.295   3.475
 2098SOL     OW 8421   3.379   1.566   3.405
 2098SOL    HW2 8422   3.461   1.601   3.440
 2098SOL    HW3 8423   3.312   1.627   3.436
 2098SOL    MW4 8424   3.381   1.579   3.414
 2099SOL     OW 8425   3.177   1.691   3.526
 2099SOL    HW2 8426   3.145   1.780   3.509
 2099SOL    HW3 8427   3.117   1.634   3.477
 2099SOL    MW4 8428   3.164   1.695   3.517
 2100SOL     OW 8429   3.085   1.952   3.455
 2100SOL    HW2 8430   3.010   2.001   3.492
 2100SOL    HW3 8431   3.072   1.958   3.361
 2100SOL    MW4 8432   3.073   1.959   3.448
 2101SOL     OW 8433   3.343   2.026   3.497
 2101SOL    HW2 8434   3.355   2.117   3.469
 2101SOL    HW3 8435   3.252   2.006   3.474
 2101SOL    MW4 8436   3.332   2.035   3.490
 2102SOL     OW 8437   3.363   2.290   3.430
 2102SOL    HW2 8438   3.426   2.356   3.459
 2102SOL    HW3 8439   3.278   2.327   3.451
 2102SOL    MW4 8440   3.360   2.303   3.437
 2103SOL     OW 8441   3.147   2.436   3.502
 2103SOL    HW2 8442   3.155   2.525   3.467
 2103SOL    HW3 8443   3.067   2.401   3.462
 2103SOL    MW4 8444   3.137   2.443   3.492
 2104SOL     OW 8445   3.165   2.690   3.393
 2104SOL    HW2 8446   3.232   2.747   3.431
 2104SOL    HW3 8447   3.087   2.745   3.388
 2104SOL    MW4 8448   3.163   2.705   3.397
 2105SOL     OW 8449   3.394   2.839   3.464
 2105SOL    HW2 8450   3.450   2.767   3.436
 2105SOL    HW3 8451   3.413   2.909   3.401
 2105SOL    MW4 8452   3.404   2.839   3.452
 2106SOL     OW 8453   3.404   3.109   3.339
 2106SOL    HW2 8454   3.482   3.142   3.383
 2106SOL    HW3 8455   3.331   3.143   3.391
 2106SOL    MW4 8456   3.404   3.117   3.352
 2107SOL     OW 8457   3.187   3.220   3.480
 2107SOL    HW2 8458   3.181   3.315   3.465
 2107SOL    HW3 8459   3.102   3.186   3.452
 2107SOL    MW4 8460   3.175   3.228   3.474
 2108SOL     OW 8461   3.180   3.487   3.369
 2108SOL    HW2 8462   3.095   3.507   3.408
 2108SOL    HW3 8463   3.161   3.473   3.276
 2108SOL    MW4 8464   3.166   3.488   3.362
 2109SOL     OW 8465   3.421   3.587   3.459
 2109SOL    HW2 8466   3.427   3.680   3.441
 2109SOL    HW3 8467   3.342   3.558   3.414
 2109SOL    MW4 8468   3.412   3.595   3.451
 2110SOL     OW 8469   3.412   3.858   3.402
 2110SOL    HW2 8470   3.487   3.914   3.422
 2110SOL    HW3 8471   3.335   3.911   3.425
 2110SOL    MW4 8472   3.412   3.873   3.408
 2111SOL     OW 8473   3.184   4.026   3.433
 2111SOL    HW2 8474   3.179   4.028   3.528
 2111SOL    HW3 8475   3.167   4.117   3.407
 2111SOL    MW4 8476   3.181   4.038   3.442
 2112SOL     OW 8477   3.153   4.282   3.324
 2112SOL    HW2 8478   3.229   4.325   3.364
 2112SOL    HW3 8479   3.077   4.326   3.361
 2112SOL    MW4 8480   3.153   4.294   3.334
 2113SOL     OW 8481   3.389   4.382   3.449
 2113SOL    HW2 8482   3.366   4.368   3.541
 2113SOL    HW3 8483   3.372   4.475   3.434
 2113SOL    MW4 8484   3.384   4.393   3.459
 2114SOL     OW 8485   3.818   4.650   3.392
 2114SOL    HW2 8486   3.740   4.690   3.431
 2114SOL    HW3 8487   3.806   4.660   3.298
 2114SOL    MW4 8488   3.806   4.657   3.385
 2115SOL     OW 8489   3.586   0.104   3.503
 2115SOL    HW2 8490   3.599   0.183   3.451
 2115SOL    HW3 8491   3.503   0.069   3.473
 2115SOL    MW4 8492   3.577   0.110   3.492
 2116SOL     OW 8493   3.595   0.331   3.346
 2116SOL    HW2 8494   3.674   0.384   3.357
 2116SOL    HW3 8495   3.524   0.389   3.372
 2116SOL    MW4 8496   3.596   0.346   3.351
 2117SOL     OW 8497   3.810   0.467   3.445
 2117SOL    HW2 8498   3.801   0.483   3.539
 2117SOL    HW3 8499   3.900   0.436   3.434
 2117SOL    MW4 8500   3.821   0.465   3.456
 2118SOL     OW 8501   3.821   0.758   3.380
 2118SOL    HW2 8502   3.899   0.791   3.424
 2118SOL    HW3 8503   3.820   0.664   3.400
 2118SOL    MW4 8504   3.831   0.750   3.388
 2119SOL     OW 8505   3.588   0.898   3.449
 2119SOL    HW2 8506   3.590   0.903   3.545
 2119SOL    HW3 8507   3.664   0.845   3.426
 2119SOL    MW4 8508   3.599   0.892   3.459
 2120SOL     OW 8509   3.552   1.164   3.391
 2120SOL    HW2 8510   3.546   1.073   3.420
 2120SOL    HW3 8511   3.575   1.159   3.299
 2120SOL    MW4 8512   3.554   1.152   3.383
 2121SOL     OW 8513   3.802   1.252   3.501
 2121SOL    HW2 8514   3.802   1.236   3.595
 2121SOL    HW3 8515   3.725   1.205   3.468
 2121SOL    MW4 8516   3.792   1.244   3.509
 2122SOL     OW 8517   3.781   1.511   3.382
 2122SOL    HW2 8518   3.858   1.557   3.416
 2122SOL    HW3 8519   3.790   1.422   3.418
 2122SOL    MW4 8520   3.793   1.505   3.392
 2123SOL     OW 8521   3.617   1.640   3.554
 2123SOL    HW2 8522   3.600   1.721   3.506
 2123SOL    HW3 8523   3.684   1.595   3.503
 2123SOL    MW4 8524   3.623   1.645   3.541
 2124SOL     OW 8525   3.564   1.877   3.419
 2124SOL    HW2 8526   3.646   1.926   3.428
 2124SOL    HW3 8527   3.499   1.930   3.465
 2124SOL    MW4 8528   3.566   1.890   3.426
 2125SOL     OW 8529   3.795   2.025   3.440
 2125SOL    HW2 8530   3.800   2.021   3.535
 2125SOL    HW3 8531   3.872   1.978   3.409
 2125SOL    MW4 8532   3.806   2.018   3.448
 2126SOL     OW 8533   3.746   2.292   3.406
 2126SOL    HW2 8534   3.822   2.323   3.455
 2126SOL    HW3 8535   3.744   2.198   3.422
 2126SOL    MW4 8536   3.756   2.284   3.414
 2127SOL     OW 8537   3.557   2.452   3.545
 2127SOL    HW2 8538   3.568   2.528   3.489
 2127SOL    HW3 8539   3.617   2.387   3.510
 2127SOL    MW4 8540   3.566   2.453   3.533
 2128SOL     OW 8541   3.585   2.657   3.369
 2128SOL    HW2 8542   3.663   2.701   3.405
 2128SOL    HW3 8543   3.614   2.620   3.286
 2128SOL    MW4 8544   3.599   2.658   3.363
 2129SOL     OW 8545   3.813   2.765   3.473
 2129SOL    HW2 8546   3.833   2.759   3.566
 2129SOL    HW3 8547   3.818   2.859   3.453
 2129SOL    MW4 8548   3.817   2.777   3.483
 2130SOL     OW 8549   3.822   3.019   3.407
 2130SOL    HW2 8550   3.885   3.083   3.440
 2130SOL    HW3 8551   3.843   3.011   3.313
 2130SOL    MW4 8552   3.833   3.026   3.399
 2131SOL     OW 8553   3.621   3.159   3.505
 2131SOL    HW2 8554   3.648   3.245   3.472
 2131SOL    HW3 8555   3.682   3.098   3.464
 2131SOL    MW4 8556   3.633   3.163   3.496
 2132SOL     OW 8557   3.620   3.424   3.410
 2132SOL    HW2 8558   3.554   3.490   3.435
 2132SOL    HW3 8559   3.620   3.426   3.314
 2132SOL    MW4 8560   3.611   3.433   3.401
 2133SOL     OW 8561   3.848   3.579   3.484
 2133SOL    HW2 8562   3.854   3.592   3.579
 2133SOL    HW3 8563   3.773   3.522   3.472
 2133SOL    MW4 8564   3.839   3.573   3.495
 2134SOL     OW 8565   3.802   3.805   3.362
 2134SOL    HW2 8566   3.742   3.857   3.415
 2134SOL    HW3 8567   3.816   3.725   3.412
 2134SOL    MW4 8568   3.796   3.801   3.375
 2135SOL     OW 8569   3.631   4.003   3.472
 2135SOL    HW2 8570   3.638   4.018   3.566
 2135SOL    HW3 8571   3.635   4.091   3.434
 2135SOL    MW4 8572   3.633   4.017   3.479
 2136SOL     OW 8573   3.611   4.258   3.360
 2136SOL    HW2 8574   3.528   4.295   3.389
 2136SOL    HW3 8575   3.620   4.288   3.269
 2136SOL    MW4 8576   3.601   4.267   3.352
 2137SOL     OW 8577   3.811   4.394   3.493
 2137SOL    HW2 8578   3.736   4.352   3.450
 2137SOL    HW3 8579   3.808   4.484   3.461
 2137SOL    MW4 8580   3.800   4.400   3.483
 2138SOL     OW 8581   4.257   4.611   3.375
 2138SOL    HW2 8582   4.253   4.524   3.413
 2138SOL    HW3 8583   4.339   4.648   3.408
 2138SOL    MW4 8584   4.268   4.605   3.384
 2139SOL     OW 8585   4.038   0.081   3.506
 2139SOL    HW2 8586   4.110   0.026   3.475
 2139SOL    HW3 8587   3.960   0.048   3.461
 2139SOL    MW4 8588   4.037   0.069   3.496
 2140SOL     OW 8589   4.063   0.340   3.411
 2140SOL    HW2 8590   4.058   0.248   3.439
 2140SOL    HW3 8591   4.057   0.335   3.315
 2140SOL    MW4 8592   4.062   0.327   3.402
 2141SOL     OW 8593   4.256   0.492   3.529
 2141SOL    HW2 8594   4.259   0.580   3.491
 2141SOL    HW3 8595   4.188   0.447   3.479
 2141SOL    MW4 8596   4.248   0.498   3.518
 2142SOL     OW 8597   4.239   0.747   3.385
 2142SOL    HW2 8598   4.315   0.794   3.419
 2142SOL    HW3 8599   4.245   0.758   3.290
 2142SOL    MW4 8600   4.249   0.755   3.377
 2143SOL     OW 8601   4.034   0.869   3.510
 2143SOL    HW2 8602   4.027   0.963   3.494
 2143SOL    HW3 8603   4.108   0.841   3.455
 2143SOL    MW4 8604   4.043   0.878   3.501
 2144SOL     OW 8605   4.015   1.123   3.401
 2144SOL    HW2 8606   4.093   1.175   3.423
 2144SOL    HW3 8607   3.942   1.174   3.436
 2144SOL    MW4 8608   4.016   1.137   3.409
 2145SOL     OW 8609   4.265   1.249   3.496
 2145SOL    HW2 8610   4.265   1.335   3.454
 2145SOL    HW3 8611   4.344   1.206   3.462
 2145SOL    MW4 8612   4.276   1.254   3.486
 2146SOL     OW 8613   4.236   1.501   3.395
 2146SOL    HW2 8614   4.165   1.560   3.419
 2146SOL    HW3 8615   4.237   1.502   3.299
 2146SOL    MW4 8616   4.227   1.509   3.385
 2147SOL     OW 8617   4.006   1.626   3.471
 2147SOL    HW2 8618   3.983   1.624   3.564
 2147SOL    HW3 8619   4.026   1.718   3.454
 2147SOL    MW4 8620   4.005   1.638   3.481
 2148SOL     OW 8621   4.029   1.903   3.396
 2148SOL    HW2 8622   4.108   1.947   3.428
 2148SOL    HW3 8623   4.044   1.891   3.303
 2148SOL    MW4 8624   4.042   1.907   3.388
 2149SOL     OW 8625   4.241   2.036   3.502
 2149SOL    HW2 8626   4.253   2.118   3.453
 2149SOL    HW3 8627   4.303   1.975   3.463
 2149SOL    MW4 8628   4.251   2.039   3.491
 2150SOL     OW 8629   4.222   2.295   3.410
 2150SOL    HW2 8630   4.136   2.322   3.441
 2150SOL    HW3 8631   4.213   2.291   3.315
 2150SOL    MW4 8632   4.210   2.298   3.402
 2151SOL     OW 8633   3.985   2.425   3.495
 2151SOL    HW2 8634   4.005   2.415   3.588
 2151SOL    HW3 8635   4.010   2.515   3.474
 2151SOL    MW4 8636   3.991   2.436   3.504
 2152SOL     OW 8637   4.069   2.676   3.380
 2152SOL    HW2 8638   4.147   2.712   3.423
 2152SOL    HW3 8639   4.000   2.738   3.402
 2152SOL    MW4 8640   4.071   2.689   3.389
 2153SOL     OW 8641   4.276   2.804   3.509
 2153SOL    HW2 8642   4.273   2.799   3.605
 2153SOL    HW3 8643   4.350   2.748   3.484
 2153SOL    MW4 8644   4.286   2.796   3.518
 2154SOL     OW 8645   4.265   3.073   3.411
 2154SOL    HW2 8646   4.264   2.980   3.431
 2154SOL    HW3 8647   4.272   3.077   3.315
 2154SOL    MW4 8648   4.266   3.061   3.401
 2155SOL     OW 8649   4.028   3.184   3.509
 2155SOL    HW2 8650   4.042   3.273   3.476
 2155SOL    HW3 8651   4.107   3.136   3.485
 2155SOL    MW4 8652   4.040   3.190   3.501
 2156SOL     OW 8653   4.075   3.433   3.424
 2156SOL    HW2 8654   4.152   3.482   3.452
 2156SOL    HW3 8655   4.001   3.489   3.450
 2156SOL    MW4 8656   4.075   3.447   3.431
 2157SOL     OW 8657   4.291   3.587   3.477
 2157SOL    HW2 8658   4.309   3.588   3.571
 2157SOL    HW3 8659   4.275   3.679   3.454
 2157SOL    MW4 8660   4.291   3.599   3.486
 2158SOL     OW 8661   4.278   3.863   3.402
 2158SOL    HW2 8662   4.355   3.919   3.413
 2158SOL    HW3 8663   4.268   3.854   3.308
 2158SOL    MW4 8664   4.287   3.869   3.391
 2159SOL     OW 8665   3.991   3.972   3.479
 2159SOL    HW2 8666   4.078   3.942   3.454
 2159SOL    HW3 8667   3.931   3.912   3.434
 2159SOL    MW4 8668   3.994   3.960   3.470
 2160SOL     OW 8669   4.022   4.244   3.400
 2160SOL    HW2 8670   4.007   4.155   3.431
 2160SOL    HW3 8671   3.940   4.290   3.420
 2160SOL    MW4 8672   4.009   4.238   3.406
 2161SOL     OW 8673   4.269   4.361   3.477
 2161SOL    HW2 8674   4.260   4.356   3.573
 2161SOL    HW3 8675   4.190   4.319   3.443
 2161SOL    MW4 8676   4.258   4.355   3.486
 2162SOL     OW 8677   0.222   4.650   3.855
 2162SOL    HW2 8678   0.207   4.650   3.950
 2162SOL    HW3 8679   0.135   4.658   3.817
 2162SOL    MW4 8680   0.209   4.651   3.863
 2163SOL     OW 8681   4.467   0.052   3.747
 2163SOL    HW2 8682   4.473   0.139   3.785
 2163SOL    HW3 8683   4.479   0.066   3.653
 2163SOL    MW4 8684   4.469   0.065   3.739
 2164SOL     OW 8685   0.013   0.310   3.882
 2164SOL    HW2 8686  -0.074   0.343   3.859
 2164SOL    HW3 8687   0.073   0.362   3.827
 2164SOL    MW4 8688   0.010   0.321   3.871
 2165SOL     OW 8689   0.217   0.507   3.777
 2165SOL    HW2 8690   0.223   0.593   3.821
 2165SOL    HW3 8691   0.230   0.527   3.685
 2165SOL    MW4 8692   0.220   0.521   3.771
 2166SOL     OW 8693   0.223   0.773   3.874
 2166SOL    HW2 8694   0.227   0.764   3.969
 2166SOL    HW3 8695   0.143   0.822   3.858
 2166SOL    MW4 8696   0.213   0.779   3.885
 2167SOL     OW 8697   0.001   0.927   3.783
 2167SOL    HW2 8698  -0.079   0.877   3.799
 2167SOL    HW3 8699  -0.006   1.003   3.842
 2167SOL    MW4 8700  -0.010   0.931   3.793
 2168SOL     OW 8701   0.007   1.172   3.922
 2168SOL    HW2 8702  -0.062   1.200   3.862
 2168SOL    HW3 8703   0.088   1.201   3.880
 2168SOL    MW4 8704   0.009   1.180   3.909
 2169SOL     OW 8705   0.249   1.255   3.770
 2169SOL    HW2 8706   0.259   1.345   3.800
 2169SOL    HW3 8707   0.266   1.259   3.676
 2169SOL    MW4 8708   0.253   1.268   3.761
 2170SOL     OW 8709   0.235   1.508   3.869
 2170SOL    HW2 8710   0.235   1.487   3.962
 2170SOL    HW3 8711   0.146   1.537   3.851
 2170SOL    MW4 8712   0.223   1.509   3.879
 2171SOL     OW 8713   0.002   1.648   3.769
 2171SOL    HW2 8714   0.006   1.735   3.808
 2171SOL    HW3 8715   0.015   1.663   3.675
 2171SOL    MW4 8716   0.004   1.661   3.762
 2172SOL     OW 8717   0.004   1.916   3.863
 2172SOL    HW2 8718   0.002   1.900   3.957
 2172SOL    HW3 8719  -0.079   1.961   3.844
 2172SOL    MW4 8720  -0.007   1.920   3.873
 2173SOL     OW 8721   0.214   2.066   3.743
 2173SOL    HW2 8722   0.222   2.149   3.790
 2173SOL    HW3 8723   0.142   2.021   3.786
 2173SOL    MW4 8724   0.206   2.071   3.755
 2174SOL     OW 8725   0.227   2.309   3.876
 2174SOL    HW2 8726   0.225   2.308   3.971
 2174SOL    HW3 8727   0.144   2.350   3.851
 2174SOL    MW4 8728   0.215   2.314   3.885
 2175SOL     OW 8729   4.483   2.410   3.765
 2175SOL    HW2 8730   4.422   2.371   3.827
 2175SOL    HW3 8731   4.489   2.502   3.791
 2175SOL    MW4 8732   4.476   2.417   3.777
 2176SOL     OW 8733   0.014   2.663   3.887
 2176SOL    HW2 8734   0.017   2.665   3.982
 2176SOL    HW3 8735   0.087   2.718   3.859
 2176SOL    MW4 8736   0.024   2.671   3.896
 2177SOL     OW 8737   0.206   2.834   3.796
 2177SOL    HW2 8738   0.289   2.789   3.808
 2177SOL    HW3 8739   0.183   2.819   3.704
 2177SOL    MW4 8740   0.214   2.826   3.786
 2178SOL     OW 8741   0.241   3.079   3.910
 2178SOL    HW2 8742   0.246   3.060   4.003
 2178SOL    HW3 8743   0.234   2.993   3.868
 2178SOL    MW4 8744   0.241   3.065   3.916
 2179SOL     OW 8745   0.012   3.178   3.792
 2179SOL    HW2 8746   0.088   3.138   3.834
 2179SOL    HW3 8747   0.040   3.194   3.702
 2179SOL    MW4 8748   0.026   3.175   3.786
 2180SOL     OW 8749   0.051   3.454   3.889
 2180SOL    HW2 8750   0.127   3.488   3.842
 2180SOL    HW3 8751   0.055   3.360   3.876
 2180SOL    MW4 8752   0.061   3.446   3.881
 2181SOL     OW 8753   0.275   3.581   3.775
 2181SOL    HW2 8754   0.346   3.548   3.831
 2181SOL    HW3 8755   0.257   3.669   3.808
 2181SOL    MW4 8756   0.282   3.588   3.787
 2182SOL     OW 8757   0.247   3.863   3.850
 2182SOL    HW2 8758   0.231   3.895   3.938
 2182SOL    HW3 8759   0.333   3.898   3.826
 2182SOL    MW4 8760   0.256   3.872   3.858
 2183SOL     OW 8761   0.011   3.972   3.752
 2183SOL    HW2 8762  -0.060   3.922   3.794
 2183SOL    HW3 8763   0.092   3.934   3.786
 2183SOL    MW4 8764   0.012   3.960   3.762
 2184SOL     OW 8765   4.473   4.274   3.835
 2184SOL    HW2 8766   4.557   4.306   3.801
 2184SOL    HW3 8767   4.478   4.179   3.826
 2184SOL    MW4 8768   4.484   4.266   3.830
 2185SOL     OW 8769   0.232   4.396   3.734
 2185SOL    HW2 8770   0.279   4.346   3.801
 2185SOL    HW3 8771   0.211   4.479   3.777
 2185SOL    MW4 8772   0.236   4.401   3.748
 2186SOL     OW 8773   0.652   4.634   3.833
 2186SOL    HW2 8774   0.626   4.546   3.806
 2186SOL    HW3 8775   0.576   4.689   3.814
 2186SOL    MW4 8776   0.639   4.630   3.827
 2187SOL     OW 8777   0.431   0.126   3.779
 2187SOL    HW2 8778   0.441   0.204   3.834
 2187SOL    HW3 8779   0.358   0.078   3.817
 2187SOL    MW4 8780   0.423   0.130   3.791
 2188SOL     OW 8781   0.447   0.372   3.876
 2188SOL    HW2 8782   0.523   0.415   3.837
 2188SOL    HW3 8783   0.372   0.409   3.830
 2188SOL    MW4 8784   0.447   0.382   3.865
 2189SOL     OW 8785   0.640   0.498   3.727
 2189SOL    HW2 8786   0.722   0.454   3.747
 2189SOL    HW3 8787   0.650   0.587   3.762
 2189SOL    MW4 8788   0.652   0.504   3.735
 2190SOL     OW 8789   0.653   0.742   3.859
 2190SOL    HW2 8790   0.721   0.805   3.838
 2190SOL    HW3 8791   0.572   0.782   3.828
 2190SOL    MW4 8792   0.651   0.756   3.852
 2191SOL     OW 8793   0.433   0.912   3.739
 2191SOL    HW2 8794   0.463   0.981   3.799
 2191SOL    HW3 8795   0.358   0.872   3.784
 2191SOL    MW4 8796   0.427   0.916   3.753
 2192SOL     OW 8797   0.461   1.132   3.901
 2192SOL    HW2 8798   0.542   1.174   3.873
 2192SOL    HW3 8799   0.395   1.163   3.838
 2192SOL    MW4 8800   0.463   1.142   3.889
 2193SOL     OW 8801   0.652   1.275   3.772
 2193SOL    HW2 8802   0.735   1.242   3.809
 2193SOL    HW3 8803   0.668   1.279   3.678
 2193SOL    MW4 8804   0.665   1.272   3.765
 2194SOL     OW 8805   0.659   1.530   3.872
 2194SOL    HW2 8806   0.737   1.577   3.843
 2194SOL    HW3 8807   0.668   1.443   3.832
 2194SOL    MW4 8808   0.671   1.525   3.863
 2195SOL     OW 8809   0.439   1.655   3.749
 2195SOL    HW2 8810   0.512   1.620   3.800
 2195SOL    HW3 8811   0.362   1.611   3.784
 2195SOL    MW4 8812   0.439   1.645   3.761
 2196SOL     OW 8813   0.408   1.916   3.870
 2196SOL    HW2 8814   0.419   1.826   3.841
 2196SOL    HW3 8815   0.332   1.948   3.822
 2196SOL    MW4 8816   0.399   1.909   3.860
 2197SOL     OW 8817   0.640   2.044   3.780
 2197SOL    HW2 8818   0.627   2.133   3.814
 2197SOL    HW3 8819   0.563   1.996   3.811
 2197SOL    MW4 8820   0.628   2.049   3.789
 2198SOL     OW 8821   0.668   2.324   3.868
 2198SOL    HW2 8822   0.750   2.356   3.832
 2198SOL    HW3 8823   0.600   2.365   3.814
 2198SOL    MW4 8824   0.670   2.333   3.856
 2199SOL     OW 8825   0.427   2.448   3.754
 2199SOL    HW2 8826   0.358   2.397   3.797
 2199SOL    HW3 8827   0.419   2.425   3.661
 2199SOL    MW4 8828   0.417   2.438   3.747
 2200SOL     OW 8829   0.417   2.676   3.894
 2200SOL    HW2 8830   0.489   2.723   3.852
 2200SOL    HW3 8831   0.410   2.594   3.845
 2200SOL    MW4 8832   0.426   2.671   3.882
 2201SOL     OW 8833   0.640   2.829   3.796
 2201SOL    HW2 8834   0.712   2.774   3.827
 2201SOL    HW3 8835   0.652   2.835   3.702
 2201SOL    MW4 8836   0.651   2.823   3.788
 2202SOL     OW 8837   0.679   3.086   3.912
 2202SOL    HW2 8838   0.690   3.096   4.007
 2202SOL    HW3 8839   0.646   2.997   3.901
 2202SOL    MW4 8840   0.676   3.076   3.923
 2203SOL     OW 8841   0.467   3.223   3.839
 2203SOL    HW2 8842   0.541   3.168   3.864
 2203SOL    HW3 8843   0.390   3.170   3.859
 2203SOL    MW4 8844   0.467   3.209   3.845
 2204SOL     OW 8845   0.501   3.480   3.910
 2204SOL    HW2 8846   0.583   3.513   3.872
 2204SOL    HW3 8847   0.496   3.389   3.880
 2204SOL    MW4 8848   0.512   3.473   3.901
 2205SOL     OW 8849   0.726   3.593   3.757
 2205SOL    HW2 8850   0.726   3.681   3.795
 2205SOL    HW3 8851   0.719   3.607   3.663
 2205SOL    MW4 8852   0.725   3.606   3.749
 2206SOL     OW 8853   0.702   3.833   3.866
 2206SOL    HW2 8854   0.675   3.849   3.957
 2206SOL    HW3 8855   0.772   3.896   3.851
 2206SOL    MW4 8856   0.708   3.843   3.876
 2207SOL     OW 8857   0.480   4.007   3.797
 2207SOL    HW2 8858   0.560   3.959   3.819
 2207SOL    HW3 8859   0.476   4.005   3.702
 2207SOL    MW4 8860   0.490   4.000   3.788
 2208SOL     OW 8861   0.393   4.259   3.894
 2208SOL    HW2 8862   0.461   4.303   3.843
 2208SOL    HW3 8863   0.414   4.166   3.885
 2208SOL    MW4 8864   0.405   4.252   3.886
 2209SOL     OW 8865   0.619   4.370   3.756
 2209SOL    HW2 8866   0.696   4.339   3.805
 2209SOL    HW3 8867   0.644   4.361   3.664
 2209SOL    MW4 8868   0.633   4.365   3.751
 2210SOL     OW 8869   1.073   4.630   3.879
 2210SOL    HW2 8870   1.154   4.669   3.844
 2210SOL    HW3 8871   1.076   4.539   3.850
 2210SOL    MW4 8872   1.084   4.623   3.871
 2211SOL     OW 8873   0.866   0.116   3.765
 2211SOL    HW2 8874   0.939   0.067   3.804
 2211SOL    HW3 8875   0.788   0.067   3.791
 2211SOL    MW4 8876   0.865   0.103   3.774
 2212SOL     OW 8877   0.852   0.370   3.857
 2212SOL    HW2 8878   0.865   0.361   3.951
 2212SOL    HW3 8879   0.876   0.284   3.821
 2212SOL    MW4 8880   0.857   0.357   3.865
 2213SOL     OW 8881   1.086   0.503   3.780
 2213SOL    HW2 8882   1.167   0.463   3.812
 2213SOL    HW3 8883   1.016   0.449   3.818
 2213SOL    MW4 8884   1.087   0.490   3.789
 2214SOL     OW 8885   1.076   0.766   3.855
 2214SOL    HW2 8886   1.067   0.758   3.950
 2214SOL    HW3 8887   1.070   0.676   3.823
 2214SOL    MW4 8888   1.074   0.753   3.864
 2215SOL     OW 8889   0.854   0.918   3.791
 2215SOL    HW2 8890   0.925   0.861   3.819
 2215SOL    HW3 8891   0.853   0.911   3.696
 2215SOL    MW4 8892   0.863   0.910   3.782
 2216SOL     OW 8893   0.904   1.200   3.860
 2216SOL    HW2 8894   0.898   1.199   3.955
 2216SOL    HW3 8895   0.916   1.109   3.835
 2216SOL    MW4 8896   0.905   1.188   3.869
 2217SOL     OW 8897   1.149   1.307   3.776
 2217SOL    HW2 8898   1.153   1.401   3.795
 2217SOL    HW3 8899   1.066   1.278   3.814
 2217SOL    MW4 8900   1.138   1.316   3.784
 2218SOL     OW 8901   1.127   1.582   3.871
 2218SOL    HW2 8902   1.148   1.573   3.964
 2218SOL    HW3 8903   1.198   1.634   3.835
 2218SOL    MW4 8904   1.139   1.587   3.879
 2219SOL     OW 8905   0.886   1.671   3.775
 2219SOL    HW2 8906   0.968   1.632   3.805
 2219SOL    HW3 8907   0.902   1.691   3.683
 2219SOL    MW4 8908   0.899   1.669   3.767
 2220SOL     OW 8909   0.880   1.944   3.841
 2220SOL    HW2 8910   0.872   1.852   3.815
 2220SOL    HW3 8911   0.793   1.981   3.826
 2220SOL    MW4 8912   0.868   1.937   3.836
 2221SOL     OW 8913   1.113   2.094   3.769
 2221SOL    HW2 8914   1.031   2.064   3.807
 2221SOL    HW3 8915   1.097   2.093   3.674
 2221SOL    MW4 8916   1.100   2.090   3.761
 2222SOL     OW 8917   1.169   2.363   3.853
 2222SOL    HW2 8918   1.166   2.366   3.948
 2222SOL    HW3 8919   1.154   2.271   3.830
 2222SOL    MW4 8920   1.166   2.352   3.862
 2223SOL     OW 8921   0.895   2.441   3.762
 2223SOL    HW2 8922   0.889   2.529   3.799
 2223SOL    HW3 8923   0.973   2.403   3.802
 2223SOL    MW4 8924   0.904   2.448   3.772
 2224SOL     OW 8925   0.872   2.681   3.885
 2224SOL    HW2 8926   0.892   2.670   3.978
 2224SOL    HW3 8927   0.954   2.710   3.845
 2224SOL    MW4 8928   0.885   2.683   3.892
 2225SOL     OW 8929   1.120   2.776   3.777
 2225SOL    HW2 8930   1.203   2.749   3.815
 2225SOL    HW3 8931   1.099   2.859   3.819
 2225SOL    MW4 8932   1.128   2.783   3.787
 2226SOL     OW 8933   1.111   3.049   3.864
 2226SOL    HW2 8934   1.188   3.089   3.825
 2226SOL    HW3 8935   1.038   3.105   3.837
 2226SOL    MW4 8936   1.111   3.061   3.855
 2227SOL     OW 8937   0.912   3.216   3.788
 2227SOL    HW2 8938   0.833   3.174   3.821
 2227SOL    HW3 8939   0.900   3.222   3.693
 2227SOL    MW4 8940   0.900   3.212   3.780
 2228SOL     OW 8941   0.938   3.468   3.894
 2228SOL    HW2 8942   0.942   3.379   3.859
 2228SOL    HW3 8943   0.862   3.507   3.851
 2228SOL    MW4 8944   0.928   3.462   3.884
 2229SOL     OW 8945   1.107   3.633   3.767
 2229SOL    HW2 8946   1.101   3.718   3.812
 2229SOL    HW3 8947   1.056   3.574   3.822
 2229SOL    MW4 8948   1.099   3.636   3.780
 2230SOL     OW 8949   1.102   3.869   3.911
 2230SOL    HW2 8950   1.139   3.855   3.998
 2230SOL    HW3 8951   1.174   3.906   3.860
 2230SOL    MW4 8952   1.117   3.872   3.916
 2231SOL     OW 8953   0.894   4.021   3.782
 2231SOL    HW2 8954   0.962   3.966   3.820
 2231SOL    HW3 8955   0.903   4.008   3.687
 2231SOL    MW4 8956   0.904   4.012   3.774
 2232SOL     OW 8957   0.859   4.277   3.890
 2232SOL    HW2 8958   0.883   4.270   3.983
 2232SOL    HW3 8959   0.860   4.187   3.859
 2232SOL    MW4 8960   0.863   4.264   3.898
 2233SOL     OW 8961   1.103   4.357   3.786
 2233SOL    HW2 8962   1.015   4.326   3.809
 2233SOL    HW3 8963   1.106   4.354   3.691
 2233SOL    MW4 8964   1.092   4.353   3.777
 2234SOL     OW 8965   1.547   4.653   3.911
 2234SOL    HW2 8966   1.572   4.662   4.003
 2234SOL    HW3 8967   1.553   4.558   3.895
 2234SOL    MW4 8968   1.551   4.641   3.921
 2235SOL     OW 8969   1.323   0.083   3.781
 2235SOL    HW2 8970   1.344   0.172   3.808
 2235SOL    HW3 8971   1.390   0.029   3.822
 2235SOL    MW4 8972   1.335   0.088   3.790
 2236SOL     OW 8973   1.338   0.399   3.837
 2236SOL    HW2 8974   1.343   0.394   3.932
 2236SOL    HW3 8975   1.416   0.449   3.811
 2236SOL    MW4 8976   1.349   0.405   3.846
 2237SOL     OW 8977   1.588   0.492   3.747
 2237SOL    HW2 8978   1.651   0.433   3.787
 2237SOL    HW3 8979   1.602   0.576   3.791
 2237SOL    MW4 8980   1.598   0.495   3.758
 2238SOL     OW 8981   1.561   0.735   3.881
 2238SOL    HW2 8982   1.626   0.785   3.831
 2238SOL    HW3 8983   1.477   0.770   3.852
 2238SOL    MW4 8984   1.559   0.747   3.871
 2239SOL     OW 8985   1.344   0.863   3.763
 2239SOL    HW2 8986   1.343   0.953   3.796
 2239SOL    HW3 8987   1.263   0.825   3.797
 2239SOL    MW4 8988   1.333   0.870   3.772
 2240SOL     OW 8989   1.379   1.155   3.870
 2240SOL    HW2 8990   1.461   1.182   3.829
 2240SOL    HW3 8991   1.312   1.203   3.822
 2240SOL    MW4 8992   1.381   1.165   3.858
 2241SOL     OW 8993   1.581   1.294   3.736
 2241SOL    HW2 8994   1.667   1.274   3.774
 2241SOL    HW3 8995   1.558   1.379   3.774
 2241SOL    MW4 8996   1.589   1.302   3.746
 2242SOL     OW 8997   1.542   1.563   3.845
 2242SOL    HW2 8998   1.549   1.551   3.940
 2242SOL    HW3 8999   1.625   1.601   3.819
 2242SOL    MW4 9000   1.554   1.566   3.854
 2243SOL     OW 9001   1.332   1.725   3.761
 2243SOL    HW2 9002   1.324   1.809   3.804
 2243SOL    HW3 9003   1.405   1.681   3.805
 2243SOL    MW4 9004   1.341   1.730   3.772
 2244SOL     OW 9005   1.343   1.991   3.885
 2244SOL    HW2 9006   1.342   1.977   3.979
 2244SOL    HW3 9007   1.259   2.032   3.866
 2244SOL    MW4 9008   1.332   1.995   3.895
 2245SOL     OW 9009   1.565   2.102   3.766
 2245SOL    HW2 9010   1.489   2.069   3.814
 2245SOL    HW3 9011   1.539   2.097   3.674
 2245SOL    MW4 9012   1.552   2.097   3.760
 2246SOL     OW 9013   1.626   2.356   3.890
 2246SOL    HW2 9014   1.694   2.404   3.842
 2246SOL    HW3 9015   1.617   2.274   3.842
 2246SOL    MW4 9016   1.634   2.352   3.877
 2247SOL     OW 9017   1.402   2.478   3.768
 2247SOL    HW2 9018   1.483   2.456   3.813
 2247SOL    HW3 9019   1.333   2.433   3.818
 2247SOL    MW4 9020   1.403   2.469   3.780
 2248SOL     OW 9021   1.361   2.708   3.891
 2248SOL    HW2 9022   1.339   2.683   3.980
 2248SOL    HW3 9023   1.379   2.625   3.846
 2248SOL    MW4 9024   1.361   2.694   3.897
 2249SOL     OW 9025   1.579   2.825   3.793
 2249SOL    HW2 9026   1.501   2.778   3.822
 2249SOL    HW3 9027   1.582   2.808   3.699
 2249SOL    MW4 9028   1.569   2.816   3.784
 2250SOL     OW 9029   1.566   3.084   3.873
 2250SOL    HW2 9030   1.564   3.071   3.968
 2250SOL    HW3 9031   1.561   2.995   3.837
 2250SOL    MW4 9032   1.565   3.070   3.881
 2251SOL     OW 9033   1.330   3.210   3.805
 2251SOL    HW2 9034   1.342   3.304   3.820
 2251SOL    HW3 9035   1.416   3.172   3.822
 2251SOL    MW4 9036   1.343   3.217   3.809
 2252SOL     OW 9037   1.330   3.491   3.850
 2252SOL    HW2 9038   1.411   3.533   3.821
 2252SOL    HW3 9039   1.260   3.550   3.820
 2252SOL    MW4 9040   1.331   3.504   3.842
 2253SOL     OW 9041   1.567   3.613   3.787
 2253SOL    HW2 9042   1.655   3.585   3.812
 2253SOL    HW3 9043   1.567   3.708   3.800
 2253SOL    MW4 9044   1.578   3.622   3.792
 2254SOL     OW 9045   1.579   3.885   3.832
 2254SOL    HW2 9046   1.556   3.876   3.925
 2254SOL    HW3 9047   1.499   3.919   3.792
 2254SOL    MW4 9048   1.565   3.888   3.839
 2255SOL     OW 9049   1.313   3.968   3.750
 2255SOL    HW2 9050   1.306   4.053   3.792
 2255SOL    HW3 9051   1.307   3.986   3.656
 2255SOL    MW4 9052   1.311   3.981   3.743
 2256SOL     OW 9053   1.334   4.235   3.867
 2256SOL    HW2 9054   1.405   4.288   3.832
 2256SOL    HW3 9055   1.254   4.282   3.842
 2256SOL    MW4 9056   1.333   4.248   3.859
 2257SOL     OW 9057   1.566   4.386   3.778
 2257SOL    HW2 9058   1.658   4.364   3.791
 2257SOL    HW3 9059   1.557   4.399   3.684
 2257SOL    MW4 9060   1.577   4.385   3.767
 2258SOL     OW 9061   1.985   4.601   3.835
 2258SOL    HW2 9062   2.054   4.662   3.808
 2258SOL    HW3 9063   2.011   4.517   3.797
 2258SOL    MW4 9064   1.997   4.598   3.826
 2259SOL     OW 9065   1.758   0.078   3.751
 2259SOL    HW2 9066   1.834   0.033   3.788
 2259SOL    HW3 9067   1.687   0.056   3.812
 2259SOL    MW4 9068   1.758   0.069   3.764
 2260SOL     OW 9069   1.789   0.346   3.862
 2260SOL    HW2 9070   1.780   0.337   3.957
 2260SOL    HW3 9071   1.775   0.258   3.828
 2260SOL    MW4 9072   1.786   0.333   3.870
 2261SOL     OW 9073   2.019   0.478   3.804
 2261SOL    HW2 9074   1.938   0.438   3.835
 2261SOL    HW3 9075   2.009   0.484   3.709
 2261SOL    MW4 9076   2.007   0.474   3.796
 2262SOL     OW 9077   1.967   0.754   3.864
 2262SOL    HW2 9078   1.972   0.755   3.960
 2262SOL    HW3 9079   1.986   0.663   3.840
 2262SOL    MW4 9080   1.970   0.742   3.873
 2263SOL     OW 9081   1.750   0.902   3.758
 2263SOL    HW2 9082   1.816   0.839   3.786
 2263SOL    HW3 9083   1.753   0.899   3.662
 2263SOL    MW4 9084   1.759   0.893   3.749
 2264SOL     OW 9085   1.803   1.182   3.827
 2264SOL    HW2 9086   1.819   1.202   3.919
 2264SOL    HW3 9087   1.795   1.087   3.823
 2264SOL    MW4 9088   1.804   1.172   3.839
 2265SOL     OW 9089   2.019   1.319   3.727
 2265SOL    HW2 9090   2.092   1.299   3.786
 2265SOL    HW3 9091   1.950   1.258   3.752
 2265SOL    MW4 9092   2.020   1.309   3.738
 2266SOL     OW 9093   2.020   1.580   3.867
 2266SOL    HW2 9094   1.936   1.624   3.854
 2266SOL    HW3 9095   2.007   1.493   3.829
 2266SOL    MW4 9096   2.007   1.574   3.860
 2267SOL     OW 9097   1.779   1.672   3.770
 2267SOL    HW2 9098   1.777   1.762   3.804
 2267SOL    HW3 9099   1.795   1.683   3.676
 2267SOL    MW4 9100   1.781   1.685   3.762
 2268SOL     OW 9101   1.778   1.955   3.848
 2268SOL    HW2 9102   1.784   1.962   3.943
 2268SOL    HW3 9103   1.695   1.999   3.826
 2268SOL    MW4 9104   1.768   1.962   3.858
 2269SOL     OW 9105   2.007   2.064   3.749
 2269SOL    HW2 9106   1.924   2.031   3.783
 2269SOL    HW3 9107   1.988   2.089   3.659
 2269SOL    MW4 9108   1.994   2.063   3.742
 2270SOL     OW 9109   2.052   2.317   3.855
 2270SOL    HW2 9110   1.966   2.357   3.842
 2270SOL    HW3 9111   2.041   2.225   3.829
 2270SOL    MW4 9112   2.040   2.310   3.850
 2271SOL     OW 9113   1.840   2.472   3.766
 2271SOL    HW2 9114   1.839   2.566   3.788
 2271SOL    HW3 9115   1.818   2.469   3.673
 2271SOL    MW4 9116   1.837   2.484   3.757
 2272SOL     OW 9117   1.836   2.746   3.858
 2272SOL    HW2 9118   1.851   2.782   3.945
 2272SOL    HW3 9119   1.751   2.781   3.832
 2272SOL    MW4 9120   1.827   2.755   3.866
 2273SOL     OW 9121   2.045   2.805   3.693
 2273SOL    HW2 9122   2.125   2.775   3.737
 2273SOL    HW3 9123   1.975   2.789   3.756
 2273SOL    MW4 9124   2.046   2.799   3.707
 2274SOL     OW 9125   2.029   3.058   3.816
 2274SOL    HW2 9126   2.033   2.978   3.762
 2274SOL    HW3 9127   2.109   3.106   3.793
 2274SOL    MW4 9128   2.040   3.054   3.806
 2275SOL     OW 9129   1.805   3.211   3.776
 2275SOL    HW2 9130   1.877   3.156   3.806
 2275SOL    HW3 9131   1.727   3.172   3.817
 2275SOL    MW4 9132   1.804   3.199   3.786
 2276SOL     OW 9133   1.809   3.485   3.859
 2276SOL    HW2 9134   1.889   3.523   3.823
 2276SOL    HW3 9135   1.809   3.395   3.827
 2276SOL    MW4 9136   1.820   3.479   3.850
 2277SOL     OW 9137   2.044   3.578   3.763
 2277SOL    HW2 9138   2.130   3.548   3.791
 2277SOL    HW3 9139   2.049   3.584   3.668
 2277SOL    MW4 9140   2.056   3.575   3.754
 2278SOL     OW 9141   2.036   3.850   3.851
 2278SOL    HW2 9142   2.115   3.901   3.834
 2278SOL    HW3 9143   2.052   3.765   3.809
 2278SOL    MW4 9144   2.048   3.845   3.843
 2279SOL     OW 9145   1.816   4.016   3.777
 2279SOL    HW2 9146   1.879   3.949   3.804
 2279SOL    HW3 9147   1.730   3.973   3.785
 2279SOL    MW4 9148   1.813   4.001   3.782
 2280SOL     OW 9149   1.804   4.274   3.863
 2280SOL    HW2 9150   1.889   4.298   3.827
 2280SOL    HW3 9151   1.794   4.181   3.840
 2280SOL    MW4 9152   1.814   4.265   3.855
 2281SOL     OW 9153   2.052   4.358   3.722
 2281SOL    HW2 9154   2.131   4.311   3.749
 2281SOL    HW3 9155   2.054   4.354   3.626
 2281SOL    MW4 9156   2.063   4.351   3.713
 2282SOL     OW 9157   2.433   4.638   3.833
 2282SOL    HW2 9158   2.439   4.645   3.929
 2282SOL    HW3 9159   2.498   4.700   3.800
 2282SOL    MW4 9160   2.442   4.647   3.841
 2283SOL     OW 9161   2.205   0.095   3.738
 2283SOL    HW2 9162   2.279   0.044   3.773
 2283SOL    HW3 9163   2.215   0.090   3.643
 2283SOL    MW4 9164   2.216   0.088   3.730
 2284SOL     OW 9165   2.257   0.339   3.875
 2284SOL    HW2 9166   2.239   0.256   3.831
 2284SOL    HW3 9167   2.181   0.393   3.856
 2284SOL    MW4 9168   2.245   0.335   3.866
 2285SOL     OW 9169   2.444   0.498   3.762
 2285SOL    HW2 9170   2.378   0.435   3.790
 2285SOL    HW3 9171   2.434   0.502   3.667
 2285SOL    MW4 9172   2.434   0.490   3.753
 2286SOL     OW 9173   2.402   0.762   3.871
 2286SOL    HW2 9174   2.316   0.787   3.837
 2286SOL    HW3 9175   2.419   0.677   3.832
 2286SOL    MW4 9176   2.393   0.754   3.862
 2287SOL     OW 9177   2.173   0.913   3.780
 2287SOL    HW2 9178   2.098   0.871   3.822
 2287SOL    HW3 9179   2.155   0.906   3.686
 2287SOL    MW4 9180   2.161   0.907   3.773
 2288SOL     OW 9181   2.217   1.203   3.898
 2288SOL    HW2 9182   2.227   1.197   3.993
 2288SOL    HW3 9183   2.215   1.112   3.868
 2288SOL    MW4 9184   2.218   1.190   3.907
 2289SOL     OW 9185   2.432   1.338   3.768
 2289SOL    HW2 9186   2.428   1.429   3.795
 2289SOL    HW3 9187   2.359   1.296   3.812
 2289SOL    MW4 9188   2.422   1.344   3.777
 2290SOL     OW 9189   2.470   1.597   3.906
 2290SOL    HW2 9190   2.539   1.619   3.844
 2290SOL    HW3 9191   2.391   1.633   3.868
 2290SOL    MW4 9192   2.469   1.604   3.893
 2291SOL     OW 9193   2.243   1.684   3.749
 2291SOL    HW2 9194   2.245   1.776   3.776
 2291SOL    HW3 9195   2.167   1.648   3.795
 2291SOL    MW4 9196   2.233   1.692   3.759
 2292SOL     OW 9197   2.239   1.938   3.865
 2292SOL    HW2 9198   2.225   1.948   3.959
 2292SOL    HW3 9199   2.164   1.982   3.824
 2292SOL    MW4 9200   2.228   1.945   3.872
 2293SOL     OW 9201   2.464   2.059   3.756
 2293SOL    HW2 9202   2.472   2.143   3.801
 2293SOL    HW3 9203   2.394   2.013   3.802
 2293SOL    MW4 9204   2.456   2.064   3.768
 2294SOL     OW 9205   2.517   2.300   3.875
 2294SOL    HW2 9206   2.590   2.352   3.842
 2294SOL    HW3 9207   2.439   2.346   3.845
 2294SOL    MW4 9208   2.517   2.313   3.867
 2295SOL     OW 9209   2.298   2.424   3.783
 2295SOL    HW2 9210   2.219   2.371   3.789
 2295SOL    HW3 9211   2.299   2.456   3.692
 2295SOL    MW4 9212   2.288   2.422   3.771
 2296SOL     OW 9213   2.273   2.703   3.837
 2296SOL    HW2 9214   2.249   2.731   3.926
 2296SOL    HW3 9215   2.282   2.608   3.844
 2296SOL    MW4 9216   2.271   2.694   3.850
 2297SOL     OW 9217   2.513   2.849   3.775
 2297SOL    HW2 9218   2.434   2.807   3.811
 2297SOL    HW3 9219   2.495   2.855   3.681
 2297SOL    MW4 9220   2.500   2.844   3.767
 2298SOL     OW 9221   2.509   3.134   3.836
 2298SOL    HW2 9222   2.501   3.165   3.926
 2298SOL    HW3 9223   2.520   3.039   3.844
 2298SOL    MW4 9224   2.510   3.125   3.849
 2299SOL     OW 9225   2.266   3.208   3.736
 2299SOL    HW2 9226   2.268   3.297   3.770
 2299SOL    HW3 9227   2.341   3.165   3.777
 2299SOL    MW4 9228   2.276   3.214   3.746
 2300SOL     OW 9229   2.282   3.493   3.844
 2300SOL    HW2 9230   2.289   3.503   3.939
 2300SOL    HW3 9231   2.357   3.541   3.810
 2300SOL    MW4 9232   2.293   3.501   3.852
 2301SOL     OW 9233   2.532   3.595   3.748
 2301SOL    HW2 9234   2.596   3.528   3.775
 2301SOL    HW3 9235   2.530   3.589   3.653
 2301SOL    MW4 9236   2.540   3.585   3.739
 2302SOL     OW 9237   2.543   3.877   3.799
 2302SOL    HW2 9238   2.610   3.923   3.749
 2302SOL    HW3 9239   2.558   3.784   3.779
 2302SOL    MW4 9240   2.553   3.870   3.789
 2303SOL     OW 9241   2.276   3.984   3.754
 2303SOL    HW2 9242   2.357   3.935   3.771
 2303SOL    HW3 9243   2.291   4.026   3.669
 2303SOL    MW4 9244   2.289   3.983   3.745
 2304SOL     OW 9245   2.278   4.246   3.822
 2304SOL    HW2 9246   2.256   4.266   3.913
 2304SOL    HW3 9247   2.264   4.152   3.814
 2304SOL    MW4 9248   2.273   4.236   3.833
 2305SOL     OW 9249   2.480   4.377   3.704
 2305SOL    HW2 9250   2.406   4.336   3.748
 2305SOL    HW3 9251   2.484   4.465   3.742
 2305SOL    MW4 9252   2.470   4.384   3.715
 2306SOL     OW 9253   2.885   4.636   3.811
 2306SOL    HW2 9254   2.865   4.643   3.905
 2306SOL    HW3 9255   2.947   4.707   3.795
 2306SOL    MW4 9256   2.891   4.646   3.822
 2307SOL     OW 9257   2.652   0.093   3.724
 2307SOL    HW2 9258   2.725   0.035   3.746
 2307SOL    HW3 9259   2.660   0.107   3.630
 2307SOL    MW4 9260   2.663   0.087   3.715
 2308SOL     OW 9261   2.648   0.337   3.876
 2308SOL    HW2 9262   2.644   0.262   3.817
 2308SOL    HW3 9263   2.575   0.393   3.848
 2308SOL    MW4 9264   2.638   0.335   3.865
 2309SOL     OW 9265   2.832   0.542   3.776
 2309SOL    HW2 9266   2.924   0.521   3.789
 2309SOL    HW3 9267   2.785   0.464   3.807
 2309SOL    MW4 9268   2.838   0.529   3.782
 2310SOL     OW 9269   2.875   0.809   3.839
 2310SOL    HW2 9270   2.953   0.839   3.793
 2310SOL    HW3 9271   2.869   0.716   3.817
 2310SOL    MW4 9272   2.884   0.801   3.830
 2311SOL     OW 9273   2.625   0.906   3.738
 2311SOL    HW2 9274   2.704   0.874   3.782
 2311SOL    HW3 9275   2.553   0.866   3.785
 2311SOL    MW4 9276   2.626   0.897   3.750
 2312SOL     OW 9277   2.645   1.189   3.857
 2312SOL    HW2 9278   2.624   1.100   3.830
 2312SOL    HW3 9279   2.575   1.242   3.821
 2312SOL    MW4 9280   2.633   1.184   3.849
 2313SOL     OW 9281   2.897   1.246   3.751
 2313SOL    HW2 9282   2.896   1.337   3.781
 2313SOL    HW3 9283   2.814   1.209   3.780
 2313SOL    MW4 9284   2.886   1.253   3.758
 2314SOL     OW 9285   2.893   1.510   3.858
 2314SOL    HW2 9286   2.897   1.496   3.953
 2314SOL    HW3 9287   2.960   1.576   3.841
 2314SOL    MW4 9288   2.903   1.517   3.869
 2315SOL     OW 9289   2.710   1.701   3.767
 2315SOL    HW2 9290   2.762   1.632   3.810
 2315SOL    HW3 9291   2.725   1.687   3.674
 2315SOL    MW4 9292   2.719   1.690   3.760
 2316SOL     OW 9293   2.670   1.939   3.893
 2316SOL    HW2 9294   2.692   1.853   3.859
 2316SOL    HW3 9295   2.597   1.969   3.839
 2316SOL    MW4 9296   2.664   1.932   3.882
 2317SOL     OW 9297   2.893   2.075   3.823
 2317SOL    HW2 9298   2.900   2.165   3.853
 2317SOL    HW3 9299   2.809   2.044   3.857
 2317SOL    MW4 9300   2.883   2.083   3.831
 2318SOL     OW 9301   2.900   2.332   3.896
 2318SOL    HW2 9302   2.901   2.370   3.984
 2318SOL    HW3 9303   2.986   2.353   3.860
 2318SOL    MW4 9304   2.911   2.340   3.903
 2319SOL     OW 9305   2.713   2.469   3.762
 2319SOL    HW2 9306   2.729   2.559   3.793
 2319SOL    HW3 9307   2.778   2.416   3.808
 2319SOL    MW4 9308   2.724   2.474   3.772
 2320SOL     OW 9309   2.748   2.728   3.838
 2320SOL    HW2 9310   2.751   2.748   3.932
 2320SOL    HW3 9311   2.667   2.767   3.807
 2320SOL    MW4 9312   2.738   2.736   3.847
 2321SOL     OW 9313   2.960   2.813   3.688
 2321SOL    HW2 9314   2.968   2.891   3.744
 2321SOL    HW3 9315   2.888   2.763   3.728
 2321SOL    MW4 9316   2.951   2.817   3.701
 2322SOL     OW 9317   2.972   3.049   3.829
 2322SOL    HW2 9318   3.039   3.116   3.821
 2322SOL    HW3 9319   2.898   3.082   3.778
 2322SOL    MW4 9320   2.971   3.062   3.821
 2323SOL     OW 9321   2.754   3.172   3.703
 2323SOL    HW2 9322   2.766   3.259   3.742
 2323SOL    HW3 9323   2.676   3.138   3.747
 2323SOL    MW4 9324   2.745   3.179   3.714
 2324SOL     OW 9325   2.781   3.430   3.810
 2324SOL    HW2 9326   2.774   3.448   3.904
 2324SOL    HW3 9327   2.849   3.491   3.780
 2324SOL    MW4 9328   2.789   3.441   3.819
 2325SOL     OW 9329   2.958   3.633   3.729
 2325SOL    HW2 9330   3.028   3.595   3.782
 2325SOL    HW3 9331   2.972   3.597   3.641
 2325SOL    MW4 9332   2.969   3.623   3.725
 2326SOL     OW 9333   2.935   3.905   3.819
 2326SOL    HW2 9334   2.913   3.900   3.912
 2326SOL    HW3 9335   2.932   3.814   3.788
 2326SOL    MW4 9336   2.932   3.892   3.827
 2327SOL     OW 9337   2.720   4.049   3.676
 2327SOL    HW2 9338   2.693   4.128   3.723
 2327SOL    HW3 9339   2.797   4.018   3.724
 2327SOL    MW4 9340   2.727   4.056   3.688
 2328SOL     OW 9341   2.684   4.264   3.850
 2328SOL    HW2 9342   2.755   4.319   3.817
 2328SOL    HW3 9343   2.604   4.307   3.820
 2328SOL    MW4 9344   2.683   4.277   3.842
 2329SOL     OW 9345   2.897   4.380   3.714
 2329SOL    HW2 9346   2.984   4.359   3.748
 2329SOL    HW3 9347   2.882   4.470   3.742
 2329SOL    MW4 9348   2.907   4.389   3.722
 2330SOL     OW 9349   3.331   4.629   3.825
 2330SOL    HW2 9350   3.354   4.619   3.917
 2330SOL    HW3 9351   3.398   4.688   3.790
 2330SOL    MW4 9352   3.343   4.635   3.832
 2331SOL     OW 9353   3.099   0.140   3.735
 2331SOL    HW2 9354   3.166   0.086   3.777
 2331SOL    HW3 9355   3.106   0.120   3.642
 2331SOL    MW4 9356   3.109   0.130   3.728
 2332SOL     OW 9357   3.086   0.403   3.833
 2332SOL    HW2 9358   3.114   0.414   3.924
 2332SOL    HW3 9359   3.084   0.308   3.819
 2332SOL    MW4 9360   3.090   0.392   3.843
 2333SOL     OW 9361   3.355   0.438   3.711
 2333SOL    HW2 9362   3.416   0.382   3.758
 2333SOL    HW3 9363   3.268   0.405   3.734
 2333SOL    MW4 9364   3.351   0.426   3.720
 2334SOL     OW 9365   3.363   0.725   3.764
 2334SOL    HW2 9366   3.342   0.723   3.858
 2334SOL    HW3 9367   3.362   0.633   3.737
 2334SOL    MW4 9368   3.360   0.713   3.773
 2335SOL     OW 9369   3.144   0.894   3.750
 2335SOL    HW2 9370   3.219   0.840   3.775
 2335SOL    HW3 9371   3.143   0.892   3.654
 2335SOL    MW4 9372   3.153   0.887   3.741
 2336SOL     OW 9373   3.156   1.149   3.868
 2336SOL    HW2 9374   3.169   1.066   3.821
 2336SOL    HW3 9375   3.074   1.183   3.832
 2336SOL    MW4 9376   3.147   1.143   3.857
 2337SOL     OW 9377   3.364   1.296   3.764
 2337SOL    HW2 9378   3.292   1.237   3.786
 2337SOL    HW3 9379   3.353   1.314   3.670
 2337SOL    MW4 9380   3.353   1.291   3.754
 2338SOL     OW 9381   3.350   1.525   3.906
 2338SOL    HW2 9382   3.269   1.566   3.874
 2338SOL    HW3 9383   3.352   1.440   3.864
 2338SOL    MW4 9384   3.339   1.519   3.896
 2339SOL     OW 9385   3.123   1.662   3.803
 2339SOL    HW2 9386   3.108   1.753   3.830
 2339SOL    HW3 9387   3.132   1.666   3.708
 2339SOL    MW4 9388   3.122   1.675   3.794
 2340SOL     OW 9389   3.106   1.913   3.908
 2340SOL    HW2 9390   3.122   1.914   4.003
 2340SOL    HW3 9391   3.033   1.973   3.896
 2340SOL    MW4 9392   3.098   1.921   3.919
 2341SOL     OW 9393   3.358   2.024   3.778
 2341SOL    HW2 9394   3.277   1.977   3.798
 2341SOL    HW3 9395   3.356   2.035   3.682
 2341SOL    MW4 9396   3.347   2.019   3.768
 2342SOL     OW 9397   3.375   2.284   3.863
 2342SOL    HW2 9398   3.293   2.321   3.830
 2342SOL    HW3 9399   3.376   2.195   3.829
 2342SOL    MW4 9400   3.364   2.277   3.854
 2343SOL     OW 9401   3.133   2.415   3.787
 2343SOL    HW2 9402   3.159   2.503   3.811
 2343SOL    HW3 9403   3.126   2.417   3.691
 2343SOL    MW4 9404   3.136   2.427   3.777
 2344SOL     OW 9405   3.187   2.717   3.816
 2344SOL    HW2 9406   3.175   2.723   3.911
 2344SOL    HW3 9407   3.108   2.758   3.779
 2344SOL    MW4 9408   3.175   2.723   3.823
 2345SOL     OW 9409   3.425   2.837   3.756
 2345SOL    HW2 9410   3.346   2.784   3.754
 2345SOL    HW3 9411   3.440   2.863   3.664
 2345SOL    MW4 9412   3.417   2.834   3.743
 2346SOL     OW 9413   3.400   3.066   3.897
 2346SOL    HW2 9414   3.478   3.113   3.867
 2346SOL    HW3 9415   3.404   2.981   3.854
 2346SOL    MW4 9416   3.411   3.061   3.888
 2347SOL     OW 9417   3.185   3.218   3.779
 2347SOL    HW2 9418   3.253   3.187   3.838
 2347SOL    HW3 9419   3.222   3.208   3.692
 2347SOL    MW4 9420   3.199   3.213   3.775
 2348SOL     OW 9421   3.163   3.506   3.862
 2348SOL    HW2 9422   3.248   3.545   3.840
 2348SOL    HW3 9423   3.168   3.418   3.826
 2348SOL    MW4 9424   3.175   3.500   3.855
 2349SOL     OW 9425   3.399   3.601   3.749
 2349SOL    HW2 9426   3.395   3.695   3.767
 2349SOL    HW3 9427   3.406   3.595   3.654
 2349SOL    MW4 9428   3.399   3.613   3.739
 2350SOL     OW 9429   3.370   3.876   3.818
 2350SOL    HW2 9430   3.455   3.921   3.818
 2350SOL    HW3 9431   3.309   3.940   3.781
 2350SOL    MW4 9432   3.373   3.890   3.813
 2351SOL     OW 9433   3.162   4.043   3.735
 2351SOL    HW2 9434   3.148   4.131   3.772
 2351SOL    HW3 9435   3.076   4.001   3.741
 2351SOL    MW4 9436   3.149   4.049   3.741
 2352SOL     OW 9437   3.127   4.299   3.835
 2352SOL    HW2 9438   3.134   4.299   3.930
 2352SOL    HW3 9439   3.215   4.320   3.804
 2352SOL    MW4 9440   3.139   4.302   3.844
 2353SOL     OW 9441   3.359   4.371   3.729
 2353SOL    HW2 9442   3.411   4.331   3.798
 2353SOL    HW3 9443   3.348   4.462   3.757
 2353SOL    MW4 9444   3.364   4.378   3.742
 2354SOL     OW 9445   3.827   4.638   3.907
 2354SOL    HW2 9446   3.885   4.694   3.855
 2354SOL    HW3 9447   3.835   4.552   3.867
 2354SOL    MW4 9448   3.836   4.634   3.895
 2355SOL     OW 9449   3.592   0.087   3.787
 2355SOL    HW2 9450   3.661   0.029   3.821
 2355SOL    HW3 9451   3.603   0.082   3.692
 2355SOL    MW4 9452   3.603   0.078   3.779
 2356SOL     OW 9453   3.575   0.350   3.856
 2356SOL    HW2 9454   3.637   0.392   3.796
 2356SOL    HW3 9455   3.595   0.256   3.848
 2356SOL    MW4 9456   3.586   0.343   3.847
 2357SOL     OW 9457   3.778   0.485   3.718
 2357SOL    HW2 9458   3.849   0.446   3.770
 2357SOL    HW3 9459   3.757   0.567   3.763
 2357SOL    MW4 9460   3.785   0.491   3.731
 2358SOL     OW 9461   3.755   0.728   3.857
 2358SOL    HW2 9462   3.840   0.761   3.832
 2358SOL    HW3 9463   3.692   0.777   3.804
 2358SOL    MW4 9464   3.758   0.739   3.847
 2359SOL     OW 9465   3.575   0.886   3.712
 2359SOL    HW2 9466   3.564   0.961   3.770
 2359SOL    HW3 9467   3.497   0.832   3.727
 2359SOL    MW4 9468   3.563   0.888   3.722
 2360SOL     OW 9469   3.575   1.125   3.869
 2360SOL    HW2 9470   3.653   1.175   3.847
 2360SOL    HW3 9471   3.502   1.184   3.848
 2360SOL    MW4 9472   3.576   1.139   3.864
 2361SOL     OW 9473   3.799   1.256   3.793
 2361SOL    HW2 9474   3.878   1.206   3.812
 2361SOL    HW3 9475   3.813   1.341   3.835
 2361SOL    MW4 9476   3.811   1.260   3.801
 2362SOL     OW 9477   3.837   1.482   3.921
 2362SOL    HW2 9478   3.838   1.468   4.015
 2362SOL    HW3 9479   3.755   1.530   3.905
 2362SOL    MW4 9480   3.826   1.487   3.931
 2363SOL     OW 9481   3.605   1.611   3.830
 2363SOL    HW2 9482   3.516   1.579   3.847
 2363SOL    HW3 9483   3.618   1.595   3.736
 2363SOL    MW4 9484   3.595   1.604   3.820
 2364SOL     OW 9485   3.583   1.901   3.877
 2364SOL    HW2 9486   3.597   1.809   3.854
 2364SOL    HW3 9487   3.498   1.922   3.840
 2364SOL    MW4 9488   3.574   1.891   3.869
 2365SOL     OW 9489   3.804   2.032   3.725
 2365SOL    HW2 9490   3.875   1.983   3.768
 2365SOL    HW3 9491   3.724   1.999   3.765
 2365SOL    MW4 9492   3.803   2.021   3.736
 2366SOL     OW 9493   3.834   2.287   3.862
 2366SOL    HW2 9494   3.752   2.332   3.839
 2366SOL    HW3 9495   3.826   2.201   3.822
 2366SOL    MW4 9496   3.822   2.282   3.854
 2367SOL     OW 9497   3.611   2.440   3.815
 2367SOL    HW2 9498   3.530   2.397   3.842
 2367SOL    HW3 9499   3.606   2.441   3.719
 2367SOL    MW4 9500   3.600   2.434   3.806
 2368SOL     OW 9501   3.632   2.706   3.879
 2368SOL    HW2 9502   3.617   2.615   3.852
 2368SOL    HW3 9503   3.559   2.754   3.841
 2368SOL    MW4 9504   3.620   2.700   3.871
 2369SOL     OW 9505   3.875   2.770   3.765
 2369SOL    HW2 9506   3.946   2.737   3.821
 2369SOL    HW3 9507   3.796   2.738   3.807
 2369SOL    MW4 9508   3.874   2.761   3.778
 2370SOL     OW 9509   3.857   3.037   3.856
 2370SOL    HW2 9510   3.766   3.054   3.830
 2370SOL    HW3 9511   3.876   2.950   3.822
 2370SOL    MW4 9512   3.847   3.028   3.848
 2371SOL     OW 9513   3.616   3.182   3.786
 2371SOL    HW2 9514   3.620   3.274   3.811
 2371SOL    HW3 9515   3.626   3.182   3.691
 2371SOL    MW4 9516   3.618   3.194   3.777
 2372SOL     OW 9517   3.628   3.453   3.861
 2372SOL    HW2 9518   3.621   3.440   3.955
 2372SOL    HW3 9519   3.549   3.502   3.837
 2372SOL    MW4 9520   3.617   3.458   3.870
 2373SOL     OW 9521   3.865   3.595   3.772
 2373SOL    HW2 9522   3.850   3.682   3.810
 2373SOL    HW3 9523   3.795   3.541   3.809
 2373SOL    MW4 9524   3.854   3.600   3.782
 2374SOL     OW 9525   3.830   3.864   3.886
 2374SOL    HW2 9526   3.840   3.862   3.981
 2374SOL    HW3 9527   3.910   3.905   3.854
 2374SOL    MW4 9528   3.842   3.869   3.894
 2375SOL     OW 9529   3.630   4.018   3.751
 2375SOL    HW2 9530   3.610   4.100   3.796
 2375SOL    HW3 9531   3.704   3.981   3.799
 2375SOL    MW4 9532   3.637   4.024   3.763
 2376SOL     OW 9533   3.562   4.256   3.882
 2376SOL    HW2 9534   3.575   4.243   3.976
 2376SOL    HW3 9535   3.641   4.301   3.853
 2376SOL    MW4 9536   3.574   4.260   3.891
 2377SOL     OW 9537   3.815   4.401   3.762
 2377SOL    HW2 9538   3.874   4.332   3.794
 2377SOL    HW3 9539   3.813   4.387   3.667
 2377SOL    MW4 9540   3.823   4.390   3.754
 2378SOL     OW 9541   4.234   4.630   3.902
 2378SOL    HW2 9542   4.239   4.662   3.992
 2378SOL    HW3 9543   4.312   4.666   3.860
 2378SOL    MW4 9544   4.245   4.639   3.909
 2379SOL     OW 9545   4.021   0.114   3.778
 2379SOL    HW2 9546   4.088   0.055   3.811
 2379SOL    HW3 9547   4.022   0.102   3.683
 2379SOL    MW4 9548   4.030   0.105   3.770
 2380SOL     OW 9549   4.003   0.383   3.886
 2380SOL    HW2 9550   3.990   0.384   3.981
 2380SOL    HW3 9551   4.009   0.290   3.864
 2380SOL    MW4 9552   4.002   0.371   3.896
 2381SOL     OW 9553   4.265   0.482   3.816
 2381SOL    HW2 9554   4.174   0.456   3.833
 2381SOL    HW3 9555   4.269   0.491   3.720
 2381SOL    MW4 9556   4.253   0.480   3.805
 2382SOL     OW 9557   4.279   0.773   3.849
 2382SOL    HW2 9558   4.199   0.820   3.827
 2382SOL    HW3 9559   4.255   0.680   3.844
 2382SOL    MW4 9560   4.265   0.767   3.846
 2383SOL     OW 9561   4.014   0.878   3.784
 2383SOL    HW2 9562   4.035   0.968   3.810
 2383SOL    HW3 9563   4.029   0.877   3.689
 2383SOL    MW4 9564   4.019   0.890   3.775
 2384SOL     OW 9565   4.049   1.141   3.844
 2384SOL    HW2 9566   4.052   1.134   3.940
 2384SOL    HW3 9567   4.125   1.195   3.822
 2384SOL    MW4 9568   4.059   1.148   3.854
 2385SOL     OW 9569   4.265   1.274   3.776
 2385SOL    HW2 9570   4.265   1.365   3.806
 2385SOL    HW3 9571   4.270   1.280   3.681
 2385SOL    MW4 9572   4.266   1.287   3.767
 2386SOL     OW 9573   4.227   1.540   3.852
 2386SOL    HW2 9574   4.151   1.582   3.812
 2386SOL    HW3 9575   4.301   1.595   3.827
 2386SOL    MW4 9576   4.227   1.553   3.843
 2387SOL     OW 9577   3.993   1.650   3.754
 2387SOL    HW2 9578   4.000   1.726   3.812
 2387SOL    HW3 9579   3.933   1.591   3.798
 2387SOL    MW4 9580   3.986   1.653   3.767
 2388SOL     OW 9581   4.025   1.903   3.863
 2388SOL    HW2 9582   4.013   1.915   3.957
 2388SOL    HW3 9583   4.111   1.941   3.845
 2388SOL    MW4 9584   4.035   1.910   3.873
 2389SOL     OW 9585   4.270   2.029   3.782
 2389SOL    HW2 9586   4.282   2.118   3.815
 2389SOL    HW3 9587   4.257   2.040   3.688
 2389SOL    MW4 9588   4.270   2.042   3.774
 2390SOL     OW 9589   4.295   2.274   3.917
 2390SOL    HW2 9590   4.272   2.289   4.009
 2390SOL    HW3 9591   4.223   2.314   3.868
 2390SOL    MW4 9592   4.282   2.282   3.923
 2391SOL     OW 9593   4.060   2.397   3.778
 2391SOL    HW2 9594   4.057   2.481   3.823
 2391SOL    HW3 9595   3.982   2.350   3.809
 2391SOL    MW4 9596   4.049   2.402   3.788
 2392SOL     OW 9597   4.077   2.647   3.897
 2392SOL    HW2 9598   4.080   2.659   3.992
 2392SOL    HW3 9599   4.155   2.692   3.865
 2392SOL    MW4 9600   4.088   2.654   3.905
 2393SOL     OW 9601   4.277   2.795   3.777
 2393SOL    HW2 9602   4.270   2.879   3.822
 2393SOL    HW3 9603   4.356   2.754   3.814
 2393SOL    MW4 9604   4.287   2.800   3.788
 2394SOL     OW 9605   4.261   3.067   3.887
 2394SOL    HW2 9606   4.185   3.111   3.847
 2394SOL    HW3 9607   4.337   3.111   3.848
 2394SOL    MW4 9608   4.261   3.079   3.876
 2395SOL     OW 9609   4.046   3.192   3.774
 2395SOL    HW2 9610   3.966   3.149   3.805
 2395SOL    HW3 9611   4.044   3.183   3.679
 2395SOL    MW4 9612   4.035   3.185   3.766
 2396SOL     OW 9613   4.100   3.449   3.851
 2396SOL    HW2 9614   4.076   3.360   3.828
 2396SOL    HW3 9615   4.030   3.503   3.816
 2396SOL    MW4 9616   4.088   3.445   3.844
 2397SOL     OW 9617   4.324   3.584   3.750
 2397SOL    HW2 9618   4.250   3.531   3.780
 2397SOL    HW3 9619   4.397   3.560   3.806
 2397SOL    MW4 9620   4.324   3.574   3.761
 2398SOL     OW 9621   4.289   3.840   3.868
 2398SOL    HW2 9622   4.212   3.880   3.829
 2398SOL    HW3 9623   4.285   3.748   3.842
 2398SOL    MW4 9624   4.279   3.833   3.860
 2399SOL     OW 9625   4.053   3.959   3.743
 2399SOL    HW2 9626   4.049   4.047   3.778
 2399SOL    HW3 9627   4.040   3.970   3.649
 2399SOL    MW4 9628   4.051   3.972   3.735
 2400SOL     OW 9629   4.013   4.219   3.835
 2400SOL    HW2 9630   4.013   4.231   3.930
 2400SOL    HW3 9631   4.096   4.256   3.807
 2400SOL    MW4 9632   4.024   4.226   3.844
 2401SOL     OW 9633   4.229   4.381   3.757
 2401SOL    HW2 9634   4.211   4.461   3.806
 2401SOL    HW3 9635   4.307   4.344   3.798
 2401SOL    MW4 9636   4.237   4.387   3.769
 2402SOL     OW 9637   0.182   0.027   4.147
 2402SOL    HW2 9638   0.263   0.067   4.179
 2402SOL    HW3 9639   0.181  -0.060   4.186
 2402SOL    MW4 9640   0.193   0.021   4.156
 2403SOL     OW 9641   4.441   0.125   4.274
 2403SOL    HW2 9642   4.450   0.133   4.369
 2403SOL    HW3 9643   4.521   0.079   4.246
 2403SOL    MW4 9644   4.453   0.120   4.283
 2404SOL     OW 9645   4.487   0.385   4.134
 2404SOL    HW2 9646   4.471   0.297   4.168
 2404SOL    HW3 9647   4.500   0.373   4.040
 2404SOL    MW4 9648   4.487   0.372   4.126
 2405SOL     OW 9649   0.230   0.522   4.225
 2405SOL    HW2 9650   0.299   0.464   4.192
 2405SOL    HW3 9651   0.152   0.466   4.227
 2405SOL    MW4 9652   0.228   0.507   4.221
 2406SOL     OW 9653   0.248   0.782   4.159
 2406SOL    HW2 9654   0.168   0.823   4.192
 2406SOL    HW3 9655   0.239   0.689   4.180
 2406SOL    MW4 9656   0.237   0.775   4.166
 2407SOL     OW 9657   0.019   0.885   4.263
 2407SOL    HW2 9658  -0.057   0.854   4.214
 2407SOL    HW3 9659   0.013   0.981   4.258
 2407SOL    MW4 9660   0.008   0.894   4.256
 2408SOL     OW 9661   4.480   1.168   4.187
 2408SOL    HW2 9662   4.570   1.180   4.220
 2408SOL    HW3 9663   4.490   1.175   4.092
 2408SOL    MW4 9664   4.494   1.171   4.178
 2409SOL     OW 9665   0.243   1.269   4.314
 2409SOL    HW2 9666   0.253   1.248   4.407
 2409SOL    HW3 9667   0.316   1.224   4.271
 2409SOL    MW4 9668   0.254   1.260   4.321
 2410SOL     OW 9669   0.004   1.837   4.776
 2410SOL    HW2 9670   0.000   1.748   4.811
 2410SOL    HW3 9671   0.038   1.890   4.849
 2410SOL    MW4 9672   0.008   1.832   4.791
 2411SOL     OW 9673   4.458   1.629   4.197
 2411SOL    HW2 9674   4.366   1.605   4.190
 2411SOL    HW3 9675   4.460   1.723   4.176
 2411SOL    MW4 9676   4.447   1.638   4.193
 2412SOL     OW 9677   0.189   2.051   4.209
 2412SOL    HW2 9678   0.185   2.052   4.305
 2412SOL    HW3 9679   0.270   2.003   4.189
 2412SOL    MW4 9680   0.199   2.045   4.219
 2413SOL     OW 9681   0.434   1.400   4.677
 2413SOL    HW2 9682   0.412   1.489   4.650
 2413SOL    HW3 9683   0.465   1.410   4.767
 2413SOL    MW4 9684   0.435   1.413   4.685
 2414SOL     OW 9685   0.238   2.319   4.160
 2414SOL    HW2 9686   0.318   2.347   4.206
 2414SOL    HW3 9687   0.235   2.225   4.172
 2414SOL    MW4 9688   0.248   2.311   4.167
 2415SOL     OW 9689   0.001   2.430   4.260
 2415SOL    HW2 9690  -0.083   2.393   4.231
 2415SOL    HW3 9691   0.067   2.381   4.212
 2415SOL    MW4 9692  -0.002   2.419   4.250
 2416SOL     OW 9693   0.031   2.688   4.166
 2416SOL    HW2 9694   0.110   2.717   4.211
 2416SOL    HW3 9695   0.010   2.603   4.205
 2416SOL    MW4 9696   0.038   2.681   4.177
 2417SOL     OW 9697   0.276   2.787   4.289
 2417SOL    HW2 9698   0.341   2.736   4.239
 2417SOL    HW3 9699   0.277   2.874   4.249
 2417SOL    MW4 9700   0.285   2.792   4.277
 2418SOL     OW 9701   0.230   3.047   4.195
 2418SOL    HW2 9702   0.299   3.098   4.237
 2418SOL    HW3 9703   0.149   3.092   4.218
 2418SOL    MW4 9704   0.228   3.060   4.203
 2419SOL     OW 9705   4.491   3.232   4.276
 2419SOL    HW2 9706   4.406   3.208   4.239
 2419SOL    HW3 9707   4.500   3.325   4.255
 2419SOL    MW4 9708   4.481   3.241   4.268
 2420SOL     OW 9709   0.047   3.485   4.182
 2420SOL    HW2 9710  -0.036   3.533   4.178
 2420SOL    HW3 9711   0.067   3.465   4.090
 2420SOL    MW4 9712   0.039   3.489   4.169
 2421SOL     OW 9713   0.265   3.664   4.117
 2421SOL    HW2 9714   0.348   3.641   4.160
 2421SOL    HW3 9715   0.200   3.608   4.159
 2421SOL    MW4 9716   0.267   3.654   4.128
 2422SOL     OW 9717   0.259   3.951   4.121
 2422SOL    HW2 9718   0.191   3.964   4.187
 2422SOL    HW3 9719   0.263   3.857   4.108
 2422SOL    MW4 9720   0.251   3.941   4.128
 2423SOL     OW 9721   0.003   4.036   4.251
 2423SOL    HW2 9722   0.017   4.029   4.345
 2423SOL    HW3 9723  -0.084   3.998   4.237
 2423SOL    MW4 9724  -0.007   4.030   4.261
 2424SOL     OW 9725   4.459   4.289   4.118
 2424SOL    HW2 9726   4.480   4.201   4.150
 2424SOL    HW3 9727   4.461   4.280   4.022
 2424SOL    MW4 9728   4.462   4.276   4.109
 2425SOL     OW 9729   0.175   4.439   4.232
 2425SOL    HW2 9730   0.152   4.403   4.318
 2425SOL    HW3 9731   0.110   4.404   4.173
 2425SOL    MW4 9732   0.164   4.430   4.236
 2426SOL     OW 9733   0.660   4.641   4.111
 2426SOL    HW2 9734   0.583   4.673   4.158
 2426SOL    HW3 9735   0.636   4.645   4.018
 2426SOL    MW4 9736   0.647   4.645   4.105
 2427SOL     OW 9737   0.439   0.108   4.238
 2427SOL    HW2 9738   0.445   0.108   4.334
 2427SOL    HW3 9739   0.447   0.200   4.214
 2427SOL    MW4 9740   0.440   0.120   4.248
 2428SOL     OW 9741   0.440   0.373   4.155
 2428SOL    HW2 9742   0.519   0.416   4.188
 2428SOL    HW3 9743   0.451   0.373   4.060
 2428SOL    MW4 9744   0.452   0.379   4.147
 2429SOL     OW 9745   0.672   0.494   4.223
 2429SOL    HW2 9746   0.745   0.446   4.183
 2429SOL    HW3 9747   0.679   0.583   4.188
 2429SOL    MW4 9748   0.683   0.499   4.213
 2430SOL     OW 9749   0.684   0.761   4.128
 2430SOL    HW2 9750   0.611   0.815   4.160
 2430SOL    HW3 9751   0.674   0.762   4.033
 2430SOL    MW4 9752   0.673   0.768   4.120
 2431SOL     OW 9753   0.471   0.923   4.218
 2431SOL    HW2 9754   0.462   1.016   4.196
 2431SOL    HW3 9755   0.387   0.884   4.194
 2431SOL    MW4 9756   0.459   0.930   4.212
 2432SOL     OW 9757   0.452   1.189   4.162
 2432SOL    HW2 9758   0.538   1.226   4.181
 2432SOL    HW3 9759   0.452   1.174   4.068
 2432SOL    MW4 9760   0.463   1.192   4.152
 2433SOL     OW 9761   0.695   1.294   4.255
 2433SOL    HW2 9762   0.698   1.318   4.348
 2433SOL    HW3 9763   0.707   1.377   4.209
 2433SOL    MW4 9764   0.697   1.308   4.261
 2434SOL     OW 9765   0.672   1.546   4.151
 2434SOL    HW2 9766   0.759   1.584   4.167
 2434SOL    HW3 9767   0.660   1.555   4.056
 2434SOL    MW4 9768   0.682   1.552   4.140
 2435SOL     OW 9769   0.221   1.476   4.151
 2435SOL    HW2 9770   0.224   1.400   4.209
 2435SOL    HW3 9771   0.137   1.517   4.169
 2435SOL    MW4 9772   0.210   1.471   4.161
 2436SOL     OW 9773   0.405   1.913   4.139
 2436SOL    HW2 9774   0.399   1.822   4.167
 2436SOL    HW3 9775   0.397   1.910   4.044
 2436SOL    MW4 9776   0.403   1.901   4.130
 2437SOL     OW 9777   0.677   1.990   4.196
 2437SOL    HW2 9778   0.685   1.993   4.291
 2437SOL    HW3 9779   0.587   1.963   4.180
 2437SOL    MW4 9780   0.666   1.987   4.206
 2438SOL     OW 9781   0.731   2.248   4.127
 2438SOL    HW2 9782   0.700   2.158   4.136
 2438SOL    HW3 9783   0.700   2.276   4.041
 2438SOL    MW4 9784   0.723   2.240   4.117
 2439SOL     OW 9785   0.497   2.394   4.266
 2439SOL    HW2 9786   0.489   2.482   4.229
 2439SOL    HW3 9787   0.578   2.360   4.229
 2439SOL    MW4 9788   0.506   2.401   4.256
 2440SOL     OW 9789   0.468   2.625   4.162
 2440SOL    HW2 9790   0.530   2.695   4.179
 2440SOL    HW3 9791   0.449   2.632   4.068
 2440SOL    MW4 9792   0.474   2.635   4.152
 2441SOL     OW 9793   0.642   2.820   4.234
 2441SOL    HW2 9794   0.653   2.814   4.329
 2441SOL    HW3 9795   0.637   2.913   4.215
 2441SOL    MW4 9796   0.643   2.831   4.244
 2442SOL     OW 9797   0.644   3.083   4.190
 2442SOL    HW2 9798   0.714   3.142   4.219
 2442SOL    HW3 9799   0.564   3.121   4.225
 2442SOL    MW4 9800   0.643   3.096   4.198
 2443SOL     OW 9801   0.414   3.221   4.309
 2443SOL    HW2 9802   0.415   3.250   4.400
 2443SOL    HW3 9803   0.420   3.302   4.258
 2443SOL    MW4 9804   0.415   3.236   4.314
 2444SOL     OW 9805   0.467   3.483   4.189
 2444SOL    HW2 9806   0.550   3.515   4.226
 2444SOL    HW3 9807   0.486   3.470   4.096
 2444SOL    MW4 9808   0.481   3.485   4.181
 2445SOL     OW 9809   0.696   3.638   4.279
 2445SOL    HW2 9810   0.695   3.660   4.372
 2445SOL    HW3 9811   0.782   3.600   4.264
 2445SOL    MW4 9812   0.707   3.636   4.289
 2446SOL     OW 9813   0.691   3.882   4.154
 2446SOL    HW2 9814   0.633   3.928   4.214
 2446SOL    HW3 9815   0.696   3.793   4.189
 2446SOL    MW4 9816   0.684   3.876   4.167
 2447SOL     OW 9817   0.491   4.002   4.301
 2447SOL    HW2 9818   0.475   4.095   4.288
 2447SOL    HW3 9819   0.417   3.958   4.258
 2447SOL    MW4 9820   0.479   4.008   4.293
 2448SOL     OW 9821   0.413   4.280   4.208
 2448SOL    HW2 9822   0.327   4.323   4.207
 2448SOL    HW3 9823   0.421   4.241   4.121
 2448SOL    MW4 9824   0.403   4.280   4.196
 2449SOL     OW 9825   0.654   4.384   4.238
 2449SOL    HW2 9826   0.565   4.351   4.228
 2449SOL    HW3 9827   0.656   4.464   4.187
 2449SOL    MW4 9828   0.643   4.390   4.230
 2450SOL     OW 9829   1.115   4.624   4.149
 2450SOL    HW2 9830   1.096   4.537   4.184
 2450SOL    HW3 9831   1.094   4.618   4.056
 2450SOL    MW4 9832   1.110   4.612   4.141
 2451SOL     OW 9833   0.879   0.092   4.248
 2451SOL    HW2 9834   0.959   0.056   4.211
 2451SOL    HW3 9835   0.809   0.053   4.196
 2451SOL    MW4 9836   0.880   0.082   4.236
 2452SOL     OW 9837   0.894   0.342   4.124
 2452SOL    HW2 9838   0.962   0.390   4.171
 2452SOL    HW3 9839   0.878   0.264   4.177
 2452SOL    MW4 9840   0.901   0.338   4.137
 2453SOL     OW 9841   1.117   0.501   4.217
 2453SOL    HW2 9842   1.128   0.486   4.311
 2453SOL    HW3 9843   1.183   0.444   4.177
 2453SOL    MW4 9844   1.127   0.491   4.224
 2454SOL     OW 9845   1.103   0.773   4.138
 2454SOL    HW2 9846   1.184   0.809   4.174
 2454SOL    HW3 9847   1.106   0.680   4.162
 2454SOL    MW4 9848   1.114   0.765   4.146
 2455SOL     OW 9849   0.880   0.924   4.242
 2455SOL    HW2 9850   0.958   0.872   4.224
 2455SOL    HW3 9851   0.810   0.880   4.194
 2455SOL    MW4 9852   0.881   0.911   4.234
 2456SOL     OW 9853   0.914   1.165   4.135
 2456SOL    HW2 9854   0.917   1.073   4.162
 2456SOL    HW3 9855   0.837   1.200   4.180
 2456SOL    MW4 9856   0.904   1.157   4.145
 2457SOL     OW 9857   1.147   1.284   4.229
 2457SOL    HW2 9858   1.161   1.278   4.324
 2457SOL    HW3 9859   1.056   1.258   4.217
 2457SOL    MW4 9860   1.137   1.279   4.240
 2458SOL     OW 9861   1.177   1.561   4.151
 2458SOL    HW2 9862   1.089   1.589   4.177
 2458SOL    HW3 9863   1.181   1.469   4.176
 2458SOL    MW4 9864   1.166   1.552   4.158
 2459SOL     OW 9865   0.923   1.662   4.250
 2459SOL    HW2 9866   0.894   1.670   4.341
 2459SOL    HW3 9867   0.913   1.750   4.214
 2459SOL    MW4 9868   0.918   1.674   4.257
 2460SOL     OW 9869   0.923   1.919   4.129
 2460SOL    HW2 9870   0.836   1.940   4.162
 2460SOL    HW3 9871   0.916   1.931   4.034
 2460SOL    MW4 9872   0.910   1.923   4.121
 2461SOL     OW 9873   1.088   2.096   4.266
 2461SOL    HW2 9874   1.099   2.056   4.352
 2461SOL    HW3 9875   1.026   2.039   4.220
 2461SOL    MW4 9876   1.081   2.083   4.271
 2462SOL     OW 9877   1.144   2.340   4.162
 2462SOL    HW2 9878   1.219   2.365   4.216
 2462SOL    HW3 9879   1.117   2.255   4.196
 2462SOL    MW4 9880   1.151   2.332   4.174
 2463SOL     OW 9881   0.899   2.422   4.276
 2463SOL    HW2 9882   0.987   2.410   4.241
 2463SOL    HW3 9883   0.845   2.360   4.226
 2463SOL    MW4 9884   0.903   2.412   4.265
 2464SOL     OW 9885   0.892   2.695   4.171
 2464SOL    HW2 9886   0.890   2.612   4.218
 2464SOL    HW3 9887   0.807   2.734   4.186
 2464SOL    MW4 9888   0.881   2.689   4.179
 2465SOL     OW 9889   1.091   2.859   4.225
 2465SOL    HW2 9890   1.088   2.943   4.179
 2465SOL    HW3 9891   1.014   2.811   4.194
 2465SOL    MW4 9892   1.080   2.864   4.215
 2466SOL     OW 9893   1.068   3.113   4.128
 2466SOL    HW2 9894   1.154   3.145   4.155
 2466SOL    HW3 9895   1.075   3.104   4.033
 2466SOL    MW4 9896   1.080   3.116   4.119
 2467SOL     OW 9897   0.842   3.251   4.241
 2467SOL    HW2 9898   0.864   3.233   4.333
 2467SOL    HW3 9899   0.912   3.207   4.191
 2467SOL    MW4 9900   0.854   3.243   4.247
 2468SOL     OW 9901   0.918   3.497   4.176
 2468SOL    HW2 9902   0.909   3.405   4.199
 2468SOL    HW3 9903   0.921   3.499   4.080
 2468SOL    MW4 9904   0.917   3.485   4.166
 2469SOL     OW 9905   1.163   3.607   4.226
 2469SOL    HW2 9906   1.156   3.695   4.190
 2469SOL    HW3 9907   1.082   3.564   4.201
 2469SOL    MW4 9908   1.151   3.613   4.218
 2470SOL     OW 9909   1.155   3.865   4.191
 2470SOL    HW2 9910   1.216   3.917   4.243
 2470SOL    HW3 9911   1.069   3.894   4.218
 2470SOL    MW4 9912   1.152   3.875   4.201
 2471SOL     OW 9913   0.911   3.969   4.286
 2471SOL    HW2 9914   0.941   4.055   4.258
 2471SOL    HW3 9915   0.830   3.955   4.237
 2471SOL    MW4 9916   0.904   3.978   4.276
 2472SOL     OW 9917   0.883   4.235   4.171
 2472SOL    HW2 9918   0.941   4.272   4.238
 2472SOL    HW3 9919   0.797   4.271   4.191
 2472SOL    MW4 9920   0.879   4.245   4.182
 2473SOL     OW 9921   1.097   4.389   4.308
 2473SOL    HW2 9922   1.113   4.413   4.400
 2473SOL    HW3 9923   1.179   4.349   4.279
 2473SOL    MW4 9924   1.110   4.387   4.316
 2474SOL     OW 9925   1.578   4.655   4.195
 2474SOL    HW2 9926   1.642   4.716   4.232
 2474SOL    HW3 9927   1.493   4.698   4.210
 2474SOL    MW4 9928   1.575   4.669   4.202
 2475SOL     OW 9929   1.345   0.123   4.217
 2475SOL    HW2 9930   1.339   0.116   4.313
 2475SOL    HW3 9931   1.282   0.059   4.185
 2475SOL    MW4 9932   1.336   0.114   4.226
 2476SOL     OW 9933   1.335   0.378   4.109
 2476SOL    HW2 9934   1.400   0.435   4.150
 2476SOL    HW3 9935   1.357   0.290   4.141
 2476SOL    MW4 9936   1.347   0.374   4.119
 2477SOL     OW 9937   1.536   0.517   4.254
 2477SOL    HW2 9938   1.497   0.540   4.338
 2477SOL    HW3 9939   1.571   0.600   4.221
 2477SOL    MW4 9940   1.536   0.531   4.261
 2478SOL     OW 9941   1.582   0.774   4.150
 2478SOL    HW2 9942   1.658   0.832   4.158
 2478SOL    HW3 9943   1.573   0.758   4.056
 2478SOL    MW4 9944   1.591   0.779   4.139
 2479SOL     OW 9945   1.347   0.852   4.263
 2479SOL    HW2 9946   1.351   0.944   4.238
 2479SOL    HW3 9947   1.418   0.811   4.214
 2479SOL    MW4 9948   1.357   0.859   4.253
 2480SOL     OW 9949   1.347   1.111   4.124
 2480SOL    HW2 9950   1.277   1.170   4.150
 2480SOL    HW3 9951   1.356   1.124   4.030
 2480SOL    MW4 9952   1.339   1.120   4.115
 2481SOL     OW 9953   1.564   1.296   4.231
 2481SOL    HW2 9954   1.586   1.305   4.324
 2481SOL    HW3 9955   1.501   1.224   4.229
 2481SOL    MW4 9956   1.559   1.287   4.243
 2482SOL     OW 9957   1.564   1.555   4.139
 2482SOL    HW2 9958   1.507   1.611   4.193
 2482SOL    HW3 9959   1.564   1.471   4.185
 2482SOL    MW4 9960   1.557   1.551   4.153
 2483SOL     OW 9961   1.370   1.710   4.293
 2483SOL    HW2 9962   1.360   1.803   4.275
 2483SOL    HW3 9963   1.300   1.668   4.242
 2483SOL    MW4 9964   1.359   1.717   4.284
 2484SOL     OW 9965   1.320   1.967   4.176
 2484SOL    HW2 9966   1.396   2.017   4.206
 2484SOL    HW3 9967   1.245   2.014   4.214
 2484SOL    MW4 9968   1.320   1.980   4.185
 2485SOL     OW 9969   1.544   2.102   4.276
 2485SOL    HW2 9970   1.619   2.062   4.233
 2485SOL    HW3 9971   1.555   2.196   4.262
 2485SOL    MW4 9972   1.555   2.110   4.269
 2486SOL     OW 9973   1.609   2.349   4.176
 2486SOL    HW2 9974   1.666   2.421   4.203
 2486SOL    HW3 9975   1.606   2.354   4.081
 2486SOL    MW4 9976   1.616   2.359   4.167
 2487SOL     OW 9977   1.528   2.818   4.288
 2487SOL    HW2 9978   1.509   2.840   4.380
 2487SOL    HW3 9979   1.610   2.769   4.292
 2487SOL    MW4 9980   1.536   2.815   4.301
 2488SOL     OW 9981   1.300   2.696   4.158
 2488SOL    HW2 9982   1.381   2.730   4.197
 2488SOL    HW3 9983   1.233   2.758   4.185
 2488SOL    MW4 9984   1.302   2.709   4.167
 2489SOL     OW 9985   1.592   2.331   4.732
 2489SOL    HW2 9986   1.615   2.396   4.798
 2489SOL    HW3 9987   1.676   2.290   4.708
 2489SOL    MW4 9988   1.606   2.334   4.737
 2490SOL     OW 9989   1.569   3.062   4.160
 2490SOL    HW2 9990   1.637   3.106   4.212
 2490SOL    HW3 9991   1.557   2.978   4.203
 2490SOL    MW4 9992   1.577   3.057   4.173
 2491SOL     OW 9993   1.326   3.172   4.214
 2491SOL    HW2 9994   1.406   3.125   4.192
 2491SOL    HW3 9995   1.351   3.264   4.216
 2491SOL    MW4 9996   1.340   3.178   4.212
 2492SOL     OW 9997   1.387   3.449   4.147
 2492SOL    HW2 9998   1.328   3.510   4.192
 2492SOL    HW3 9999   1.377   3.471   4.055
 2492SOL    MW410000   1.378   3.460   4.141
 2493SOL     OW10001   1.579   3.628   4.211
 2493SOL    HW210002   1.616   3.610   4.298
 2493SOL    HW310003   1.516   3.558   4.197
 2493SOL    MW410004   1.576   3.617   4.221
 2494SOL     OW10005   1.539   3.886   4.107
 2494SOL    HW210006   1.469   3.929   4.156
 2494SOL    HW310007   1.541   3.796   4.140
 2494SOL    MW410008   1.530   3.880   4.118
 2495SOL     OW10009   1.356   4.021   4.301
 2495SOL    HW210010   1.418   4.023   4.374
 2495SOL    HW310011   1.343   4.113   4.278
 2495SOL    MW410012   1.363   4.033   4.308
 2496SOL     OW10013   1.317   4.268   4.198
 2496SOL    HW210014   1.392   4.328   4.198
 2496SOL    HW310015   1.299   4.253   4.105
 2496SOL    MW410016   1.325   4.274   4.185
 2497SOL     OW10017   1.537   4.393   4.292
 2497SOL    HW210018   1.560   4.480   4.261
 2497SOL    HW310019   1.609   4.337   4.262
 2497SOL    MW410020   1.549   4.397   4.284
 2498SOL     OW10021   2.001   0.000   4.152
 2498SOL    HW210022   1.923   0.036   4.194
 2498SOL    HW310023   1.983   0.008   4.058
 2498SOL    MW410024   1.988   0.006   4.145
 2499SOL     OW10025   1.780   0.143   4.289
 2499SOL    HW210026   1.792   0.182   4.376
 2499SOL    HW310027   1.780   0.218   4.229
 2499SOL    MW410028   1.782   0.158   4.293
 2500SOL     OW10029   1.762   0.376   4.150
 2500SOL    HW210030   1.839   0.424   4.184
 2500SOL    HW310031   1.692   0.398   4.211
 2500SOL    MW410032   1.763   0.385   4.163
 2501SOL     OW10033   2.002   0.508   4.252
 2501SOL    HW210034   2.010   0.485   4.344
 2501SOL    HW310035   2.079   0.468   4.211
 2501SOL    MW410036   2.014   0.500   4.259
 2502SOL     OW10037   2.028   0.787   4.161
 2502SOL    HW210038   2.113   0.828   4.175
 2502SOL    HW310039   2.030   0.709   4.216
 2502SOL    MW410040   2.040   0.782   4.170
 2503SOL     OW10041   1.775   0.941   4.209
 2503SOL    HW210042   1.789   1.022   4.161
 2503SOL    HW310043   1.853   0.888   4.190
 2503SOL    MW410044   1.787   0.945   4.200
 2504SOL     OW10045   1.802   1.197   4.114
 2504SOL    HW210046   1.856   1.252   4.171
 2504SOL    HW310047   1.712   1.216   4.142
 2504SOL    MW410048   1.797   1.207   4.126
 2505SOL     OW10049   1.994   1.300   4.289
 2505SOL    HW210050   2.070   1.249   4.263
 2505SOL    HW310051   2.004   1.383   4.242
 2505SOL    MW410052   2.005   1.305   4.279
 2506SOL     OW10053   2.018   1.552   4.154
 2506SOL    HW210054   2.088   1.607   4.191
 2506SOL    HW310055   2.039   1.547   4.061
 2506SOL    MW410056   2.030   1.559   4.147
 2507SOL     OW10057   1.799   1.710   4.167
 2507SOL    HW210058   1.874   1.654   4.145
 2507SOL    HW310059   1.723   1.653   4.155
 2507SOL    MW410060   1.799   1.695   4.163
 2508SOL     OW10061   1.776   1.975   4.125
 2508SOL    HW210062   1.778   1.879   4.130
 2508SOL    HW310063   1.857   2.002   4.168
 2508SOL    MW410064   1.787   1.966   4.132
 2509SOL     OW10065   1.755   2.563   4.270
 2509SOL    HW210066   1.741   2.587   4.362
 2509SOL    HW310067   1.848   2.580   4.254
 2509SOL    MW410068   1.765   2.569   4.280
 2510SOL     OW10069   2.378   2.245   4.128
 2510SOL    HW210070   2.440   2.253   4.201
 2510SOL    HW310071   2.430   2.261   4.050
 2510SOL    MW410072   2.393   2.248   4.128
 2511SOL     OW10073   1.844   2.940   4.380
 2511SOL    HW210074   1.870   2.911   4.293
 2511SOL    HW310075   1.926   2.954   4.427
 2511SOL    MW410076   1.858   2.938   4.375
 2512SOL     OW10077   1.878   2.839   4.119
 2512SOL    HW210078   1.935   2.769   4.150
 2512SOL    HW310079   1.935   2.916   4.112
 2512SOL    MW410080   1.893   2.840   4.122
 2513SOL     OW10081   2.066   3.184   4.316
 2513SOL    HW210082   2.073   3.105   4.370
 2513SOL    HW310083   2.082   3.153   4.227
 2513SOL    MW410084   2.069   3.169   4.311
 2514SOL     OW10085   2.248   2.821   4.114
 2514SOL    HW210086   2.340   2.842   4.127
 2514SOL    HW310087   2.211   2.817   4.202
 2514SOL    MW410088   2.255   2.823   4.127
 2515SOL     OW10089   1.793   3.247   4.252
 2515SOL    HW210090   1.808   3.334   4.217
 2515SOL    HW310091   1.880   3.214   4.273
 2515SOL    MW410092   1.806   3.254   4.250
 2516SOL     OW10093   1.831   3.510   4.132
 2516SOL    HW210094   1.763   3.572   4.157
 2516SOL    HW310095   1.824   3.503   4.037
 2516SOL    MW410096   1.821   3.517   4.123
 2517SOL     OW10097   2.072   3.605   4.248
 2517SOL    HW210098   2.062   3.696   4.221
 2517SOL    HW310099   1.993   3.561   4.216
 2517SOL    MW410100   2.060   3.611   4.240
 2518SOL     OW10101   2.036   3.852   4.141
 2518SOL    HW210102   1.954   3.896   4.162
 2518SOL    HW310103   2.035   3.845   4.046
 2518SOL    MW410104   2.025   3.857   4.131
 2519SOL     OW10105   1.789   4.006   4.176
 2519SOL    HW210106   1.788   4.100   4.162
 2519SOL    HW310107   1.706   3.975   4.140
 2519SOL    MW410108   1.778   4.014   4.169
 2520SOL     OW10109   1.763   4.282   4.147
 2520SOL    HW210110   1.846   4.327   4.163
 2520SOL    HW310111   1.754   4.283   4.051
 2520SOL    MW410112   1.773   4.288   4.136
 2521SOL     OW10113   1.992   4.394   4.228
 2521SOL    HW210114   1.955   4.390   4.317
 2521SOL    HW310115   2.001   4.488   4.210
 2521SOL    MW410116   1.988   4.406   4.238
 2522SOL     OW10117   2.421   4.645   4.104
 2522SOL    HW210118   2.493   4.697   4.139
 2522SOL    HW310119   2.436   4.557   4.139
 2522SOL    MW410120   2.432   4.640   4.113
 2523SOL     OW10121   2.237   0.124   4.256
 2523SOL    HW210122   2.296   0.069   4.204
 2523SOL    HW310123   2.151   0.085   4.243
 2523SOL    MW410124   2.234   0.111   4.247
 2524SOL     OW10125   2.231   0.399   4.141
 2524SOL    HW210126   2.236   0.322   4.198
 2524SOL    HW310127   2.246   0.365   4.053
 2524SOL    MW410128   2.233   0.385   4.137
 2525SOL     OW10129   2.432   0.555   4.262
 2525SOL    HW210130   2.434   0.547   4.358
 2525SOL    HW310131   2.344   0.528   4.238
 2525SOL    MW410132   2.421   0.550   4.272
 2526SOL     OW10133   2.489   0.779   4.131
 2526SOL    HW210134   2.482   0.691   4.169
 2526SOL    HW310135   2.458   0.768   4.041
 2526SOL    MW410136   2.484   0.766   4.124
 2527SOL     OW10137   2.268   0.917   4.208
 2527SOL    HW210138   2.281   0.951   4.297
 2527SOL    HW310139   2.348   0.868   4.190
 2527SOL    MW410140   2.281   0.915   4.218
 2528SOL     OW10141   2.217   1.188   4.156
 2528SOL    HW210142   2.288   1.230   4.204
 2528SOL    HW310143   2.234   1.094   4.166
 2528SOL    MW410144   2.229   1.181   4.164
 2529SOL     OW10145   2.446   1.295   4.275
 2529SOL    HW210146   2.453   1.317   4.368
 2529SOL    HW310147   2.522   1.239   4.259
 2529SOL    MW410148   2.457   1.290   4.286
 2530SOL     OW10149   2.468   1.577   4.191
 2530SOL    HW210150   2.458   1.485   4.217
 2530SOL    HW310151   2.471   1.575   4.096
 2530SOL    MW410152   2.467   1.565   4.182
 2531SOL     OW10153   2.229   1.734   4.205
 2531SOL    HW210154   2.320   1.707   4.199
 2531SOL    HW310155   2.230   1.829   4.199
 2531SOL    MW410156   2.241   1.743   4.203
 2532SOL     OW10157   2.225   2.000   4.165
 2532SOL    HW210158   2.276   2.079   4.148
 2532SOL    HW310159   2.155   2.028   4.224
 2532SOL    MW410160   2.223   2.014   4.171
 2533SOL     OW10161   2.559   2.154   4.322
 2533SOL    HW210162   2.518   2.102   4.391
 2533SOL    HW310163   2.607   2.091   4.269
 2533SOL    MW410164   2.560   2.139   4.324
 2534SOL     OW10165   2.759   2.634   4.349
 2534SOL    HW210166   2.724   2.560   4.400
 2534SOL    HW310167   2.825   2.673   4.407
 2534SOL    MW410168   2.763   2.629   4.364
 2535SOL     OW10169   2.436   2.478   4.564
 2535SOL    HW210170   2.416   2.509   4.476
 2535SOL    HW310171   2.400   2.545   4.622
 2535SOL    MW410172   2.429   2.491   4.560
 2536SOL     OW10173   2.019   2.629   4.241
 2536SOL    HW210174   2.079   2.683   4.292
 2536SOL    HW310175   2.076   2.580   4.182
 2536SOL    MW410176   2.034   2.630   4.240
 2537SOL     OW10177   2.507   2.804   4.397
 2537SOL    HW210178   2.480   2.718   4.365
 2537SOL    HW310179   2.425   2.848   4.421
 2537SOL    MW410180   2.493   2.798   4.396
 2538SOL     OW10181   2.533   3.177   4.131
 2538SOL    HW210182   2.459   3.200   4.186
 2538SOL    HW310183   2.609   3.211   4.177
 2538SOL    MW410184   2.533   3.185   4.144
 2539SOL     OW10185   2.079   3.037   4.087
 2539SOL    HW210186   2.055   3.048   3.995
 2539SOL    HW310187   2.126   2.954   4.090
 2539SOL    MW410188   2.082   3.027   4.075
 2540SOL     OW10189   2.300   3.494   4.132
 2540SOL    HW210190   2.324   3.426   4.194
 2540SOL    HW310191   2.225   3.538   4.173
 2540SOL    MW410192   2.293   3.491   4.146
 2541SOL     OW10193   2.527   3.620   4.158
 2541SOL    HW210194   2.443   3.577   4.143
 2541SOL    HW310195   2.512   3.712   4.138
 2541SOL    MW410196   2.514   3.626   4.153
 2542SOL     OW10197   2.483   3.895   4.074
 2542SOL    HW210198   2.540   3.959   4.117
 2542SOL    HW310199   2.511   3.896   3.983
 2542SOL    MW410200   2.494   3.903   4.068
 2543SOL     OW10201   2.259   4.019   4.207
 2543SOL    HW210202   2.329   3.980   4.155
 2543SOL    HW310203   2.186   3.956   4.200
 2543SOL    MW410204   2.258   4.005   4.199
 2544SOL     OW10205   2.218   4.279   4.100
 2544SOL    HW210206   2.246   4.190   4.122
 2544SOL    HW310207   2.141   4.294   4.155
 2544SOL    MW410208   2.211   4.269   4.111
 2545SOL     OW10209   2.423   4.388   4.251
 2545SOL    HW210210   2.498   4.347   4.209
 2545SOL    HW310211   2.347   4.350   4.206
 2545SOL    MW410212   2.423   4.378   4.240
 2546SOL     OW10213   2.847   0.023   4.070
 2546SOL    HW210214   2.933   0.067   4.072
 2546SOL    HW310215   2.864  -0.065   4.103
 2546SOL    MW410216   2.861   0.018   4.075
 2547SOL     OW10217   2.623   0.111   4.198
 2547SOL    HW210218   2.627   0.203   4.170
 2547SOL    HW310219   2.702   0.071   4.161
 2547SOL    MW410220   2.634   0.118   4.189
 2548SOL     OW10221   2.620   0.372   4.149
 2548SOL    HW210222   2.542   0.425   4.165
 2548SOL    HW310223   2.622   0.361   4.054
 2548SOL    MW410224   2.610   0.378   4.139
 2549SOL     OW10225   3.222   0.707   4.002
 2549SOL    HW210226   3.266   0.681   4.082
 2549SOL    HW310227   3.138   0.742   4.030
 2549SOL    MW410228   3.217   0.708   4.016
 2550SOL     OW10229   2.968   0.800   4.093
 2550SOL    HW210230   2.995   0.891   4.107
 2550SOL    HW310231   2.924   0.801   4.008
 2550SOL    MW410232   2.966   0.812   4.084
 2551SOL     OW10233   2.726   0.908   4.194
 2551SOL    HW210234   2.794   0.859   4.149
 2551SOL    HW310235   2.645   0.862   4.172
 2551SOL    MW410236   2.724   0.896   4.185
 2552SOL     OW10237   2.688   1.187   4.139
 2552SOL    HW210238   2.707   1.095   4.158
 2552SOL    HW310239   2.672   1.189   4.045
 2552SOL    MW410240   2.689   1.175   4.129
 2553SOL     OW10241   2.918   1.276   4.255
 2553SOL    HW210242   2.971   1.206   4.218
 2553SOL    HW310243   2.834   1.268   4.209
 2553SOL    MW410244   2.914   1.266   4.244
 2554SOL     OW10245   2.901   1.530   4.160
 2554SOL    HW210246   2.975   1.582   4.192
 2554SOL    HW310247   2.914   1.444   4.200
 2554SOL    MW410248   2.913   1.525   4.170
 2555SOL     OW10249   2.706   1.696   4.271
 2555SOL    HW210250   2.780   1.648   4.232
 2555SOL    HW310251   2.629   1.650   4.238
 2555SOL    MW410252   2.706   1.683   4.261
 2556SOL     OW10253   2.694   1.964   4.184
 2556SOL    HW210254   2.690   1.873   4.214
 2556SOL    HW310255   2.697   1.958   4.089
 2556SOL    MW410256   2.694   1.952   4.176
 2557SOL     OW10257   2.926   2.092   4.270
 2557SOL    HW210258   2.923   2.183   4.241
 2557SOL    HW310259   2.840   2.057   4.247
 2557SOL    MW410260   2.914   2.099   4.263
 2558SOL     OW10261   2.901   2.372   4.190
 2558SOL    HW210262   2.980   2.421   4.211
 2558SOL    HW310263   2.832   2.415   4.240
 2558SOL    MW410264   2.902   2.384   4.199
 2559SOL     OW10265   2.783   2.779   4.112
 2559SOL    HW210266   2.705   2.833   4.130
 2559SOL    HW310267   2.772   2.703   4.168
 2559SOL    MW410268   2.771   2.776   4.122
 2560SOL     OW10269   2.524   2.889   4.143
 2560SOL    HW210270   2.528   2.878   4.239
 2560SOL    HW310271   2.522   2.984   4.130
 2560SOL    MW410272   2.524   2.900   4.154
 2561SOL     OW10273   2.955   2.997   4.104
 2561SOL    HW210274   2.904   2.919   4.127
 2561SOL    HW310275   2.954   2.999   4.009
 2561SOL    MW410276   2.948   2.987   4.095
 2562SOL     OW10277   3.013   3.179   4.306
 2562SOL    HW210278   3.020   3.115   4.377
 2562SOL    HW310279   2.990   3.127   4.229
 2562SOL    MW410280   3.011   3.164   4.305
 2563SOL     OW10281   2.736   3.265   4.312
 2563SOL    HW210282   2.710   3.330   4.378
 2563SOL    HW310283   2.830   3.253   4.327
 2563SOL    MW410284   2.745   3.272   4.323
 2564SOL     OW10285   2.761   3.480   4.103
 2564SOL    HW210286   2.762   3.407   4.166
 2564SOL    HW310287   2.671   3.514   4.109
 2564SOL    MW410288   2.749   3.475   4.112
 2565SOL     OW10289   2.882   3.709   4.186
 2565SOL    HW210290   2.883   3.725   4.280
 2565SOL    HW310291   2.842   3.623   4.176
 2565SOL    MW410292   2.877   3.700   4.197
 2566SOL     OW10293   2.854   3.944   4.069
 2566SOL    HW210294   2.938   3.983   4.095
 2566SOL    HW310295   2.858   3.855   4.104
 2566SOL    MW410296   2.866   3.937   4.077
 2567SOL     OW10297   2.672   4.050   4.238
 2567SOL    HW210298   2.665   4.142   4.214
 2567SOL    HW310299   2.749   4.019   4.189
 2567SOL    MW410300   2.681   4.058   4.228
 2568SOL     OW10301   2.665   4.315   4.120
 2568SOL    HW210302   2.745   4.363   4.144
 2568SOL    HW310303   2.678   4.292   4.028
 2568SOL    MW410304   2.677   4.319   4.111
 2569SOL     OW10305   2.916   4.438   4.188
 2569SOL    HW210306   2.921   4.416   4.281
 2569SOL    HW310307   2.985   4.386   4.147
 2569SOL    MW410308   2.925   4.428   4.195
 2570SOL     OW10309   3.323   4.612   4.106
 2570SOL    HW210310   3.392   4.649   4.161
 2570SOL    HW310311   3.318   4.520   4.132
 2570SOL    MW410312   3.331   4.605   4.116
 2571SOL     OW10313   3.103   0.115   4.113
 2571SOL    HW210314   3.085   0.116   4.207
 2571SOL    HW310315   3.182   0.060   4.105
 2571SOL    MW410316   3.111   0.108   4.125
 2572SOL     OW10317   3.138   0.398   4.124
 2572SOL    HW210318   3.102   0.310   4.113
 2572SOL    HW310319   3.080   0.440   4.188
 2572SOL    MW410320   3.125   0.392   4.131
 2573SOL     OW10321   3.350   0.368   4.284
 2573SOL    HW210322   3.428   0.341   4.235
 2573SOL    HW310323   3.279   0.363   4.220
 2573SOL    MW410324   3.351   0.363   4.269
 2574SOL     OW10325   3.350   0.637   4.237
 2574SOL    HW210326   3.291   0.663   4.308
 2574SOL    HW310327   3.359   0.542   4.247
 2574SOL    MW410328   3.343   0.628   4.248
 2575SOL     OW10329   3.165   0.702   4.441
 2575SOL    HW210330   3.116   0.622   4.425
 2575SOL    HW310331   3.100   0.772   4.436
 2575SOL    MW410332   3.150   0.701   4.438
 2576SOL     OW10333   3.059   1.072   4.127
 2576SOL    HW210334   3.132   1.066   4.189
 2576SOL    HW310335   3.098   1.111   4.049
 2576SOL    MW410336   3.074   1.076   4.125
 2577SOL     OW10337   3.303   1.090   4.253
 2577SOL    HW210338   3.309   1.048   4.339
 2577SOL    HW310339   3.330   1.180   4.268
 2577SOL    MW410340   3.308   1.096   4.267
 2578SOL     OW10341   3.299   1.345   4.353
 2578SOL    HW210342   3.306   1.405   4.279
 2578SOL    HW310343   3.376   1.363   4.407
 2578SOL    MW410344   3.310   1.355   4.351
 2579SOL     OW10345   3.123   1.669   4.246
 2579SOL    HW210346   3.106   1.668   4.340
 2579SOL    HW310347   3.149   1.760   4.227
 2579SOL    MW410348   3.124   1.681   4.256
 2580SOL     OW10349   3.149   1.937   4.175
 2580SOL    HW210350   3.222   1.992   4.202
 2580SOL    HW310351   3.071   1.982   4.206
 2580SOL    MW410352   3.149   1.950   4.183
 2581SOL     OW10353   3.375   2.077   4.283
 2581SOL    HW210354   3.425   2.032   4.215
 2581SOL    HW310355   3.375   2.169   4.257
 2581SOL    MW410356   3.382   2.083   4.271
 2582SOL     OW10357   3.358   2.334   4.132
 2582SOL    HW210358   3.439   2.375   4.161
 2582SOL    HW310359   3.374   2.312   4.040
 2582SOL    MW410360   3.371   2.336   4.124
 2583SOL     OW10361   3.135   2.516   4.232
 2583SOL    HW210362   3.151   2.594   4.180
 2583SOL    HW310363   3.209   2.458   4.212
 2583SOL    MW410364   3.147   2.519   4.223
 2584SOL     OW10365   3.150   2.755   4.113
 2584SOL    HW210366   3.225   2.777   4.169
 2584SOL    HW310367   3.090   2.829   4.121
 2584SOL    MW410368   3.152   2.767   4.121
 2585SOL     OW10369   3.374   2.830   4.245
 2585SOL    HW210370   3.456   2.792   4.213
 2585SOL    HW310371   3.372   2.918   4.207
 2585SOL    MW410372   3.385   2.837   4.236
 2586SOL     OW10373   3.363   3.099   4.163
 2586SOL    HW210374   3.315   3.181   4.173
 2586SOL    HW310375   3.364   3.082   4.069
 2586SOL    MW410376   3.357   3.108   4.152
 2587SOL     OW10377   3.226   3.334   4.234
 2587SOL    HW210378   3.183   3.413   4.201
 2587SOL    HW310379   3.154   3.278   4.262
 2587SOL    MW410380   3.211   3.337   4.233
 2588SOL     OW10381   3.134   3.577   4.147
 2588SOL    HW210382   3.047   3.614   4.162
 2588SOL    HW310383   3.140   3.568   4.052
 2588SOL    MW410384   3.124   3.581   4.136
 2589SOL     OW10385   3.413   3.626   4.160
 2589SOL    HW210386   3.428   3.643   4.254
 2589SOL    HW310387   3.321   3.599   4.155
 2589SOL    MW410388   3.403   3.625   4.172
 2590SOL     OW10389   3.332   3.873   4.093
 2590SOL    HW210390   3.347   3.782   4.116
 2590SOL    HW310391   3.350   3.878   3.999
 2590SOL    MW410392   3.337   3.862   4.084
 2591SOL     OW10393   3.097   4.008   4.171
 2591SOL    HW210394   3.112   4.012   4.265
 2591SOL    HW310395   3.165   3.948   4.138
 2591SOL    MW410396   3.107   4.000   4.179
 2592SOL     OW10397   3.126   4.272   4.108
 2592SOL    HW210398   3.212   4.292   4.145
 2592SOL    HW310399   3.111   4.180   4.130
 2592SOL    MW410400   3.136   4.263   4.115
 2593SOL     OW10401   3.359   4.362   4.219
 2593SOL    HW210402   3.357   4.369   4.315
 2593SOL    HW310403   3.435   4.305   4.201
 2593SOL    MW410404   3.369   4.355   4.229
 2594SOL     OW10405   3.829   4.627   4.192
 2594SOL    HW210406   3.893   4.686   4.231
 2594SOL    HW310407   3.854   4.621   4.100
 2594SOL    MW410408   3.841   4.634   4.185
 2595SOL     OW10409   3.553   0.044   4.242
 2595SOL    HW210410   3.560   0.128   4.197
 2595SOL    HW310411   3.633  -0.002   4.219
 2595SOL    MW410412   3.564   0.049   4.233
 2596SOL     OW10413   3.582   0.284   4.139
 2596SOL    HW210414   3.644   0.347   4.177
 2596SOL    HW310415   3.582   0.304   4.045
 2596SOL    MW410416   3.590   0.295   4.131
 2597SOL     OW10417   3.752   0.451   4.290
 2597SOL    HW210418   3.761   0.405   4.373
 2597SOL    HW310419   3.701   0.529   4.311
 2597SOL    MW410420   3.747   0.455   4.303
 2598SOL     OW10421   3.740   0.860   4.118
 2598SOL    HW210422   3.690   0.941   4.106
 2598SOL    HW310423   3.740   0.819   4.032
 2598SOL    MW410424   3.734   0.865   4.105
 2599SOL     OW10425   3.612   0.694   4.297
 2599SOL    HW210426   3.524   0.678   4.264
 2599SOL    HW310427   3.651   0.753   4.232
 2599SOL    MW410428   3.606   0.700   4.284
 2600SOL     OW10429   3.576   1.101   4.133
 2600SOL    HW210430   3.491   1.066   4.159
 2600SOL    HW310431   3.566   1.119   4.039
 2600SOL    MW410432   3.563   1.099   4.124
 2601SOL     OW10433   3.802   1.200   4.275
 2601SOL    HW210434   3.725   1.159   4.237
 2601SOL    HW310435   3.791   1.189   4.370
 2601SOL    MW410436   3.790   1.193   4.283
 2602SOL     OW10437   3.810   1.461   4.185
 2602SOL    HW210438   3.800   1.372   4.218
 2602SOL    HW310439   3.853   1.508   4.256
 2602SOL    MW410440   3.814   1.455   4.199
 2603SOL     OW10441   3.567   1.925   4.144
 2603SOL    HW210442   3.560   1.917   4.049
 2603SOL    HW310443   3.579   1.835   4.175
 2603SOL    MW410444   3.567   1.912   4.135
 2604SOL     OW10445   3.363   1.566   4.180
 2604SOL    HW210446   3.351   1.538   4.089
 2604SOL    HW310447   3.281   1.608   4.203
 2604SOL    MW410448   3.351   1.568   4.171
 2605SOL     OW10449   3.823   2.013   4.208
 2605SOL    HW210450   3.824   2.015   4.304
 2605SOL    HW310451   3.734   1.985   4.186
 2605SOL    MW410452   3.811   2.010   4.218
 2606SOL     OW10453   3.784   2.293   4.138
 2606SOL    HW210454   3.804   2.204   4.168
 2606SOL    HW310455   3.795   2.289   4.043
 2606SOL    MW410456   3.788   2.281   4.130
 2607SOL     OW10457   3.594   2.461   4.218
 2607SOL    HW210458   3.582   2.452   4.313
 2607SOL    HW310459   3.659   2.394   4.196
 2607SOL    MW410460   3.601   2.451   4.228
 2608SOL     OW10461   3.621   2.745   4.170
 2608SOL    HW210462   3.602   2.654   4.191
 2608SOL    HW310463   3.629   2.747   4.075
 2608SOL    MW410464   3.619   2.733   4.160
 2609SOL     OW10465   3.868   2.845   4.261
 2609SOL    HW210466   3.873   2.885   4.347
 2609SOL    HW310467   3.782   2.802   4.259
 2609SOL    MW410468   3.857   2.844   4.272
 2610SOL     OW10469   3.832   3.092   4.138
 2610SOL    HW210470   3.847   3.008   4.181
 2610SOL    HW310471   3.847   3.074   4.045
 2610SOL    MW410472   3.836   3.079   4.131
 2611SOL     OW10473   3.600   3.163   4.291
 2611SOL    HW210474   3.674   3.140   4.235
 2611SOL    HW310475   3.524   3.123   4.248
 2611SOL    MW410476   3.600   3.155   4.278
 2612SOL     OW10477   3.603   3.402   4.124
 2612SOL    HW210478   3.591   3.320   4.171
 2612SOL    HW310479   3.529   3.457   4.151
 2612SOL    MW410480   3.592   3.399   4.134
 2613SOL     OW10481   3.785   3.572   4.243
 2613SOL    HW210482   3.870   3.547   4.207
 2613SOL    HW310483   3.723   3.509   4.204
 2613SOL    MW410484   3.788   3.560   4.233
 2614SOL     OW10485   3.793   3.837   4.173
 2614SOL    HW210486   3.716   3.877   4.214
 2614SOL    HW310487   3.793   3.747   4.206
 2614SOL    MW410488   3.783   3.830   4.182
 2615SOL     OW10489   3.578   3.954   4.272
 2615SOL    HW210490   3.527   3.950   4.353
 2615SOL    HW310491   3.515   3.929   4.204
 2615SOL    MW410492   3.563   3.950   4.274
 2616SOL     OW10493   3.591   4.207   4.174
 2616SOL    HW210494   3.656   4.255   4.226
 2616SOL    HW310495   3.592   4.119   4.210
 2616SOL    MW410496   3.599   4.202   4.186
 2617SOL     OW10497   3.818   4.339   4.283
 2617SOL    HW210498   3.863   4.280   4.222
 2617SOL    HW310499   3.832   4.426   4.247
 2617SOL    MW410500   3.826   4.342   4.270
 2618SOL     OW10501   4.219   4.658   4.181
 2618SOL    HW210502   4.205   4.571   4.218
 2618SOL    HW310503   4.294   4.692   4.230
 2618SOL    MW410504   4.227   4.651   4.192
 2619SOL     OW10505   4.033   0.127   4.301
 2619SOL    HW210506   4.023   0.211   4.257
 2619SOL    HW310507   4.092   0.077   4.246
 2619SOL    MW410508   4.039   0.131   4.288
 2620SOL     OW10509   3.992   0.370   4.161
 2620SOL    HW210510   4.078   0.411   4.174
 2620SOL    HW310511   3.932   0.421   4.215
 2620SOL    MW410512   3.996   0.382   4.170
 2621SOL     OW10513   4.223   0.477   4.224
 2621SOL    HW210514   4.228   0.566   4.188
 2621SOL    HW310515   4.299   0.432   4.189
 2621SOL    MW410516   4.234   0.483   4.215
 2622SOL     OW10517   4.218   0.748   4.133
 2622SOL    HW210518   4.147   0.803   4.166
 2622SOL    HW310519   4.233   0.779   4.043
 2622SOL    MW410520   4.211   0.759   4.125
 2623SOL     OW10521   4.006   0.890   4.217
 2623SOL    HW210522   4.004   0.973   4.169
 2623SOL    HW310523   3.920   0.851   4.201
 2623SOL    MW410524   3.994   0.896   4.209
 2624SOL     OW10525   4.040   1.164   4.133
 2624SOL    HW210526   4.103   1.214   4.185
 2624SOL    HW310527   3.957   1.174   4.181
 2624SOL    MW410528   4.037   1.172   4.146
 2625SOL     OW10529   4.257   1.308   4.265
 2625SOL    HW210530   4.242   1.299   4.359
 2625SOL    HW310531   4.335   1.256   4.248
 2625SOL    MW410532   4.265   1.300   4.275
 2626SOL     OW10533   4.190   1.554   4.148
 2626SOL    HW210534   4.200   1.460   4.159
 2626SOL    HW310535   4.188   1.567   4.053
 2626SOL    MW410536   4.191   1.544   4.137
 2627SOL     OW10537   4.142   1.704   4.371
 2627SOL    HW210538   4.215   1.703   4.433
 2627SOL    HW310539   4.163   1.636   4.307
 2627SOL    MW410540   4.154   1.695   4.371
 2628SOL     OW10541   4.058   1.895   4.144
 2628SOL    HW210542   4.080   1.838   4.218
 2628SOL    HW310543   3.975   1.935   4.169
 2628SOL    MW410544   4.050   1.893   4.157
 2629SOL     OW10545   4.462   1.891   4.124
 2629SOL    HW210546   4.541   1.940   4.146
 2629SOL    HW310547   4.391   1.937   4.168
 2629SOL    MW410548   4.463   1.903   4.132
 2630SOL     OW10549   4.240   2.313   4.184
 2630SOL    HW210550   4.164   2.356   4.222
 2630SOL    HW310551   4.244   2.228   4.227
 2630SOL    MW410552   4.231   2.307   4.194
 2631SOL     OW10553   3.989   2.421   4.267
 2631SOL    HW210554   3.963   2.396   4.356
 2631SOL    HW310555   3.922   2.383   4.211
 2631SOL    MW410556   3.977   2.413   4.272
 2632SOL     OW10557   4.067   2.667   4.174
 2632SOL    HW210558   4.041   2.584   4.214
 2632SOL    HW310559   4.001   2.729   4.203
 2632SOL    MW410560   4.055   2.664   4.183
 2633SOL     OW10561   4.299   2.853   4.223
 2633SOL    HW210562   4.221   2.802   4.200
 2633SOL    HW310563   4.372   2.799   4.193
 2633SOL    MW410564   4.298   2.839   4.216
 2634SOL     OW10565   4.246   3.111   4.166
 2634SOL    HW210566   4.266   3.021   4.191
 2634SOL    HW310567   4.244   3.109   4.070
 2634SOL    MW410568   4.249   3.099   4.157
 2635SOL     OW10569   4.024   3.225   4.283
 2635SOL    HW210570   4.110   3.193   4.254
 2635SOL    HW310571   3.961   3.174   4.232
 2635SOL    MW410572   4.027   3.214   4.272
 2636SOL     OW10573   4.047   3.487   4.155
 2636SOL    HW210574   4.041   3.404   4.203
 2636SOL    HW310575   4.064   3.461   4.064
 2636SOL    MW410576   4.048   3.472   4.149
 2637SOL     OW10577   4.284   3.604   4.228
 2637SOL    HW210578   4.267   3.697   4.209
 2637SOL    HW310579   4.202   3.560   4.207
 2637SOL    MW410580   4.271   3.611   4.223
 2638SOL     OW10581   4.269   3.895   4.168
 2638SOL    HW210582   4.181   3.929   4.180
 2638SOL    HW310583   4.276   3.882   4.073
 2638SOL    MW410584   4.258   3.898   4.157
 2639SOL     OW10585   4.023   3.983   4.237
 2639SOL    HW210586   4.026   4.000   4.331
 2639SOL    HW310587   3.954   3.918   4.227
 2639SOL    MW410588   4.014   3.977   4.248
 2640SOL     OW10589   3.995   4.238   4.125
 2640SOL    HW210590   4.049   4.289   4.185
 2640SOL    HW310591   3.983   4.154   4.168
 2640SOL    MW410592   4.001   4.234   4.138
 2641SOL     OW10593   4.099   4.254   4.683
 2641SOL    HW210594   4.104   4.199   4.761
 2641SOL    HW310595   4.007   4.281   4.680
 2641SOL    MW410596   4.088   4.250   4.693
 2642SOL     OW10597   4.028   4.071   4.880
 2642SOL    HW210598   3.944   4.118   4.876
 2642SOL    HW310599   4.067   4.099   4.963
 2642SOL    MW410600   4.022   4.081   4.890
 2643SOL     OW10601   4.303   4.392   4.548
 2643SOL    HW210602   4.274   4.481   4.529
 2643SOL    HW310603   4.234   4.355   4.603
 2643SOL    MW410604   4.290   4.399   4.553
 2644SOL     OW10605   4.161   4.623   4.578
 2644SOL    HW210606   4.181   4.678   4.653
 2644SOL    HW310607   4.066   4.623   4.572
 2644SOL    MW410608   4.151   4.630   4.587
 2645SOL     OW10609   4.256   1.755   4.654
 2645SOL    HW210610   4.339   1.769   4.700
 2645SOL    HW310611   4.219   1.677   4.696
 2645SOL    MW410612   4.262   1.746   4.666
 2646SOL     OW10613   0.450   0.077   4.510
 2646SOL    HW210614   0.372   0.055   4.561
 2646SOL    HW310615   0.504  -0.002   4.514
 2646SOL    MW410616   0.447   0.063   4.517
 2647SOL     OW10617   0.228   0.766   4.631
 2647SOL    HW210618   0.250   0.685   4.584
 2647SOL    HW310619   0.255   0.749   4.721
 2647SOL    MW410620   0.235   0.753   4.636
 2648SOL     OW10621   4.219   0.770   4.615
 2648SOL    HW210622   4.225   0.681   4.578
 2648SOL    HW310623   4.310   0.801   4.616
 2648SOL    MW410624   4.232   0.762   4.610
 2649SOL     OW10625   0.685   1.395   4.514
 2649SOL    HW210626   0.720   1.485   4.515
 2649SOL    HW310627   0.599   1.403   4.554
 2649SOL    MW410628   0.679   1.408   4.520
 2650SOL     OW10629   1.112   1.973   4.504
 2650SOL    HW210630   1.206   1.955   4.505
 2650SOL    HW310631   1.099   2.031   4.580
 2650SOL    MW410632   1.123   1.979   4.514
 2651SOL     OW10633   4.189   1.239   4.520
 2651SOL    HW210634   4.175   1.145   4.504
 2651SOL    HW310635   4.268   1.242   4.573
 2651SOL    MW410636   4.198   1.227   4.525
 2652SOL     OW10637   0.034   1.565   4.470
 2652SOL    HW210638   0.018   1.563   4.376
 2652SOL    HW310639   0.067   1.653   4.487
 2652SOL    MW410640   0.036   1.577   4.460
 2653SOL     OW10641   0.428   1.653   4.222
 2653SOL    HW210642   0.362   1.594   4.184
 2653SOL    HW310643   0.512   1.611   4.202
 2653SOL    MW410644   0.431   1.639   4.215
 2654SOL     OW10645   0.148   1.820   4.538
 2654SOL    HW210646   0.165   1.913   4.521
 2654SOL    HW310647   0.110   1.819   4.626
 2654SOL    MW410648   0.145   1.833   4.547
 2655SOL     OW10649   4.306   2.230   4.590
 2655SOL    HW210650   4.393   2.262   4.567
 2655SOL    HW310651   4.261   2.305   4.628
 2655SOL    MW410652   4.312   2.244   4.592
 2656SOL     OW10653   0.661   3.010   4.639
 2656SOL    HW210654   0.661   2.938   4.575
 2656SOL    HW310655   0.732   2.988   4.699
 2656SOL    MW410656   0.671   2.997   4.639
 2657SOL     OW10657   0.298   3.056   4.643
 2657SOL    HW210658   0.385   3.036   4.679
 2657SOL    HW310659   0.300   3.150   4.627
 2657SOL    MW410660   0.310   3.066   4.646
 2658SOL     OW10661   0.071   2.349   4.529
 2658SOL    HW210662   0.028   2.382   4.450
 2658SOL    HW310663   0.121   2.424   4.562
 2658SOL    MW410664   0.072   2.363   4.523
 2659SOL     OW10665   4.046   3.444   4.605
 2659SOL    HW210666   4.035   3.350   4.591
 2659SOL    HW310667   4.095   3.452   4.686
 2659SOL    MW410668   4.051   3.433   4.613
 2660SOL     OW10669   0.336   3.320   4.549
 2660SOL    HW210670   0.416   3.343   4.598
 2660SOL    HW310671   0.309   3.403   4.508
 2660SOL    MW410672   0.343   3.334   4.550
 2661SOL     OW10673   4.293   3.881   4.552
 2661SOL    HW210674   4.226   3.934   4.508
 2661SOL    HW310675   4.270   3.791   4.532
 2661SOL    MW410676   4.281   3.876   4.544
 2662SOL     OW10677   0.005   0.122   4.554
 2662SOL    HW210678  -0.067   0.114   4.617
 2662SOL    HW310679   0.033   0.214   4.560
 2662SOL    MW410680  -0.001   0.133   4.563
 2663SOL     OW10681   3.810   0.355   4.555
 2663SOL    HW210682   3.775   0.274   4.594
 2663SOL    HW310683   3.782   0.424   4.615
 2663SOL    MW410684   3.802   0.354   4.568
 2664SOL     OW10685   4.181   3.538   4.837
 2664SOL    HW210686   4.140   3.624   4.847
 2664SOL    HW310687   4.274   3.556   4.829
 2664SOL    MW410688   4.188   3.552   4.837
 2665SOL     OW10689   3.845   3.824   4.650
 2665SOL    HW210690   3.829   3.740   4.607
 2665SOL    HW310691   3.903   3.803   4.724
 2665SOL    MW410692   3.850   3.810   4.654
 2666SOL     OW10693   0.601   4.496   4.484
 2666SOL    HW210694   0.626   4.458   4.400
 2666SOL    HW310695   0.531   4.439   4.516
 2666SOL    MW410696   0.595   4.484   4.477
 2667SOL     OW10697   3.977   0.729   4.747
 2667SOL    HW210698   4.069   0.727   4.720
 2667SOL    HW310699   3.945   0.813   4.714
 2667SOL    MW410700   3.985   0.740   4.739
 2668SOL     OW10701   1.081   0.850   4.587
 2668SOL    HW210702   1.015   0.918   4.572
 2668SOL    HW310703   1.031   0.770   4.604
 2668SOL    MW410704   1.066   0.849   4.587
 2669SOL     OW10705   0.890   0.353   4.747
 2669SOL    HW210706   0.945   0.316   4.679
 2669SOL    HW310707   0.808   0.305   4.742
 2669SOL    MW410708   0.887   0.342   4.738
 2670SOL     OW10709   0.844   0.998   4.508
 2670SOL    HW210710   0.858   0.967   4.418
 2670SOL    HW310711   0.780   0.937   4.544
 2670SOL    MW410712   0.837   0.986   4.501
 2671SOL     OW10713   0.411   0.950   4.508
 2671SOL    HW210714   0.342   0.888   4.531
 2671SOL    HW310715   0.442   0.922   4.422
 2671SOL    MW410716   0.406   0.938   4.500
 2672SOL     OW10717   2.111   1.438   4.625
 2672SOL    HW210718   2.056   1.363   4.601
 2672SOL    HW310719   2.200   1.405   4.619
 2672SOL    MW410720   2.115   1.424   4.621
 2673SOL     OW10721   0.385   1.669   4.508
 2673SOL    HW210722   0.297   1.705   4.514
 2673SOL    HW310723   0.396   1.651   4.415
 2673SOL    MW410724   0.375   1.671   4.496
 2674SOL     OW10725   1.418   1.179   4.569
 2674SOL    HW210726   1.379   1.092   4.569
 2674SOL    HW310727   1.344   1.239   4.570
 2674SOL    MW410728   1.403   1.175   4.569
 2675SOL     OW10729   0.822   1.634   4.520
 2675SOL    HW210730   0.756   1.702   4.502
 2675SOL    HW310731   0.878   1.672   4.587
 2675SOL    MW410732   0.821   1.648   4.526
 2676SOL     OW10733   0.693   2.104   4.616
 2676SOL    HW210734   0.754   2.172   4.587
 2676SOL    HW310735   0.740   2.056   4.683
 2676SOL    MW410736   0.707   2.107   4.621
 2677SOL     OW10737   1.037   1.749   4.659
 2677SOL    HW210738   1.101   1.684   4.628
 2677SOL    HW310739   1.062   1.830   4.614
 2677SOL    MW410740   1.049   1.751   4.649
 2678SOL     OW10741   0.463   2.196   4.512
 2678SOL    HW210742   0.538   2.171   4.566
 2678SOL    HW310743   0.500   2.250   4.442
 2678SOL    MW410744   0.477   2.200   4.510
 2679SOL     OW10745   0.971   2.626   4.695
 2679SOL    HW210746   0.991   2.697   4.634
 2679SOL    HW310747   0.879   2.606   4.679
 2679SOL    MW410748   0.962   2.633   4.685
 2680SOL     OW10749   0.729   2.522   4.612
 2680SOL    HW210750   0.646   2.500   4.655
 2680SOL    HW310751   0.765   2.437   4.585
 2680SOL    MW410752   0.723   2.508   4.614
 2681SOL     OW10753   0.814   3.202   4.530
 2681SOL    HW210754   0.775   3.283   4.562
 2681SOL    HW310755   0.758   3.133   4.565
 2681SOL    MW410756   0.801   3.204   4.539
 2682SOL     OW10757   0.606   3.387   4.669
 2682SOL    HW210758   0.638   3.468   4.629
 2682SOL    HW310759   0.645   3.387   4.756
 2682SOL    MW410760   0.616   3.398   4.675
 2683SOL     OW10761   1.268   0.049   4.506
 2683SOL    HW210762   1.255  -0.046   4.506
 2683SOL    HW310763   1.360   0.060   4.529
 2683SOL    MW410764   1.279   0.038   4.509
 2684SOL     OW10765   0.189   2.574   4.651
 2684SOL    HW210766   0.152   2.566   4.739
 2684SOL    HW310767   0.157   2.658   4.618
 2684SOL    MW410768   0.180   2.584   4.658
 2685SOL     OW10769   4.482   3.538   4.635
 2685SOL    HW210770   4.403   3.562   4.587
 2685SOL    HW310771   4.483   3.442   4.633
 2685SOL    MW410772   4.472   3.528   4.629
 2686SOL     OW10773   1.372   3.389   4.564
 2686SOL    HW210774   1.467   3.389   4.556
 2686SOL    HW310775   1.345   3.304   4.528
 2686SOL    MW410776   1.381   3.378   4.558
 2687SOL     OW10777   0.071   4.334   4.467
 2687SOL    HW210778   0.078   4.242   4.445
 2687SOL    HW310779  -0.020   4.345   4.497
 2687SOL    MW410780   0.060   4.323   4.468
 2688SOL     OW10781   0.063   4.030   4.516
 2688SOL    HW210782   0.123   3.959   4.492
 2688SOL    HW310783  -0.018   3.984   4.540
 2688SOL    MW410784   0.060   4.014   4.516
 2689SOL     OW10785   0.205   4.636   4.666
 2689SOL    HW210786   0.138   4.675   4.611
 2689SOL    HW310787   0.171   4.644   4.755
 2689SOL    MW410788   0.192   4.642   4.671
 2690SOL     OW10789   0.665   0.265   4.613
 2690SOL    HW210790   0.735   0.227   4.559
 2690SOL    HW310791   0.599   0.197   4.617
 2690SOL    MW410792   0.666   0.251   4.606
 2691SOL     OW10793   1.211   4.450   4.565
 2691SOL    HW210794   1.299   4.412   4.569
 2691SOL    HW310795   1.192   4.475   4.656
 2691SOL    MW410796   1.220   4.448   4.578
 2692SOL     OW10797   0.609   0.524   4.496
 2692SOL    HW210798   0.637   0.519   4.405
 2692SOL    HW310799   0.640   0.443   4.535
 2692SOL    MW410800   0.616   0.513   4.489
 2693SOL     OW10801   1.345   0.844   4.535
 2693SOL    HW210802   1.335   0.849   4.440
 2693SOL    HW310803   1.256   0.852   4.569
 2693SOL    MW410804   1.332   0.846   4.527
 2694SOL     OW10805   1.605   0.938   4.606
 2694SOL    HW210806   1.573   1.028   4.612
 2694SOL    HW310807   1.530   0.888   4.572
 2694SOL    MW410808   1.591   0.943   4.602
 2695SOL     OW10809   0.280   1.209   4.567
 2695SOL    HW210810   0.336   1.132   4.574
 2695SOL    HW310811   0.333   1.280   4.604
 2695SOL    MW410812   0.295   1.208   4.573
 2696SOL     OW10813   0.854   1.969   4.779
 2696SOL    HW210814   0.916   1.901   4.754
 2696SOL    HW310815   0.908   2.042   4.809
 2696SOL    MW410816   0.869   1.970   4.780
 2697SOL     OW10817   0.895   1.252   4.621
 2697SOL    HW210818   0.822   1.304   4.589
 2697SOL    HW310819   0.885   1.167   4.577
 2697SOL    MW410820   0.884   1.248   4.611
 2698SOL     OW10821   1.908   1.221   4.542
 2698SOL    HW210822   1.901   1.126   4.548
 2698SOL    HW310823   1.922   1.239   4.449
 2698SOL    MW410824   1.909   1.211   4.531
 2699SOL     OW10825   1.155   1.296   4.504
 2699SOL    HW210826   1.071   1.278   4.547
 2699SOL    HW310827   1.175   1.387   4.527
 2699SOL    MW410828   1.147   1.306   4.513
 2700SOL     OW10829   1.135   2.417   4.610
 2700SOL    HW210830   1.091   2.497   4.639
 2700SOL    HW310831   1.227   2.441   4.604
 2700SOL    MW410832   1.141   2.431   4.613
 2701SOL     OW10833   1.669   2.518   4.924
 2701SOL    HW210834   1.762   2.534   4.935
 2701SOL    HW310835   1.640   2.584   4.861
 2701SOL    MW410836   1.677   2.529   4.917
 2702SOL     OW10837   1.491   2.950   4.544
 2702SOL    HW210838   1.493   2.880   4.609
 2702SOL    HW310839   1.576   2.992   4.551
 2702SOL    MW410840   1.502   2.947   4.553
 2703SOL     OW10841   1.646   3.298   4.482
 2703SOL    HW210842   1.688   3.249   4.552
 2703SOL    HW310843   1.695   3.274   4.403
 2703SOL    MW410844   1.658   3.289   4.481
 2704SOL     OW10845   0.737   2.777   4.497
 2704SOL    HW210846   0.832   2.787   4.494
 2704SOL    HW310847   0.723   2.691   4.537
 2704SOL    MW410848   0.748   2.767   4.502
 2705SOL     OW10849   0.322   4.093   4.675
 2705SOL    HW210850   0.328   4.189   4.674
 2705SOL    HW310851   0.230   4.075   4.657
 2705SOL    MW410852   0.310   4.104   4.673
 2706SOL     OW10853   1.014   2.806   4.490
 2706SOL    HW210854   1.044   2.805   4.399
 2706SOL    HW310855   1.037   2.894   4.521
 2706SOL    MW410856   1.021   2.817   4.482
 2707SOL     OW10857   0.889   2.941   4.793
 2707SOL    HW210858   0.964   2.977   4.746
 2707SOL    HW310859   0.922   2.863   4.836
 2707SOL    MW410860   0.903   2.936   4.792
 2708SOL     OW10861   1.671   3.584   4.464
 2708SOL    HW210862   1.765   3.600   4.470
 2708SOL    HW310863   1.661   3.490   4.476
 2708SOL    MW410864   1.682   3.574   4.466
 2709SOL     OW10865   0.487   3.872   4.563
 2709SOL    HW210866   0.440   3.926   4.627
 2709SOL    HW310867   0.485   3.924   4.482
 2709SOL    MW410868   0.480   3.886   4.561
 2710SOL     OW10869   0.238   3.824   4.469
 2710SOL    HW210870   0.231   3.730   4.450
 2710SOL    HW310871   0.326   3.835   4.504
 2710SOL    MW410872   0.248   3.813   4.471
 2711SOL     OW10873   0.813   0.028   4.501
 2711SOL    HW210874   0.832   0.047   4.409
 2711SOL    HW310875   0.767  -0.056   4.500
 2711SOL    MW410876   0.810   0.019   4.489
 2712SOL     OW10877   0.303   4.380   4.618
 2712SOL    HW210878   0.294   4.461   4.668
 2712SOL    HW310879   0.220   4.372   4.571
 2712SOL    MW410880   0.291   4.390   4.618
 2713SOL     OW10881   2.324   4.082   4.474
 2713SOL    HW210882   2.293   4.072   4.384
 2713SOL    HW310883   2.379   4.005   4.489
 2713SOL    MW410884   2.327   4.070   4.464
 2714SOL     OW10885   1.668   4.515   4.635
 2714SOL    HW210886   1.749   4.474   4.606
 2714SOL    HW310887   1.599   4.451   4.616
 2714SOL    MW410888   1.669   4.501   4.629
 2715SOL     OW10889   1.457   4.334   4.548
 2715SOL    HW210890   1.476   4.240   4.551
 2715SOL    HW310891   1.494   4.363   4.465
 2715SOL    MW410892   1.464   4.325   4.537
 2716SOL     OW10893   0.886   0.622   4.598
 2716SOL    HW210894   0.811   0.680   4.584
 2716SOL    HW310895   0.852   0.553   4.655
 2716SOL    MW410896   0.872   0.621   4.604
 2717SOL     OW10897   1.543   0.083   4.546
 2717SOL    HW210898   1.605   0.020   4.584
 2717SOL    HW310899   1.581   0.169   4.565
 2717SOL    MW410900   1.556   0.086   4.554
 2718SOL     OW10901   1.125   0.468   4.488
 2718SOL    HW210902   1.065   0.532   4.527
 2718SOL    HW310903   1.079   0.384   4.497
 2718SOL    MW410904   1.111   0.465   4.495
 2719SOL     OW10905   1.581   1.754   4.545
 2719SOL    HW210906   1.540   1.670   4.567
 2719SOL    HW310907   1.663   1.730   4.501
 2719SOL    MW410908   1.586   1.740   4.542
 2720SOL     OW10909   0.654   0.801   4.564
 2720SOL    HW210910   0.581   0.856   4.591
 2720SOL    HW310911   0.616   0.716   4.547
 2720SOL    MW410912   0.640   0.797   4.565
 2721SOL     OW10913   1.631   0.485   4.666
 2721SOL    HW210914   1.607   0.502   4.757
 2721SOL    HW310915   1.559   0.522   4.615
 2721SOL    MW410916   1.618   0.492   4.672
 2722SOL     OW10917   1.635   1.323   4.511
 2722SOL    HW210918   1.566   1.261   4.537
 2722SOL    HW310919   1.717   1.276   4.529
 2722SOL    MW410920   1.637   1.309   4.517
 2723SOL     OW10921   1.238   1.568   4.518
 2723SOL    HW210922   1.320   1.530   4.550
 2723SOL    HW310923   1.264   1.628   4.449
 2723SOL    MW410924   1.252   1.571   4.513
 2724SOL     OW10925   1.560   2.711   4.698
 2724SOL    HW210926   1.482   2.664   4.667
 2724SOL    HW310927   1.628   2.689   4.634
 2724SOL    MW410928   1.559   2.702   4.686
 2725SOL     OW10929   2.359   2.587   4.317
 2725SOL    HW210930   2.334   2.555   4.230
 2725SOL    HW310931   2.289   2.648   4.341
 2725SOL    MW410932   2.347   2.591   4.309
 2726SOL     OW10933   0.862   2.290   4.520
 2726SOL    HW210934   0.950   2.305   4.555
 2726SOL    HW310935   0.864   2.329   4.433
 2726SOL    MW410936   0.874   2.297   4.513
 2727SOL     OW10937   1.441   3.783   4.505
 2727SOL    HW210938   1.365   3.726   4.516
 2727SOL    HW310939   1.512   3.724   4.481
 2727SOL    MW410940   1.441   3.768   4.503
 2728SOL     OW10941   1.362   2.461   4.300
 2728SOL    HW210942   1.336   2.544   4.261
 2728SOL    HW310943   1.434   2.431   4.244
 2728SOL    MW410944   1.368   2.468   4.288
 2729SOL     OW10945   1.390   2.516   4.576
 2729SOL    HW210946   1.384   2.504   4.481
 2729SOL    HW310947   1.446   2.445   4.606
 2729SOL    MW410948   1.396   2.505   4.567
 2730SOL     OW10949   1.307   3.144   4.468
 2730SOL    HW210950   1.368   3.076   4.495
 2730SOL    HW310951   1.322   3.154   4.374
 2730SOL    MW410952   1.317   3.136   4.459
 2731SOL     OW10953   1.064   3.059   4.594
 2731SOL    HW210954   1.138   3.103   4.552
 2731SOL    HW310955   0.988   3.114   4.572
 2731SOL    MW410956   1.064   3.072   4.586
 2732SOL     OW10957   0.705   3.650   4.583
 2732SOL    HW210958   0.665   3.736   4.591
 2732SOL    HW310959   0.799   3.665   4.593
 2732SOL    MW410960   0.712   3.663   4.585
 2733SOL     OW10961   2.337   3.457   4.569
 2733SOL    HW210962   2.242   3.450   4.569
 2733SOL    HW310963   2.368   3.371   4.594
 2733SOL    MW410964   2.328   3.445   4.572
 2734SOL     OW10965   2.066   3.357   4.542
 2734SOL    HW210966   2.057   3.294   4.614
 2734SOL    HW310967   2.051   3.305   4.463
 2734SOL    MW410968   2.063   3.342   4.541
 2735SOL     OW10969   2.333   3.262   4.308
 2735SOL    HW210970   2.244   3.230   4.324
 2735SOL    HW310971   2.388   3.214   4.369
 2735SOL    MW410972   2.328   3.251   4.318
 2736SOL     OW10973   0.946   3.769   4.526
 2736SOL    HW210974   0.935   3.829   4.452
 2736SOL    HW310975   1.035   3.736   4.517
 2736SOL    MW410976   0.956   3.772   4.515
 2737SOL     OW10977   1.771   4.073   4.454
 2737SOL    HW210978   1.784   4.059   4.360
 2737SOL    HW310979   1.834   4.015   4.496
 2737SOL    MW410980   1.781   4.064   4.447
 2738SOL     OW10981   2.031   0.485   4.531
 2738SOL    HW210982   2.092   0.416   4.557
 2738SOL    HW310983   2.062   0.562   4.579
 2738SOL    MW410984   2.043   0.486   4.541
 2739SOL     OW10985   1.028   0.220   4.547
 2739SOL    HW210986   0.973   0.142   4.533
 2739SOL    HW310987   1.116   0.185   4.558
 2739SOL    MW410988   1.032   0.205   4.547
 2740SOL     OW10989   1.797   0.330   4.502
 2740SOL    HW210990   1.881   0.370   4.524
 2740SOL    HW310991   1.732   0.383   4.550
 2740SOL    MW410992   1.799   0.342   4.511
 2741SOL     OW10993   2.347   0.058   4.523
 2741SOL    HW210994   2.341  -0.037   4.537
 2741SOL    HW310995   2.298   0.073   4.442
 2741SOL    MW410996   2.340   0.047   4.514
 2742SOL     OW10997   1.842   0.956   4.467
 2742SOL    HW210998   1.761   0.957   4.519
 2742SOL    HW310999   1.812   0.965   4.376
 2742SOL    MW411000   1.827   0.957   4.462
 2743SOL     OW11001   1.411   0.567   4.501
 2743SOL    HW211002   1.379   0.657   4.503
 2743SOL    HW311003   1.332   0.514   4.505
 2743SOL    MW411004   1.396   0.572   4.502
 2744SOL     OW11005   1.838   1.744   4.434
 2744SOL    HW211006   1.917   1.704   4.471
 2744SOL    HW311007   1.833   1.709   4.346
 2744SOL    MW411008   1.848   1.734   4.428
 2745SOL     OW11009   0.646   1.855   4.470
 2745SOL    HW211010   0.573   1.792   4.480
 2745SOL    HW311011   0.633   1.917   4.542
 2745SOL    MW411012   0.634   1.855   4.481
 2746SOL     OW11013   1.482   1.516   4.632
 2746SOL    HW211014   1.555   1.468   4.592
 2746SOL    HW311015   1.486   1.494   4.725
 2746SOL    MW411016   1.492   1.507   4.639
 2747SOL     OW11017   1.107   2.133   4.744
 2747SOL    HW211018   1.197   2.103   4.760
 2747SOL    HW311019   1.115   2.228   4.734
 2747SOL    MW411020   1.120   2.142   4.745
 2748SOL     OW11021   1.404   1.954   4.509
 2748SOL    HW211022   1.457   2.002   4.446
 2748SOL    HW311023   1.458   1.880   4.535
 2748SOL    MW411024   1.418   1.951   4.504
 2749SOL     OW11025   2.175   2.457   4.083
 2749SOL    HW211026   2.129   2.422   4.006
 2749SOL    HW311027   2.216   2.380   4.123
 2749SOL    MW411028   2.174   2.442   4.078
 2750SOL     OW11029   1.380   2.074   4.754
 2750SOL    HW211030   1.383   2.034   4.667
 2750SOL    HW311031   1.436   2.152   4.746
 2750SOL    MW411032   1.388   2.079   4.742
 2751SOL     OW11033   2.475   3.098   4.496
 2751SOL    HW211034   2.559   3.053   4.505
 2751SOL    HW311035   2.411   3.034   4.528
 2751SOL    MW411036   2.478   3.084   4.502
 2752SOL     OW11037   1.741   3.046   4.615
 2752SOL    HW211038   1.779   2.995   4.543
 2752SOL    HW311039   1.813   3.060   4.676
 2752SOL    MW411040   1.755   3.041   4.614
 2753SOL     OW11041   1.900   3.877   4.622
 2753SOL    HW211042   1.868   3.870   4.712
 2753SOL    HW311043   1.923   3.787   4.598
 2753SOL    MW411044   1.899   3.864   4.631
 2754SOL     OW11045   2.749   3.025   4.611
 2754SOL    HW211046   2.835   3.008   4.573
 2754SOL    HW311047   2.714   2.939   4.631
 2754SOL    MW411048   2.756   3.012   4.609
 2755SOL     OW11049   2.453   3.244   4.729
 2755SOL    HW211050   2.464   3.201   4.645
 2755SOL    HW311051   2.539   3.279   4.751
 2755SOL    MW411052   2.466   3.243   4.721
 2756SOL     OW11053   2.740   4.048   4.506
 2756SOL    HW211054   2.717   4.059   4.414
 2756SOL    HW311055   2.670   3.994   4.542
 2756SOL    MW411056   2.728   4.043   4.499
 2757SOL     OW11057   2.537   3.867   4.591
 2757SOL    HW211058   2.511   3.796   4.532
 2757SOL    HW311059   2.556   3.823   4.674
 2757SOL    MW411060   2.536   3.852   4.594
 2758SOL     OW11061   2.503   3.637   4.448
 2758SOL    HW211062   2.439   3.576   4.485
 2758SOL    HW311063   2.507   3.615   4.355
 2758SOL    MW411064   2.495   3.626   4.441
 2759SOL     OW11065   1.969   3.603   4.490
 2759SOL    HW211066   2.006   3.522   4.524
 2759SOL    HW311067   2.008   3.613   4.403
 2759SOL    MW411068   1.979   3.594   4.483
 2760SOL     OW11069   1.879   4.331   4.479
 2760SOL    HW211070   1.832   4.249   4.466
 2760SOL    HW311071   1.958   4.306   4.527
 2760SOL    MW411072   1.883   4.317   4.483
 2761SOL     OW11073   1.220   3.622   4.504
 2761SOL    HW211074   1.266   3.541   4.529
 2761SOL    HW311075   1.200   3.611   4.411
 2761SOL    MW411076   1.224   3.610   4.495
 2762SOL     OW11077   2.220   0.298   4.599
 2762SOL    HW211078   2.276   0.223   4.580
 2762SOL    HW311079   2.279   0.373   4.594
 2762SOL    MW411080   2.235   0.298   4.596
 2763SOL     OW11081   2.328   0.714   4.698
 2763SOL    HW211082   2.261   0.761   4.650
 2763SOL    HW311083   2.410   0.757   4.674
 2763SOL    MW411084   2.330   0.726   4.689
 2764SOL     OW11085   2.076   1.709   4.607
 2764SOL    HW211086   2.069   1.740   4.697
 2764SOL    HW311087   2.081   1.613   4.615
 2764SOL    MW411088   2.076   1.700   4.620
 2765SOL     OW11089   2.610   0.137   4.468
 2765SOL    HW211090   2.524   0.101   4.489
 2765SOL    HW311091   2.621   0.118   4.374
 2765SOL    MW411092   2.600   0.130   4.458
 2766SOL     OW11093   2.737   0.774   4.458
 2766SOL    HW211094   2.744   0.683   4.429
 2766SOL    HW311095   2.728   0.825   4.377
 2766SOL    MW411096   2.736   0.769   4.443
 2767SOL     OW11097   3.085   0.804   4.743
 2767SOL    HW211098   3.173   0.785   4.712
 2767SOL    HW311099   3.043   0.719   4.753
 2767SOL    MW411100   3.091   0.791   4.740
 2768SOL     OW11101   2.416   1.326   4.549
 2768SOL    HW211102   2.476   1.269   4.598
 2768SOL    HW311103   2.455   1.413   4.555
 2768SOL    MW411104   2.429   1.330   4.557
 2769SOL     OW11105   2.628   1.148   4.656
 2769SOL    HW211106   2.668   1.177   4.737
 2769SOL    HW311107   2.699   1.147   4.593
 2769SOL    MW411108   2.642   1.152   4.658
 2770SOL     OW11109   2.520   1.575   4.579
 2770SOL    HW211110   2.607   1.612   4.597
 2770SOL    HW311111   2.464   1.652   4.567
 2770SOL    MW411112   2.524   1.590   4.580
 2771SOL     OW11113   2.319   1.796   4.523
 2771SOL    HW211114   2.240   1.757   4.560
 2771SOL    HW311115   2.310   1.784   4.429
 2771SOL    MW411116   2.307   1.789   4.516
 2772SOL     OW11117   2.265   2.261   4.636
 2772SOL    HW211118   2.332   2.323   4.610
 2772SOL    HW311119   2.212   2.249   4.558
 2772SOL    MW411120   2.267   2.267   4.623
 2773SOL     OW11121   2.447   2.049   4.584
 2773SOL    HW211122   2.413   1.960   4.598
 2773SOL    HW311123   2.374   2.106   4.607
 2773SOL    MW411124   2.433   2.045   4.589
 2774SOL     OW11125   2.662   2.380   4.465
 2774SOL    HW211126   2.582   2.404   4.512
 2774SOL    HW311127   2.639   2.299   4.419
 2774SOL    MW411128   2.648   2.372   4.465
 2775SOL     OW11129   1.757   2.713   4.498
 2775SOL    HW211130   1.806   2.776   4.446
 2775SOL    HW311131   1.823   2.670   4.553
 2775SOL    MW411132   1.772   2.716   4.498
 2776SOL     OW11133   2.271   3.018   4.796
 2776SOL    HW211134   2.326   3.096   4.784
 2776SOL    HW311135   2.277   2.972   4.712
 2776SOL    MW411136   2.279   3.022   4.783
 2777SOL     OW11137   2.738   3.483   4.482
 2777SOL    HW211138   2.728   3.426   4.558
 2777SOL    HW311139   2.665   3.545   4.488
 2777SOL    MW411140   2.727   3.484   4.493
 2778SOL     OW11141   2.760   3.293   4.679
 2778SOL    HW211142   2.841   3.316   4.723
 2778SOL    HW311143   2.768   3.199   4.660
 2778SOL    MW411144   2.772   3.284   4.682
 2779SOL     OW11145   1.513   4.058   4.539
 2779SOL    HW211146   1.484   3.967   4.544
 2779SOL    HW311147   1.604   4.053   4.509
 2779SOL    MW411148   1.521   4.046   4.535
 2780SOL     OW11149   2.681   4.315   4.580
 2780SOL    HW211150   2.588   4.324   4.560
 2780SOL    HW311151   2.701   4.223   4.564
 2780SOL    MW411152   2.671   4.304   4.575
 2781SOL     OW11153   2.011   3.118   4.707
 2781SOL    HW211154   2.032   3.074   4.625
 2781SOL    HW311155   2.087   3.101   4.763
 2781SOL    MW411156   2.024   3.110   4.704
 2782SOL     OW11157   3.436   3.940   4.519
 2782SOL    HW211158   3.348   3.973   4.503
 2782SOL    HW311159   3.430   3.846   4.501
 2782SOL    MW411160   3.424   3.932   4.514
 2783SOL     OW11161   3.195   4.051   4.435
 2783SOL    HW211162   3.125   3.995   4.468
 2783SOL    HW311163   3.178   4.137   4.473
 2783SOL    MW411164   3.183   4.055   4.444
 2784SOL     OW11165   2.158   4.262   4.587
 2784SOL    HW211166   2.116   4.211   4.656
 2784SOL    HW311167   2.220   4.201   4.547
 2784SOL    MW411168   2.161   4.247   4.591
 2785SOL     OW11169   2.388   4.418   4.541
 2785SOL    HW211170   2.313   4.361   4.563
 2785SOL    HW311171   2.400   4.406   4.447
 2785SOL    MW411172   2.379   4.409   4.532
 2786SOL     OW11173   2.736   0.497   4.377
 2786SOL    HW211174   2.705   0.455   4.297
 2786SOL    HW311175   2.687   0.453   4.447
 2786SOL    MW411176   2.725   0.486   4.376
 2787SOL     OW11177   2.632   0.381   4.605
 2787SOL    HW211178   2.629   0.294   4.565
 2787SOL    HW311179   2.666   0.366   4.693
 2787SOL    MW411180   2.636   0.368   4.612
 2788SOL     OW11181   2.957   0.142   4.785
 2788SOL    HW211182   2.922   0.084   4.718
 2788SOL    HW311183   3.052   0.140   4.771
 2788SOL    MW411184   2.965   0.134   4.775
 2789SOL     OW11185   2.986   0.921   4.487
 2789SOL    HW211186   3.025   0.892   4.570
 2789SOL    HW311187   2.907   0.868   4.478
 2789SOL    MW411188   2.981   0.910   4.497
 2790SOL     OW11189   3.596   0.353   4.803
 2790SOL    HW211190   3.507   0.381   4.829
 2790SOL    HW311191   3.642   0.435   4.785
 2790SOL    MW411192   3.590   0.368   4.804
 2791SOL     OW11193   2.136   0.840   4.536
 2791SOL    HW211194   2.179   0.925   4.526
 2791SOL    HW311195   2.046   0.855   4.506
 2791SOL    MW411196   2.130   0.854   4.530
 2792SOL     OW11197   2.518   0.889   4.626
 2792SOL    HW211198   2.544   0.977   4.652
 2792SOL    HW311199   2.595   0.852   4.582
 2792SOL    MW411200   2.531   0.895   4.624
 2793SOL     OW11201   3.101   1.349   4.566
 2793SOL    HW211202   3.030   1.287   4.549
 2793SOL    HW311203   3.150   1.353   4.484
 2793SOL    MW411204   3.098   1.341   4.553
 2794SOL     OW11205   3.041   1.631   4.499
 2794SOL    HW211206   2.953   1.669   4.504
 2794SOL    HW311207   3.033   1.545   4.539
 2794SOL    MW411208   3.028   1.625   4.505
 2795SOL     OW11209   2.773   1.706   4.543
 2795SOL    HW211210   2.735   1.790   4.570
 2795SOL    HW311211   2.740   1.692   4.454
 2795SOL    MW411212   2.764   1.715   4.535
 2796SOL     OW11213   2.712   1.971   4.616
 2796SOL    HW211214   2.766   2.049   4.606
 2796SOL    HW311215   2.622   2.003   4.610
 2796SOL    MW411216   2.707   1.985   4.614
 2797SOL     OW11217   2.902   2.217   4.518
 2797SOL    HW211218   2.836   2.285   4.505
 2797SOL    HW311219   2.900   2.166   4.438
 2797SOL    MW411220   2.893   2.219   4.506
 2798SOL     OW11221   3.134   2.240   4.649
 2798SOL    HW211222   3.120   2.254   4.743
 2798SOL    HW311223   3.047   2.223   4.614
 2798SOL    MW411224   3.121   2.240   4.657
 2799SOL     OW11225   2.402   2.757   4.757
 2799SOL    HW211226   2.379   2.817   4.829
 2799SOL    HW311227   2.370   2.802   4.678
 2799SOL    MW411228   2.394   2.771   4.756
 2800SOL     OW11229   3.477   3.226   4.725
 2800SOL    HW211230   3.525   3.163   4.671
 2800SOL    HW311231   3.465   3.180   4.808
 2800SOL    MW411232   3.482   3.211   4.729
 2801SOL     OW11233   2.665   2.776   4.639
 2801SOL    HW211234   2.598   2.768   4.707
 2801SOL    HW311235   2.616   2.783   4.557
 2801SOL    MW411236   2.650   2.776   4.637
 2802SOL     OW11237   2.950   3.653   4.468
 2802SOL    HW211238   3.022   3.596   4.495
 2802SOL    HW311239   2.874   3.594   4.464
 2802SOL    MW411240   2.949   3.637   4.471
 2803SOL     OW11241   3.031   3.003   4.521
 2803SOL    HW211242   3.102   3.007   4.585
 2803SOL    HW311243   2.996   2.914   4.530
 2803SOL    MW411244   3.036   2.992   4.531
 2804SOL     OW11245   3.041   0.182   4.380
 2804SOL    HW211246   2.988   0.125   4.435
 2804SOL    HW311247   3.010   0.270   4.399
 2804SOL    MW411248   3.030   0.186   4.390
 2805SOL     OW11249   4.069   3.787   4.823
 2805SOL    HW211250   4.043   3.872   4.860
 2805SOL    HW311251   4.136   3.809   4.758
 2805SOL    MW411252   4.075   3.801   4.819
 2806SOL     OW11253   3.812   3.580   4.536
 2806SOL    HW211254   3.881   3.519   4.562
 2806SOL    HW311255   3.804   3.568   4.441
 2806SOL    MW411256   3.820   3.571   4.527
 2807SOL     OW11257   2.979   3.931   4.535
 2807SOL    HW211258   2.894   3.972   4.520
 2807SOL    HW311259   2.966   3.838   4.514
 2807SOL    MW411260   2.966   3.924   4.530
 2808SOL     OW11261   2.914   4.436   4.473
 2808SOL    HW211262   2.836   4.388   4.498
 2808SOL    HW311263   2.987   4.377   4.496
 2808SOL    MW411264   2.913   4.422   4.480
 2809SOL     OW11265   3.016   0.435   4.451
 2809SOL    HW211266   3.032   0.448   4.544
 2809SOL    HW311267   2.925   0.461   4.438
 2809SOL    MW411268   3.006   0.440   4.461
 2810SOL     OW11269   3.376   0.682   4.633
 2810SOL    HW211270   3.460   0.715   4.601
 2810SOL    HW311271   3.314   0.703   4.563
 2810SOL    MW411272   3.379   0.689   4.619
 2811SOL     OW11273   2.398   0.504   4.540
 2811SOL    HW211274   2.487   0.478   4.562
 2811SOL    HW311275   2.371   0.560   4.613
 2811SOL    MW411276   2.406   0.508   4.552
 2812SOL     OW11277   2.322   1.044   4.474
 2812SOL    HW211278   2.388   0.991   4.518
 2812SOL    HW311279   2.325   1.129   4.519
 2812SOL    MW411280   2.331   1.048   4.486
 2813SOL     OW11281   2.859   0.028   4.556
 2813SOL    HW211282   2.871  -0.066   4.539
 2813SOL    HW311283   2.769   0.045   4.529
 2813SOL    MW411284   2.849   0.018   4.550
 2814SOL     OW11285   3.012   0.496   4.726
 2814SOL    HW211286   3.096   0.458   4.754
 2814SOL    HW311287   2.953   0.480   4.799
 2814SOL    MW411288   3.015   0.489   4.740
 2815SOL     OW11289   3.312   1.182   4.680
 2815SOL    HW211290   3.240   1.227   4.636
 2815SOL    HW311291   3.274   1.151   4.762
 2815SOL    MW411292   3.298   1.184   4.685
 2816SOL     OW11293   2.885   1.176   4.514
 2816SOL    HW211294   2.929   1.092   4.500
 2816SOL    HW311295   2.873   1.211   4.426
 2816SOL    MW411296   2.889   1.169   4.500
 2817SOL     OW11297   4.099   0.980   4.469
 2817SOL    HW211298   4.072   0.945   4.384
 2817SOL    HW311299   4.172   0.923   4.495
 2817SOL    MW411300   4.105   0.968   4.461
 2818SOL     OW11301   3.492   1.375   4.549
 2818SOL    HW211302   3.521   1.466   4.550
 2818SOL    HW311303   3.438   1.366   4.628
 2818SOL    MW411304   3.489   1.385   4.560
 2819SOL     OW11305   3.299   1.742   4.604
 2819SOL    HW211306   3.281   1.835   4.585
 2819SOL    HW311307   3.214   1.700   4.595
 2819SOL    MW411308   3.285   1.749   4.600
 2820SOL     OW11309   3.282   2.006   4.553
 2820SOL    HW211310   3.241   2.087   4.584
 2820SOL    HW311311   3.302   2.023   4.461
 2820SOL    MW411312   3.280   2.019   4.545
 2821SOL     OW11313   3.551   1.648   4.544
 2821SOL    HW211314   3.464   1.684   4.562
 2821SOL    HW311315   3.562   1.658   4.449
 2821SOL    MW411316   3.541   1.654   4.534
 2822SOL     OW11317   2.958   2.750   4.544
 2822SOL    HW211318   2.896   2.739   4.616
 2822SOL    HW311319   3.018   2.677   4.552
 2822SOL    MW411320   2.958   2.739   4.555
 2823SOL     OW11321   3.384   2.546   4.586
 2823SOL    HW211322   3.289   2.535   4.589
 2823SOL    HW311323   3.396   2.637   4.561
 2823SOL    MW411324   3.373   2.556   4.583
 2824SOL     OW11325   3.112   2.501   4.523
 2824SOL    HW211326   3.115   2.506   4.428
 2824SOL    HW311327   3.111   2.408   4.543
 2824SOL    MW411328   3.112   2.490   4.513
 2825SOL     OW11329   3.869   2.933   4.530
 2825SOL    HW211330   3.928   3.006   4.549
 2825SOL    HW311331   3.908   2.858   4.574
 2825SOL    MW411332   3.882   2.933   4.538
 2826SOL     OW11333   3.264   3.043   4.670
 2826SOL    HW211334   3.322   3.119   4.671
 2826SOL    HW311335   3.309   2.980   4.613
 2826SOL    MW411336   3.278   3.044   4.662
 2827SOL     OW11337   3.610   3.035   4.546
 2827SOL    HW211338   3.700   3.006   4.559
 2827SOL    HW311339   3.610   3.078   4.461
 2827SOL    MW411340   3.622   3.037   4.537
 2828SOL     OW11341   4.089   2.748   4.632
 2828SOL    HW211342   4.163   2.782   4.581
 2828SOL    HW311343   4.104   2.782   4.720
 2828SOL    MW411344   4.101   2.757   4.637
 2829SOL     OW11345   3.544   3.492   4.603
 2829SOL    HW211346   3.636   3.511   4.625
 2829SOL    HW311347   3.525   3.409   4.646
 2829SOL    MW411348   3.554   3.484   4.611
 2830SOL     OW11349   3.586   4.300   4.618
 2830SOL    HW211350   3.673   4.335   4.601
 2830SOL    HW311351   3.599   4.206   4.626
 2830SOL    MW411352   3.599   4.292   4.617
 2831SOL     OW11353   3.135   4.311   4.561
 2831SOL    HW211354   3.138   4.318   4.656
 2831SOL    HW311355   3.220   4.344   4.532
 2831SOL    MW411356   3.147   4.316   4.570
 2832SOL     OW11357   3.298   0.246   4.512
 2832SOL    HW211358   3.223   0.203   4.471
 2832SOL    HW311359   3.336   0.300   4.443
 2832SOL    MW411360   3.293   0.248   4.497
 2833SOL     OW11361   3.382   4.423   4.491
 2833SOL    HW211362   3.456   4.373   4.524
 2833SOL    HW311363   3.407   4.514   4.503
 2833SOL    MW411364   3.395   4.428   4.497
 2834SOL     OW11365   3.653   4.007   4.695
 2834SOL    HW211366   3.713   3.933   4.701
 2834SOL    HW311367   3.573   3.970   4.657
 2834SOL    MW411368   3.651   3.992   4.691
 2835SOL     OW11369   3.701   0.138   4.666
 2835SOL    HW211370   3.660   0.212   4.712
 2835SOL    HW311371   3.630   0.096   4.619
 2835SOL    MW411372   3.686   0.143   4.666
 2836SOL     OW11373   3.354   0.970   4.502
 2836SOL    HW211374   3.439   0.935   4.531
 2836SOL    HW311375   3.342   1.049   4.554
 2836SOL    MW411376   3.364   0.976   4.513
 2837SOL     OW11377   2.768   0.344   4.856
 2837SOL    HW211378   2.725   0.318   4.937
 2837SOL    HW311379   2.829   0.272   4.836
 2837SOL    MW411380   2.770   0.331   4.864
 2838SOL     OW11381   4.177   1.510   4.739
 2838SOL    HW211382   4.096   1.465   4.716
 2838SOL    HW311383   4.244   1.470   4.683
 2838SOL    MW411384   4.176   1.499   4.729
 2839SOL     OW11385   3.858   0.953   4.624
 2839SOL    HW211386   3.809   1.034   4.609
 2839SOL    HW311387   3.932   0.959   4.563
 2839SOL    MW411388   3.861   0.965   4.614
 2840SOL     OW11389   4.470   0.864   4.537
 2840SOL    HW211390   4.477   0.863   4.442
 2840SOL    HW311391   4.559   0.845   4.568
 2840SOL    MW411392   4.483   0.862   4.529
 2841SOL     OW11393   4.254   0.490   4.512
 2841SOL    HW211394   4.229   0.483   4.420
 2841SOL    HW311395   4.208   0.418   4.555
 2841SOL    MW411396   4.245   0.479   4.506
 2842SOL     OW11397   3.603   1.645   4.261
 2842SOL    HW211398   3.659   1.575   4.229
 2842SOL    HW311399   3.514   1.619   4.237
 2842SOL    MW411400   3.599   1.633   4.254
 2843SOL     OW11401   3.902   1.593   4.422
 2843SOL    HW211402   3.988   1.623   4.393
 2843SOL    HW311403   3.861   1.671   4.459
 2843SOL    MW411404   3.908   1.607   4.423
 2844SOL     OW11405   3.581   2.095   4.512
 2844SOL    HW211406   3.508   2.085   4.573
 2844SOL    HW311407   3.543   2.076   4.427
 2844SOL    MW411408   3.567   2.091   4.509
 2845SOL     OW11409   3.772   1.813   4.554
 2845SOL    HW211410   3.690   1.764   4.548
 2845SOL    HW311411   3.787   1.826   4.647
 2845SOL    MW411412   3.763   1.808   4.565
 2846SOL     OW11413   4.449   1.576   4.853
 2846SOL    HW211414   4.361   1.551   4.881
 2846SOL    HW311415   4.469   1.517   4.780
 2846SOL    MW411416   4.440   1.565   4.847
 2847SOL     OW11417   3.895   2.050   4.463
 2847SOL    HW211418   3.988   2.048   4.485
 2847SOL    HW311419   3.858   1.975   4.510
 2847SOL    MW411420   3.902   2.040   4.472
 2848SOL     OW11421   3.872   2.333   4.522
 2848SOL    HW211422   3.865   2.238   4.533
 2848SOL    HW311423   3.782   2.361   4.505
 2848SOL    MW411424   3.859   2.324   4.521
 2849SOL     OW11425   4.122   2.450   4.662
 2849SOL    HW211426   4.037   2.417   4.634
 2849SOL    HW311427   4.114   2.545   4.654
 2849SOL    MW411428   4.110   2.458   4.658
 2850SOL     OW11429   4.300   3.128   4.626
 2850SOL    HW211430   4.380   3.175   4.601
 2850SOL    HW311431   4.311   3.040   4.589
 2850SOL    MW411432   4.312   3.122   4.618
 2851SOL     OW11433   3.176   3.481   4.483
 2851SOL    HW211434   3.239   3.457   4.550
 2851SOL    HW311435   3.193   3.420   4.411
 2851SOL    MW411436   3.186   3.470   4.482
 2852SOL     OW11437   4.033   3.165   4.560
 2852SOL    HW211438   4.122   3.156   4.595
 2852SOL    HW311439   4.046   3.197   4.470
 2852SOL    MW411440   4.047   3.168   4.553
 2853SOL     OW11441   3.405   3.667   4.426
 2853SOL    HW211442   3.314   3.637   4.425
 2853SOL    HW311443   3.452   3.601   4.478
 2853SOL    MW411444   3.399   3.654   4.433
 2854SOL     OW11445   4.251   3.612   4.515
 2854SOL    HW211446   4.256   3.594   4.421
 2854SOL    HW311447   4.186   3.551   4.549
 2854SOL    MW411448   4.243   3.602   4.507
 2855SOL     OW11449   0.103   2.874   4.546
 2855SOL    HW211450   0.161   2.858   4.471
 2855SOL    HW311451   0.149   2.941   4.598
 2855SOL    MW411452   0.117   2.881   4.543
 2856SOL     OW11453   4.019   4.036   4.513
 2856SOL    HW211454   4.041   4.108   4.572
 2856SOL    HW311455   3.950   3.987   4.558
 2856SOL    MW411456   4.013   4.039   4.526
 2857SOL     OW11457   3.858   4.358   4.552
 2857SOL    HW211458   3.845   4.342   4.458
 2857SOL    HW311459   3.868   4.453   4.559
 2857SOL    MW411460   3.857   4.368   4.540
 2858SOL     OW11461   3.472   0.035   4.514
 2858SOL    HW211462   3.498   0.033   4.422
 2858SOL    HW311463   3.414   0.111   4.520
 2858SOL    MW411464   3.468   0.045   4.502
 2859SOL     OW11465   3.627   0.774   4.564
 2859SOL    HW211466   3.688   0.845   4.586
 2859SOL    HW311467   3.645   0.757   4.471
 2859SOL    MW411468   3.638   0.781   4.554
 2860SOL     OW11469   3.754   0.574   4.690
 2860SOL    HW211470   3.843   0.610   4.698
 2860SOL    HW311471   3.704   0.644   4.649
 2860SOL    MW411472   3.759   0.588   4.686
 2861SOL     OW11473   0.046   0.408   4.604
 2861SOL    HW211474   0.118   0.468   4.587
 2861SOL    HW311475  -0.033   0.455   4.575
 2861SOL    MW411476   0.045   0.422   4.598
 2862SOL     OW11477   0.314   0.540   4.492
 2862SOL    HW211478   0.409   0.526   4.494
 2862SOL    HW311479   0.291   0.539   4.400
 2862SOL    MW411480   0.324   0.538   4.480
 2863SOL     OW11481   4.069   0.273   4.566
 2863SOL    HW211482   3.985   0.317   4.576
 2863SOL    HW311483   4.063   0.226   4.483
 2863SOL    MW411484   4.058   0.272   4.557
 2864SOL     OW11485   3.754   1.214   4.547
 2864SOL    HW211486   3.674   1.260   4.572
 2864SOL    HW311487   3.825   1.273   4.572
 2864SOL    MW411488   3.753   1.228   4.553
 2865SOL     OW11489   0.017   1.153   4.572
 2865SOL    HW211490   0.110   1.174   4.584
 2865SOL    HW311491   0.015   1.059   4.556
 2865SOL    MW411492   0.029   1.143   4.571
 2866SOL     OW11493   4.412   1.395   4.640
 2866SOL    HW211494   4.451   1.310   4.618
 2866SOL    HW311495   4.455   1.457   4.581
 2866SOL    MW411496   4.423   1.392   4.629
 2867SOL     OW11497   3.957   1.384   4.609
 2867SOL    HW211498   4.033   1.342   4.569
 2867SOL    HW311499   3.947   1.466   4.559
 2867SOL    MW411500   3.966   1.389   4.597
 2868SOL     OW11501   3.393   2.837   4.522
 2868SOL    HW211502   3.381   2.844   4.427
 2868SOL    HW311503   3.482   2.869   4.537
 2868SOL    MW411504   3.403   2.842   4.511
 2869SOL     OW11505   4.252   2.042   4.247
 2869SOL    HW211506   4.180   2.003   4.198
 2869SOL    HW311507   4.237   2.016   4.338
 2869SOL    MW411508   4.241   2.034   4.253
 2870SOL     OW11509   0.209   2.093   4.497
 2870SOL    HW211510   0.302   2.110   4.516
 2870SOL    HW311511   0.163   2.167   4.535
 2870SOL    MW411512   0.215   2.105   4.505
 2871SOL     OW11513   4.173   1.991   4.523
 2871SOL    HW211514   4.204   1.920   4.578
 2871SOL    HW311515   4.214   2.070   4.559
 2871SOL    MW411516   4.182   1.992   4.535
 2872SOL     OW11517   3.582   2.386   4.480
 2872SOL    HW211518   3.521   2.441   4.530
 2872SOL    HW311519   3.565   2.297   4.512
 2872SOL    MW411520   3.571   2.381   4.491
 2873SOL     OW11521   0.470   2.448   4.677
 2873SOL    HW211522   0.383   2.488   4.677
 2873SOL    HW311523   0.467   2.382   4.607
 2873SOL    MW411524   0.458   2.444   4.668
 2874SOL     OW11525   4.323   2.863   4.524
 2874SOL    HW211526   4.418   2.856   4.534
 2874SOL    HW311527   4.311   2.879   4.430
 2874SOL    MW411528   4.334   2.865   4.513
 2875SOL     OW11529   0.043   3.248   4.540
 2875SOL    HW211530   0.030   3.234   4.446
 2875SOL    HW311531   0.138   3.262   4.549
 2875SOL    MW411532   0.054   3.248   4.529
 2876SOL     OW11533   0.200   3.526   4.443
 2876SOL    HW211534   0.147   3.498   4.368
 2876SOL    HW311535   0.140   3.523   4.517
 2876SOL    MW411536   0.185   3.522   4.443
 2877SOL     OW11537   4.264   0.177   4.738
 2877SOL    HW211538   4.249   0.228   4.817
 2877SOL    HW311539   4.201   0.211   4.674
 2877SOL    MW411540   4.254   0.188   4.740
 2878SOL     OW11541   3.879   4.648   4.527
 2878SOL    HW211542   3.894   4.706   4.452
 2878SOL    HW311543   3.824   4.699   4.586
 2878SOL    MW411544   3.874   4.662   4.525
 2879SOL     OW11545   3.799   4.210   4.835
 2879SOL    HW211546   3.753   4.140   4.789
 2879SOL    HW311547   3.755   4.290   4.807
 2879SOL    MW411548   3.787   4.211   4.825
 2880SOL     OW11549   3.275   0.432   4.762
 2880SOL    HW211550   3.290   0.353   4.711
 2880SOL    HW311551   3.324   0.500   4.716
 2880SOL    MW411552   3.283   0.431   4.749
 2881SOL     OW11553   4.231   4.380   4.258
 2881SOL    HW211554   4.311   4.343   4.221
 2881SOL    HW311555   4.236   4.359   4.352
 2881SOL    MW411556   4.242   4.372   4.266
 2882NA      NA11557   2.674   4.133   0.606
 2883NA      NA11558   0.671   2.298   0.400
   4.49070   4.66690  10.00000
