Gromacs Runs On Most of All Computer Systems in water t= 700.00000 step= 700000
11558
    1RG35     P    1   2.139   2.911   4.499
    1RG35   O1P    2   2.148   2.829   4.380
    1RG35   O2P    3   2.050   3.028   4.485
    1RG35   O5'    4   2.066   2.813   4.601
    1RG35   C5'    5   1.922   2.804   4.603
    1RG35  H5'1    6   1.875   2.801   4.504
    1RG35  H5'2    7   1.895   2.895   4.656
    1RG35   C4'    8   1.868   2.684   4.681
    1RG35   H4'    9   1.765   2.701   4.713
    1RG35   O4'   10   1.873   2.565   4.598
    1RG35   C1'   11   1.944   2.467   4.678
    1RG35   H1'   12   1.867   2.416   4.737
    1RG35    N9   13   2.009   2.373   4.587
    1RG35    C8   14   2.110   2.407   4.499
    1RG35    H8   15   2.156   2.504   4.491
    1RG35    N7   16   2.132   2.311   4.417
    1RG35    C5   17   2.047   2.209   4.454
    1RG35    C6   18   2.025   2.080   4.401
    1RG35    O6   19   2.065   2.034   4.295
    1RG35    N1   20   1.936   2.005   4.470
    1RG35    H1   21   1.918   1.908   4.450
    1RG35    C2   22   1.862   2.052   4.568
    1RG35    N2   23   1.769   1.978   4.612
    1RG35   H21   24   1.741   1.895   4.562
    1RG35   H22   25   1.710   2.011   4.688
    1RG35    N3   26   1.860   2.179   4.609
    1RG35    C4   27   1.964   2.248   4.552
    1RG35   C3'   28   1.940   2.654   4.813
    1RG35   H3'   29   2.001   2.737   4.851
    1RG35   C2'   30   2.032   2.542   4.778
    1RG35  H2'1   31   2.122   2.572   4.723
    1RG35   O2'   32   2.077   2.467   4.890
    1RG35  HO'2   33   2.119   2.527   4.951
    1RG35   O3'   34   1.855   2.603   4.913
    1RG35   H3T   35   1.893   2.520   4.944
    1RG35   O3P   36   2.269   2.938   4.560
    2SOL     OW   37   0.470   0.071   0.272
    2SOL    HW2   38   0.495  -0.011   0.316
    2SOL    HW3   39   0.551   0.123   0.271
    2SOL    MW4   40   0.484   0.067   0.278
    3SOL     OW   41   4.009   0.197   0.496
    3SOL    HW2   42   4.057   0.142   0.434
    3SOL    HW3   43   4.045   0.285   0.483
    3SOL    MW4   44   4.020   0.201   0.486
    4SOL     OW   45   3.781   0.554   0.427
    4SOL    HW2   46   3.687   0.569   0.421
    4SOL    HW3   47   3.799   0.555   0.521
    4SOL    MW4   48   3.771   0.556   0.439
    5SOL     OW   49   0.447   1.740   0.318
    5SOL    HW2   50   0.536   1.706   0.316
    5SOL    HW3   51   0.395   1.669   0.356
    5SOL    MW4   52   0.451   1.726   0.323
    6SOL     OW   53   1.432   0.873   0.402
    6SOL    HW2   54   1.386   0.868   0.485
    6SOL    HW3   55   1.524   0.886   0.426
    6SOL    MW4   56   1.438   0.874   0.416
    7SOL     OW   57   0.243   0.470   0.455
    7SOL    HW2   58   0.245   0.497   0.547
    7SOL    HW3   59   0.243   0.374   0.458
    7SOL    MW4   60   0.243   0.461   0.468
    8SOL     OW   61   0.561   0.898   0.455
    8SOL    HW2   62   0.527   0.902   0.544
    8SOL    HW3   63   0.540   0.809   0.426
    8SOL    MW4   64   0.554   0.887   0.463
    9SOL     OW   65   0.844   0.852   0.492
    9SOL    HW2   66   0.857   0.871   0.585
    9SOL    HW3   67   0.751   0.869   0.477
    9SOL    MW4   68   0.834   0.857   0.502
   10SOL     OW   69   0.457   1.094   0.302
   10SOL    HW2   70   0.445   1.056   0.215
   10SOL    HW3   71   0.490   1.021   0.355
   10SOL    MW4   72   0.460   1.079   0.298
   11SOL     OW   73   4.348   1.466   0.370
   11SOL    HW2   74   4.271   1.523   0.373
   11SOL    HW3   75   4.349   1.432   0.280
   11SOL    MW4   76   4.338   1.469   0.358
   12SOL     OW   77   4.068   2.337   0.572
   12SOL    HW2   78   3.987   2.309   0.614
   12SOL    HW3   79   4.056   2.431   0.556
   12SOL    MW4   80   4.056   2.346   0.576
   13SOL     OW   81   0.065   1.630   0.450
   13SOL    HW2   82   0.060   1.627   0.546
   13SOL    HW3   83   0.011   1.556   0.421
   13SOL    MW4   84   0.058   1.620   0.459
   14SOL     OW   85   0.641   2.326   0.405
   14SOL    HW2   86   0.641   2.292   0.495
   14SOL    HW3   87   0.717   2.384   0.402
   14SOL    MW4   88   0.651   2.330   0.417
   15SOL     OW   89   0.178   2.777   0.421
   15SOL    HW2   90   0.181   2.873   0.429
   15SOL    HW3   91   0.241   2.757   0.351
   15SOL    MW4   92   0.187   2.787   0.413
   16SOL     OW   93   4.160   3.385   0.428
   16SOL    HW2   94   4.204   3.319   0.374
   16SOL    HW3   95   4.140   3.339   0.509
   16SOL    MW4   96   4.163   3.370   0.431
   17SOL     OW   97   0.245   3.056   0.440
   17SOL    HW2   98   0.320   3.095   0.484
   17SOL    HW3   99   0.175   3.120   0.452
   17SOL    MW4  100   0.246   3.070   0.447
   18SOL     OW  101   0.567   3.296   0.362
   18SOL    HW2  102   0.662   3.294   0.370
   18SOL    HW3  103   0.542   3.386   0.383
   18SOL    MW4  104   0.576   3.307   0.366
   19SOL     OW  105   0.568   3.820   0.338
   19SOL    HW2  106   0.643   3.809   0.280
   19SOL    HW3  107   0.589   3.898   0.389
   19SOL    MW4  108   0.581   3.829   0.337
   20SOL     OW  109   4.237   3.838   0.467
   20SOL    HW2  110   4.268   3.873   0.550
   20SOL    HW3  111   4.269   3.748   0.465
   20SOL    MW4  112   4.245   3.831   0.477
   21SOL     OW  113   0.076   3.755   0.206
   21SOL    HW2  114   0.155   3.787   0.250
   21SOL    HW3  115   0.107   3.725   0.120
   21SOL    MW4  116   0.090   3.755   0.200
   22SOL     OW  117   4.415   4.480   0.408
   22SOL    HW2  118   4.406   4.408   0.346
   22SOL    HW3  119   4.387   4.444   0.492
   22SOL    MW4  120   4.410   4.466   0.411
   23SOL     OW  121   4.358   4.226   0.304
   23SOL    HW2  122   4.365   4.131   0.295
   23SOL    HW3  123   4.268   4.241   0.333
   23SOL    MW4  124   4.347   4.216   0.307
   24SOL     OW  125   4.451   3.959   0.339
   24SOL    HW2  126   4.377   3.915   0.381
   24SOL    HW3  127   4.471   3.904   0.263
   24SOL    MW4  128   4.444   3.946   0.334
   25SOL     OW  129   0.494   3.091   0.537
   25SOL    HW2  130   0.503   3.129   0.624
   25SOL    HW3  131   0.526   3.159   0.478
   25SOL    MW4  132   0.499   3.105   0.541
   26SOL     OW  133   0.478   4.466   0.325
   26SOL    HW2  134   0.394   4.445   0.366
   26SOL    HW3  135   0.456   4.488   0.235
   26SOL    MW4  136   0.464   4.466   0.319
   27SOL     OW  137   0.301   0.189   0.453
   27SOL    HW2  138   0.220   0.138   0.461
   27SOL    HW3  139   0.341   0.158   0.372
   27SOL    MW4  140   0.295   0.179   0.443
   28SOL     OW  141   0.011   0.558   0.374
   28SOL    HW2  142   0.043   0.617   0.305
   28SOL    HW3  143   0.091   0.521   0.412
   28SOL    MW4  144   0.026   0.561   0.370
   29SOL     OW  145   1.182   4.566   0.403
   29SOL    HW2  146   1.176   4.475   0.432
   29SOL    HW3  147   1.218   4.560   0.314
   29SOL    MW4  148   1.186   4.553   0.395
   30SOL     OW  149   1.155   1.187   0.442
   30SOL    HW2  150   1.124   1.147   0.524
   30SOL    HW3  151   1.131   1.279   0.450
   30SOL    MW4  152   1.148   1.194   0.454
   31SOL     OW  153   0.678   0.468   0.518
   31SOL    HW2  154   0.757   0.512   0.486
   31SOL    HW3  155   0.681   0.382   0.477
   31SOL    MW4  156   0.689   0.463   0.508
   32SOL     OW  157   0.256   1.246   0.431
   32SOL    HW2  158   0.325   1.210   0.377
   32SOL    HW3  159   0.183   1.185   0.422
   32SOL    MW4  160   0.255   1.234   0.423
   33SOL     OW  161   0.044   2.122   0.487
   33SOL    HW2  162  -0.019   2.193   0.474
   33SOL    HW3  163   0.007   2.048   0.440
   33SOL    MW4  164   0.031   2.122   0.479
   34SOL     OW  165   0.524   2.000   0.392
   34SOL    HW2  166   0.454   2.061   0.367
   34SOL    HW3  167   0.499   1.917   0.350
   34SOL    MW4  168   0.511   1.997   0.383
   35SOL     OW  169   0.480   3.070   0.187
   35SOL    HW2  170   0.393   3.056   0.224
   35SOL    HW3  171   0.506   3.157   0.217
   35SOL    MW4  172   0.472   3.080   0.195
   36SOL     OW  173   0.582   2.827   0.072
   36SOL    HW2  174   0.540   2.891   0.130
   36SOL    HW3  175   0.568   2.863  -0.016
   36SOL    MW4  176   0.575   2.840   0.068
   37SOL     OW  177   3.855   2.130   0.219
   37SOL    HW2  178   3.856   2.173   0.134
   37SOL    HW3  179   3.941   2.149   0.257
   37SOL    MW4  180   3.866   2.138   0.213
   38SOL     OW  181   1.150   2.077   0.527
   38SOL    HW2  182   1.137   2.083   0.622
   38SOL    HW3  183   1.245   2.082   0.515
   38SOL    MW4  184   1.161   2.078   0.538
   39SOL     OW  185   0.406   2.458   0.442
   39SOL    HW2  186   0.416   2.535   0.387
   39SOL    HW3  187   0.490   2.412   0.436
   39SOL    MW4  188   0.418   2.462   0.434
   40SOL     OW  189   4.297   3.174   0.318
   40SOL    HW2  190   4.244   3.103   0.353
   40SOL    HW3  191   4.280   3.172   0.224
   40SOL    MW4  192   4.288   3.165   0.310
   41SOL     OW  193   0.445   2.705   0.296
   41SOL    HW2  194   0.495   2.721   0.216
   41SOL    HW3  195   0.489   2.758   0.362
   41SOL    MW4  196   0.458   2.714   0.294
   42SOL     OW  197   0.862   0.404   0.191
   42SOL    HW2  198   0.838   0.438   0.104
   42SOL    HW3  199   0.875   0.482   0.245
   42SOL    MW4  200   0.861   0.418   0.186
   43SOL     OW  201   0.303   3.625   0.505
   43SOL    HW2  202   0.285   3.712   0.469
   43SOL    HW3  203   0.395   3.608   0.481
   43SOL    MW4  204   0.313   3.634   0.497
   44SOL     OW  205   0.558   3.555   0.462
   44SOL    HW2  206   0.578   3.638   0.418
   44SOL    HW3  207   0.617   3.552   0.537
   44SOL    MW4  208   0.569   3.565   0.466
   45SOL     OW  209   1.159   3.656   0.530
   45SOL    HW2  210   1.076   3.610   0.518
   45SOL    HW3  211   1.222   3.606   0.478
   45SOL    MW4  212   1.156   3.643   0.522
   46SOL     OW  213   0.207   4.405   0.444
   46SOL    HW2  214   0.119   4.437   0.423
   46SOL    HW3  215   0.195   4.312   0.466
   46SOL    MW4  216   0.194   4.397   0.444
   47SOL     OW  217   0.896   3.563   0.486
   47SOL    HW2  218   0.875   3.604   0.402
   47SOL    HW3  219   0.853   3.618   0.551
   47SOL    MW4  220   0.887   3.576   0.484
   48SOL     OW  221   0.706   4.313   0.424
   48SOL    HW2  222   0.636   4.369   0.391
   48SOL    HW3  223   0.732   4.353   0.507
   48SOL    MW4  224   0.700   4.326   0.430
   49SOL     OW  225   0.716   0.217   0.347
   49SOL    HW2  226   0.785   0.167   0.391
   49SOL    HW3  227   0.763   0.265   0.278
   49SOL    MW4  228   0.732   0.217   0.344
   50SOL     OW  229   0.909   0.602   0.370
   50SOL    HW2  230   0.889   0.692   0.397
   50SOL    HW3  231   0.994   0.583   0.411
   50SOL    MW4  232   0.918   0.611   0.379
   51SOL     OW  233   0.486   0.627   0.417
   51SOL    HW2  234   0.405   0.576   0.422
   51SOL    HW3  235   0.552   0.572   0.459
   51SOL    MW4  236   0.484   0.613   0.423
   52SOL     OW  237   1.400   0.594   0.381
   52SOL    HW2  238   1.491   0.576   0.407
   52SOL    HW3  239   1.397   0.689   0.370
   52SOL    MW4  240   1.412   0.604   0.383
   53SOL     OW  241   1.919   0.766   0.324
   53SOL    HW2  242   1.848   0.809   0.372
   53SOL    HW3  243   1.892   0.770   0.233
   53SOL    MW4  244   1.906   0.773   0.318
   54SOL     OW  245   1.535   4.666   0.144
   54SOL    HW2  246   1.611   4.657   0.201
   54SOL    HW3  247   1.511   4.758   0.150
   54SOL    MW4  248   1.542   4.677   0.152
   55SOL     OW  249   0.696   1.624   0.289
   55SOL    HW2  250   0.684   1.531   0.308
   55SOL    HW3  251   0.769   1.650   0.346
   55SOL    MW4  252   0.704   1.615   0.299
   56SOL     OW  253   0.664   1.269   0.387
   56SOL    HW2  254   0.594   1.215   0.351
   56SOL    HW3  255   0.744   1.228   0.357
   56SOL    MW4  256   0.665   1.256   0.378
   57SOL     OW  257   1.473   1.406   0.257
   57SOL    HW2  258   1.458   1.312   0.269
   57SOL    HW3  259   1.425   1.428   0.178
   57SOL    MW4  260   1.464   1.397   0.248
   58SOL     OW  261   0.905   1.100   0.324
   58SOL    HW2  262   1.000   1.100   0.325
   58SOL    HW3  263   0.880   1.025   0.379
   58SOL    MW4  264   0.914   1.090   0.332
   59SOL     OW  265   1.083   1.456   0.521
   59SOL    HW2  266   1.139   1.509   0.464
   59SOL    HW3  267   0.994   1.490   0.506
   59SOL    MW4  268   1.078   1.468   0.512
   60SOL     OW  269   4.350   2.307   0.410
   60SOL    HW2  270   4.274   2.309   0.467
   60SOL    HW3  271   4.386   2.396   0.415
   60SOL    MW4  272   4.345   2.319   0.418
   61SOL     OW  273   4.485   1.879   0.348
   61SOL    HW2  274   4.500   1.792   0.384
   61SOL    HW3  275   4.541   1.883   0.271
   61SOL    MW4  276   4.495   1.868   0.342
   62SOL     OW  277   0.844   2.025   0.565
   62SOL    HW2  278   0.791   2.020   0.644
   62SOL    HW3  279   0.933   2.007   0.594
   62SOL    MW4  280   0.849   2.022   0.579
   63SOL     OW  281   0.817   1.895   0.246
   63SOL    HW2  282   0.768   1.825   0.203
   63SOL    HW3  283   0.908   1.864   0.247
   63SOL    MW4  284   0.822   1.882   0.240
   64SOL     OW  285   0.963   2.179   0.337
   64SOL    HW2  286   0.997   2.252   0.286
   64SOL    HW3  287   1.041   2.137   0.373
   64SOL    MW4  288   0.978   2.183   0.335
   65SOL     OW  289   0.808   2.780   0.328
   65SOL    HW2  290   0.739   2.804   0.390
   65SOL    HW3  291   0.772   2.800   0.242
   65SOL    MW4  292   0.794   2.786   0.325
   66SOL     OW  293   0.588   2.842   0.490
   66SOL    HW2  294   0.546   2.927   0.503
   66SOL    HW3  295   0.606   2.809   0.578
   66SOL    MW4  296   0.585   2.849   0.503
   67SOL     OW  297   0.844   3.293   0.423
   67SOL    HW2  298   0.849   3.227   0.492
   67SOL    HW3  299   0.849   3.377   0.469
   67SOL    MW4  300   0.845   3.295   0.438
   68SOL     OW  301   2.040   2.987   0.365
   68SOL    HW2  302   2.111   3.040   0.401
   68SOL    HW3  303   2.054   2.990   0.270
   68SOL    MW4  304   2.051   2.994   0.357
   69SOL     OW  305   0.946   4.065   0.484
   69SOL    HW2  306   0.860   4.077   0.444
   69SOL    HW3  307   0.928   4.046   0.576
   69SOL    MW4  308   0.932   4.064   0.491
   70SOL     OW  309   0.647   4.044   0.475
   70SOL    HW2  310   0.596   4.042   0.557
   70SOL    HW3  311   0.664   4.137   0.460
   70SOL    MW4  312   0.642   4.056   0.484
   71SOL     OW  313   1.123   4.318   0.497
   71SOL    HW2  314   1.062   4.245   0.499
   71SOL    HW3  315   1.122   4.353   0.587
   71SOL    MW4  316   1.115   4.313   0.509
   72SOL     OW  317   1.154   0.479   0.458
   72SOL    HW2  318   1.130   0.405   0.403
   72SOL    HW3  319   1.239   0.508   0.423
   72SOL    MW4  320   1.162   0.473   0.446
   73SOL     OW  321   0.969   0.097   0.436
   73SOL    HW2  322   1.017   0.015   0.427
   73SOL    HW3  323   0.963   0.112   0.531
   73SOL    MW4  324   0.974   0.088   0.447
   74SOL     OW  325   1.386   0.231   0.218
   74SOL    HW2  326   1.294   0.203   0.215
   74SOL    HW3  327   1.382   0.324   0.240
   74SOL    MW4  328   1.373   0.240   0.221
   75SOL     OW  329   2.008   4.564   0.418
   75SOL    HW2  330   2.040   4.476   0.398
   75SOL    HW3  331   1.920   4.567   0.382
   75SOL    MW4  332   2.001   4.553   0.411
   76SOL     OW  333   1.093   0.279   0.264
   76SOL    HW2  334   1.049   0.228   0.332
   76SOL    HW3  335   1.022   0.318   0.214
   76SOL    MW4  336   1.078   0.277   0.266
   77SOL     OW  337   2.109   0.261   0.363
   77SOL    HW2  338   2.061   0.344   0.363
   77SOL    HW3  339   2.064   0.208   0.297
   77SOL    MW4  340   2.097   0.265   0.354
   78SOL     OW  341   2.413   1.014   0.314
   78SOL    HW2  342   2.407   1.047   0.224
   78SOL    HW3  343   2.322   1.005   0.343
   78SOL    MW4  344   2.400   1.017   0.306
   79SOL     OW  345   1.669   1.194   0.434
   79SOL    HW2  346   1.577   1.181   0.412
   79SOL    HW3  347   1.702   1.253   0.367
   79SOL    MW4  348   1.661   1.200   0.422
   80SOL     OW  349   1.702   0.915   0.468
   80SOL    HW2  350   1.730   0.895   0.557
   80SOL    HW3  351   1.700   1.010   0.464
   80SOL    MW4  352   1.705   0.925   0.479
   81SOL     OW  353   1.410   1.138   0.351
   81SOL    HW2  354   1.322   1.158   0.382
   81SOL    HW3  355   1.416   1.043   0.354
   81SOL    MW4  356   1.400   1.128   0.356
   82SOL     OW  357   1.882   1.872   0.547
   82SOL    HW2  358   1.826   1.890   0.622
   82SOL    HW3  359   1.930   1.954   0.532
   82SOL    MW4  360   1.881   1.885   0.555
   83SOL     OW  361   1.104   2.548   0.495
   83SOL    HW2  362   1.182   2.536   0.441
   83SOL    HW3  363   1.122   2.500   0.575
   83SOL    MW4  364   1.117   2.540   0.498
   84SOL     OW  365   1.390   2.461   0.449
   84SOL    HW2  366   1.437   2.540   0.425
   84SOL    HW3  367   1.448   2.389   0.423
   84SOL    MW4  368   1.404   2.462   0.442
   85SOL     OW  369   2.218   1.893   0.287
   85SOL    HW2  370   2.223   1.981   0.327
   85SOL    HW3  371   2.273   1.899   0.209
   85SOL    MW4  372   2.226   1.906   0.282
   86SOL     OW  373   1.608   2.253   0.362
   86SOL    HW2  374   1.686   2.274   0.414
   86SOL    HW3  375   1.622   2.298   0.278
   86SOL    MW4  376   1.620   2.262   0.357
   87SOL     OW  377   0.897   1.674   0.466
   87SOL    HW2  378   0.915   1.695   0.558
   87SOL    HW3  379   0.961   1.725   0.417
   87SOL    MW4  380   0.908   1.684   0.472
   88SOL     OW  381   1.176   3.240   0.355
   88SOL    HW2  382   1.216   3.327   0.360
   88SOL    HW3  383   1.092   3.249   0.401
   88SOL    MW4  384   1.170   3.253   0.362
   89SOL     OW  385   2.039   2.108   0.542
   89SOL    HW2  386   2.041   2.115   0.638
   89SOL    HW3  387   2.131   2.113   0.516
   89SOL    MW4  388   2.051   2.109   0.552
   90SOL     OW  389   1.934   0.484   0.442
   90SOL    HW2  390   1.941   0.554   0.377
   90SOL    HW3  391   1.839   0.475   0.457
   90SOL    MW4  392   1.922   0.492   0.436
   91SOL     OW  393   1.071   3.832   0.344
   91SOL    HW2  394   1.102   3.766   0.406
   91SOL    HW3  395   1.046   3.907   0.398
   91SOL    MW4  396   1.072   3.833   0.359
   92SOL     OW  397   2.073   2.517   0.491
   92SOL    HW2  398   2.029   2.600   0.477
   92SOL    HW3  399   2.114   2.526   0.578
   92SOL    MW4  400   2.073   2.529   0.501
   93SOL     OW  401   1.339   3.953   0.424
   93SOL    HW2  402   1.272   3.903   0.377
   93SOL    HW3  403   1.354   4.030   0.370
   93SOL    MW4  404   1.332   3.956   0.411
   94SOL     OW  405   1.675   2.848   0.543
   94SOL    HW2  406   1.756   2.796   0.542
   94SOL    HW3  407   1.636   2.831   0.628
   94SOL    MW4  408   1.681   2.839   0.554
   95SOL     OW  409   2.154   4.005   0.472
   95SOL    HW2  410   2.100   3.936   0.433
   95SOL    HW3  411   2.238   3.998   0.428
   95SOL    MW4  412   2.158   3.995   0.461
   96SOL     OW  413   0.835   3.721   0.267
   96SOL    HW2  414   0.847   3.671   0.187
   96SOL    HW3  415   0.915   3.774   0.274
   96SOL    MW4  416   0.847   3.722   0.257
   97SOL     OW  417   1.745   4.611   0.320
   97SOL    HW2  418   1.732   4.689   0.373
   97SOL    HW3  419   1.693   4.543   0.363
   97SOL    MW4  420   1.736   4.612   0.332
   98SOL     OW  421   1.989   4.663   0.795
   98SOL    HW2  422   1.992   4.572   0.765
   98SOL    HW3  423   2.025   4.713   0.722
   98SOL    MW4  424   1.994   4.657   0.782
   99SOL     OW  425   2.624   4.364   0.279
   99SOL    HW2  426   2.659   4.354   0.367
   99SOL    HW3  427   2.645   4.454   0.255
   99SOL    MW4  428   2.632   4.374   0.287
  100SOL     OW  429   1.337   4.238   0.340
  100SOL    HW2  430   1.272   4.250   0.409
  100SOL    HW3  431   1.327   4.315   0.284
  100SOL    MW4  432   1.327   4.250   0.342
  101SOL     OW  433   2.405   0.265   0.336
  101SOL    HW2  434   2.310   0.278   0.337
  101SOL    HW3  435   2.441   0.354   0.326
  101SOL    MW4  436   2.398   0.279   0.335
  102SOL     OW  437   1.624   1.843   0.414
  102SOL    HW2  438   1.712   1.875   0.436
  102SOL    HW3  439   1.633   1.747   0.416
  102SOL    MW4  440   1.637   1.834   0.417
  103SOL     OW  441   2.002   1.233   0.444
  103SOL    HW2  442   1.933   1.249   0.380
  103SOL    HW3  443   2.057   1.311   0.441
  103SOL    MW4  444   2.000   1.245   0.436
  104SOL     OW  445   2.525   1.221   0.471
  104SOL    HW2  446   2.620   1.214   0.481
  104SOL    HW3  447   2.499   1.139   0.430
  104SOL    MW4  448   2.534   1.210   0.467
  105SOL     OW  449   2.579   1.720   0.453
  105SOL    HW2  450   2.520   1.649   0.429
  105SOL    HW3  451   2.603   1.703   0.544
  105SOL    MW4  452   2.574   1.709   0.461
  106SOL     OW  453   1.657   1.564   0.381
  106SOL    HW2  454   1.592   1.519   0.326
  106SOL    HW3  455   1.628   1.545   0.471
  106SOL    MW4  456   1.644   1.555   0.386
  107SOL     OW  457   1.287   1.605   0.404
  107SOL    HW2  458   1.354   1.538   0.386
  107SOL    HW3  459   1.298   1.623   0.498
  107SOL    MW4  460   1.298   1.598   0.414
  108SOL     OW  461   2.293   2.111   0.454
  108SOL    HW2  462   2.291   2.201   0.421
  108SOL    HW3  463   2.385   2.095   0.476
  108SOL    MW4  464   2.305   2.121   0.453
  109SOL     OW  465   1.774   3.085   0.467
  109SOL    HW2  466   1.731   3.008   0.505
  109SOL    HW3  467   1.839   3.048   0.407
  109SOL    MW4  468   1.777   3.070   0.464
  110SOL     OW  469   1.037   2.807   0.494
  110SOL    HW2  470   1.059   2.714   0.493
  110SOL    HW3  471   0.958   2.813   0.439
  110SOL    MW4  472   1.029   2.795   0.486
  111SOL     OW  473   1.496   3.211   0.461
  111SOL    HW2  474   1.590   3.202   0.476
  111SOL    HW3  475   1.471   3.129   0.417
  111SOL    MW4  476   1.506   3.199   0.457
  112SOL     OW  477   1.083   1.811   0.336
  112SOL    HW2  478   1.156   1.749   0.342
  112SOL    HW3  479   1.109   1.884   0.392
  112SOL    MW4  480   1.096   1.813   0.344
  113SOL     OW  481   3.725   1.437   0.472
  113SOL    HW2  482   3.640   1.431   0.428
  113SOL    HW3  483   3.703   1.461   0.562
  113SOL    MW4  484   3.711   1.440   0.478
  114SOL     OW  485   1.863   2.337   0.543
  114SOL    HW2  486   1.921   2.261   0.550
  114SOL    HW3  487   1.920   2.410   0.519
  114SOL    MW4  488   1.878   2.336   0.541
  115SOL     OW  489   1.444   2.063   0.468
  115SOL    HW2  490   1.493   2.134   0.426
  115SOL    HW3  491   1.482   1.983   0.432
  115SOL    MW4  492   1.455   2.062   0.458
  116SOL     OW  493   1.355   3.454   0.414
  116SOL    HW2  494   1.414   3.529   0.405
  116SOL    HW3  495   1.414   3.381   0.433
  116SOL    MW4  496   1.371   3.454   0.415
  117SOL     OW  497   2.496   3.481   0.310
  117SOL    HW2  498   2.468   3.475   0.218
  117SOL    HW3  499   2.414   3.485   0.359
  117SOL    MW4  500   2.481   3.481   0.304
  118SOL     OW  501   1.591   4.372   0.433
  118SOL    HW2  502   1.579   4.387   0.527
  118SOL    HW3  503   1.509   4.331   0.405
  118SOL    MW4  504   1.578   4.368   0.442
  119SOL     OW  505   1.527   3.700   0.458
  119SOL    HW2  506   1.462   3.770   0.461
  119SOL    HW3  507   1.610   3.745   0.444
  119SOL    MW4  508   1.529   3.715   0.457
  120SOL     OW  509   1.325   4.490   0.184
  120SOL    HW2  510   1.395   4.553   0.168
  120SOL    HW3  511   1.310   4.449   0.099
  120SOL    MW4  512   1.332   4.493   0.171
  121SOL     OW  513   1.377   0.084   0.456
  121SOL    HW2  514   1.366   0.146   0.384
  121SOL    HW3  515   1.304   0.023   0.447
  121SOL    MW4  516   1.366   0.084   0.445
  122SOL     OW  517   2.343   4.600   0.613
  122SOL    HW2  518   2.416   4.646   0.573
  122SOL    HW3  519   2.265   4.650   0.587
  122SOL    MW4  520   2.342   4.612   0.604
  123SOL     OW  521   2.126   0.081   0.574
  123SOL    HW2  522   2.116   0.160   0.521
  123SOL    HW3  523   2.088   0.012   0.521
  123SOL    MW4  524   2.120   0.083   0.560
  124SOL     OW  525   2.446   1.476   0.354
  124SOL    HW2  526   2.484   1.398   0.394
  124SOL    HW3  527   2.516   1.510   0.297
  124SOL    MW4  528   2.461   1.470   0.351
  125SOL     OW  529   2.802   0.428   0.410
  125SOL    HW2  530   2.850   0.400   0.332
  125SOL    HW3  531   2.861   0.490   0.453
  125SOL    MW4  532   2.816   0.433   0.405
  126SOL     OW  533   2.130   0.959   0.405
  126SOL    HW2  534   2.075   1.036   0.418
  126SOL    HW3  535   2.068   0.890   0.379
  126SOL    MW4  536   2.114   0.960   0.403
  127SOL     OW  537   2.817   1.230   0.519
  127SOL    HW2  538   2.897   1.202   0.474
  127SOL    HW3  539   2.848   1.264   0.603
  127SOL    MW4  540   2.832   1.231   0.524
  128SOL     OW  541   2.858   1.808   0.451
  128SOL    HW2  542   2.769   1.775   0.439
  128SOL    HW3  543   2.866   1.821   0.546
  128SOL    MW4  544   2.847   1.806   0.462
  129SOL     OW  545   3.235   1.970   0.377
  129SOL    HW2  546   3.197   2.010   0.455
  129SOL    HW3  547   3.330   1.974   0.391
  129SOL    MW4  548   3.243   1.976   0.389
  130SOL     OW  549   2.904   4.566   0.420
  130SOL    HW2  550   2.950   4.644   0.450
  130SOL    HW3  551   2.972   4.498   0.418
  130SOL    MW4  552   2.919   4.567   0.424
  131SOL     OW  553   2.105   1.717   0.488
  131SOL    HW2  554   2.027   1.766   0.515
  131SOL    HW3  555   2.150   1.774   0.427
  131SOL    MW4  556   2.100   1.731   0.483
  132SOL     OW  557   1.557   1.533   0.644
  132SOL    HW2  558   1.626   1.561   0.705
  132SOL    HW3  559   1.479   1.581   0.673
  132SOL    MW4  560   1.555   1.543   0.656
  133SOL     OW  561   2.560   1.985   0.520
  133SOL    HW2  562   2.546   1.903   0.473
  133SOL    HW3  563   2.637   2.024   0.479
  133SOL    MW4  564   2.568   1.980   0.508
  134SOL     OW  565   2.792   2.153   0.500
  134SOL    HW2  566   2.850   2.118   0.433
  134SOL    HW3  567   2.834   2.130   0.583
  134SOL    MW4  568   2.805   2.146   0.502
  135SOL     OW  569   2.500   2.549   0.463
  135SOL    HW2  570   2.586   2.510   0.448
  135SOL    HW3  571   2.463   2.499   0.536
  135SOL    MW4  572   2.506   2.537   0.470
  136SOL     OW  573   1.468   2.731   0.414
  136SOL    HW2  574   1.542   2.761   0.466
  136SOL    HW3  575   1.410   2.807   0.408
  136SOL    MW4  576   1.470   2.745   0.420
  137SOL     OW  577   1.272   2.971   0.389
  137SOL    HW2  578   1.198   2.932   0.436
  137SOL    HW3  579   1.235   3.051   0.350
  137SOL    MW4  580   1.258   2.977   0.390
  138SOL     OW  581   2.009   3.767   0.434
  138SOL    HW2  582   2.032   3.694   0.376
  138SOL    HW3  583   2.003   3.727   0.521
  138SOL    MW4  584   2.011   3.752   0.438
  139SOL     OW  585   2.413   3.995   0.383
  139SOL    HW2  586   2.430   3.902   0.397
  139SOL    HW3  587   2.461   4.017   0.304
  139SOL    MW4  588   2.421   3.986   0.375
  140SOL     OW  589   1.752   3.896   0.461
  140SOL    HW2  590   1.749   3.985   0.425
  140SOL    HW3  591   1.839   3.863   0.438
  140SOL    MW4  592   1.763   3.903   0.453
  141SOL     OW  593   2.234   3.449   0.426
  141SOL    HW2  594   2.188   3.465   0.508
  141SOL    HW3  595   2.234   3.354   0.417
  141SOL    MW4  596   2.228   3.438   0.435
  142SOL     OW  597   2.359   4.400   0.434
  142SOL    HW2  598   2.396   4.459   0.368
  142SOL    HW3  599   2.358   4.451   0.514
  142SOL    MW4  600   2.364   4.414   0.436
  143SOL     OW  601   2.097   4.299   0.481
  143SOL    HW2  602   2.095   4.203   0.484
  143SOL    HW3  603   2.188   4.320   0.459
  143SOL    MW4  604   2.109   4.289   0.478
  144SOL     OW  605   3.013   0.129   0.523
  144SOL    HW2  606   2.932   0.168   0.557
  144SOL    HW3  607   3.056   0.092   0.601
  144SOL    MW4  608   3.008   0.129   0.538
  145SOL     OW  609   2.533   3.761   0.438
  145SOL    HW2  610   2.517   3.738   0.529
  145SOL    HW3  611   2.541   3.677   0.393
  145SOL    MW4  612   2.532   3.747   0.444
  146SOL     OW  613   2.547   4.199   0.501
  146SOL    HW2  614   2.495   4.274   0.471
  146SOL    HW3  615   2.500   4.123   0.467
  146SOL    MW4  616   2.534   4.199   0.493
  147SOL     OW  617   2.533   0.065   0.473
  147SOL    HW2  618   2.481   0.129   0.424
  147SOL    HW3  619   2.600   0.118   0.517
  147SOL    MW4  620   2.535   0.081   0.472
  148SOL     OW  621   1.643   0.440   0.492
  148SOL    HW2  622   1.653   0.345   0.495
  148SOL    HW3  623   1.613   0.465   0.580
  148SOL    MW4  624   1.640   0.431   0.504
  149SOL     OW  625   3.023   0.577   0.516
  149SOL    HW2  626   3.031   0.668   0.546
  149SOL    HW3  627   3.093   0.566   0.452
  149SOL    MW4  628   3.033   0.588   0.511
  150SOL     OW  629   2.142   1.471   0.336
  150SOL    HW2  630   2.233   1.447   0.355
  150SOL    HW3  631   2.131   1.555   0.380
  150SOL    MW4  632   2.153   1.479   0.345
  151SOL     OW  633   2.531   0.514   0.375
  151SOL    HW2  634   2.534   0.608   0.392
  151SOL    HW3  635   2.623   0.487   0.379
  151SOL    MW4  636   2.544   0.523   0.378
  152SOL     OW  637   3.127   1.718   0.429
  152SOL    HW2  638   3.033   1.729   0.412
  152SOL    HW3  639   3.166   1.800   0.400
  152SOL    MW4  640   3.120   1.730   0.423
  153SOL     OW  641   3.454   0.942   0.453
  153SOL    HW2  642   3.540   0.957   0.414
  153SOL    HW3  643   3.471   0.935   0.547
  153SOL    MW4  644   3.468   0.943   0.460
  154SOL     OW  645   3.794   1.896   0.355
  154SOL    HW2  646   3.808   1.976   0.305
  154SOL    HW3  647   3.798   1.922   0.447
  154SOL    MW4  648   3.796   1.910   0.360
  155SOL     OW  649   2.745   0.224   0.574
  155SOL    HW2  650   2.759   0.298   0.515
  155SOL    HW3  651   2.715   0.263   0.655
  155SOL    MW4  652   2.743   0.239   0.577
  156SOL     OW  653   3.133   2.056   0.634
  156SOL    HW2  654   3.050   2.066   0.681
  156SOL    HW3  655   3.189   2.008   0.694
  156SOL    MW4  656   3.129   2.051   0.648
  157SOL     OW  657   2.754   2.425   0.514
  157SOL    HW2  658   2.838   2.470   0.511
  157SOL    HW3  659   2.776   2.332   0.506
  157SOL    MW4  660   2.768   2.419   0.513
  158SOL     OW  661   2.966   2.021   0.330
  158SOL    HW2  662   3.061   2.003   0.329
  158SOL    HW3  663   2.927   1.938   0.355
  158SOL    MW4  664   2.974   2.008   0.333
  159SOL     OW  665   2.291   2.357   0.359
  159SOL    HW2  666   2.222   2.417   0.390
  159SOL    HW3  667   2.360   2.415   0.327
  159SOL    MW4  668   2.291   2.373   0.359
  160SOL     OW  669   2.546   2.820   0.463
  160SOL    HW2  670   2.535   2.728   0.437
  160SOL    HW3  671   2.492   2.829   0.542
  160SOL    MW4  672   2.537   2.809   0.470
  161SOL     OW  673   3.124   3.186   0.473
  161SOL    HW2  674   3.094   3.100   0.442
  161SOL    HW3  675   3.115   3.181   0.568
  161SOL    MW4  676   3.119   3.174   0.481
  162SOL     OW  677   3.430   3.221   0.548
  162SOL    HW2  678   3.444   3.147   0.607
  162SOL    HW3  679   3.345   3.204   0.508
  162SOL    MW4  680   3.421   3.209   0.551
  163SOL     OW  681   2.221   3.167   0.460
  163SOL    HW2  682   2.309   3.142   0.432
  163SOL    HW3  683   2.229   3.180   0.555
  163SOL    MW4  684   2.233   3.165   0.469
  164SOL     OW  685   1.786   4.181   0.430
  164SOL    HW2  686   1.719   4.249   0.444
  164SOL    HW3  687   1.869   4.229   0.431
  164SOL    MW4  688   1.788   4.197   0.432
  165SOL     OW  689   3.359   4.075   0.399
  165SOL    HW2  690   3.267   4.069   0.374
  165SOL    HW3  691   3.368   4.010   0.469
  165SOL    MW4  692   3.348   4.065   0.405
  166SOL     OW  693   2.940   3.387   0.408
  166SOL    HW2  694   2.857   3.340   0.394
  166SOL    HW3  695   3.004   3.319   0.426
  166SOL    MW4  696   2.937   3.372   0.409
  167SOL     OW  697   2.686   3.279   0.416
  167SOL    HW2  698   2.691   3.285   0.511
  167SOL    HW3  699   2.640   3.359   0.389
  167SOL    MW4  700   2.681   3.291   0.425
  168SOL     OW  701   3.763   4.214   0.628
  168SOL    HW2  702   3.807   4.132   0.648
  168SOL    HW3  703   3.751   4.213   0.533
  168SOL    MW4  704   3.767   4.203   0.618
  169SOL     OW  705   3.104   4.106   0.316
  169SOL    HW2  706   3.101   4.202   0.324
  169SOL    HW3  707   3.015   4.081   0.292
  169SOL    MW4  708   3.091   4.116   0.314
  170SOL     OW  709   3.265   0.295   0.521
  170SOL    HW2  710   3.185   0.243   0.515
  170SOL    HW3  711   3.336   0.231   0.519
  170SOL    MW4  712   3.264   0.280   0.520
  171SOL     OW  713   2.698   4.649   0.242
  171SOL    HW2  714   2.644   4.685   0.312
  171SOL    HW3  715   2.774   4.611   0.287
  171SOL    MW4  716   2.701   4.649   0.257
  172SOL     OW  717   2.812   4.067   0.313
  172SOL    HW2  718   2.797   3.987   0.363
  172SOL    HW3  719   2.739   4.070   0.251
  172SOL    MW4  720   2.800   4.057   0.311
  173SOL     OW  721   2.806   0.157   0.059
  173SOL    HW2  722   2.842   0.086   0.006
  173SOL    HW3  723   2.773   0.114   0.138
  173SOL    MW4  724   2.806   0.142   0.063
  174SOL     OW  725   2.766   0.927   0.542
  174SOL    HW2  726   2.834   0.912   0.606
  174SOL    HW3  727   2.772   1.021   0.522
  174SOL    MW4  728   2.776   0.938   0.548
  175SOL     OW  729   3.473   1.379   0.340
  175SOL    HW2  730   3.423   1.459   0.323
  175SOL    HW3  731   3.424   1.335   0.410
  175SOL    MW4  732   3.460   1.384   0.347
  176SOL     OW  733   3.510   0.622   0.404
  176SOL    HW2  734   3.425   0.596   0.370
  176SOL    HW3  735   3.503   0.716   0.419
  176SOL    MW4  736   3.498   0.631   0.401
  177SOL     OW  737   3.181   0.824   0.468
  177SOL    HW2  738   3.153   0.791   0.382
  177SOL    HW3  739   3.271   0.852   0.455
  177SOL    MW4  740   3.189   0.823   0.455
  178SOL     OW  741   3.564   1.825   0.672
  178SOL    HW2  742   3.524   1.859   0.592
  178SOL    HW3  743   3.536   1.886   0.741
  178SOL    MW4  744   3.555   1.838   0.671
  179SOL     OW  745   3.494   1.878   0.417
  179SOL    HW2  746   3.451   1.804   0.376
  179SOL    HW3  747   3.582   1.878   0.381
  179SOL    MW4  748   3.500   1.868   0.407
  180SOL     OW  749   3.303   1.196   0.474
  180SOL    HW2  750   3.349   1.112   0.469
  180SOL    HW3  751   3.292   1.211   0.568
  180SOL    MW4  752   3.307   1.187   0.486
  181SOL     OW  753   3.893   1.629   0.328
  181SOL    HW2  754   3.822   1.581   0.370
  181SOL    HW3  755   3.862   1.719   0.325
  181SOL    MW4  756   3.880   1.634   0.333
  182SOL     OW  757   3.313   2.281   0.637
  182SOL    HW2  758   3.251   2.209   0.635
  182SOL    HW3  759   3.341   2.286   0.728
  182SOL    MW4  760   3.308   2.273   0.648
  183SOL     OW  761   3.476   2.696   0.628
  183SOL    HW2  762   3.536   2.692   0.702
  183SOL    HW3  763   3.464   2.605   0.601
  183SOL    MW4  764   3.482   2.684   0.634
  184SOL     OW  765   1.937   2.761   0.487
  184SOL    HW2  766   1.950   2.791   0.577
  184SOL    HW3  767   1.986   2.822   0.433
  184SOL    MW4  768   1.945   2.773   0.492
  185SOL     OW  769   3.240   2.656   0.413
  185SOL    HW2  770   3.305   2.698   0.468
  185SOL    HW3  771   3.290   2.620   0.340
  185SOL    MW4  772   3.255   2.657   0.410
  186SOL     OW  773   2.905   2.887   0.771
  186SOL    HW2  774   2.903   2.857   0.680
  186SOL    HW3  775   2.976   2.836   0.811
  186SOL    MW4  776   2.914   2.876   0.764
  187SOL     OW  777   2.542   0.788   0.447
  187SOL    HW2  778   2.626   0.827   0.472
  187SOL    HW3  779   2.495   0.860   0.404
  187SOL    MW4  780   2.547   0.803   0.445
  188SOL     OW  781   2.894   4.179   0.558
  188SOL    HW2  782   2.878   4.132   0.476
  188SOL    HW3  783   2.960   4.127   0.604
  188SOL    MW4  784   2.900   4.166   0.553
  189SOL     OW  785   3.310   3.664   0.479
  189SOL    HW2  786   3.356   3.667   0.395
  189SOL    HW3  787   3.357   3.598   0.530
  189SOL    MW4  788   3.322   3.656   0.475
  190SOL     OW  789   3.851   3.419   0.438
  190SOL    HW2  790   3.939   3.404   0.403
  190SOL    HW3  791   3.863   3.486   0.505
  190SOL    MW4  792   3.864   3.426   0.442
  191SOL     OW  793   3.832   3.287   0.744
  191SOL    HW2  794   3.922   3.254   0.750
  191SOL    HW3  795   3.804   3.264   0.656
  191SOL    MW4  796   3.840   3.280   0.734
  192SOL     OW  797   2.798   3.849   0.492
  192SOL    HW2  798   2.857   3.774   0.498
  192SOL    HW3  799   2.711   3.811   0.489
  192SOL    MW4  800   2.795   3.834   0.493
  193SOL     OW  801   2.463   3.093   0.362
  193SOL    HW2  802   2.507   3.009   0.375
  193SOL    HW3  803   2.532   3.158   0.375
  193SOL    MW4  804   2.478   3.090   0.365
  194SOL     OW  805   4.199   0.023   0.352
  194SOL    HW2  806   4.246  -0.059   0.338
  194SOL    HW3  807   4.248   0.088   0.302
  194SOL    MW4  808   4.212   0.021   0.344
  195SOL     OW  809   3.736   0.268   0.418
  195SOL    HW2  810   3.820   0.233   0.449
  195SOL    HW3  811   3.753   0.361   0.401
  195SOL    MW4  812   3.749   0.276   0.420
  196SOL     OW  813   2.979   0.290   0.232
  196SOL    HW2  814   3.014   0.215   0.281
  196SOL    HW3  815   2.927   0.251   0.162
  196SOL    MW4  816   2.976   0.275   0.229
  197SOL     OW  817   3.207   0.495   0.330
  197SOL    HW2  818   3.255   0.419   0.362
  197SOL    HW3  819   3.137   0.459   0.276
  197SOL    MW4  820   3.204   0.480   0.327
  198SOL     OW  821   4.124   0.442   0.439
  198SOL    HW2  822   4.193   0.405   0.385
  198SOL    HW3  823   4.068   0.490   0.377
  198SOL    MW4  824   4.126   0.444   0.424
  199SOL     OW  825   4.394   0.806   0.449
  199SOL    HW2  826   4.301   0.795   0.428
  199SOL    HW3  827   4.428   0.717   0.453
  199SOL    MW4  828   4.386   0.793   0.447
  200SOL     OW  829   3.849   0.794   0.309
  200SOL    HW2  830   3.942   0.785   0.327
  200SOL    HW3  831   3.809   0.716   0.347
  200SOL    MW4  832   3.856   0.783   0.316
  201SOL     OW  833   4.085   1.042   0.487
  201SOL    HW2  834   4.164   1.096   0.493
  201SOL    HW3  835   4.016   1.103   0.461
  201SOL    MW4  836   4.086   1.057   0.484
  202SOL     OW  837   3.849   1.194   0.491
  202SOL    HW2  838   3.785   1.130   0.462
  202SOL    HW3  839   3.816   1.278   0.458
  202SOL    MW4  840   3.836   1.197   0.483
  203SOL     OW  841   3.371   1.660   0.323
  203SOL    HW2  842   3.285   1.661   0.365
  203SOL    HW3  843   3.352   1.658   0.229
  203SOL    MW4  844   3.357   1.660   0.316
  204SOL     OW  845   3.037   1.062   0.437
  204SOL    HW2  846   3.054   0.974   0.471
  204SOL    HW3  847   3.121   1.108   0.447
  204SOL    MW4  848   3.050   1.056   0.443
  205SOL     OW  849   3.703   2.360   0.389
  205SOL    HW2  850   3.735   2.289   0.333
  205SOL    HW3  851   3.710   2.326   0.478
  205SOL    MW4  852   3.708   2.346   0.393
  206SOL     OW  853   4.127   2.980   0.386
  206SOL    HW2  854   4.178   2.899   0.388
  206SOL    HW3  855   4.054   2.964   0.447
  206SOL    MW4  856   4.124   2.967   0.395
  207SOL     OW  857   2.987   2.573   0.530
  207SOL    HW2  858   3.025   2.542   0.612
  207SOL    HW3  859   3.062   2.596   0.476
  207SOL    MW4  860   3.002   2.572   0.534
  208SOL     OW  861   2.980   3.636   0.511
  208SOL    HW2  862   3.067   3.647   0.472
  208SOL    HW3  863   2.956   3.546   0.488
  208SOL    MW4  864   2.988   3.626   0.503
  209SOL     OW  865   3.102   2.907   0.452
  209SOL    HW2  866   3.135   2.825   0.416
  209SOL    HW3  867   3.011   2.890   0.473
  209SOL    MW4  868   3.095   2.894   0.450
  210SOL     OW  869   3.860   2.918   0.520
  210SOL    HW2  870   3.806   2.854   0.473
  210SOL    HW3  871   3.812   3.001   0.512
  210SOL    MW4  872   3.847   2.921   0.513
  211SOL     OW  873   3.720   2.645   0.461
  211SOL    HW2  874   3.732   2.556   0.429
  211SOL    HW3  875   3.629   2.649   0.489
  211SOL    MW4  876   3.710   2.634   0.460
  212SOL     OW  877   3.861   4.066   0.315
  212SOL    HW2  878   3.879   3.991   0.373
  212SOL    HW3  879   3.908   4.045   0.234
  212SOL    MW4  880   3.870   4.053   0.312
  213SOL     OW  881   3.461   2.449   0.477
  213SOL    HW2  882   3.419   2.376   0.521
  213SOL    HW3  883   3.548   2.417   0.454
  213SOL    MW4  884   3.467   2.435   0.480
  214SOL     OW  885   3.341   3.893   0.619
  214SOL    HW2  886   3.400   3.892   0.694
  214SOL    HW3  887   3.343   3.804   0.585
  214SOL    MW4  888   3.349   3.881   0.624
  215SOL     OW  889   4.296   3.950   0.712
  215SOL    HW2  890   4.251   3.921   0.792
  215SOL    HW3  891   4.259   4.036   0.694
  215SOL    MW4  892   4.285   3.957   0.720
  216SOL     OW  893   3.617   4.213   0.360
  216SOL    HW2  894   3.675   4.155   0.310
  216SOL    HW3  895   3.529   4.181   0.341
  216SOL    MW4  896   3.613   4.201   0.351
  217SOL     OW  897   3.594   4.501   0.449
  217SOL    HW2  898   3.632   4.430   0.398
  217SOL    HW3  899   3.667   4.535   0.500
  217SOL    MW4  900   3.609   4.496   0.449
  218SOL     OW  901   0.013   0.094   0.454
  218SOL    HW2  902  -0.031   0.012   0.434
  218SOL    HW3  903   0.009   0.100   0.550
  218SOL    MW4  904   0.007   0.084   0.464
  219SOL     OW  905   4.120   0.773   0.416
  219SOL    HW2  906   4.110   0.720   0.494
  219SOL    HW3  907   4.097   0.862   0.444
  219SOL    MW4  908   4.116   0.778   0.430
  220SOL     OW  909   0.298   2.206   0.372
  220SOL    HW2  910   0.312   2.300   0.359
  220SOL    HW3  911   0.209   2.199   0.406
  220SOL    MW4  912   0.288   2.218   0.374
  221SOL     OW  913   4.356   0.323   0.323
  221SOL    HW2  914   4.391   0.255   0.380
  221SOL    HW3  915   4.414   0.398   0.338
  221SOL    MW4  916   4.368   0.324   0.333
  222SOL     OW  917   4.290   1.241   0.508
  222SOL    HW2  918   4.317   1.325   0.469
  222SOL    HW3  919   4.278   1.261   0.601
  222SOL    MW4  920   4.292   1.255   0.515
  223SOL     OW  921   3.505   0.139   0.487
  223SOL    HW2  922   3.513   0.053   0.446
  223SOL    HW3  923   3.579   0.189   0.454
  223SOL    MW4  924   3.516   0.135   0.477
  224SOL     OW  925   3.698   1.023   0.343
  224SOL    HW2  926   3.746   0.942   0.326
  224SOL    HW3  927   3.680   1.060   0.257
  224SOL    MW4  928   3.702   1.017   0.330
  225SOL     OW  929   0.037   1.094   0.429
  225SOL    HW2  930  -0.043   1.138   0.460
  225SOL    HW3  931   0.020   1.001   0.442
  225SOL    MW4  932   0.024   1.088   0.435
  226SOL     OW  933   4.112   2.183   0.344
  226SOL    HW2  934   4.082   2.251   0.405
  226SOL    HW3  935   4.197   2.213   0.313
  226SOL    MW4  936   4.119   2.196   0.348
  227SOL     OW  937   0.311   1.507   0.464
  227SOL    HW2  938   0.288   1.417   0.443
  227SOL    HW3  939   0.226   1.552   0.475
  227SOL    MW4  940   0.296   1.501   0.463
  228SOL     OW  941   0.851   2.509   0.378
  228SOL    HW2  942   0.930   2.514   0.433
  228SOL    HW3  943   0.845   2.595   0.337
  228SOL    MW4  944   0.861   2.521   0.380
  229SOL     OW  945   4.178   1.916   0.428
  229SOL    HW2  946   4.264   1.902   0.388
  229SOL    HW3  947   4.139   1.986   0.376
  229SOL    MW4  948   4.184   1.923   0.416
  230SOL     OW  949   4.457   2.550   0.478
  230SOL    HW2  950   4.525   2.617   0.466
  230SOL    HW3  951   4.470   2.518   0.568
  230SOL    MW4  952   4.468   2.555   0.488
  231SOL     OW  953   4.348   3.587   0.483
  231SOL    HW2  954   4.428   3.553   0.442
  231SOL    HW3  955   4.280   3.525   0.457
  231SOL    MW4  956   4.350   3.574   0.474
  232SOL     OW  957   4.261   2.748   0.466
  232SOL    HW2  958   4.181   2.696   0.478
  232SOL    HW3  959   4.330   2.684   0.451
  232SOL    MW4  960   4.259   2.733   0.465
  233SOL     OW  961   0.294   3.863   0.342
  233SOL    HW2  962   0.274   3.950   0.377
  233SOL    HW3  963   0.389   3.863   0.331
  233SOL    MW4  964   0.304   3.875   0.345
  234SOL     OW  965   0.094   3.531   0.356
  234SOL    HW2  966   0.072   3.607   0.303
  234SOL    HW3  967   0.167   3.560   0.411
  234SOL    MW4  968   0.100   3.545   0.356
  235SOL     OW  969   0.044   3.243   0.444
  235SOL    HW2  970  -0.034   3.218   0.394
  235SOL    HW3  971   0.067   3.330   0.410
  235SOL    MW4  972   0.037   3.251   0.433
  236SOL     OW  973   3.962   3.874   0.495
  236SOL    HW2  974   3.932   3.790   0.530
  236SOL    HW3  975   4.054   3.860   0.475
  236SOL    MW4  976   3.970   3.861   0.497
  237SOL     OW  977   3.709   3.177   0.510
  237SOL    HW2  978   3.752   3.254   0.473
  237SOL    HW3  979   3.616   3.197   0.508
  237SOL    MW4  980   3.703   3.190   0.505
  238SOL     OW  981   0.153   4.115   0.435
  238SOL    HW2  982   0.134   4.068   0.516
  238SOL    HW3  983   0.083   4.089   0.376
  238SOL    MW4  984   0.141   4.105   0.438
  239SOL     OW  985   4.093   4.228   0.396
  239SOL    HW2  986   4.017   4.177   0.370
  239SOL    HW3  987   4.058   4.317   0.410
  239SOL    MW4  988   4.078   4.233   0.395
  240SOL     OW  989   4.185   4.194   0.653
  240SOL    HW2  990   4.252   4.261   0.655
  240SOL    HW3  991   4.149   4.199   0.564
  240SOL    MW4  992   4.189   4.203   0.642
  241SOL     OW  993   4.031   4.476   0.490
  241SOL    HW2  994   4.068   4.557   0.457
  241SOL    HW3  995   3.971   4.504   0.559
  241SOL    MW4  996   4.028   4.490   0.495
  242SOL     OW  997   0.268   0.002   0.816
  242SOL    HW2  998   0.248  -0.084   0.779
  242SOL    HW3  999   0.191   0.056   0.795
  242SOL    MW4 1000   0.255  -0.002   0.808
  243SOL     OW 1001   0.039   0.138   0.724
  243SOL    HW2 1002  -0.020   0.087   0.781
  243SOL    HW3 1003   0.018   0.229   0.744
  243SOL    MW4 1004   0.028   0.143   0.734
  244SOL     OW 1005   4.458   0.404   0.802
  244SOL    HW2 1006   4.475   0.399   0.896
  244SOL    HW3 1007   4.533   0.452   0.767
  244SOL    MW4 1008   4.470   0.409   0.810
  245SOL     OW 1009   0.211   0.513   0.726
  245SOL    HW2 1010   0.279   0.461   0.768
  245SOL    HW3 1011   0.222   0.601   0.761
  245SOL    MW4 1012   0.222   0.518   0.736
  246SOL     OW 1013   0.251   0.773   0.846
  246SOL    HW2 1014   0.236   0.759   0.939
  246SOL    HW3 1015   0.171   0.816   0.815
  246SOL    MW4 1016   0.238   0.777   0.854
  247SOL     OW 1017   4.471   0.819   0.741
  247SOL    HW2 1018   4.389   0.804   0.788
  247SOL    HW3 1019   4.451   0.794   0.650
  247SOL    MW4 1020   4.457   0.814   0.735
  248SOL     OW 1021   4.485   1.113   0.805
  248SOL    HW2 1022   4.516   1.121   0.895
  248SOL    HW3 1023   4.483   1.019   0.789
  248SOL    MW4 1024   4.489   1.102   0.815
  249SOL     OW 1025   0.237   1.249   0.710
  249SOL    HW2 1026   0.151   1.208   0.716
  249SOL    HW3 1027   0.255   1.253   0.616
  249SOL    MW4 1028   0.228   1.244   0.698
  250SOL     OW 1029   0.221   1.504   0.840
  250SOL    HW2 1030   0.305   1.529   0.803
  250SOL    HW3 1031   0.202   1.418   0.801
  250SOL    MW4 1032   0.229   1.496   0.830
  251SOL     OW 1033   0.017   1.647   0.720
  251SOL    HW2 1034  -0.055   1.591   0.749
  251SOL    HW3 1035   0.095   1.605   0.758
  251SOL    MW4 1036   0.018   1.634   0.729
  252SOL     OW 1037   0.006   1.901   0.830
  252SOL    HW2 1038   0.086   1.939   0.794
  252SOL    HW3 1039   0.011   1.808   0.807
  252SOL    MW4 1040   0.018   1.894   0.822
  253SOL     OW 1041   0.198   2.071   0.719
  253SOL    HW2 1042   0.199   2.163   0.747
  253SOL    HW3 1043   0.154   2.073   0.634
  253SOL    MW4 1044   0.192   2.084   0.711
  254SOL     OW 1045   0.210   2.307   0.856
  254SOL    HW2 1046   0.233   2.295   0.948
  254SOL    HW3 1047   0.286   2.349   0.818
  254SOL    MW4 1048   0.223   2.311   0.863
  255SOL     OW 1049   4.472   2.440   0.771
  255SOL    HW2 1050   4.397   2.380   0.775
  255SOL    HW3 1051   4.544   2.391   0.812
  255SOL    MW4 1052   4.471   2.426   0.777
  256SOL     OW 1053   4.461   2.702   0.867
  256SOL    HW2 1054   4.480   2.701   0.961
  256SOL    HW3 1055   4.463   2.610   0.841
  256SOL    MW4 1056   4.464   2.690   0.876
  257SOL     OW 1057   0.232   2.778   0.725
  257SOL    HW2 1058   0.140   2.754   0.737
  257SOL    HW3 1059   0.244   2.780   0.630
  257SOL    MW4 1060   0.221   2.775   0.714
  258SOL     OW 1061   0.238   3.056   0.816
  258SOL    HW2 1062   0.245   3.059   0.912
  258SOL    HW3 1063   0.255   2.965   0.793
  258SOL    MW4 1064   0.241   3.045   0.826
  259SOL     OW 1065   0.026   3.216   0.740
  259SOL    HW2 1066   0.104   3.161   0.750
  259SOL    HW3 1067   0.022   3.235   0.646
  259SOL    MW4 1068   0.036   3.211   0.729
  260SOL     OW 1069   0.004   3.469   0.857
  260SOL    HW2 1070  -0.075   3.510   0.821
  260SOL    HW3 1071  -0.005   3.376   0.834
  260SOL    MW4 1072  -0.008   3.462   0.849
  261SOL     OW 1073   0.260   3.572   0.772
  261SOL    HW2 1074   0.176   3.531   0.794
  261SOL    HW3 1075   0.254   3.591   0.679
  261SOL    MW4 1076   0.248   3.569   0.763
  262SOL     OW 1077   0.277   3.841   0.850
  262SOL    HW2 1078   0.286   3.845   0.946
  262SOL    HW3 1079   0.279   3.748   0.830
  262SOL    MW4 1080   0.279   3.830   0.860
  263SOL     OW 1081   0.085   4.025   0.709
  263SOL    HW2 1082  -0.004   3.991   0.723
  263SOL    HW3 1083   0.141   3.965   0.756
  263SOL    MW4 1084   0.080   4.013   0.717
  264SOL     OW 1085   0.067   4.268   0.834
  264SOL    HW2 1086   0.064   4.245   0.927
  264SOL    HW3 1087   0.064   4.184   0.788
  264SOL    MW4 1088   0.066   4.254   0.840
  265SOL     OW 1089   0.243   4.423   0.710
  265SOL    HW2 1090   0.178   4.362   0.744
  265SOL    HW3 1091   0.223   4.429   0.616
  265SOL    MW4 1092   0.232   4.416   0.702
  266SOL     OW 1093   0.700   0.006   0.803
  266SOL    HW2 1094   0.692   0.026   0.897
  266SOL    HW3 1095   0.625   0.050   0.763
  266SOL    MW4 1096   0.689   0.015   0.810
  267SOL     OW 1097   0.464   0.130   0.668
  267SOL    HW2 1098   0.399   0.073   0.708
  267SOL    HW3 1099   0.425   0.157   0.585
  267SOL    MW4 1100   0.451   0.126   0.663
  268SOL     OW 1101   0.430   0.371   0.831
  268SOL    HW2 1102   0.514   0.413   0.813
  268SOL    HW3 1103   0.433   0.289   0.782
  268SOL    MW4 1104   0.441   0.366   0.822
  269SOL     OW 1105   0.657   0.519   0.803
  269SOL    HW2 1106   0.737   0.484   0.843
  269SOL    HW3 1107   0.672   0.510   0.709
  269SOL    MW4 1108   0.670   0.513   0.796
  270SOL     OW 1109   0.670   0.787   0.858
  270SOL    HW2 1110   0.601   0.822   0.802
  270SOL    HW3 1111   0.665   0.692   0.846
  270SOL    MW4 1112   0.661   0.779   0.849
  271SOL     OW 1113   0.465   0.899   0.710
  271SOL    HW2 1114   0.465   0.983   0.756
  271SOL    HW3 1115   0.386   0.855   0.741
  271SOL    MW4 1116   0.454   0.904   0.720
  272SOL     OW 1117   0.465   1.163   0.832
  272SOL    HW2 1118   0.532   1.225   0.804
  272SOL    HW3 1119   0.387   1.187   0.782
  272SOL    MW4 1120   0.463   1.174   0.822
  273SOL     OW 1121   0.672   1.308   0.679
  273SOL    HW2 1122   0.685   1.401   0.696
  273SOL    HW3 1123   0.680   1.299   0.584
  273SOL    MW4 1124   0.675   1.319   0.668
  274SOL     OW 1125   0.687   1.557   0.796
  274SOL    HW2 1126   0.692   1.573   0.891
  274SOL    HW3 1127   0.596   1.576   0.774
  274SOL    MW4 1128   0.676   1.562   0.806
  275SOL     OW 1129   0.424   1.611   0.694
  275SOL    HW2 1130   0.420   1.704   0.673
  275SOL    HW3 1131   0.388   1.567   0.617
  275SOL    MW4 1132   0.418   1.618   0.681
  276SOL     OW 1133   0.401   1.888   0.631
  276SOL    HW2 1134   0.325   1.942   0.654
  276SOL    HW3 1135   0.417   1.906   0.539
  276SOL    MW4 1136   0.393   1.897   0.622
  277SOL     OW 1137   0.600   2.013   0.814
  277SOL    HW2 1138   0.567   2.013   0.904
  277SOL    HW3 1139   0.530   1.972   0.763
  277SOL    MW4 1140   0.586   2.008   0.819
  278SOL     OW 1141   0.624   2.234   0.665
  278SOL    HW2 1142   0.692   2.279   0.714
  278SOL    HW3 1143   0.597   2.162   0.721
  278SOL    MW4 1144   0.629   2.230   0.679
  279SOL     OW 1145   0.420   2.406   0.718
  279SOL    HW2 1146   0.482   2.334   0.707
  279SOL    HW3 1147   0.401   2.435   0.628
  279SOL    MW4 1148   0.426   2.401   0.704
  280SOL     OW 1149   0.453   2.652   0.853
  280SOL    HW2 1150   0.467   2.569   0.807
  280SOL    HW3 1151   0.366   2.681   0.823
  280SOL    MW4 1152   0.443   2.645   0.843
  281SOL     OW 1153   0.684   2.785   0.752
  281SOL    HW2 1154   0.759   2.733   0.780
  281SOL    HW3 1155   0.608   2.740   0.788
  281SOL    MW4 1156   0.684   2.772   0.761
  282SOL     OW 1157   0.712   3.055   0.865
  282SOL    HW2 1158   0.626   3.090   0.841
  282SOL    HW3 1159   0.712   2.966   0.829
  282SOL    MW4 1160   0.700   3.048   0.857
  283SOL     OW 1161   0.477   3.186   0.787
  283SOL    HW2 1162   0.475   3.280   0.800
  283SOL    HW3 1163   0.388   3.157   0.806
  283SOL    MW4 1164   0.465   3.194   0.791
  284SOL     OW 1165   0.496   3.464   0.836
  284SOL    HW2 1166   0.506   3.474   0.931
  284SOL    HW3 1167   0.414   3.508   0.816
  284SOL    MW4 1168   0.487   3.471   0.846
  285SOL     OW 1169   0.713   3.597   0.742
  285SOL    HW2 1170   0.638   3.545   0.773
  285SOL    HW3 1171   0.692   3.686   0.770
  285SOL    MW4 1172   0.700   3.602   0.750
  286SOL     OW 1173   0.685   3.859   0.801
  286SOL    HW2 1174   0.770   3.901   0.786
  286SOL    HW3 1175   0.623   3.914   0.753
  286SOL    MW4 1176   0.688   3.872   0.793
  287SOL     OW 1177   0.489   4.031   0.701
  287SOL    HW2 1178   0.487   4.113   0.750
  287SOL    HW3 1179   0.424   3.975   0.744
  287SOL    MW4 1180   0.480   4.034   0.713
  288SOL     OW 1181   0.484   4.282   0.821
  288SOL    HW2 1182   0.478   4.289   0.916
  288SOL    HW3 1183   0.412   4.336   0.788
  288SOL    MW4 1184   0.473   4.290   0.829
  289SOL     OW 1185   0.683   4.422   0.694
  289SOL    HW2 1186   0.617   4.377   0.747
  289SOL    HW3 1187   0.696   4.506   0.738
  289SOL    MW4 1188   0.676   4.427   0.707
  290SOL     OW 1189   1.113   4.648   0.789
  290SOL    HW2 1190   1.192   4.696   0.763
  290SOL    HW3 1191   1.041   4.707   0.769
  290SOL    MW4 1192   1.114   4.662   0.783
  291SOL     OW 1193   0.914   0.144   0.714
  291SOL    HW2 1194   0.923   0.219   0.773
  291SOL    HW3 1195   0.830   0.105   0.737
  291SOL    MW4 1196   0.904   0.149   0.725
  292SOL     OW 1197   0.916   0.386   0.858
  292SOL    HW2 1198   0.922   0.399   0.952
  292SOL    HW3 1199   0.998   0.423   0.824
  292SOL    MW4 1200   0.928   0.393   0.866
  293SOL     OW 1201   1.142   0.490   0.744
  293SOL    HW2 1202   1.201   0.423   0.777
  293SOL    HW3 1203   1.145   0.480   0.648
  293SOL    MW4 1204   1.150   0.480   0.735
  294SOL     OW 1205   1.143   0.763   0.841
  294SOL    HW2 1206   1.166   0.768   0.934
  294SOL    HW3 1207   1.127   0.670   0.826
  294SOL    MW4 1208   1.144   0.751   0.851
  295SOL     OW 1209   0.908   0.884   0.750
  295SOL    HW2 1210   0.987   0.843   0.783
  295SOL    HW3 1211   0.837   0.842   0.798
  295SOL    MW4 1212   0.909   0.873   0.760
  296SOL     OW 1213   0.890   1.153   0.804
  296SOL    HW2 1214   0.895   1.058   0.789
  296SOL    HW3 1215   0.806   1.179   0.767
  296SOL    MW4 1216   0.880   1.144   0.797
  297SOL     OW 1217   1.114   1.306   0.772
  297SOL    HW2 1218   1.034   1.263   0.802
  297SOL    HW3 1219   1.094   1.332   0.682
  297SOL    MW4 1220   1.101   1.304   0.764
  298SOL     OW 1221   1.106   1.568   0.871
  298SOL    HW2 1222   1.026   1.606   0.836
  298SOL    HW3 1223   1.107   1.478   0.837
  298SOL    MW4 1224   1.095   1.561   0.862
  299SOL     OW 1225   0.906   1.706   0.733
  299SOL    HW2 1226   0.914   1.778   0.796
  299SOL    HW3 1227   0.829   1.658   0.761
  299SOL    MW4 1228   0.897   1.709   0.745
  300SOL     OW 1229   0.877   1.946   0.881
  300SOL    HW2 1230   0.898   1.950   0.974
  300SOL    HW3 1231   0.786   1.977   0.876
  300SOL    MW4 1232   0.867   1.951   0.893
  301SOL     OW 1233   1.123   2.035   0.808
  301SOL    HW2 1234   1.101   2.127   0.826
  301SOL    HW3 1235   1.042   1.987   0.825
  301SOL    MW4 1236   1.109   2.041   0.812
  302SOL     OW 1237   1.069   2.300   0.851
  302SOL    HW2 1238   1.080   2.340   0.937
  302SOL    HW3 1239   1.146   2.329   0.802
  302SOL    MW4 1240   1.081   2.309   0.856
  303SOL     OW 1241   0.804   2.346   0.838
  303SOL    HW2 1242   0.897   2.324   0.842
  303SOL    HW3 1243   0.775   2.346   0.929
  303SOL    MW4 1244   0.812   2.343   0.851
  304SOL     OW 1245   0.873   2.628   0.853
  304SOL    HW2 1246   0.863   2.648   0.946
  304SOL    HW3 1247   0.836   2.540   0.843
  304SOL    MW4 1248   0.867   2.619   0.864
  305SOL     OW 1249   1.048   2.846   0.764
  305SOL    HW2 1250   1.000   2.772   0.801
  305SOL    HW3 1251   1.055   2.826   0.671
  305SOL    MW4 1252   1.043   2.833   0.757
  306SOL     OW 1253   1.097   3.158   0.802
  306SOL    HW2 1254   1.013   3.185   0.767
  306SOL    HW3 1255   1.095   3.062   0.799
  306SOL    MW4 1256   1.086   3.149   0.797
  307SOL     OW 1257   0.844   3.251   0.715
  307SOL    HW2 1258   0.867   3.327   0.769
  307SOL    HW3 1259   0.810   3.187   0.777
  307SOL    MW4 1260   0.843   3.253   0.730
  308SOL     OW 1261   0.910   3.472   0.877
  308SOL    HW2 1262   0.988   3.514   0.840
  308SOL    HW3 1263   0.836   3.522   0.841
  308SOL    MW4 1264   0.910   3.484   0.868
  309SOL     OW 1265   1.141   3.598   0.789
  309SOL    HW2 1266   1.220   3.546   0.808
  309SOL    HW3 1267   1.153   3.628   0.699
  309SOL    MW4 1268   1.153   3.595   0.780
  310SOL     OW 1269   1.148   3.881   0.859
  310SOL    HW2 1270   1.156   3.886   0.954
  310SOL    HW3 1271   1.135   3.788   0.841
  310SOL    MW4 1272   1.147   3.869   0.869
  311SOL     OW 1273   0.921   3.991   0.743
  311SOL    HW2 1274   0.898   4.076   0.781
  311SOL    HW3 1275   0.993   3.960   0.797
  311SOL    MW4 1276   0.927   3.999   0.755
  312SOL     OW 1277   0.874   4.260   0.823
  312SOL    HW2 1278   0.955   4.311   0.813
  312SOL    HW3 1279   0.807   4.314   0.783
  312SOL    MW4 1280   0.876   4.274   0.817
  313SOL     OW 1281   1.126   4.376   0.784
  313SOL    HW2 1282   1.216   4.353   0.805
  313SOL    HW3 1283   1.123   4.471   0.785
  313SOL    MW4 1284   1.137   4.385   0.787
  314SOL     OW 1285   1.546   4.644   0.878
  314SOL    HW2 1286   1.529   4.637   0.972
  314SOL    HW3 1287   1.470   4.690   0.844
  314SOL    MW4 1288   1.534   4.649   0.886
  315SOL     OW 1289   1.349   0.111   0.740
  315SOL    HW2 1290   1.354   0.193   0.789
  315SOL    HW3 1291   1.352   0.137   0.648
  315SOL    MW4 1292   1.350   0.125   0.734
  316SOL     OW 1293   1.356   0.357   0.853
  316SOL    HW2 1294   1.358   0.372   0.948
  316SOL    HW3 1295   1.427   0.412   0.818
  316SOL    MW4 1296   1.366   0.366   0.861
  317SOL     OW 1297   1.561   0.537   0.743
  317SOL    HW2 1298   1.542   0.622   0.781
  317SOL    HW3 1299   1.632   0.502   0.796
  317SOL    MW4 1300   1.568   0.543   0.755
  318SOL     OW 1301   1.487   0.783   0.831
  318SOL    HW2 1302   1.558   0.836   0.795
  318SOL    HW3 1303   1.409   0.815   0.786
  318SOL    MW4 1304   1.486   0.794   0.821
  319SOL     OW 1305   1.283   0.892   0.645
  319SOL    HW2 1306   1.304   0.971   0.696
  319SOL    HW3 1307   1.224   0.843   0.701
  319SOL    MW4 1308   1.278   0.896   0.659
  320SOL     OW 1309   1.335   1.127   0.803
  320SOL    HW2 1310   1.405   1.159   0.746
  320SOL    HW3 1311   1.268   1.196   0.800
  320SOL    MW4 1312   1.336   1.140   0.795
  321SOL     OW 1313   1.540   1.256   0.670
  321SOL    HW2 1314   1.537   1.352   0.662
  321SOL    HW3 1315   1.596   1.228   0.597
  321SOL    MW4 1316   1.547   1.265   0.659
  322SOL     OW 1317   1.708   1.658   0.870
  322SOL    HW2 1318   1.668   1.613   0.945
  322SOL    HW3 1319   1.788   1.610   0.853
  322SOL    MW4 1320   1.713   1.646   0.877
  323SOL     OW 1321   1.307   1.663   0.680
  323SOL    HW2 1322   1.328   1.748   0.719
  323SOL    HW3 1323   1.238   1.627   0.736
  323SOL    MW4 1324   1.301   1.670   0.693
  324SOL     OW 1325   1.345   1.861   0.864
  324SOL    HW2 1326   1.358   1.846   0.957
  324SOL    HW3 1327   1.266   1.914   0.859
  324SOL    MW4 1328   1.337   1.866   0.875
  325SOL     OW 1329   1.533   2.042   0.758
  325SOL    HW2 1330   1.469   1.977   0.786
  325SOL    HW3 1331   1.513   2.057   0.665
  325SOL    MW4 1332   1.522   2.036   0.749
  326SOL     OW 1333   1.483   2.273   0.879
  326SOL    HW2 1334   1.408   2.315   0.836
  326SOL    HW3 1335   1.493   2.190   0.833
  326SOL    MW4 1336   1.474   2.268   0.867
  327SOL     OW 1337   1.272   2.410   0.714
  327SOL    HW2 1338   1.272   2.495   0.759
  327SOL    HW3 1339   1.319   2.426   0.633
  327SOL    MW4 1340   1.278   2.424   0.710
  328SOL     OW 1341   1.274   2.687   0.836
  328SOL    HW2 1342   1.273   2.686   0.932
  328SOL    HW3 1343   1.200   2.744   0.812
  328SOL    MW4 1344   1.264   2.695   0.846
  329SOL     OW 1345   1.540   2.809   0.780
  329SOL    HW2 1346   1.542   2.894   0.823
  329SOL    HW3 1347   1.449   2.780   0.788
  329SOL    MW4 1348   1.529   2.816   0.787
  330SOL     OW 1349   1.567   3.085   0.840
  330SOL    HW2 1350   1.562   3.093   0.935
  330SOL    HW3 1351   1.483   3.119   0.808
  330SOL    MW4 1352   1.556   3.091   0.848
  331SOL     OW 1353   1.353   3.200   0.705
  331SOL    HW2 1354   1.260   3.182   0.715
  331SOL    HW3 1355   1.368   3.202   0.611
  331SOL    MW4 1356   1.343   3.198   0.694
  332SOL     OW 1357   1.375   3.438   0.874
  332SOL    HW2 1358   1.440   3.501   0.844
  332SOL    HW3 1359   1.394   3.358   0.824
  332SOL    MW4 1360   1.386   3.436   0.863
  333SOL     OW 1361   1.543   3.612   0.725
  333SOL    HW2 1362   1.622   3.559   0.733
  333SOL    HW3 1363   1.533   3.627   0.631
  333SOL    MW4 1364   1.552   3.607   0.714
  334SOL     OW 1365   1.548   3.868   0.864
  334SOL    HW2 1366   1.474   3.914   0.825
  334SOL    HW3 1367   1.553   3.786   0.815
  334SOL    MW4 1368   1.539   3.863   0.852
  335SOL     OW 1369   1.349   4.018   0.694
  335SOL    HW2 1370   1.279   3.963   0.730
  335SOL    HW3 1371   1.354   3.993   0.602
  335SOL    MW4 1372   1.340   4.007   0.686
  336SOL     OW 1373   1.382   4.302   0.808
  336SOL    HW2 1374   1.456   4.352   0.773
  336SOL    HW3 1375   1.363   4.239   0.739
  336SOL    MW4 1376   1.389   4.301   0.794
  337SOL     OW 1377   1.607   4.410   0.719
  337SOL    HW2 1378   1.672   4.349   0.755
  337SOL    HW3 1379   1.609   4.485   0.778
  337SOL    MW4 1380   1.616   4.412   0.731
  338SOL     OW 1381   1.736   0.163   0.782
  338SOL    HW2 1382   1.813   0.107   0.789
  338SOL    HW3 1383   1.667   0.116   0.830
  338SOL    MW4 1384   1.737   0.149   0.789
  339SOL     OW 1385   1.646   0.159   0.504
  339SOL    HW2 1386   1.554   0.135   0.492
  339SOL    HW3 1387   1.665   0.136   0.595
  339SOL    MW4 1388   1.637   0.153   0.514
  340SOL     OW 1389   1.775   0.412   0.893
  340SOL    HW2 1390   1.762   0.322   0.862
  340SOL    HW3 1391   1.845   0.446   0.838
  340SOL    MW4 1392   1.782   0.405   0.881
  341SOL     OW 1393   1.999   0.513   0.731
  341SOL    HW2 1394   1.979   0.491   0.640
  341SOL    HW3 1395   2.084   0.472   0.747
  341SOL    MW4 1396   2.008   0.505   0.721
  342SOL     OW 1397   2.004   0.793   0.802
  342SOL    HW2 1398   2.065   0.840   0.744
  342SOL    HW3 1399   2.006   0.703   0.771
  342SOL    MW4 1400   2.012   0.788   0.790
  343SOL     OW 1401   1.746   0.906   0.751
  343SOL    HW2 1402   1.748   0.987   0.803
  343SOL    HW3 1403   1.823   0.857   0.780
  343SOL    MW4 1404   1.756   0.910   0.762
  344SOL     OW 1405   1.737   1.155   0.864
  344SOL    HW2 1406   1.807   1.205   0.821
  344SOL    HW3 1407   1.657   1.180   0.818
  344SOL    MW4 1408   1.736   1.165   0.852
  345SOL     OW 1409   1.955   1.262   0.712
  345SOL    HW2 1410   2.038   1.225   0.741
  345SOL    HW3 1411   1.955   1.249   0.617
  345SOL    MW4 1412   1.966   1.256   0.703
  346SOL     OW 1413   1.965   1.530   0.787
  346SOL    HW2 1414   2.046   1.579   0.772
  346SOL    HW3 1415   1.980   1.446   0.744
  346SOL    MW4 1416   1.978   1.525   0.779
  347SOL     OW 1417   1.845   1.385   0.281
  347SOL    HW2 1418   1.933   1.419   0.267
  347SOL    HW3 1419   1.794   1.462   0.306
  347SOL    MW4 1420   1.850   1.399   0.283
  348SOL     OW 1421   1.776   1.920   0.835
  348SOL    HW2 1422   1.742   1.830   0.836
  348SOL    HW3 1423   1.701   1.973   0.811
  348SOL    MW4 1424   1.762   1.915   0.832
  349SOL     OW 1425   2.026   2.059   0.828
  349SOL    HW2 1426   2.020   2.151   0.852
  349SOL    HW3 1427   1.950   2.018   0.868
  349SOL    MW4 1428   2.015   2.065   0.836
  350SOL     OW 1429   2.002   2.326   0.891
  350SOL    HW2 1430   2.007   2.342   0.985
  350SOL    HW3 1431   1.910   2.340   0.869
  350SOL    MW4 1432   1.990   2.330   0.900
  351SOL     OW 1433   1.743   2.371   0.788
  351SOL    HW2 1434   1.657   2.330   0.794
  351SOL    HW3 1435   1.774   2.348   0.701
  351SOL    MW4 1436   1.736   2.363   0.777
  352SOL     OW 1437   1.771   2.666   0.889
  352SOL    HW2 1438   1.743   2.580   0.857
  352SOL    HW3 1439   1.695   2.723   0.872
  352SOL    MW4 1440   1.757   2.662   0.882
  353SOL     OW 1441   1.976   2.816   0.762
  353SOL    HW2 1442   2.066   2.795   0.784
  353SOL    HW3 1443   1.924   2.754   0.813
  353SOL    MW4 1444   1.981   2.805   0.772
  354SOL     OW 1445   2.027   3.085   0.854
  354SOL    HW2 1446   1.947   3.126   0.823
  354SOL    HW3 1447   2.019   2.993   0.829
  354SOL    MW4 1448   2.016   3.078   0.847
  355SOL     OW 1449   1.817   3.202   0.725
  355SOL    HW2 1450   1.734   3.169   0.760
  355SOL    HW3 1451   1.825   3.161   0.639
  355SOL    MW4 1452   1.808   3.192   0.718
  356SOL     OW 1453   1.782   3.467   0.776
  356SOL    HW2 1454   1.798   3.475   0.870
  356SOL    HW3 1455   1.805   3.376   0.756
  356SOL    MW4 1456   1.787   3.456   0.786
  357SOL     OW 1457   2.019   3.588   0.685
  357SOL    HW2 1458   2.029   3.662   0.744
  357SOL    HW3 1459   1.942   3.542   0.716
  357SOL    MW4 1460   2.010   3.592   0.697
  358SOL     OW 1461   2.019   3.824   0.830
  358SOL    HW2 1462   2.015   3.839   0.924
  358SOL    HW3 1463   1.941   3.866   0.795
  358SOL    MW4 1464   2.008   3.832   0.837
  359SOL     OW 1465   1.792   3.965   0.745
  359SOL    HW2 1466   1.711   3.936   0.787
  359SOL    HW3 1467   1.779   3.944   0.653
  359SOL    MW4 1468   1.779   3.958   0.738
  360SOL     OW 1469   1.816   4.249   0.819
  360SOL    HW2 1470   1.808   4.262   0.914
  360SOL    HW3 1471   1.805   4.155   0.807
  360SOL    MW4 1472   1.813   4.238   0.830
  361SOL     OW 1473   2.054   4.383   0.746
  361SOL    HW2 1474   1.982   4.321   0.760
  361SOL    HW3 1475   2.078   4.372   0.654
  361SOL    MW4 1476   2.047   4.373   0.736
  362SOL     OW 1477   2.617   4.625   0.781
  362SOL    HW2 1478   2.578   4.538   0.787
  362SOL    HW3 1479   2.545   4.686   0.798
  362SOL    MW4 1480   2.603   4.621   0.784
  363SOL     OW 1481   2.377   0.110   0.843
  363SOL    HW2 1482   2.397   0.077   0.930
  363SOL    HW3 1483   2.347   0.034   0.794
  363SOL    MW4 1484   2.376   0.096   0.848
  364SOL     OW 1485   2.212   0.350   0.824
  364SOL    HW2 1486   2.291   0.390   0.788
  364SOL    HW3 1487   2.225   0.256   0.811
  364SOL    MW4 1488   2.224   0.343   0.818
  365SOL     OW 1489   2.431   0.461   0.676
  365SOL    HW2 1490   2.455   0.440   0.586
  365SOL    HW3 1491   2.513   0.454   0.725
  365SOL    MW4 1492   2.445   0.457   0.671
  366SOL     OW 1493   2.417   0.746   0.689
  366SOL    HW2 1494   2.453   0.765   0.602
  366SOL    HW3 1495   2.401   0.651   0.688
  366SOL    MW4 1496   2.420   0.736   0.677
  367SOL     OW 1497   2.198   0.910   0.667
  367SOL    HW2 1498   2.268   0.844   0.671
  367SOL    HW3 1499   2.180   0.919   0.573
  367SOL    MW4 1500   2.205   0.902   0.655
  368SOL     OW 1501   2.190   1.163   0.814
  368SOL    HW2 1502   2.186   1.155   0.909
  368SOL    HW3 1503   2.213   1.075   0.784
  368SOL    MW4 1504   2.192   1.150   0.823
  369SOL     OW 1505   2.422   1.300   0.720
  369SOL    HW2 1506   2.344   1.250   0.744
  369SOL    HW3 1507   2.427   1.292   0.625
  369SOL    MW4 1508   2.412   1.292   0.710
  370SOL     OW 1509   2.460   1.554   0.832
  370SOL    HW2 1510   2.533   1.597   0.787
  370SOL    HW3 1511   2.455   1.467   0.793
  370SOL    MW4 1512   2.469   1.548   0.821
  371SOL     OW 1513   2.211   1.662   0.744
  371SOL    HW2 1514   2.294   1.623   0.771
  371SOL    HW3 1515   2.211   1.657   0.648
  371SOL    MW4 1516   2.222   1.656   0.735
  372SOL     OW 1517   2.248   1.911   0.872
  372SOL    HW2 1518   2.219   1.826   0.840
  372SOL    HW3 1519   2.178   1.972   0.847
  372SOL    MW4 1520   2.235   1.908   0.864
  373SOL     OW 1521   2.473   2.072   0.786
  373SOL    HW2 1522   2.399   2.024   0.824
  373SOL    HW3 1523   2.475   2.044   0.694
  373SOL    MW4 1524   2.463   2.062   0.779
  374SOL     OW 1525   2.466   2.345   0.860
  374SOL    HW2 1526   2.549   2.382   0.829
  374SOL    HW3 1527   2.472   2.252   0.837
  374SOL    MW4 1528   2.478   2.337   0.853
  375SOL     OW 1529   2.205   2.449   0.760
  375SOL    HW2 1530   2.286   2.421   0.802
  375SOL    HW3 1531   2.136   2.413   0.816
  375SOL    MW4 1532   2.206   2.440   0.773
  376SOL     OW 1533   2.224   2.713   0.841
  376SOL    HW2 1534   2.233   2.710   0.936
  376SOL    HW3 1535   2.213   2.621   0.815
  376SOL    MW4 1536   2.224   2.700   0.850
  377SOL     OW 1537   2.458   2.850   0.736
  377SOL    HW2 1538   2.537   2.812   0.774
  377SOL    HW3 1539   2.387   2.796   0.770
  377SOL    MW4 1540   2.459   2.838   0.745
  378SOL     OW 1541   2.464   3.116   0.815
  378SOL    HW2 1542   2.471   3.111   0.910
  378SOL    HW3 1543   2.447   3.026   0.788
  378SOL    MW4 1544   2.463   3.104   0.824
  379SOL     OW 1545   2.225   3.247   0.741
  379SOL    HW2 1546   2.151   3.192   0.769
  379SOL    HW3 1547   2.303   3.195   0.763
  379SOL    MW4 1548   2.226   3.233   0.748
  380SOL     OW 1549   2.288   3.525   0.795
  380SOL    HW2 1550   2.283   3.432   0.771
  380SOL    HW3 1551   2.213   3.565   0.750
  380SOL    MW4 1552   2.277   3.518   0.785
  381SOL     OW 1553   2.490   3.680   0.702
  381SOL    HW2 1554   2.563   3.625   0.730
  381SOL    HW3 1555   2.412   3.635   0.735
  381SOL    MW4 1556   2.489   3.667   0.710
  382SOL     OW 1557   2.469   3.929   0.819
  382SOL    HW2 1558   2.382   3.955   0.788
  382SOL    HW3 1559   2.477   3.838   0.792
  382SOL    MW4 1560   2.458   3.921   0.812
  383SOL     OW 1561   2.211   3.980   0.742
  383SOL    HW2 1562   2.143   3.929   0.786
  383SOL    HW3 1563   2.187   3.979   0.650
  383SOL    MW4 1564   2.199   3.973   0.736
  384SOL     OW 1565   2.287   4.243   0.815
  384SOL    HW2 1566   2.268   4.156   0.781
  384SOL    HW3 1567   2.209   4.295   0.794
  384SOL    MW4 1568   2.274   4.238   0.808
  385SOL     OW 1569   2.544   4.346   0.820
  385SOL    HW2 1570   2.565   4.324   0.911
  385SOL    HW3 1571   2.454   4.316   0.808
  385SOL    MW4 1572   2.535   4.339   0.830
  386SOL     OW 1573   2.890   4.589   0.829
  386SOL    HW2 1574   2.889   4.493   0.824
  386SOL    HW3 1575   2.806   4.616   0.794
  386SOL    MW4 1576   2.879   4.580   0.824
  387SOL     OW 1577   2.709   4.440   0.559
  387SOL    HW2 1578   2.780   4.481   0.510
  387SOL    HW3 1579   2.681   4.506   0.622
  387SOL    MW4 1580   2.714   4.454   0.561
  388SOL     OW 1581   2.673   0.386   0.781
  388SOL    HW2 1582   2.661   0.385   0.876
  388SOL    HW3 1583   2.756   0.431   0.768
  388SOL    MW4 1584   2.682   0.392   0.792
  389SOL     OW 1585   2.931   0.479   0.755
  389SOL    HW2 1586   2.980   0.412   0.803
  389SOL    HW3 1587   2.982   0.492   0.674
  389SOL    MW4 1588   2.944   0.472   0.750
  390SOL     OW 1589   2.789   0.705   0.843
  390SOL    HW2 1590   2.808   0.700   0.937
  390SOL    HW3 1591   2.836   0.631   0.805
  390SOL    MW4 1592   2.798   0.695   0.850
  391SOL     OW 1593   2.585   0.881   0.867
  391SOL    HW2 1594   2.667   0.832   0.867
  391SOL    HW3 1595   2.534   0.842   0.795
  391SOL    MW4 1596   2.589   0.869   0.857
  392SOL     OW 1597   2.636   1.156   0.826
  392SOL    HW2 1598   2.606   1.065   0.825
  392SOL    HW3 1599   2.566   1.205   0.783
  392SOL    MW4 1600   2.623   1.150   0.821
  393SOL     OW 1601   2.894   1.295   0.786
  393SOL    HW2 1602   2.959   1.225   0.787
  393SOL    HW3 1603   2.813   1.253   0.813
  393SOL    MW4 1604   2.892   1.280   0.790
  394SOL     OW 1605   2.910   1.565   0.820
  394SOL    HW2 1606   2.995   1.592   0.785
  394SOL    HW3 1607   2.908   1.470   0.808
  394SOL    MW4 1608   2.921   1.556   0.814
  395SOL     OW 1609   2.675   1.673   0.712
  395SOL    HW2 1610   2.674   1.752   0.765
  395SOL    HW3 1611   2.757   1.629   0.735
  395SOL    MW4 1612   2.686   1.678   0.722
  396SOL     OW 1613   2.693   1.914   0.850
  396SOL    HW2 1614   2.704   1.922   0.945
  396SOL    HW3 1615   2.621   1.973   0.829
  396SOL    MW4 1616   2.685   1.923   0.860
  397SOL     OW 1617   2.880   2.081   0.745
  397SOL    HW2 1618   2.887   2.156   0.804
  397SOL    HW3 1619   2.823   2.019   0.792
  397SOL    MW4 1620   2.874   2.082   0.759
  398SOL     OW 1621   2.912   2.312   0.865
  398SOL    HW2 1622   2.914   2.313   0.961
  398SOL    HW3 1623   2.841   2.371   0.842
  398SOL    MW4 1624   2.903   2.320   0.875
  399SOL     OW 1625   2.716   2.476   0.772
  399SOL    HW2 1626   2.724   2.482   0.677
  399SOL    HW3 1627   2.705   2.567   0.800
  399SOL    MW4 1628   2.715   2.489   0.763
  400SOL     OW 1629   2.685   2.744   0.864
  400SOL    HW2 1630   2.690   2.738   0.959
  400SOL    HW3 1631   2.761   2.797   0.839
  400SOL    MW4 1632   2.696   2.750   0.873
  401SOL     OW 1633   2.829   2.823   0.503
  401SOL    HW2 1634   2.847   2.729   0.507
  401SOL    HW3 1635   2.734   2.828   0.493
  401SOL    MW4 1636   2.819   2.811   0.502
  402SOL     OW 1637   2.886   3.142   0.853
  402SOL    HW2 1638   2.823   3.176   0.789
  402SOL    HW3 1639   2.891   3.048   0.834
  402SOL    MW4 1640   2.878   3.134   0.842
  403SOL     OW 1641   2.670   3.251   0.694
  403SOL    HW2 1642   2.684   3.325   0.753
  403SOL    HW3 1643   2.597   3.202   0.733
  403SOL    MW4 1644   2.662   3.254   0.707
  404SOL     OW 1645   2.685   3.516   0.805
  404SOL    HW2 1646   2.669   3.516   0.900
  404SOL    HW3 1647   2.780   3.519   0.796
  404SOL    MW4 1648   2.695   3.517   0.816
  405SOL     OW 1649   2.951   3.589   0.780
  405SOL    HW2 1650   2.954   3.677   0.819
  405SOL    HW3 1651   2.950   3.605   0.686
  405SOL    MW4 1652   2.951   3.603   0.773
  406SOL     OW 1653   2.939   3.847   0.864
  406SOL    HW2 1654   2.946   3.849   0.960
  406SOL    HW3 1655   2.874   3.913   0.843
  406SOL    MW4 1656   2.931   3.856   0.874
  407SOL     OW 1657   2.714   3.999   0.736
  407SOL    HW2 1658   2.627   3.966   0.756
  407SOL    HW3 1659   2.748   3.940   0.669
  407SOL    MW4 1660   2.707   3.987   0.730
  408SOL     OW 1661   2.881   4.306   0.829
  408SOL    HW2 1662   2.846   4.290   0.917
  408SOL    HW3 1663   2.969   4.270   0.832
  408SOL    MW4 1664   2.888   4.299   0.841
  409SOL     OW 1665   3.075   4.362   0.396
  409SOL    HW2 1666   3.160   4.368   0.438
  409SOL    HW3 1667   3.022   4.308   0.455
  409SOL    MW4 1668   3.079   4.356   0.409
  410SOL     OW 1669   3.386   4.639   0.854
  410SOL    HW2 1670   3.371   4.648   0.948
  410SOL    HW3 1671   3.299   4.639   0.815
  410SOL    MW4 1672   3.373   4.640   0.861
  411SOL     OW 1673   3.129   0.038   0.764
  411SOL    HW2 1674   3.129   0.124   0.808
  411SOL    HW3 1675   3.050  -0.005   0.796
  411SOL    MW4 1676   3.118   0.044   0.774
  412SOL     OW 1677   3.139   0.315   0.847
  412SOL    HW2 1678   3.144   0.351   0.935
  412SOL    HW3 1679   3.196   0.371   0.795
  412SOL    MW4 1680   3.147   0.327   0.852
  413SOL     OW 1681   3.311   0.479   0.724
  413SOL    HW2 1682   3.388   0.461   0.778
  413SOL    HW3 1683   3.318   0.418   0.651
  413SOL    MW4 1684   3.322   0.468   0.721
  414SOL     OW 1685   3.259   0.744   0.799
  414SOL    HW2 1686   3.181   0.776   0.754
  414SOL    HW3 1687   3.282   0.664   0.753
  414SOL    MW4 1688   3.252   0.738   0.787
  415SOL     OW 1689   2.977   0.851   0.711
  415SOL    HW2 1690   3.003   0.936   0.747
  415SOL    HW3 1691   2.918   0.814   0.777
  415SOL    MW4 1692   2.973   0.857   0.724
  416SOL     OW 1693   3.064   1.084   0.836
  416SOL    HW2 1694   3.092   1.082   0.928
  416SOL    HW3 1695   3.130   1.137   0.792
  416SOL    MW4 1696   3.076   1.091   0.843
  417SOL     OW 1697   3.298   1.270   0.769
  417SOL    HW2 1698   3.383   1.236   0.796
  417SOL    HW3 1699   3.306   1.365   0.777
  417SOL    MW4 1700   3.310   1.278   0.773
  418SOL     OW 1701   3.361   1.537   0.795
  418SOL    HW2 1702   3.370   1.545   0.890
  418SOL    HW3 1703   3.450   1.549   0.761
  418SOL    MW4 1704   3.374   1.539   0.803
  419SOL     OW 1705   3.130   1.654   0.690
  419SOL    HW2 1706   3.208   1.603   0.708
  419SOL    HW3 1707   3.136   1.678   0.598
  419SOL    MW4 1708   3.141   1.651   0.681
  420SOL     OW 1709   3.230   1.882   0.829
  420SOL    HW2 1710   3.202   1.890   0.920
  420SOL    HW3 1711   3.182   1.807   0.795
  420SOL    MW4 1712   3.220   1.873   0.836
  421SOL     OW 1713   3.471   2.001   0.875
  421SOL    HW2 1714   3.447   2.094   0.872
  421SOL    HW3 1715   3.389   1.955   0.860
  421SOL    MW4 1716   3.457   2.007   0.873
  422SOL     OW 1717   3.424   2.269   0.891
  422SOL    HW2 1718   3.404   2.290   0.982
  422SOL    HW3 1719   3.514   2.297   0.879
  422SOL    MW4 1720   3.433   2.275   0.902
  423SOL     OW 1721   3.123   2.472   0.751
  423SOL    HW2 1722   3.183   2.415   0.702
  423SOL    HW3 1723   3.062   2.413   0.794
  423SOL    MW4 1724   3.123   2.457   0.750
  424SOL     OW 1725   3.114   2.742   0.862
  424SOL    HW2 1726   3.097   2.651   0.837
  424SOL    HW3 1727   3.180   2.772   0.800
  424SOL    MW4 1728   3.120   2.734   0.851
  425SOL     OW 1729   3.291   2.888   0.689
  425SOL    HW2 1730   3.244   2.909   0.608
  425SOL    HW3 1731   3.353   2.820   0.663
  425SOL    MW4 1732   3.293   2.882   0.675
  426SOL     OW 1733   3.395   3.081   0.841
  426SOL    HW2 1734   3.383   3.061   0.934
  426SOL    HW3 1735   3.357   3.006   0.795
  426SOL    MW4 1736   3.388   3.069   0.847
  427SOL     OW 1737   3.148   3.198   0.743
  427SOL    HW2 1738   3.231   3.164   0.778
  427SOL    HW3 1739   3.081   3.145   0.786
  427SOL    MW4 1740   3.150   3.186   0.753
  428SOL     OW 1741   3.212   3.468   0.838
  428SOL    HW2 1742   3.197   3.379   0.806
  428SOL    HW3 1743   3.127   3.511   0.828
  428SOL    MW4 1744   3.199   3.462   0.833
  429SOL     OW 1745   3.361   4.341   0.511
  429SOL    HW2 1746   3.368   4.252   0.476
  429SOL    HW3 1747   3.446   4.380   0.492
  429SOL    MW4 1748   3.373   4.334   0.504
  430SOL     OW 1749   3.487   3.931   0.865
  430SOL    HW2 1750   3.506   4.024   0.877
  430SOL    HW3 1751   3.446   3.903   0.946
  430SOL    MW4 1752   3.484   3.939   0.877
  431SOL     OW 1753   3.106   4.010   0.687
  431SOL    HW2 1754   3.187   3.963   0.664
  431SOL    HW3 1755   3.056   3.947   0.738
  431SOL    MW4 1756   3.110   3.995   0.691
  432SOL     OW 1757   3.157   4.223   0.852
  432SOL    HW2 1758   3.232   4.280   0.832
  432SOL    HW3 1759   3.175   4.142   0.806
  432SOL    MW4 1760   3.169   4.220   0.844
  433SOL     OW 1761   3.392   4.373   0.787
  433SOL    HW2 1762   3.395   4.465   0.810
  433SOL    HW3 1763   3.390   4.372   0.691
  433SOL    MW4 1764   3.392   4.385   0.777
  434SOL     OW 1765   3.792   4.660   0.851
  434SOL    HW2 1766   3.869   4.706   0.816
  434SOL    HW3 1767   3.719   4.720   0.834
  434SOL    MW4 1768   3.793   4.674   0.844
  435SOL     OW 1769   3.577   0.149   0.751
  435SOL    HW2 1770   3.506   0.090   0.778
  435SOL    HW3 1771   3.569   0.155   0.656
  435SOL    MW4 1772   3.567   0.142   0.742
  436SOL     OW 1773   3.535   0.394   0.863
  436SOL    HW2 1774   3.553   0.385   0.956
  436SOL    HW3 1775   3.543   0.306   0.828
  436SOL    MW4 1776   3.538   0.381   0.870
  437SOL     OW 1777   3.777   0.535   0.705
  437SOL    HW2 1778   3.755   0.621   0.739
  437SOL    HW3 1779   3.703   0.479   0.731
  437SOL    MW4 1780   3.764   0.539   0.713
  438SOL     OW 1781   3.770   0.810   0.809
  438SOL    HW2 1782   3.779   0.800   0.904
  438SOL    HW3 1783   3.852   0.851   0.781
  438SOL    MW4 1784   3.782   0.814   0.818
  439SOL     OW 1785   3.503   0.907   0.751
  439SOL    HW2 1786   3.586   0.862   0.767
  439SOL    HW3 1787   3.436   0.841   0.768
  439SOL    MW4 1788   3.505   0.892   0.755
  440SOL     OW 1789   3.561   1.186   0.787
  440SOL    HW2 1790   3.578   1.205   0.880
  440SOL    HW3 1791   3.544   1.092   0.784
  440SOL    MW4 1792   3.561   1.176   0.799
  441SOL     OW 1793   3.813   1.232   0.759
  441SOL    HW2 1794   3.718   1.216   0.758
  441SOL    HW3 1795   3.839   1.229   0.667
  441SOL    MW4 1796   3.804   1.230   0.747
  442SOL     OW 1797   3.854   1.490   0.837
  442SOL    HW2 1798   3.917   1.529   0.777
  442SOL    HW3 1799   3.849   1.399   0.811
  442SOL    MW4 1800   3.862   1.483   0.826
  443SOL     OW 1801   3.607   1.565   0.715
  443SOL    HW2 1802   3.601   1.660   0.709
  443SOL    HW3 1803   3.689   1.549   0.763
  443SOL    MW4 1804   3.617   1.575   0.721
  444SOL     OW 1805   3.799   2.003   0.632
  444SOL    HW2 1806   3.868   1.967   0.686
  444SOL    HW3 1807   3.724   1.944   0.646
  444SOL    MW4 1808   3.798   1.990   0.641
  445SOL     OW 1809   3.809   2.280   0.660
  445SOL    HW2 1810   3.771   2.314   0.740
  445SOL    HW3 1811   3.813   2.185   0.674
  445SOL    MW4 1812   3.804   2.272   0.672
  446SOL     OW 1813   4.135   1.651   0.446
  446SOL    HW2 1814   4.055   1.633   0.397
  446SOL    HW3 1815   4.140   1.747   0.449
  446SOL    MW4 1816   4.125   1.661   0.440
  447SOL     OW 1817   3.672   2.401   0.876
  447SOL    HW2 1818   3.648   2.494   0.865
  447SOL    HW3 1819   3.723   2.399   0.956
  447SOL    MW4 1820   3.675   2.413   0.885
  448SOL     OW 1821   3.602   2.672   0.869
  448SOL    HW2 1822   3.600   2.680   0.965
  448SOL    HW3 1823   3.668   2.736   0.842
  448SOL    MW4 1824   3.610   2.681   0.878
  449SOL     OW 1825   3.807   2.860   0.793
  449SOL    HW2 1826   3.762   2.934   0.834
  449SOL    HW3 1827   3.834   2.894   0.707
  449SOL    MW4 1828   3.805   2.874   0.787
  450SOL     OW 1829   3.689   3.084   0.880
  450SOL    HW2 1830   3.744   3.153   0.843
  450SOL    HW3 1831   3.600   3.117   0.870
  450SOL    MW4 1832   3.684   3.098   0.874
  451SOL     OW 1833   3.447   3.500   0.669
  451SOL    HW2 1834   3.440   3.412   0.631
  451SOL    HW3 1835   3.372   3.507   0.728
  451SOL    MW4 1836   3.436   3.489   0.672
  452SOL     OW 1837   3.676   3.508   0.806
  452SOL    HW2 1838   3.726   3.428   0.793
  452SOL    HW3 1839   3.589   3.489   0.770
  452SOL    MW4 1840   3.671   3.495   0.799
  453SOL     OW 1841   3.880   3.637   0.623
  453SOL    HW2 1842   3.791   3.613   0.648
  453SOL    HW3 1843   3.928   3.642   0.705
  453SOL    MW4 1844   3.874   3.635   0.637
  454SOL     OW 1845   3.731   3.803   0.879
  454SOL    HW2 1846   3.646   3.843   0.858
  454SOL    HW3 1847   3.725   3.715   0.840
  454SOL    MW4 1848   3.719   3.797   0.871
  455SOL     OW 1849   2.585   4.115   0.169
  455SOL    HW2 1850   2.577   4.134   0.076
  455SOL    HW3 1851   2.598   4.201   0.210
  455SOL    MW4 1852   2.586   4.129   0.162
  456SOL     OW 1853   3.600   4.192   0.857
  456SOL    HW2 1854   3.658   4.191   0.781
  456SOL    HW3 1855   3.529   4.252   0.833
  456SOL    MW4 1856   3.598   4.199   0.844
  457SOL     OW 1857   3.801   4.505   0.638
  457SOL    HW2 1858   3.773   4.414   0.651
  457SOL    HW3 1859   3.789   4.546   0.724
  457SOL    MW4 1860   3.796   4.498   0.651
  458SOL     OW 1861   4.301   4.642   0.819
  458SOL    HW2 1862   4.301   4.640   0.915
  458SOL    HW3 1863   4.224   4.694   0.797
  458SOL    MW4 1864   4.291   4.649   0.829
  459SOL     OW 1865   4.037   0.118   0.769
  459SOL    HW2 1866   4.027   0.200   0.818
  459SOL    HW3 1867   4.034   0.144   0.677
  459SOL    MW4 1868   4.035   0.132   0.764
  460SOL     OW 1869   3.963   0.396   0.857
  460SOL    HW2 1870   4.040   0.434   0.814
  460SOL    HW3 1871   3.890   0.449   0.824
  460SOL    MW4 1872   3.963   0.408   0.847
  461SOL     OW 1873   4.210   0.466   0.743
  461SOL    HW2 1874   4.304   0.449   0.755
  461SOL    HW3 1875   4.197   0.462   0.648
  461SOL    MW4 1876   4.221   0.463   0.732
  462SOL     OW 1877   4.232   0.737   0.840
  462SOL    HW2 1878   4.150   0.778   0.812
  462SOL    HW3 1879   4.223   0.645   0.814
  462SOL    MW4 1880   4.220   0.730   0.833
  463SOL     OW 1881   4.019   0.916   0.726
  463SOL    HW2 1882   4.023   0.988   0.790
  463SOL    HW3 1883   4.017   0.959   0.641
  463SOL    MW4 1884   4.019   0.931   0.723
  464SOL     OW 1885   4.037   1.142   0.887
  464SOL    HW2 1886   4.034   1.163   0.980
  464SOL    HW3 1887   3.956   1.177   0.851
  464SOL    MW4 1888   4.026   1.149   0.894
  465SOL     OW 1889   4.273   1.259   0.793
  465SOL    HW2 1890   4.202   1.206   0.826
  465SOL    HW3 1891   4.350   1.203   0.799
  465SOL    MW4 1892   4.274   1.245   0.798
  466SOL     OW 1893   4.254   1.529   0.850
  466SOL    HW2 1894   4.254   1.540   0.945
  466SOL    HW3 1895   4.260   1.434   0.837
  466SOL    MW4 1896   4.255   1.518   0.861
  467SOL     OW 1897   4.052   1.650   0.702
  467SOL    HW2 1898   4.128   1.614   0.748
  467SOL    HW3 1899   4.075   1.643   0.609
  467SOL    MW4 1900   4.065   1.645   0.696
  468SOL     OW 1901   3.996   1.911   0.803
  468SOL    HW2 1902   4.005   1.820   0.775
  468SOL    HW3 1903   4.071   1.956   0.765
  468SOL    MW4 1904   4.007   1.905   0.794
  469SOL     OW 1905   4.252   2.011   0.720
  469SOL    HW2 1906   4.330   1.967   0.753
  469SOL    HW3 1907   4.242   1.977   0.631
  469SOL    MW4 1908   4.261   2.001   0.713
  470SOL     OW 1909   4.242   2.285   0.813
  470SOL    HW2 1910   4.177   2.318   0.750
  470SOL    HW3 1911   4.254   2.193   0.789
  470SOL    MW4 1912   4.235   2.277   0.802
  471SOL     OW 1913   4.020   2.606   0.537
  471SOL    HW2 1914   4.022   2.624   0.631
  471SOL    HW3 1915   3.929   2.623   0.512
  471SOL    MW4 1916   4.008   2.611   0.546
  472SOL     OW 1917   4.013   2.666   0.815
  472SOL    HW2 1918   4.095   2.712   0.794
  472SOL    HW3 1919   3.947   2.735   0.813
  472SOL    MW4 1920   4.015   2.681   0.812
  473SOL     OW 1921   4.240   2.823   0.741
  473SOL    HW2 1922   4.313   2.787   0.790
  473SOL    HW3 1923   4.260   2.802   0.649
  473SOL    MW4 1924   4.252   2.815   0.735
  474SOL     OW 1925   4.291   3.079   0.838
  474SOL    HW2 1926   4.279   2.991   0.801
  474SOL    HW3 1927   4.369   3.113   0.794
  474SOL    MW4 1928   4.300   3.072   0.827
  475SOL     OW 1929   4.128   3.271   0.694
  475SOL    HW2 1930   4.166   3.358   0.707
  475SOL    HW3 1931   4.183   3.212   0.746
  475SOL    MW4 1932   4.140   3.274   0.703
  476SOL     OW 1933   4.032   3.662   0.857
  476SOL    HW2 1934   4.020   3.602   0.931
  476SOL    HW3 1935   4.070   3.740   0.896
  476SOL    MW4 1936   4.035   3.664   0.872
  477SOL     OW 1937   4.241   3.515   0.744
  477SOL    HW2 1938   4.175   3.580   0.768
  477SOL    HW3 1939   4.276   3.546   0.660
  477SOL    MW4 1940   4.237   3.528   0.736
  478SOL     OW 1941   4.157   3.880   0.951
  478SOL    HW2 1942   4.221   3.872   1.022
  478SOL    HW3 1943   4.120   3.968   0.963
  478SOL    MW4 1944   4.161   3.891   0.962
  479SOL     OW 1945   3.880   3.992   0.731
  479SOL    HW2 1946   3.833   3.924   0.779
  479SOL    HW3 1947   3.925   3.944   0.661
  479SOL    MW4 1948   3.880   3.976   0.728
  480SOL     OW 1949   4.056   4.165   0.894
  480SOL    HW2 1950   4.100   4.194   0.814
  480SOL    HW3 1951   3.978   4.118   0.862
  480SOL    MW4 1952   4.051   4.163   0.879
  481SOL     OW 1953   4.368   4.411   0.690
  481SOL    HW2 1954   4.335   4.488   0.736
  481SOL    HW3 1955   4.424   4.367   0.754
  481SOL    MW4 1956   4.371   4.416   0.705
  482SOL     OW 1957   0.220   4.638   1.091
  482SOL    HW2 1958   0.298   4.683   1.122
  482SOL    HW3 1959   0.225   4.643   0.996
  482SOL    MW4 1960   0.231   4.645   1.083
  483SOL     OW 1961   0.039   0.121   1.225
  483SOL    HW2 1962  -0.041   0.099   1.176
  483SOL    HW3 1963   0.104   0.057   1.195
  483SOL    MW4 1964   0.037   0.109   1.215
  484SOL     OW 1965   0.001   0.367   1.110
  484SOL    HW2 1966  -0.079   0.412   1.138
  484SOL    HW3 1967   0.001   0.284   1.159
  484SOL    MW4 1968  -0.010   0.362   1.120
  485SOL     OW 1969   0.212   0.493   1.219
  485SOL    HW2 1970   0.203   0.582   1.184
  485SOL    HW3 1971   0.136   0.446   1.184
  485SOL    MW4 1972   0.201   0.499   1.210
  486SOL     OW 1973   0.193   0.737   1.116
  486SOL    HW2 1974   0.268   0.790   1.145
  486SOL    HW3 1975   0.118   0.796   1.127
  486SOL    MW4 1976   0.193   0.752   1.121
  487SOL     OW 1977   4.475   0.909   1.203
  487SOL    HW2 1978   4.494   0.893   1.295
  487SOL    HW3 1979   4.395   0.859   1.186
  487SOL    MW4 1980   4.467   0.900   1.213
  488SOL     OW 1981   0.033   1.159   1.065
  488SOL    HW2 1982  -0.043   1.202   1.107
  488SOL    HW3 1983   0.036   1.072   1.106
  488SOL    MW4 1984   0.023   1.153   1.076
  489SOL     OW 1985   0.256   1.297   1.224
  489SOL    HW2 1986   0.328   1.241   1.195
  489SOL    HW3 1987   0.178   1.259   1.184
  489SOL    MW4 1988   0.255   1.285   1.215
  490SOL     OW 1989   0.254   1.559   1.110
  490SOL    HW2 1990   0.254   1.471   1.148
  490SOL    HW3 1991   0.240   1.544   1.017
  490SOL    MW4 1992   0.252   1.545   1.103
  491SOL     OW 1993   0.033   1.679   1.227
  491SOL    HW2 1994   0.028   1.765   1.185
  491SOL    HW3 1995   0.107   1.636   1.184
  491SOL    MW4 1996   0.042   1.685   1.216
  492SOL     OW 1997   0.006   1.940   1.111
  492SOL    HW2 1998  -0.082   1.966   1.139
  492SOL    HW3 1999  -0.001   1.933   1.015
  492SOL    MW4 2000  -0.007   1.942   1.102
  493SOL     OW 2001   0.248   2.053   1.204
  493SOL    HW2 2002   0.242   2.147   1.186
  493SOL    HW3 2003   0.169   2.016   1.164
  493SOL    MW4 2004   0.237   2.061   1.196
  494SOL     OW 2005   0.258   2.330   1.136
  494SOL    HW2 2006   0.326   2.380   1.181
  494SOL    HW3 2007   0.176   2.371   1.164
  494SOL    MW4 2008   0.256   2.342   1.146
  495SOL     OW 2009   0.010   2.452   1.207
  495SOL    HW2 2010  -0.007   2.446   1.301
  495SOL    HW3 2011  -0.049   2.387   1.169
  495SOL    MW4 2012   0.000   2.442   1.214
  496SOL     OW 2013   4.480   2.724   1.143
  496SOL    HW2 2014   4.397   2.748   1.185
  496SOL    HW3 2015   4.489   2.631   1.161
  496SOL    MW4 2016   4.470   2.715   1.151
  497SOL     OW 2017   0.231   2.844   1.203
  497SOL    HW2 2018   0.228   2.845   1.298
  497SOL    HW3 2019   0.144   2.814   1.176
  497SOL    MW4 2020   0.219   2.840   1.212
  498SOL     OW 2021   0.270   3.098   1.108
  498SOL    HW2 2022   0.353   3.126   1.147
  498SOL    HW3 2023   0.259   3.008   1.137
  498SOL    MW4 2024   0.280   3.090   1.117
  499SOL     OW 2025   0.042   3.199   1.215
  499SOL    HW2 2026  -0.036   3.152   1.186
  499SOL    HW3 2027   0.115   3.156   1.171
  499SOL    MW4 2028   0.041   3.187   1.205
  500SOL     OW 2029   0.019   3.472   1.123
  500SOL    HW2 2030   0.018   3.378   1.145
  500SOL    HW3 2031   0.008   3.474   1.028
  500SOL    MW4 2032   0.017   3.460   1.113
  501SOL     OW 2033   0.267   3.609   1.201
  501SOL    HW2 2034   0.273   3.605   1.296
  501SOL    HW3 2035   0.182   3.570   1.181
  501SOL    MW4 2036   0.257   3.603   1.211
  502SOL     OW 2037   0.293   3.872   1.131
  502SOL    HW2 2038   0.213   3.915   1.162
  502SOL    HW3 2039   0.284   3.781   1.162
  502SOL    MW4 2040   0.281   3.865   1.140
  503SOL     OW 2041   0.066   4.009   1.243
  503SOL    HW2 2042   0.064   4.002   1.338
  503SOL    HW3 2043  -0.014   3.964   1.214
  503SOL    MW4 2044   0.055   4.002   1.252
  504SOL     OW 2045   0.052   4.261   1.138
  504SOL    HW2 2046   0.125   4.319   1.158
  504SOL    HW3 2047   0.068   4.183   1.191
  504SOL    MW4 2048   0.064   4.258   1.148
  505SOL     OW 2049   0.263   4.392   1.223
  505SOL    HW2 2050   0.245   4.401   1.317
  505SOL    HW3 2051   0.257   4.481   1.189
  505SOL    MW4 2052   0.260   4.405   1.231
  506SOL     OW 2053   0.669   0.005   1.095
  506SOL    HW2 2054   0.740   0.059   1.130
  506SOL    HW3 2055   0.683  -0.082   1.135
  506SOL    MW4 2056   0.681   0.000   1.105
  507SOL     OW 2057   0.432   0.124   1.199
  507SOL    HW2 2058   0.438   0.215   1.172
  507SOL    HW3 2059   0.505   0.081   1.154
  507SOL    MW4 2060   0.442   0.130   1.189
  508SOL     OW 2061   0.433   0.396   1.111
  508SOL    HW2 2062   0.349   0.429   1.143
  508SOL    HW3 2063   0.418   0.378   1.018
  508SOL    MW4 2064   0.420   0.398   1.103
  509SOL     OW 2065   0.651   0.512   1.206
  509SOL    HW2 2066   0.657   0.603   1.179
  509SOL    HW3 2067   0.568   0.481   1.170
  509SOL    MW4 2068   0.641   0.520   1.198
  510SOL     OW 2069   0.646   0.801   1.158
  510SOL    HW2 2070   0.567   0.844   1.190
  510SOL    HW3 2071   0.636   0.802   1.062
  510SOL    MW4 2072   0.634   0.807   1.149
  511SOL     OW 2073   0.394   0.904   1.205
  511SOL    HW2 2074   0.408   0.912   1.300
  511SOL    HW3 2075   0.416   0.990   1.170
  511SOL    MW4 2076   0.399   0.917   1.213
  512SOL     OW 2077   0.463   1.174   1.109
  512SOL    HW2 2078   0.538   1.231   1.127
  512SOL    HW3 2079   0.455   1.174   1.014
  512SOL    MW4 2080   0.472   1.181   1.099
  513SOL     OW 2081   0.684   1.323   1.205
  513SOL    HW2 2082   0.731   1.264   1.146
  513SOL    HW3 2083   0.675   1.405   1.156
  513SOL    MW4 2084   0.689   1.326   1.191
  514SOL     OW 2085   0.700   1.560   1.087
  514SOL    HW2 2086   0.772   1.594   1.140
  514SOL    HW3 2087   0.625   1.615   1.109
  514SOL    MW4 2088   0.699   1.572   1.097
  515SOL     OW 2089   0.481   1.715   1.155
  515SOL    HW2 2090   0.499   1.713   1.249
  515SOL    HW3 2091   0.399   1.667   1.146
  515SOL    MW4 2092   0.472   1.708   1.166
  516SOL     OW 2093   0.511   1.990   1.127
  516SOL    HW2 2094   0.507   1.894   1.133
  516SOL    HW3 2095   0.424   2.019   1.154
  516SOL    MW4 2096   0.499   1.981   1.132
  517SOL     OW 2097   0.731   2.094   1.241
  517SOL    HW2 2098   0.702   2.094   1.332
  517SOL    HW3 2099   0.653   2.068   1.191
  517SOL    MW4 2100   0.717   2.091   1.246
  518SOL     OW 2101   0.695   2.339   1.098
  518SOL    HW2 2102   0.612   2.377   1.126
  518SOL    HW3 2103   0.711   2.269   1.161
  518SOL    MW4 2104   0.686   2.335   1.110
  519SOL     OW 2105   0.461   2.472   1.250
  519SOL    HW2 2106   0.462   2.456   1.344
  519SOL    HW3 2107   0.450   2.566   1.242
  519SOL    MW4 2108   0.460   2.482   1.261
  520SOL     OW 2109   0.475   2.731   1.118
  520SOL    HW2 2110   0.388   2.771   1.128
  520SOL    HW3 2111   0.472   2.689   1.031
  520SOL    MW4 2112   0.463   2.730   1.108
  521SOL     OW 2113   0.694   2.865   1.219
  521SOL    HW2 2114   0.706   2.953   1.184
  521SOL    HW3 2115   0.619   2.830   1.170
  521SOL    MW4 2116   0.686   2.872   1.208
  522SOL     OW 2117   0.727   3.120   1.131
  522SOL    HW2 2118   0.807   3.168   1.153
  522SOL    HW3 2119   0.737   3.096   1.039
  522SOL    MW4 2120   0.739   3.124   1.122
  523SOL     OW 2121   0.480   3.232   1.174
  523SOL    HW2 2122   0.478   3.323   1.146
  523SOL    HW3 2123   0.565   3.199   1.144
  523SOL    MW4 2124   0.491   3.240   1.166
  524SOL     OW 2125   0.482   3.491   1.104
  524SOL    HW2 2126   0.560   3.539   1.133
  524SOL    HW3 2127   0.409   3.536   1.146
  524SOL    MW4 2128   0.483   3.503   1.113
  525SOL     OW 2129   0.699   3.642   1.216
  525SOL    HW2 2130   0.717   3.646   1.310
  525SOL    HW3 2131   0.737   3.723   1.181
  525SOL    MW4 2132   0.706   3.653   1.224
  526SOL     OW 2133   0.750   3.884   1.091
  526SOL    HW2 2134   0.675   3.932   1.127
  526SOL    HW3 2135   0.731   3.879   0.997
  526SOL    MW4 2136   0.737   3.890   1.083
  527SOL     OW 2137   0.528   4.011   1.191
  527SOL    HW2 2138   0.517   4.102   1.165
  527SOL    HW3 2139   0.444   3.970   1.172
  527SOL    MW4 2140   0.516   4.018   1.185
  528SOL     OW 2141   0.480   4.265   1.102
  528SOL    HW2 2142   0.544   4.322   1.145
  528SOL    HW3 2143   0.397   4.288   1.144
  528SOL    MW4 2144   0.477   4.276   1.113
  529SOL     OW 2145   0.695   4.414   1.201
  529SOL    HW2 2146   0.680   4.403   1.295
  529SOL    HW3 2147   0.769   4.356   1.182
  529SOL    MW4 2148   0.703   4.405   1.211
  530SOL     OW 2149   1.145   4.663   1.084
  530SOL    HW2 2150   1.155   4.574   1.116
  530SOL    HW3 2151   1.140   4.654   0.989
  530SOL    MW4 2152   1.146   4.650   1.076
  531SOL     OW 2153   0.910   0.119   1.191
  531SOL    HW2 2154   0.901   0.116   1.286
  531SOL    HW3 2155   0.995   0.078   1.174
  531SOL    MW4 2156   0.920   0.113   1.201
  532SOL     OW 2157   0.917   0.432   1.124
  532SOL    HW2 2158   0.916   0.340   1.151
  532SOL    HW3 2159   0.830   0.465   1.147
  532SOL    MW4 2160   0.905   0.424   1.130
  533SOL     OW 2161   1.141   0.547   1.240
  533SOL    HW2 2162   1.121   0.538   1.333
  533SOL    HW3 2163   1.058   0.526   1.196
  533SOL    MW4 2164   1.127   0.543   1.246
  534SOL     OW 2165   1.129   0.799   1.123
  534SOL    HW2 2166   1.052   0.840   1.163
  534SOL    HW3 2167   1.147   0.723   1.177
  534SOL    MW4 2168   1.121   0.795   1.135
  535SOL     OW 2169   0.894   0.918   1.225
  535SOL    HW2 2170   0.892   0.999   1.174
  535SOL    HW3 2171   0.812   0.874   1.204
  535SOL    MW4 2172   0.883   0.923   1.216
  536SOL     OW 2173   0.862   1.139   1.084
  536SOL    HW2 2174   0.939   1.197   1.090
  536SOL    HW3 2175   0.856   1.119   0.991
  536SOL    MW4 2176   0.872   1.144   1.073
  537SOL     OW 2177   1.099   1.295   1.145
  537SOL    HW2 2178   1.115   1.305   1.239
  537SOL    HW3 2179   1.179   1.257   1.110
  537SOL    MW4 2180   1.111   1.291   1.153
  538SOL     OW 2181   1.166   1.568   1.139
  538SOL    HW2 2182   1.132   1.482   1.165
  538SOL    HW3 2183   1.155   1.570   1.044
  538SOL    MW4 2184   1.160   1.557   1.130
  539SOL     OW 2185   0.920   1.693   1.199
  539SOL    HW2 2186   0.924   1.789   1.198
  539SOL    HW3 2187   1.007   1.666   1.172
  539SOL    MW4 2188   0.932   1.702   1.195
  540SOL     OW 2189   0.962   1.961   1.150
  540SOL    HW2 2190   1.036   2.001   1.195
  540SOL    HW3 2191   0.885   1.998   1.193
  540SOL    MW4 2192   0.962   1.971   1.162
  541SOL     OW 2193   1.197   2.081   1.235
  541SOL    HW2 2194   1.169   2.085   1.327
  541SOL    HW3 2195   1.168   2.163   1.198
  541SOL    MW4 2196   1.190   2.092   1.242
  542SOL     OW 2197   1.132   2.341   1.125
  542SOL    HW2 2198   1.204   2.385   1.171
  542SOL    HW3 2199   1.053   2.378   1.164
  542SOL    MW4 2200   1.131   2.352   1.136
  543SOL     OW 2201   0.893   2.491   1.221
  543SOL    HW2 2202   0.889   2.479   1.316
  543SOL    HW3 2203   0.816   2.445   1.189
  543SOL    MW4 2204   0.883   2.483   1.230
  544SOL     OW 2205   0.912   2.737   1.112
  544SOL    HW2 2206   0.902   2.656   1.162
  544SOL    HW3 2207   0.842   2.793   1.146
  544SOL    MW4 2208   0.901   2.733   1.123
  545SOL     OW 2209   1.117   2.920   1.181
  545SOL    HW2 2210   1.102   2.909   1.275
  545SOL    HW3 2211   1.041   2.879   1.140
  545SOL    MW4 2212   1.105   2.913   1.188
  546SOL     OW 2213   1.206   3.169   1.085
  546SOL    HW2 2214   1.186   3.078   1.107
  546SOL    HW3 2215   1.166   3.182   0.999
  546SOL    MW4 2216   1.198   3.158   1.076
  547SOL     OW 2217   0.973   3.237   1.222
  547SOL    HW2 2218   0.966   3.333   1.221
  547SOL    HW3 2219   1.059   3.219   1.186
  547SOL    MW4 2220   0.983   3.248   1.217
  548SOL     OW 2221   0.934   3.513   1.154
  548SOL    HW2 2222   0.855   3.560   1.180
  548SOL    HW3 2223   0.924   3.501   1.060
  548SOL    MW4 2224   0.922   3.518   1.145
  549SOL     OW 2225   1.173   3.632   1.247
  549SOL    HW2 2226   1.251   3.595   1.205
  549SOL    HW3 2227   1.100   3.579   1.215
  549SOL    MW4 2228   1.174   3.620   1.237
  550SOL     OW 2229   1.191   3.881   1.132
  550SOL    HW2 2230   1.118   3.939   1.154
  550SOL    HW3 2231   1.176   3.802   1.184
  550SOL    MW4 2232   1.180   3.878   1.141
  551SOL     OW 2233   0.957   4.014   1.194
  551SOL    HW2 2234   0.943   4.005   1.288
  551SOL    HW3 2235   0.895   3.953   1.154
  551SOL    MW4 2236   0.947   4.005   1.201
  552SOL     OW 2237   0.894   4.279   1.113
  552SOL    HW2 2238   0.911   4.191   1.147
  552SOL    HW3 2239   0.869   4.265   1.022
  552SOL    MW4 2240   0.893   4.266   1.105
  553SOL     OW 2241   1.138   4.408   1.201
  553SOL    HW2 2242   1.118   4.414   1.294
  553SOL    HW3 2243   1.062   4.365   1.163
  553SOL    MW4 2244   1.125   4.403   1.208
  554SOL     OW 2245   1.582   4.666   1.157
  554SOL    HW2 2246   1.664   4.708   1.181
  554SOL    HW3 2247   1.594   4.574   1.181
  554SOL    MW4 2248   1.594   4.659   1.163
  555SOL     OW 2249   1.344   0.115   1.235
  555SOL    HW2 2250   1.427   0.074   1.211
  555SOL    HW3 2251   1.278   0.065   1.187
  555SOL    MW4 2252   1.346   0.103   1.226
  556SOL     OW 2253   1.340   0.387   1.142
  556SOL    HW2 2254   1.334   0.295   1.168
  556SOL    HW3 2255   1.260   0.427   1.175
  556SOL    MW4 2256   1.329   0.380   1.150
  557SOL     OW 2257   1.557   0.505   1.250
  557SOL    HW2 2258   1.556   0.597   1.223
  557SOL    HW3 2259   1.476   0.469   1.215
  557SOL    MW4 2260   1.546   0.512   1.242
  558SOL     OW 2261   1.522   0.753   1.130
  558SOL    HW2 2262   1.615   0.772   1.146
  558SOL    HW3 2263   1.512   0.759   1.035
  558SOL    MW4 2264   1.533   0.757   1.120
  559SOL     OW 2265   1.346   0.927   1.239
  559SOL    HW2 2266   1.410   0.862   1.212
  559SOL    HW3 2267   1.264   0.901   1.196
  559SOL    MW4 2268   1.343   0.915   1.230
  560SOL     OW 2269   1.357   1.171   1.078
  560SOL    HW2 2270   1.358   1.084   1.118
  560SOL    HW3 2271   1.361   1.154   0.983
  560SOL    MW4 2272   1.358   1.157   1.070
  561SOL     OW 2273   1.578   1.297   1.203
  561SOL    HW2 2274   1.657   1.254   1.170
  561SOL    HW3 2275   1.506   1.252   1.159
  561SOL    MW4 2276   1.579   1.286   1.193
  562SOL     OW 2277   1.638   1.557   1.125
  562SOL    HW2 2278   1.720   1.587   1.163
  562SOL    HW3 2279   1.627   1.467   1.158
  562SOL    MW4 2280   1.647   1.549   1.135
  563SOL     OW 2281   1.410   1.664   1.220
  563SOL    HW2 2282   1.486   1.618   1.186
  563SOL    HW3 2283   1.335   1.611   1.191
  563SOL    MW4 2284   1.410   1.651   1.212
  564SOL     OW 2285   1.389   1.916   1.129
  564SOL    HW2 2286   1.382   1.830   1.170
  564SOL    HW3 2287   1.314   1.964   1.162
  564SOL    MW4 2288   1.378   1.911   1.139
  565SOL     OW 2289   1.620   2.040   1.209
  565SOL    HW2 2290   1.603   2.120   1.158
  565SOL    HW3 2291   1.544   1.985   1.192
  565SOL    MW4 2292   1.607   2.044   1.200
  566SOL     OW 2293   1.569   2.304   1.133
  566SOL    HW2 2294   1.495   2.355   1.163
  566SOL    HW3 2295   1.548   2.281   1.042
  566SOL    MW4 2296   1.557   2.308   1.125
  567SOL     OW 2297   1.365   2.464   1.229
  567SOL    HW2 2298   1.388   2.454   1.321
  567SOL    HW3 2299   1.351   2.558   1.218
  567SOL    MW4 2300   1.366   2.475   1.240
  568SOL     OW 2301   1.312   2.733   1.127
  568SOL    HW2 2302   1.394   2.779   1.147
  568SOL    HW3 2303   1.244   2.798   1.142
  568SOL    MW4 2304   1.314   2.748   1.131
  569SOL     OW 2305   1.551   2.840   1.207
  569SOL    HW2 2306   1.635   2.796   1.194
  569SOL    HW3 2307   1.563   2.927   1.169
  569SOL    MW4 2308   1.564   2.846   1.200
  570SOL     OW 2309   1.589   3.092   1.111
  570SOL    HW2 2310   1.668   3.140   1.133
  570SOL    HW3 2311   1.519   3.137   1.158
  570SOL    MW4 2312   1.590   3.104   1.120
  571SOL     OW 2313   1.405   3.267   1.235
  571SOL    HW2 2314   1.373   3.261   1.325
  571SOL    HW3 2315   1.339   3.221   1.183
  571SOL    MW4 2316   1.392   3.260   1.240
  572SOL     OW 2317   1.403   3.532   1.123
  572SOL    HW2 2318   1.425   3.453   1.173
  572SOL    HW3 2319   1.378   3.499   1.037
  572SOL    MW4 2320   1.403   3.517   1.118
  573SOL     OW 2321   1.639   3.634   1.191
  573SOL    HW2 2322   1.620   3.728   1.192
  573SOL    HW3 2323   1.555   3.594   1.168
  573SOL    MW4 2324   1.625   3.641   1.188
  574SOL     OW 2325   1.581   3.913   1.148
  574SOL    HW2 2326   1.500   3.948   1.185
  574SOL    HW3 2327   1.560   3.895   1.056
  574SOL    MW4 2328   1.568   3.915   1.141
  575SOL     OW 2329   1.371   4.036   1.265
  575SOL    HW2 2330   1.379   4.114   1.210
  575SOL    HW3 2331   1.290   3.995   1.237
  575SOL    MW4 2332   1.362   4.041   1.254
  576SOL     OW 2333   1.362   4.243   1.089
  576SOL    HW2 2334   1.289   4.300   1.115
  576SOL    HW3 2335   1.362   4.246   0.994
  576SOL    MW4 2336   1.352   4.251   1.080
  577SOL     OW 2337   1.559   4.383   1.214
  577SOL    HW2 2338   1.549   4.361   1.307
  577SOL    HW3 2339   1.501   4.322   1.169
  577SOL    MW4 2340   1.550   4.372   1.220
  578SOL     OW 2341   2.069   0.015   1.073
  578SOL    HW2 2342   2.050  -0.077   1.088
  578SOL    HW3 2343   2.049   0.030   0.981
  578SOL    MW4 2344   2.064   0.005   1.063
  579SOL     OW 2345   1.828   0.117   1.225
  579SOL    HW2 2346   1.836   0.208   1.197
  579SOL    HW3 2347   1.900   0.071   1.181
  579SOL    MW4 2348   1.838   0.123   1.216
  580SOL     OW 2349   1.787   0.391   1.153
  580SOL    HW2 2350   1.703   0.416   1.191
  580SOL    HW3 2351   1.774   0.397   1.059
  580SOL    MW4 2352   1.774   0.395   1.146
  581SOL     OW 2353   2.015   0.536   1.197
  581SOL    HW2 2354   2.015   0.527   1.293
  581SOL    HW3 2355   1.931   0.500   1.169
  581SOL    MW4 2356   2.004   0.530   1.206
  582SOL     OW 2357   2.007   0.796   1.089
  582SOL    HW2 2358   2.021   0.706   1.117
  582SOL    HW3 2359   2.012   0.792   0.993
  582SOL    MW4 2360   2.009   0.783   1.080
  583SOL     OW 2361   1.769   0.869   1.227
  583SOL    HW2 2362   1.787   0.873   1.321
  583SOL    HW3 2363   1.849   0.834   1.189
  583SOL    MW4 2364   1.782   0.865   1.235
  584SOL     OW 2365   1.808   1.140   1.140
  584SOL    HW2 2366   1.795   1.056   1.184
  584SOL    HW3 2367   1.788   1.122   1.048
  584SOL    MW4 2368   1.804   1.126   1.134
  585SOL     OW 2369   2.038   1.283   1.229
  585SOL    HW2 2370   2.116   1.246   1.188
  585SOL    HW3 2371   1.969   1.217   1.215
  585SOL    MW4 2372   2.039   1.270   1.222
  586SOL     OW 2373   2.068   1.505   1.059
  586SOL    HW2 2374   2.052   1.416   1.090
  586SOL    HW3 2375   2.032   1.506   0.970
  586SOL    MW4 2376   2.061   1.493   1.051
  587SOL     OW 2377   1.879   1.644   1.212
  587SOL    HW2 2378   1.876   1.737   1.192
  587SOL    HW3 2379   1.961   1.614   1.173
  587SOL    MW4 2380   1.890   1.652   1.204
  588SOL     OW 2381   1.833   1.902   1.119
  588SOL    HW2 2382   1.755   1.937   1.162
  588SOL    HW3 2383   1.807   1.891   1.028
  588SOL    MW4 2384   1.819   1.905   1.113
  589SOL     OW 2385   2.044   2.083   1.198
  589SOL    HW2 2386   2.038   2.062   1.291
  589SOL    HW3 2387   1.975   2.031   1.157
  589SOL    MW4 2388   2.034   2.074   1.205
  590SOL     OW 2389   2.024   2.353   1.153
  590SOL    HW2 2390   2.106   2.387   1.190
  590SOL    HW3 2391   2.024   2.260   1.176
  590SOL    MW4 2392   2.035   2.346   1.161
  591SOL     OW 2393   1.783   2.443   1.278
  591SOL    HW2 2394   1.866   2.405   1.246
  591SOL    HW3 2395   1.715   2.399   1.227
  591SOL    MW4 2396   1.785   2.432   1.267
  592SOL     OW 2397   1.796   2.707   1.168
  592SOL    HW2 2398   1.810   2.624   1.213
  592SOL    HW3 2399   1.796   2.684   1.075
  592SOL    MW4 2400   1.798   2.693   1.161
  593SOL     OW 2401   2.025   2.847   1.225
  593SOL    HW2 2402   2.029   2.923   1.167
  593SOL    HW3 2403   1.937   2.811   1.212
  593SOL    MW4 2404   2.014   2.852   1.216
  594SOL     OW 2405   2.070   3.094   1.116
  594SOL    HW2 2406   1.999   3.157   1.134
  594SOL    HW3 2407   2.072   3.088   1.020
  594SOL    MW4 2408   2.061   3.102   1.105
  595SOL     OW 2409   1.830   3.236   1.166
  595SOL    HW2 2410   1.824   3.245   1.261
  595SOL    HW3 2411   1.824   3.325   1.133
  595SOL    MW4 2412   1.829   3.249   1.175
  596SOL     OW 2413   1.830   3.500   1.052
  596SOL    HW2 2414   1.906   3.544   1.092
  596SOL    HW3 2415   1.754   3.547   1.088
  596SOL    MW4 2416   1.830   3.512   1.062
  597SOL     OW 2417   2.019   3.630   1.205
  597SOL    HW2 2418   2.023   3.622   1.300
  597SOL    HW3 2419   2.097   3.584   1.174
  597SOL    MW4 2420   2.030   3.623   1.213
  598SOL     OW 2421   2.015   3.883   1.096
  598SOL    HW2 2422   1.946   3.934   1.138
  598SOL    HW3 2423   2.006   3.795   1.133
  598SOL    MW4 2424   2.005   3.878   1.107
  599SOL     OW 2425   1.811   4.050   1.192
  599SOL    HW2 2426   1.817   4.041   1.287
  599SOL    HW3 2427   1.729   4.005   1.169
  599SOL    MW4 2428   1.801   4.043   1.202
  600SOL     OW 2429   1.802   4.298   1.087
  600SOL    HW2 2430   1.807   4.211   1.129
  600SOL    HW3 2431   1.724   4.338   1.126
  600SOL    MW4 2432   1.792   4.291   1.098
  601SOL     OW 2433   2.040   4.414   1.151
  601SOL    HW2 2434   2.036   4.413   1.247
  601SOL    HW3 2435   1.956   4.376   1.124
  601SOL    MW4 2436   2.028   4.409   1.160
  602SOL     OW 2437   2.434   0.009   1.088
  602SOL    HW2 2438   2.513   0.034   1.137
  602SOL    HW3 2439   2.361   0.043   1.140
  602SOL    MW4 2440   2.435   0.017   1.101
  603SOL     OW 2441   2.239   0.153   1.241
  603SOL    HW2 2442   2.237   0.242   1.206
  603SOL    HW3 2443   2.186   0.102   1.180
  603SOL    MW4 2444   2.232   0.158   1.229
  604SOL     OW 2445   2.233   0.403   1.102
  604SOL    HW2 2446   2.160   0.456   1.134
  604SOL    HW3 2447   2.221   0.400   1.007
  604SOL    MW4 2448   2.222   0.410   1.094
  605SOL     OW 2449   2.456   0.550   1.186
  605SOL    HW2 2450   2.464   0.532   1.280
  605SOL    HW3 2451   2.372   0.509   1.162
  605SOL    MW4 2452   2.446   0.542   1.195
  606SOL     OW 2453   2.418   0.806   1.090
  606SOL    HW2 2454   2.437   0.714   1.110
  606SOL    HW3 2455   2.466   0.824   1.009
  606SOL    MW4 2456   2.427   0.796   1.082
  607SOL     OW 2457   2.204   0.907   1.217
  607SOL    HW2 2458   2.280   0.866   1.175
  607SOL    HW3 2459   2.128   0.873   1.169
  607SOL    MW4 2460   2.204   0.897   1.205
  608SOL     OW 2461   2.242   1.152   1.094
  608SOL    HW2 2462   2.330   1.185   1.109
  608SOL    HW3 2463   2.235   1.076   1.151
  608SOL    MW4 2464   2.252   1.147   1.104
  609SOL     OW 2465   2.493   1.245   1.186
  609SOL    HW2 2466   2.571   1.195   1.160
  609SOL    HW3 2467   2.510   1.333   1.153
  609SOL    MW4 2468   2.506   1.250   1.178
  610SOL     OW 2469   2.521   1.507   1.124
  610SOL    HW2 2470   2.433   1.536   1.150
  610SOL    HW3 2471   2.525   1.524   1.030
  610SOL    MW4 2472   2.510   1.513   1.115
  611SOL     OW 2473   2.266   1.636   1.216
  611SOL    HW2 2474   2.255   1.730   1.198
  611SOL    HW3 2475   2.211   1.593   1.151
  611SOL    MW4 2476   2.257   1.643   1.205
  612SOL     OW 2477   2.260   1.919   1.152
  612SOL    HW2 2478   2.197   1.989   1.171
  612SOL    HW3 2479   2.260   1.912   1.056
  612SOL    MW4 2480   2.252   1.928   1.142
  613SOL     OW 2481   2.514   2.063   1.231
  613SOL    HW2 2482   2.582   2.007   1.194
  613SOL    HW3 2483   2.432   2.018   1.211
  613SOL    MW4 2484   2.512   2.050   1.223
  614SOL     OW 2485   2.499   2.324   1.125
  614SOL    HW2 2486   2.507   2.231   1.147
  614SOL    HW3 2487   2.495   2.326   1.029
  614SOL    MW4 2488   2.499   2.312   1.115
  615SOL     OW 2489   2.252   2.450   1.236
  615SOL    HW2 2490   2.258   2.451   1.331
  615SOL    HW3 2491   2.325   2.396   1.207
  615SOL    MW4 2492   2.262   2.443   1.244
  616SOL     OW 2493   2.224   2.689   1.122
  616SOL    HW2 2494   2.228   2.605   1.168
  616SOL    HW3 2495   2.160   2.740   1.173
  616SOL    MW4 2496   2.216   2.684   1.135
  617SOL     OW 2497   2.459   2.845   1.199
  617SOL    HW2 2498   2.447   2.834   1.293
  617SOL    HW3 2499   2.395   2.786   1.159
  617SOL    MW4 2500   2.449   2.836   1.206
  618SOL     OW 2501   2.477   3.088   1.098
  618SOL    HW2 2502   2.407   3.138   1.141
  618SOL    HW3 2503   2.470   3.000   1.136
  618SOL    MW4 2504   2.467   3.083   1.109
  619SOL     OW 2505   2.276   3.253   1.202
  619SOL    HW2 2506   2.274   3.336   1.155
  619SOL    HW3 2507   2.198   3.207   1.172
  619SOL    MW4 2508   2.265   3.258   1.192
  620SOL     OW 2509   2.242   3.520   1.080
  620SOL    HW2 2510   2.328   3.551   1.109
  620SOL    HW3 2511   2.244   3.527   0.985
  620SOL    MW4 2512   2.254   3.525   1.072
  621SOL     OW 2513   2.468   3.624   1.180
  621SOL    HW2 2514   2.456   3.610   1.274
  621SOL    HW3 2515   2.483   3.718   1.171
  621SOL    MW4 2516   2.468   3.634   1.191
  622SOL     OW 2517   2.503   3.881   1.105
  622SOL    HW2 2518   2.418   3.913   1.135
  622SOL    HW3 2519   2.505   3.906   1.012
  622SOL    MW4 2520   2.492   3.889   1.097
  623SOL     OW 2521   2.252   3.981   1.182
  623SOL    HW2 2522   2.240   4.070   1.148
  623SOL    HW3 2523   2.171   3.936   1.160
  623SOL    MW4 2524   2.240   3.987   1.174
  624SOL     OW 2525   2.254   4.243   1.086
  624SOL    HW2 2526   2.174   4.291   1.108
  624SOL    HW3 2527   2.251   4.234   0.991
  624SOL    MW4 2528   2.243   4.248   1.077
  625SOL     OW 2529   2.468   4.418   1.160
  625SOL    HW2 2530   2.396   4.360   1.134
  625SOL    HW3 2531   2.441   4.505   1.129
  625SOL    MW4 2532   2.455   4.422   1.152
  626SOL     OW 2533   2.865   0.008   1.109
  626SOL    HW2 2534   2.879  -0.074   1.158
  626SOL    HW3 2535   2.836  -0.021   1.023
  626SOL    MW4 2536   2.863  -0.007   1.104
  627SOL     OW 2537   2.649   0.141   1.213
  627SOL    HW2 2538   2.661   0.141   1.308
  627SOL    HW3 2539   2.730   0.104   1.178
  627SOL    MW4 2540   2.661   0.136   1.221
  628SOL     OW 2541   2.650   0.402   1.064
  628SOL    HW2 2542   2.628   0.315   1.097
  628SOL    HW3 2543   2.581   0.458   1.099
  628SOL    MW4 2544   2.638   0.398   1.073
  629SOL     OW 2545   2.883   0.473   1.219
  629SOL    HW2 2546   2.867   0.562   1.185
  629SOL    HW3 2547   2.817   0.419   1.176
  629SOL    MW4 2548   2.872   0.478   1.209
  630SOL     OW 2549   2.896   0.738   1.101
  630SOL    HW2 2550   2.974   0.769   1.145
  630SOL    HW3 2551   2.823   0.782   1.145
  630SOL    MW4 2552   2.896   0.748   1.112
  631SOL     OW 2553   2.663   0.870   1.247
  631SOL    HW2 2554   2.689   0.955   1.211
  631SOL    HW3 2555   2.569   0.866   1.231
  631SOL    MW4 2556   2.654   0.881   1.240
  632SOL     OW 2557   2.702   1.098   1.095
  632SOL    HW2 2558   2.756   1.170   1.127
  632SOL    HW3 2559   2.692   1.115   1.001
  632SOL    MW4 2560   2.708   1.110   1.087
  633SOL     OW 2561   2.870   1.282   1.225
  633SOL    HW2 2562   2.885   1.286   1.319
  633SOL    HW3 2563   2.899   1.368   1.193
  633SOL    MW4 2564   2.876   1.294   1.233
  634SOL     OW 2565   2.944   1.534   1.086
  634SOL    HW2 2566   3.028   1.574   1.107
  634SOL    HW3 2567   2.937   1.541   0.991
  634SOL    MW4 2568   2.954   1.541   1.076
  635SOL     OW 2569   2.731   1.672   1.233
  635SOL    HW2 2570   2.806   1.633   1.188
  635SOL    HW3 2571   2.656   1.620   1.203
  635SOL    MW4 2572   2.731   1.660   1.223
  636SOL     OW 2573   2.755   1.933   1.114
  636SOL    HW2 2574   2.834   1.975   1.149
  636SOL    HW3 2575   2.745   1.854   1.167
  636SOL    MW4 2576   2.764   1.928   1.125
  637SOL     OW 2577   2.968   2.051   1.222
  637SOL    HW2 2578   2.954   2.056   1.317
  637SOL    HW3 2579   2.967   2.142   1.193
  637SOL    MW4 2580   2.966   2.064   1.231
  638SOL     OW 2581   2.948   2.327   1.164
  638SOL    HW2 2582   3.019   2.380   1.199
  638SOL    HW3 2583   2.869   2.364   1.204
  638SOL    MW4 2584   2.947   2.339   1.174
  639SOL     OW 2585   2.701   2.448   1.249
  639SOL    HW2 2586   2.706   2.455   1.345
  639SOL    HW3 2587   2.617   2.404   1.233
  639SOL    MW4 2588   2.691   2.443   1.260
  640SOL     OW 2589   2.703   2.704   1.151
  640SOL    HW2 2590   2.679   2.617   1.180
  640SOL    HW3 2591   2.627   2.759   1.171
  640SOL    MW4 2592   2.690   2.700   1.158
  641SOL     OW 2593   2.915   2.869   1.244
  641SOL    HW2 2594   2.923   2.851   1.337
  641SOL    HW3 2595   2.836   2.822   1.217
  641SOL    MW4 2596   2.906   2.860   1.253
  642SOL     OW 2597   2.958   3.131   1.116
  642SOL    HW2 2598   2.945   3.037   1.128
  642SOL    HW3 2599   2.922   3.149   1.029
  642SOL    MW4 2600   2.952   3.121   1.106
  643SOL     OW 2601   2.715   3.221   1.222
  643SOL    HW2 2602   2.793   3.177   1.191
  643SOL    HW3 2603   2.642   3.173   1.183
  643SOL    MW4 2604   2.715   3.209   1.213
  644SOL     OW 2605   2.698   3.459   1.090
  644SOL    HW2 2606   2.701   3.377   1.139
  644SOL    HW3 2607   2.618   3.502   1.120
  644SOL    MW4 2608   2.688   3.454   1.101
  645SOL     OW 2609   2.910   3.587   1.236
  645SOL    HW2 2610   2.990   3.571   1.186
  645SOL    HW3 2611   2.841   3.543   1.187
  645SOL    MW4 2612   2.912   3.579   1.223
  646SOL     OW 2613   2.943   3.843   1.142
  646SOL    HW2 2614   3.020   3.886   1.180
  646SOL    HW3 2615   2.942   3.757   1.182
  646SOL    MW4 2616   2.953   3.838   1.152
  647SOL     OW 2617   2.729   4.023   1.173
  647SOL    HW2 2618   2.806   3.966   1.163
  647SOL    HW3 2619   2.655   3.964   1.164
  647SOL    MW4 2620   2.730   4.007   1.171
  648SOL     OW 2621   2.693   4.296   1.075
  648SOL    HW2 2622   2.682   4.208   1.111
  648SOL    HW3 2623   2.619   4.346   1.110
  648SOL    MW4 2624   2.682   4.291   1.084
  649SOL     OW 2625   2.927   4.404   1.208
  649SOL    HW2 2626   3.001   4.352   1.179
  649SOL    HW3 2627   2.851   4.365   1.164
  649SOL    MW4 2628   2.926   4.392   1.198
  650SOL     OW 2629   3.339   4.604   1.129
  650SOL    HW2 2630   3.406   4.669   1.149
  650SOL    HW3 2631   3.256   4.651   1.138
  650SOL    MW4 2632   3.337   4.619   1.133
  651SOL     OW 2633   3.112   0.135   1.163
  651SOL    HW2 2634   3.125   0.126   1.257
  651SOL    HW3 2635   3.024   0.100   1.148
  651SOL    MW4 2636   3.102   0.129   1.173
  652SOL     OW 2637   3.131   0.397   1.101
  652SOL    HW2 2638   3.120   0.305   1.125
  652SOL    HW3 2639   3.045   0.437   1.117
  652SOL    MW4 2640   3.118   0.390   1.107
  653SOL     OW 2641   3.344   0.554   1.220
  653SOL    HW2 2642   3.348   0.626   1.157
  653SOL    HW3 2643   3.273   0.498   1.189
  653SOL    MW4 2644   3.335   0.556   1.208
  654SOL     OW 2645   3.328   0.788   1.068
  654SOL    HW2 2646   3.249   0.823   1.110
  654SOL    HW3 2647   3.304   0.777   0.976
  654SOL    MW4 2648   3.314   0.791   1.062
  655SOL     OW 2649   3.104   0.879   1.215
  655SOL    HW2 2650   3.115   0.889   1.309
  655SOL    HW3 2651   3.103   0.968   1.181
  655SOL    MW4 2652   3.105   0.892   1.223
  656SOL     OW 2653   3.082   1.131   1.124
  656SOL    HW2 2654   3.163   1.182   1.125
  656SOL    HW3 2655   3.015   1.193   1.151
  656SOL    MW4 2656   3.084   1.146   1.128
  657SOL     OW 2657   3.330   1.272   1.155
  657SOL    HW2 2658   3.340   1.259   1.249
  657SOL    HW3 2659   3.369   1.358   1.138
  657SOL    MW4 2660   3.337   1.282   1.165
  658SOL     OW 2661   3.391   1.518   1.094
  658SOL    HW2 2662   3.458   1.565   1.143
  658SOL    HW3 2663   3.308   1.551   1.128
  658SOL    MW4 2664   3.389   1.528   1.105
  659SOL     OW 2665   3.166   1.628   1.191
  659SOL    HW2 2666   3.158   1.633   1.286
  659SOL    HW3 2667   3.166   1.719   1.162
  659SOL    MW4 2668   3.165   1.641   1.200
  660SOL     OW 2669   3.168   1.875   1.084
  660SOL    HW2 2670   3.245   1.904   1.133
  660SOL    HW3 2671   3.095   1.919   1.126
  660SOL    MW4 2672   3.169   1.884   1.096
  661SOL     OW 2673   3.349   2.014   1.247
  661SOL    HW2 2674   3.428   1.969   1.219
  661SOL    HW3 2675   3.355   2.100   1.204
  661SOL    MW4 2676   3.360   2.020   1.237
  662SOL     OW 2677   3.385   2.273   1.148
  662SOL    HW2 2678   3.463   2.321   1.176
  662SOL    HW3 2679   3.312   2.323   1.187
  662SOL    MW4 2680   3.385   2.286   1.157
  663SOL     OW 2681   3.170   2.458   1.243
  663SOL    HW2 2682   3.147   2.462   1.336
  663SOL    HW3 2683   3.188   2.548   1.218
  663SOL    MW4 2684   3.170   2.470   1.252
  664SOL     OW 2685   3.152   2.731   1.158
  664SOL    HW2 2686   3.080   2.785   1.192
  664SOL    HW3 2687   3.134   2.724   1.064
  664SOL    MW4 2688   3.140   2.737   1.150
  665SOL     OW 2689   3.385   2.838   1.263
  665SOL    HW2 2690   3.408   2.924   1.226
  665SOL    HW3 2691   3.312   2.808   1.209
  665SOL    MW4 2692   3.378   2.846   1.251
  666SOL     OW 2693   3.410   3.087   1.137
  666SOL    HW2 2694   3.489   3.134   1.165
  666SOL    HW3 2695   3.338   3.144   1.164
  666SOL    MW4 2696   3.411   3.101   1.144
  667SOL     OW 2697   3.214   3.251   1.208
  667SOL    HW2 2698   3.178   3.327   1.163
  667SOL    HW3 2699   3.151   3.181   1.192
  667SOL    MW4 2700   3.201   3.252   1.200
  668SOL     OW 2701   3.152   3.498   1.103
  668SOL    HW2 2702   3.229   3.545   1.135
  668SOL    HW3 2703   3.175   3.471   1.014
  668SOL    MW4 2704   3.166   3.501   1.096
  669SOL     OW 2705   3.382   3.614   1.168
  669SOL    HW2 2706   3.381   3.632   1.262
  669SOL    HW3 2707   3.458   3.558   1.155
  669SOL    MW4 2708   3.392   3.609   1.178
  670SOL     OW 2709   3.411   3.887   1.126
  670SOL    HW2 2710   3.327   3.917   1.161
  670SOL    HW3 2711   3.411   3.792   1.139
  670SOL    MW4 2712   3.400   3.878   1.132
  671SOL     OW 2713   3.170   3.982   1.221
  671SOL    HW2 2714   3.164   3.978   1.316
  671SOL    HW3 2715   3.145   4.072   1.199
  671SOL    MW4 2716   3.166   3.993   1.231
  672SOL     OW 2717   3.133   4.242   1.141
  672SOL    HW2 2718   3.209   4.292   1.173
  672SOL    HW3 2719   3.145   4.239   1.046
  672SOL    MW4 2720   3.145   4.248   1.133
  673SOL     OW 2721   3.360   4.346   1.224
  673SOL    HW2 2722   3.442   4.303   1.200
  673SOL    HW3 2723   3.367   4.434   1.188
  673SOL    MW4 2724   3.372   4.352   1.216
  674SOL     OW 2725   3.802   4.647   1.114
  674SOL    HW2 2726   3.802   4.555   1.141
  674SOL    HW3 2727   3.813   4.644   1.019
  674SOL    MW4 2728   3.804   4.634   1.105
  675SOL     OW 2729   3.548   0.093   1.202
  675SOL    HW2 2730   3.543   0.184   1.173
  675SOL    HW3 2731   3.630   0.061   1.164
  675SOL    MW4 2732   3.558   0.101   1.193
  676SOL     OW 2733   3.562   0.388   1.149
  676SOL    HW2 2734   3.639   0.443   1.165
  676SOL    HW3 2735   3.487   0.444   1.169
  676SOL    MW4 2736   3.562   0.403   1.154
  677SOL     OW 2737   3.790   0.524   1.206
  677SOL    HW2 2738   3.869   0.481   1.173
  677SOL    HW3 2739   3.793   0.612   1.169
  677SOL    MW4 2740   3.801   0.530   1.197
  678SOL     OW 2741   3.803   0.781   1.090
  678SOL    HW2 2742   3.882   0.818   1.130
  678SOL    HW3 2743   3.731   0.831   1.127
  678SOL    MW4 2744   3.804   0.793   1.100
  679SOL     OW 2745   3.570   0.921   1.123
  679SOL    HW2 2746   3.580   1.005   1.078
  679SOL    HW3 2747   3.478   0.896   1.107
  679SOL    MW4 2748   3.559   0.929   1.115
  680SOL     OW 2749   3.597   1.195   1.056
  680SOL    HW2 2750   3.668   1.236   1.106
  680SOL    HW3 2751   3.518   1.214   1.107
  680SOL    MW4 2752   3.596   1.203   1.069
  681SOL     OW 2753   3.815   1.304   1.225
  681SOL    HW2 2754   3.786   1.307   1.316
  681SOL    HW3 2755   3.825   1.396   1.200
  681SOL    MW4 2756   3.812   1.317   1.234
  682SOL     OW 2757   3.833   1.560   1.110
  682SOL    HW2 2758   3.907   1.611   1.143
  682SOL    HW3 2759   3.847   1.557   1.015
  682SOL    MW4 2760   3.845   1.566   1.102
  683SOL     OW 2761   3.590   1.673   1.214
  683SOL    HW2 2762   3.576   1.758   1.170
  683SOL    HW3 2763   3.675   1.644   1.180
  683SOL    MW4 2764   3.600   1.681   1.204
  684SOL     OW 2765   3.574   1.930   1.123
  684SOL    HW2 2766   3.650   1.982   1.150
  684SOL    HW3 2767   3.555   1.960   1.035
  684SOL    MW4 2768   3.582   1.941   1.115
  685SOL     OW 2769   3.803   2.087   1.183
  685SOL    HW2 2770   3.819   2.068   1.275
  685SOL    HW3 2771   3.886   2.069   1.140
  685SOL    MW4 2772   3.816   2.082   1.189
  686SOL     OW 2773   3.814   2.355   1.119
  686SOL    HW2 2774   3.898   2.384   1.155
  686SOL    HW3 2775   3.807   2.263   1.144
  686SOL    MW4 2776   3.824   2.347   1.127
  687SOL     OW 2777   3.579   2.457   1.249
  687SOL    HW2 2778   3.585   2.456   1.345
  687SOL    HW3 2779   3.662   2.420   1.220
  687SOL    MW4 2780   3.591   2.452   1.258
  688SOL     OW 2781   3.599   2.700   1.135
  688SOL    HW2 2782   3.598   2.620   1.188
  688SOL    HW3 2783   3.533   2.757   1.177
  688SOL    MW4 2784   3.590   2.697   1.148
  689SOL     OW 2785   3.848   2.808   1.193
  689SOL    HW2 2786   3.854   2.810   1.289
  689SOL    HW3 2787   3.761   2.775   1.175
  689SOL    MW4 2788   3.838   2.804   1.204
  690SOL     OW 2789   3.837   3.075   1.118
  690SOL    HW2 2790   3.846   2.983   1.142
  690SOL    HW3 2791   3.801   3.074   1.030
  690SOL    MW4 2792   3.833   3.063   1.110
  691SOL     OW 2793   3.618   3.233   1.234
  691SOL    HW2 2794   3.597   3.299   1.167
  691SOL    HW3 2795   3.691   3.184   1.197
  691SOL    MW4 2796   3.624   3.235   1.220
  692SOL     OW 2797   3.618   3.479   1.089
  692SOL    HW2 2798   3.691   3.523   1.134
  692SOL    HW3 2799   3.633   3.497   0.996
  692SOL    MW4 2800   3.630   3.487   1.083
  693SOL     OW 2801   3.818   3.631   1.198
  693SOL    HW2 2802   3.839   3.632   1.291
  693SOL    HW3 2803   3.849   3.715   1.164
  693SOL    MW4 2804   3.825   3.642   1.205
  694SOL     OW 2805   3.873   3.883   1.109
  694SOL    HW2 2806   3.793   3.912   1.152
  694SOL    HW3 2807   3.843   3.849   1.024
  694SOL    MW4 2808   3.859   3.883   1.103
  695SOL     OW 2809   3.644   3.967   1.244
  695SOL    HW2 2810   3.626   3.958   1.338
  695SOL    HW3 2811   3.563   3.938   1.202
  695SOL    MW4 2812   3.630   3.962   1.251
  696SOL     OW 2813   3.618   4.231   1.147
  696SOL    HW2 2814   3.641   4.147   1.186
  696SOL    HW3 2815   3.626   4.217   1.053
  696SOL    MW4 2816   3.622   4.218   1.140
  697SOL     OW 2817   3.846   4.389   1.201
  697SOL    HW2 2818   3.840   4.402   1.296
  697SOL    HW3 2819   3.773   4.331   1.179
  697SOL    MW4 2820   3.836   4.383   1.211
  698SOL     OW 2821   4.322   4.658   1.094
  698SOL    HW2 2822   4.337   4.567   1.119
  698SOL    HW3 2823   4.240   4.681   1.136
  698SOL    MW4 2824   4.313   4.649   1.103
  699SOL     OW 2825   4.046   0.096   1.206
  699SOL    HW2 2826   4.069   0.093   1.299
  699SOL    HW3 2827   3.959   0.055   1.201
  699SOL    MW4 2828   4.037   0.090   1.218
  700SOL     OW 2829   4.033   0.367   1.123
  700SOL    HW2 2830   4.028   0.274   1.144
  700SOL    HW3 2831   4.005   0.372   1.032
  700SOL    MW4 2832   4.029   0.356   1.114
  701SOL     OW 2833   4.262   0.496   1.199
  701SOL    HW2 2834   4.274   0.495   1.294
  701SOL    HW3 2835   4.185   0.440   1.184
  701SOL    MW4 2836   4.253   0.489   1.210
  702SOL     OW 2837   4.253   0.779   1.115
  702SOL    HW2 2838   4.262   0.689   1.148
  702SOL    HW3 2839   4.246   0.769   1.020
  702SOL    MW4 2840   4.253   0.766   1.107
  703SOL     OW 2841   4.027   0.908   1.203
  703SOL    HW2 2842   4.018   0.914   1.298
  703SOL    HW3 2843   4.106   0.857   1.189
  703SOL    MW4 2844   4.036   0.902   1.213
  704SOL     OW 2845   4.065   1.187   1.173
  704SOL    HW2 2846   4.062   1.096   1.202
  704SOL    HW3 2847   3.979   1.222   1.195
  704SOL    MW4 2848   4.053   1.180   1.180
  705SOL     OW 2849   4.321   1.295   1.207
  705SOL    HW2 2850   4.330   1.295   1.302
  705SOL    HW3 2851   4.230   1.268   1.191
  705SOL    MW4 2852   4.310   1.292   1.217
  706SOL     OW 2853   4.269   1.552   1.143
  706SOL    HW2 2854   4.270   1.462   1.173
  706SOL    HW3 2855   4.352   1.589   1.174
  706SOL    MW4 2856   4.280   1.545   1.151
  707SOL     OW 2857   4.048   1.712   1.230
  707SOL    HW2 2858   4.033   1.685   1.320
  707SOL    HW3 2859   4.128   1.667   1.204
  707SOL    MW4 2860   4.056   1.702   1.238
  708SOL     OW 2861   4.029   1.946   1.074
  708SOL    HW2 2862   4.026   1.861   1.117
  708SOL    HW3 2863   4.014   1.927   0.981
  708SOL    MW4 2864   4.027   1.933   1.067
  709SOL     OW 2865   4.266   2.060   1.216
  709SOL    HW2 2866   4.288   2.148   1.186
  709SOL    HW3 2867   4.184   2.039   1.170
  709SOL    MW4 2868   4.258   2.069   1.206
  710SOL     OW 2869   4.288   2.312   1.085
  710SOL    HW2 2870   4.207   2.339   1.128
  710SOL    HW3 2871   4.263   2.296   0.994
  710SOL    MW4 2872   4.274   2.313   1.079
  711SOL     OW 2873   4.075   2.424   1.208
  711SOL    HW2 2874   4.066   2.422   1.304
  711SOL    HW3 2875   4.072   2.517   1.186
  711SOL    MW4 2876   4.074   2.436   1.218
  712SOL     OW 2877   4.066   2.671   1.100
  712SOL    HW2 2878   3.996   2.726   1.135
  712SOL    HW3 2879   4.039   2.653   1.009
  712SOL    MW4 2880   4.053   2.676   1.092
  713SOL     OW 2881   4.226   2.834   1.257
  713SOL    HW2 2882   4.238   2.918   1.213
  713SOL    HW3 2883   4.164   2.786   1.201
  713SOL    MW4 2884   4.219   2.838   1.244
  714SOL     OW 2885   4.297   3.076   1.117
  714SOL    HW2 2886   4.223   3.132   1.138
  714SOL    HW3 2887   4.294   3.066   1.022
  714SOL    MW4 2888   4.287   3.082   1.107
  715SOL     OW 2889   4.082   3.232   1.202
  715SOL    HW2 2890   4.082   3.230   1.298
  715SOL    HW3 2891   4.019   3.165   1.176
  715SOL    MW4 2892   4.074   3.223   1.212
  716SOL     OW 2893   4.032   3.482   1.086
  716SOL    HW2 2894   4.038   3.392   1.119
  716SOL    HW3 2895   3.958   3.519   1.135
  716SOL    MW4 2896   4.023   3.475   1.097
  717SOL     OW 2897   4.286   3.593   1.200
  717SOL    HW2 2898   4.216   3.544   1.156
  717SOL    HW3 2899   4.367   3.549   1.174
  717SOL    MW4 2900   4.287   3.581   1.191
  718SOL     OW 2901   4.316   3.870   1.185
  718SOL    HW2 2902   4.239   3.902   1.232
  718SOL    HW3 2903   4.303   3.775   1.181
  718SOL    MW4 2904   4.304   3.862   1.190
  719SOL     OW 2905   4.073   3.995   1.267
  719SOL    HW2 2906   4.075   4.082   1.227
  719SOL    HW3 2907   4.005   3.948   1.218
  719SOL    MW4 2908   4.064   4.000   1.255
  720SOL     OW 2909   4.070   4.247   1.163
  720SOL    HW2 2910   3.994   4.301   1.182
  720SOL    HW3 2911   4.065   4.228   1.070
  720SOL    MW4 2912   4.059   4.251   1.153
  721SOL     OW 2913   4.307   4.408   1.213
  721SOL    HW2 2914   4.238   4.351   1.180
  721SOL    HW3 2915   4.388   4.366   1.185
  721SOL    MW4 2916   4.308   4.395   1.205
  722SOL     OW 2917   0.208   4.639   1.619
  722SOL    HW2 2918   0.288   4.664   1.574
  722SOL    HW3 2919   0.139   4.690   1.577
  722SOL    MW4 2920   0.209   4.649   1.608
  723SOL     OW 2921   0.000   0.105   1.502
  723SOL    HW2 2922  -0.076   0.048   1.513
  723SOL    HW3 2923   0.020   0.101   1.409
  723SOL    MW4 2924  -0.008   0.097   1.491
  724SOL     OW 2925   0.042   0.382   1.618
  724SOL    HW2 2926   0.033   0.384   1.713
  724SOL    HW3 2927   0.029   0.291   1.595
  724SOL    MW4 2928   0.039   0.371   1.628
  725SOL     OW 2929   0.288   0.475   1.508
  725SOL    HW2 2930   0.211   0.440   1.553
  725SOL    HW3 2931   0.267   0.468   1.415
  725SOL    MW4 2932   0.275   0.469   1.502
  726SOL     OW 2933   0.236   0.770   1.543
  726SOL    HW2 2934   0.318   0.816   1.524
  726SOL    HW3 2935   0.258   0.678   1.530
  726SOL    MW4 2936   0.250   0.764   1.538
  727SOL     OW 2937   4.484   0.885   1.476
  727SOL    HW2 2938   4.476   0.974   1.510
  727SOL    HW3 2939   4.557   0.847   1.526
  727SOL    MW4 2940   4.493   0.892   1.487
  728SOL     OW 2941   4.482   1.146   1.587
  728SOL    HW2 2942   4.479   1.130   1.681
  728SOL    HW3 2943   4.568   1.184   1.571
  728SOL    MW4 2944   4.493   1.149   1.597
  729SOL     OW 2945   0.239   1.241   1.498
  729SOL    HW2 2946   0.260   1.332   1.520
  729SOL    HW3 2947   0.245   1.238   1.402
  729SOL    MW4 2948   0.242   1.253   1.488
  730SOL     OW 2949   0.270   1.508   1.562
  730SOL    HW2 2950   0.255   1.513   1.656
  730SOL    HW3 2951   0.185   1.527   1.522
  730SOL    MW4 2952   0.257   1.511   1.569
  731SOL     OW 2953   0.033   1.655   1.511
  731SOL    HW2 2954   0.034   1.749   1.525
  731SOL    HW3 2955   0.021   1.645   1.416
  731SOL    MW4 2956   0.032   1.666   1.500
  732SOL     OW 2957   0.041   1.913   1.588
  732SOL    HW2 2958   0.033   1.916   1.684
  732SOL    HW3 2959  -0.042   1.950   1.556
  732SOL    MW4 2960   0.029   1.918   1.597
  733SOL     OW 2961   0.244   2.053   1.476
  733SOL    HW2 2962   0.176   1.994   1.509
  733SOL    HW3 2963   0.231   2.054   1.381
  733SOL    MW4 2964   0.233   2.045   1.468
  734SOL     OW 2965   0.225   2.321   1.597
  734SOL    HW2 2966   0.235   2.311   1.692
  734SOL    HW3 2967   0.224   2.231   1.564
  734SOL    MW4 2968   0.226   2.307   1.605
  735SOL     OW 2969   4.481   2.432   1.483
  735SOL    HW2 2970   4.410   2.381   1.522
  735SOL    HW3 2971   4.560   2.399   1.526
  735SOL    MW4 2972   4.482   2.421   1.494
  736SOL     OW 2973   4.480   2.700   1.553
  736SOL    HW2 2974   4.397   2.747   1.542
  736SOL    HW3 2975   4.465   2.616   1.511
  736SOL    MW4 2976   4.467   2.695   1.546
  737SOL     OW 2977   0.224   2.840   1.482
  737SOL    HW2 2978   0.288   2.786   1.528
  737SOL    HW3 2979   0.140   2.799   1.501
  737SOL    MW4 2980   0.221   2.827   1.491
  738SOL     OW 2981   0.242   3.099   1.585
  738SOL    HW2 2982   0.164   3.137   1.544
  738SOL    HW3 2983   0.243   3.008   1.555
  738SOL    MW4 2984   0.232   3.092   1.576
  739SOL     OW 2985   0.003   3.203   1.485
  739SOL    HW2 2986   0.022   3.294   1.511
  739SOL    HW3 2987   0.008   3.205   1.390
  739SOL    MW4 2988   0.007   3.215   1.476
  740SOL     OW 2989   0.045   3.467   1.559
  740SOL    HW2 2990   0.043   3.484   1.653
  740SOL    HW3 2991  -0.039   3.500   1.526
  740SOL    MW4 2992   0.034   3.473   1.567
  741SOL     OW 2993   0.289   3.593   1.465
  741SOL    HW2 2994   0.287   3.668   1.524
  741SOL    HW3 2995   0.210   3.543   1.488
  741SOL    MW4 2996   0.278   3.596   1.476
  742SOL     OW 2997   0.272   3.849   1.593
  742SOL    HW2 2998   0.278   3.860   1.688
  742SOL    HW3 2999   0.353   3.885   1.559
  742SOL    MW4 3000   0.283   3.855   1.601
  743SOL     OW 3001   0.021   3.974   1.507
  743SOL    HW2 3002   0.020   4.064   1.539
  743SOL    HW3 3003   0.095   3.933   1.553
  743SOL    MW4 3004   0.031   3.980   1.517
  744SOL     OW 3005   0.022   4.229   1.595
  744SOL    HW2 3006   0.025   4.210   1.689
  744SOL    HW3 3007  -0.060   4.277   1.583
  744SOL    MW4 3008   0.011   4.232   1.606
  745SOL     OW 3009   0.222   4.392   1.492
  745SOL    HW2 3010   0.138   4.349   1.504
  745SOL    HW3 3011   0.213   4.476   1.539
  745SOL    MW4 3012   0.210   4.398   1.500
  746SOL     OW 3013   0.689   4.615   1.584
  746SOL    HW2 3014   0.763   4.670   1.558
  746SOL    HW3 3015   0.612   4.660   1.551
  746SOL    MW4 3016   0.689   4.628   1.576
  747SOL     OW 3017   0.453   0.048   1.488
  747SOL    HW2 3018   0.461   0.135   1.527
  747SOL    HW3 3019   0.445   0.065   1.394
  747SOL    MW4 3020   0.453   0.062   1.481
  748SOL     OW 3021   0.514   0.313   1.583
  748SOL    HW2 3022   0.590   0.363   1.555
  748SOL    HW3 3023   0.440   0.357   1.541
  748SOL    MW4 3024   0.514   0.326   1.573
  749SOL     OW 3025   0.693   0.509   1.470
  749SOL    HW2 3026   0.668   0.598   1.494
  749SOL    HW3 3027   0.688   0.507   1.375
  749SOL    MW4 3028   0.689   0.520   1.461
  750SOL     OW 3029   0.648   0.760   1.575
  750SOL    HW2 3030   0.636   0.777   1.668
  750SOL    HW3 3031   0.731   0.803   1.553
  750SOL    MW4 3032   0.658   0.768   1.584
  751SOL     OW 3033   0.460   0.912   1.476
  751SOL    HW2 3034   0.474   1.001   1.511
  751SOL    HW3 3035   0.525   0.858   1.522
  751SOL    MW4 3036   0.471   0.917   1.487
  752SOL     OW 3037   0.478   1.145   1.612
  752SOL    HW2 3038   0.543   1.210   1.588
  752SOL    HW3 3039   0.394   1.183   1.585
  752SOL    MW4 3040   0.475   1.159   1.605
  753SOL     OW 3041   0.699   1.291   1.485
  753SOL    HW2 3042   0.708   1.380   1.519
  753SOL    HW3 3043   0.707   1.301   1.390
  753SOL    MW4 3044   0.701   1.304   1.477
  754SOL     OW 3045   0.725   1.544   1.598
  754SOL    HW2 3046   0.812   1.583   1.593
  754SOL    HW3 3047   0.671   1.598   1.541
  754SOL    MW4 3048   0.729   1.556   1.590
  755SOL     OW 3049   0.507   1.645   1.444
  755SOL    HW2 3050   0.476   1.731   1.474
  755SOL    HW3 3051   0.446   1.582   1.482
  755SOL    MW4 3052   0.495   1.648   1.453
  756SOL     OW 3053   0.448   1.896   1.571
  756SOL    HW2 3054   0.438   1.880   1.665
  756SOL    HW3 3055   0.386   1.967   1.552
  756SOL    MW4 3056   0.438   1.903   1.581
  757SOL     OW 3057   0.668   2.070   1.508
  757SOL    HW2 3058   0.747   2.046   1.556
  757SOL    HW3 3059   0.605   2.000   1.528
  757SOL    MW4 3060   0.670   2.058   1.517
  758SOL     OW 3061   0.697   2.312   1.616
  758SOL    HW2 3062   0.631   2.366   1.571
  758SOL    HW3 3063   0.680   2.223   1.584
  758SOL    MW4 3064   0.686   2.307   1.606
  759SOL     OW 3065   0.472   2.447   1.521
  759SOL    HW2 3066   0.460   2.534   1.559
  759SOL    HW3 3067   0.392   2.399   1.545
  759SOL    MW4 3068   0.460   2.452   1.529
  760SOL     OW 3069   0.434   2.703   1.608
  760SOL    HW2 3070   0.443   2.700   1.703
  760SOL    HW3 3071   0.515   2.744   1.577
  760SOL    MW4 3072   0.445   2.708   1.616
  761SOL     OW 3073   0.665   2.824   1.490
  761SOL    HW2 3074   0.658   2.911   1.531
  761SOL    HW3 3075   0.658   2.841   1.396
  761SOL    MW4 3076   0.663   2.838   1.483
  762SOL     OW 3077   0.682   3.069   1.573
  762SOL    HW2 3078   0.757   3.117   1.538
  762SOL    HW3 3079   0.606   3.114   1.537
  762SOL    MW4 3080   0.682   3.081   1.563
  763SOL     OW 3081   0.475   3.205   1.453
  763SOL    HW2 3082   0.390   3.168   1.479
  763SOL    HW3 3083   0.465   3.223   1.360
  763SOL    MW4 3084   0.462   3.202   1.444
  764SOL     OW 3085   0.493   3.452   1.599
  764SOL    HW2 3086   0.511   3.367   1.558
  764SOL    HW3 3087   0.411   3.481   1.560
  764SOL    MW4 3088   0.485   3.444   1.588
  765SOL     OW 3089   0.730   3.587   1.498
  765SOL    HW2 3090   0.795   3.530   1.540
  765SOL    HW3 3091   0.646   3.554   1.529
  765SOL    MW4 3092   0.728   3.575   1.508
  766SOL     OW 3093   0.714   3.835   1.609
  766SOL    HW2 3094   0.791   3.886   1.585
  766SOL    HW3 3095   0.728   3.750   1.567
  766SOL    MW4 3096   0.726   3.830   1.600
  767SOL     OW 3097   0.477   4.004   1.468
  767SOL    HW2 3098   0.564   3.970   1.489
  767SOL    HW3 3099   0.479   4.018   1.373
  767SOL    MW4 3100   0.488   4.001   1.458
  768SOL     OW 3101   0.432   4.262   1.635
  768SOL    HW2 3102   0.445   4.176   1.593
  768SOL    HW3 3103   0.360   4.301   1.586
  768SOL    MW4 3104   0.424   4.256   1.623
  769SOL     OW 3105   0.660   4.365   1.480
  769SOL    HW2 3106   0.589   4.318   1.523
  769SOL    HW3 3107   0.653   4.454   1.514
  769SOL    MW4 3108   0.649   4.371   1.490
  770SOL     OW 3109   1.116   4.643   1.572
  770SOL    HW2 3110   1.102   4.634   1.666
  770SOL    HW3 3111   1.196   4.695   1.565
  770SOL    MW4 3112   1.124   4.649   1.584
  771SOL     OW 3113   0.899   0.116   1.473
  771SOL    HW2 3114   0.891   0.196   1.525
  771SOL    HW3 3115   0.978   0.074   1.504
  771SOL    MW4 3116   0.908   0.121   1.484
  772SOL     OW 3117   0.904   0.369   1.595
  772SOL    HW2 3118   0.895   0.358   1.690
  772SOL    HW3 3119   0.825   0.417   1.569
  772SOL    MW4 3120   0.893   0.374   1.604
  773SOL     OW 3121   1.116   0.523   1.521
  773SOL    HW2 3122   1.115   0.605   1.570
  773SOL    HW3 3123   1.038   0.476   1.552
  773SOL    MW4 3124   1.105   0.528   1.532
  774SOL     OW 3125   1.126   0.784   1.620
  774SOL    HW2 3126   1.145   0.775   1.713
  774SOL    HW3 3127   1.203   0.828   1.584
  774SOL    MW4 3128   1.139   0.788   1.627
  775SOL     OW 3129   0.885   0.904   1.513
  775SOL    HW2 3130   0.963   0.872   1.559
  775SOL    HW3 3131   0.914   0.916   1.423
  775SOL    MW4 3132   0.899   0.902   1.507
  776SOL     OW 3133   0.932   1.167   1.555
  776SOL    HW2 3134   0.924   1.072   1.546
  776SOL    HW3 3135   0.848   1.202   1.525
  776SOL    MW4 3136   0.920   1.159   1.550
  777SOL     OW 3137   1.146   1.327   1.423
  777SOL    HW2 3138   1.218   1.276   1.461
  777SOL    HW3 3139   1.067   1.289   1.462
  777SOL    MW4 3140   1.145   1.315   1.433
  778SOL     OW 3141   1.145   1.575   1.550
  778SOL    HW2 3142   1.227   1.622   1.540
  778SOL    HW3 3143   1.156   1.495   1.498
  778SOL    MW4 3144   1.157   1.571   1.542
  779SOL     OW 3145   0.915   1.716   1.496
  779SOL    HW2 3146   0.994   1.666   1.517
  779SOL    HW3 3147   0.904   1.704   1.402
  779SOL    MW4 3148   0.924   1.708   1.487
  780SOL     OW 3149   0.891   1.976   1.611
  780SOL    HW2 3150   0.969   2.004   1.564
  780SOL    HW3 3151   0.890   1.880   1.601
  780SOL    MW4 3152   0.901   1.967   1.604
  781SOL     OW 3153   1.131   2.061   1.492
  781SOL    HW2 3154   1.216   2.034   1.526
  781SOL    HW3 3155   1.124   2.154   1.514
  781SOL    MW4 3156   1.141   2.070   1.500
  782SOL     OW 3157   1.146   2.309   1.583
  782SOL    HW2 3158   1.224   2.359   1.559
  782SOL    HW3 3159   1.073   2.357   1.543
  782SOL    MW4 3160   1.147   2.322   1.575
  783SOL     OW 3161   0.913   2.425   1.492
  783SOL    HW2 3162   0.910   2.507   1.542
  783SOL    HW3 3163   0.838   2.375   1.524
  783SOL    MW4 3164   0.903   2.429   1.503
  784SOL     OW 3165   0.876   2.670   1.588
  784SOL    HW2 3166   0.881   2.689   1.681
  784SOL    HW3 3167   0.801   2.721   1.557
  784SOL    MW4 3168   0.867   2.679   1.596
  785SOL     OW 3169   1.089   2.814   1.441
  785SOL    HW2 3170   1.084   2.895   1.493
  785SOL    HW3 3171   1.024   2.756   1.480
  785SOL    MW4 3172   1.080   2.817   1.453
  786SOL     OW 3173   1.111   3.042   1.584
  786SOL    HW2 3174   1.107   3.040   1.680
  786SOL    HW3 3175   1.182   3.102   1.564
  786SOL    MW4 3176   1.120   3.050   1.594
  787SOL     OW 3177   0.906   3.218   1.493
  787SOL    HW2 3178   0.985   3.175   1.525
  787SOL    HW3 3179   0.913   3.213   1.398
  787SOL    MW4 3180   0.917   3.212   1.484
  788SOL     OW 3181   0.934   3.456   1.624
  788SOL    HW2 3182   0.995   3.514   1.577
  788SOL    HW3 3183   0.932   3.376   1.571
  788SOL    MW4 3184   0.942   3.453   1.611
  789SOL     OW 3185   1.126   3.619   1.510
  789SOL    HW2 3186   1.203   3.568   1.535
  789SOL    HW3 3187   1.141   3.641   1.418
  789SOL    MW4 3188   1.138   3.615   1.501
  790SOL     OW 3189   1.138   3.871   1.636
  790SOL    HW2 3190   1.214   3.923   1.607
  790SOL    HW3 3191   1.149   3.787   1.592
  790SOL    MW4 3192   1.150   3.867   1.626
  791SOL     OW 3193   0.917   3.988   1.504
  791SOL    HW2 3194   0.912   4.081   1.528
  791SOL    HW3 3195   0.992   3.955   1.553
  791SOL    MW4 3196   0.926   3.996   1.513
  792SOL     OW 3197   0.894   4.238   1.586
  792SOL    HW2 3198   0.898   4.234   1.681
  792SOL    HW3 3199   0.813   4.285   1.568
  792SOL    MW4 3200   0.884   4.244   1.596
  793SOL     OW 3201   1.109   4.376   1.479
  793SOL    HW2 3202   1.043   4.321   1.521
  793SOL    HW3 3203   1.092   4.464   1.515
  793SOL    MW4 3204   1.098   4.381   1.490
  794SOL     OW 3205   1.590   4.628   1.570
  794SOL    HW2 3206   1.601   4.634   1.665
  794SOL    HW3 3207   1.513   4.680   1.550
  794SOL    MW4 3208   1.581   4.635   1.580
  795SOL     OW 3209   1.349   0.104   1.524
  795SOL    HW2 3210   1.359   0.194   1.555
  795SOL    HW3 3211   1.339   0.112   1.429
  795SOL    MW4 3212   1.349   0.117   1.515
  796SOL     OW 3213   1.346   0.384   1.609
  796SOL    HW2 3214   1.419   0.445   1.595
  796SOL    HW3 3215   1.270   0.428   1.571
  796SOL    MW4 3216   1.346   0.398   1.602
  797SOL     OW 3217   1.571   0.534   1.525
  797SOL    HW2 3218   1.646   0.488   1.563
  797SOL    HW3 3219   1.575   0.512   1.431
  797SOL    MW4 3220   1.581   0.525   1.517
  798SOL     OW 3221   1.560   0.790   1.624
  798SOL    HW2 3222   1.534   0.772   1.715
  798SOL    HW3 3223   1.564   0.703   1.583
  798SOL    MW4 3224   1.557   0.776   1.631
  799SOL     OW 3225   1.352   0.929   1.515
  799SOL    HW2 3226   1.435   0.893   1.547
  799SOL    HW3 3227   1.360   0.926   1.420
  799SOL    MW4 3228   1.364   0.924   1.507
  800SOL     OW 3229   1.338   1.198   1.582
  800SOL    HW2 3230   1.334   1.205   1.678
  800SOL    HW3 3231   1.324   1.105   1.565
  800SOL    MW4 3232   1.336   1.187   1.593
  801SOL     OW 3233   1.601   1.293   1.484
  801SOL    HW2 3234   1.530   1.245   1.526
  801SOL    HW3 3235   1.596   1.268   1.392
  801SOL    MW4 3236   1.591   1.283   1.477
  802SOL     OW 3237   1.587   1.545   1.582
  802SOL    HW2 3238   1.595   1.551   1.677
  802SOL    HW3 3239   1.582   1.451   1.564
  802SOL    MW4 3240   1.587   1.533   1.592
  803SOL     OW 3241   1.381   1.716   1.498
  803SOL    HW2 3242   1.442   1.657   1.542
  803SOL    HW3 3243   1.390   1.696   1.405
  803SOL    MW4 3244   1.390   1.706   1.492
  804SOL     OW 3245   1.361   1.972   1.598
  804SOL    HW2 3246   1.335   1.971   1.690
  804SOL    HW3 3247   1.361   1.880   1.572
  804SOL    MW4 3248   1.358   1.960   1.607
  805SOL     OW 3249   1.597   2.062   1.496
  805SOL    HW2 3250   1.517   2.021   1.529
  805SOL    HW3 3251   1.597   2.042   1.402
  805SOL    MW4 3252   1.586   2.054   1.488
  806SOL     OW 3253   1.574   2.308   1.624
  806SOL    HW2 3254   1.663   2.343   1.613
  806SOL    HW3 3255   1.573   2.229   1.571
  806SOL    MW4 3256   1.586   2.302   1.616
  807SOL     OW 3257   1.368   2.457   1.502
  807SOL    HW2 3258   1.363   2.551   1.521
  807SOL    HW3 3259   1.448   2.428   1.546
  807SOL    MW4 3260   1.378   2.466   1.510
  808SOL     OW 3261   1.337   2.726   1.553
  808SOL    HW2 3262   1.414   2.779   1.532
  808SOL    HW3 3263   1.265   2.769   1.506
  808SOL    MW4 3264   1.337   2.739   1.544
  809SOL     OW 3265   1.580   2.850   1.493
  809SOL    HW2 3266   1.634   2.777   1.522
  809SOL    HW3 3267   1.583   2.845   1.397
  809SOL    MW4 3268   1.588   2.840   1.484
  810SOL     OW 3269   1.569   3.114   1.583
  810SOL    HW2 3270   1.651   3.158   1.560
  810SOL    HW3 3271   1.584   3.022   1.559
  810SOL    MW4 3272   1.582   3.108   1.577
  811SOL     OW 3273   1.330   3.226   1.502
  811SOL    HW2 3274   1.325   3.313   1.542
  811SOL    HW3 3275   1.418   3.195   1.522
  811SOL    MW4 3276   1.341   3.234   1.510
  812SOL     OW 3277   1.365   3.490   1.593
  812SOL    HW2 3278   1.387   3.480   1.685
  812SOL    HW3 3279   1.430   3.552   1.559
  812SOL    MW4 3280   1.377   3.497   1.601
  813SOL     OW 3281   1.575   3.617   1.480
  813SOL    HW2 3282   1.588   3.706   1.511
  813SOL    HW3 3283   1.625   3.612   1.398
  813SOL    MW4 3284   1.583   3.628   1.473
  814SOL     OW 3285   1.603   3.876   1.596
  814SOL    HW2 3286   1.602   3.862   1.691
  814SOL    HW3 3287   1.514   3.904   1.575
  814SOL    MW4 3288   1.591   3.878   1.606
  815SOL     OW 3289   1.357   4.011   1.535
  815SOL    HW2 3290   1.360   4.094   1.583
  815SOL    HW3 3291   1.369   4.036   1.443
  815SOL    MW4 3292   1.359   4.025   1.529
  816SOL     OW 3293   1.345   4.253   1.636
  816SOL    HW2 3294   1.421   4.296   1.597
  816SOL    HW3 3295   1.269   4.297   1.598
  816SOL    MW4 3296   1.345   4.264   1.626
  817SOL     OW 3297   1.545   4.365   1.498
  817SOL    HW2 3298   1.634   4.344   1.528
  817SOL    HW3 3299   1.529   4.452   1.533
  817SOL    MW4 3300   1.555   4.374   1.507
  818SOL     OW 3301   1.998   4.629   1.588
  818SOL    HW2 3302   2.022   4.640   1.680
  818SOL    HW3 3303   1.927   4.692   1.574
  818SOL    MW4 3304   1.991   4.638   1.598
  819SOL     OW 3305   1.776   0.143   1.494
  819SOL    HW2 3306   1.707   0.082   1.519
  819SOL    HW3 3307   1.787   0.129   1.400
  819SOL    MW4 3308   1.769   0.133   1.485
  820SOL     OW 3309   1.803   0.408   1.617
  820SOL    HW2 3310   1.870   0.449   1.561
  820SOL    HW3 3311   1.786   0.323   1.575
  820SOL    MW4 3312   1.810   0.402   1.604
  821SOL     OW 3313   2.039   0.540   1.475
  821SOL    HW2 3314   2.106   0.487   1.517
  821SOL    HW3 3315   2.044   0.625   1.519
  821SOL    MW4 3316   2.048   0.544   1.486
  822SOL     OW 3317   2.011   0.771   1.619
  822SOL    HW2 3318   2.089   0.816   1.587
  822SOL    HW3 3319   1.938   0.818   1.579
  822SOL    MW4 3320   2.012   0.783   1.609
  823SOL     OW 3321   1.786   0.887   1.512
  823SOL    HW2 3322   1.810   0.973   1.547
  823SOL    HW3 3323   1.708   0.862   1.561
  823SOL    MW4 3324   1.779   0.895   1.523
  824SOL     OW 3325   1.808   1.142   1.618
  824SOL    HW2 3326   1.897   1.170   1.598
  824SOL    HW3 3327   1.752   1.208   1.577
  824SOL    MW4 3328   1.812   1.154   1.610
  825SOL     OW 3329   2.031   1.294   1.511
  825SOL    HW2 3330   1.999   1.379   1.541
  825SOL    HW3 3331   2.035   1.302   1.415
  825SOL    MW4 3332   2.027   1.306   1.502
  826SOL     OW 3333   1.992   1.561   1.592
  826SOL    HW2 3334   2.067   1.598   1.546
  826SOL    HW3 3335   1.918   1.613   1.562
  826SOL    MW4 3336   1.992   1.573   1.582
  827SOL     OW 3337   1.785   1.706   1.479
  827SOL    HW2 3338   1.708   1.650   1.487
  827SOL    HW3 3339   1.818   1.690   1.391
  827SOL    MW4 3340   1.779   1.696   1.468
  828SOL     OW 3341   1.844   1.958   1.614
  828SOL    HW2 3342   1.818   1.871   1.584
  828SOL    HW3 3343   1.775   2.016   1.582
  828SOL    MW4 3344   1.831   1.954   1.606
  829SOL     OW 3345   2.038   2.033   1.459
  829SOL    HW2 3346   2.126   2.003   1.483
  829SOL    HW3 3347   1.982   2.001   1.530
  829SOL    MW4 3348   2.043   2.025   1.472
  830SOL     OW 3349   2.050   2.299   1.556
  830SOL    HW2 3350   2.053   2.287   1.651
  830SOL    HW3 3351   2.038   2.210   1.521
  830SOL    MW4 3352   2.049   2.286   1.564
  831SOL     OW 3353   1.806   2.420   1.556
  831SOL    HW2 3354   1.890   2.379   1.573
  831SOL    HW3 3355   1.798   2.421   1.461
  831SOL    MW4 3356   1.816   2.415   1.546
  832SOL     OW 3357   1.798   2.690   1.624
  832SOL    HW2 3358   1.876   2.733   1.588
  832SOL    HW3 3359   1.802   2.601   1.590
  832SOL    MW4 3360   1.809   2.684   1.615
  833SOL     OW 3361   2.028   2.834   1.504
  833SOL    HW2 3362   2.022   2.926   1.528
  833SOL    HW3 3363   2.025   2.834   1.408
  833SOL    MW4 3364   2.027   2.846   1.494
  834SOL     OW 3365   1.998   3.096   1.556
  834SOL    HW2 3366   1.999   3.078   1.650
  834SOL    HW3 3367   2.072   3.157   1.543
  834SOL    MW4 3368   2.008   3.102   1.567
  835SOL     OW 3369   1.792   3.230   1.445
  835SOL    HW2 3370   1.809   3.307   1.499
  835SOL    HW3 3371   1.857   3.165   1.475
  835SOL    MW4 3372   1.803   3.231   1.456
  836SOL     OW 3373   1.801   3.470   1.582
  836SOL    HW2 3374   1.811   3.470   1.678
  836SOL    HW3 3375   1.719   3.516   1.567
  836SOL    MW4 3376   1.792   3.476   1.593
  837SOL     OW 3377   2.031   3.631   1.504
  837SOL    HW2 3378   2.105   3.583   1.542
  837SOL    HW3 3379   1.954   3.577   1.523
  837SOL    MW4 3380   2.031   3.618   1.511
  838SOL     OW 3381   2.046   3.895   1.595
  838SOL    HW2 3382   2.116   3.954   1.568
  838SOL    HW3 3383   2.058   3.817   1.540
  838SOL    MW4 3384   2.057   3.893   1.584
  839SOL     OW 3385   1.834   4.011   1.466
  839SOL    HW2 3386   1.906   3.968   1.512
  839SOL    HW3 3387   1.755   3.974   1.506
  839SOL    MW4 3388   1.833   4.000   1.477
  840SOL     OW 3389   1.791   4.267   1.585
  840SOL    HW2 3390   1.861   4.324   1.552
  840SOL    HW3 3391   1.812   4.181   1.548
  840SOL    MW4 3392   1.803   4.263   1.576
  841SOL     OW 3393   2.018   4.407   1.425
  841SOL    HW2 3394   2.082   4.352   1.469
  841SOL    HW3 3395   2.016   4.488   1.476
  841SOL    MW4 3396   2.026   4.410   1.437
  842SOL     OW 3397   2.462   4.638   1.564
  842SOL    HW2 3398   2.463   4.641   1.659
  842SOL    HW3 3399   2.376   4.673   1.539
  842SOL    MW4 3400   2.451   4.643   1.573
  843SOL     OW 3401   2.226   0.106   1.506
  843SOL    HW2 3402   2.156   0.041   1.518
  843SOL    HW3 3403   2.234   0.115   1.411
  843SOL    MW4 3404   2.218   0.098   1.495
  844SOL     OW 3405   2.236   0.380   1.562
  844SOL    HW2 3406   2.251   0.390   1.656
  844SOL    HW3 3407   2.218   0.287   1.550
  844SOL    MW4 3408   2.236   0.369   1.573
  845SOL     OW 3409   2.468   0.521   1.453
  845SOL    HW2 3410   2.546   0.471   1.479
  845SOL    HW3 3411   2.395   0.465   1.479
  845SOL    MW4 3412   2.469   0.507   1.460
  846SOL     OW 3413   2.451   0.758   1.605
  846SOL    HW2 3414   2.381   0.809   1.564
  846SOL    HW3 3415   2.458   0.680   1.549
  846SOL    MW4 3416   2.442   0.754   1.592
  847SOL     OW 3417   2.231   0.888   1.482
  847SOL    HW2 3418   2.258   0.977   1.506
  847SOL    HW3 3419   2.227   0.890   1.386
  847SOL    MW4 3420   2.234   0.900   1.472
  848SOL     OW 3421   2.285   1.153   1.545
  848SOL    HW2 3422   2.287   1.154   1.641
  848SOL    HW3 3423   2.203   1.196   1.522
  848SOL    MW4 3424   2.275   1.159   1.554
  849SOL     OW 3425   2.520   1.276   1.463
  849SOL    HW2 3426   2.441   1.233   1.495
  849SOL    HW3 3427   2.520   1.260   1.368
  849SOL    MW4 3428   2.510   1.268   1.454
  850SOL     OW 3429   2.507   1.545   1.568
  850SOL    HW2 3430   2.592   1.588   1.574
  850SOL    HW3 3431   2.526   1.462   1.523
  850SOL    MW4 3432   2.521   1.539   1.563
  851SOL     OW 3433   2.252   1.649   1.483
  851SOL    HW2 3434   2.337   1.614   1.507
  851SOL    HW3 3435   2.243   1.629   1.390
  851SOL    MW4 3436   2.262   1.642   1.473
  852SOL     OW 3437   2.272   1.925   1.543
  852SOL    HW2 3438   2.245   1.924   1.635
  852SOL    HW3 3439   2.261   1.834   1.514
  852SOL    MW4 3440   2.267   1.913   1.551
  853SOL     OW 3441   2.515   2.068   1.512
  853SOL    HW2 3442   2.436   2.016   1.528
  853SOL    HW3 3443   2.534   2.054   1.420
  853SOL    MW4 3444   2.507   2.059   1.502
  854SOL     OW 3445   2.494   2.328   1.592
  854SOL    HW2 3446   2.508   2.321   1.687
  854SOL    HW3 3447   2.497   2.238   1.560
  854SOL    MW4 3448   2.496   2.315   1.601
  855SOL     OW 3449   2.264   2.459   1.508
  855SOL    HW2 3450   2.334   2.408   1.550
  855SOL    HW3 3451   2.184   2.408   1.524
  855SOL    MW4 3452   2.262   2.445   1.516
  856SOL     OW 3453   2.250   2.720   1.614
  856SOL    HW2 3454   2.257   2.632   1.575
  856SOL    HW3 3455   2.171   2.757   1.576
  856SOL    MW4 3456   2.241   2.713   1.604
  857SOL     OW 3457   2.466   2.827   1.471
  857SOL    HW2 3458   2.468   2.918   1.500
  857SOL    HW3 3459   2.390   2.789   1.516
  857SOL    MW4 3460   2.456   2.834   1.481
  858SOL     OW 3461   2.465   3.092   1.565
  858SOL    HW2 3462   2.545   3.142   1.548
  858SOL    HW3 3463   2.394   3.152   1.543
  858SOL    MW4 3464   2.466   3.106   1.560
  859SOL     OW 3465   2.238   3.233   1.482
  859SOL    HW2 3466   2.232   3.323   1.512
  859SOL    HW3 3467   2.252   3.240   1.388
  859SOL    MW4 3468   2.239   3.246   1.473
  860SOL     OW 3469   2.231   3.488   1.610
  860SOL    HW2 3470   2.249   3.509   1.702
  860SOL    HW3 3471   2.300   3.535   1.562
  860SOL    MW4 3472   2.243   3.497   1.616
  861SOL     OW 3473   2.435   3.587   1.436
  861SOL    HW2 3474   2.507   3.541   1.479
  861SOL    HW3 3475   2.434   3.674   1.476
  861SOL    MW4 3476   2.445   3.592   1.447
  862SOL     OW 3477   2.455   3.855   1.564
  862SOL    HW2 3478   2.461   3.845   1.659
  862SOL    HW3 3479   2.543   3.881   1.537
  862SOL    MW4 3480   2.468   3.857   1.573
  863SOL     OW 3481   2.250   4.037   1.472
  863SOL    HW2 3482   2.326   3.987   1.503
  863SOL    HW3 3483   2.235   4.004   1.383
  863SOL    MW4 3484   2.258   4.026   1.464
  864SOL     OW 3485   2.247   4.294   1.565
  864SOL    HW2 3486   2.324   4.334   1.525
  864SOL    HW3 3487   2.249   4.203   1.535
  864SOL    MW4 3488   2.257   4.287   1.555
  865SOL     OW 3489   2.478   4.392   1.449
  865SOL    HW2 3490   2.481   4.477   1.493
  865SOL    HW3 3491   2.483   4.413   1.356
  865SOL    MW4 3492   2.479   4.406   1.442
  866SOL     OW 3493   2.917   4.654   1.543
  866SOL    HW2 3494   2.919   4.664   1.638
  866SOL    HW3 3495   2.837   4.700   1.517
  866SOL    MW4 3496   2.906   4.662   1.552
  867SOL     OW 3497   2.683   0.140   1.499
  867SOL    HW2 3498   2.672   0.229   1.534
  867SOL    HW3 3499   2.618   0.087   1.544
  867SOL    MW4 3500   2.673   0.145   1.509
  868SOL     OW 3501   2.680   0.408   1.585
  868SOL    HW2 3502   2.678   0.409   1.681
  868SOL    HW3 3503   2.770   0.430   1.562
  868SOL    MW4 3504   2.691   0.411   1.595
  869SOL     OW 3505   2.935   0.482   1.485
  869SOL    HW2 3506   2.936   0.575   1.509
  869SOL    HW3 3507   2.931   0.482   1.389
  869SOL    MW4 3508   2.934   0.494   1.475
  870SOL     OW 3509   2.943   0.733   1.595
  870SOL    HW2 3510   2.953   0.725   1.690
  870SOL    HW3 3511   2.855   0.768   1.583
  870SOL    MW4 3512   2.933   0.736   1.606
  871SOL     OW 3513   2.707   0.877   1.535
  871SOL    HW2 3514   2.620   0.856   1.570
  871SOL    HW3 3515   2.694   0.883   1.441
  871SOL    MW4 3516   2.694   0.875   1.527
  872SOL     OW 3517   2.703   1.152   1.634
  872SOL    HW2 3518   2.703   1.060   1.607
  872SOL    HW3 3519   2.627   1.190   1.590
  872SOL    MW4 3520   2.693   1.145   1.625
  873SOL     OW 3521   2.919   1.268   1.505
  873SOL    HW2 3522   2.996   1.229   1.547
  873SOL    HW3 3523   2.845   1.223   1.545
  873SOL    MW4 3524   2.919   1.257   1.516
  874SOL     OW 3525   2.948   1.519   1.611
  874SOL    HW2 3526   2.866   1.562   1.589
  874SOL    HW3 3527   2.942   1.433   1.569
  874SOL    MW4 3528   2.937   1.513   1.603
  875SOL     OW 3529   2.746   1.679   1.523
  875SOL    HW2 3530   2.747   1.773   1.543
  875SOL    HW3 3531   2.732   1.675   1.429
  875SOL    MW4 3532   2.744   1.691   1.513
  876SOL     OW 3533   2.733   1.929   1.613
  876SOL    HW2 3534   2.733   1.931   1.709
  876SOL    HW3 3535   2.654   1.977   1.588
  876SOL    MW4 3536   2.722   1.935   1.623
  877SOL     OW 3537   2.948   2.032   1.499
  877SOL    HW2 3538   2.953   2.119   1.539
  877SOL    HW3 3539   2.874   1.990   1.542
  877SOL    MW4 3540   2.939   2.038   1.510
  878SOL     OW 3541   2.923   2.283   1.597
  878SOL    HW2 3542   2.922   2.276   1.693
  878SOL    HW3 3543   2.852   2.344   1.578
  878SOL    MW4 3544   2.913   2.290   1.607
  879SOL     OW 3545   2.710   2.463   1.521
  879SOL    HW2 3546   2.701   2.548   1.566
  879SOL    HW3 3547   2.627   2.418   1.538
  879SOL    MW4 3548   2.697   2.469   1.529
  880SOL     OW 3549   2.672   2.714   1.618
  880SOL    HW2 3550   2.736   2.779   1.588
  880SOL    HW3 3551   2.590   2.741   1.578
  880SOL    MW4 3552   2.670   2.726   1.608
  881SOL     OW 3553   2.909   2.850   1.511
  881SOL    HW2 3554   2.983   2.807   1.554
  881SOL    HW3 3555   2.916   2.942   1.536
  881SOL    MW4 3556   2.920   2.856   1.520
  882SOL     OW 3557   2.928   3.103   1.581
  882SOL    HW2 3558   2.941   3.098   1.676
  882SOL    HW3 3559   3.001   3.157   1.550
  882SOL    MW4 3560   2.939   3.110   1.589
  883SOL     OW 3561   2.695   3.221   1.490
  883SOL    HW2 3562   2.774   3.182   1.528
  883SOL    HW3 3563   2.707   3.213   1.396
  883SOL    MW4 3564   2.707   3.215   1.483
  884SOL     OW 3565   2.677   3.500   1.572
  884SOL    HW2 3566   2.688   3.489   1.667
  884SOL    HW3 3567   2.684   3.412   1.536
  884SOL    MW4 3568   2.679   3.487   1.580
  885SOL     OW 3569   2.927   3.616   1.525
  885SOL    HW2 3570   2.852   3.560   1.545
  885SOL    HW3 3571   2.933   3.615   1.430
  885SOL    MW4 3572   2.918   3.608   1.515
  886SOL     OW 3573   2.906   3.871   1.627
  886SOL    HW2 3574   2.828   3.912   1.589
  886SOL    HW3 3575   2.903   3.781   1.595
  886SOL    MW4 3576   2.895   3.865   1.618
  887SOL     OW 3577   2.706   3.992   1.451
  887SOL    HW2 3578   2.700   4.081   1.487
  887SOL    HW3 3579   2.706   4.005   1.356
  887SOL    MW4 3580   2.705   4.006   1.443
  888SOL     OW 3581   2.685   4.263   1.574
  888SOL    HW2 3582   2.766   4.301   1.539
  888SOL    HW3 3583   2.616   4.307   1.525
  888SOL    MW4 3584   2.687   4.274   1.563
  889SOL     OW 3585   2.904   4.387   1.489
  889SOL    HW2 3586   2.924   4.475   1.521
  889SOL    HW3 3587   2.900   4.396   1.394
  889SOL    MW4 3588   2.906   4.399   1.481
  890SOL     OW 3589   3.401   4.659   1.604
  890SOL    HW2 3590   3.479   4.697   1.564
  890SOL    HW3 3591   3.394   4.572   1.567
  890SOL    MW4 3592   3.410   4.653   1.594
  891SOL     OW 3593   3.176   0.085   1.444
  891SOL    HW2 3594   3.249   0.051   1.495
  891SOL    HW3 3595   3.099   0.042   1.481
  891SOL    MW4 3596   3.175   0.075   1.455
  892SOL     OW 3597   3.175   0.385   1.553
  892SOL    HW2 3598   3.177   0.293   1.529
  892SOL    HW3 3599   3.088   0.415   1.526
  892SOL    MW4 3600   3.164   0.377   1.546
  893SOL     OW 3601   3.413   0.490   1.497
  893SOL    HW2 3602   3.329   0.460   1.533
  893SOL    HW3 3603   3.395   0.503   1.404
  893SOL    MW4 3604   3.399   0.488   1.489
  894SOL     OW 3605   3.364   0.760   1.571
  894SOL    HW2 3606   3.374   0.754   1.666
  894SOL    HW3 3607   3.390   0.674   1.539
  894SOL    MW4 3608   3.368   0.748   1.579
  895SOL     OW 3609   3.138   0.895   1.494
  895SOL    HW2 3610   3.217   0.850   1.523
  895SOL    HW3 3611   3.066   0.840   1.525
  895SOL    MW4 3612   3.139   0.882   1.502
  896SOL     OW 3613   3.147   1.143   1.600
  896SOL    HW2 3614   3.162   1.134   1.694
  896SOL    HW3 3615   3.140   1.053   1.568
  896SOL    MW4 3616   3.148   1.130   1.608
  897SOL     OW 3617   3.352   1.266   1.451
  897SOL    HW2 3618   3.431   1.242   1.500
  897SOL    HW3 3619   3.280   1.225   1.500
  897SOL    MW4 3620   3.353   1.257   1.464
  898SOL     OW 3621   3.376   1.526   1.594
  898SOL    HW2 3622   3.382   1.514   1.689
  898SOL    HW3 3623   3.350   1.440   1.561
  898SOL    MW4 3624   3.373   1.513   1.602
  899SOL     OW 3625   3.146   1.646   1.458
  899SOL    HW2 3626   3.222   1.625   1.512
  899SOL    HW3 3627   3.071   1.610   1.506
  899SOL    MW4 3628   3.146   1.638   1.471
  900SOL     OW 3629   3.161   1.905   1.611
  900SOL    HW2 3630   3.147   1.821   1.568
  900SOL    HW3 3631   3.085   1.958   1.587
  900SOL    MW4 3632   3.149   1.900   1.602
  901SOL     OW 3633   3.351   2.085   1.518
  901SOL    HW2 3634   3.272   2.041   1.550
  901SOL    HW3 3635   3.354   2.062   1.425
  901SOL    MW4 3636   3.341   2.076   1.510
  902SOL     OW 3637   3.360   2.334   1.617
  902SOL    HW2 3638   3.440   2.380   1.590
  902SOL    HW3 3639   3.359   2.254   1.565
  902SOL    MW4 3640   3.370   2.330   1.606
  903SOL     OW 3641   3.133   2.463   1.511
  903SOL    HW2 3642   3.217   2.431   1.544
  903SOL    HW3 3643   3.069   2.402   1.546
  903SOL    MW4 3644   3.136   2.451   1.520
  904SOL     OW 3645   3.158   2.732   1.611
  904SOL    HW2 3646   3.243   2.770   1.589
  904SOL    HW3 3647   3.157   2.648   1.565
  904SOL    MW4 3648   3.169   2.726   1.602
  905SOL     OW 3649   3.388   2.864   1.526
  905SOL    HW2 3650   3.376   2.958   1.535
  905SOL    HW3 3651   3.390   2.848   1.432
  905SOL    MW4 3652   3.387   2.874   1.515
  906SOL     OW 3653   3.345   3.130   1.580
  906SOL    HW2 3654   3.344   3.124   1.676
  906SOL    HW3 3655   3.424   3.181   1.560
  906SOL    MW4 3656   3.355   3.136   1.590
  907SOL     OW 3657   3.130   3.281   1.476
  907SOL    HW2 3658   3.190   3.216   1.513
  907SOL    HW3 3659   3.151   3.284   1.383
  907SOL    MW4 3660   3.140   3.273   1.469
  908SOL     OW 3661   3.177   3.528   1.607
  908SOL    HW2 3662   3.173   3.439   1.571
  908SOL    HW3 3663   3.089   3.564   1.592
  908SOL    MW4 3664   3.165   3.521   1.600
  909SOL     OW 3665   3.394   3.640   1.464
  909SOL    HW2 3666   3.471   3.608   1.512
  909SOL    HW3 3667   3.320   3.610   1.516
  909SOL    MW4 3668   3.394   3.632   1.477
  910SOL     OW 3669   3.393   3.897   1.576
  910SOL    HW2 3670   3.317   3.944   1.541
  910SOL    HW3 3671   3.384   3.808   1.542
  910SOL    MW4 3672   3.381   3.891   1.567
  911SOL     OW 3673   3.124   3.988   1.489
  911SOL    HW2 3674   3.121   4.077   1.524
  911SOL    HW3 3675   3.044   3.947   1.520
  911SOL    MW4 3676   3.113   3.994   1.498
  912SOL     OW 3677   3.122   4.246   1.558
  912SOL    HW2 3678   3.132   4.261   1.652
  912SOL    HW3 3679   3.047   4.299   1.533
  912SOL    MW4 3680   3.113   4.255   1.567
  913SOL     OW 3681   3.343   4.407   1.486
  913SOL    HW2 3682   3.263   4.360   1.508
  913SOL    HW3 3683   3.355   4.393   1.392
  913SOL    MW4 3684   3.334   4.399   1.477
  914SOL     OW 3685   3.844   4.632   1.565
  914SOL    HW2 3686   3.850   4.633   1.661
  914SOL    HW3 3687   3.913   4.692   1.536
  914SOL    MW4 3688   3.854   4.640   1.574
  915SOL     OW 3689   3.623   0.126   1.491
  915SOL    HW2 3690   3.702   0.077   1.512
  915SOL    HW3 3691   3.613   0.117   1.396
  915SOL    MW4 3692   3.632   0.118   1.481
  916SOL     OW 3693   3.623   0.389   1.618
  916SOL    HW2 3694   3.629   0.299   1.585
  916SOL    HW3 3695   3.548   0.426   1.573
  916SOL    MW4 3696   3.614   0.382   1.608
  917SOL     OW 3697   3.818   0.511   1.483
  917SOL    HW2 3698   3.763   0.447   1.527
  917SOL    HW3 3699   3.797   0.501   1.390
  917SOL    MW4 3700   3.808   0.501   1.476
  918SOL     OW 3701   3.820   0.787   1.561
  918SOL    HW2 3702   3.732   0.809   1.530
  918SOL    HW3 3703   3.832   0.696   1.534
  918SOL    MW4 3704   3.810   0.778   1.553
  919SOL     OW 3705   3.599   0.915   1.467
  919SOL    HW2 3706   3.521   0.875   1.507
  919SOL    HW3 3707   3.573   0.932   1.377
  919SOL    MW4 3708   3.585   0.912   1.461
  920SOL     OW 3709   3.574   1.167   1.616
  920SOL    HW2 3710   3.651   1.211   1.580
  920SOL    HW3 3711   3.584   1.076   1.587
  920SOL    MW4 3712   3.585   1.161   1.607
  921SOL     OW 3713   3.795   1.270   1.505
  921SOL    HW2 3714   3.875   1.224   1.531
  921SOL    HW3 3715   3.804   1.357   1.542
  921SOL    MW4 3716   3.807   1.275   1.513
  922SOL     OW 3717   3.820   1.521   1.599
  922SOL    HW2 3718   3.823   1.525   1.694
  922SOL    HW3 3719   3.741   1.570   1.575
  922SOL    MW4 3720   3.810   1.528   1.608
  923SOL     OW 3721   3.592   1.644   1.489
  923SOL    HW2 3722   3.519   1.597   1.529
  923SOL    HW3 3723   3.579   1.633   1.395
  923SOL    MW4 3724   3.581   1.636   1.482
  924SOL     OW 3725   3.621   1.903   1.603
  924SOL    HW2 3726   3.628   1.814   1.567
  924SOL    HW3 3727   3.534   1.933   1.576
  924SOL    MW4 3728   3.610   1.895   1.595
  925SOL     OW 3729   3.810   2.043   1.462
  925SOL    HW2 3730   3.804   2.126   1.509
  925SOL    HW3 3731   3.740   1.989   1.499
  925SOL    MW4 3732   3.800   2.047   1.473
  926SOL     OW 3733   3.775   2.279   1.578
  926SOL    HW2 3734   3.772   2.268   1.673
  926SOL    HW3 3735   3.847   2.340   1.562
  926SOL    MW4 3736   3.784   2.286   1.588
  927SOL     OW 3737   3.582   2.467   1.525
  927SOL    HW2 3738   3.609   2.549   1.566
  927SOL    HW3 3739   3.654   2.406   1.545
  927SOL    MW4 3740   3.595   2.470   1.533
  928SOL     OW 3741   3.615   2.743   1.619
  928SOL    HW2 3742   3.610   2.751   1.715
  928SOL    HW3 3743   3.531   2.775   1.588
  928SOL    MW4 3744   3.604   2.748   1.628
  929SOL     OW 3745   3.823   2.824   1.473
  929SOL    HW2 3746   3.886   2.796   1.540
  929SOL    HW3 3747   3.739   2.794   1.506
  929SOL    MW4 3748   3.821   2.816   1.486
  930SOL     OW 3749   3.813   3.105   1.598
  930SOL    HW2 3750   3.893   3.147   1.569
  930SOL    HW3 3751   3.813   3.019   1.556
  930SOL    MW4 3752   3.823   3.099   1.589
  931SOL     OW 3753   3.583   3.268   1.511
  931SOL    HW2 3754   3.661   3.223   1.545
  931SOL    HW3 3755   3.594   3.264   1.415
  931SOL    MW4 3756   3.595   3.261   1.503
  932SOL     OW 3757   3.607   3.534   1.583
  932SOL    HW2 3758   3.692   3.560   1.548
  932SOL    HW3 3759   3.589   3.449   1.542
  932SOL    MW4 3760   3.616   3.526   1.573
  933SOL     OW 3761   3.849   3.628   1.478
  933SOL    HW2 3762   3.919   3.579   1.521
  933SOL    HW3 3763   3.838   3.706   1.533
  933SOL    MW4 3764   3.857   3.632   1.491
  934SOL     OW 3765   3.822   3.863   1.653
  934SOL    HW2 3766   3.904   3.894   1.615
  934SOL    HW3 3767   3.754   3.910   1.605
  934SOL    MW4 3768   3.824   3.873   1.641
  935SOL     OW 3769   3.638   3.997   1.513
  935SOL    HW2 3770   3.623   4.092   1.516
  935SOL    HW3 3771   3.562   3.959   1.557
  935SOL    MW4 3772   3.626   4.005   1.519
  936SOL     OW 3773   3.574   4.278   1.555
  936SOL    HW2 3774   3.575   4.267   1.650
  936SOL    HW3 3775   3.486   4.308   1.535
  936SOL    MW4 3776   3.563   4.281   1.565
  937SOL     OW 3777   3.817   4.384   1.472
  937SOL    HW2 3778   3.733   4.350   1.502
  937SOL    HW3 3779   3.819   4.475   1.502
  937SOL    MW4 3780   3.806   4.391   1.480
  938SOL     OW 3781   4.283   4.626   1.590
  938SOL    HW2 3782   4.295   4.632   1.684
  938SOL    HW3 3783   4.276   4.532   1.572
  938SOL    MW4 3784   4.284   4.615   1.600
  939SOL     OW 3785   4.064   0.103   1.483
  939SOL    HW2 3786   4.062   0.193   1.514
  939SOL    HW3 3787   4.140   0.064   1.526
  939SOL    MW4 3788   4.074   0.109   1.493
  940SOL     OW 3789   4.051   0.381   1.564
  940SOL    HW2 3790   4.069   0.405   1.655
  940SOL    HW3 3791   3.983   0.442   1.536
  940SOL    MW4 3792   4.045   0.392   1.573
  941SOL     OW 3793   4.282   0.499   1.486
  941SOL    HW2 3794   4.205   0.446   1.509
  941SOL    HW3 3795   4.353   0.464   1.539
  941SOL    MW4 3796   4.281   0.487   1.496
  942SOL     OW 3797   4.248   0.751   1.573
  942SOL    HW2 3798   4.251   0.661   1.540
  942SOL    HW3 3799   4.318   0.795   1.525
  942SOL    MW4 3800   4.258   0.745   1.562
  943SOL     OW 3801   4.047   0.933   1.485
  943SOL    HW2 3802   4.115   0.869   1.507
  943SOL    HW3 3803   3.966   0.892   1.516
  943SOL    MW4 3804   4.045   0.919   1.492
  944SOL     OW 3805   4.035   1.194   1.591
  944SOL    HW2 3806   4.016   1.179   1.684
  944SOL    HW3 3807   4.037   1.107   1.552
  944SOL    MW4 3808   4.033   1.181   1.599
  945SOL     OW 3809   4.282   1.316   1.528
  945SOL    HW2 3810   4.207   1.266   1.561
  945SOL    HW3 3811   4.359   1.266   1.555
  945SOL    MW4 3812   4.282   1.303   1.536
  946SOL     OW 3813   4.285   1.575   1.630
  946SOL    HW2 3814   4.295   1.490   1.587
  946SOL    HW3 3815   4.361   1.625   1.600
  946SOL    MW4 3816   4.296   1.570   1.620
  947SOL     OW 3817   4.036   1.679   1.496
  947SOL    HW2 3818   4.121   1.648   1.530
  947SOL    HW3 3819   3.972   1.626   1.543
  947SOL    MW4 3820   4.039   1.668   1.507
  948SOL     OW 3821   4.024   1.928   1.580
  948SOL    HW2 3822   4.032   1.836   1.555
  948SOL    HW3 3823   3.944   1.958   1.535
  948SOL    MW4 3824   4.014   1.920   1.570
  949SOL     OW 3825   4.270   2.029   1.506
  949SOL    HW2 3826   4.188   1.990   1.538
  949SOL    HW3 3827   4.267   2.014   1.411
  949SOL    MW4 3828   4.259   2.022   1.498
  950SOL     OW 3829   4.255   2.307   1.578
  950SOL    HW2 3830   4.260   2.304   1.673
  950SOL    HW3 3831   4.251   2.215   1.551
  950SOL    MW4 3832   4.255   2.295   1.587
  951SOL     OW 3833   4.021   2.446   1.505
  951SOL    HW2 3834   4.022   2.533   1.546
  951SOL    HW3 3835   4.098   2.402   1.540
  951SOL    MW4 3836   4.031   2.452   1.515
  952SOL     OW 3837   4.010   2.683   1.623
  952SOL    HW2 3838   4.003   2.685   1.718
  952SOL    HW3 3839   4.094   2.725   1.604
  952SOL    MW4 3840   4.021   2.689   1.633
  953SOL     OW 3841   4.234   2.815   1.533
  953SOL    HW2 3842   4.240   2.910   1.548
  953SOL    HW3 3843   4.209   2.808   1.441
  953SOL    MW4 3844   4.231   2.827   1.523
  954SOL     OW 3845   4.267   3.097   1.598
  954SOL    HW2 3846   4.272   3.094   1.693
  954SOL    HW3 3847   4.351   3.134   1.570
  954SOL    MW4 3848   4.279   3.101   1.607
  955SOL     OW 3849   4.057   3.222   1.482
  955SOL    HW2 3850   4.064   3.308   1.524
  955SOL    HW3 3851   4.131   3.173   1.517
  955SOL    MW4 3852   4.068   3.227   1.492
  956SOL     OW 3853   4.064   3.506   1.592
  956SOL    HW2 3854   4.073   3.517   1.687
  956SOL    HW3 3855   4.149   3.533   1.557
  956SOL    MW4 3856   4.077   3.511   1.600
  957SOL     OW 3857   4.298   3.588   1.470
  957SOL    HW2 3858   4.320   3.674   1.506
  957SOL    HW3 3859   4.294   3.602   1.376
  957SOL    MW4 3860   4.301   3.601   1.463
  958SOL     OW 3861   4.286   3.842   1.579
  958SOL    HW2 3862   4.216   3.902   1.554
  958SOL    HW3 3863   4.366   3.883   1.545
  958SOL    MW4 3864   4.287   3.856   1.571
  959SOL     OW 3865   4.048   3.969   1.536
  959SOL    HW2 3866   4.025   4.056   1.570
  959SOL    HW3 3867   4.048   3.980   1.441
  959SOL    MW4 3868   4.045   3.982   1.528
  960SOL     OW 3869   4.014   4.225   1.624
  960SOL    HW2 3870   4.030   4.231   1.718
  960SOL    HW3 3871   3.937   4.280   1.609
  960SOL    MW4 3872   4.006   4.233   1.635
  961SOL     OW 3873   4.269   4.357   1.548
  961SOL    HW2 3874   4.198   4.309   1.590
  961SOL    HW3 3875   4.236   4.376   1.460
  961SOL    MW4 3876   4.255   4.353   1.542
  962SOL     OW 3877   0.214   4.629   1.904
  962SOL    HW2 3878   0.299   4.673   1.911
  962SOL    HW3 3879   0.191   4.637   1.811
  962SOL    MW4 3880   0.223   4.636   1.893
  963SOL     OW 3881   0.001   0.100   2.025
  963SOL    HW2 3882   0.011   0.186   1.983
  963SOL    HW3 3883   0.082   0.054   2.005
  963SOL    MW4 3884   0.013   0.106   2.017
  964SOL     OW 3885   4.471   0.372   1.893
  964SOL    HW2 3886   4.392   0.417   1.924
  964SOL    HW3 3887   4.544   0.429   1.921
  964SOL    MW4 3888   4.470   0.385   1.901
  965SOL     OW 3889   0.206   0.516   1.950
  965SOL    HW2 3890   0.280   0.471   1.910
  965SOL    HW3 3891   0.212   0.606   1.919
  965SOL    MW4 3892   0.216   0.522   1.941
  966SOL     OW 3893   0.169   0.762   1.816
  966SOL    HW2 3894   0.241   0.812   1.854
  966SOL    HW3 3895   0.190   0.755   1.723
  966SOL    MW4 3896   0.181   0.767   1.809
  967SOL     OW 3897   4.460   0.871   1.982
  967SOL    HW2 3898   4.377   0.838   1.947
  967SOL    HW3 3899   4.527   0.820   1.936
  967SOL    MW4 3900   4.458   0.860   1.971
  968SOL     OW 3901   0.014   1.110   1.873
  968SOL    HW2 3902  -0.065   1.154   1.905
  968SOL    HW3 3903   0.011   1.023   1.913
  968SOL    MW4 3904   0.003   1.104   1.883
  969SOL     OW 3905   0.233   1.279   1.969
  969SOL    HW2 3906   0.212   1.370   1.946
  969SOL    HW3 3907   0.161   1.228   1.932
  969SOL    MW4 3908   0.221   1.284   1.961
  970SOL     OW 3909   0.212   1.524   1.834
  970SOL    HW2 3910   0.298   1.557   1.860
  970SOL    HW3 3911   0.151   1.593   1.862
  970SOL    MW4 3912   0.215   1.538   1.841
  971SOL     OW 3913   0.014   1.674   1.972
  971SOL    HW2 3914   0.025   1.672   2.067
  971SOL    HW3 3915  -0.049   1.605   1.953
  971SOL    MW4 3916   0.007   1.665   1.982
  972SOL     OW 3917   4.487   1.938   1.857
  972SOL    HW2 3918   4.411   1.982   1.895
  972SOL    HW3 3919   4.495   1.856   1.906
  972SOL    MW4 3920   4.478   1.933   1.869
  973SOL     OW 3921   0.247   2.026   1.956
  973SOL    HW2 3922   0.262   2.116   1.927
  973SOL    HW3 3923   0.158   2.005   1.926
  973SOL    MW4 3924   0.237   2.035   1.948
  974SOL     OW 3925   0.253   2.300   1.863
  974SOL    HW2 3926   0.333   2.346   1.889
  974SOL    HW3 3927   0.182   2.355   1.896
  974SOL    MW4 3928   0.254   2.313   1.871
  975SOL     OW 3929   0.041   2.432   1.957
  975SOL    HW2 3930   0.045   2.466   2.046
  975SOL    HW3 3931   0.034   2.510   1.902
  975SOL    MW4 3932   0.041   2.447   1.961
  976SOL     OW 3933   0.012   2.692   1.826
  976SOL    HW2 3934  -0.068   2.738   1.850
  976SOL    HW3 3935   0.002   2.673   1.733
  976SOL    MW4 3936   0.000   2.695   1.817
  977SOL     OW 3937   0.233   2.833   1.940
  977SOL    HW2 3938   0.229   2.921   1.902
  977SOL    HW3 3939   0.168   2.782   1.890
  977SOL    MW4 3940   0.224   2.838   1.929
  978SOL     OW 3941   0.238   3.103   1.868
  978SOL    HW2 3942   0.317   3.123   1.918
  978SOL    HW3 3943   0.263   3.117   1.777
  978SOL    MW4 3944   0.252   3.108   1.863
  979SOL     OW 3945   0.017   3.233   1.990
  979SOL    HW2 3946  -0.062   3.187   1.961
  979SOL    HW3 3947   0.089   3.187   1.946
  979SOL    MW4 3948   0.016   3.221   1.980
  980SOL     OW 3949   0.021   3.470   1.829
  980SOL    HW2 3950   0.086   3.507   1.888
  980SOL    HW3 3951   0.015   3.378   1.855
  980SOL    MW4 3952   0.029   3.463   1.840
  981SOL     OW 3953   0.226   3.566   2.020
  981SOL    HW2 3954   0.246   3.587   2.111
  981SOL    HW3 3955   0.309   3.536   1.984
  981SOL    MW4 3956   0.240   3.565   2.028
  982SOL     OW 3957   0.217   3.827   1.882
  982SOL    HW2 3958   0.291   3.880   1.913
  982SOL    HW3 3959   0.226   3.744   1.928
  982SOL    MW4 3960   0.228   3.823   1.892
  983SOL     OW 3961   0.011   3.948   2.016
  983SOL    HW2 3962   0.024   4.027   1.963
  983SOL    HW3 3963   0.082   3.889   1.988
  983SOL    MW4 3964   0.022   3.951   2.005
  984SOL     OW 3965   4.484   4.199   1.881
  984SOL    HW2 3966   4.399   4.240   1.900
  984SOL    HW3 3967   4.548   4.254   1.924
  984SOL    MW4 3968   4.481   4.211   1.889
  985SOL     OW 3969   0.187   4.358   1.990
  985SOL    HW2 3970   0.202   4.356   2.085
  985SOL    HW3 3971   0.198   4.450   1.966
  985SOL    MW4 3972   0.190   4.370   2.000
  986SOL     OW 3973   0.638   4.652   1.861
  986SOL    HW2 3974   0.633   4.567   1.905
  986SOL    HW3 3975   0.638   4.630   1.768
  986SOL    MW4 3976   0.638   4.638   1.854
  987SOL     OW 3977   0.448   0.151   1.974
  987SOL    HW2 3978   0.422   0.230   1.927
  987SOL    HW3 3979   0.527   0.121   1.929
  987SOL    MW4 3980   0.455   0.158   1.962
  988SOL     OW 3981   0.413   0.386   1.840
  988SOL    HW2 3982   0.498   0.414   1.875
  988SOL    HW3 3983   0.433   0.351   1.754
  988SOL    MW4 3984   0.427   0.385   1.833
  989SOL     OW 3985   0.649   0.477   1.960
  989SOL    HW2 3986   0.655   0.472   2.055
  989SOL    HW3 3987   0.732   0.443   1.928
  989SOL    MW4 3988   0.660   0.472   1.968
  990SOL     OW 3989   0.653   0.737   1.870
  990SOL    HW2 3990   0.735   0.773   1.903
  990SOL    HW3 3991   0.662   0.642   1.881
  990SOL    MW4 3992   0.665   0.729   1.876
  991SOL     OW 3993   0.416   0.875   1.922
  991SOL    HW2 3994   0.440   0.967   1.911
  991SOL    HW3 3995   0.494   0.826   1.896
  991SOL    MW4 3996   0.429   0.881   1.917
  992SOL     OW 3997   0.453   1.129   1.888
  992SOL    HW2 3998   0.396   1.197   1.926
  992SOL    HW3 3999   0.451   1.147   1.794
  992SOL    MW4 4000   0.445   1.140   1.880
  993SOL     OW 4001   0.710   1.222   1.963
  993SOL    HW2 4002   0.700   1.241   2.056
  993SOL    HW3 4003   0.630   1.175   1.939
  993SOL    MW4 4004   0.698   1.218   1.972
  994SOL     OW 4005   0.710   1.520   1.901
  994SOL    HW2 4006   0.724   1.435   1.944
  994SOL    HW3 4007   0.713   1.501   1.807
  994SOL    MW4 4008   0.712   1.506   1.894
  995SOL     OW 4009   0.447   1.606   1.943
  995SOL    HW2 4010   0.439   1.612   2.039
  995SOL    HW3 4011   0.541   1.596   1.928
  995SOL    MW4 4012   0.459   1.605   1.954
  996SOL     OW 4013   0.442   1.867   1.844
  996SOL    HW2 4014   0.458   1.783   1.887
  996SOL    HW3 4015   0.357   1.895   1.878
  996SOL    MW4 4016   0.433   1.859   1.854
  997SOL     OW 4017   0.627   2.056   1.954
  997SOL    HW2 4018   0.631   2.034   2.048
  997SOL    HW3 4019   0.562   1.996   1.918
  997SOL    MW4 4020   0.619   2.045   1.962
  998SOL     OW 4021   0.684   2.326   1.892
  998SOL    HW2 4022   0.659   2.240   1.923
  998SOL    HW3 4023   0.681   2.319   1.797
  998SOL    MW4 4024   0.680   2.314   1.884
  999SOL     OW 4025   0.463   2.439   1.980
  999SOL    HW2 4026   0.448   2.424   2.074
  999SOL    HW3 4027   0.547   2.396   1.962
  999SOL    MW4 4028   0.472   2.432   1.990
 1000SOL     OW 4029   0.471   2.697   1.883
 1000SOL    HW2 4030   0.458   2.608   1.916
 1000SOL    HW3 4031   0.392   2.744   1.910
 1000SOL    MW4 4032   0.459   2.691   1.891
 1001SOL     OW 4033   0.681   2.866   1.963
 1001SOL    HW2 4034   0.692   2.862   2.058
 1001SOL    HW3 4035   0.603   2.813   1.946
 1001SOL    MW4 4036   0.672   2.859   1.973
 1002SOL     OW 4037   0.685   3.119   1.845
 1002SOL    HW2 4038   0.675   3.026   1.865
 1002SOL    HW3 4039   0.687   3.124   1.749
 1002SOL    MW4 4040   0.684   3.108   1.835
 1003SOL     OW 4041   0.472   3.194   2.011
 1003SOL    HW2 4042   0.455   3.280   1.972
 1003SOL    HW3 4043   0.552   3.164   1.967
 1003SOL    MW4 4044   0.480   3.201   2.000
 1004SOL     OW 4045   0.447   3.443   1.892
 1004SOL    HW2 4046   0.524   3.483   1.931
 1004SOL    HW3 4047   0.465   3.440   1.798
 1004SOL    MW4 4048   0.459   3.448   1.885
 1005SOL     OW 4049   0.682   3.597   2.001
 1005SOL    HW2 4050   0.767   3.556   1.987
 1005SOL    HW3 4051   0.689   3.682   1.959
 1005SOL    MW4 4052   0.694   3.602   1.993
 1006SOL     OW 4053   0.678   3.855   1.890
 1006SOL    HW2 4054   0.741   3.906   1.941
 1006SOL    HW3 4055   0.712   3.855   1.801
 1006SOL    MW4 4056   0.691   3.861   1.885
 1007SOL     OW 4057   0.441   3.968   2.016
 1007SOL    HW2 4058   0.417   4.054   1.981
 1007SOL    HW3 4059   0.522   3.946   1.970
 1007SOL    MW4 4060   0.449   3.977   2.005
 1008SOL     OW 4061   0.422   4.240   1.910
 1008SOL    HW2 4062   0.353   4.290   1.953
 1008SOL    HW3 4063   0.411   4.259   1.817
 1008SOL    MW4 4064   0.411   4.249   1.903
 1009SOL     OW 4065   0.654   4.397   1.967
 1009SOL    HW2 4066   0.732   4.349   1.939
 1009SOL    HW3 4067   0.581   4.346   1.935
 1009SOL    MW4 4068   0.655   4.384   1.959
 1010SOL     OW 4069   1.108   4.636   1.863
 1010SOL    HW2 4070   1.190   4.686   1.870
 1010SOL    HW3 4071   1.124   4.558   1.916
 1010SOL    MW4 4072   1.121   4.633   1.871
 1011SOL     OW 4073   0.884   0.104   1.980
 1011SOL    HW2 4074   0.964   0.055   1.961
 1011SOL    HW3 4075   0.815   0.055   1.935
 1011SOL    MW4 4076   0.886   0.091   1.971
 1012SOL     OW 4077   0.894   0.349   1.865
 1012SOL    HW2 4078   0.965   0.398   1.906
 1012SOL    HW3 4079   0.902   0.260   1.900
 1012SOL    MW4 4080   0.904   0.343   1.875
 1013SOL     OW 4081   1.114   0.471   1.953
 1013SOL    HW2 4082   1.201   0.435   1.937
 1013SOL    HW3 4083   1.116   0.558   1.915
 1013SOL    MW4 4084   1.125   0.477   1.946
 1014SOL     OW 4085   1.143   0.753   1.901
 1014SOL    HW2 4086   1.208   0.820   1.925
 1014SOL    HW3 4087   1.059   0.798   1.910
 1014SOL    MW4 4088   1.140   0.768   1.905
 1015SOL     OW 4089   0.897   0.881   1.953
 1015SOL    HW2 4090   0.882   0.893   2.047
 1015SOL    HW3 4091   0.914   0.970   1.920
 1015SOL    MW4 4092   0.897   0.895   1.961
 1016SOL     OW 4093   0.943   1.140   1.847
 1016SOL    HW2 4094   0.866   1.180   1.888
 1016SOL    HW3 4095   0.937   1.167   1.755
 1016SOL    MW4 4096   0.932   1.149   1.840
 1017SOL     OW 4097   1.133   1.290   1.981
 1017SOL    HW2 4098   1.129   1.372   1.932
 1017SOL    HW3 4099   1.067   1.234   1.940
 1017SOL    MW4 4100   1.124   1.294   1.969
 1018SOL     OW 4101   1.141   1.548   1.854
 1018SOL    HW2 4102   1.074   1.609   1.885
 1018SOL    HW3 4103   1.130   1.547   1.759
 1018SOL    MW4 4104   1.131   1.556   1.845
 1019SOL     OW 4105   0.922   1.681   1.969
 1019SOL    HW2 4106   0.896   1.772   1.952
 1019SOL    HW3 4107   0.846   1.629   1.941
 1019SOL    MW4 4108   0.908   1.686   1.963
 1020SOL     OW 4109   0.878   1.960   1.873
 1020SOL    HW2 4110   0.800   2.009   1.899
 1020SOL    HW3 4111   0.894   1.984   1.782
 1020SOL    MW4 4112   0.870   1.969   1.865
 1021SOL     OW 4113   1.102   2.091   1.983
 1021SOL    HW2 4114   1.105   2.180   1.947
 1021SOL    HW3 4115   1.023   2.053   1.946
 1021SOL    MW4 4116   1.092   2.098   1.973
 1022SOL     OW 4117   1.127   2.342   1.866
 1022SOL    HW2 4118   1.203   2.389   1.901
 1022SOL    HW3 4119   1.151   2.323   1.775
 1022SOL    MW4 4120   1.140   2.345   1.859
 1023SOL     OW 4121   0.919   2.459   2.001
 1023SOL    HW2 4122   0.992   2.420   1.953
 1023SOL    HW3 4123   0.841   2.415   1.966
 1023SOL    MW4 4124   0.919   2.448   1.990
 1024SOL     OW 4125   0.874   2.704   1.858
 1024SOL    HW2 4126   0.870   2.628   1.916
 1024SOL    HW3 4127   0.808   2.764   1.894
 1024SOL    MW4 4128   0.865   2.702   1.870
 1025SOL     OW 4129   1.103   2.801   1.969
 1025SOL    HW2 4130   1.076   2.819   2.059
 1025SOL    HW3 4131   1.029   2.756   1.930
 1025SOL    MW4 4132   1.090   2.798   1.976
 1026SOL     OW 4133   1.140   3.042   1.853
 1026SOL    HW2 4134   1.064   3.091   1.885
 1026SOL    HW3 4135   1.135   2.957   1.897
 1026SOL    MW4 4136   1.130   3.038   1.863
 1027SOL     OW 4137   0.933   3.175   1.967
 1027SOL    HW2 4138   0.919   3.178   2.061
 1027SOL    HW3 4139   0.847   3.153   1.931
 1027SOL    MW4 4140   0.920   3.173   1.974
 1028SOL     OW 4141   0.919   3.461   1.908
 1028SOL    HW2 4142   0.938   3.370   1.930
 1028SOL    HW3 4143   0.925   3.464   1.812
 1028SOL    MW4 4144   0.922   3.450   1.898
 1029SOL     OW 4145   1.168   3.587   1.963
 1029SOL    HW2 4146   1.162   3.589   2.058
 1029SOL    HW3 4147   1.083   3.553   1.934
 1029SOL    MW4 4148   1.156   3.582   1.972
 1030SOL     OW 4149   1.154   3.863   1.919
 1030SOL    HW2 4150   1.155   3.774   1.952
 1030SOL    HW3 4151   1.129   3.854   1.827
 1030SOL    MW4 4152   1.151   3.850   1.911
 1031SOL     OW 4153   0.914   4.010   2.007
 1031SOL    HW2 4154   0.898   4.022   2.101
 1031SOL    HW3 4155   0.996   3.961   2.003
 1031SOL    MW4 4156   0.922   4.005   2.019
 1032SOL     OW 4157   0.889   4.256   1.892
 1032SOL    HW2 4158   0.960   4.308   1.930
 1032SOL    HW3 4159   0.895   4.171   1.936
 1032SOL    MW4 4160   0.899   4.252   1.903
 1033SOL     OW 4161   1.092   4.409   2.021
 1033SOL    HW2 4162   1.099   4.406   2.117
 1033SOL    HW3 4163   1.161   4.350   1.990
 1033SOL    MW4 4164   1.102   4.401   2.030
 1034SOL     OW 4165   1.594   4.650   1.834
 1034SOL    HW2 4166   1.674   4.694   1.863
 1034SOL    HW3 4167   1.590   4.569   1.884
 1034SOL    MW4 4168   1.604   4.645   1.844
 1035SOL     OW 4169   1.347   0.092   1.927
 1035SOL    HW2 4170   1.361   0.062   2.017
 1035SOL    HW3 4171   1.421   0.056   1.878
 1035SOL    MW4 4172   1.358   0.083   1.932
 1036SOL     OW 4173   1.356   0.360   1.875
 1036SOL    HW2 4174   1.353   0.267   1.895
 1036SOL    HW3 4175   1.363   0.364   1.779
 1036SOL    MW4 4176   1.356   0.348   1.865
 1037SOL     OW 4177   1.567   0.497   1.993
 1037SOL    HW2 4178   1.653   0.458   1.978
 1037SOL    HW3 4179   1.506   0.436   1.951
 1037SOL    MW4 4180   1.570   0.484   1.986
 1038SOL     OW 4181   1.543   0.758   1.910
 1038SOL    HW2 4182   1.634   0.789   1.915
 1038SOL    HW3 4183   1.548   0.666   1.935
 1038SOL    MW4 4184   1.556   0.750   1.914
 1039SOL     OW 4185   1.354   0.943   1.982
 1039SOL    HW2 4186   1.342   0.939   2.077
 1039SOL    HW3 4187   1.428   0.884   1.965
 1039SOL    MW4 4188   1.362   0.935   1.992
 1040SOL     OW 4189   1.362   1.196   1.870
 1040SOL    HW2 4190   1.366   1.105   1.899
 1040SOL    HW3 4191   1.279   1.229   1.906
 1040SOL    MW4 4192   1.351   1.189   1.879
 1041SOL     OW 4193   1.598   1.301   1.985
 1041SOL    HW2 4194   1.602   1.391   1.951
 1041SOL    HW3 4195   1.518   1.265   1.946
 1041SOL    MW4 4196   1.588   1.308   1.975
 1042SOL     OW 4197   1.602   1.549   1.852
 1042SOL    HW2 4198   1.678   1.571   1.906
 1042SOL    HW3 4199   1.528   1.588   1.899
 1042SOL    MW4 4200   1.602   1.557   1.866
 1043SOL     OW 4201   1.353   1.685   1.981
 1043SOL    HW2 4202   1.377   1.669   2.073
 1043SOL    HW3 4203   1.278   1.629   1.966
 1043SOL    MW4 4204   1.347   1.675   1.991
 1044SOL     OW 4205   1.320   1.952   1.877
 1044SOL    HW2 4206   1.307   1.866   1.917
 1044SOL    HW3 4207   1.250   2.006   1.914
 1044SOL    MW4 4208   1.309   1.948   1.887
 1045SOL     OW 4209   1.548   2.036   2.011
 1045SOL    HW2 4210   1.555   2.130   1.993
 1045SOL    HW3 4211   1.464   2.010   1.973
 1045SOL    MW4 4212   1.538   2.045   2.004
 1046SOL     OW 4213   1.574   2.294   1.897
 1046SOL    HW2 4214   1.662   2.328   1.913
 1046SOL    HW3 4215   1.565   2.293   1.802
 1046SOL    MW4 4216   1.584   2.298   1.887
 1047SOL     OW 4217   1.351   2.487   1.981
 1047SOL    HW2 4218   1.371   2.575   1.949
 1047SOL    HW3 4219   1.429   2.436   1.961
 1047SOL    MW4 4220   1.364   2.492   1.974
 1048SOL     OW 4221   1.361   2.760   1.847
 1048SOL    HW2 4222   1.271   2.779   1.874
 1048SOL    HW3 4223   1.355   2.745   1.753
 1048SOL    MW4 4224   1.349   2.761   1.838
 1049SOL     OW 4225   1.593   2.854   1.948
 1049SOL    HW2 4226   1.673   2.803   1.938
 1049SOL    HW3 4227   1.524   2.799   1.910
 1049SOL    MW4 4228   1.594   2.840   1.941
 1050SOL     OW 4229   1.589   3.111   1.863
 1050SOL    HW2 4230   1.608   3.019   1.882
 1050SOL    HW3 4231   1.579   3.113   1.768
 1050SOL    MW4 4232   1.591   3.099   1.853
 1051SOL     OW 4233   1.349   3.195   1.971
 1051SOL    HW2 4234   1.434   3.157   1.948
 1051SOL    HW3 4235   1.286   3.151   1.915
 1051SOL    MW4 4236   1.352   3.184   1.961
 1052SOL     OW 4237   1.408   3.466   1.891
 1052SOL    HW2 4238   1.394   3.375   1.916
 1052SOL    HW3 4239   1.325   3.509   1.911
 1052SOL    MW4 4240   1.396   3.460   1.897
 1053SOL     OW 4241   1.611   3.620   1.966
 1053SOL    HW2 4242   1.613   3.632   2.061
 1053SOL    HW3 4243   1.537   3.563   1.950
 1053SOL    MW4 4244   1.602   3.614   1.976
 1054SOL     OW 4245   1.577   3.857   1.858
 1054SOL    HW2 4246   1.651   3.900   1.903
 1054SOL    HW3 4247   1.578   3.767   1.890
 1054SOL    MW4 4248   1.587   3.851   1.868
 1055SOL     OW 4249   1.381   3.997   1.985
 1055SOL    HW2 4250   1.455   3.958   1.938
 1055SOL    HW3 4251   1.307   3.939   1.966
 1055SOL    MW4 4252   1.381   3.984   1.976
 1056SOL     OW 4253   1.324   4.260   1.931
 1056SOL    HW2 4254   1.339   4.167   1.951
 1056SOL    HW3 4255   1.322   4.264   1.836
 1056SOL    MW4 4256   1.326   4.248   1.921
 1057SOL     OW 4257   1.575   4.422   1.976
 1057SOL    HW2 4258   1.572   4.429   2.071
 1057SOL    HW3 4259   1.500   4.366   1.954
 1057SOL    MW4 4260   1.564   4.415   1.985
 1058SOL     OW 4261   2.046   0.001   1.858
 1058SOL    HW2 4262   2.129   0.047   1.873
 1058SOL    HW3 4263   2.049  -0.075   1.916
 1058SOL    MW4 4264   2.057  -0.003   1.868
 1059SOL     OW 4265   1.809   0.100   1.975
 1059SOL    HW2 4266   1.803   0.110   2.070
 1059SOL    HW3 4267   1.896   0.061   1.961
 1059SOL    MW4 4268   1.820   0.096   1.986
 1060SOL     OW 4269   1.816   0.374   1.896
 1060SOL    HW2 4270   1.804   0.282   1.920
 1060SOL    HW3 4271   1.813   0.374   1.801
 1060SOL    MW4 4272   1.814   0.361   1.887
 1061SOL     OW 4273   2.010   0.524   2.013
 1061SOL    HW2 4274   2.014   0.613   1.977
 1061SOL    HW3 4275   1.937   0.483   1.966
 1061SOL    MW4 4276   2.001   0.530   2.002
 1062SOL     OW 4277   2.012   0.786   1.896
 1062SOL    HW2 4278   2.083   0.845   1.919
 1062SOL    HW3 4279   2.013   0.782   1.800
 1062SOL    MW4 4280   2.022   0.793   1.886
 1063SOL     OW 4281   1.787   0.891   1.990
 1063SOL    HW2 4282   1.806   0.983   1.969
 1063SOL    HW3 4283   1.867   0.845   1.966
 1063SOL    MW4 4284   1.800   0.897   1.984
 1064SOL     OW 4285   1.840   1.160   1.907
 1064SOL    HW2 4286   1.760   1.197   1.945
 1064SOL    HW3 4287   1.824   1.159   1.813
 1064SOL    MW4 4288   1.828   1.165   1.900
 1065SOL     OW 4289   2.065   1.300   1.967
 1065SOL    HW2 4290   2.134   1.255   1.919
 1065SOL    HW3 4291   1.987   1.248   1.951
 1065SOL    MW4 4292   2.064   1.287   1.959
 1066SOL     OW 4293   1.996   1.544   1.874
 1066SOL    HW2 4294   2.015   1.461   1.919
 1066SOL    HW3 4295   2.009   1.524   1.782
 1066SOL    MW4 4296   2.000   1.530   1.868
 1067SOL     OW 4297   1.787   1.682   2.008
 1067SOL    HW2 4298   1.771   1.759   1.954
 1067SOL    HW3 4299   1.877   1.656   1.986
 1067SOL    MW4 4300   1.797   1.689   1.998
 1068SOL     OW 4301   1.776   1.925   1.887
 1068SOL    HW2 4302   1.703   1.977   1.921
 1068SOL    HW3 4303   1.770   1.934   1.792
 1068SOL    MW4 4304   1.765   1.933   1.879
 1069SOL     OW 4305   2.017   2.046   1.943
 1069SOL    HW2 4306   2.082   1.982   1.914
 1069SOL    HW3 4307   1.933   2.001   1.931
 1069SOL    MW4 4308   2.015   2.032   1.937
 1070SOL     OW 4309   2.067   2.305   1.827
 1070SOL    HW2 4310   2.129   2.354   1.882
 1070SOL    HW3 4311   2.061   2.219   1.868
 1070SOL    MW4 4312   2.074   2.300   1.840
 1071SOL     OW 4313   1.819   2.417   1.940
 1071SOL    HW2 4314   1.832   2.410   2.035
 1071SOL    HW3 4315   1.900   2.382   1.902
 1071SOL    MW4 4316   1.831   2.411   1.948
 1072SOL     OW 4317   1.812   2.696   1.897
 1072SOL    HW2 4318   1.805   2.605   1.926
 1072SOL    HW3 4319   1.808   2.691   1.801
 1072SOL    MW4 4320   1.811   2.683   1.888
 1073SOL     OW 4321   2.056   2.822   1.988
 1073SOL    HW2 4322   2.043   2.830   2.083
 1073SOL    HW3 4323   1.976   2.780   1.956
 1073SOL    MW4 4324   2.044   2.817   1.996
 1074SOL     OW 4325   2.026   3.073   1.856
 1074SOL    HW2 4326   1.958   3.124   1.901
 1074SOL    HW3 4327   2.036   2.994   1.910
 1074SOL    MW4 4328   2.018   3.069   1.869
 1075SOL     OW 4329   1.814   3.220   1.962
 1075SOL    HW2 4330   1.818   3.205   2.056
 1075SOL    HW3 4331   1.733   3.178   1.933
 1075SOL    MW4 4332   1.804   3.213   1.970
 1076SOL     OW 4333   1.818   3.474   1.862
 1076SOL    HW2 4334   1.821   3.385   1.897
 1076SOL    HW3 4335   1.745   3.516   1.907
 1076SOL    MW4 4336   1.809   3.468   1.872
 1077SOL     OW 4337   2.030   3.602   1.967
 1077SOL    HW2 4338   2.023   3.694   1.940
 1077SOL    HW3 4339   1.955   3.559   1.926
 1077SOL    MW4 4340   2.019   3.608   1.958
 1078SOL     OW 4341   2.017   3.859   1.881
 1078SOL    HW2 4342   2.094   3.913   1.900
 1078SOL    HW3 4343   2.031   3.827   1.792
 1078SOL    MW4 4344   2.029   3.862   1.872
 1079SOL     OW 4345   1.775   3.989   1.992
 1079SOL    HW2 4346   1.796   4.069   1.943
 1079SOL    HW3 4347   1.846   3.929   1.973
 1079SOL    MW4 4348   1.787   3.992   1.983
 1080SOL     OW 4349   1.796   4.258   1.860
 1080SOL    HW2 4350   1.722   4.309   1.893
 1080SOL    HW3 4351   1.785   4.259   1.765
 1080SOL    MW4 4352   1.785   4.265   1.852
 1081SOL     OW 4353   2.004   4.427   1.973
 1081SOL    HW2 4354   2.077   4.386   1.926
 1081SOL    HW3 4355   1.928   4.373   1.950
 1081SOL    MW4 4356   2.003   4.414   1.963
 1082SOL     OW 4357   2.480   4.645   1.838
 1082SOL    HW2 4358   2.555   4.680   1.887
 1082SOL    HW3 4359   2.463   4.560   1.878
 1082SOL    MW4 4360   2.488   4.638   1.850
 1083SOL     OW 4361   2.280   0.152   1.926
 1083SOL    HW2 4362   2.283   0.146   2.021
 1083SOL    HW3 4363   2.356   0.102   1.896
 1083SOL    MW4 4364   2.290   0.145   1.934
 1084SOL     OW 4365   2.228   0.414   1.830
 1084SOL    HW2 4366   2.243   0.329   1.871
 1084SOL    HW3 4367   2.162   0.456   1.885
 1084SOL    MW4 4368   2.221   0.408   1.843
 1085SOL     OW 4369   2.443   0.497   1.959
 1085SOL    HW2 4370   2.520   0.454   1.922
 1085SOL    HW3 4371   2.370   0.463   1.907
 1085SOL    MW4 4372   2.444   0.487   1.947
 1086SOL     OW 4373   2.469   0.762   1.894
 1086SOL    HW2 4374   2.463   0.669   1.913
 1086SOL    HW3 4375   2.460   0.768   1.799
 1086SOL    MW4 4376   2.467   0.751   1.884
 1087SOL     OW 4377   2.240   0.921   1.981
 1087SOL    HW2 4378   2.238   0.933   2.076
 1087SOL    HW3 4379   2.311   0.859   1.966
 1087SOL    MW4 4380   2.249   0.915   1.992
 1088SOL     OW 4381   2.267   1.162   1.837
 1088SOL    HW2 4382   2.349   1.200   1.869
 1088SOL    HW3 4383   2.261   1.078   1.882
 1088SOL    MW4 4384   2.277   1.156   1.847
 1089SOL     OW 4385   2.485   1.276   1.942
 1089SOL    HW2 4386   2.482   1.276   2.038
 1089SOL    HW3 4387   2.497   1.368   1.918
 1089SOL    MW4 4388   2.486   1.288   1.951
 1090SOL     OW 4389   2.507   1.545   1.855
 1090SOL    HW2 4390   2.418   1.572   1.877
 1090SOL    HW3 4391   2.509   1.546   1.759
 1090SOL    MW4 4392   2.496   1.549   1.845
 1091SOL     OW 4393   2.242   1.657   1.938
 1091SOL    HW2 4394   2.243   1.658   2.034
 1091SOL    HW3 4395   2.157   1.619   1.916
 1091SOL    MW4 4396   2.231   1.652   1.948
 1092SOL     OW 4397   2.230   1.904   1.815
 1092SOL    HW2 4398   2.310   1.948   1.846
 1092SOL    HW3 4399   2.238   1.814   1.848
 1092SOL    MW4 4400   2.242   1.898   1.824
 1093SOL     OW 4401   2.455   2.028   1.931
 1093SOL    HW2 4402   2.529   1.971   1.906
 1093SOL    HW3 4403   2.480   2.114   1.898
 1093SOL    MW4 4404   2.468   2.032   1.923
 1094SOL     OW 4405   2.503   2.311   1.865
 1094SOL    HW2 4406   2.569   2.360   1.914
 1094SOL    HW3 4407   2.419   2.347   1.895
 1094SOL    MW4 4408   2.501   2.322   1.876
 1095SOL     OW 4409   2.272   2.424   1.951
 1095SOL    HW2 4410   2.265   2.418   2.046
 1095SOL    HW3 4411   2.271   2.518   1.932
 1095SOL    MW4 4412   2.271   2.435   1.961
 1096SOL     OW 4413   2.264   2.697   1.882
 1096SOL    HW2 4414   2.192   2.753   1.914
 1096SOL    HW3 4415   2.257   2.702   1.787
 1096SOL    MW4 4416   2.254   2.705   1.874
 1097SOL     OW 4417   2.484   2.841   1.947
 1097SOL    HW2 4418   2.466   2.921   1.897
 1097SOL    HW3 4419   2.406   2.787   1.934
 1097SOL    MW4 4420   2.471   2.844   1.939
 1098SOL     OW 4421   2.458   3.108   1.830
 1098SOL    HW2 4422   2.378   3.137   1.873
 1098SOL    HW3 4423   2.433   3.100   1.738
 1098SOL    MW4 4424   2.444   3.111   1.823
 1099SOL     OW 4425   2.236   3.227   1.951
 1099SOL    HW2 4426   2.224   3.204   2.043
 1099SOL    HW3 4427   2.160   3.189   1.907
 1099SOL    MW4 4428   2.224   3.219   1.957
 1100SOL     OW 4429   2.279   3.510   1.906
 1100SOL    HW2 4430   2.274   3.414   1.905
 1100SOL    HW3 4431   2.190   3.538   1.929
 1100SOL    MW4 4432   2.266   3.501   1.909
 1101SOL     OW 4433   2.520   3.618   1.964
 1101SOL    HW2 4434   2.516   3.607   2.059
 1101SOL    HW3 4435   2.439   3.579   1.931
 1101SOL    MW4 4436   2.509   3.612   1.972
 1102SOL     OW 4437   2.462   3.875   1.862
 1102SOL    HW2 4438   2.386   3.907   1.912
 1102SOL    HW3 4439   2.476   3.786   1.894
 1102SOL    MW4 4440   2.454   3.868   1.873
 1103SOL     OW 4441   2.241   4.019   1.950
 1103SOL    HW2 4442   2.245   4.020   2.045
 1103SOL    HW3 4443   2.251   4.110   1.924
 1103SOL    MW4 4444   2.243   4.031   1.959
 1104SOL     OW 4445   2.223   4.308   1.840
 1104SOL    HW2 4446   2.304   4.354   1.863
 1104SOL    HW3 4447   2.229   4.297   1.745
 1104SOL    MW4 4448   2.235   4.313   1.830
 1105SOL     OW 4449   2.462   4.421   1.998
 1105SOL    HW2 4450   2.467   4.405   2.092
 1105SOL    HW3 4451   2.548   4.395   1.965
 1105SOL    MW4 4452   2.474   4.415   2.006
 1106SOL     OW 4453   2.948   0.006   1.819
 1106SOL    HW2 4454   3.007   0.066   1.864
 1106SOL    HW3 4455   2.949  -0.074   1.873
 1106SOL    MW4 4456   2.956   0.003   1.833
 1107SOL     OW 4457   2.703   0.122   1.934
 1107SOL    HW2 4458   2.725   0.117   2.027
 1107SOL    HW3 4459   2.783   0.094   1.889
 1107SOL    MW4 4460   2.717   0.118   1.940
 1108SOL     OW 4461   2.670   0.397   1.869
 1108SOL    HW2 4462   2.734   0.434   1.929
 1108SOL    HW3 4463   2.673   0.302   1.884
 1108SOL    MW4 4464   2.679   0.389   1.879
 1109SOL     OW 4465   2.913   0.453   2.006
 1109SOL    HW2 4466   2.983   0.413   1.954
 1109SOL    HW3 4467   2.903   0.541   1.968
 1109SOL    MW4 4468   2.921   0.460   1.994
 1110SOL     OW 4469   2.902   0.708   1.888
 1110SOL    HW2 4470   2.989   0.742   1.910
 1110SOL    HW3 4471   2.841   0.761   1.940
 1110SOL    MW4 4472   2.905   0.719   1.898
 1111SOL     OW 4473   2.700   0.862   2.001
 1111SOL    HW2 4474   2.710   0.946   1.956
 1111SOL    HW3 4475   2.615   0.829   1.972
 1111SOL    MW4 4476   2.691   0.869   1.991
 1112SOL     OW 4477   2.743   1.129   1.911
 1112SOL    HW2 4478   2.667   1.163   1.958
 1112SOL    HW3 4479   2.723   1.142   1.819
 1112SOL    MW4 4480   2.730   1.135   1.905
 1113SOL     OW 4481   2.952   1.283   1.985
 1113SOL    HW2 4482   2.941   1.370   1.947
 1113SOL    HW3 4483   2.877   1.233   1.954
 1113SOL    MW4 4484   2.941   1.288   1.976
 1114SOL     OW 4485   2.928   1.553   1.898
 1114SOL    HW2 4486   3.015   1.588   1.915
 1114SOL    HW3 4487   2.929   1.528   1.805
 1114SOL    MW4 4488   2.939   1.554   1.888
 1115SOL     OW 4489   2.695   1.670   2.000
 1115SOL    HW2 4490   2.774   1.634   1.961
 1115SOL    HW3 4491   2.626   1.650   1.937
 1115SOL    MW4 4492   2.696   1.662   1.987
 1116SOL     OW 4493   2.729   1.926   1.899
 1116SOL    HW2 4494   2.808   1.971   1.927
 1116SOL    HW3 4495   2.718   1.855   1.962
 1116SOL    MW4 4496   2.738   1.922   1.911
 1117SOL     OW 4497   2.965   2.024   2.021
 1117SOL    HW2 4498   2.966   2.027   2.117
 1117SOL    HW3 4499   3.044   1.973   1.998
 1117SOL    MW4 4500   2.976   2.018   2.030
 1118SOL     OW 4501   2.917   2.284   1.891
 1118SOL    HW2 4502   3.005   2.323   1.891
 1118SOL    HW3 4503   2.926   2.205   1.944
 1118SOL    MW4 4504   2.930   2.278   1.898
 1119SOL     OW 4505   2.725   2.446   1.984
 1119SOL    HW2 4506   2.735   2.534   1.947
 1119SOL    HW3 4507   2.809   2.403   1.969
 1119SOL    MW4 4508   2.737   2.452   1.977
 1120SOL     OW 4509   2.732   2.707   1.891
 1120SOL    HW2 4510   2.649   2.741   1.923
 1120SOL    HW3 4511   2.726   2.714   1.795
 1120SOL    MW4 4512   2.720   2.712   1.882
 1121SOL     OW 4513   2.969   2.855   1.978
 1121SOL    HW2 4514   2.983   2.936   1.929
 1121SOL    HW3 4515   2.882   2.826   1.952
 1121SOL    MW4 4516   2.960   2.862   1.968
 1122SOL     OW 4517   2.949   3.099   1.854
 1122SOL    HW2 4518   3.008   3.164   1.891
 1122SOL    HW3 4519   2.861   3.132   1.874
 1122SOL    MW4 4520   2.945   3.112   1.861
 1123SOL     OW 4521   2.713   3.211   1.965
 1123SOL    HW2 4522   2.712   3.298   1.926
 1123SOL    HW3 4523   2.626   3.176   1.949
 1123SOL    MW4 4524   2.701   3.218   1.958
 1124SOL     OW 4525   2.712   3.467   1.840
 1124SOL    HW2 4526   2.792   3.510   1.872
 1124SOL    HW3 4527   2.641   3.522   1.871
 1124SOL    MW4 4528   2.713   3.480   1.848
 1125SOL     OW 4529   2.895   3.604   1.989
 1125SOL    HW2 4530   2.901   3.596   2.084
 1125SOL    HW3 4531   2.985   3.589   1.958
 1125SOL    MW4 4532   2.908   3.601   1.997
 1126SOL     OW 4533   2.905   3.882   1.903
 1126SOL    HW2 4534   2.894   3.794   1.939
 1126SOL    HW3 4535   2.910   3.870   1.808
 1126SOL    MW4 4536   2.904   3.869   1.895
 1127SOL     OW 4537   2.679   4.066   1.954
 1127SOL    HW2 4538   2.762   4.021   1.935
 1127SOL    HW3 4539   2.613   4.013   1.911
 1127SOL    MW4 4540   2.681   4.053   1.946
 1128SOL     OW 4541   2.678   4.328   1.843
 1128SOL    HW2 4542   2.677   4.234   1.860
 1128SOL    HW3 4543   2.675   4.335   1.747
 1128SOL    MW4 4544   2.677   4.316   1.832
 1129SOL     OW 4545   2.932   4.427   1.937
 1129SOL    HW2 4546   2.943   4.406   2.030
 1129SOL    HW3 4547   2.843   4.399   1.917
 1129SOL    MW4 4548   2.921   4.421   1.947
 1130SOL     OW 4549   3.341   4.618   1.874
 1130SOL    HW2 4550   3.361   4.525   1.882
 1130SOL    HW3 4551   3.365   4.641   1.784
 1130SOL    MW4 4552   3.347   4.609   1.863
 1131SOL     OW 4553   3.145   0.140   1.957
 1131SOL    HW2 4554   3.156   0.142   2.052
 1131SOL    HW3 4555   3.201   0.068   1.928
 1131SOL    MW4 4556   3.154   0.131   1.965
 1132SOL     OW 4557   3.175   0.412   1.839
 1132SOL    HW2 4558   3.175   0.324   1.876
 1132SOL    HW3 4559   3.171   0.399   1.745
 1132SOL    MW4 4560   3.174   0.399   1.832
 1133SOL     OW 4561   3.397   0.501   1.972
 1133SOL    HW2 4562   3.470   0.443   1.952
 1133SOL    HW3 4563   3.325   0.470   1.918
 1133SOL    MW4 4564   3.397   0.490   1.962
 1134SOL     OW 4565   3.364   0.751   1.854
 1134SOL    HW2 4566   3.281   0.793   1.877
 1134SOL    HW3 4567   3.362   0.667   1.900
 1134SOL    MW4 4568   3.353   0.745   1.863
 1135SOL     OW 4569   3.110   0.856   1.941
 1135SOL    HW2 4570   3.114   0.871   2.036
 1135SOL    HW3 4571   3.106   0.944   1.904
 1135SOL    MW4 4572   3.110   0.870   1.949
 1136SOL     OW 4573   3.160   1.125   1.870
 1136SOL    HW2 4574   3.247   1.150   1.903
 1136SOL    HW3 4575   3.099   1.176   1.923
 1136SOL    MW4 4576   3.164   1.135   1.881
 1137SOL     OW 4577   3.384   1.232   1.981
 1137SOL    HW2 4578   3.380   1.218   2.076
 1137SOL    HW3 4579   3.386   1.327   1.971
 1137SOL    MW4 4580   3.384   1.243   1.992
 1138SOL     OW 4581   3.426   1.503   1.873
 1138SOL    HW2 4582   3.489   1.545   1.932
 1138SOL    HW3 4583   3.341   1.537   1.901
 1138SOL    MW4 4584   3.423   1.513   1.885
 1139SOL     OW 4585   3.190   1.623   1.958
 1139SOL    HW2 4586   3.188   1.621   2.054
 1139SOL    HW3 4587   3.181   1.716   1.937
 1139SOL    MW4 4588   3.188   1.635   1.968
 1140SOL     OW 4589   3.168   1.887   1.877
 1140SOL    HW2 4590   3.254   1.926   1.895
 1140SOL    HW3 4591   3.163   1.884   1.781
 1140SOL    MW4 4592   3.179   1.892   1.867
 1141SOL     OW 4593   3.402   2.018   1.970
 1141SOL    HW2 4594   3.477   1.971   1.934
 1141SOL    HW3 4595   3.411   2.107   1.935
 1141SOL    MW4 4596   3.413   2.024   1.960
 1142SOL     OW 4597   3.417   2.275   1.878
 1142SOL    HW2 4598   3.352   2.313   1.937
 1142SOL    HW3 4599   3.384   2.292   1.790
 1142SOL    MW4 4600   3.404   2.282   1.874
 1143SOL     OW 4601   3.177   2.394   1.981
 1143SOL    HW2 4602   3.163   2.402   2.076
 1143SOL    HW3 4603   3.175   2.484   1.949
 1143SOL    MW4 4604   3.175   2.407   1.989
 1144SOL     OW 4605   3.134   2.637   1.875
 1144SOL    HW2 4606   3.074   2.699   1.917
 1144SOL    HW3 4607   3.136   2.664   1.783
 1144SOL    MW4 4608   3.126   2.649   1.869
 1145SOL     OW 4609   3.327   2.842   1.946
 1145SOL    HW2 4610   3.336   2.838   2.041
 1145SOL    HW3 4611   3.258   2.779   1.925
 1145SOL    MW4 4612   3.319   2.833   1.955
 1146SOL     OW 4613   3.345   3.107   1.853
 1146SOL    HW2 4614   3.430   3.143   1.876
 1146SOL    HW3 4615   3.345   3.019   1.890
 1146SOL    MW4 4616   3.356   3.100   1.861
 1147SOL     OW 4617   3.131   3.270   1.953
 1147SOL    HW2 4618   3.159   3.360   1.940
 1147SOL    HW3 4619   3.208   3.218   1.931
 1147SOL    MW4 4620   3.145   3.275   1.948
 1148SOL     OW 4621   3.147   3.537   1.894
 1148SOL    HW2 4622   3.225   3.573   1.936
 1148SOL    HW3 4623   3.174   3.522   1.803
 1148SOL    MW4 4624   3.160   3.540   1.887
 1149SOL     OW 4625   3.382   3.652   1.987
 1149SOL    HW2 4626   3.452   3.593   1.960
 1149SOL    HW3 4627   3.386   3.725   1.925
 1149SOL    MW4 4628   3.392   3.654   1.975
 1150SOL     OW 4629   3.386   3.898   1.851
 1150SOL    HW2 4630   3.296   3.928   1.865
 1150SOL    HW3 4631   3.393   3.885   1.757
 1150SOL    MW4 4632   3.375   3.901   1.841
 1151SOL     OW 4633   3.137   4.018   1.950
 1151SOL    HW2 4634   3.149   4.009   2.044
 1151SOL    HW3 4635   3.055   3.972   1.930
 1151SOL    MW4 4636   3.128   4.011   1.960
 1152SOL     OW 4637   3.147   4.267   1.835
 1152SOL    HW2 4638   3.131   4.183   1.877
 1152SOL    HW3 4639   3.077   4.324   1.869
 1152SOL    MW4 4640   3.136   4.264   1.845
 1153SOL     OW 4641   3.389   4.359   1.949
 1153SOL    HW2 4642   3.464   4.307   1.919
 1153SOL    HW3 4643   3.313   4.319   1.906
 1153SOL    MW4 4644   3.389   4.347   1.940
 1154SOL     OW 4645   3.847   4.622   1.845
 1154SOL    HW2 4646   3.861   4.530   1.868
 1154SOL    HW3 4647   3.760   4.643   1.878
 1154SOL    MW4 4648   3.838   4.613   1.852
 1155SOL     OW 4649   3.593   0.056   1.939
 1155SOL    HW2 4650   3.583   0.070   2.033
 1155SOL    HW3 4651   3.509   0.019   1.912
 1155SOL    MW4 4652   3.581   0.053   1.948
 1156SOL     OW 4653   3.600   0.334   1.895
 1156SOL    HW2 4654   3.603   0.240   1.913
 1156SOL    HW3 4655   3.589   0.340   1.801
 1156SOL    MW4 4656   3.599   0.322   1.885
 1157SOL     OW 4657   3.874   0.490   1.949
 1157SOL    HW2 4658   3.857   0.573   1.903
 1157SOL    HW3 4659   3.805   0.431   1.918
 1157SOL    MW4 4660   3.862   0.493   1.939
 1158SOL     OW 4661   3.832   0.741   1.841
 1158SOL    HW2 4662   3.759   0.773   1.894
 1158SOL    HW3 4663   3.812   0.770   1.752
 1158SOL    MW4 4664   3.819   0.749   1.836
 1159SOL     OW 4665   3.597   0.859   1.948
 1159SOL    HW2 4666   3.608   0.945   1.909
 1159SOL    HW3 4667   3.518   0.824   1.905
 1159SOL    MW4 4668   3.588   0.865   1.937
 1160SOL     OW 4669   3.639   1.121   1.866
 1160SOL    HW2 4670   3.564   1.155   1.915
 1160SOL    HW3 4671   3.623   1.147   1.775
 1160SOL    MW4 4672   3.627   1.129   1.860
 1161SOL     OW 4673   3.816   1.294   1.970
 1161SOL    HW2 4674   3.813   1.291   2.066
 1161SOL    HW3 4675   3.743   1.239   1.943
 1161SOL    MW4 4676   3.806   1.286   1.979
 1162SOL     OW 4677   3.834   1.537   1.876
 1162SOL    HW2 4678   3.918   1.566   1.912
 1162SOL    HW3 4679   3.819   1.451   1.916
 1162SOL    MW4 4680   3.843   1.530   1.886
 1163SOL     OW 4681   3.620   1.633   2.032
 1163SOL    HW2 4682   3.616   1.714   1.980
 1163SOL    HW3 4683   3.702   1.592   2.005
 1163SOL    MW4 4684   3.630   1.638   2.022
 1164SOL     OW 4685   3.635   1.896   1.883
 1164SOL    HW2 4686   3.701   1.949   1.926
 1164SOL    HW3 4687   3.648   1.911   1.789
 1164SOL    MW4 4688   3.645   1.905   1.876
 1165SOL     OW 4689   3.850   2.045   1.982
 1165SOL    HW2 4690   3.923   2.002   1.938
 1165SOL    HW3 4691   3.841   2.129   1.938
 1165SOL    MW4 4692   3.858   2.050   1.971
 1166SOL     OW 4693   3.835   2.297   1.865
 1166SOL    HW2 4694   3.905   2.357   1.889
 1166SOL    HW3 4695   3.755   2.340   1.895
 1166SOL    MW4 4696   3.834   2.311   1.872
 1167SOL     OW 4697   3.627   2.435   1.973
 1167SOL    HW2 4698   3.601   2.524   1.950
 1167SOL    HW3 4699   3.558   2.380   1.935
 1167SOL    MW4 4700   3.614   2.439   1.965
 1168SOL     OW 4701   3.580   2.718   1.899
 1168SOL    HW2 4702   3.645   2.781   1.931
 1168SOL    HW3 4703   3.498   2.767   1.896
 1168SOL    MW4 4704   3.578   2.733   1.903
 1169SOL     OW 4705   3.796   2.865   1.996
 1169SOL    HW2 4706   3.806   2.861   2.091
 1169SOL    HW3 4707   3.803   2.958   1.975
 1169SOL    MW4 4708   3.798   2.877   2.006
 1170SOL     OW 4709   3.829   3.126   1.891
 1170SOL    HW2 4710   3.746   3.175   1.895
 1170SOL    HW3 4711   3.837   3.100   1.799
 1170SOL    MW4 4712   3.819   3.129   1.879
 1171SOL     OW 4713   3.566   3.236   1.946
 1171SOL    HW2 4714   3.567   3.247   2.042
 1171SOL    HW3 4715   3.558   3.326   1.913
 1171SOL    MW4 4716   3.565   3.249   1.955
 1172SOL     OW 4717   3.571   3.497   1.857
 1172SOL    HW2 4718   3.658   3.508   1.895
 1172SOL    HW3 4719   3.585   3.505   1.763
 1172SOL    MW4 4720   3.584   3.500   1.850
 1173SOL     OW 4721   3.819   3.588   1.985
 1173SOL    HW2 4722   3.902   3.561   1.947
 1173SOL    HW3 4723   3.810   3.680   1.959
 1173SOL    MW4 4724   3.829   3.597   1.977
 1174SOL     OW 4725   3.811   3.857   1.920
 1174SOL    HW2 4726   3.740   3.912   1.952
 1174SOL    HW3 4727   3.818   3.877   1.827
 1174SOL    MW4 4728   3.803   3.867   1.912
 1175SOL     OW 4729   3.605   4.027   1.973
 1175SOL    HW2 4730   3.614   4.018   2.068
 1175SOL    HW3 4731   3.524   3.981   1.952
 1175SOL    MW4 4732   3.596   4.020   1.983
 1176SOL     OW 4733   3.605   4.237   1.827
 1176SOL    HW2 4734   3.684   4.286   1.852
 1176SOL    HW3 4735   3.610   4.156   1.877
 1176SOL    MW4 4736   3.616   4.233   1.837
 1177SOL     OW 4737   3.840   4.371   1.941
 1177SOL    HW2 4738   3.819   4.372   2.034
 1177SOL    HW3 4739   3.909   4.305   1.932
 1177SOL    MW4 4740   3.846   4.362   1.952
 1178SOL     OW 4741   4.273   4.630   1.895
 1178SOL    HW2 4742   4.189   4.668   1.923
 1178SOL    HW3 4743   4.338   4.675   1.948
 1178SOL    MW4 4744   4.270   4.641   1.905
 1179SOL     OW 4745   4.038   0.102   1.972
 1179SOL    HW2 4746   4.040   0.087   2.067
 1179SOL    HW3 4747   3.959   0.056   1.942
 1179SOL    MW4 4748   4.028   0.094   1.981
 1180SOL     OW 4749   4.096   0.370   1.833
 1180SOL    HW2 4750   4.110   0.285   1.873
 1180SOL    HW3 4751   4.022   0.407   1.882
 1180SOL    MW4 4752   4.088   0.364   1.845
 1181SOL     OW 4753   4.274   0.533   1.969
 1181SOL    HW2 4754   4.261   0.518   2.063
 1181SOL    HW3 4755   4.201   0.488   1.927
 1181SOL    MW4 4756   4.262   0.525   1.976
 1182SOL     OW 4757   4.241   0.772   1.856
 1182SOL    HW2 4758   4.250   0.682   1.888
 1182SOL    HW3 4759   4.258   0.765   1.762
 1182SOL    MW4 4760   4.245   0.759   1.848
 1183SOL     OW 4761   4.013   0.880   1.986
 1183SOL    HW2 4762   4.094   0.841   1.954
 1183SOL    HW3 4763   3.944   0.831   1.941
 1183SOL    MW4 4764   4.014   0.868   1.976
 1184SOL     OW 4765   4.013   1.117   1.856
 1184SOL    HW2 4766   4.018   1.035   1.905
 1184SOL    HW3 4767   3.957   1.173   1.909
 1184SOL    MW4 4768   4.006   1.114   1.870
 1185SOL     OW 4769   4.252   1.212   1.943
 1185SOL    HW2 4770   4.221   1.233   2.032
 1185SOL    HW3 4771   4.173   1.184   1.897
 1185SOL    MW4 4772   4.238   1.211   1.949
 1186SOL     OW 4773   4.311   1.491   1.899
 1186SOL    HW2 4774   4.318   1.396   1.896
 1186SOL    HW3 4775   4.293   1.516   1.808
 1186SOL    MW4 4776   4.310   1.482   1.887
 1187SOL     OW 4777   4.076   1.632   1.979
 1187SOL    HW2 4778   4.078   1.636   2.074
 1187SOL    HW3 4779   4.154   1.581   1.956
 1187SOL    MW4 4780   4.087   1.625   1.988
 1188SOL     OW 4781   4.064   1.903   1.862
 1188SOL    HW2 4782   4.064   1.810   1.886
 1188SOL    HW3 4783   4.048   1.904   1.768
 1188SOL    MW4 4784   4.062   1.891   1.853
 1189SOL     OW 4785   4.257   2.067   1.971
 1189SOL    HW2 4786   4.260   2.069   2.066
 1189SOL    HW3 4787   4.180   2.015   1.950
 1189SOL    MW4 4788   4.247   2.060   1.981
 1190SOL     OW 4789   4.285   2.321   1.862
 1190SOL    HW2 4790   4.275   2.232   1.895
 1190SOL    HW3 4791   4.375   2.346   1.885
 1190SOL    MW4 4792   4.296   2.313   1.869
 1191SOL     OW 4793   4.039   2.458   1.962
 1191SOL    HW2 4794   4.045   2.439   2.055
 1191SOL    HW3 4795   4.117   2.418   1.924
 1191SOL    MW4 4796   4.050   2.450   1.969
 1192SOL     OW 4797   4.018   2.728   1.898
 1192SOL    HW2 4798   4.002   2.640   1.933
 1192SOL    HW3 4799   3.936   2.775   1.914
 1192SOL    MW4 4800   4.005   2.722   1.905
 1193SOL     OW 4801   4.279   2.824   1.940
 1193SOL    HW2 4802   4.277   2.814   2.035
 1193SOL    HW3 4803   4.196   2.787   1.910
 1193SOL    MW4 4804   4.268   2.818   1.949
 1194SOL     OW 4805   4.294   3.089   1.866
 1194SOL    HW2 4806   4.224   3.133   1.914
 1194SOL    HW3 4807   4.291   2.998   1.897
 1194SOL    MW4 4808   4.284   3.082   1.876
 1195SOL     OW 4809   4.084   3.239   1.978
 1195SOL    HW2 4810   4.081   3.230   2.073
 1195SOL    HW3 4811   4.000   3.204   1.947
 1195SOL    MW4 4812   4.073   3.233   1.986
 1196SOL     OW 4813   4.057   3.494   1.870
 1196SOL    HW2 4814   4.130   3.543   1.906
 1196SOL    HW3 4815   4.061   3.409   1.913
 1196SOL    MW4 4816   4.067   3.489   1.880
 1197SOL     OW 4817   4.296   3.589   1.972
 1197SOL    HW2 4818   4.299   3.673   1.926
 1197SOL    HW3 4819   4.358   3.534   1.925
 1197SOL    MW4 4820   4.304   3.593   1.959
 1198SOL     OW 4821   4.272   3.849   1.858
 1198SOL    HW2 4822   4.358   3.879   1.888
 1198SOL    HW3 4823   4.281   3.844   1.763
 1198SOL    MW4 4824   4.285   3.852   1.849
 1199SOL     OW 4825   4.060   3.956   1.974
 1199SOL    HW2 4826   4.127   3.909   1.924
 1199SOL    HW3 4827   3.978   3.912   1.950
 1199SOL    MW4 4828   4.058   3.944   1.964
 1200SOL     OW 4829   4.057   4.208   1.905
 1200SOL    HW2 4830   4.128   4.256   1.948
 1200SOL    HW3 4831   4.066   4.118   1.936
 1200SOL    MW4 4832   4.068   4.203   1.915
 1201SOL     OW 4833   4.270   4.359   1.978
 1201SOL    HW2 4834   4.265   4.368   2.073
 1201SOL    HW3 4835   4.262   4.448   1.945
 1201SOL    MW4 4836   4.268   4.372   1.986
 1202SOL     OW 4837   0.217   4.640   2.352
 1202SOL    HW2 4838   0.220   4.662   2.445
 1202SOL    HW3 4839   0.272   4.706   2.310
 1202SOL    MW4 4840   0.224   4.652   2.359
 1203SOL     OW 4841   4.462   0.129   2.294
 1203SOL    HW2 4842   4.544   0.090   2.324
 1203SOL    HW3 4843   4.462   0.116   2.199
 1203SOL    MW4 4844   4.473   0.123   2.286
 1204SOL     OW 4845   4.460   0.390   2.408
 1204SOL    HW2 4846   4.520   0.437   2.349
 1204SOL    HW3 4847   4.477   0.298   2.389
 1204SOL    MW4 4848   4.470   0.384   2.397
 1205SOL     OW 4849   0.174   0.526   2.235
 1205SOL    HW2 4850   0.259   0.510   2.275
 1205SOL    HW3 4851   0.191   0.527   2.140
 1205SOL    MW4 4852   0.188   0.524   2.227
 1206SOL     OW 4853   0.192   0.793   2.341
 1206SOL    HW2 4854   0.193   0.792   2.437
 1206SOL    HW3 4855   0.182   0.701   2.317
 1206SOL    MW4 4856   0.191   0.781   2.351
 1207SOL     OW 4857   4.460   0.914   2.247
 1207SOL    HW2 4858   4.543   0.874   2.277
 1207SOL    HW3 4859   4.457   0.893   2.154
 1207SOL    MW4 4860   4.471   0.906   2.239
 1208SOL     OW 4861   4.469   1.168   2.330
 1208SOL    HW2 4862   4.452   1.157   2.424
 1208SOL    HW3 4863   4.474   1.079   2.296
 1208SOL    MW4 4864   4.468   1.155   2.338
 1209SOL     OW 4865   0.246   1.243   2.248
 1209SOL    HW2 4866   0.161   1.204   2.272
 1209SOL    HW3 4867   0.242   1.253   2.153
 1209SOL    MW4 4868   0.234   1.239   2.239
 1210SOL     OW 4869   0.241   1.513   2.345
 1210SOL    HW2 4870   0.229   1.516   2.440
 1210SOL    HW3 4871   0.220   1.423   2.321
 1210SOL    MW4 4872   0.236   1.502   2.354
 1211SOL     OW 4873   0.009   1.658   2.253
 1211SOL    HW2 4874   0.015   1.750   2.279
 1211SOL    HW3 4875   0.087   1.617   2.290
 1211SOL    MW4 4876   0.020   1.665   2.261
 1212SOL     OW 4877   0.010   1.928   2.336
 1212SOL    HW2 4878  -0.064   1.971   2.292
 1212SOL    HW3 4879   0.088   1.968   2.299
 1212SOL    MW4 4880   0.010   1.939   2.325
 1213SOL     OW 4881   0.236   2.053   2.239
 1213SOL    HW2 4882   0.306   1.996   2.273
 1213SOL    HW3 4883   0.252   2.057   2.145
 1213SOL    MW4 4884   0.248   2.046   2.231
 1214SOL     OW 4885   0.215   2.323   2.348
 1214SOL    HW2 4886   0.213   2.319   2.443
 1214SOL    HW3 4887   0.224   2.231   2.320
 1214SOL    MW4 4888   0.216   2.310   2.357
 1215SOL     OW 4889   0.014   2.486   2.215
 1215SOL    HW2 4890   0.001   2.567   2.264
 1215SOL    HW3 4891   0.075   2.435   2.268
 1215SOL    MW4 4892   0.020   2.490   2.229
 1216SOL     OW 4893   0.022   2.732   2.341
 1216SOL    HW2 4894   0.027   2.725   2.436
 1216SOL    HW3 4895   0.108   2.765   2.315
 1216SOL    MW4 4896   0.034   2.735   2.350
 1217SOL     OW 4897   0.242   2.841   2.223
 1217SOL    HW2 4898   0.334   2.813   2.227
 1217SOL    HW3 4899   0.229   2.864   2.131
 1217SOL    MW4 4900   0.252   2.840   2.211
 1218SOL     OW 4901   0.250   3.080   2.364
 1218SOL    HW2 4902   0.176   3.126   2.322
 1218SOL    HW3 4903   0.254   2.996   2.319
 1218SOL    MW4 4904   0.241   3.075   2.352
 1219SOL     OW 4905   0.023   3.207   2.267
 1219SOL    HW2 4906   0.022   3.294   2.307
 1219SOL    HW3 4907   0.027   3.225   2.173
 1219SOL    MW4 4908   0.023   3.221   2.260
 1220SOL     OW 4909   0.021   3.468   2.380
 1220SOL    HW2 4910   0.006   3.488   2.473
 1220SOL    HW3 4911  -0.062   3.490   2.337
 1220SOL    MW4 4912   0.008   3.473   2.387
 1221SOL     OW 4913   0.240   3.622   2.289
 1221SOL    HW2 4914   0.320   3.586   2.329
 1221SOL    HW3 4915   0.173   3.557   2.308
 1221SOL    MW4 4916   0.242   3.609   2.297
 1222SOL     OW 4917   0.248   3.873   2.389
 1222SOL    HW2 4918   0.159   3.905   2.371
 1222SOL    HW3 4919   0.251   3.786   2.349
 1222SOL    MW4 4920   0.236   3.866   2.381
 1223SOL     OW 4921   0.017   3.983   2.282
 1223SOL    HW2 4922  -0.007   4.074   2.301
 1223SOL    HW3 4923   0.027   3.980   2.187
 1223SOL    MW4 4924   0.015   3.995   2.272
 1224SOL     OW 4925   4.487   4.251   2.387
 1224SOL    HW2 4926   4.507   4.255   2.481
 1224SOL    HW3 4927   4.564   4.287   2.344
 1224SOL    MW4 4928   4.500   4.256   2.394
 1225SOL     OW 4929   0.226   4.353   2.274
 1225SOL    HW2 4930   0.296   4.325   2.333
 1225SOL    HW3 4931   0.222   4.448   2.286
 1225SOL    MW4 4932   0.235   4.362   2.284
 1226SOL     OW 4933   0.599   4.638   2.375
 1226SOL    HW2 4934   0.614   4.648   2.469
 1226SOL    HW3 4935   0.678   4.674   2.334
 1226SOL    MW4 4936   0.611   4.644   2.382
 1227SOL     OW 4937   0.409   0.157   2.241
 1227SOL    HW2 4938   0.469   0.092   2.278
 1227SOL    HW3 4939   0.407   0.138   2.148
 1227SOL    MW4 4940   0.417   0.146   2.234
 1228SOL     OW 4941   0.395   0.429   2.345
 1228SOL    HW2 4942   0.387   0.420   2.440
 1228SOL    HW3 4943   0.384   0.340   2.312
 1228SOL    MW4 4944   0.393   0.416   2.353
 1229SOL     OW 4945   0.664   0.489   2.247
 1229SOL    HW2 4946   0.660   0.580   2.279
 1229SOL    HW3 4947   0.580   0.452   2.274
 1229SOL    MW4 4948   0.652   0.496   2.255
 1230SOL     OW 4949   0.663   0.748   2.333
 1230SOL    HW2 4950   0.647   0.760   2.427
 1230SOL    HW3 4951   0.584   0.782   2.291
 1230SOL    MW4 4952   0.651   0.754   2.340
 1231SOL     OW 4953   0.442   0.846   2.213
 1231SOL    HW2 4954   0.360   0.822   2.258
 1231SOL    HW3 4955   0.417   0.851   2.120
 1231SOL    MW4 4956   0.428   0.844   2.207
 1232SOL     OW 4957   0.474   1.107   2.324
 1232SOL    HW2 4958   0.482   1.020   2.285
 1232SOL    HW3 4959   0.397   1.145   2.281
 1232SOL    MW4 4960   0.465   1.101   2.313
 1233SOL     OW 4961   0.686   1.269   2.239
 1233SOL    HW2 4962   0.675   1.357   2.276
 1233SOL    HW3 4963   0.608   1.222   2.269
 1233SOL    MW4 4964   0.674   1.275   2.248
 1234SOL     OW 4965   0.648   1.523   2.327
 1234SOL    HW2 4966   0.647   1.531   2.422
 1234SOL    HW3 4967   0.730   1.563   2.300
 1234SOL    MW4 4968   0.659   1.529   2.336
 1235SOL     OW 4969   0.437   1.641   2.201
 1235SOL    HW2 4970   0.502   1.586   2.244
 1235SOL    HW3 4971   0.353   1.604   2.227
 1235SOL    MW4 4972   0.435   1.629   2.210
 1236SOL     OW 4973   0.438   1.893   2.334
 1236SOL    HW2 4974   0.520   1.938   2.318
 1236SOL    HW3 4975   0.455   1.802   2.309
 1236SOL    MW4 4976   0.451   1.887   2.329
 1237SOL     OW 4977   0.649   2.045   2.231
 1237SOL    HW2 4978   0.725   2.008   2.278
 1237SOL    HW3 4979   0.641   2.134   2.265
 1237SOL    MW4 4980   0.658   2.052   2.242
 1238SOL     OW 4981   0.656   2.304   2.359
 1238SOL    HW2 4982   0.651   2.300   2.454
 1238SOL    HW3 4983   0.746   2.332   2.341
 1238SOL    MW4 4984   0.667   2.308   2.369
 1239SOL     OW 4985   0.452   2.454   2.253
 1239SOL    HW2 4986   0.522   2.397   2.285
 1239SOL    HW3 4987   0.375   2.428   2.304
 1239SOL    MW4 4988   0.451   2.443   2.264
 1240SOL     OW 4989   0.482   2.727   2.315
 1240SOL    HW2 4990   0.476   2.730   2.411
 1240SOL    HW3 4991   0.508   2.637   2.296
 1240SOL    MW4 4992   0.485   2.716   2.325
 1241SOL     OW 4993   0.720   2.862   2.231
 1241SOL    HW2 4994   0.782   2.798   2.266
 1241SOL    HW3 4995   0.635   2.836   2.266
 1241SOL    MW4 4996   0.717   2.850   2.240
 1242SOL     OW 4997   0.684   3.085   2.411
 1242SOL    HW2 4998   0.615   3.130   2.363
 1242SOL    HW3 4999   0.709   3.011   2.355
 1242SOL    MW4 5000   0.678   3.081   2.397
 1243SOL     OW 5001   0.474   3.230   2.275
 1243SOL    HW2 5002   0.397   3.188   2.314
 1243SOL    HW3 5003   0.466   3.212   2.181
 1243SOL    MW4 5004   0.462   3.222   2.267
 1244SOL     OW 5005   0.461   3.483   2.368
 1244SOL    HW2 5006   0.552   3.513   2.360
 1244SOL    HW3 5007   0.462   3.393   2.333
 1244SOL    MW4 5008   0.473   3.475   2.362
 1245SOL     OW 5009   0.705   3.590   2.280
 1245SOL    HW2 5010   0.709   3.676   2.322
 1245SOL    HW3 5011   0.690   3.610   2.187
 1245SOL    MW4 5012   0.703   3.604   2.273
 1246SOL     OW 5013   0.636   3.836   2.387
 1246SOL    HW2 5014   0.641   3.847   2.482
 1246SOL    HW3 5015   0.581   3.908   2.356
 1246SOL    MW4 5016   0.629   3.847   2.395
 1247SOL     OW 5017   0.463   4.018   2.289
 1247SOL    HW2 5018   0.379   3.984   2.318
 1247SOL    HW3 5019   0.468   3.995   2.197
 1247SOL    MW4 5020   0.453   4.011   2.281
 1248SOL     OW 5021   0.458   4.261   2.432
 1248SOL    HW2 5022   0.521   4.312   2.382
 1248SOL    HW3 5023   0.468   4.171   2.399
 1248SOL    MW4 5024   0.467   4.256   2.421
 1249SOL     OW 5025   0.641   4.391   2.259
 1249SOL    HW2 5026   0.612   4.482   2.268
 1249SOL    HW3 5027   0.650   4.378   2.164
 1249SOL    MW4 5028   0.638   4.401   2.248
 1250SOL     OW 5029   1.112   0.011   2.374
 1250SOL    HW2 5030   1.099  -0.008   2.467
 1250SOL    HW3 5031   1.028   0.047   2.345
 1250SOL    MW4 5032   1.099   0.013   2.383
 1251SOL     OW 5033   0.852   0.068   2.261
 1251SOL    HW2 5034   0.841   0.160   2.287
 1251SOL    HW3 5035   0.855   0.070   2.165
 1251SOL    MW4 5036   0.851   0.081   2.252
 1252SOL     OW 5037   0.850   0.327   2.362
 1252SOL    HW2 5038   0.932   0.363   2.329
 1252SOL    HW3 5039   0.782   0.382   2.322
 1252SOL    MW4 5040   0.852   0.339   2.352
 1253SOL     OW 5041   1.082   0.474   2.221
 1253SOL    HW2 5042   1.163   0.426   2.237
 1253SOL    HW3 5043   1.082   0.490   2.126
 1253SOL    MW4 5044   1.093   0.470   2.210
 1254SOL     OW 5045   1.088   0.738   2.325
 1254SOL    HW2 5046   1.011   0.786   2.294
 1254SOL    HW3 5047   1.090   0.659   2.270
 1254SOL    MW4 5048   1.078   0.734   2.313
 1255SOL     OW 5049   0.884   0.905   2.247
 1255SOL    HW2 5050   0.897   0.981   2.303
 1255SOL    HW3 5051   0.803   0.866   2.279
 1255SOL    MW4 5052   0.875   0.910   2.258
 1256SOL     OW 5053   0.899   1.147   2.375
 1256SOL    HW2 5054   0.978   1.190   2.342
 1256SOL    HW3 5055   0.827   1.203   2.344
 1256SOL    MW4 5056   0.900   1.160   2.366
 1257SOL     OW 5057   1.122   1.277   2.263
 1257SOL    HW2 5058   1.207   1.239   2.283
 1257SOL    HW3 5059   1.123   1.289   2.168
 1257SOL    MW4 5060   1.133   1.274   2.253
 1258SOL     OW 5061   1.102   1.527   2.360
 1258SOL    HW2 5062   1.022   1.563   2.320
 1258SOL    HW3 5063   1.101   1.435   2.336
 1258SOL    MW4 5064   1.091   1.520   2.351
 1259SOL     OW 5065   0.878   1.632   2.256
 1259SOL    HW2 5066   0.883   1.724   2.282
 1259SOL    HW3 5067   0.883   1.634   2.161
 1259SOL    MW4 5068   0.880   1.645   2.247
 1260SOL     OW 5069   0.870   1.909   2.350
 1260SOL    HW2 5070   0.870   1.909   2.446
 1260SOL    HW3 5071   0.948   1.959   2.326
 1260SOL    MW4 5072   0.880   1.916   2.360
 1261SOL     OW 5073   1.091   2.043   2.255
 1261SOL    HW2 5074   1.164   1.988   2.282
 1261SOL    HW3 5075   1.110   2.064   2.163
 1261SOL    MW4 5076   1.103   2.039   2.246
 1262SOL     OW 5077   1.110   2.305   2.390
 1262SOL    HW2 5078   1.182   2.357   2.356
 1262SOL    HW3 5079   1.113   2.223   2.341
 1262SOL    MW4 5080   1.120   2.301   2.379
 1263SOL     OW 5081   0.882   2.410   2.275
 1263SOL    HW2 5082   0.968   2.390   2.313
 1263SOL    HW3 5083   0.900   2.428   2.183
 1263SOL    MW4 5084   0.896   2.410   2.268
 1264SOL     OW 5085   0.866   2.680   2.376
 1264SOL    HW2 5086   0.869   2.684   2.471
 1264SOL    HW3 5087   0.851   2.587   2.357
 1264SOL    MW4 5088   0.864   2.668   2.386
 1265SOL     OW 5089   1.073   2.816   2.248
 1265SOL    HW2 5090   1.159   2.780   2.270
 1265SOL    HW3 5091   1.011   2.762   2.297
 1265SOL    MW4 5092   1.077   2.804   2.258
 1266SOL     OW 5093   1.128   3.071   2.362
 1266SOL    HW2 5094   1.056   3.128   2.335
 1266SOL    HW3 5095   1.113   2.989   2.315
 1266SOL    MW4 5096   1.117   3.068   2.352
 1267SOL     OW 5097   0.906   3.198   2.266
 1267SOL    HW2 5098   0.914   3.293   2.279
 1267SOL    HW3 5099   0.831   3.173   2.319
 1267SOL    MW4 5100   0.897   3.207   2.275
 1268SOL     OW 5101   0.938   3.450   2.355
 1268SOL    HW2 5102   0.922   3.445   2.449
 1268SOL    HW3 5103   0.868   3.506   2.322
 1268SOL    MW4 5104   0.927   3.457   2.363
 1269SOL     OW 5105   1.144   3.615   2.245
 1269SOL    HW2 5106   1.220   3.564   2.273
 1269SOL    HW3 5107   1.070   3.555   2.254
 1269SOL    MW4 5108   1.144   3.600   2.250
 1270SOL     OW 5109   1.091   3.876   2.337
 1270SOL    HW2 5110   1.184   3.897   2.322
 1270SOL    HW3 5111   1.086   3.781   2.330
 1270SOL    MW4 5112   1.103   3.867   2.334
 1271SOL     OW 5113   0.845   4.004   2.291
 1271SOL    HW2 5114   0.931   3.965   2.305
 1271SOL    HW3 5115   0.786   3.958   2.351
 1271SOL    MW4 5116   0.848   3.993   2.301
 1272SOL     OW 5117   0.859   4.267   2.388
 1272SOL    HW2 5118   0.854   4.177   2.358
 1272SOL    HW3 5119   0.780   4.309   2.352
 1272SOL    MW4 5120   0.848   4.261   2.379
 1273SOL     OW 5121   1.104   4.401   2.311
 1273SOL    HW2 5122   1.025   4.368   2.352
 1273SOL    HW3 5123   1.109   4.493   2.337
 1273SOL    MW4 5124   1.094   4.409   2.320
 1274SOL     OW 5125   1.554   0.008   2.350
 1274SOL    HW2 5126   1.627   0.048   2.303
 1274SOL    HW3 5127   1.476   0.043   2.308
 1274SOL    MW4 5128   1.554   0.018   2.338
 1275SOL     OW 5129   1.327   0.101   2.222
 1275SOL    HW2 5130   1.325   0.191   2.257
 1275SOL    HW3 5131   1.256   0.056   2.267
 1275SOL    MW4 5132   1.318   0.107   2.233
 1276SOL     OW 5133   1.323   0.369   2.331
 1276SOL    HW2 5134   1.323   0.375   2.427
 1276SOL    HW3 5135   1.393   0.429   2.304
 1276SOL    MW4 5136   1.333   0.378   2.340
 1277SOL     OW 5137   1.536   0.547   2.274
 1277SOL    HW2 5138   1.602   0.503   2.328
 1277SOL    HW3 5139   1.565   0.531   2.184
 1277SOL    MW4 5140   1.549   0.539   2.269
 1278SOL     OW 5141   1.534   0.818   2.354
 1278SOL    HW2 5142   1.610   0.852   2.307
 1278SOL    HW3 5143   1.525   0.728   2.323
 1278SOL    MW4 5144   1.543   0.810   2.344
 1279SOL     OW 5145   1.285   0.905   2.263
 1279SOL    HW2 5146   1.358   0.863   2.308
 1279SOL    HW3 5147   1.209   0.854   2.288
 1279SOL    MW4 5148   1.285   0.893   2.273
 1280SOL     OW 5149   1.358   1.162   2.333
 1280SOL    HW2 5150   1.343   1.145   2.426
 1280SOL    HW3 5151   1.334   1.081   2.289
 1280SOL    MW4 5152   1.353   1.149   2.339
 1281SOL     OW 5153   1.605   1.308   2.261
 1281SOL    HW2 5154   1.543   1.241   2.291
 1281SOL    HW3 5155   1.596   1.309   2.166
 1281SOL    MW4 5156   1.596   1.299   2.252
 1282SOL     OW 5157   1.526   1.564   2.362
 1282SOL    HW2 5158   1.605   1.615   2.343
 1282SOL    HW3 5159   1.543   1.479   2.322
 1282SOL    MW4 5160   1.539   1.560   2.354
 1283SOL     OW 5161   1.316   1.658   2.254
 1283SOL    HW2 5162   1.385   1.608   2.299
 1283SOL    HW3 5163   1.235   1.612   2.277
 1283SOL    MW4 5164   1.314   1.645   2.263
 1284SOL     OW 5165   1.310   1.907   2.349
 1284SOL    HW2 5166   1.397   1.943   2.332
 1284SOL    HW3 5167   1.313   1.819   2.312
 1284SOL    MW4 5168   1.322   1.900   2.341
 1285SOL     OW 5169   1.554   2.041   2.283
 1285SOL    HW2 5170   1.642   2.009   2.304
 1285SOL    HW3 5171   1.545   2.029   2.189
 1285SOL    MW4 5172   1.564   2.035   2.274
 1286SOL     OW 5173   1.574   2.317   2.306
 1286SOL    HW2 5174   1.572   2.320   2.401
 1286SOL    HW3 5175   1.574   2.224   2.285
 1286SOL    MW4 5176   1.573   2.305   2.316
 1287SOL     OW 5177   1.339   2.433   2.249
 1287SOL    HW2 5178   1.417   2.381   2.268
 1287SOL    HW3 5179   1.341   2.444   2.154
 1287SOL    MW4 5180   1.350   2.427   2.239
 1288SOL     OW 5181   1.314   2.702   2.325
 1288SOL    HW2 5182   1.401   2.737   2.307
 1288SOL    HW3 5183   1.319   2.611   2.293
 1288SOL    MW4 5184   1.326   2.694   2.318
 1289SOL     OW 5185   1.562   2.806   2.234
 1289SOL    HW2 5186   1.575   2.895   2.267
 1289SOL    HW3 5187   1.563   2.816   2.138
 1289SOL    MW4 5188   1.564   2.819   2.225
 1290SOL     OW 5189   1.584   3.059   2.334
 1290SOL    HW2 5190   1.594   3.076   2.428
 1290SOL    HW3 5191   1.497   3.093   2.314
 1290SOL    MW4 5192   1.574   3.066   2.344
 1291SOL     OW 5193   1.360   3.193   2.256
 1291SOL    HW2 5194   1.282   3.148   2.289
 1291SOL    HW3 5195   1.348   3.196   2.162
 1291SOL    MW4 5196   1.348   3.187   2.248
 1292SOL     OW 5197   1.370   3.461   2.330
 1292SOL    HW2 5198   1.353   3.447   2.424
 1292SOL    HW3 5199   1.380   3.373   2.295
 1292SOL    MW4 5200   1.369   3.447   2.338
 1293SOL     OW 5201   1.604   3.587   2.261
 1293SOL    HW2 5202   1.593   3.675   2.298
 1293SOL    HW3 5203   1.522   3.542   2.283
 1293SOL    MW4 5204   1.591   3.593   2.269
 1294SOL     OW 5205   1.568   3.872   2.361
 1294SOL    HW2 5206   1.566   3.870   2.457
 1294SOL    HW3 5207   1.637   3.935   2.340
 1294SOL    MW4 5208   1.577   3.880   2.371
 1295SOL     OW 5209   1.354   3.985   2.261
 1295SOL    HW2 5210   1.429   3.932   2.291
 1295SOL    HW3 5211   1.363   3.988   2.166
 1295SOL    MW4 5212   1.365   3.978   2.253
 1296SOL     OW 5213   1.332   4.250   2.332
 1296SOL    HW2 5214   1.314   4.159   2.310
 1296SOL    HW3 5215   1.251   4.297   2.309
 1296SOL    MW4 5216   1.319   4.244   2.326
 1297SOL     OW 5217   1.542   4.409   2.242
 1297SOL    HW2 5218   1.458   4.368   2.262
 1297SOL    HW3 5219   1.543   4.489   2.294
 1297SOL    MW4 5220   1.531   4.414   2.251
 1298SOL     OW 5221   2.022   0.041   2.332
 1298SOL    HW2 5222   2.093   0.090   2.291
 1298SOL    HW3 5223   2.027  -0.047   2.294
 1298SOL    MW4 5224   2.032   0.036   2.322
 1299SOL     OW 5225   1.781   0.149   2.242
 1299SOL    HW2 5226   1.779   0.238   2.276
 1299SOL    HW3 5227   1.858   0.109   2.284
 1299SOL    MW4 5228   1.791   0.155   2.252
 1300SOL     OW 5229   1.755   0.393   2.370
 1300SOL    HW2 5230   1.770   0.378   2.464
 1300SOL    HW3 5231   1.836   0.432   2.339
 1300SOL    MW4 5232   1.768   0.396   2.379
 1301SOL     OW 5233   1.996   0.505   2.279
 1301SOL    HW2 5234   2.000   0.595   2.309
 1301SOL    HW3 5235   2.006   0.510   2.184
 1301SOL    MW4 5236   1.998   0.517   2.271
 1302SOL     OW 5237   1.996   0.767   2.361
 1302SOL    HW2 5238   2.071   0.810   2.320
 1302SOL    HW3 5239   1.920   0.816   2.328
 1302SOL    MW4 5240   1.996   0.779   2.351
 1303SOL     OW 5241   1.790   0.925   2.264
 1303SOL    HW2 5242   1.798   1.018   2.286
 1303SOL    HW3 5243   1.789   0.923   2.169
 1303SOL    MW4 5244   1.791   0.937   2.255
 1304SOL     OW 5245   1.817   1.190   2.376
 1304SOL    HW2 5246   1.895   1.233   2.342
 1304SOL    HW3 5247   1.745   1.229   2.326
 1304SOL    MW4 5248   1.817   1.201   2.365
 1305SOL     OW 5249   2.032   1.317   2.236
 1305SOL    HW2 5250   2.021   1.407   2.266
 1305SOL    HW3 5251   2.052   1.324   2.143
 1305SOL    MW4 5252   2.033   1.330   2.228
 1306SOL     OW 5253   2.020   1.589   2.321
 1306SOL    HW2 5254   2.015   1.565   2.414
 1306SOL    HW3 5255   1.930   1.609   2.297
 1306SOL    MW4 5256   2.007   1.588   2.330
 1307SOL     OW 5257   1.765   1.689   2.278
 1307SOL    HW2 5258   1.786   1.780   2.300
 1307SOL    HW3 5259   1.762   1.688   2.183
 1307SOL    MW4 5260   1.767   1.701   2.268
 1308SOL     OW 5261   1.814   1.954   2.319
 1308SOL    HW2 5262   1.811   1.952   2.414
 1308SOL    HW3 5263   1.885   2.015   2.299
 1308SOL    MW4 5264   1.823   1.962   2.329
 1309SOL     OW 5265   2.040   2.073   2.219
 1309SOL    HW2 5266   2.107   2.022   2.264
 1309SOL    HW3 5267   2.037   2.037   2.131
 1309SOL    MW4 5268   2.048   2.061   2.214
 1310SOL     OW 5269   2.058   2.322   2.345
 1310SOL    HW2 5270   2.132   2.379   2.325
 1310SOL    HW3 5271   2.069   2.246   2.289
 1310SOL    MW4 5272   2.069   2.320   2.335
 1311SOL     OW 5273   1.835   2.444   2.206
 1311SOL    HW2 5274   1.916   2.419   2.250
 1311SOL    HW3 5275   1.766   2.406   2.261
 1311SOL    MW4 5276   1.836   2.436   2.219
 1312SOL     OW 5277   1.797   2.696   2.322
 1312SOL    HW2 5278   1.804   2.607   2.287
 1312SOL    HW3 5279   1.713   2.728   2.291
 1312SOL    MW4 5280   1.787   2.688   2.314
 1313SOL     OW 5281   2.036   2.847   2.266
 1313SOL    HW2 5282   2.109   2.794   2.296
 1313SOL    HW3 5283   1.958   2.795   2.288
 1313SOL    MW4 5284   2.035   2.834   2.273
 1314SOL     OW 5285   1.998   3.096   2.391
 1314SOL    HW2 5286   2.062   3.145   2.340
 1314SOL    HW3 5287   2.009   3.005   2.361
 1314SOL    MW4 5288   2.008   3.090   2.380
 1315SOL     OW 5289   1.807   3.191   2.236
 1315SOL    HW2 5290   1.864   3.158   2.305
 1315SOL    HW3 5291   1.720   3.157   2.259
 1315SOL    MW4 5292   1.803   3.182   2.248
 1316SOL     OW 5293   1.843   3.441   2.316
 1316SOL    HW2 5294   1.827   3.349   2.295
 1316SOL    HW3 5295   1.764   3.487   2.286
 1316SOL    MW4 5296   1.830   3.435   2.309
 1317SOL     OW 5297   2.040   3.626   2.249
 1317SOL    HW2 5298   1.974   3.573   2.292
 1317SOL    HW3 5299   2.034   3.601   2.156
 1317SOL    MW4 5300   2.031   3.615   2.242
 1318SOL     OW 5301   2.036   3.884   2.339
 1318SOL    HW2 5302   2.036   3.882   2.435
 1318SOL    HW3 5303   2.032   3.792   2.313
 1318SOL    MW4 5304   2.036   3.872   2.349
 1319SOL     OW 5305   1.780   4.004   2.262
 1319SOL    HW2 5306   1.867   3.987   2.298
 1319SOL    HW3 5307   1.790   3.993   2.168
 1319SOL    MW4 5308   1.792   4.000   2.254
 1320SOL     OW 5309   1.771   4.276   2.344
 1320SOL    HW2 5310   1.768   4.191   2.298
 1320SOL    HW3 5311   1.687   4.317   2.323
 1320SOL    MW4 5312   1.760   4.270   2.335
 1321SOL     OW 5313   2.022   4.426   2.239
 1321SOL    HW2 5314   1.948   4.376   2.275
 1321SOL    HW3 5315   2.006   4.427   2.145
 1321SOL    MW4 5316   2.010   4.419   2.232
 1322SOL     OW 5317   2.471   0.003   2.330
 1322SOL    HW2 5318   2.550   0.030   2.283
 1322SOL    HW3 5319   2.469  -0.092   2.322
 1322SOL    MW4 5320   2.481  -0.006   2.323
 1323SOL     OW 5321   2.268   0.166   2.219
 1323SOL    HW2 5322   2.276   0.249   2.265
 1323SOL    HW3 5323   2.329   0.107   2.263
 1323SOL    MW4 5324   2.277   0.169   2.231
 1324SOL     OW 5325   2.240   0.406   2.389
 1324SOL    HW2 5326   2.303   0.455   2.336
 1324SOL    HW3 5327   2.154   0.436   2.358
 1324SOL    MW4 5328   2.237   0.416   2.378
 1325SOL     OW 5329   2.485   0.505   2.253
 1325SOL    HW2 5330   2.569   0.461   2.269
 1325SOL    HW3 5331   2.464   0.482   2.162
 1325SOL    MW4 5332   2.493   0.496   2.243
 1326SOL     OW 5333   2.446   0.766   2.332
 1326SOL    HW2 5334   2.535   0.799   2.316
 1326SOL    HW3 5335   2.450   0.674   2.307
 1326SOL    MW4 5336   2.458   0.758   2.327
 1327SOL     OW 5337   2.221   0.907   2.258
 1327SOL    HW2 5338   2.205   0.986   2.310
 1327SOL    HW3 5339   2.305   0.874   2.290
 1327SOL    MW4 5340   2.230   0.913   2.269
 1328SOL     OW 5341   2.227   1.186   2.384
 1328SOL    HW2 5342   2.304   1.183   2.327
 1328SOL    HW3 5343   2.163   1.238   2.335
 1328SOL    MW4 5344   2.229   1.193   2.370
 1329SOL     OW 5345   2.467   1.255   2.221
 1329SOL    HW2 5346   2.545   1.221   2.266
 1329SOL    HW3 5347   2.450   1.339   2.262
 1329SOL    MW4 5348   2.475   1.261   2.233
 1330SOL     OW 5349   2.447   1.512   2.349
 1330SOL    HW2 5350   2.427   1.512   2.443
 1330SOL    HW3 5351   2.532   1.555   2.343
 1330SOL    MW4 5352   2.456   1.518   2.361
 1331SOL     OW 5353   2.251   1.673   2.205
 1331SOL    HW2 5354   2.299   1.611   2.260
 1331SOL    HW3 5355   2.160   1.663   2.231
 1331SOL    MW4 5356   2.245   1.663   2.216
 1332SOL     OW 5357   2.249   1.920   2.338
 1332SOL    HW2 5358   2.308   1.978   2.290
 1332SOL    HW3 5359   2.264   1.833   2.300
 1332SOL    MW4 5360   2.259   1.916   2.327
 1333SOL     OW 5361   2.471   2.047   2.210
 1333SOL    HW2 5362   2.539   1.987   2.242
 1333SOL    HW3 5363   2.460   2.023   2.118
 1333SOL    MW4 5364   2.479   2.036   2.202
 1334SOL     OW 5365   2.492   2.301   2.338
 1334SOL    HW2 5366   2.568   2.354   2.313
 1334SOL    HW3 5367   2.506   2.216   2.295
 1334SOL    MW4 5368   2.504   2.297   2.329
 1335SOL     OW 5369   2.274   2.451   2.238
 1335SOL    HW2 5370   2.295   2.541   2.266
 1335SOL    HW3 5371   2.351   2.400   2.264
 1335SOL    MW4 5372   2.287   2.456   2.245
 1336SOL     OW 5373   2.268   2.702   2.328
 1336SOL    HW2 5374   2.259   2.690   2.423
 1336SOL    HW3 5375   2.346   2.757   2.318
 1336SOL    MW4 5376   2.277   2.708   2.339
 1337SOL     OW 5377   2.503   2.854   2.241
 1337SOL    HW2 5378   2.577   2.805   2.277
 1337SOL    HW3 5379   2.513   2.849   2.146
 1337SOL    MW4 5380   2.514   2.847   2.234
 1338SOL     OW 5381   2.434   3.087   2.369
 1338SOL    HW2 5382   2.504   3.143   2.335
 1338SOL    HW3 5383   2.449   3.002   2.327
 1338SOL    MW4 5384   2.445   3.083   2.359
 1339SOL     OW 5385   2.211   3.191   2.229
 1339SOL    HW2 5386   2.218   3.281   2.260
 1339SOL    HW3 5387   2.277   3.143   2.280
 1339SOL    MW4 5388   2.221   3.196   2.240
 1340SOL     OW 5389   2.255   3.453   2.338
 1340SOL    HW2 5390   2.260   3.461   2.433
 1340SOL    HW3 5391   2.185   3.514   2.313
 1340SOL    MW4 5392   2.246   3.462   2.347
 1341SOL     OW 5393   2.475   3.598   2.222
 1341SOL    HW2 5394   2.479   3.684   2.264
 1341SOL    HW3 5395   2.399   3.555   2.261
 1341SOL    MW4 5396   2.466   3.604   2.232
 1342SOL     OW 5397   2.441   3.861   2.337
 1342SOL    HW2 5398   2.432   3.893   2.427
 1342SOL    HW3 5399   2.375   3.911   2.288
 1342SOL    MW4 5400   2.431   3.872   2.342
 1343SOL     OW 5401   2.243   4.014   2.219
 1343SOL    HW2 5402   2.252   4.094   2.270
 1343SOL    HW3 5403   2.173   3.966   2.262
 1343SOL    MW4 5404   2.235   4.018   2.231
 1344SOL     OW 5405   2.223   4.265   2.331
 1344SOL    HW2 5406   2.226   4.279   2.426
 1344SOL    HW3 5407   2.155   4.325   2.299
 1344SOL    MW4 5408   2.214   4.275   2.339
 1345SOL     OW 5409   2.462   4.400   2.268
 1345SOL    HW2 5410   2.525   4.328   2.274
 1345SOL    HW3 5411   2.377   4.358   2.283
 1345SOL    MW4 5412   2.459   4.385   2.271
 1346SOL     OW 5413   2.937   4.632   2.363
 1346SOL    HW2 5414   3.018   4.672   2.333
 1346SOL    HW3 5415   2.924   4.556   2.306
 1346SOL    MW4 5416   2.946   4.627   2.352
 1347SOL     OW 5417   2.718   0.089   2.234
 1347SOL    HW2 5418   2.724   0.179   2.267
 1347SOL    HW3 5419   2.799   0.047   2.262
 1347SOL    MW4 5420   2.729   0.096   2.242
 1348SOL     OW 5421   2.698   0.340   2.346
 1348SOL    HW2 5422   2.683   0.324   2.439
 1348SOL    HW3 5423   2.772   0.402   2.344
 1348SOL    MW4 5424   2.706   0.346   2.358
 1349SOL     OW 5425   2.927   0.487   2.286
 1349SOL    HW2 5426   2.917   0.582   2.292
 1349SOL    HW3 5427   2.924   0.468   2.192
 1349SOL    MW4 5428   2.925   0.497   2.274
 1350SOL     OW 5429   2.893   0.756   2.319
 1350SOL    HW2 5430   2.902   0.772   2.413
 1350SOL    HW3 5431   2.819   0.811   2.292
 1350SOL    MW4 5432   2.884   0.766   2.328
 1351SOL     OW 5433   2.677   0.907   2.257
 1351SOL    HW2 5434   2.683   1.000   2.280
 1351SOL    HW3 5435   2.692   0.905   2.163
 1351SOL    MW4 5436   2.680   0.919   2.248
 1352SOL     OW 5437   2.688   1.181   2.359
 1352SOL    HW2 5438   2.682   1.162   2.453
 1352SOL    HW3 5439   2.782   1.197   2.344
 1352SOL    MW4 5440   2.700   1.180   2.369
 1353SOL     OW 5441   2.944   1.226   2.259
 1353SOL    HW2 5442   3.017   1.175   2.295
 1353SOL    HW3 5443   2.968   1.239   2.167
 1353SOL    MW4 5444   2.957   1.221   2.251
 1354SOL     OW 5445   2.948   1.498   2.323
 1354SOL    HW2 5446   2.971   1.494   2.416
 1354SOL    HW3 5447   2.920   1.409   2.302
 1354SOL    MW4 5448   2.947   1.486   2.333
 1355SOL     OW 5449   2.700   1.636   2.291
 1355SOL    HW2 5450   2.790   1.608   2.308
 1355SOL    HW3 5451   2.693   1.640   2.196
 1355SOL    MW4 5452   2.711   1.633   2.281
 1356SOL     OW 5453   2.680   1.912   2.312
 1356SOL    HW2 5454   2.674   1.932   2.406
 1356SOL    HW3 5455   2.688   1.816   2.309
 1356SOL    MW4 5456   2.680   1.902   2.324
 1357SOL     OW 5457   2.922   2.029   2.291
 1357SOL    HW2 5458   2.980   1.964   2.331
 1357SOL    HW3 5459   2.835   1.990   2.296
 1357SOL    MW4 5460   2.918   2.015   2.297
 1358SOL     OW 5461   2.926   2.300   2.359
 1358SOL    HW2 5462   2.917   2.297   2.455
 1358SOL    HW3 5463   2.923   2.208   2.332
 1358SOL    MW4 5464   2.925   2.287   2.368
 1359SOL     OW 5465   2.721   2.451   2.257
 1359SOL    HW2 5466   2.792   2.397   2.292
 1359SOL    HW3 5467   2.733   2.445   2.162
 1359SOL    MW4 5468   2.732   2.443   2.249
 1360SOL     OW 5469   2.727   2.717   2.339
 1360SOL    HW2 5470   2.813   2.747   2.309
 1360SOL    HW3 5471   2.729   2.622   2.330
 1360SOL    MW4 5472   2.738   2.709   2.334
 1361SOL     OW 5473   2.999   2.855   2.247
 1361SOL    HW2 5474   2.981   2.941   2.285
 1361SOL    HW3 5475   2.972   2.863   2.156
 1361SOL    MW4 5476   2.993   2.867   2.240
 1362SOL     OW 5477   2.895   3.097   2.364
 1362SOL    HW2 5478   2.961   3.156   2.329
 1362SOL    HW3 5479   2.812   3.141   2.347
 1362SOL    MW4 5480   2.893   3.110   2.357
 1363SOL     OW 5481   2.661   3.219   2.287
 1363SOL    HW2 5482   2.650   3.307   2.323
 1363SOL    HW3 5483   2.699   3.233   2.200
 1363SOL    MW4 5484   2.665   3.232   2.280
 1364SOL     OW 5485   2.658   3.475   2.371
 1364SOL    HW2 5486   2.739   3.521   2.348
 1364SOL    HW3 5487   2.589   3.523   2.325
 1364SOL    MW4 5488   2.660   3.488   2.362
 1365SOL     OW 5489   2.873   3.617   2.273
 1365SOL    HW2 5490   2.957   3.581   2.300
 1365SOL    HW3 5491   2.882   3.711   2.284
 1365SOL    MW4 5492   2.885   3.624   2.278
 1366SOL     OW 5493   2.928   3.874   2.290
 1366SOL    HW2 5494   2.921   3.875   2.386
 1366SOL    HW3 5495   2.845   3.911   2.260
 1366SOL    MW4 5496   2.916   3.879   2.299
 1367SOL     OW 5497   2.688   3.972   2.237
 1367SOL    HW2 5498   2.610   3.926   2.269
 1367SOL    HW3 5499   2.661   4.010   2.154
 1367SOL    MW4 5500   2.674   3.971   2.231
 1368SOL     OW 5501   2.697   4.246   2.316
 1368SOL    HW2 5502   2.691   4.265   2.409
 1368SOL    HW3 5503   2.700   4.150   2.312
 1368SOL    MW4 5504   2.697   4.236   2.328
 1369SOL     OW 5505   2.912   4.394   2.217
 1369SOL    HW2 5506   2.979   4.329   2.237
 1369SOL    HW3 5507   2.831   4.357   2.252
 1369SOL    MW4 5508   2.910   4.381   2.224
 1370SOL     OW 5509   3.380   4.612   2.307
 1370SOL    HW2 5510   3.370   4.637   2.399
 1370SOL    HW3 5511   3.449   4.669   2.274
 1370SOL    MW4 5512   3.388   4.622   2.315
 1371SOL     OW 5513   3.150   0.095   2.240
 1371SOL    HW2 5514   3.159   0.171   2.297
 1371SOL    HW3 5515   3.227   0.041   2.260
 1371SOL    MW4 5516   3.161   0.098   2.250
 1372SOL     OW 5517   3.141   0.344   2.397
 1372SOL    HW2 5518   3.210   0.400   2.362
 1372SOL    HW3 5519   3.060   0.380   2.362
 1372SOL    MW4 5520   3.139   0.356   2.388
 1373SOL     OW 5521   3.360   0.486   2.277
 1373SOL    HW2 5522   3.446   0.458   2.310
 1373SOL    HW3 5523   3.363   0.464   2.183
 1373SOL    MW4 5524   3.372   0.479   2.269
 1374SOL     OW 5525   3.349   0.769   2.376
 1374SOL    HW2 5526   3.424   0.818   2.341
 1374SOL    HW3 5527   3.368   0.678   2.353
 1374SOL    MW4 5528   3.362   0.763   2.368
 1375SOL     OW 5529   3.122   0.878   2.242
 1375SOL    HW2 5530   3.187   0.815   2.272
 1375SOL    HW3 5531   3.038   0.838   2.261
 1375SOL    MW4 5532   3.120   0.865   2.248
 1376SOL     OW 5533   3.160   1.104   2.386
 1376SOL    HW2 5534   3.229   1.151   2.339
 1376SOL    HW3 5535   3.158   1.017   2.344
 1376SOL    MW4 5536   3.169   1.098   2.374
 1377SOL     OW 5537   3.368   1.238   2.249
 1377SOL    HW2 5538   3.450   1.194   2.273
 1377SOL    HW3 5539   3.369   1.318   2.301
 1377SOL    MW4 5540   3.379   1.243   2.259
 1378SOL     OW 5541   3.369   1.468   2.368
 1378SOL    HW2 5542   3.360   1.490   2.461
 1378SOL    HW3 5543   3.300   1.519   2.326
 1378SOL    MW4 5544   3.359   1.478   2.375
 1379SOL     OW 5545   3.166   1.613   2.218
 1379SOL    HW2 5546   3.153   1.699   2.259
 1379SOL    HW3 5547   3.085   1.566   2.238
 1379SOL    MW4 5548   3.153   1.619   2.226
 1380SOL     OW 5549   3.147   1.870   2.343
 1380SOL    HW2 5550   3.154   1.887   2.437
 1380SOL    HW3 5551   3.200   1.939   2.302
 1380SOL    MW4 5552   3.155   1.882   2.350
 1381SOL     OW 5553   3.346   2.026   2.252
 1381SOL    HW2 5554   3.426   1.989   2.289
 1381SOL    HW3 5555   3.365   2.032   2.158
 1381SOL    MW4 5556   3.359   2.022   2.244
 1382SOL     OW 5557   3.376   2.286   2.364
 1382SOL    HW2 5558   3.313   2.338   2.314
 1382SOL    HW3 5559   3.368   2.198   2.327
 1382SOL    MW4 5560   3.367   2.281   2.352
 1383SOL     OW 5561   3.162   2.415   2.244
 1383SOL    HW2 5562   3.163   2.504   2.279
 1383SOL    HW3 5563   3.093   2.370   2.293
 1383SOL    MW4 5564   3.153   2.421   2.255
 1384SOL     OW 5565   3.153   2.662   2.339
 1384SOL    HW2 5566   3.145   2.666   2.435
 1384SOL    HW3 5567   3.092   2.727   2.307
 1384SOL    MW4 5568   3.144   2.671   2.348
 1385SOL     OW 5569   3.354   2.827   2.233
 1385SOL    HW2 5570   3.333   2.911   2.273
 1385SOL    HW3 5571   3.285   2.768   2.264
 1385SOL    MW4 5572   3.342   2.830   2.242
 1386SOL     OW 5573   3.324   3.084   2.320
 1386SOL    HW2 5574   3.396   3.144   2.297
 1386SOL    HW3 5575   3.247   3.123   2.278
 1386SOL    MW4 5576   3.324   3.097   2.312
 1387SOL     OW 5577   3.126   3.251   2.225
 1387SOL    HW2 5578   3.123   3.337   2.268
 1387SOL    HW3 5579   3.127   3.270   2.132
 1387SOL    MW4 5580   3.126   3.265   2.218
 1388SOL     OW 5581   3.129   3.489   2.356
 1388SOL    HW2 5582   3.136   3.488   2.451
 1388SOL    HW3 5583   3.205   3.540   2.327
 1388SOL    MW4 5584   3.140   3.496   2.364
 1389SOL     OW 5585   3.347   3.631   2.270
 1389SOL    HW2 5586   3.431   3.592   2.293
 1389SOL    HW3 5587   3.356   3.653   2.177
 1389SOL    MW4 5588   3.359   3.629   2.261
 1390SOL     OW 5589   3.396   3.892   2.363
 1390SOL    HW2 5590   3.474   3.926   2.320
 1390SOL    HW3 5591   3.388   3.802   2.331
 1390SOL    MW4 5592   3.405   3.884   2.353
 1391SOL     OW 5593   3.175   3.968   2.204
 1391SOL    HW2 5594   3.245   3.949   2.267
 1391SOL    HW3 5595   3.100   3.917   2.236
 1391SOL    MW4 5596   3.174   3.959   2.217
 1392SOL     OW 5597   3.134   4.237   2.309
 1392SOL    HW2 5598   3.216   4.274   2.275
 1392SOL    HW3 5599   3.132   4.148   2.274
 1392SOL    MW4 5600   3.144   4.230   2.300
 1393SOL     OW 5601   3.383   4.360   2.218
 1393SOL    HW2 5602   3.367   4.445   2.257
 1393SOL    HW3 5603   3.386   4.377   2.124
 1393SOL    MW4 5604   3.381   4.373   2.211
 1394SOL     OW 5605   3.805   4.634   2.337
 1394SOL    HW2 5606   3.817   4.620   2.431
 1394SOL    HW3 5607   3.887   4.674   2.308
 1394SOL    MW4 5608   3.818   4.637   2.345
 1395SOL     OW 5609   3.595   0.109   2.204
 1395SOL    HW2 5610   3.592   0.193   2.249
 1395SOL    HW3 5611   3.662   0.059   2.250
 1395SOL    MW4 5612   3.603   0.113   2.216
 1396SOL     OW 5613   3.598   0.350   2.316
 1396SOL    HW2 5614   3.619   0.344   2.409
 1396SOL    HW3 5615   3.674   0.393   2.276
 1396SOL    MW4 5616   3.611   0.355   2.323
 1397SOL     OW 5617   3.833   0.492   2.232
 1397SOL    HW2 5618   3.809   0.580   2.259
 1397SOL    HW3 5619   3.850   0.499   2.139
 1397SOL    MW4 5620   3.832   0.504   2.224
 1398SOL     OW 5621   3.785   0.763   2.328
 1398SOL    HW2 5622   3.785   0.772   2.423
 1398SOL    HW3 5623   3.872   0.791   2.301
 1398SOL    MW4 5624   3.796   0.768   2.337
 1399SOL     OW 5625   3.568   0.907   2.216
 1399SOL    HW2 5626   3.652   0.869   2.240
 1399SOL    HW3 5627   3.569   0.909   2.120
 1399SOL    MW4 5628   3.579   0.902   2.206
 1400SOL     OW 5629   3.622   1.134   2.372
 1400SOL    HW2 5630   3.607   1.126   2.466
 1400SOL    HW3 5631   3.603   1.047   2.337
 1400SOL    MW4 5632   3.617   1.122   2.380
 1401SOL     OW 5633   3.816   1.268   2.240
 1401SOL    HW2 5634   3.804   1.355   2.279
 1401SOL    HW3 5635   3.749   1.214   2.282
 1401SOL    MW4 5636   3.806   1.273   2.251
 1402SOL     OW 5637   3.834   1.516   2.341
 1402SOL    HW2 5638   3.837   1.521   2.437
 1402SOL    HW3 5639   3.756   1.567   2.317
 1402SOL    MW4 5640   3.824   1.524   2.351
 1403SOL     OW 5641   3.579   1.657   2.292
 1403SOL    HW2 5642   3.522   1.585   2.318
 1403SOL    HW3 5643   3.583   1.652   2.197
 1403SOL    MW4 5644   3.572   1.647   2.283
 1404SOL     OW 5645   3.593   1.920   2.370
 1404SOL    HW2 5646   3.680   1.945   2.339
 1404SOL    HW3 5647   3.585   1.827   2.346
 1404SOL    MW4 5648   3.603   1.911   2.362
 1405SOL     OW 5649   3.835   2.015   2.266
 1405SOL    HW2 5650   3.921   1.985   2.296
 1405SOL    HW3 5651   3.839   2.010   2.171
 1405SOL    MW4 5652   3.847   2.011   2.258
 1406SOL     OW 5653   3.825   2.283   2.380
 1406SOL    HW2 5654   3.782   2.329   2.308
 1406SOL    HW3 5655   3.821   2.190   2.355
 1406SOL    MW4 5656   3.819   2.276   2.367
 1407SOL     OW 5657   3.628   2.441   2.245
 1407SOL    HW2 5658   3.549   2.394   2.272
 1407SOL    HW3 5659   3.632   2.430   2.150
 1407SOL    MW4 5660   3.618   2.434   2.236
 1408SOL     OW 5661   3.598   2.721   2.306
 1408SOL    HW2 5662   3.576   2.634   2.271
 1408SOL    HW3 5663   3.519   2.773   2.293
 1408SOL    MW4 5664   3.585   2.716   2.299
 1409SOL     OW 5665   3.857   2.838   2.261
 1409SOL    HW2 5666   3.825   2.928   2.265
 1409SOL    HW3 5667   3.779   2.784   2.274
 1409SOL    MW4 5668   3.843   2.843   2.264
 1410SOL     OW 5669   3.784   3.102   2.329
 1410SOL    HW2 5670   3.787   3.087   2.424
 1410SOL    HW3 5671   3.867   3.144   2.309
 1410SOL    MW4 5672   3.795   3.106   2.339
 1411SOL     OW 5673   3.554   3.244   2.245
 1411SOL    HW2 5674   3.566   3.337   2.265
 1411SOL    HW3 5675   3.631   3.201   2.283
 1411SOL    MW4 5676   3.566   3.251   2.253
 1412SOL     OW 5677   3.592   3.507   2.344
 1412SOL    HW2 5678   3.607   3.502   2.439
 1412SOL    HW3 5679   3.674   3.542   2.309
 1412SOL    MW4 5680   3.605   3.511   2.352
 1413SOL     OW 5681   3.845   3.606   2.260
 1413SOL    HW2 5682   3.857   3.695   2.292
 1413SOL    HW3 5683   3.838   3.615   2.165
 1413SOL    MW4 5684   3.846   3.619   2.251
 1414SOL     OW 5685   3.840   3.866   2.338
 1414SOL    HW2 5686   3.839   3.885   2.432
 1414SOL    HW3 5687   3.918   3.911   2.305
 1414SOL    MW4 5688   3.850   3.875   2.346
 1415SOL     OW 5689   3.618   3.999   2.236
 1415SOL    HW2 5690   3.618   4.087   2.275
 1415SOL    HW3 5691   3.692   3.955   2.278
 1415SOL    MW4 5692   3.628   4.005   2.247
 1416SOL     OW 5693   3.603   4.260   2.346
 1416SOL    HW2 5694   3.675   4.317   2.320
 1416SOL    HW3 5695   3.526   4.300   2.307
 1416SOL    MW4 5696   3.603   4.273   2.337
 1417SOL     OW 5697   3.832   4.376   2.239
 1417SOL    HW2 5698   3.905   4.337   2.288
 1417SOL    HW3 5699   3.832   4.468   2.268
 1417SOL    MW4 5700   3.842   4.383   2.249
 1418SOL     OW 5701   4.252   4.649   2.385
 1418SOL    HW2 5702   4.254   4.659   2.480
 1418SOL    HW3 5703   4.318   4.711   2.354
 1418SOL    MW4 5704   4.261   4.659   2.394
 1419SOL     OW 5705   4.050   0.108   2.247
 1419SOL    HW2 5706   4.036   0.200   2.271
 1419SOL    HW3 5707   4.113   0.076   2.313
 1419SOL    MW4 5708   4.057   0.116   2.259
 1420SOL     OW 5709   4.047   0.368   2.348
 1420SOL    HW2 5710   4.126   0.406   2.310
 1420SOL    HW3 5711   3.975   0.411   2.302
 1420SOL    MW4 5712   4.048   0.378   2.337
 1421SOL     OW 5713   4.269   0.495   2.252
 1421SOL    HW2 5714   4.257   0.573   2.306
 1421SOL    HW3 5715   4.321   0.436   2.306
 1421SOL    MW4 5716   4.274   0.498   2.266
 1422SOL     OW 5717   4.268   0.766   2.381
 1422SOL    HW2 5718   4.191   0.814   2.355
 1422SOL    HW3 5719   4.341   0.810   2.337
 1422SOL    MW4 5720   4.268   0.778   2.372
 1423SOL     OW 5721   4.039   0.873   2.269
 1423SOL    HW2 5722   4.040   0.961   2.307
 1423SOL    HW3 5723   4.035   0.888   2.175
 1423SOL    MW4 5724   4.039   0.887   2.262
 1424SOL     OW 5725   4.036   1.144   2.359
 1424SOL    HW2 5726   4.021   1.180   2.446
 1424SOL    HW3 5727   3.964   1.178   2.306
 1424SOL    MW4 5728   4.024   1.153   2.363
 1425SOL     OW 5729   4.245   1.261   2.230
 1425SOL    HW2 5730   4.182   1.197   2.265
 1425SOL    HW3 5731   4.331   1.226   2.254
 1425SOL    MW4 5732   4.248   1.248   2.238
 1426SOL     OW 5733   4.279   1.503   2.358
 1426SOL    HW2 5734   4.280   1.412   2.327
 1426SOL    HW3 5735   4.357   1.542   2.318
 1426SOL    MW4 5736   4.290   1.496   2.348
 1427SOL     OW 5737   4.071   1.651   2.256
 1427SOL    HW2 5738   4.149   1.604   2.285
 1427SOL    HW3 5739   3.998   1.600   2.291
 1427SOL    MW4 5740   4.072   1.638   2.265
 1428SOL     OW 5741   4.068   1.908   2.343
 1428SOL    HW2 5742   4.043   1.924   2.434
 1428SOL    HW3 5743   4.047   1.816   2.329
 1428SOL    MW4 5744   4.062   1.898   2.353
 1429SOL     OW 5745   4.287   2.050   2.241
 1429SOL    HW2 5746   4.293   2.137   2.282
 1429SOL    HW3 5747   4.209   2.011   2.281
 1429SOL    MW4 5748   4.277   2.056   2.252
 1430SOL     OW 5749   4.289   2.324   2.311
 1430SOL    HW2 5750   4.202   2.350   2.281
 1430SOL    HW3 5751   4.349   2.374   2.256
 1430SOL    MW4 5752   4.285   2.334   2.300
 1431SOL     OW 5753   4.041   2.406   2.229
 1431SOL    HW2 5754   4.038   2.491   2.272
 1431SOL    HW3 5755   3.985   2.350   2.284
 1431SOL    MW4 5756   4.033   2.410   2.242
 1432SOL     OW 5757   4.060   2.660   2.342
 1432SOL    HW2 5758   4.078   2.696   2.429
 1432SOL    HW3 5759   3.998   2.722   2.303
 1432SOL    MW4 5760   4.054   2.673   2.349
 1433SOL     OW 5761   4.278   2.809   2.211
 1433SOL    HW2 5762   4.204   2.752   2.232
 1433SOL    HW3 5763   4.355   2.761   2.240
 1433SOL    MW4 5764   4.278   2.795   2.217
 1434SOL     OW 5765   4.278   3.072   2.326
 1434SOL    HW2 5766   4.268   2.984   2.291
 1434SOL    HW3 5767   4.373   3.088   2.324
 1434SOL    MW4 5768   4.289   3.063   2.321
 1435SOL     OW 5769   4.029   3.189   2.260
 1435SOL    HW2 5770   4.041   3.278   2.292
 1435SOL    HW3 5771   4.106   3.142   2.292
 1435SOL    MW4 5772   4.040   3.194   2.268
 1436SOL     OW 5773   4.047   3.437   2.386
 1436SOL    HW2 5774   4.126   3.459   2.336
 1436SOL    HW3 5775   3.977   3.485   2.341
 1436SOL    MW4 5776   4.048   3.446   2.373
 1437SOL     OW 5777   4.280   3.575   2.260
 1437SOL    HW2 5778   4.270   3.664   2.295
 1437SOL    HW3 5779   4.303   3.587   2.169
 1437SOL    MW4 5780   4.282   3.588   2.253
 1438SOL     OW 5781   4.299   3.824   2.362
 1438SOL    HW2 5782   4.301   3.866   2.448
 1438SOL    HW3 5783   4.378   3.855   2.318
 1438SOL    MW4 5784   4.309   3.834   2.368
 1439SOL     OW 5785   4.055   3.986   2.254
 1439SOL    HW2 5786   4.136   3.949   2.289
 1439SOL    HW3 5787   4.064   3.979   2.159
 1439SOL    MW4 5788   4.067   3.980   2.246
 1440SOL     OW 5789   4.048   4.245   2.358
 1440SOL    HW2 5790   4.121   4.297   2.325
 1440SOL    HW3 5791   4.062   4.158   2.320
 1440SOL    MW4 5792   4.060   4.240   2.349
 1441SOL     OW 5793   4.276   4.388   2.266
 1441SOL    HW2 5794   4.280   4.475   2.304
 1441SOL    HW3 5795   4.340   4.337   2.315
 1441SOL    MW4 5796   4.285   4.392   2.277
 1442SOL     OW 5797   0.206   0.000   2.634
 1442SOL    HW2 5798   0.208  -0.088   2.671
 1442SOL    HW3 5799   0.133   0.044   2.679
 1442SOL    MW4 5800   0.196  -0.006   2.645
 1443SOL     OW 5801   4.473   0.145   2.737
 1443SOL    HW2 5802   4.479   0.136   2.832
 1443SOL    HW3 5803   4.480   0.239   2.721
 1443SOL    MW4 5804   4.474   0.156   2.747
 1444SOL     OW 5805   4.488   0.419   2.688
 1444SOL    HW2 5806   4.573   0.456   2.715
 1444SOL    HW3 5807   4.494   0.414   2.593
 1444SOL    MW4 5808   4.501   0.423   2.679
 1445SOL     OW 5809   0.237   0.544   2.773
 1445SOL    HW2 5810   0.239   0.515   2.865
 1445SOL    HW3 5811   0.289   0.479   2.726
 1445SOL    MW4 5812   0.244   0.532   2.779
 1446SOL     OW 5813   0.235   0.766   2.623
 1446SOL    HW2 5814   0.308   0.823   2.645
 1446SOL    HW3 5815   0.244   0.691   2.682
 1446SOL    MW4 5816   0.246   0.764   2.634
 1447SOL     OW 5817   0.012   0.908   2.712
 1447SOL    HW2 5818  -0.063   0.852   2.693
 1447SOL    HW3 5819   0.088   0.858   2.683
 1447SOL    MW4 5820   0.012   0.894   2.706
 1448SOL     OW 5821   4.441   1.168   2.621
 1448SOL    HW2 5822   4.520   1.222   2.631
 1448SOL    HW3 5823   4.457   1.091   2.675
 1448SOL    MW4 5824   4.454   1.165   2.629
 1449SOL     OW 5825   0.175   1.292   2.719
 1449SOL    HW2 5826   0.252   1.253   2.678
 1449SOL    HW3 5827   0.169   1.379   2.680
 1449SOL    MW4 5828   0.184   1.299   2.708
 1450SOL     OW 5829   0.182   1.540   2.615
 1450SOL    HW2 5830   0.262   1.582   2.647
 1450SOL    HW3 5831   0.112   1.600   2.639
 1450SOL    MW4 5832   0.183   1.554   2.622
 1451SOL     OW 5833   4.461   1.684   2.707
 1451SOL    HW2 5834   4.465   1.682   2.803
 1451SOL    HW3 5835   4.462   1.778   2.685
 1451SOL    MW4 5836   4.461   1.696   2.717
 1452SOL     OW 5837   4.481   1.942   2.601
 1452SOL    HW2 5838   4.561   1.984   2.632
 1452SOL    HW3 5839   4.492   1.935   2.507
 1452SOL    MW4 5840   4.493   1.946   2.593
 1453SOL     OW 5841   0.212   2.047   2.734
 1453SOL    HW2 5842   0.297   2.007   2.716
 1453SOL    HW3 5843   0.214   2.130   2.687
 1453SOL    MW4 5844   0.224   2.053   2.725
 1454SOL     OW 5845   0.202   2.300   2.623
 1454SOL    HW2 5846   0.284   2.341   2.652
 1454SOL    HW3 5847   0.135   2.343   2.677
 1454SOL    MW4 5848   0.204   2.311   2.634
 1455SOL     OW 5849   4.489   2.441   2.726
 1455SOL    HW2 5850   4.484   2.457   2.820
 1455SOL    HW3 5851   4.405   2.401   2.703
 1455SOL    MW4 5852   4.477   2.438   2.735
 1456SOL     OW 5853   0.000   2.695   2.619
 1456SOL    HW2 5854  -0.077   2.720   2.669
 1456SOL    HW3 5855   0.016   2.604   2.644
 1456SOL    MW4 5856  -0.008   2.686   2.629
 1457SOL     OW 5857   0.247   2.813   2.742
 1457SOL    HW2 5858   0.237   2.902   2.709
 1457SOL    HW3 5859   0.163   2.771   2.724
 1457SOL    MW4 5860   0.235   2.819   2.735
 1458SOL     OW 5861   0.218   3.084   2.655
 1458SOL    HW2 5862   0.301   3.129   2.675
 1458SOL    HW3 5863   0.223   3.065   2.562
 1458SOL    MW4 5864   0.230   3.088   2.646
 1459SOL     OW 5865   4.490   3.244   2.718
 1459SOL    HW2 5866   4.417   3.195   2.680
 1459SOL    HW3 5867   4.567   3.191   2.700
 1459SOL    MW4 5868   4.490   3.231   2.710
 1460SOL     OW 5869   0.005   3.510   2.647
 1460SOL    HW2 5870   0.069   3.556   2.701
 1460SOL    HW3 5871   0.007   3.420   2.680
 1460SOL    MW4 5872   0.014   3.504   2.659
 1461SOL     OW 5873   0.225   3.623   2.774
 1461SOL    HW2 5874   0.237   3.622   2.869
 1461SOL    HW3 5875   0.307   3.588   2.739
 1461SOL    MW4 5876   0.237   3.618   2.782
 1462SOL     OW 5877   0.250   3.879   2.667
 1462SOL    HW2 5878   0.222   3.791   2.693
 1462SOL    HW3 5879   0.255   3.876   2.572
 1462SOL    MW4 5880   0.247   3.867   2.658
 1463SOL     OW 5881   0.023   4.015   2.735
 1463SOL    HW2 5882   0.028   4.108   2.715
 1463SOL    HW3 5883   0.111   3.981   2.717
 1463SOL    MW4 5884   0.035   4.022   2.730
 1464SOL     OW 5885   0.050   4.294   2.652
 1464SOL    HW2 5886  -0.038   4.328   2.667
 1464SOL    HW3 5887   0.108   4.354   2.698
 1464SOL    MW4 5888   0.046   4.306   2.660
 1465SOL     OW 5889   0.252   4.453   2.801
 1465SOL    HW2 5890   0.252   4.441   2.896
 1465SOL    HW3 5891   0.318   4.391   2.769
 1465SOL    MW4 5892   0.261   4.443   2.809
 1466SOL     OW 5893   0.658   4.652   2.646
 1466SOL    HW2 5894   0.736   4.695   2.684
 1466SOL    HW3 5895   0.584   4.695   2.689
 1466SOL    MW4 5896   0.659   4.664   2.656
 1467SOL     OW 5897   0.424   0.132   2.750
 1467SOL    HW2 5898   0.416   0.130   2.846
 1467SOL    HW3 5899   0.346   0.087   2.718
 1467SOL    MW4 5900   0.413   0.126   2.759
 1468SOL     OW 5901   0.393   0.374   2.616
 1468SOL    HW2 5902   0.476   0.415   2.639
 1468SOL    HW3 5903   0.391   0.293   2.668
 1468SOL    MW4 5904   0.404   0.369   2.626
 1469SOL     OW 5905   0.631   0.517   2.688
 1469SOL    HW2 5906   0.615   0.509   2.782
 1469SOL    HW3 5907   0.721   0.488   2.676
 1469SOL    MW4 5908   0.640   0.512   2.699
 1470SOL     OW 5909   0.683   0.782   2.605
 1470SOL    HW2 5910   0.767   0.802   2.648
 1470SOL    HW3 5911   0.667   0.690   2.626
 1470SOL    MW4 5912   0.692   0.773   2.614
 1471SOL     OW 5913   0.450   0.912   2.731
 1471SOL    HW2 5914   0.447   0.997   2.687
 1471SOL    HW3 5915   0.528   0.869   2.696
 1471SOL    MW4 5916   0.460   0.917   2.721
 1472SOL     OW 5917   0.396   1.156   2.584
 1472SOL    HW2 5918   0.471   1.199   2.624
 1472SOL    HW3 5919   0.419   1.145   2.492
 1472SOL    MW4 5920   0.409   1.160   2.577
 1473SOL     OW 5921   0.625   1.273   2.709
 1473SOL    HW2 5922   0.625   1.284   2.804
 1473SOL    HW3 5923   0.710   1.233   2.689
 1473SOL    MW4 5924   0.636   1.269   2.718
 1474SOL     OW 5925   0.638   1.535   2.622
 1474SOL    HW2 5926   0.558   1.574   2.656
 1474SOL    HW3 5927   0.636   1.445   2.653
 1474SOL    MW4 5928   0.627   1.528   2.631
 1475SOL     OW 5929   0.407   1.644   2.711
 1475SOL    HW2 5930   0.412   1.657   2.806
 1475SOL    HW3 5931   0.404   1.733   2.675
 1475SOL    MW4 5932   0.407   1.657   2.719
 1476SOL     OW 5933   0.420   1.915   2.613
 1476SOL    HW2 5934   0.508   1.945   2.638
 1476SOL    HW3 5935   0.425   1.901   2.519
 1476SOL    MW4 5936   0.432   1.917   2.604
 1477SOL     OW 5937   0.653   2.021   2.721
 1477SOL    HW2 5938   0.651   2.026   2.816
 1477SOL    HW3 5939   0.733   1.972   2.701
 1477SOL    MW4 5940   0.663   2.015   2.731
 1478SOL     OW 5941   0.665   2.282   2.631
 1478SOL    HW2 5942   0.725   2.338   2.680
 1478SOL    HW3 5943   0.674   2.195   2.671
 1478SOL    MW4 5944   0.674   2.278   2.642
 1479SOL     OW 5945   0.441   2.437   2.725
 1479SOL    HW2 5946   0.453   2.519   2.676
 1479SOL    HW3 5947   0.511   2.380   2.693
 1479SOL    MW4 5948   0.452   2.441   2.714
 1480SOL     OW 5949   0.444   2.700   2.582
 1480SOL    HW2 5950   0.516   2.731   2.637
 1480SOL    HW3 5951   0.366   2.737   2.622
 1480SOL    MW4 5952   0.443   2.709   2.595
 1481SOL     OW 5953   0.657   2.805   2.716
 1481SOL    HW2 5954   0.645   2.782   2.808
 1481SOL    HW3 5955   0.675   2.899   2.717
 1481SOL    MW4 5956   0.657   2.814   2.728
 1482SOL     OW 5957   0.684   3.080   2.689
 1482SOL    HW2 5958   0.765   3.123   2.715
 1482SOL    HW3 5959   0.682   3.088   2.594
 1482SOL    MW4 5960   0.694   3.087   2.680
 1483SOL     OW 5961   0.441   3.204   2.757
 1483SOL    HW2 5962   0.433   3.206   2.853
 1483SOL    HW3 5963   0.524   3.158   2.742
 1483SOL    MW4 5964   0.451   3.198   2.768
 1484SOL     OW 5965   0.452   3.468   2.687
 1484SOL    HW2 5966   0.445   3.380   2.725
 1484SOL    HW3 5967   0.463   3.454   2.593
 1484SOL    MW4 5968   0.452   3.455   2.680
 1485SOL     OW 5969   0.691   3.619   2.737
 1485SOL    HW2 5970   0.715   3.611   2.829
 1485SOL    HW3 5971   0.605   3.580   2.730
 1485SOL    MW4 5972   0.683   3.613   2.748
 1486SOL     OW 5973   0.646   3.878   2.659
 1486SOL    HW2 5974   0.590   3.915   2.726
 1486SOL    HW3 5975   0.670   3.791   2.692
 1486SOL    MW4 5976   0.642   3.872   2.672
 1487SOL     OW 5977   0.454   4.010   2.817
 1487SOL    HW2 5978   0.456   4.088   2.762
 1487SOL    HW3 5979   0.376   3.963   2.789
 1487SOL    MW4 5980   0.444   4.014   2.806
 1488SOL     OW 5981   0.450   4.268   2.709
 1488SOL    HW2 5982   0.522   4.319   2.745
 1488SOL    HW3 5983   0.455   4.283   2.615
 1488SOL    MW4 5984   0.460   4.277   2.701
 1489SOL     OW 5985   0.699   4.418   2.789
 1489SOL    HW2 5986   0.761   4.365   2.739
 1489SOL    HW3 5987   0.678   4.492   2.732
 1489SOL    MW4 5988   0.705   4.421   2.775
 1490SOL     OW 5989   1.098   4.642   2.684
 1490SOL    HW2 5990   1.184   4.681   2.702
 1490SOL    HW3 5991   1.110   4.548   2.698
 1490SOL    MW4 5992   1.111   4.635   2.688
 1491SOL     OW 5993   0.871   0.115   2.748
 1491SOL    HW2 5994   0.870   0.095   2.841
 1491SOL    HW3 5995   0.941   0.060   2.712
 1491SOL    MW4 5996   0.880   0.105   2.755
 1492SOL     OW 5997   0.876   0.387   2.646
 1492SOL    HW2 5998   0.876   0.299   2.683
 1492SOL    HW3 5999   0.875   0.375   2.551
 1492SOL    MW4 6000   0.876   0.374   2.639
 1493SOL     OW 6001   1.109   0.474   2.756
 1493SOL    HW2 6002   1.133   0.560   2.723
 1493SOL    HW3 6003   1.021   0.458   2.721
 1493SOL    MW4 6004   1.100   0.483   2.747
 1494SOL     OW 6005   1.153   0.700   2.609
 1494SOL    HW2 6006   1.225   0.758   2.633
 1494SOL    HW3 6007   1.139   0.716   2.516
 1494SOL    MW4 6008   1.160   0.710   2.600
 1495SOL     OW 6009   0.919   0.855   2.718
 1495SOL    HW2 6010   0.927   0.838   2.812
 1495SOL    HW3 6011   0.988   0.802   2.678
 1495SOL    MW4 6012   0.930   0.846   2.725
 1496SOL     OW 6013   0.871   1.149   2.667
 1496SOL    HW2 6014   0.873   1.057   2.695
 1496SOL    HW3 6015   0.874   1.144   2.571
 1496SOL    MW4 6016   0.872   1.136   2.658
 1497SOL     OW 6017   1.135   1.264   2.718
 1497SOL    HW2 6018   1.136   1.353   2.682
 1497SOL    HW3 6019   1.046   1.232   2.699
 1497SOL    MW4 6020   1.123   1.271   2.710
 1498SOL     OW 6021   1.129   1.536   2.640
 1498SOL    HW2 6022   1.048   1.584   2.656
 1498SOL    HW3 6023   1.136   1.531   2.545
 1498SOL    MW4 6024   1.119   1.542   2.629
 1499SOL     OW 6025   0.888   1.621   2.724
 1499SOL    HW2 6026   0.889   1.614   2.819
 1499SOL    HW3 6027   0.802   1.588   2.698
 1499SOL    MW4 6028   0.877   1.616   2.733
 1500SOL     OW 6029   0.881   1.887   2.651
 1500SOL    HW2 6030   0.957   1.927   2.693
 1500SOL    HW3 6031   0.884   1.795   2.676
 1500SOL    MW4 6032   0.891   1.880   2.660
 1501SOL     OW 6033   1.092   2.034   2.774
 1501SOL    HW2 6034   1.173   2.000   2.738
 1501SOL    HW3 6035   1.082   2.120   2.734
 1501SOL    MW4 6036   1.101   2.041   2.764
 1502SOL     OW 6037   1.066   2.280   2.661
 1502SOL    HW2 6038   1.140   2.330   2.695
 1502SOL    HW3 6039   1.071   2.292   2.566
 1502SOL    MW4 6040   1.076   2.288   2.653
 1503SOL     OW 6041   0.861   2.430   2.757
 1503SOL    HW2 6042   0.885   2.517   2.724
 1503SOL    HW3 6043   0.937   2.375   2.737
 1503SOL    MW4 6044   0.874   2.434   2.750
 1504SOL     OW 6045   0.880   2.683   2.645
 1504SOL    HW2 6046   0.948   2.736   2.687
 1504SOL    HW3 6047   0.798   2.728   2.664
 1504SOL    MW4 6048   0.878   2.696   2.653
 1505SOL     OW 6049   1.083   2.832   2.739
 1505SOL    HW2 6050   1.106   2.825   2.832
 1505SOL    HW3 6051   1.159   2.795   2.693
 1505SOL    MW4 6052   1.096   2.826   2.745
 1506SOL     OW 6053   1.148   3.096   2.630
 1506SOL    HW2 6054   1.122   3.007   2.653
 1506SOL    HW3 6055   1.136   3.101   2.535
 1506SOL    MW4 6056   1.143   3.085   2.620
 1507SOL     OW 6057   0.919   3.208   2.748
 1507SOL    HW2 6058   0.903   3.286   2.696
 1507SOL    HW3 6059   1.006   3.179   2.720
 1507SOL    MW4 6060   0.928   3.215   2.737
 1508SOL     OW 6061   0.887   3.462   2.618
 1508SOL    HW2 6062   0.961   3.508   2.660
 1508SOL    HW3 6063   0.810   3.512   2.647
 1508SOL    MW4 6064   0.887   3.475   2.627
 1509SOL     OW 6065   1.102   3.599   2.736
 1509SOL    HW2 6066   1.101   3.626   2.828
 1509SOL    HW3 6067   1.100   3.681   2.687
 1509SOL    MW4 6068   1.102   3.613   2.742
 1510SOL     OW 6069   1.098   3.851   2.635
 1510SOL    HW2 6070   1.178   3.889   2.673
 1510SOL    HW3 6071   1.110   3.859   2.540
 1510SOL    MW4 6072   1.110   3.857   2.628
 1511SOL     OW 6073   0.893   4.008   2.744
 1511SOL    HW2 6074   0.958   3.963   2.689
 1511SOL    HW3 6075   0.809   3.970   2.717
 1511SOL    MW4 6076   0.890   3.997   2.733
 1512SOL     OW 6077   0.888   4.266   2.657
 1512SOL    HW2 6078   0.892   4.174   2.682
 1512SOL    HW3 6079   0.884   4.265   2.562
 1512SOL    MW4 6080   0.888   4.254   2.648
 1513SOL     OW 6081   1.144   4.351   2.720
 1513SOL    HW2 6082   1.137   4.378   2.812
 1513SOL    HW3 6083   1.055   4.327   2.696
 1513SOL    MW4 6084   1.131   4.351   2.729
 1514SOL     OW 6085   1.574   0.005   2.624
 1514SOL    HW2 6086   1.562  -0.088   2.647
 1514SOL    HW3 6087   1.575   0.006   2.529
 1514SOL    MW4 6088   1.572  -0.007   2.615
 1515SOL     OW 6089   1.337   0.099   2.730
 1515SOL    HW2 6090   1.329   0.190   2.700
 1515SOL    HW3 6091   1.426   0.074   2.705
 1515SOL    MW4 6092   1.348   0.108   2.722
 1516SOL     OW 6093   1.346   0.369   2.635
 1516SOL    HW2 6094   1.429   0.406   2.667
 1516SOL    HW3 6095   1.280   0.409   2.692
 1516SOL    MW4 6096   1.349   0.380   2.647
 1517SOL     OW 6097   1.582   0.488   2.734
 1517SOL    HW2 6098   1.658   0.446   2.695
 1517SOL    HW3 6099   1.584   0.577   2.699
 1517SOL    MW4 6100   1.592   0.494   2.724
 1518SOL     OW 6101   1.554   0.758   2.643
 1518SOL    HW2 6102   1.474   0.803   2.670
 1518SOL    HW3 6103   1.560   0.775   2.549
 1518SOL    MW4 6104   1.544   0.766   2.634
 1519SOL     OW 6105   1.320   0.878   2.726
 1519SOL    HW2 6106   1.327   0.897   2.819
 1519SOL    HW3 6107   1.335   0.962   2.683
 1519SOL    MW4 6108   1.323   0.892   2.732
 1520SOL     OW 6109   1.345   1.125   2.604
 1520SOL    HW2 6110   1.421   1.174   2.636
 1520SOL    HW3 6111   1.270   1.165   2.648
 1520SOL    MW4 6112   1.345   1.137   2.614
 1521SOL     OW 6113   1.562   1.256   2.708
 1521SOL    HW2 6114   1.562   1.257   2.803
 1521SOL    HW3 6115   1.636   1.200   2.684
 1521SOL    MW4 6116   1.572   1.249   2.717
 1522SOL     OW 6117   1.512   1.529   2.636
 1522SOL    HW2 6118   1.520   1.438   2.664
 1522SOL    HW3 6119   1.506   1.524   2.541
 1522SOL    MW4 6120   1.512   1.516   2.627
 1523SOL     OW 6121   1.324   1.689   2.749
 1523SOL    HW2 6122   1.404   1.641   2.726
 1523SOL    HW3 6123   1.253   1.629   2.727
 1523SOL    MW4 6124   1.325   1.674   2.743
 1524SOL     OW 6125   1.330   1.927   2.632
 1524SOL    HW2 6126   1.339   1.841   2.675
 1524SOL    HW3 6127   1.317   1.906   2.540
 1524SOL    MW4 6128   1.329   1.913   2.626
 1525SOL     OW 6129   1.578   2.076   2.683
 1525SOL    HW2 6130   1.647   2.019   2.648
 1525SOL    HW3 6131   1.498   2.025   2.673
 1525SOL    MW4 6132   1.577   2.062   2.677
 1526SOL     OW 6133   1.534   2.344   2.587
 1526SOL    HW2 6134   1.591   2.408   2.630
 1526SOL    HW3 6135   1.550   2.262   2.634
 1526SOL    MW4 6136   1.543   2.342   2.599
 1527SOL     OW 6137   1.278   2.461   2.702
 1527SOL    HW2 6138   1.271   2.552   2.672
 1527SOL    HW3 6139   1.364   2.432   2.672
 1527SOL    MW4 6140   1.288   2.469   2.694
 1528SOL     OW 6141   1.289   2.721   2.594
 1528SOL    HW2 6142   1.371   2.757   2.627
 1528SOL    HW3 6143   1.297   2.726   2.499
 1528SOL    MW4 6144   1.301   2.726   2.586
 1529SOL     OW 6145   1.548   2.814   2.714
 1529SOL    HW2 6146   1.567   2.819   2.808
 1529SOL    HW3 6147   1.633   2.797   2.673
 1529SOL    MW4 6148   1.562   2.812   2.721
 1530SOL     OW 6149   1.587   3.078   2.623
 1530SOL    HW2 6150   1.654   3.123   2.674
 1530SOL    HW3 6151   1.565   3.000   2.674
 1530SOL    MW4 6152   1.593   3.074   2.636
 1531SOL     OW 6153   1.380   3.253   2.697
 1531SOL    HW2 6154   1.444   3.192   2.659
 1531SOL    HW3 6155   1.298   3.204   2.699
 1531SOL    MW4 6156   1.378   3.238   2.692
 1532SOL     OW 6157   1.312   3.485   2.595
 1532SOL    HW2 6158   1.337   3.401   2.632
 1532SOL    HW3 6159   1.241   3.516   2.651
 1532SOL    MW4 6160   1.306   3.478   2.607
 1533SOL     OW 6161   1.542   3.599   2.715
 1533SOL    HW2 6162   1.608   3.556   2.661
 1533SOL    HW3 6163   1.458   3.572   2.678
 1533SOL    MW4 6164   1.540   3.590   2.703
 1534SOL     OW 6165   1.591   3.874   2.645
 1534SOL    HW2 6166   1.529   3.924   2.697
 1534SOL    HW3 6167   1.577   3.783   2.671
 1534SOL    MW4 6168   1.581   3.868   2.655
 1535SOL     OW 6169   1.344   3.976   2.735
 1535SOL    HW2 6170   1.333   3.992   2.828
 1535SOL    HW3 6171   1.346   4.062   2.695
 1535SOL    MW4 6172   1.343   3.989   2.742
 1536SOL     OW 6173   1.353   4.219   2.610
 1536SOL    HW2 6174   1.274   4.257   2.647
 1536SOL    HW3 6175   1.347   4.237   2.516
 1536SOL    MW4 6176   1.342   4.227   2.602
 1537SOL     OW 6177   1.555   4.383   2.705
 1537SOL    HW2 6178   1.547   4.365   2.798
 1537SOL    HW3 6179   1.489   4.327   2.663
 1537SOL    MW4 6180   1.545   4.373   2.712
 1538SOL     OW 6181   2.012   0.007   2.630
 1538SOL    HW2 6182   2.090   0.044   2.671
 1538SOL    HW3 6183   2.018   0.034   2.538
 1538SOL    MW4 6184   2.023   0.016   2.623
 1539SOL     OW 6185   1.792   0.097   2.768
 1539SOL    HW2 6186   1.851   0.038   2.722
 1539SOL    HW3 6187   1.707   0.083   2.727
 1539SOL    MW4 6188   1.789   0.087   2.757
 1540SOL     OW 6189   1.794   0.347   2.628
 1540SOL    HW2 6190   1.870   0.383   2.676
 1540SOL    HW3 6191   1.790   0.256   2.656
 1540SOL    MW4 6192   1.804   0.340   2.638
 1541SOL     OW 6193   2.016   0.469   2.755
 1541SOL    HW2 6194   2.100   0.436   2.722
 1541SOL    HW3 6195   2.011   0.559   2.723
 1541SOL    MW4 6196   2.026   0.477   2.746
 1542SOL     OW 6197   2.039   0.713   2.639
 1542SOL    HW2 6198   1.955   0.747   2.671
 1542SOL    HW3 6199   2.033   0.720   2.544
 1542SOL    MW4 6200   2.027   0.719   2.631
 1543SOL     OW 6201   1.815   0.841   2.733
 1543SOL    HW2 6202   1.816   0.936   2.730
 1543SOL    HW3 6203   1.725   0.817   2.714
 1543SOL    MW4 6204   1.803   0.850   2.730
 1544SOL     OW 6205   1.790   1.113   2.657
 1544SOL    HW2 6206   1.854   1.176   2.689
 1544SOL    HW3 6207   1.808   1.107   2.563
 1544SOL    MW4 6208   1.801   1.121   2.649
 1545SOL     OW 6209   1.996   1.287   2.734
 1545SOL    HW2 6210   2.011   1.306   2.827
 1545SOL    HW3 6211   2.068   1.229   2.710
 1545SOL    MW4 6212   2.007   1.282   2.743
 1546SOL     OW 6213   2.004   1.532   2.604
 1546SOL    HW2 6214   1.924   1.573   2.635
 1546SOL    HW3 6215   1.998   1.441   2.635
 1546SOL    MW4 6216   1.993   1.525   2.612
 1547SOL     OW 6217   1.765   1.667   2.671
 1547SOL    HW2 6218   1.784   1.662   2.765
 1547SOL    HW3 6219   1.684   1.618   2.660
 1547SOL    MW4 6220   1.757   1.660   2.682
 1548SOL     OW 6221   1.796   1.941   2.601
 1548SOL    HW2 6222   1.881   1.966   2.637
 1548SOL    HW3 6223   1.796   1.845   2.605
 1548SOL    MW4 6224   1.807   1.932   2.606
 1549SOL     OW 6225   2.025   2.085   2.694
 1549SOL    HW2 6226   2.008   2.081   2.788
 1549SOL    HW3 6227   2.030   2.179   2.674
 1549SOL    MW4 6228   2.024   2.097   2.704
 1550SOL     OW 6229   2.010   2.363   2.605
 1550SOL    HW2 6230   2.096   2.393   2.633
 1550SOL    HW3 6231   2.019   2.349   2.510
 1550SOL    MW4 6232   2.022   2.365   2.596
 1551SOL     OW 6233   1.783   2.483   2.716
 1551SOL    HW2 6234   1.797   2.482   2.810
 1551SOL    HW3 6235   1.860   2.441   2.679
 1551SOL    MW4 6236   1.795   2.478   2.723
 1552SOL     OW 6237   1.782   2.726   2.592
 1552SOL    HW2 6238   1.773   2.639   2.632
 1552SOL    HW3 6239   1.799   2.707   2.500
 1552SOL    MW4 6240   1.783   2.712   2.585
 1553SOL     OW 6241   2.016   2.816   2.716
 1553SOL    HW2 6242   2.094   2.772   2.682
 1553SOL    HW3 6243   1.945   2.782   2.662
 1553SOL    MW4 6244   2.017   2.806   2.704
 1554SOL     OW 6245   2.005   3.086   2.661
 1554SOL    HW2 6246   2.002   2.995   2.688
 1554SOL    HW3 6247   2.001   3.084   2.566
 1554SOL    MW4 6248   2.004   3.074   2.652
 1555SOL     OW 6249   1.772   3.230   2.744
 1555SOL    HW2 6250   1.766   3.310   2.693
 1555SOL    HW3 6251   1.856   3.191   2.718
 1555SOL    MW4 6252   1.782   3.235   2.734
 1556SOL     OW 6253   1.766   3.455   2.602
 1556SOL    HW2 6254   1.829   3.495   2.662
 1556SOL    HW3 6255   1.817   3.437   2.523
 1556SOL    MW4 6256   1.781   3.458   2.600
 1557SOL     OW 6257   1.987   3.594   2.730
 1557SOL    HW2 6258   2.012   3.607   2.822
 1557SOL    HW3 6259   2.049   3.530   2.697
 1557SOL    MW4 6260   1.998   3.587   2.738
 1558SOL     OW 6261   2.017   3.855   2.628
 1558SOL    HW2 6262   1.945   3.893   2.677
 1558SOL    HW3 6263   2.016   3.762   2.651
 1558SOL    MW4 6264   2.008   3.848   2.638
 1559SOL     OW 6265   1.812   3.994   2.772
 1559SOL    HW2 6266   1.803   4.083   2.740
 1559SOL    HW3 6267   1.745   3.945   2.724
 1559SOL    MW4 6268   1.802   3.999   2.762
 1560SOL     OW 6269   1.795   4.260   2.620
 1560SOL    HW2 6270   1.717   4.309   2.644
 1560SOL    HW3 6271   1.797   4.264   2.524
 1560SOL    MW4 6272   1.785   4.267   2.610
 1561SOL     OW 6273   2.010   4.415   2.737
 1561SOL    HW2 6274   1.951   4.353   2.695
 1561SOL    HW3 6275   2.001   4.496   2.687
 1561SOL    MW4 6276   2.001   4.417   2.725
 1562SOL     OW 6277   2.413   0.013   2.617
 1562SOL    HW2 6278   2.490   0.047   2.663
 1562SOL    HW3 6279   2.435   0.020   2.525
 1562SOL    MW4 6280   2.426   0.018   2.611
 1563SOL     OW 6281   2.202   0.102   2.778
 1563SOL    HW2 6282   2.219   0.133   2.867
 1563SOL    HW3 6283   2.287   0.073   2.746
 1563SOL    MW4 6284   2.216   0.102   2.786
 1564SOL     OW 6285   2.246   0.369   2.675
 1564SOL    HW2 6286   2.248   0.282   2.715
 1564SOL    HW3 6287   2.256   0.353   2.581
 1564SOL    MW4 6288   2.248   0.356   2.668
 1565SOL     OW 6289   2.474   0.485   2.717
 1565SOL    HW2 6290   2.481   0.574   2.681
 1565SOL    HW3 6291   2.382   0.461   2.704
 1565SOL    MW4 6292   2.463   0.494   2.711
 1566SOL     OW 6293   2.476   0.735   2.614
 1566SOL    HW2 6294   2.397   0.771   2.655
 1566SOL    HW3 6295   2.463   0.749   2.520
 1566SOL    MW4 6296   2.464   0.742   2.607
 1567SOL     OW 6297   2.245   0.866   2.718
 1567SOL    HW2 6298   2.241   0.871   2.814
 1567SOL    HW3 6299   2.166   0.817   2.694
 1567SOL    MW4 6300   2.234   0.860   2.728
 1568SOL     OW 6301   2.212   1.134   2.660
 1568SOL    HW2 6302   2.224   1.044   2.691
 1568SOL    HW3 6303   2.216   1.127   2.564
 1568SOL    MW4 6304   2.214   1.121   2.651
 1569SOL     OW 6305   2.435   1.282   2.731
 1569SOL    HW2 6306   2.514   1.242   2.693
 1569SOL    HW3 6307   2.367   1.216   2.718
 1569SOL    MW4 6308   2.437   1.268   2.724
 1570SOL     OW 6309   2.445   1.537   2.640
 1570SOL    HW2 6310   2.363   1.571   2.677
 1570SOL    HW3 6311   2.447   1.445   2.668
 1570SOL    MW4 6312   2.434   1.529   2.649
 1571SOL     OW 6313   2.199   1.670   2.727
 1571SOL    HW2 6314   2.201   1.759   2.691
 1571SOL    HW3 6315   2.125   1.628   2.683
 1571SOL    MW4 6316   2.189   1.676   2.717
 1572SOL     OW 6317   2.229   1.930   2.618
 1572SOL    HW2 6318   2.156   1.989   2.637
 1572SOL    HW3 6319   2.232   1.926   2.522
 1572SOL    MW4 6320   2.219   1.937   2.608
 1573SOL     OW 6321   2.448   2.032   2.743
 1573SOL    HW2 6322   2.458   2.118   2.702
 1573SOL    HW3 6323   2.378   1.990   2.693
 1573SOL    MW4 6324   2.440   2.038   2.731
 1574SOL     OW 6325   2.471   2.290   2.618
 1574SOL    HW2 6326   2.549   2.324   2.661
 1574SOL    HW3 6327   2.493   2.292   2.525
 1574SOL    MW4 6328   2.485   2.295   2.611
 1575SOL     OW 6329   2.259   2.444   2.700
 1575SOL    HW2 6330   2.247   2.426   2.794
 1575SOL    HW3 6331   2.332   2.388   2.674
 1575SOL    MW4 6332   2.267   2.434   2.709
 1576SOL     OW 6333   2.235   2.715   2.599
 1576SOL    HW2 6334   2.294   2.755   2.663
 1576SOL    HW3 6335   2.226   2.625   2.628
 1576SOL    MW4 6336   2.242   2.709   2.611
 1577SOL     OW 6337   2.454   2.815   2.759
 1577SOL    HW2 6338   2.523   2.775   2.706
 1577SOL    HW3 6339   2.439   2.900   2.719
 1577SOL    MW4 6340   2.461   2.821   2.747
 1578SOL     OW 6341   2.452   3.073   2.652
 1578SOL    HW2 6342   2.375   3.127   2.672
 1578SOL    HW3 6343   2.470   3.090   2.560
 1578SOL    MW4 6344   2.444   3.082   2.643
 1579SOL     OW 6345   2.249   3.213   2.755
 1579SOL    HW2 6346   2.260   3.195   2.849
 1579SOL    HW3 6347   2.163   3.179   2.733
 1579SOL    MW4 6348   2.239   3.206   2.765
 1580SOL     OW 6349   2.217   3.461   2.624
 1580SOL    HW2 6350   2.284   3.520   2.659
 1580SOL    HW3 6351   2.232   3.378   2.670
 1580SOL    MW4 6352   2.228   3.458   2.635
 1581SOL     OW 6353   2.390   3.640   2.712
 1581SOL    HW2 6354   2.398   3.629   2.807
 1581SOL    HW3 6355   2.433   3.723   2.693
 1581SOL    MW4 6356   2.397   3.649   2.722
 1582SOL     OW 6357   2.449   3.903   2.612
 1582SOL    HW2 6358   2.533   3.947   2.629
 1582SOL    HW3 6359   2.384   3.958   2.656
 1582SOL    MW4 6360   2.452   3.916   2.620
 1583SOL     OW 6361   2.220   4.038   2.714
 1583SOL    HW2 6362   2.235   4.021   2.807
 1583SOL    HW3 6363   2.158   3.969   2.688
 1583SOL    MW4 6364   2.214   4.026   2.723
 1584SOL     OW 6365   2.225   4.297   2.617
 1584SOL    HW2 6366   2.198   4.208   2.641
 1584SOL    HW3 6367   2.170   4.354   2.670
 1584SOL    MW4 6368   2.214   4.293   2.627
 1585SOL     OW 6369   2.444   4.415   2.710
 1585SOL    HW2 6370   2.362   4.377   2.678
 1585SOL    HW3 6371   2.431   4.510   2.702
 1585SOL    MW4 6372   2.431   4.423   2.705
 1586SOL     OW 6373   2.880   0.034   2.615
 1586SOL    HW2 6374   2.970   0.050   2.645
 1586SOL    HW3 6375   2.889   0.011   2.522
 1586SOL    MW4 6376   2.893   0.033   2.607
 1587SOL     OW 6377   2.645   0.094   2.745
 1587SOL    HW2 6378   2.643   0.086   2.840
 1587SOL    HW3 6379   2.732   0.064   2.719
 1587SOL    MW4 6380   2.656   0.089   2.754
 1588SOL     OW 6381   2.711   0.345   2.632
 1588SOL    HW2 6382   2.712   0.254   2.660
 1588SOL    HW3 6383   2.624   0.377   2.656
 1588SOL    MW4 6384   2.699   0.337   2.639
 1589SOL     OW 6385   2.890   0.528   2.719
 1589SOL    HW2 6386   2.900   0.607   2.665
 1589SOL    HW3 6387   2.812   0.485   2.684
 1589SOL    MW4 6388   2.881   0.533   2.707
 1590SOL     OW 6389   2.901   0.786   2.590
 1590SOL    HW2 6390   2.970   0.820   2.648
 1590SOL    HW3 6391   2.819   0.810   2.634
 1590SOL    MW4 6392   2.899   0.794   2.604
 1591SOL     OW 6393   2.686   0.872   2.716
 1591SOL    HW2 6394   2.707   0.843   2.805
 1591SOL    HW3 6395   2.607   0.824   2.693
 1591SOL    MW4 6396   2.679   0.862   2.725
 1592SOL     OW 6397   2.653   1.143   2.645
 1592SOL    HW2 6398   2.731   1.180   2.684
 1592SOL    HW3 6399   2.654   1.051   2.672
 1592SOL    MW4 6400   2.663   1.135   2.653
 1593SOL     OW 6401   2.892   1.263   2.750
 1593SOL    HW2 6402   2.909   1.265   2.844
 1593SOL    HW3 6403   2.963   1.210   2.714
 1593SOL    MW4 6404   2.904   1.256   2.757
 1594SOL     OW 6405   2.907   1.499   2.614
 1594SOL    HW2 6406   2.823   1.538   2.638
 1594SOL    HW3 6407   2.914   1.422   2.671
 1594SOL    MW4 6408   2.897   1.494   2.625
 1595SOL     OW 6409   2.681   1.654   2.703
 1595SOL    HW2 6410   2.689   1.653   2.799
 1595SOL    HW3 6411   2.599   1.607   2.686
 1595SOL    MW4 6412   2.671   1.648   2.714
 1596SOL     OW 6413   2.668   1.912   2.597
 1596SOL    HW2 6414   2.675   1.820   2.622
 1596SOL    HW3 6415   2.590   1.943   2.643
 1596SOL    MW4 6416   2.659   1.904   2.607
 1597SOL     OW 6417   2.875   2.041   2.732
 1597SOL    HW2 6418   2.880   2.129   2.693
 1597SOL    HW3 6419   2.804   1.998   2.684
 1597SOL    MW4 6420   2.866   2.047   2.720
 1598SOL     OW 6421   2.890   2.295   2.642
 1598SOL    HW2 6422   2.975   2.332   2.666
 1598SOL    HW3 6423   2.826   2.354   2.681
 1598SOL    MW4 6424   2.893   2.308   2.650
 1599SOL     OW 6425   2.662   2.434   2.736
 1599SOL    HW2 6426   2.646   2.425   2.830
 1599SOL    HW3 6427   2.628   2.520   2.714
 1599SOL    MW4 6428   2.655   2.444   2.746
 1600SOL     OW 6429   2.667   2.726   2.620
 1600SOL    HW2 6430   2.730   2.785   2.661
 1600SOL    HW3 6431   2.695   2.721   2.529
 1600SOL    MW4 6432   2.679   2.733   2.613
 1601SOL     OW 6433   2.915   2.841   2.710
 1601SOL    HW2 6434   2.919   2.850   2.805
 1601SOL    HW3 6435   2.925   2.930   2.677
 1601SOL    MW4 6436   2.917   2.854   2.718
 1602SOL     OW 6437   2.904   3.095   2.636
 1602SOL    HW2 6438   2.827   3.144   2.664
 1602SOL    HW3 6439   2.894   3.086   2.541
 1602SOL    MW4 6440   2.893   3.101   2.627
 1603SOL     OW 6441   2.666   3.225   2.729
 1603SOL    HW2 6442   2.643   3.311   2.695
 1603SOL    HW3 6443   2.586   3.173   2.717
 1603SOL    MW4 6444   2.652   3.229   2.723
 1604SOL     OW 6445   2.609   3.491   2.647
 1604SOL    HW2 6446   2.528   3.534   2.672
 1604SOL    HW3 6447   2.610   3.495   2.551
 1604SOL    MW4 6448   2.599   3.497   2.637
 1605SOL     OW 6449   2.852   3.628   2.690
 1605SOL    HW2 6450   2.850   3.621   2.785
 1605SOL    HW3 6451   2.777   3.577   2.660
 1605SOL    MW4 6452   2.842   3.621   2.698
 1606SOL     OW 6453   2.901   3.868   2.569
 1606SOL    HW2 6454   2.980   3.902   2.610
 1606SOL    HW3 6455   2.895   3.778   2.599
 1606SOL    MW4 6456   2.911   3.861   2.579
 1607SOL     OW 6457   2.682   4.011   2.665
 1607SOL    HW2 6458   2.699   4.104   2.652
 1607SOL    HW3 6459   2.760   3.967   2.631
 1607SOL    MW4 6460   2.694   4.017   2.658
 1608SOL     OW 6461   2.660   4.303   2.568
 1608SOL    HW2 6462   2.740   4.350   2.590
 1608SOL    HW3 6463   2.592   4.344   2.621
 1608SOL    MW4 6464   2.662   4.314   2.578
 1609SOL     OW 6465   2.894   4.441   2.641
 1609SOL    HW2 6466   2.918   4.431   2.734
 1609SOL    HW3 6467   2.882   4.535   2.629
 1609SOL    MW4 6468   2.895   4.452   2.652
 1610SOL     OW 6469   3.353   4.627   2.577
 1610SOL    HW2 6470   3.369   4.545   2.624
 1610SOL    HW3 6471   3.267   4.655   2.607
 1610SOL    MW4 6472   3.344   4.620   2.588
 1611SOL     OW 6473   3.134   0.076   2.729
 1611SOL    HW2 6474   3.140   0.064   2.824
 1611SOL    HW3 6475   3.129   0.171   2.717
 1611SOL    MW4 6476   3.134   0.087   2.740
 1612SOL     OW 6477   3.096   0.353   2.666
 1612SOL    HW2 6478   3.026   0.418   2.673
 1612SOL    HW3 6479   3.104   0.338   2.572
 1612SOL    MW4 6480   3.088   0.359   2.654
 1613SOL     OW 6481   3.367   0.482   2.702
 1613SOL    HW2 6482   3.351   0.576   2.694
 1613SOL    HW3 6483   3.283   0.441   2.680
 1613SOL    MW4 6484   3.354   0.489   2.698
 1614SOL     OW 6485   3.313   0.770   2.644
 1614SOL    HW2 6486   3.400   0.789   2.682
 1614SOL    HW3 6487   3.328   0.771   2.550
 1614SOL    MW4 6488   3.327   0.773   2.637
 1615SOL     OW 6489   3.100   0.888   2.753
 1615SOL    HW2 6490   3.103   0.861   2.844
 1615SOL    HW3 6491   3.179   0.850   2.714
 1615SOL    MW4 6492   3.111   0.879   2.760
 1616SOL     OW 6493   3.142   1.163   2.647
 1616SOL    HW2 6494   3.130   1.079   2.690
 1616SOL    HW3 6495   3.143   1.143   2.554
 1616SOL    MW4 6496   3.140   1.150   2.641
 1617SOL     OW 6497   3.372   1.295   2.764
 1617SOL    HW2 6498   3.373   1.279   2.859
 1617SOL    HW3 6499   3.295   1.247   2.733
 1617SOL    MW4 6500   3.362   1.287   2.773
 1618SOL     OW 6501   3.351   1.548   2.617
 1618SOL    HW2 6502   3.271   1.588   2.650
 1618SOL    HW3 6503   3.357   1.464   2.662
 1618SOL    MW4 6504   3.341   1.542   2.627
 1619SOL     OW 6505   3.124   1.657   2.718
 1619SOL    HW2 6506   3.102   1.745   2.689
 1619SOL    HW3 6507   3.049   1.604   2.692
 1619SOL    MW4 6508   3.111   1.662   2.711
 1620SOL     OW 6509   3.121   1.940   2.622
 1620SOL    HW2 6510   3.199   1.987   2.651
 1620SOL    HW3 6511   3.048   1.989   2.660
 1620SOL    MW4 6512   3.122   1.953   2.631
 1621SOL     OW 6513   3.356   2.061   2.697
 1621SOL    HW2 6514   3.359   2.062   2.793
 1621SOL    HW3 6515   3.374   2.152   2.672
 1621SOL    MW4 6516   3.359   2.073   2.706
 1622SOL     OW 6517   3.392   2.333   2.650
 1622SOL    HW2 6518   3.445   2.410   2.671
 1622SOL    HW3 6519   3.384   2.334   2.554
 1622SOL    MW4 6520   3.398   2.343   2.640
 1623SOL     OW 6521   3.114   2.432   2.714
 1623SOL    HW2 6522   3.135   2.518   2.677
 1623SOL    HW3 6523   3.196   2.383   2.706
 1623SOL    MW4 6524   3.128   2.437   2.708
 1624SOL     OW 6525   3.145   2.683   2.616
 1624SOL    HW2 6526   3.214   2.747   2.635
 1624SOL    HW3 6527   3.066   2.719   2.657
 1624SOL    MW4 6528   3.144   2.696   2.624
 1625SOL     OW 6529   3.330   2.868   2.697
 1625SOL    HW2 6530   3.340   2.865   2.792
 1625SOL    HW3 6531   3.415   2.841   2.663
 1625SOL    MW4 6532   3.343   2.864   2.705
 1626SOL     OW 6533   3.315   3.129   2.605
 1626SOL    HW2 6534   3.331   3.035   2.613
 1626SOL    HW3 6535   3.296   3.141   2.512
 1626SOL    MW4 6536   3.314   3.118   2.594
 1627SOL     OW 6537   3.109   3.232   2.747
 1627SOL    HW2 6538   3.181   3.183   2.709
 1627SOL    HW3 6539   3.030   3.192   2.712
 1627SOL    MW4 6540   3.108   3.221   2.738
 1628SOL     OW 6541   3.124   3.489   2.624
 1628SOL    HW2 6542   3.109   3.408   2.673
 1628SOL    HW3 6543   3.055   3.549   2.655
 1628SOL    MW4 6544   3.113   3.486   2.634
 1629SOL     OW 6545   3.344   3.628   2.714
 1629SOL    HW2 6546   3.341   3.627   2.809
 1629SOL    HW3 6547   3.268   3.577   2.687
 1629SOL    MW4 6548   3.334   3.621   2.723
 1630SOL     OW 6549   3.362   3.910   2.643
 1630SOL    HW2 6550   3.348   3.816   2.649
 1630SOL    HW3 6551   3.381   3.925   2.550
 1630SOL    MW4 6552   3.363   3.900   2.632
 1631SOL     OW 6553   3.110   4.016   2.707
 1631SOL    HW2 6554   3.101   4.104   2.670
 1631SOL    HW3 6555   3.200   3.991   2.687
 1631SOL    MW4 6556   3.121   4.024   2.699
 1632SOL     OW 6557   3.103   4.279   2.597
 1632SOL    HW2 6558   3.022   4.329   2.609
 1632SOL    HW3 6559   3.105   4.260   2.503
 1632SOL    MW4 6560   3.093   4.283   2.586
 1633SOL     OW 6561   3.359   4.383   2.699
 1633SOL    HW2 6562   3.360   4.393   2.794
 1633SOL    HW3 6563   3.269   4.361   2.678
 1633SOL    MW4 6564   3.347   4.382   2.708
 1634SOL     OW 6565   3.816   4.627   2.614
 1634SOL    HW2 6566   3.811   4.547   2.666
 1634SOL    HW3 6567   3.745   4.682   2.647
 1634SOL    MW4 6568   3.806   4.624   2.625
 1635SOL     OW 6569   3.572   0.131   2.708
 1635SOL    HW2 6570   3.594   0.213   2.664
 1635SOL    HW3 6571   3.491   0.103   2.667
 1635SOL    MW4 6572   3.564   0.138   2.697
 1636SOL     OW 6573   3.621   0.377   2.600
 1636SOL    HW2 6574   3.693   0.423   2.644
 1636SOL    HW3 6575   3.545   0.434   2.611
 1636SOL    MW4 6576   3.621   0.390   2.608
 1637SOL     OW 6577   3.839   0.508   2.721
 1637SOL    HW2 6578   3.851   0.505   2.816
 1637SOL    HW3 6579   3.908   0.452   2.686
 1637SOL    MW4 6580   3.850   0.501   2.729
 1638SOL     OW 6581   3.815   0.787   2.616
 1638SOL    HW2 6582   3.732   0.815   2.653
 1638SOL    HW3 6583   3.830   0.700   2.652
 1638SOL    MW4 6584   3.806   0.779   2.626
 1639SOL     OW 6585   3.560   0.872   2.706
 1639SOL    HW2 6586   3.572   0.870   2.801
 1639SOL    HW3 6587   3.547   0.965   2.686
 1639SOL    MW4 6588   3.560   0.884   2.716
 1640SOL     OW 6589   3.569   1.151   2.644
 1640SOL    HW2 6590   3.649   1.175   2.689
 1640SOL    HW3 6591   3.501   1.205   2.684
 1640SOL    MW4 6592   3.571   1.161   2.655
 1641SOL     OW 6593   3.803   1.275   2.776
 1641SOL    HW2 6594   3.881   1.243   2.729
 1641SOL    HW3 6595   3.783   1.359   2.735
 1641SOL    MW4 6596   3.811   1.282   2.764
 1642SOL     OW 6597   3.769   1.515   2.658
 1642SOL    HW2 6598   3.844   1.565   2.691
 1642SOL    HW3 6599   3.693   1.567   2.684
 1642SOL    MW4 6600   3.769   1.529   2.666
 1643SOL     OW 6601   3.562   1.672   2.734
 1643SOL    HW2 6602   3.573   1.764   2.711
 1643SOL    HW3 6603   3.480   1.646   2.692
 1643SOL    MW4 6604   3.552   1.680   2.726
 1644SOL     OW 6605   3.589   1.922   2.654
 1644SOL    HW2 6606   3.506   1.965   2.670
 1644SOL    HW3 6607   3.603   1.931   2.559
 1644SOL    MW4 6608   3.580   1.929   2.643
 1645SOL     OW 6609   3.801   2.093   2.725
 1645SOL    HW2 6610   3.879   2.051   2.688
 1645SOL    HW3 6611   3.730   2.031   2.709
 1645SOL    MW4 6612   3.802   2.079   2.718
 1646SOL     OW 6613   3.761   2.357   2.650
 1646SOL    HW2 6614   3.764   2.272   2.693
 1646SOL    HW3 6615   3.771   2.337   2.557
 1646SOL    MW4 6616   3.763   2.343   2.643
 1647SOL     OW 6617   3.557   2.545   2.723
 1647SOL    HW2 6618   3.565   2.539   2.818
 1647SOL    HW3 6619   3.625   2.487   2.689
 1647SOL    MW4 6620   3.567   2.537   2.731
 1648SOL     OW 6621   3.592   2.805   2.615
 1648SOL    HW2 6622   3.595   2.722   2.664
 1648SOL    HW3 6623   3.594   2.778   2.523
 1648SOL    MW4 6624   3.593   2.790   2.609
 1649SOL     OW 6625   3.840   2.873   2.760
 1649SOL    HW2 6626   3.912   2.818   2.728
 1649SOL    HW3 6627   3.763   2.840   2.715
 1649SOL    MW4 6628   3.839   2.861   2.750
 1650SOL     OW 6629   3.816   3.104   2.620
 1650SOL    HW2 6630   3.742   3.147   2.662
 1650SOL    HW3 6631   3.830   3.024   2.671
 1650SOL    MW4 6632   3.808   3.099   2.632
 1651SOL     OW 6633   3.589   3.221   2.725
 1651SOL    HW2 6634   3.577   3.311   2.696
 1651SOL    HW3 6635   3.514   3.174   2.688
 1651SOL    MW4 6636   3.578   3.226   2.716
 1652SOL     OW 6637   3.573   3.493   2.615
 1652SOL    HW2 6638   3.644   3.545   2.653
 1652SOL    HW3 6639   3.493   3.530   2.653
 1652SOL    MW4 6640   3.572   3.505   2.625
 1653SOL     OW 6641   3.789   3.623   2.725
 1653SOL    HW2 6642   3.875   3.592   2.696
 1653SOL    HW3 6643   3.772   3.700   2.671
 1653SOL    MW4 6644   3.798   3.629   2.714
 1654SOL     OW 6645   3.803   3.877   2.616
 1654SOL    HW2 6646   3.877   3.927   2.652
 1654SOL    HW3 6647   3.725   3.925   2.645
 1654SOL    MW4 6648   3.803   3.890   2.624
 1655SOL     OW 6649   3.606   4.024   2.741
 1655SOL    HW2 6650   3.601   4.109   2.697
 1655SOL    HW3 6651   3.527   3.978   2.713
 1655SOL    MW4 6652   3.595   4.030   2.731
 1656SOL     OW 6653   3.602   4.270   2.610
 1656SOL    HW2 6654   3.521   4.317   2.627
 1656SOL    HW3 6655   3.611   4.271   2.515
 1656SOL    MW4 6656   3.593   4.276   2.600
 1657SOL     OW 6657   3.798   4.394   2.766
 1657SOL    HW2 6658   3.870   4.334   2.746
 1657SOL    HW3 6659   3.721   4.352   2.727
 1657SOL    MW4 6660   3.797   4.380   2.758
 1658SOL     OW 6661   4.268   4.660   2.661
 1658SOL    HW2 6662   4.190   4.690   2.708
 1658SOL    HW3 6663   4.339   4.714   2.696
 1658SOL    MW4 6664   4.267   4.672   2.672
 1659SOL     OW 6665   4.030   0.101   2.751
 1659SOL    HW2 6666   4.019   0.115   2.845
 1659SOL    HW3 6667   3.960   0.040   2.728
 1659SOL    MW4 6668   4.019   0.095   2.761
 1660SOL     OW 6669   4.048   0.356   2.624
 1660SOL    HW2 6670   4.042   0.270   2.665
 1660SOL    HW3 6671   4.038   0.339   2.530
 1660SOL    MW4 6672   4.046   0.342   2.617
 1661SOL     OW 6673   4.228   0.519   2.782
 1661SOL    HW2 6674   4.180   0.457   2.727
 1661SOL    HW3 6675   4.320   0.496   2.768
 1661SOL    MW4 6676   4.234   0.508   2.773
 1662SOL     OW 6677   4.259   0.773   2.665
 1662SOL    HW2 6678   4.228   0.685   2.690
 1662SOL    HW3 6679   4.269   0.768   2.570
 1662SOL    MW4 6680   4.256   0.760   2.656
 1663SOL     OW 6681   4.027   0.930   2.748
 1663SOL    HW2 6682   4.107   0.889   2.716
 1663SOL    HW3 6683   3.957   0.883   2.705
 1663SOL    MW4 6684   4.028   0.919   2.738
 1664SOL     OW 6685   4.022   1.194   2.630
 1664SOL    HW2 6686   4.098   1.238   2.669
 1664SOL    HW3 6687   4.022   1.107   2.669
 1664SOL    MW4 6688   4.032   1.188   2.641
 1665SOL     OW 6689   4.234   1.328   2.731
 1665SOL    HW2 6690   4.240   1.413   2.689
 1665SOL    HW3 6691   4.298   1.274   2.685
 1665SOL    MW4 6692   4.243   1.332   2.719
 1666SOL     OW 6693   4.227   1.570   2.617
 1666SOL    HW2 6694   4.309   1.605   2.653
 1666SOL    HW3 6695   4.250   1.536   2.531
 1666SOL    MW4 6696   4.241   1.570   2.610
 1667SOL     OW 6697   3.989   1.701   2.715
 1667SOL    HW2 6698   3.991   1.695   2.810
 1667SOL    HW3 6699   4.070   1.658   2.687
 1667SOL    MW4 6700   4.000   1.695   2.724
 1668SOL     OW 6701   4.002   1.955   2.602
 1668SOL    HW2 6702   4.082   1.997   2.633
 1668SOL    HW3 6703   3.997   1.873   2.650
 1668SOL    MW4 6704   4.012   1.950   2.612
 1669SOL     OW 6705   4.233   2.067   2.685
 1669SOL    HW2 6706   4.248   2.162   2.678
 1669SOL    HW3 6707   4.313   2.028   2.649
 1669SOL    MW4 6708   4.246   2.075   2.679
 1670SOL     OW 6709   4.268   2.340   2.621
 1670SOL    HW2 6710   4.186   2.377   2.653
 1670SOL    HW3 6711   4.270   2.363   2.528
 1670SOL    MW4 6712   4.257   2.348   2.613
 1671SOL     OW 6713   4.034   2.454   2.702
 1671SOL    HW2 6714   4.026   2.457   2.797
 1671SOL    HW3 6715   3.946   2.431   2.672
 1671SOL    MW4 6716   4.021   2.452   2.710
 1672SOL     OW 6717   4.059   2.729   2.636
 1672SOL    HW2 6718   4.139   2.768   2.672
 1672SOL    HW3 6719   4.066   2.636   2.657
 1672SOL    MW4 6720   4.071   2.722   2.644
 1673SOL     OW 6721   4.291   2.836   2.753
 1673SOL    HW2 6722   4.289   2.855   2.847
 1673SOL    HW3 6723   4.304   2.921   2.711
 1673SOL    MW4 6724   4.293   2.850   2.760
 1674SOL     OW 6725   4.283   3.083   2.632
 1674SOL    HW2 6726   4.203   3.133   2.653
 1674SOL    HW3 6727   4.274   3.064   2.538
 1674SOL    MW4 6728   4.271   3.087   2.622
 1675SOL     OW 6729   4.047   3.239   2.723
 1675SOL    HW2 6730   4.028   3.331   2.704
 1675SOL    HW3 6731   3.977   3.190   2.679
 1675SOL    MW4 6732   4.035   3.244   2.715
 1676SOL     OW 6733   4.022   3.505   2.655
 1676SOL    HW2 6734   4.098   3.553   2.688
 1676SOL    HW3 6735   4.037   3.498   2.561
 1676SOL    MW4 6736   4.034   3.510   2.647
 1677SOL     OW 6737   4.282   3.639   2.735
 1677SOL    HW2 6738   4.273   3.620   2.829
 1677SOL    HW3 6739   4.365   3.597   2.710
 1677SOL    MW4 6740   4.292   3.631   2.744
 1678SOL     OW 6741   4.294   3.892   2.626
 1678SOL    HW2 6742   4.280   3.803   2.659
 1678SOL    HW3 6743   4.375   3.921   2.668
 1678SOL    MW4 6744   4.303   3.884   2.636
 1679SOL     OW 6745   4.041   3.990   2.718
 1679SOL    HW2 6746   4.061   3.984   2.811
 1679SOL    HW3 6747   4.119   3.957   2.674
 1679SOL    MW4 6748   4.054   3.985   2.724
 1680SOL     OW 6749   4.026   4.252   2.664
 1680SOL    HW2 6750   4.013   4.161   2.692
 1680SOL    HW3 6751   4.040   4.246   2.569
 1680SOL    MW4 6752   4.026   4.239   2.655
 1681SOL     OW 6753   4.278   4.394   2.711
 1681SOL    HW2 6754   4.198   4.345   2.691
 1681SOL    HW3 6755   4.257   4.484   2.688
 1681SOL    MW4 6756   4.265   4.399   2.705
 1682SOL     OW 6757   0.210   4.660   3.162
 1682SOL    HW2 6758   0.228   4.685   3.253
 1682SOL    HW3 6759   0.142   4.722   3.134
 1682SOL    MW4 6760   0.203   4.672   3.170
 1683SOL     OW 6761   4.484   0.111   3.026
 1683SOL    HW2 6762   4.415   0.053   3.060
 1683SOL    HW3 6763   4.465   0.197   3.065
 1683SOL    MW4 6764   4.473   0.115   3.036
 1684SOL     OW 6765   4.489   0.369   3.153
 1684SOL    HW2 6766   4.480   0.345   3.245
 1684SOL    HW3 6767   4.412   0.423   3.134
 1684SOL    MW4 6768   4.478   0.373   3.163
 1685SOL     OW 6769   0.207   0.506   3.046
 1685SOL    HW2 6770   0.283   0.459   3.080
 1685SOL    HW3 6771   0.132   0.464   3.087
 1685SOL    MW4 6772   0.207   0.494   3.056
 1686SOL     OW 6773   0.235   0.764   3.108
 1686SOL    HW2 6774   0.213   0.765   3.200
 1686SOL    HW3 6775   0.224   0.672   3.081
 1686SOL    MW4 6776   0.231   0.752   3.116
 1687SOL     OW 6777   0.035   0.919   3.005
 1687SOL    HW2 6778   0.105   0.860   3.033
 1687SOL    HW3 6779   0.025   0.903   2.912
 1687SOL    MW4 6780   0.043   0.909   2.997
 1688SOL     OW 6781   4.479   1.173   3.116
 1688SOL    HW2 6782   4.401   1.216   3.079
 1688SOL    HW3 6783   4.494   1.097   3.059
 1688SOL    MW4 6784   4.470   1.169   3.103
 1689SOL     OW 6785   0.219   1.275   3.008
 1689SOL    HW2 6786   0.148   1.230   3.053
 1689SOL    HW3 6787   0.197   1.267   2.915
 1689SOL    MW4 6788   0.207   1.268   3.002
 1690SOL     OW 6789   0.212   1.547   3.115
 1690SOL    HW2 6790   0.126   1.578   3.088
 1690SOL    HW3 6791   0.217   1.456   3.083
 1690SOL    MW4 6792   0.202   1.539   3.107
 1691SOL     OW 6793   4.465   1.663   3.014
 1691SOL    HW2 6794   4.382   1.635   3.052
 1691SOL    HW3 6795   4.483   1.748   3.056
 1691SOL    MW4 6796   4.457   1.671   3.025
 1692SOL     OW 6797   4.452   1.912   3.111
 1692SOL    HW2 6798   4.380   1.936   3.053
 1692SOL    HW3 6799   4.527   1.960   3.076
 1692SOL    MW4 6800   4.452   1.921   3.098
 1693SOL     OW 6801   0.173   2.032   3.001
 1693SOL    HW2 6802   0.162   2.126   3.015
 1693SOL    HW3 6803   0.190   2.023   2.907
 1693SOL    MW4 6804   0.174   2.043   2.991
 1694SOL     OW 6805   0.164   2.293   3.080
 1694SOL    HW2 6806   0.169   2.294   3.176
 1694SOL    HW3 6807   0.236   2.349   3.052
 1694SOL    MW4 6808   0.174   2.301   3.089
 1695SOL     OW 6809   4.443   2.450   3.014
 1695SOL    HW2 6810   4.455   2.541   3.041
 1695SOL    HW3 6811   4.523   2.405   3.043
 1695SOL    MW4 6812   4.455   2.456   3.022
 1696SOL     OW 6813   0.009   2.723   3.111
 1696SOL    HW2 6814   0.000   2.731   3.206
 1696SOL    HW3 6815   0.099   2.749   3.093
 1696SOL    MW4 6816   0.020   2.727   3.121
 1697SOL     OW 6817   0.253   2.855   3.023
 1697SOL    HW2 6818   0.303   2.776   3.044
 1697SOL    HW3 6819   0.256   2.861   2.928
 1697SOL    MW4 6820   0.260   2.845   3.013
 1698SOL     OW 6821   0.219   3.116   3.142
 1698SOL    HW2 6822   0.157   3.149   3.076
 1698SOL    HW3 6823   0.243   3.029   3.111
 1698SOL    MW4 6824   0.214   3.109   3.129
 1699SOL     OW 6825   0.023   3.237   2.986
 1699SOL    HW2 6826  -0.056   3.198   3.025
 1699SOL    HW3 6827   0.008   3.233   2.892
 1699SOL    MW4 6828   0.010   3.232   2.979
 1700SOL     OW 6829   4.477   3.498   3.109
 1700SOL    HW2 6830   4.396   3.547   3.093
 1700SOL    HW3 6831   4.468   3.419   3.056
 1700SOL    MW4 6832   4.465   3.494   3.100
 1701SOL     OW 6833   0.241   3.613   3.052
 1701SOL    HW2 6834   0.220   3.701   3.083
 1701SOL    HW3 6835   0.165   3.561   3.075
 1701SOL    MW4 6836   0.228   3.618   3.059
 1702SOL     OW 6837   0.262   3.882   3.125
 1702SOL    HW2 6838   0.239   3.880   3.218
 1702SOL    HW3 6839   0.339   3.938   3.121
 1702SOL    MW4 6840   0.269   3.889   3.137
 1703SOL     OW 6841   0.042   3.987   3.016
 1703SOL    HW2 6842   0.127   3.945   3.026
 1703SOL    HW3 6843   0.028   3.990   2.921
 1703SOL    MW4 6844   0.051   3.981   3.005
 1704SOL     OW 6845   0.014   4.246   3.110
 1704SOL    HW2 6846   0.003   4.234   3.205
 1704SOL    HW3 6847   0.035   4.158   3.078
 1704SOL    MW4 6848   0.016   4.233   3.119
 1705SOL     OW 6849   0.215   4.403   3.054
 1705SOL    HW2 6850   0.145   4.341   3.072
 1705SOL    HW3 6851   0.190   4.483   3.100
 1705SOL    MW4 6852   0.203   4.405   3.062
 1706SOL     OW 6853   0.645   0.017   3.129
 1706SOL    HW2 6854   0.658  -0.077   3.114
 1706SOL    HW3 6855   0.565   0.038   3.080
 1706SOL    MW4 6856   0.636   0.007   3.120
 1707SOL     OW 6857   0.413   0.107   3.021
 1707SOL    HW2 6858   0.409   0.197   3.054
 1707SOL    HW3 6859   0.355   0.058   3.080
 1707SOL    MW4 6860   0.405   0.113   3.033
 1708SOL     OW 6861   0.423   0.372   3.128
 1708SOL    HW2 6862   0.434   0.395   3.220
 1708SOL    HW3 6863   0.499   0.410   3.084
 1708SOL    MW4 6864   0.434   0.380   3.134
 1709SOL     OW 6865   0.603   0.500   2.965
 1709SOL    HW2 6866   0.669   0.445   3.008
 1709SOL    HW3 6867   0.609   0.584   3.009
 1709SOL    MW4 6868   0.613   0.504   2.976
 1710SOL     OW 6869   0.643   0.731   3.112
 1710SOL    HW2 6870   0.646   0.760   3.203
 1710SOL    HW3 6871   0.576   0.786   3.072
 1710SOL    MW4 6872   0.635   0.742   3.119
 1711SOL     OW 6873   0.457   0.900   3.011
 1711SOL    HW2 6874   0.377   0.856   3.037
 1711SOL    HW3 6875   0.450   0.910   2.916
 1711SOL    MW4 6876   0.446   0.896   3.002
 1712SOL     OW 6877   0.471   1.167   3.106
 1712SOL    HW2 6878   0.473   1.072   3.094
 1712SOL    HW3 6879   0.386   1.193   3.070
 1712SOL    MW4 6880   0.460   1.158   3.099
 1713SOL     OW 6881   0.669   1.291   2.978
 1713SOL    HW2 6882   0.752   1.247   3.001
 1713SOL    HW3 6883   0.603   1.245   3.030
 1713SOL    MW4 6884   0.672   1.279   2.988
 1714SOL     OW 6885   0.639   1.555   3.044
 1714SOL    HW2 6886   0.641   1.556   3.140
 1714SOL    HW3 6887   0.650   1.463   3.020
 1714SOL    MW4 6888   0.641   1.543   3.054
 1715SOL     OW 6889   0.411   1.692   2.976
 1715SOL    HW2 6890   0.495   1.653   2.997
 1715SOL    HW3 6891   0.347   1.635   3.018
 1715SOL    MW4 6892   0.414   1.679   2.984
 1716SOL     OW 6893   0.433   1.947   3.094
 1716SOL    HW2 6894   0.425   1.858   3.061
 1716SOL    HW3 6895   0.351   1.989   3.069
 1716SOL    MW4 6896   0.421   1.941   3.086
 1717SOL     OW 6897   0.665   2.075   2.991
 1717SOL    HW2 6898   0.742   2.025   3.018
 1717SOL    HW3 6899   0.591   2.025   3.025
 1717SOL    MW4 6900   0.665   2.062   2.999
 1718SOL     OW 6901   0.617   2.324   3.099
 1718SOL    HW2 6902   0.616   2.302   3.192
 1718SOL    HW3 6903   0.636   2.242   3.055
 1718SOL    MW4 6904   0.619   2.310   3.106
 1719SOL     OW 6905   0.386   2.429   2.989
 1719SOL    HW2 6906   0.466   2.394   3.027
 1719SOL    HW3 6907   0.403   2.435   2.895
 1719SOL    MW4 6908   0.399   2.425   2.982
 1720SOL     OW 6909   0.416   2.672   3.138
 1720SOL    HW2 6910   0.499   2.704   3.101
 1720SOL    HW3 6911   0.407   2.583   3.104
 1720SOL    MW4 6912   0.426   2.664   3.129
 1721SOL     OW 6913   0.628   2.801   3.005
 1721SOL    HW2 6914   0.712   2.765   3.034
 1721SOL    HW3 6915   0.631   2.893   3.030
 1721SOL    MW4 6916   0.639   2.808   3.012
 1722SOL     OW 6917   0.656   3.083   3.098
 1722SOL    HW2 6918   0.646   3.081   3.193
 1722SOL    HW3 6919   0.588   3.143   3.068
 1722SOL    MW4 6920   0.646   3.090   3.106
 1723SOL     OW 6921   0.437   3.246   3.030
 1723SOL    HW2 6922   0.450   3.330   3.073
 1723SOL    HW3 6923   0.354   3.214   3.065
 1723SOL    MW4 6924   0.427   3.252   3.040
 1724SOL     OW 6925   0.481   3.493   3.137
 1724SOL    HW2 6926   0.480   3.483   3.233
 1724SOL    HW3 6927   0.404   3.547   3.118
 1724SOL    MW4 6928   0.471   3.499   3.147
 1725SOL     OW 6929   0.697   3.609   3.014
 1725SOL    HW2 6930   0.765   3.569   3.068
 1725SOL    HW3 6931   0.615   3.572   3.047
 1725SOL    MW4 6932   0.695   3.599   3.025
 1726SOL     OW 6933   0.695   3.858   3.151
 1726SOL    HW2 6934   0.678   3.844   3.245
 1726SOL    HW3 6935   0.702   3.769   3.115
 1726SOL    MW4 6936   0.694   3.844   3.159
 1727SOL     OW 6937   0.495   4.026   3.094
 1727SOL    HW2 6938   0.552   3.953   3.121
 1727SOL    HW3 6939   0.493   4.020   2.998
 1727SOL    MW4 6940   0.502   4.016   3.085
 1728SOL     OW 6941   0.483   4.292   3.167
 1728SOL    HW2 6942   0.489   4.200   3.141
 1728SOL    HW3 6943   0.401   4.323   3.127
 1728SOL    MW4 6944   0.473   4.284   3.158
 1729SOL     OW 6945   0.696   4.419   3.071
 1729SOL    HW2 6946   0.618   4.377   3.107
 1729SOL    HW3 6947   0.691   4.402   2.977
 1729SOL    MW4 6948   0.685   4.412   3.064
 1730SOL     OW 6949   1.092   4.617   3.100
 1730SOL    HW2 6950   1.166   4.676   3.083
 1730SOL    HW3 6951   1.015   4.670   3.080
 1730SOL    MW4 6952   1.091   4.632   3.095
 1731SOL     OW 6953   0.881   0.111   3.017
 1731SOL    HW2 6954   0.883   0.200   3.050
 1731SOL    HW3 6955   0.797   0.076   3.047
 1731SOL    MW4 6956   0.870   0.118   3.025
 1732SOL     OW 6957   0.841   0.391   3.102
 1732SOL    HW2 6958   0.845   0.390   3.197
 1732SOL    HW3 6959   0.922   0.436   3.075
 1732SOL    MW4 6960   0.852   0.397   3.111
 1733SOL     OW 6961   1.100   0.473   3.026
 1733SOL    HW2 6962   1.185   0.435   3.046
 1733SOL    HW3 6963   1.093   0.468   2.930
 1733SOL    MW4 6964   1.110   0.467   3.016
 1734SOL     OW 6965   1.100   0.752   3.071
 1734SOL    HW2 6966   1.111   0.772   3.164
 1734SOL    HW3 6967   1.119   0.658   3.064
 1734SOL    MW4 6968   1.104   0.742   3.082
 1735SOL     OW 6969   0.861   0.862   3.000
 1735SOL    HW2 6970   0.940   0.824   3.039
 1735SOL    HW3 6971   0.789   0.810   3.036
 1735SOL    MW4 6972   0.862   0.850   3.010
 1736SOL     OW 6973   0.875   1.147   3.087
 1736SOL    HW2 6974   0.949   1.188   3.044
 1736SOL    HW3 6975   0.876   1.056   3.056
 1736SOL    MW4 6976   0.885   1.140   3.077
 1737SOL     OW 6977   1.098   1.286   2.994
 1737SOL    HW2 6978   1.173   1.237   3.027
 1737SOL    HW3 6979   1.111   1.290   2.900
 1737SOL    MW4 6980   1.110   1.280   2.986
 1738SOL     OW 6981   1.096   1.531   3.110
 1738SOL    HW2 6982   1.180   1.573   3.094
 1738SOL    HW3 6983   1.091   1.462   3.045
 1738SOL    MW4 6984   1.106   1.528   3.100
 1739SOL     OW 6985   0.887   1.660   2.994
 1739SOL    HW2 6986   0.951   1.621   3.054
 1739SOL    HW3 6987   0.807   1.610   3.008
 1739SOL    MW4 6988   0.885   1.648   3.004
 1740SOL     OW 6989   0.849   1.924   3.102
 1740SOL    HW2 6990   0.864   1.912   3.195
 1740SOL    HW3 6991   0.867   1.839   3.063
 1740SOL    MW4 6992   0.853   1.911   3.109
 1741SOL     OW 6993   1.093   2.061   3.048
 1741SOL    HW2 6994   1.012   2.015   3.070
 1741SOL    HW3 6995   1.093   2.064   2.952
 1741SOL    MW4 6996   1.082   2.055   3.038
 1742SOL     OW 6997   1.123   2.334   3.085
 1742SOL    HW2 6998   1.031   2.351   3.106
 1742SOL    HW3 6999   1.128   2.239   3.074
 1742SOL    MW4 7000   1.111   2.323   3.086
 1743SOL     OW 7001   0.857   2.443   3.052
 1743SOL    HW2 7002   0.777   2.398   3.079
 1743SOL    HW3 7003   0.858   2.435   2.957
 1743SOL    MW4 7004   0.847   2.436   3.043
 1744SOL     OW 7005   0.865   2.708   3.124
 1744SOL    HW2 7006   0.838   2.708   3.216
 1744SOL    HW3 7007   0.864   2.616   3.098
 1744SOL    MW4 7008   0.861   2.696   3.132
 1745SOL     OW 7009   1.107   2.810   3.026
 1745SOL    HW2 7010   1.107   2.903   3.046
 1745SOL    HW3 7011   1.030   2.776   3.072
 1745SOL    MW4 7012   1.097   2.818   3.035
 1746SOL     OW 7013   1.108   3.064   3.116
 1746SOL    HW2 7014   1.172   3.112   3.065
 1746SOL    HW3 7015   1.024   3.107   3.096
 1746SOL    MW4 7016   1.105   3.076   3.107
 1747SOL     OW 7017   0.896   3.211   3.034
 1747SOL    HW2 7018   0.817   3.158   3.048
 1747SOL    HW3 7019   0.908   3.212   2.940
 1747SOL    MW4 7020   0.887   3.204   3.024
 1748SOL     OW 7021   0.894   3.462   3.154
 1748SOL    HW2 7022   0.953   3.519   3.105
 1748SOL    HW3 7023   0.904   3.376   3.114
 1748SOL    MW4 7024   0.903   3.458   3.143
 1749SOL     OW 7025   1.060   3.620   3.014
 1749SOL    HW2 7026   1.147   3.579   3.007
 1749SOL    HW3 7027   1.076   3.703   3.058
 1749SOL    MW4 7028   1.074   3.625   3.019
 1750SOL     OW 7029   1.110   3.854   3.131
 1750SOL    HW2 7030   1.099   3.858   3.226
 1750SOL    HW3 7031   1.041   3.910   3.096
 1750SOL    MW4 7032   1.100   3.862   3.139
 1751SOL     OW 7033   0.905   4.018   3.026
 1751SOL    HW2 7034   0.836   3.960   3.058
 1751SOL    HW3 7035   0.905   4.006   2.931
 1751SOL    MW4 7036   0.896   4.009   3.018
 1752SOL     OW 7037   0.921   4.268   3.155
 1752SOL    HW2 7038   0.907   4.181   3.119
 1752SOL    HW3 7039   0.847   4.320   3.125
 1752SOL    MW4 7040   0.910   4.263   3.146
 1753SOL     OW 7041   1.120   4.380   2.984
 1753SOL    HW2 7042   1.064   4.332   3.044
 1753SOL    HW3 7043   1.124   4.469   3.020
 1753SOL    MW4 7044   1.113   4.386   2.997
 1754SOL     OW 7045   1.546   4.624   3.101
 1754SOL    HW2 7046   1.556   4.640   3.195
 1754SOL    HW3 7047   1.480   4.688   3.073
 1754SOL    MW4 7048   1.539   4.635   3.110
 1755SOL     OW 7049   1.315   0.099   3.023
 1755SOL    HW2 7050   1.316   0.194   3.040
 1755SOL    HW3 7051   1.303   0.092   2.929
 1755SOL    MW4 7052   1.314   0.111   3.013
 1756SOL     OW 7053   1.329   0.364   3.112
 1756SOL    HW2 7054   1.328   0.380   3.206
 1756SOL    HW3 7055   1.410   0.405   3.082
 1756SOL    MW4 7056   1.340   0.372   3.120
 1757SOL     OW 7057   1.557   0.486   3.002
 1757SOL    HW2 7058   1.553   0.582   3.008
 1757SOL    HW3 7059   1.565   0.469   2.908
 1757SOL    MW4 7060   1.558   0.496   2.991
 1758SOL     OW 7061   1.535   0.772   3.101
 1758SOL    HW2 7062   1.537   0.765   3.196
 1758SOL    HW3 7063   1.454   0.820   3.082
 1758SOL    MW4 7064   1.524   0.777   3.111
 1759SOL     OW 7065   1.311   0.898   3.000
 1759SOL    HW2 7066   1.294   0.991   3.017
 1759SOL    HW3 7067   1.227   0.855   3.019
 1759SOL    MW4 7068   1.297   0.904   3.005
 1760SOL     OW 7069   1.327   1.174   3.072
 1760SOL    HW2 7070   1.328   1.185   3.167
 1760SOL    HW3 7071   1.409   1.213   3.042
 1760SOL    MW4 7072   1.338   1.181   3.081
 1761SOL     OW 7073   1.564   1.298   2.988
 1761SOL    HW2 7074   1.640   1.244   3.007
 1761SOL    HW3 7075   1.583   1.382   3.029
 1761SOL    MW4 7076   1.576   1.302   2.996
 1762SOL     OW 7077   1.590   1.561   3.101
 1762SOL    HW2 7078   1.652   1.614   3.049
 1762SOL    HW3 7079   1.504   1.595   3.078
 1762SOL    MW4 7080   1.587   1.572   3.091
 1763SOL     OW 7081   1.334   1.651   3.020
 1763SOL    HW2 7082   1.341   1.741   3.052
 1763SOL    HW3 7083   1.338   1.659   2.924
 1763SOL    MW4 7084   1.335   1.664   3.011
 1764SOL     OW 7085   1.337   1.928   3.095
 1764SOL    HW2 7086   1.355   1.934   3.189
 1764SOL    HW3 7087   1.252   1.971   3.084
 1764SOL    MW4 7088   1.328   1.935   3.106
 1765SOL     OW 7089   1.560   2.074   2.982
 1765SOL    HW2 7090   1.484   2.031   3.021
 1765SOL    HW3 7091   1.553   2.055   2.888
 1765SOL    MW4 7092   1.549   2.066   2.974
 1766SOL     OW 7093   1.556   2.338   3.062
 1766SOL    HW2 7094   1.472   2.365   3.025
 1766SOL    HW3 7095   1.570   2.249   3.028
 1766SOL    MW4 7096   1.547   2.330   3.052
 1767SOL     OW 7097   1.338   2.458   2.975
 1767SOL    HW2 7098   1.260   2.415   3.010
 1767SOL    HW3 7099   1.320   2.469   2.882
 1767SOL    MW4 7100   1.325   2.454   2.967
 1768SOL     OW 7101   1.348   2.699   3.105
 1768SOL    HW2 7102   1.335   2.615   3.061
 1768SOL    HW3 7103   1.275   2.753   3.075
 1768SOL    MW4 7104   1.337   2.695   3.095
 1769SOL     OW 7105   1.581   2.790   2.991
 1769SOL    HW2 7106   1.662   2.770   3.038
 1769SOL    HW3 7107   1.515   2.733   3.031
 1769SOL    MW4 7108   1.583   2.780   3.002
 1770SOL     OW 7109   1.541   3.072   3.086
 1770SOL    HW2 7110   1.536   3.077   3.181
 1770SOL    HW3 7111   1.552   2.979   3.066
 1770SOL    MW4 7112   1.542   3.061   3.096
 1771SOL     OW 7113   1.318   3.211   2.972
 1771SOL    HW2 7114   1.393   3.178   3.022
 1771SOL    HW3 7115   1.352   3.225   2.884
 1771SOL    MW4 7116   1.332   3.208   2.967
 1772SOL     OW 7117   1.293   3.481   3.061
 1772SOL    HW2 7118   1.299   3.481   3.156
 1772SOL    HW3 7119   1.303   3.390   3.035
 1772SOL    MW4 7120   1.295   3.469   3.070
 1773SOL     OW 7121   1.540   3.588   2.993
 1773SOL    HW2 7122   1.459   3.540   3.010
 1773SOL    HW3 7123   1.550   3.587   2.898
 1773SOL    MW4 7124   1.531   3.582   2.983
 1774SOL     OW 7125   1.552   3.866   3.078
 1774SOL    HW2 7126   1.642   3.896   3.064
 1774SOL    HW3 7127   1.553   3.773   3.053
 1774SOL    MW4 7128   1.564   3.857   3.073
 1775SOL     OW 7129   1.324   3.990   3.021
 1775SOL    HW2 7130   1.403   3.940   3.042
 1775SOL    HW3 7131   1.252   3.934   3.051
 1775SOL    MW4 7132   1.325   3.976   3.028
 1776SOL     OW 7133   1.333   4.248   3.110
 1776SOL    HW2 7134   1.327   4.153   3.103
 1776SOL    HW3 7135   1.254   4.280   3.066
 1776SOL    MW4 7136   1.322   4.240   3.103
 1777SOL     OW 7137   1.537   4.376   2.969
 1777SOL    HW2 7138   1.459   4.335   3.005
 1777SOL    HW3 7139   1.542   4.461   3.014
 1777SOL    MW4 7140   1.528   4.382   2.980
 1778SOL     OW 7141   2.005   4.647   3.132
 1778SOL    HW2 7142   2.008   4.642   3.227
 1778SOL    HW3 7143   1.931   4.705   3.113
 1778SOL    MW4 7144   1.995   4.654   3.142
 1779SOL     OW 7145   1.768   0.109   3.043
 1779SOL    HW2 7146   1.692   0.052   3.046
 1779SOL    HW3 7147   1.797   0.107   2.952
 1779SOL    MW4 7148   1.762   0.101   3.032
 1780SOL     OW 7149   1.796   0.382   3.100
 1780SOL    HW2 7150   1.791   0.290   3.074
 1780SOL    HW3 7151   1.709   0.417   3.080
 1780SOL    MW4 7152   1.784   0.375   3.094
 1781SOL     OW 7153   2.015   0.522   3.019
 1781SOL    HW2 7154   1.931   0.482   3.042
 1781SOL    HW3 7155   2.019   0.515   2.924
 1781SOL    MW4 7156   2.004   0.516   3.010
 1782SOL     OW 7157   2.046   0.784   3.111
 1782SOL    HW2 7158   1.957   0.816   3.094
 1782SOL    HW3 7159   2.042   0.690   3.096
 1782SOL    MW4 7160   2.034   0.776   3.107
 1783SOL     OW 7161   1.786   0.877   3.030
 1783SOL    HW2 7162   1.702   0.840   3.058
 1783SOL    HW3 7163   1.800   0.840   2.943
 1783SOL    MW4 7164   1.777   0.867   3.022
 1784SOL     OW 7165   1.794   1.164   3.083
 1784SOL    HW2 7166   1.790   1.154   3.178
 1784SOL    HW3 7167   1.790   1.075   3.048
 1784SOL    MW4 7168   1.793   1.151   3.091
 1785SOL     OW 7169   2.033   1.298   3.011
 1785SOL    HW2 7170   2.104   1.246   3.049
 1785SOL    HW3 7171   1.953   1.262   3.051
 1785SOL    MW4 7172   2.032   1.286   3.022
 1786SOL     OW 7173   1.990   1.554   3.098
 1786SOL    HW2 7174   1.988   1.558   3.193
 1786SOL    HW3 7175   2.012   1.463   3.078
 1786SOL    MW4 7176   1.993   1.543   3.108
 1787SOL     OW 7177   1.795   1.677   2.948
 1787SOL    HW2 7178   1.785   1.762   2.990
 1787SOL    HW3 7179   1.857   1.630   3.004
 1787SOL    MW4 7180   1.802   1.682   2.961
 1788SOL     OW 7181   1.785   1.923   3.092
 1788SOL    HW2 7182   1.849   1.980   3.049
 1788SOL    HW3 7183   1.701   1.965   3.073
 1788SOL    MW4 7184   1.782   1.936   3.084
 1789SOL     OW 7185   2.005   2.063   2.989
 1789SOL    HW2 7186   2.082   2.013   3.014
 1789SOL    HW3 7187   2.016   2.147   3.032
 1789SOL    MW4 7188   2.016   2.067   2.998
 1790SOL     OW 7189   1.987   2.321   3.099
 1790SOL    HW2 7190   2.061   2.352   3.046
 1790SOL    HW3 7191   1.912   2.370   3.065
 1790SOL    MW4 7192   1.987   2.332   3.087
 1791SOL     OW 7193   1.799   2.473   2.985
 1791SOL    HW2 7194   1.820   2.547   3.042
 1791SOL    HW3 7195   1.710   2.449   3.010
 1791SOL    MW4 7196   1.790   2.479   2.996
 1792SOL     OW 7197   1.832   2.732   3.105
 1792SOL    HW2 7198   1.849   2.742   3.199
 1792SOL    HW3 7199   1.913   2.761   3.063
 1792SOL    MW4 7200   1.845   2.737   3.112
 1793SOL     OW 7201   2.062   2.840   3.001
 1793SOL    HW2 7202   2.033   2.923   3.040
 1793SOL    HW3 7203   2.041   2.849   2.908
 1793SOL    MW4 7204   2.055   2.852   2.994
 1794SOL     OW 7205   2.009   3.084   3.134
 1794SOL    HW2 7206   2.010   3.094   3.229
 1794SOL    HW3 7207   1.946   3.149   3.103
 1794SOL    MW4 7208   2.001   3.094   3.142
 1795SOL     OW 7209   1.777   3.211   3.012
 1795SOL    HW2 7210   1.697   3.165   3.038
 1795SOL    HW3 7211   1.773   3.215   2.917
 1795SOL    MW4 7212   1.766   3.206   3.003
 1796SOL     OW 7213   1.797   3.491   3.076
 1796SOL    HW2 7214   1.809   3.399   3.052
 1796SOL    HW3 7215   1.712   3.515   3.040
 1796SOL    MW4 7216   1.788   3.482   3.068
 1797SOL     OW 7217   2.035   3.609   3.000
 1797SOL    HW2 7218   2.042   3.696   3.040
 1797SOL    HW3 7219   1.954   3.573   3.035
 1797SOL    MW4 7220   2.025   3.616   3.010
 1798SOL     OW 7221   2.061   3.852   3.121
 1798SOL    HW2 7222   2.069   3.852   3.216
 1798SOL    HW3 7223   1.979   3.899   3.104
 1798SOL    MW4 7224   2.051   3.858   3.131
 1799SOL     OW 7225   1.823   4.007   3.044
 1799SOL    HW2 7226   1.789   4.093   3.066
 1799SOL    HW3 7227   1.822   4.004   2.948
 1799SOL    MW4 7228   1.819   4.018   3.034
 1800SOL     OW 7229   1.757   4.274   3.096
 1800SOL    HW2 7230   1.826   4.327   3.055
 1800SOL    HW3 7231   1.676   4.304   3.055
 1800SOL    MW4 7232   1.756   4.285   3.085
 1801SOL     OW 7233   2.002   4.391   3.030
 1801SOL    HW2 7234   1.982   4.476   3.070
 1801SOL    HW3 7235   2.010   4.410   2.937
 1801SOL    MW4 7236   2.000   4.405   3.023
 1802SOL     OW 7237   2.473   4.631   3.123
 1802SOL    HW2 7238   2.456   4.545   3.086
 1802SOL    HW3 7239   2.395   4.683   3.100
 1802SOL    MW4 7240   2.460   4.627   3.115
 1803SOL     OW 7241   2.240   0.136   3.080
 1803SOL    HW2 7242   2.254   0.225   3.113
 1803SOL    HW3 7243   2.147   0.119   3.096
 1803SOL    MW4 7244   2.230   0.146   3.086
 1804SOL     OW 7245   2.260   0.421   3.104
 1804SOL    HW2 7246   2.262   0.420   3.199
 1804SOL    HW3 7247   2.176   0.463   3.082
 1804SOL    MW4 7248   2.249   0.426   3.113
 1805SOL     OW 7249   2.503   0.497   3.007
 1805SOL    HW2 7250   2.420   0.457   3.034
 1805SOL    HW3 7251   2.501   0.493   2.911
 1805SOL    MW4 7252   2.492   0.491   2.998
 1806SOL     OW 7253   2.484   0.778   3.110
 1806SOL    HW2 7254   2.561   0.829   3.085
 1806SOL    HW3 7255   2.495   0.694   3.065
 1806SOL    MW4 7256   2.495   0.774   3.100
 1807SOL     OW 7257   2.269   0.901   2.997
 1807SOL    HW2 7258   2.344   0.852   3.032
 1807SOL    HW3 7259   2.192   0.851   3.025
 1807SOL    MW4 7260   2.269   0.888   3.006
 1808SOL     OW 7261   2.255   1.165   3.099
 1808SOL    HW2 7262   2.249   1.141   3.191
 1808SOL    HW3 7263   2.275   1.082   3.055
 1808SOL    MW4 7264   2.257   1.151   3.105
 1809SOL     OW 7265   2.502   1.310   3.005
 1809SOL    HW2 7266   2.420   1.293   3.053
 1809SOL    HW3 7267   2.476   1.310   2.913
 1809SOL    MW4 7268   2.487   1.308   2.999
 1810SOL     OW 7269   2.498   1.574   3.104
 1810SOL    HW2 7270   2.418   1.581   3.052
 1810SOL    HW3 7271   2.528   1.484   3.090
 1810SOL    MW4 7272   2.492   1.563   3.095
 1811SOL     OW 7273   2.238   1.632   2.997
 1811SOL    HW2 7274   2.158   1.597   3.036
 1811SOL    HW3 7275   2.220   1.634   2.903
 1811SOL    MW4 7276   2.225   1.628   2.990
 1812SOL     OW 7277   2.215   1.914   3.087
 1812SOL    HW2 7278   2.304   1.943   3.071
 1812SOL    HW3 7279   2.212   1.826   3.048
 1812SOL    MW4 7280   2.226   1.906   3.080
 1813SOL     OW 7281   2.478   2.017   3.037
 1813SOL    HW2 7282   2.559   1.974   3.064
 1813SOL    HW3 7283   2.476   2.008   2.942
 1813SOL    MW4 7284   2.488   2.010   3.028
 1814SOL     OW 7285   2.407   2.270   3.112
 1814SOL    HW2 7286   2.413   2.261   3.207
 1814SOL    HW3 7287   2.433   2.185   3.078
 1814SOL    MW4 7288   2.412   2.258   3.120
 1815SOL     OW 7289   2.206   2.413   2.972
 1815SOL    HW2 7290   2.208   2.501   3.009
 1815SOL    HW3 7291   2.274   2.365   3.018
 1815SOL    MW4 7292   2.215   2.419   2.983
 1816SOL     OW 7293   2.228   2.645   3.107
 1816SOL    HW2 7294   2.315   2.675   3.080
 1816SOL    HW3 7295   2.172   2.721   3.092
 1816SOL    MW4 7296   2.232   2.659   3.102
 1817SOL     OW 7297   2.438   2.795   3.031
 1817SOL    HW2 7298   2.447   2.885   3.062
 1817SOL    HW3 7299   2.451   2.800   2.936
 1817SOL    MW4 7300   2.441   2.807   3.022
 1818SOL     OW 7301   2.446   3.069   3.145
 1818SOL    HW2 7302   2.519   3.114   3.102
 1818SOL    HW3 7303   2.368   3.105   3.103
 1818SOL    MW4 7304   2.445   3.079   3.134
 1819SOL     OW 7305   2.230   3.189   3.026
 1819SOL    HW2 7306   2.232   3.280   3.057
 1819SOL    HW3 7307   2.150   3.153   3.064
 1819SOL    MW4 7308   2.220   3.196   3.035
 1820SOL     OW 7309   2.249   3.467   3.113
 1820SOL    HW2 7310   2.331   3.513   3.095
 1820SOL    HW3 7311   2.181   3.521   3.073
 1820SOL    MW4 7312   2.251   3.480   3.106
 1821SOL     OW 7313   2.446   3.624   2.985
 1821SOL    HW2 7314   2.526   3.589   3.023
 1821SOL    HW3 7315   2.447   3.717   3.009
 1821SOL    MW4 7316   2.456   3.632   2.993
 1822SOL     OW 7317   2.485   3.880   3.061
 1822SOL    HW2 7318   2.499   3.902   3.153
 1822SOL    HW3 7319   2.564   3.909   3.016
 1822SOL    MW4 7320   2.497   3.887   3.067
 1823SOL     OW 7321   2.255   3.985   2.985
 1823SOL    HW2 7322   2.336   3.941   3.011
 1823SOL    HW3 7323   2.186   3.937   3.030
 1823SOL    MW4 7324   2.257   3.973   2.994
 1824SOL     OW 7325   2.236   4.256   3.080
 1824SOL    HW2 7326   2.233   4.175   3.029
 1824SOL    HW3 7327   2.154   4.301   3.058
 1824SOL    MW4 7328   2.225   4.251   3.070
 1825SOL     OW 7329   2.458   4.375   2.985
 1825SOL    HW2 7330   2.379   4.328   3.013
 1825SOL    HW3 7331   2.436   4.408   2.897
 1825SOL    MW4 7332   2.445   4.373   2.977
 1826SOL     OW 7333   2.929   4.629   3.070
 1826SOL    HW2 7334   3.020   4.658   3.065
 1826SOL    HW3 7335   2.928   4.546   3.021
 1826SOL    MW4 7336   2.941   4.622   3.063
 1827SOL     OW 7337   2.684   0.107   3.020
 1827SOL    HW2 7338   2.761   0.061   3.054
 1827SOL    HW3 7339   2.610   0.055   3.050
 1827SOL    MW4 7340   2.684   0.094   3.029
 1828SOL     OW 7341   2.709   0.369   3.130
 1828SOL    HW2 7342   2.696   0.290   3.078
 1828SOL    HW3 7343   2.641   0.429   3.099
 1828SOL    MW4 7344   2.698   0.367   3.119
 1829SOL     OW 7345   2.926   0.469   3.007
 1829SOL    HW2 7346   2.840   0.439   3.038
 1829SOL    HW3 7347   2.915   0.475   2.912
 1829SOL    MW4 7348   2.913   0.466   2.998
 1830SOL     OW 7349   2.933   0.716   3.124
 1830SOL    HW2 7350   2.948   0.714   3.218
 1830SOL    HW3 7351   2.931   0.624   3.098
 1830SOL    MW4 7352   2.934   0.703   3.133
 1831SOL     OW 7353   2.726   0.840   2.993
 1831SOL    HW2 7354   2.735   0.933   3.013
 1831SOL    HW3 7355   2.795   0.797   3.043
 1831SOL    MW4 7356   2.736   0.847   3.002
 1832SOL     OW 7357   2.680   1.114   3.092
 1832SOL    HW2 7358   2.759   1.159   3.062
 1832SOL    HW3 7359   2.608   1.172   3.065
 1832SOL    MW4 7360   2.681   1.128   3.084
 1833SOL     OW 7361   2.934   1.242   3.016
 1833SOL    HW2 7362   3.010   1.196   3.049
 1833SOL    HW3 7363   2.938   1.328   3.057
 1833SOL    MW4 7364   2.944   1.247   3.025
 1834SOL     OW 7365   2.951   1.496   3.128
 1834SOL    HW2 7366   2.955   1.510   3.222
 1834SOL    HW3 7367   3.000   1.569   3.091
 1834SOL    MW4 7368   2.958   1.507   3.135
 1835SOL     OW 7369   2.728   1.607   2.962
 1835SOL    HW2 7370   2.792   1.559   3.016
 1835SOL    HW3 7371   2.648   1.608   3.015
 1835SOL    MW4 7372   2.726   1.601   2.976
 1836SOL     OW 7373   2.719   1.892   3.077
 1836SOL    HW2 7374   2.799   1.942   3.062
 1836SOL    HW3 7375   2.732   1.810   3.029
 1836SOL    MW4 7376   2.731   1.888   3.069
 1837SOL     OW 7377   2.931   2.040   2.999
 1837SOL    HW2 7378   2.939   2.134   3.017
 1837SOL    HW3 7379   2.909   2.035   2.906
 1837SOL    MW4 7380   2.929   2.052   2.989
 1838SOL     OW 7381   2.912   2.305   3.062
 1838SOL    HW2 7382   2.964   2.384   3.046
 1838SOL    HW3 7383   2.825   2.326   3.030
 1838SOL    MW4 7384   2.908   2.318   3.056
 1839SOL     OW 7385   2.631   2.428   3.024
 1839SOL    HW2 7386   2.649   2.505   3.077
 1839SOL    HW3 7387   2.556   2.386   3.067
 1839SOL    MW4 7388   2.623   2.432   3.036
 1840SOL     OW 7389   2.676   2.678   3.132
 1840SOL    HW2 7390   2.671   2.693   3.227
 1840SOL    HW3 7391   2.600   2.723   3.097
 1840SOL    MW4 7392   2.665   2.686   3.140
 1841SOL     OW 7393   2.895   2.829   2.991
 1841SOL    HW2 7394   2.978   2.803   3.032
 1841SOL    HW3 7395   2.830   2.769   3.028
 1841SOL    MW4 7396   2.897   2.817   3.001
 1842SOL     OW 7397   2.883   3.077   3.100
 1842SOL    HW2 7398   2.804   3.124   3.072
 1842SOL    HW3 7399   2.873   2.990   3.063
 1842SOL    MW4 7400   2.871   3.072   3.092
 1843SOL     OW 7401   2.660   3.228   3.023
 1843SOL    HW2 7402   2.640   3.315   3.055
 1843SOL    HW3 7403   2.687   3.241   2.932
 1843SOL    MW4 7404   2.661   3.241   3.016
 1844SOL     OW 7405   2.647   3.495   3.107
 1844SOL    HW2 7406   2.659   3.488   3.202
 1844SOL    HW3 7407   2.726   3.539   3.076
 1844SOL    MW4 7408   2.659   3.500   3.115
 1845SOL     OW 7409   2.884   3.617   2.955
 1845SOL    HW2 7410   2.947   3.570   3.010
 1845SOL    HW3 7411   2.884   3.706   2.988
 1845SOL    MW4 7412   2.892   3.623   2.966
 1846SOL     OW 7413   2.915   3.854   3.074
 1846SOL    HW2 7414   2.908   3.865   3.168
 1846SOL    HW3 7415   2.845   3.910   3.038
 1846SOL    MW4 7416   2.905   3.863   3.081
 1847SOL     OW 7417   2.710   3.999   2.954
 1847SOL    HW2 7418   2.714   4.093   2.970
 1847SOL    HW3 7419   2.704   3.991   2.858
 1847SOL    MW4 7420   2.710   4.011   2.943
 1848SOL     OW 7421   2.721   4.255   3.039
 1848SOL    HW2 7422   2.746   4.246   3.131
 1848SOL    HW3 7423   2.626   4.272   3.042
 1848SOL    MW4 7424   2.711   4.256   3.052
 1849SOL     OW 7425   2.918   4.402   2.907
 1849SOL    HW2 7426   2.993   4.366   2.954
 1849SOL    HW3 7427   2.842   4.356   2.944
 1849SOL    MW4 7428   2.918   4.391   2.918
 1850SOL     OW 7429   3.387   4.624   3.125
 1850SOL    HW2 7430   3.455   4.675   3.080
 1850SOL    HW3 7431   3.395   4.536   3.088
 1850SOL    MW4 7432   3.397   4.619   3.114
 1851SOL     OW 7433   3.174   0.080   2.995
 1851SOL    HW2 7434   3.181   0.168   3.031
 1851SOL    HW3 7435   3.252   0.035   3.026
 1851SOL    MW4 7436   3.185   0.086   3.004
 1852SOL     OW 7437   3.180   0.360   3.099
 1852SOL    HW2 7438   3.265   0.384   3.062
 1852SOL    HW3 7439   3.118   0.416   3.053
 1852SOL    MW4 7440   3.183   0.371   3.088
 1853SOL     OW 7441   3.407   0.468   2.984
 1853SOL    HW2 7442   3.489   0.430   3.017
 1853SOL    HW3 7443   3.410   0.453   2.890
 1853SOL    MW4 7444   3.418   0.461   2.976
 1854SOL     OW 7445   3.405   0.736   3.081
 1854SOL    HW2 7446   3.402   0.726   3.177
 1854SOL    HW3 7447   3.398   0.646   3.048
 1854SOL    MW4 7448   3.404   0.723   3.090
 1855SOL     OW 7449   3.152   0.828   3.016
 1855SOL    HW2 7450   3.227   0.782   3.052
 1855SOL    HW3 7451   3.076   0.787   3.058
 1855SOL    MW4 7452   3.152   0.816   3.026
 1856SOL     OW 7453   3.145   1.092   3.103
 1856SOL    HW2 7454   3.223   1.132   3.064
 1856SOL    HW3 7455   3.144   1.003   3.066
 1856SOL    MW4 7456   3.155   1.085   3.093
 1857SOL     OW 7457   3.381   1.246   3.034
 1857SOL    HW2 7458   3.451   1.198   3.078
 1857SOL    HW3 7459   3.383   1.333   3.074
 1857SOL    MW4 7460   3.390   1.251   3.045
 1858SOL     OW 7461   3.371   1.524   3.083
 1858SOL    HW2 7462   3.370   1.541   3.177
 1858SOL    HW3 7463   3.453   1.562   3.052
 1858SOL    MW4 7464   3.381   1.531   3.091
 1859SOL     OW 7465   3.166   1.684   2.995
 1859SOL    HW2 7466   3.246   1.641   3.026
 1859SOL    HW3 7467   3.166   1.669   2.900
 1859SOL    MW4 7468   3.176   1.676   2.987
 1860SOL     OW 7469   3.168   1.930   3.108
 1860SOL    HW2 7470   3.169   1.841   3.074
 1860SOL    HW3 7471   3.085   1.967   3.076
 1860SOL    MW4 7472   3.157   1.923   3.099
 1861SOL     OW 7473   3.341   2.087   2.971
 1861SOL    HW2 7474   3.428   2.055   2.995
 1861SOL    HW3 7475   3.280   2.026   3.012
 1861SOL    MW4 7476   3.345   2.075   2.979
 1862SOL     OW 7477   3.298   2.360   3.059
 1862SOL    HW2 7478   3.292   2.349   3.154
 1862SOL    HW3 7479   3.298   2.271   3.024
 1862SOL    MW4 7480   3.297   2.347   3.067
 1863SOL     OW 7481   3.091   2.505   2.981
 1863SOL    HW2 7482   3.168   2.458   3.015
 1863SOL    HW3 7483   3.089   2.482   2.888
 1863SOL    MW4 7484   3.101   2.496   2.973
 1864SOL     OW 7485   3.148   2.739   3.124
 1864SOL    HW2 7486   3.158   2.709   3.214
 1864SOL    HW3 7487   3.130   2.660   3.074
 1864SOL    MW4 7488   3.147   2.725   3.129
 1865SOL     OW 7489   3.352   2.839   2.987
 1865SOL    HW2 7490   3.351   2.929   3.018
 1865SOL    HW3 7491   3.283   2.796   3.037
 1865SOL    MW4 7492   3.343   2.845   2.997
 1866SOL     OW 7493   3.342   3.096   3.094
 1866SOL    HW2 7494   3.338   3.100   3.189
 1866SOL    HW3 7495   3.268   3.148   3.064
 1866SOL    MW4 7496   3.332   3.103   3.103
 1867SOL     OW 7497   3.097   3.201   3.016
 1867SOL    HW2 7498   3.023   3.143   3.038
 1867SOL    HW3 7499   3.095   3.206   2.921
 1867SOL    MW4 7500   3.087   3.194   3.007
 1868SOL     OW 7501   3.075   3.477   3.090
 1868SOL    HW2 7502   3.146   3.527   3.052
 1868SOL    HW3 7503   3.087   3.388   3.056
 1868SOL    MW4 7504   3.086   3.472   3.080
 1869SOL     OW 7505   3.302   3.605   2.995
 1869SOL    HW2 7506   3.377   3.550   3.014
 1869SOL    HW3 7507   3.323   3.690   3.034
 1869SOL    MW4 7508   3.314   3.609   3.003
 1870SOL     OW 7509   3.387   3.847   3.090
 1870SOL    HW2 7510   3.388   3.854   3.185
 1870SOL    HW3 7511   3.313   3.902   3.063
 1870SOL    MW4 7512   3.377   3.855   3.099
 1871SOL     OW 7513   3.152   3.992   2.982
 1871SOL    HW2 7514   3.085   3.927   3.005
 1871SOL    HW3 7515   3.139   4.007   2.888
 1871SOL    MW4 7516   3.141   3.985   2.972
 1872SOL     OW 7517   3.125   4.277   3.057
 1872SOL    HW2 7518   3.118   4.267   3.152
 1872SOL    HW3 7519   3.118   4.188   3.023
 1872SOL    MW4 7520   3.123   4.264   3.065
 1873SOL     OW 7521   3.366   4.381   2.977
 1873SOL    HW2 7522   3.441   4.339   3.020
 1873SOL    HW3 7523   3.290   4.337   3.013
 1873SOL    MW4 7524   3.366   4.370   2.988
 1874SOL     OW 7525   3.810   0.032   3.149
 1874SOL    HW2 7526   3.824  -0.059   3.122
 1874SOL    HW3 7527   3.723   0.054   3.117
 1874SOL    MW4 7528   3.801   0.023   3.141
 1875SOL     OW 7529   3.573   0.124   2.997
 1875SOL    HW2 7530   3.599   0.207   3.038
 1875SOL    HW3 7531   3.580   0.140   2.903
 1875SOL    MW4 7532   3.577   0.137   2.990
 1876SOL     OW 7533   3.643   0.370   3.094
 1876SOL    HW2 7534   3.654   0.369   3.189
 1876SOL    HW3 7535   3.723   0.413   3.062
 1876SOL    MW4 7536   3.655   0.376   3.102
 1877SOL     OW 7537   3.865   0.518   2.983
 1877SOL    HW2 7538   3.932   0.479   3.039
 1877SOL    HW3 7539   3.864   0.610   3.008
 1877SOL    MW4 7540   3.874   0.525   2.994
 1878SOL     OW 7541   3.852   0.753   3.110
 1878SOL    HW2 7542   3.835   0.753   3.204
 1878SOL    HW3 7543   3.944   0.780   3.102
 1878SOL    MW4 7544   3.862   0.756   3.121
 1879SOL     OW 7545   3.617   0.899   2.992
 1879SOL    HW2 7546   3.688   0.854   3.038
 1879SOL    HW3 7547   3.542   0.840   3.002
 1879SOL    MW4 7548   3.616   0.885   2.999
 1880SOL     OW 7549   3.605   1.112   3.149
 1880SOL    HW2 7550   3.674   1.172   3.120
 1880SOL    HW3 7551   3.615   1.035   3.094
 1880SOL    MW4 7552   3.616   1.110   3.138
 1881SOL     OW 7553   3.806   1.296   3.068
 1881SOL    HW2 7554   3.806   1.390   3.083
 1881SOL    HW3 7555   3.800   1.287   2.973
 1881SOL    MW4 7556   3.805   1.307   3.057
 1882SOL     OW 7557   3.840   1.563   3.130
 1882SOL    HW2 7558   3.830   1.551   3.225
 1882SOL    HW3 7559   3.757   1.603   3.103
 1882SOL    MW4 7560   3.827   1.566   3.139
 1883SOL     OW 7561   3.614   1.672   3.005
 1883SOL    HW2 7562   3.601   1.766   3.015
 1883SOL    HW3 7563   3.596   1.655   2.913
 1883SOL    MW4 7564   3.610   1.682   2.995
 1884SOL     OW 7565   3.572   1.948   3.037
 1884SOL    HW2 7566   3.551   1.940   3.130
 1884SOL    HW3 7567   3.655   1.996   3.036
 1884SOL    MW4 7568   3.581   1.953   3.049
 1885SOL     OW 7569   3.799   2.088   3.010
 1885SOL    HW2 7570   3.790   2.182   3.028
 1885SOL    HW3 7571   3.791   2.082   2.914
 1885SOL    MW4 7572   3.797   2.100   3.000
 1886SOL     OW 7573   3.797   2.351   3.104
 1886SOL    HW2 7574   3.786   2.343   3.199
 1886SOL    HW3 7575   3.721   2.402   3.075
 1886SOL    MW4 7576   3.785   2.357   3.113
 1887SOL     OW 7577   3.553   2.481   2.997
 1887SOL    HW2 7578   3.541   2.563   3.044
 1887SOL    HW3 7579   3.470   2.433   3.010
 1887SOL    MW4 7580   3.540   2.485   3.005
 1888SOL     OW 7581   3.536   2.722   3.135
 1888SOL    HW2 7582   3.620   2.755   3.103
 1888SOL    HW3 7583   3.470   2.769   3.082
 1888SOL    MW4 7584   3.538   2.733   3.123
 1889SOL     OW 7585   3.795   2.826   3.033
 1889SOL    HW2 7586   3.808   2.913   3.070
 1889SOL    HW3 7587   3.813   2.836   2.939
 1889SOL    MW4 7588   3.799   2.839   3.025
 1890SOL     OW 7589   3.800   3.093   3.124
 1890SOL    HW2 7590   3.875   3.135   3.083
 1890SOL    HW3 7591   3.724   3.141   3.090
 1890SOL    MW4 7592   3.800   3.105   3.114
 1891SOL     OW 7593   3.576   3.213   2.994
 1891SOL    HW2 7594   3.492   3.175   3.019
 1891SOL    HW3 7595   3.571   3.224   2.899
 1891SOL    MW4 7596   3.565   3.209   2.985
 1892SOL     OW 7597   3.537   3.466   3.071
 1892SOL    HW2 7598   3.618   3.513   3.051
 1892SOL    HW3 7599   3.556   3.374   3.051
 1892SOL    MW4 7600   3.550   3.460   3.065
 1893SOL     OW 7601   3.774   3.584   3.002
 1893SOL    HW2 7602   3.796   3.668   3.042
 1893SOL    HW3 7603   3.789   3.597   2.908
 1893SOL    MW4 7604   3.779   3.597   2.995
 1894SOL     OW 7605   3.841   3.837   3.103
 1894SOL    HW2 7606   3.833   3.834   3.198
 1894SOL    HW3 7607   3.772   3.898   3.075
 1894SOL    MW4 7608   3.831   3.845   3.112
 1895SOL     OW 7609   3.608   4.000   3.020
 1895SOL    HW2 7610   3.532   3.948   3.045
 1895SOL    HW3 7611   3.605   4.003   2.925
 1895SOL    MW4 7612   3.598   3.994   3.011
 1896SOL     OW 7613   3.589   4.258   3.091
 1896SOL    HW2 7614   3.679   4.289   3.089
 1896SOL    HW3 7615   3.594   4.166   3.064
 1896SOL    MW4 7616   3.601   4.250   3.087
 1897SOL     OW 7617   3.834   4.440   3.055
 1897SOL    HW2 7618   3.903   4.377   3.071
 1897SOL    HW3 7619   3.820   4.438   2.960
 1897SOL    MW4 7620   3.841   4.432   3.044
 1898SOL     OW 7621   4.241   4.643   3.097
 1898SOL    HW2 7622   4.241   4.626   3.191
 1898SOL    HW3 7623   4.229   4.557   3.056
 1898SOL    MW4 7624   4.239   4.630   3.104
 1899SOL     OW 7625   4.034   0.133   3.032
 1899SOL    HW2 7626   4.112   0.080   3.051
 1899SOL    HW3 7627   3.968   0.102   3.095
 1899SOL    MW4 7628   4.036   0.122   3.043
 1900SOL     OW 7629   4.052   0.388   3.137
 1900SOL    HW2 7630   4.118   0.454   3.115
 1900SOL    HW3 7631   4.066   0.317   3.075
 1900SOL    MW4 7632   4.062   0.388   3.126
 1901SOL     OW 7633   4.264   0.534   3.075
 1901SOL    HW2 7634   4.281   0.625   3.102
 1901SOL    HW3 7635   4.267   0.537   2.979
 1901SOL    MW4 7636   4.267   0.547   3.065
 1902SOL     OW 7637   4.327   0.795   3.140
 1902SOL    HW2 7638   4.262   0.842   3.089
 1902SOL    HW3 7639   4.411   0.823   3.103
 1902SOL    MW4 7640   4.330   0.805   3.128
 1903SOL     OW 7641   4.094   0.887   3.010
 1903SOL    HW2 7642   4.057   0.965   3.049
 1903SOL    HW3 7643   4.072   0.893   2.917
 1903SOL    MW4 7644   4.086   0.898   3.003
 1904SOL     OW 7645   4.035   1.134   3.113
 1904SOL    HW2 7646   4.044   1.142   3.208
 1904SOL    HW3 7647   3.955   1.183   3.092
 1904SOL    MW4 7648   4.025   1.142   3.122
 1905SOL     OW 7649   4.246   1.294   3.016
 1905SOL    HW2 7650   4.170   1.239   3.035
 1905SOL    HW3 7651   4.247   1.301   2.920
 1905SOL    MW4 7652   4.236   1.288   3.006
 1906SOL     OW 7653   4.230   1.581   3.127
 1906SOL    HW2 7654   4.160   1.625   3.079
 1906SOL    HW3 7655   4.205   1.488   3.124
 1906SOL    MW4 7656   4.217   1.574   3.121
 1907SOL     OW 7657   4.013   1.704   3.000
 1907SOL    HW2 7658   4.022   1.786   3.049
 1907SOL    HW3 7659   3.956   1.650   3.055
 1907SOL    MW4 7660   4.007   1.708   3.014
 1908SOL     OW 7661   4.009   1.944   3.135
 1908SOL    HW2 7662   4.086   1.984   3.094
 1908SOL    HW3 7663   3.935   1.996   3.103
 1908SOL    MW4 7664   4.010   1.956   3.125
 1909SOL     OW 7665   4.240   2.030   2.963
 1909SOL    HW2 7666   4.254   2.123   2.980
 1909SOL    HW3 7667   4.249   2.023   2.868
 1909SOL    MW4 7668   4.243   2.042   2.952
 1910SOL     OW 7669   4.229   2.287   3.069
 1910SOL    HW2 7670   4.155   2.342   3.044
 1910SOL    HW3 7671   4.304   2.346   3.070
 1910SOL    MW4 7672   4.229   2.302   3.065
 1911SOL     OW 7673   4.017   2.452   2.980
 1911SOL    HW2 7674   4.024   2.544   3.008
 1911SOL    HW3 7675   3.938   2.420   3.023
 1911SOL    MW4 7676   4.008   2.460   2.990
 1912SOL     OW 7677   4.054   2.697   3.095
 1912SOL    HW2 7678   4.047   2.689   3.190
 1912SOL    HW3 7679   3.973   2.740   3.068
 1912SOL    MW4 7680   4.043   2.702   3.104
 1913SOL     OW 7681   4.272   2.860   3.029
 1913SOL    HW2 7682   4.206   2.791   3.033
 1913SOL    HW3 7683   4.350   2.821   3.066
 1913SOL    MW4 7684   4.273   2.846   3.035
 1914SOL     OW 7685   4.273   3.129   3.092
 1914SOL    HW2 7686   4.192   3.150   3.045
 1914SOL    HW3 7687   4.283   3.035   3.081
 1914SOL    MW4 7688   4.263   3.120   3.084
 1915SOL     OW 7689   4.011   3.209   3.008
 1915SOL    HW2 7690   4.022   3.299   3.037
 1915SOL    HW3 7691   4.006   3.214   2.913
 1915SOL    MW4 7692   4.012   3.221   2.999
 1916SOL     OW 7693   4.019   3.484   3.076
 1916SOL    HW2 7694   4.009   3.486   3.172
 1916SOL    HW3 7695   3.935   3.516   3.043
 1916SOL    MW4 7696   4.007   3.488   3.085
 1917SOL     OW 7697   4.252   3.624   3.015
 1917SOL    HW2 7698   4.252   3.711   3.055
 1917SOL    HW3 7699   4.166   3.589   3.035
 1917SOL    MW4 7700   4.241   3.631   3.023
 1918SOL     OW 7701   4.303   3.870   3.129
 1918SOL    HW2 7702   4.228   3.914   3.088
 1918SOL    HW3 7703   4.379   3.909   3.087
 1918SOL    MW4 7704   4.303   3.881   3.118
 1919SOL     OW 7705   4.059   3.970   3.009
 1919SOL    HW2 7706   4.053   4.057   3.046
 1919SOL    HW3 7707   3.977   3.927   3.034
 1919SOL    MW4 7708   4.047   3.976   3.017
 1920SOL     OW 7709   4.030   4.247   3.101
 1920SOL    HW2 7710   4.035   4.254   3.197
 1920SOL    HW3 7711   4.105   4.297   3.069
 1920SOL    MW4 7712   4.041   4.255   3.110
 1921SOL     OW 7713   4.274   4.374   2.994
 1921SOL    HW2 7714   4.336   4.309   3.027
 1921SOL    HW3 7715   4.301   4.390   2.904
 1921SOL    MW4 7716   4.286   4.367   2.986
 1922SOL     OW 7717   0.210   0.011   3.443
 1922SOL    HW2 7718   0.283   0.064   3.476
 1922SOL    HW3 7719   0.239  -0.080   3.456
 1922SOL    MW4 7720   0.224   0.006   3.449
 1923SOL     OW 7721   4.454   0.096   3.557
 1923SOL    HW2 7722   4.444   0.181   3.513
 1923SOL    HW3 7723   4.534   0.059   3.519
 1923SOL    MW4 7724   4.463   0.103   3.546
 1924SOL     OW 7725   4.466   0.333   3.439
 1924SOL    HW2 7726   4.397   0.396   3.459
 1924SOL    HW3 7727   4.544   0.367   3.484
 1924SOL    MW4 7728   4.467   0.346   3.447
 1925SOL     OW 7729   0.208   0.517   3.522
 1925SOL    HW2 7730   0.285   0.481   3.478
 1925SOL    HW3 7731   0.199   0.606   3.488
 1925SOL    MW4 7732   0.217   0.524   3.512
 1926SOL     OW 7733   0.183   0.765   3.381
 1926SOL    HW2 7734   0.263   0.800   3.418
 1926SOL    HW3 7735   0.113   0.808   3.429
 1926SOL    MW4 7736   0.184   0.775   3.392
 1927SOL     OW 7737   4.449   0.864   3.522
 1927SOL    HW2 7738   4.451   0.878   3.617
 1927SOL    HW3 7739   4.442   0.953   3.486
 1927SOL    MW4 7740   4.448   0.878   3.530
 1928SOL     OW 7741   4.454   1.136   3.398
 1928SOL    HW2 7742   4.533   1.179   3.430
 1928SOL    HW3 7743   4.467   1.132   3.303
 1928SOL    MW4 7744   4.466   1.141   3.389
 1929SOL     OW 7745   0.194   1.303   3.483
 1929SOL    HW2 7746   0.277   1.259   3.463
 1929SOL    HW3 7747   0.209   1.394   3.454
 1929SOL    MW4 7748   0.207   1.310   3.476
 1930SOL     OW 7749   0.232   1.570   3.404
 1930SOL    HW2 7750   0.320   1.602   3.424
 1930SOL    HW3 7751   0.220   1.589   3.311
 1930SOL    MW4 7752   0.242   1.577   3.395
 1931SOL     OW 7753   0.015   1.707   3.490
 1931SOL    HW2 7754  -0.055   1.654   3.452
 1931SOL    HW3 7755   0.096   1.668   3.457
 1931SOL    MW4 7756   0.017   1.695   3.481
 1932SOL     OW 7757   4.468   1.968   3.373
 1932SOL    HW2 7758   4.480   1.889   3.425
 1932SOL    HW3 7759   4.475   1.938   3.282
 1932SOL    MW4 7760   4.471   1.954   3.368
 1933SOL     OW 7761   0.212   2.089   3.446
 1933SOL    HW2 7762   0.200   2.072   3.540
 1933SOL    HW3 7763   0.132   2.058   3.405
 1933SOL    MW4 7764   0.200   2.082   3.453
 1934SOL     OW 7765   0.195   2.359   3.354
 1934SOL    HW2 7766   0.104   2.382   3.372
 1934SOL    HW3 7767   0.208   2.276   3.399
 1934SOL    MW4 7768   0.184   2.351   3.362
 1935SOL     OW 7769   4.428   2.465   3.438
 1935SOL    HW2 7770   4.466   2.472   3.526
 1935SOL    HW3 7771   4.358   2.400   3.447
 1935SOL    MW4 7772   4.424   2.457   3.451
 1936SOL     OW 7773   4.465   2.726   3.389
 1936SOL    HW2 7774   4.544   2.744   3.441
 1936SOL    HW3 7775   4.443   2.635   3.409
 1936SOL    MW4 7776   4.472   2.716   3.399
 1937SOL     OW 7777   0.190   2.816   3.548
 1937SOL    HW2 7778   0.270   2.771   3.521
 1937SOL    HW3 7779   0.196   2.902   3.507
 1937SOL    MW4 7780   0.201   2.821   3.539
 1938SOL     OW 7781   0.225   3.065   3.418
 1938SOL    HW2 7782   0.151   3.106   3.463
 1938SOL    HW3 7783   0.207   3.077   3.325
 1938SOL    MW4 7784   0.213   3.072   3.412
 1939SOL     OW 7785   0.023   3.209   3.518
 1939SOL    HW2 7786  -0.063   3.182   3.484
 1939SOL    HW3 7787   0.041   3.293   3.475
 1939SOL    MW4 7788   0.014   3.217   3.508
 1940SOL     OW 7789   0.004   3.464   3.395
 1940SOL    HW2 7790  -0.085   3.484   3.425
 1940SOL    HW3 7791   0.003   3.485   3.302
 1940SOL    MW4 7792  -0.008   3.470   3.387
 1941SOL     OW 7793   0.232   3.577   3.532
 1941SOL    HW2 7794   0.223   3.587   3.626
 1941SOL    HW3 7795   0.147   3.545   3.503
 1941SOL    MW4 7796   0.220   3.574   3.540
 1942SOL     OW 7797   0.232   3.831   3.407
 1942SOL    HW2 7798   0.152   3.861   3.451
 1942SOL    HW3 7799   0.236   3.737   3.426
 1942SOL    MW4 7800   0.222   3.823   3.416
 1943SOL     OW 7801   4.488   3.960   3.505
 1943SOL    HW2 7802   4.469   3.973   3.598
 1943SOL    HW3 7803   4.502   4.048   3.471
 1943SOL    MW4 7804   4.487   3.973   3.513
 1944SOL     OW 7805   0.016   4.232   3.390
 1944SOL    HW2 7806  -0.055   4.291   3.414
 1944SOL    HW3 7807   0.095   4.284   3.400
 1944SOL    MW4 7808   0.017   4.247   3.395
 1945SOL     OW 7809   0.263   4.404   3.500
 1945SOL    HW2 7810   0.232   4.374   3.585
 1945SOL    HW3 7811   0.336   4.347   3.479
 1945SOL    MW4 7812   0.268   4.393   3.508
 1946SOL     OW 7813   0.629   4.616   3.415
 1946SOL    HW2 7814   0.701   4.670   3.449
 1946SOL    HW3 7815   0.635   4.626   3.320
 1946SOL    MW4 7816   0.640   4.625   3.407
 1947SOL     OW 7817   0.443   0.141   3.511
 1947SOL    HW2 7818   0.437   0.125   3.605
 1947SOL    HW3 7819   0.498   0.070   3.478
 1947SOL    MW4 7820   0.449   0.129   3.519
 1948SOL     OW 7821   0.435   0.403   3.401
 1948SOL    HW2 7822   0.514   0.445   3.434
 1948SOL    HW3 7823   0.436   0.315   3.439
 1948SOL    MW4 7824   0.445   0.397   3.410
 1949SOL     OW 7825   0.665   0.520   3.537
 1949SOL    HW2 7826   0.652   0.494   3.628
 1949SOL    HW3 7827   0.737   0.465   3.506
 1949SOL    MW4 7828   0.673   0.509   3.545
 1950SOL     OW 7829   0.651   0.763   3.409
 1950SOL    HW2 7830   0.568   0.797   3.442
 1950SOL    HW3 7831   0.662   0.679   3.455
 1950SOL    MW4 7832   0.642   0.756   3.420
 1951SOL     OW 7833   0.398   0.893   3.488
 1951SOL    HW2 7834   0.407   0.889   3.583
 1951SOL    HW3 7835   0.393   0.986   3.468
 1951SOL    MW4 7836   0.398   0.904   3.498
 1952SOL     OW 7837   0.422   1.152   3.393
 1952SOL    HW2 7838   0.508   1.181   3.423
 1952SOL    HW3 7839   0.420   1.176   3.300
 1952SOL    MW4 7840   0.433   1.159   3.385
 1953SOL     OW 7841   0.657   1.273   3.466
 1953SOL    HW2 7842   0.734   1.224   3.435
 1953SOL    HW3 7843   0.651   1.348   3.407
 1953SOL    MW4 7844   0.666   1.277   3.454
 1954SOL     OW 7845   0.642   1.517   3.303
 1954SOL    HW2 7846   0.720   1.545   3.351
 1954SOL    HW3 7847   0.570   1.565   3.343
 1954SOL    MW4 7848   0.643   1.527   3.315
 1955SOL     OW 7849   0.474   1.671   3.475
 1955SOL    HW2 7850   0.457   1.674   3.570
 1955SOL    HW3 7851   0.470   1.763   3.448
 1955SOL    MW4 7852   0.471   1.684   3.484
 1956SOL     OW 7853   0.434   1.932   3.391
 1956SOL    HW2 7854   0.345   1.961   3.412
 1956SOL    HW3 7855   0.440   1.940   3.295
 1956SOL    MW4 7856   0.423   1.937   3.381
 1957SOL     OW 7857   0.668   2.018   3.470
 1957SOL    HW2 7858   0.661   2.038   3.564
 1957SOL    HW3 7859   0.580   1.991   3.444
 1957SOL    MW4 7860   0.656   2.017   3.479
 1958SOL     OW 7861   0.648   2.282   3.372
 1958SOL    HW2 7862   0.714   2.332   3.420
 1958SOL    HW3 7863   0.668   2.191   3.390
 1958SOL    MW4 7864   0.660   2.277   3.380
 1959SOL     OW 7865   0.436   2.439   3.468
 1959SOL    HW2 7866   0.501   2.378   3.434
 1959SOL    HW3 7867   0.360   2.429   3.411
 1959SOL    MW4 7868   0.434   2.430   3.456
 1960SOL     OW 7869   0.426   2.713   3.429
 1960SOL    HW2 7870   0.441   2.623   3.455
 1960SOL    HW3 7871   0.427   2.711   3.333
 1960SOL    MW4 7872   0.428   2.701   3.420
 1961SOL     OW 7873   0.648   2.848   3.503
 1961SOL    HW2 7874   0.724   2.796   3.476
 1961SOL    HW3 7875   0.573   2.796   3.477
 1961SOL    MW4 7876   0.648   2.834   3.496
 1962SOL     OW 7877   0.645   3.092   3.378
 1962SOL    HW2 7878   0.580   3.147   3.421
 1962SOL    HW3 7879   0.634   3.006   3.418
 1962SOL    MW4 7880   0.635   3.088   3.389
 1963SOL     OW 7881   0.449   3.236   3.500
 1963SOL    HW2 7882   0.434   3.230   3.595
 1963SOL    HW3 7883   0.373   3.192   3.462
 1963SOL    MW4 7884   0.437   3.229   3.508
 1964SOL     OW 7885   0.490   3.498   3.435
 1964SOL    HW2 7886   0.499   3.411   3.474
 1964SOL    HW3 7887   0.413   3.536   3.478
 1964SOL    MW4 7888   0.481   3.492   3.446
 1965SOL     OW 7889   0.707   3.575   3.596
 1965SOL    HW2 7890   0.779   3.536   3.546
 1965SOL    HW3 7891   0.628   3.542   3.554
 1965SOL    MW4 7892   0.706   3.566   3.584
 1966SOL     OW 7893   0.655   3.810   3.417
 1966SOL    HW2 7894   0.589   3.855   3.469
 1966SOL    HW3 7895   0.669   3.726   3.461
 1966SOL    MW4 7896   0.648   3.805   3.429
 1967SOL     OW 7897   0.458   3.959   3.522
 1967SOL    HW2 7898   0.468   4.047   3.484
 1967SOL    HW3 7899   0.374   3.928   3.489
 1967SOL    MW4 7900   0.448   3.967   3.512
 1968SOL     OW 7901   0.471   4.212   3.436
 1968SOL    HW2 7902   0.553   4.244   3.474
 1968SOL    HW3 7903   0.474   4.242   3.345
 1968SOL    MW4 7904   0.482   4.220   3.429
 1969SOL     OW 7905   0.686   4.376   3.543
 1969SOL    HW2 7906   0.766   4.340   3.503
 1969SOL    HW3 7907   0.667   4.455   3.493
 1969SOL    MW4 7908   0.694   4.381   3.531
 1970SOL     OW 7909   1.116   4.652   3.394
 1970SOL    HW2 7910   1.188   4.713   3.414
 1970SOL    HW3 7911   1.116   4.645   3.299
 1970SOL    MW4 7912   1.126   4.659   3.384
 1971SOL     OW 7913   0.866   0.115   3.473
 1971SOL    HW2 7914   0.872   0.107   3.569
 1971SOL    HW3 7915   0.951   0.088   3.441
 1971SOL    MW4 7916   0.878   0.111   3.482
 1972SOL     OW 7917   0.861   0.398   3.390
 1972SOL    HW2 7918   0.934   0.452   3.422
 1972SOL    HW3 7919   0.878   0.311   3.427
 1972SOL    MW4 7920   0.873   0.394   3.399
 1973SOL     OW 7921   1.095   0.535   3.486
 1973SOL    HW2 7922   1.111   0.544   3.580
 1973SOL    HW3 7923   1.122   0.619   3.448
 1973SOL    MW4 7924   1.101   0.547   3.493
 1974SOL     OW 7925   1.092   0.776   3.365
 1974SOL    HW2 7926   1.173   0.821   3.389
 1974SOL    HW3 7927   1.025   0.817   3.420
 1974SOL    MW4 7928   1.094   0.787   3.376
 1975SOL     OW 7929   0.879   0.906   3.485
 1975SOL    HW2 7930   0.886   0.993   3.446
 1975SOL    HW3 7931   0.798   0.869   3.450
 1975SOL    MW4 7932   0.869   0.912   3.476
 1976SOL     OW 7933   0.878   1.139   3.363
 1976SOL    HW2 7934   0.963   1.168   3.395
 1976SOL    HW3 7935   0.886   1.141   3.267
 1976SOL    MW4 7936   0.890   1.143   3.354
 1977SOL     OW 7937   1.099   1.252   3.482
 1977SOL    HW2 7938   1.108   1.257   3.577
 1977SOL    HW3 7939   1.100   1.343   3.453
 1977SOL    MW4 7940   1.100   1.265   3.490
 1978SOL     OW 7941   1.109   1.522   3.380
 1978SOL    HW2 7942   1.188   1.572   3.399
 1978SOL    HW3 7943   1.099   1.528   3.285
 1978SOL    MW4 7944   1.118   1.529   3.370
 1979SOL     OW 7945   0.876   1.628   3.445
 1979SOL    HW2 7946   0.882   1.721   3.426
 1979SOL    HW3 7947   0.964   1.593   3.427
 1979SOL    MW4 7948   0.888   1.635   3.440
 1980SOL     OW 7949   0.899   1.896   3.365
 1980SOL    HW2 7950   0.971   1.955   3.390
 1980SOL    HW3 7951   0.824   1.926   3.416
 1980SOL    MW4 7952   0.899   1.908   3.375
 1981SOL     OW 7953   1.107   2.059   3.451
 1981SOL    HW2 7954   1.197   2.037   3.427
 1981SOL    HW3 7955   1.092   2.144   3.410
 1981SOL    MW4 7956   1.117   2.067   3.442
 1982SOL     OW 7957   1.093   2.319   3.354
 1982SOL    HW2 7958   1.169   2.351   3.403
 1982SOL    HW3 7959   1.123   2.318   3.263
 1982SOL    MW4 7960   1.107   2.323   3.349
 1983SOL     OW 7961   0.852   2.433   3.499
 1983SOL    HW2 7962   0.879   2.441   3.590
 1983SOL    HW3 7963   0.930   2.402   3.453
 1983SOL    MW4 7964   0.866   2.430   3.505
 1984SOL     OW 7965   0.845   2.690   3.391
 1984SOL    HW2 7966   0.935   2.716   3.411
 1984SOL    HW3 7967   0.839   2.599   3.421
 1984SOL    MW4 7968   0.856   2.681   3.398
 1985SOL     OW 7969   1.080   2.820   3.473
 1985SOL    HW2 7970   1.075   2.822   3.569
 1985SOL    HW3 7971   1.166   2.783   3.454
 1985SOL    MW4 7972   1.091   2.815   3.483
 1986SOL     OW 7973   1.102   3.072   3.391
 1986SOL    HW2 7974   1.105   2.987   3.434
 1986SOL    HW3 7975   1.104   3.051   3.297
 1986SOL    MW4 7976   1.103   3.058   3.384
 1987SOL     OW 7977   0.873   3.181   3.519
 1987SOL    HW2 7978   0.954   3.144   3.484
 1987SOL    HW3 7979   0.804   3.151   3.460
 1987SOL    MW4 7980   0.875   3.172   3.507
 1988SOL     OW 7981   0.890   3.451   3.437
 1988SOL    HW2 7982   0.877   3.359   3.459
 1988SOL    HW3 7983   0.912   3.451   3.344
 1988SOL    MW4 7984   0.891   3.439   3.428
 1989SOL     OW 7985   1.127   3.607   3.494
 1989SOL    HW2 7986   1.119   3.622   3.589
 1989SOL    HW3 7987   1.054   3.550   3.473
 1989SOL    MW4 7988   1.116   3.602   3.504
 1990SOL     OW 7989   1.109   3.879   3.433
 1990SOL    HW2 7990   1.181   3.933   3.468
 1990SOL    HW3 7991   1.125   3.792   3.468
 1990SOL    MW4 7992   1.121   3.875   3.442
 1991SOL     OW 7993   0.835   3.978   3.546
 1991SOL    HW2 7994   0.916   3.938   3.514
 1991SOL    HW3 7995   0.765   3.930   3.501
 1991SOL    MW4 7996   0.836   3.967   3.536
 1992SOL     OW 7997   0.901   4.251   3.450
 1992SOL    HW2 7998   0.905   4.158   3.470
 1992SOL    HW3 7999   0.917   4.256   3.355
 1992SOL    MW4 8000   0.904   4.239   3.440
 1993SOL     OW 8001   1.124   4.390   3.513
 1993SOL    HW2 8002   1.037   4.352   3.503
 1993SOL    HW3 8003   1.118   4.475   3.470
 1993SOL    MW4 8004   1.111   4.396   3.506
 1994SOL     OW 8005   1.540   4.652   3.381
 1994SOL    HW2 8006   1.532   4.566   3.421
 1994SOL    HW3 8007   1.456   4.694   3.396
 1994SOL    MW4 8008   1.528   4.647   3.389
 1995SOL     OW 8009   1.338   0.153   3.464
 1995SOL    HW2 8010   1.343   0.150   3.559
 1995SOL    HW3 8011   1.349   0.246   3.442
 1995SOL    MW4 8012   1.340   0.165   3.474
 1996SOL     OW 8013   1.342   0.403   3.389
 1996SOL    HW2 8014   1.422   0.435   3.430
 1996SOL    HW3 8015   1.272   0.454   3.430
 1996SOL    MW4 8016   1.343   0.414   3.400
 1997SOL     OW 8017   1.578   0.490   3.512
 1997SOL    HW2 8018   1.581   0.510   3.605
 1997SOL    HW3 8019   1.664   0.452   3.493
 1997SOL    MW4 8020   1.590   0.487   3.521
 1998SOL     OW 8021   1.563   0.732   3.368
 1998SOL    HW2 8022   1.492   0.786   3.404
 1998SOL    HW3 8023   1.563   0.653   3.422
 1998SOL    MW4 8024   1.554   0.729   3.380
 1999SOL     OW 8025   1.335   0.870   3.456
 1999SOL    HW2 8026   1.335   0.863   3.551
 1999SOL    HW3 8027   1.322   0.963   3.438
 1999SOL    MW4 8028   1.333   0.881   3.466
 2000SOL     OW 8029   1.341   1.140   3.364
 2000SOL    HW2 8030   1.411   1.197   3.396
 2000SOL    HW3 8031   1.261   1.182   3.396
 2000SOL    MW4 8032   1.340   1.153   3.373
 2001SOL     OW 8033   1.546   1.289   3.455
 2001SOL    HW2 8034   1.545   1.303   3.550
 2001SOL    HW3 8035   1.631   1.249   3.438
 2001SOL    MW4 8036   1.557   1.286   3.465
 2002SOL     OW 8037   1.580   1.544   3.375
 2002SOL    HW2 8038   1.555   1.454   3.395
 2002SOL    HW3 8039   1.572   1.551   3.280
 2002SOL    MW4 8040   1.575   1.533   3.365
 2003SOL     OW 8041   1.342   1.683   3.485
 2003SOL    HW2 8042   1.323   1.692   3.579
 2003SOL    HW3 8043   1.431   1.647   3.482
 2003SOL    MW4 8044   1.351   1.680   3.497
 2004SOL     OW 8045   1.343   1.953   3.373
 2004SOL    HW2 8046   1.418   2.008   3.397
 2004SOL    HW3 8047   1.359   1.870   3.418
 2004SOL    MW4 8048   1.355   1.949   3.382
 2005SOL     OW 8049   1.577   2.086   3.451
 2005SOL    HW2 8050   1.656   2.043   3.419
 2005SOL    HW3 8051   1.578   2.173   3.412
 2005SOL    MW4 8052   1.587   2.092   3.442
 2006SOL     OW 8053   1.572   2.335   3.350
 2006SOL    HW2 8054   1.489   2.369   3.383
 2006SOL    HW3 8055   1.568   2.350   3.256
 2006SOL    MW4 8056   1.561   2.342   3.342
 2007SOL     OW 8057   1.338   2.418   3.463
 2007SOL    HW2 8058   1.358   2.417   3.556
 2007SOL    HW3 8059   1.314   2.509   3.444
 2007SOL    MW4 8060   1.337   2.430   3.472
 2008SOL     OW 8061   1.323   2.692   3.388
 2008SOL    HW2 8062   1.403   2.740   3.411
 2008SOL    HW3 8063   1.325   2.687   3.292
 2008SOL    MW4 8064   1.334   2.698   3.378
 2009SOL     OW 8065   1.553   2.829   3.449
 2009SOL    HW2 8066   1.632   2.812   3.398
 2009SOL    HW3 8067   1.540   2.924   3.443
 2009SOL    MW4 8068   1.562   2.840   3.442
 2010SOL     OW 8069   1.559   3.128   3.363
 2010SOL    HW2 8070   1.627   3.173   3.413
 2010SOL    HW3 8071   1.477   3.168   3.393
 2010SOL    MW4 8072   1.557   3.140   3.374
 2011SOL     OW 8073   1.315   3.241   3.454
 2011SOL    HW2 8074   1.319   3.231   3.549
 2011SOL    HW3 8075   1.232   3.200   3.429
 2011SOL    MW4 8076   1.304   3.234   3.463
 2012SOL     OW 8077   1.322   3.483   3.343
 2012SOL    HW2 8078   1.303   3.405   3.395
 2012SOL    HW3 8079   1.263   3.550   3.378
 2012SOL    MW4 8080   1.311   3.481   3.355
 2013SOL     OW 8081   1.546   3.628   3.423
 2013SOL    HW2 8082   1.563   3.615   3.516
 2013SOL    HW3 8083   1.483   3.560   3.400
 2013SOL    MW4 8084   1.540   3.618   3.432
 2014SOL     OW 8085   1.538   3.892   3.354
 2014SOL    HW2 8086   1.532   3.803   3.387
 2014SOL    HW3 8087   1.529   3.884   3.259
 2014SOL    MW4 8088   1.536   3.879   3.346
 2015SOL     OW 8089   1.338   4.001   3.509
 2015SOL    HW2 8090   1.344   4.088   3.469
 2015SOL    HW3 8091   1.409   3.952   3.469
 2015SOL    MW4 8092   1.348   4.006   3.498
 2016SOL     OW 8093   1.343   4.276   3.398
 2016SOL    HW2 8094   1.263   4.319   3.430
 2016SOL    HW3 8095   1.331   4.272   3.303
 2016SOL    MW4 8096   1.330   4.281   3.390
 2017SOL     OW 8097   1.578   4.403   3.501
 2017SOL    HW2 8098   1.654   4.367   3.455
 2017SOL    HW3 8099   1.506   4.345   3.477
 2017SOL    MW4 8100   1.578   4.391   3.492
 2018SOL     OW 8101   2.013   4.644   3.395
 2018SOL    HW2 8102   2.092   4.687   3.428
 2018SOL    HW3 8103   1.941   4.696   3.429
 2018SOL    MW4 8104   2.014   4.656   3.404
 2019SOL     OW 8105   1.780   0.104   3.485
 2019SOL    HW2 8106   1.767   0.087   3.579
 2019SOL    HW3 8107   1.699   0.076   3.444
 2019SOL    MW4 8108   1.768   0.098   3.492
 2020SOL     OW 8109   1.810   0.374   3.386
 2020SOL    HW2 8110   1.797   0.284   3.415
 2020SOL    HW3 8111   1.802   0.370   3.291
 2020SOL    MW4 8112   1.807   0.362   3.378
 2021SOL     OW 8113   2.030   0.508   3.489
 2021SOL    HW2 8114   2.032   0.599   3.461
 2021SOL    HW3 8115   1.954   0.471   3.444
 2021SOL    MW4 8116   2.020   0.515   3.479
 2022SOL     OW 8117   2.024   0.759   3.406
 2022SOL    HW2 8118   2.105   0.803   3.435
 2022SOL    HW3 8119   2.031   0.756   3.311
 2022SOL    MW4 8120   2.036   0.765   3.397
 2023SOL     OW 8121   1.790   0.885   3.466
 2023SOL    HW2 8122   1.865   0.825   3.457
 2023SOL    HW3 8123   1.716   0.836   3.432
 2023SOL    MW4 8124   1.790   0.871   3.460
 2024SOL     OW 8125   1.774   1.154   3.373
 2024SOL    HW2 8126   1.848   1.204   3.409
 2024SOL    HW3 8127   1.791   1.064   3.400
 2024SOL    MW4 8128   1.786   1.149   3.381
 2025SOL     OW 8129   2.016   1.284   3.470
 2025SOL    HW2 8130   2.008   1.295   3.564
 2025SOL    HW3 8131   2.020   1.373   3.435
 2025SOL    MW4 8132   2.016   1.297   3.477
 2026SOL     OW 8133   2.018   1.565   3.374
 2026SOL    HW2 8134   2.098   1.585   3.422
 2026SOL    HW3 8135   1.948   1.600   3.429
 2026SOL    MW4 8136   2.019   1.572   3.388
 2027SOL     OW 8137   1.783   1.669   3.505
 2027SOL    HW2 8138   1.784   1.758   3.469
 2027SOL    HW3 8139   1.699   1.633   3.478
 2027SOL    MW4 8140   1.772   1.676   3.496
 2028SOL     OW 8141   1.783   1.924   3.378
 2028SOL    HW2 8142   1.862   1.972   3.403
 2028SOL    HW3 8143   1.788   1.918   3.282
 2028SOL    MW4 8144   1.794   1.929   3.369
 2029SOL     OW 8145   2.005   2.045   3.486
 2029SOL    HW2 8146   2.085   2.019   3.440
 2029SOL    HW3 8147   1.988   2.134   3.457
 2029SOL    MW4 8148   2.013   2.053   3.476
 2030SOL     OW 8149   1.974   2.286   3.383
 2030SOL    HW2 8150   2.042   2.337   3.427
 2030SOL    HW3 8151   1.990   2.302   3.289
 2030SOL    MW4 8152   1.985   2.295   3.376
 2031SOL     OW 8153   1.784   2.469   3.481
 2031SOL    HW2 8154   1.860   2.421   3.447
 2031SOL    HW3 8155   1.709   2.416   3.456
 2031SOL    MW4 8156   1.784   2.456   3.473
 2032SOL     OW 8157   1.824   2.742   3.393
 2032SOL    HW2 8158   1.901   2.770   3.442
 2032SOL    HW3 8159   1.808   2.652   3.423
 2032SOL    MW4 8160   1.832   2.734   3.404
 2033SOL     OW 8161   2.056   2.856   3.509
 2033SOL    HW2 8162   2.045   2.857   3.604
 2033SOL    HW3 8163   2.057   2.948   3.483
 2033SOL    MW4 8164   2.054   2.868   3.518
 2034SOL     OW 8165   2.010   3.133   3.422
 2034SOL    HW2 8166   2.080   3.177   3.469
 2034SOL    HW3 8167   1.931   3.181   3.446
 2034SOL    MW4 8168   2.009   3.145   3.431
 2035SOL     OW 8169   1.776   3.256   3.508
 2035SOL    HW2 8170   1.767   3.278   3.601
 2035SOL    HW3 8171   1.785   3.341   3.465
 2035SOL    MW4 8172   1.776   3.270   3.514
 2036SOL     OW 8173   1.767   3.497   3.361
 2036SOL    HW2 8174   1.689   3.547   3.384
 2036SOL    HW3 8175   1.770   3.499   3.265
 2036SOL    MW4 8176   1.757   3.504   3.351
 2037SOL     OW 8177   2.008   3.581   3.471
 2037SOL    HW2 8178   2.085   3.538   3.435
 2037SOL    HW3 8179   1.935   3.547   3.420
 2037SOL    MW4 8180   2.008   3.571   3.460
 2038SOL     OW 8181   2.001   3.862   3.400
 2038SOL    HW2 8182   1.917   3.901   3.423
 2038SOL    HW3 8183   1.993   3.770   3.426
 2038SOL    MW4 8184   1.989   3.855   3.406
 2039SOL     OW 8185   1.770   3.996   3.474
 2039SOL    HW2 8186   1.757   4.013   3.567
 2039SOL    HW3 8187   1.685   3.965   3.443
 2039SOL    MW4 8188   1.757   3.995   3.482
 2040SOL     OW 8189   1.788   4.263   3.369
 2040SOL    HW2 8190   1.775   4.176   3.405
 2040SOL    HW3 8191   1.796   4.249   3.274
 2040SOL    MW4 8192   1.787   4.250   3.361
 2041SOL     OW 8193   2.035   4.362   3.475
 2041SOL    HW2 8194   1.949   4.336   3.441
 2041SOL    HW3 8195   2.036   4.457   3.466
 2041SOL    MW4 8196   2.024   4.371   3.469
 2042SOL     OW 8197   2.466   4.641   3.411
 2042SOL    HW2 8198   2.476   4.549   3.437
 2042SOL    HW3 8199   2.470   4.640   3.316
 2042SOL    MW4 8200   2.468   4.629   3.402
 2043SOL     OW 8201   2.248   0.109   3.496
 2043SOL    HW2 8202   2.265   0.189   3.446
 2043SOL    HW3 8203   2.326   0.054   3.480
 2043SOL    MW4 8204   2.261   0.112   3.487
 2044SOL     OW 8205   2.240   0.374   3.374
 2044SOL    HW2 8206   2.312   0.397   3.431
 2044SOL    HW3 8207   2.163   0.415   3.414
 2044SOL    MW4 8208   2.239   0.382   3.386
 2045SOL     OW 8209   2.458   0.490   3.485
 2045SOL    HW2 8210   2.539   0.449   3.456
 2045SOL    HW3 8211   2.468   0.583   3.462
 2045SOL    MW4 8212   2.470   0.497   3.478
 2046SOL     OW 8213   2.490   0.749   3.396
 2046SOL    HW2 8214   2.561   0.807   3.423
 2046SOL    HW3 8215   2.477   0.769   3.304
 2046SOL    MW4 8216   2.498   0.759   3.388
 2047SOL     OW 8217   2.257   0.875   3.501
 2047SOL    HW2 8218   2.260   0.964   3.467
 2047SOL    HW3 8219   2.334   0.832   3.464
 2047SOL    MW4 8220   2.267   0.881   3.492
 2048SOL     OW 8221   2.252   1.131   3.380
 2048SOL    HW2 8222   2.327   1.176   3.419
 2048SOL    HW3 8223   2.177   1.187   3.398
 2048SOL    MW4 8224   2.252   1.144   3.388
 2049SOL     OW 8225   2.459   1.297   3.495
 2049SOL    HW2 8226   2.460   1.296   3.591
 2049SOL    HW3 8227   2.545   1.264   3.469
 2049SOL    MW4 8228   2.470   1.292   3.504
 2050SOL     OW 8229   2.495   1.548   3.400
 2050SOL    HW2 8230   2.473   1.459   3.429
 2050SOL    HW3 8231   2.487   1.545   3.305
 2050SOL    MW4 8232   2.491   1.536   3.391
 2051SOL     OW 8233   2.255   1.655   3.491
 2051SOL    HW2 8234   2.265   1.640   3.585
 2051SOL    HW3 8235   2.335   1.618   3.453
 2051SOL    MW4 8236   2.267   1.648   3.498
 2052SOL     OW 8237   2.209   1.905   3.363
 2052SOL    HW2 8238   2.218   1.818   3.402
 2052SOL    HW3 8239   2.204   1.889   3.269
 2052SOL    MW4 8240   2.209   1.891   3.356
 2053SOL     OW 8241   2.459   2.024   3.419
 2053SOL    HW2 8242   2.472   2.029   3.513
 2053SOL    HW3 8243   2.369   1.990   3.409
 2053SOL    MW4 8244   2.449   2.020   3.430
 2054SOL     OW 8245   2.384   2.278   3.382
 2054SOL    HW2 8246   2.455   2.334   3.414
 2054SOL    HW3 8247   2.407   2.190   3.411
 2054SOL    MW4 8248   2.396   2.274   3.390
 2055SOL     OW 8249   2.177   2.403   3.507
 2055SOL    HW2 8250   2.202   2.493   3.486
 2055SOL    HW3 8251   2.245   2.349   3.466
 2055SOL    MW4 8252   2.189   2.407   3.499
 2056SOL     OW 8253   2.259   2.676   3.424
 2056SOL    HW2 8254   2.193   2.744   3.435
 2056SOL    HW3 8255   2.257   2.656   3.331
 2056SOL    MW4 8256   2.250   2.683   3.413
 2057SOL     OW 8257   2.475   2.798   3.561
 2057SOL    HW2 8258   2.467   2.883   3.518
 2057SOL    HW3 8259   2.408   2.743   3.518
 2057SOL    MW4 8260   2.465   2.802   3.550
 2058SOL     OW 8261   2.455   3.064   3.421
 2058SOL    HW2 8262   2.515   3.127   3.461
 2058SOL    HW3 8263   2.472   3.070   3.327
 2058SOL    MW4 8264   2.465   3.073   3.414
 2059SOL     OW 8265   2.237   3.247   3.501
 2059SOL    HW2 8266   2.256   3.242   3.595
 2059SOL    HW3 8267   2.296   3.183   3.461
 2059SOL    MW4 8268   2.247   3.238   3.508
 2060SOL     OW 8269   2.255   3.504   3.382
 2060SOL    HW2 8270   2.269   3.427   3.436
 2060SOL    HW3 8271   2.277   3.475   3.293
 2060SOL    MW4 8272   2.259   3.490   3.377
 2061SOL     OW 8273   2.468   3.667   3.485
 2061SOL    HW2 8274   2.487   3.751   3.444
 2061SOL    HW3 8275   2.386   3.638   3.444
 2061SOL    MW4 8276   2.460   3.674   3.475
 2062SOL     OW 8277   2.489   3.898   3.350
 2062SOL    HW2 8278   2.555   3.949   3.396
 2062SOL    HW3 8279   2.405   3.932   3.383
 2062SOL    MW4 8280   2.486   3.909   3.360
 2063SOL     OW 8281   2.249   4.013   3.461
 2063SOL    HW2 8282   2.248   4.096   3.413
 2063SOL    HW3 8283   2.173   3.965   3.428
 2063SOL    MW4 8284   2.239   4.018   3.450
 2064SOL     OW 8285   2.270   4.274   3.346
 2064SOL    HW2 8286   2.179   4.299   3.365
 2064SOL    HW3 8287   2.272   4.265   3.251
 2064SOL    MW4 8288   2.258   4.276   3.336
 2065SOL     OW 8289   2.505   4.359   3.471
 2065SOL    HW2 8290   2.505   4.364   3.567
 2065SOL    HW3 8291   2.425   4.312   3.449
 2065SOL    MW4 8292   2.495   4.354   3.481
 2066SOL     OW 8293   2.930   4.651   3.358
 2066SOL    HW2 8294   2.860   4.694   3.407
 2066SOL    HW3 8295   2.905   4.660   3.266
 2066SOL    MW4 8296   2.918   4.658   3.352
 2067SOL     OW 8297   2.706   0.099   3.476
 2067SOL    HW2 8298   2.688   0.188   3.444
 2067SOL    HW3 8299   2.633   0.046   3.444
 2067SOL    MW4 8300   2.694   0.104   3.468
 2068SOL     OW 8301   2.699   0.367   3.412
 2068SOL    HW2 8302   2.781   0.394   3.454
 2068SOL    HW3 8303   2.714   0.380   3.319
 2068SOL    MW4 8304   2.712   0.372   3.405
 2069SOL     OW 8305   2.924   0.438   3.507
 2069SOL    HW2 8306   2.920   0.434   3.603
 2069SOL    HW3 8307   2.922   0.532   3.487
 2069SOL    MW4 8308   2.923   0.450   3.517
 2070SOL     OW 8309   2.945   0.689   3.409
 2070SOL    HW2 8310   3.001   0.715   3.481
 2070SOL    HW3 8311   2.874   0.753   3.408
 2070SOL    MW4 8312   2.943   0.701   3.418
 2071SOL     OW 8313   2.733   0.890   3.444
 2071SOL    HW2 8314   2.725   0.888   3.539
 2071SOL    HW3 8315   2.725   0.983   3.421
 2071SOL    MW4 8316   2.731   0.902   3.454
 2072SOL     OW 8317   2.691   1.162   3.366
 2072SOL    HW2 8318   2.771   1.215   3.373
 2072SOL    HW3 8319   2.682   1.145   3.272
 2072SOL    MW4 8320   2.701   1.167   3.354
 2073SOL     OW 8321   2.944   1.267   3.479
 2073SOL    HW2 8322   2.931   1.274   3.573
 2073SOL    HW3 8323   2.997   1.188   3.468
 2073SOL    MW4 8324   2.949   1.258   3.490
 2074SOL     OW 8325   2.963   1.536   3.392
 2074SOL    HW2 8326   2.885   1.579   3.428
 2074SOL    HW3 8327   2.957   1.446   3.423
 2074SOL    MW4 8328   2.952   1.530   3.401
 2075SOL     OW 8329   2.725   1.647   3.488
 2075SOL    HW2 8330   2.710   1.738   3.465
 2075SOL    HW3 8331   2.647   1.601   3.458
 2075SOL    MW4 8332   2.713   1.653   3.481
 2076SOL     OW 8333   2.695   1.900   3.350
 2076SOL    HW2 8334   2.614   1.947   3.369
 2076SOL    HW3 8335   2.697   1.894   3.254
 2076SOL    MW4 8336   2.684   1.905   3.340
 2077SOL     OW 8337   2.902   2.070   3.440
 2077SOL    HW2 8338   2.893   2.072   3.535
 2077SOL    HW3 8339   2.838   2.006   3.410
 2077SOL    MW4 8340   2.892   2.062   3.448
 2078SOL     OW 8341   2.869   2.326   3.339
 2078SOL    HW2 8342   2.895   2.239   3.368
 2078SOL    HW3 8343   2.879   2.324   3.244
 2078SOL    MW4 8344   2.874   2.314   3.330
 2079SOL     OW 8345   2.654   2.446   3.462
 2079SOL    HW2 8346   2.674   2.443   3.556
 2079SOL    HW3 8347   2.733   2.411   3.420
 2079SOL    MW4 8348   2.667   2.441   3.469
 2080SOL     OW 8349   2.691   2.710   3.425
 2080SOL    HW2 8350   2.673   2.617   3.438
 2080SOL    HW3 8351   2.633   2.755   3.487
 2080SOL    MW4 8352   2.681   2.704   3.435
 2081SOL     OW 8353   2.919   2.852   3.493
 2081SOL    HW2 8354   2.918   2.865   3.587
 2081SOL    HW3 8355   2.842   2.798   3.475
 2081SOL    MW4 8356   2.909   2.847   3.503
 2082SOL     OW 8357   2.887   3.103   3.388
 2082SOL    HW2 8358   2.910   3.014   3.415
 2082SOL    HW3 8359   2.879   3.097   3.293
 2082SOL    MW4 8360   2.889   3.090   3.379
 2083SOL     OW 8361   2.662   3.248   3.513
 2083SOL    HW2 8362   2.688   3.260   3.604
 2083SOL    HW3 8363   2.729   3.190   3.476
 2083SOL    MW4 8364   2.674   3.242   3.520
 2084SOL     OW 8365   2.653   3.495   3.391
 2084SOL    HW2 8366   2.637   3.417   3.443
 2084SOL    HW3 8367   2.593   3.561   3.427
 2084SOL    MW4 8368   2.643   3.494   3.403
 2085SOL     OW 8369   2.887   3.604   3.462
 2085SOL    HW2 8370   2.883   3.691   3.422
 2085SOL    HW3 8371   2.807   3.561   3.434
 2085SOL    MW4 8372   2.876   3.610   3.453
 2086SOL     OW 8373   2.941   3.839   3.335
 2086SOL    HW2 8374   3.022   3.883   3.361
 2086SOL    HW3 8375   2.872   3.897   3.365
 2086SOL    MW4 8376   2.943   3.853   3.342
 2087SOL     OW 8377   2.737   4.001   3.449
 2087SOL    HW2 8378   2.727   4.016   3.543
 2087SOL    HW3 8379   2.724   4.088   3.410
 2087SOL    MW4 8380   2.734   4.015   3.457
 2088SOL     OW 8381   2.730   4.257   3.337
 2088SOL    HW2 8382   2.802   4.302   3.381
 2088SOL    HW3 8383   2.651   4.294   3.377
 2088SOL    MW4 8384   2.729   4.268   3.348
 2089SOL     OW 8385   2.952   4.395   3.453
 2089SOL    HW2 8386   2.936   4.397   3.548
 2089SOL    HW3 8387   2.941   4.486   3.426
 2089SOL    MW4 8388   2.948   4.407   3.462
 2090SOL     OW 8389   3.396   4.643   3.396
 2090SOL    HW2 8390   3.319   4.690   3.427
 2090SOL    HW3 8391   3.379   4.626   3.304
 2090SOL    MW4 8392   3.384   4.647   3.388
 2091SOL     OW 8393   3.156   0.060   3.475
 2091SOL    HW2 8394   3.150   0.151   3.446
 2091SOL    HW3 8395   3.081   0.017   3.434
 2091SOL    MW4 8396   3.145   0.067   3.466
 2092SOL     OW 8397   3.159   0.317   3.392
 2092SOL    HW2 8398   3.077   0.345   3.434
 2092SOL    HW3 8399   3.143   0.332   3.298
 2092SOL    MW4 8400   3.146   0.323   3.385
 2093SOL     OW 8401   3.345   0.479   3.522
 2093SOL    HW2 8402   3.344   0.477   3.617
 2093SOL    HW3 8403   3.275   0.419   3.495
 2093SOL    MW4 8404   3.336   0.471   3.531
 2094SOL     OW 8405   3.353   0.699   3.378
 2094SOL    HW2 8406   3.418   0.757   3.417
 2094SOL    HW3 8407   3.369   0.614   3.419
 2094SOL    MW4 8408   3.364   0.696   3.389
 2095SOL     OW 8409   3.165   0.834   3.524
 2095SOL    HW2 8410   3.156   0.916   3.475
 2095SOL    HW3 8411   3.224   0.781   3.470
 2095SOL    MW4 8412   3.172   0.838   3.510
 2096SOL     OW 8413   3.157   1.091   3.391
 2096SOL    HW2 8414   3.233   1.139   3.425
 2096SOL    HW3 8415   3.164   1.098   3.296
 2096SOL    MW4 8416   3.168   1.099   3.383
 2097SOL     OW 8417   3.357   1.247   3.516
 2097SOL    HW2 8418   3.449   1.230   3.496
 2097SOL    HW3 8419   3.338   1.330   3.472
 2097SOL    MW4 8420   3.367   1.256   3.508
 2098SOL     OW 8421   3.367   1.513   3.361
 2098SOL    HW2 8422   3.447   1.558   3.389
 2098SOL    HW3 8423   3.297   1.558   3.407
 2098SOL    MW4 8424   3.368   1.525   3.371
 2099SOL     OW 8425   3.164   1.664   3.531
 2099SOL    HW2 8426   3.157   1.751   3.493
 2099SOL    HW3 8427   3.089   1.616   3.495
 2099SOL    MW4 8428   3.153   1.669   3.521
 2100SOL     OW 8429   3.115   1.906   3.381
 2100SOL    HW2 8430   3.047   1.972   3.388
 2100SOL    HW3 8431   3.130   1.898   3.287
 2100SOL    MW4 8432   3.108   1.914   3.369
 2101SOL     OW 8433   3.332   2.080   3.433
 2101SOL    HW2 8434   3.319   2.169   3.401
 2101SOL    HW3 8435   3.260   2.030   3.394
 2101SOL    MW4 8436   3.321   2.085   3.424
 2102SOL     OW 8437   3.289   2.344   3.343
 2102SOL    HW2 8438   3.370   2.382   3.375
 2102SOL    HW3 8439   3.220   2.386   3.394
 2102SOL    MW4 8440   3.290   2.354   3.354
 2103SOL     OW 8441   3.082   2.445   3.501
 2103SOL    HW2 8442   3.083   2.537   3.473
 2103SOL    HW3 8443   3.011   2.406   3.451
 2103SOL    MW4 8444   3.073   2.452   3.491
 2104SOL     OW 8445   3.132   2.685   3.410
 2104SOL    HW2 8446   3.203   2.736   3.450
 2104SOL    HW3 8447   3.053   2.737   3.428
 2104SOL    MW4 8448   3.131   2.699   3.418
 2105SOL     OW 8449   3.338   2.827   3.512
 2105SOL    HW2 8450   3.418   2.804   3.465
 2105SOL    HW3 8451   3.325   2.920   3.493
 2105SOL    MW4 8452   3.347   2.836   3.503
 2106SOL     OW 8453   3.323   3.090   3.370
 2106SOL    HW2 8454   3.401   3.127   3.411
 2106SOL    HW3 8455   3.251   3.147   3.399
 2106SOL    MW4 8456   3.324   3.102   3.379
 2107SOL     OW 8457   3.127   3.225   3.495
 2107SOL    HW2 8458   3.130   3.312   3.456
 2107SOL    HW3 8459   3.044   3.188   3.464
 2107SOL    MW4 8460   3.116   3.232   3.486
 2108SOL     OW 8461   3.127   3.495   3.351
 2108SOL    HW2 8462   3.060   3.553   3.388
 2108SOL    HW3 8463   3.108   3.494   3.257
 2108SOL    MW4 8464   3.115   3.502   3.343
 2109SOL     OW 8465   3.349   3.613   3.467
 2109SOL    HW2 8466   3.373   3.701   3.438
 2109SOL    HW3 8467   3.277   3.587   3.409
 2109SOL    MW4 8468   3.342   3.621   3.456
 2110SOL     OW 8469   3.387   3.878   3.358
 2110SOL    HW2 8470   3.455   3.925   3.407
 2110SOL    HW3 8471   3.305   3.913   3.391
 2110SOL    MW4 8472   3.385   3.889   3.369
 2111SOL     OW 8473   3.150   3.970   3.445
 2111SOL    HW2 8474   3.133   3.969   3.539
 2111SOL    HW3 8475   3.145   4.062   3.420
 2111SOL    MW4 8476   3.147   3.982   3.454
 2112SOL     OW 8477   3.142   4.239   3.356
 2112SOL    HW2 8478   3.220   4.286   3.385
 2112SOL    HW3 8479   3.069   4.282   3.400
 2112SOL    MW4 8480   3.143   4.251   3.365
 2113SOL     OW 8481   3.346   4.385   3.454
 2113SOL    HW2 8482   3.342   4.381   3.549
 2113SOL    HW3 8483   3.359   4.478   3.434
 2113SOL    MW4 8484   3.347   4.397   3.464
 2114SOL     OW 8485   3.813   4.667   3.410
 2114SOL    HW2 8486   3.744   4.725   3.444
 2114SOL    HW3 8487   3.805   4.674   3.315
 2114SOL    MW4 8488   3.803   4.675   3.402
 2115SOL     OW 8489   3.581   0.139   3.526
 2115SOL    HW2 8490   3.580   0.215   3.468
 2115SOL    HW3 8491   3.511   0.082   3.492
 2115SOL    MW4 8492   3.572   0.141   3.514
 2116SOL     OW 8493   3.577   0.402   3.373
 2116SOL    HW2 8494   3.638   0.449   3.430
 2116SOL    HW3 8495   3.491   0.422   3.408
 2116SOL    MW4 8496   3.574   0.411   3.385
 2117SOL     OW 8497   3.794   0.491   3.536
 2117SOL    HW2 8498   3.791   0.486   3.631
 2117SOL    HW3 8499   3.874   0.444   3.511
 2117SOL    MW4 8500   3.804   0.484   3.545
 2118SOL     OW 8501   3.788   0.743   3.396
 2118SOL    HW2 8502   3.865   0.793   3.422
 2118SOL    HW3 8503   3.789   0.666   3.453
 2118SOL    MW4 8504   3.798   0.739   3.407
 2119SOL     OW 8505   3.542   0.863   3.488
 2119SOL    HW2 8506   3.545   0.870   3.584
 2119SOL    HW3 8507   3.625   0.822   3.465
 2119SOL    MW4 8508   3.553   0.859   3.498
 2120SOL     OW 8509   3.596   1.126   3.423
 2120SOL    HW2 8510   3.582   1.034   3.446
 2120SOL    HW3 8511   3.597   1.126   3.327
 2120SOL    MW4 8512   3.594   1.114   3.413
 2121SOL     OW 8513   3.818   1.260   3.511
 2121SOL    HW2 8514   3.817   1.248   3.606
 2121SOL    HW3 8515   3.749   1.202   3.478
 2121SOL    MW4 8516   3.809   1.250   3.519
 2122SOL     OW 8517   3.807   1.509   3.389
 2122SOL    HW2 8518   3.889   1.550   3.417
 2122SOL    HW3 8519   3.801   1.430   3.442
 2122SOL    MW4 8520   3.817   1.504   3.399
 2123SOL     OW 8521   3.568   1.661   3.469
 2123SOL    HW2 8522   3.556   1.739   3.414
 2123SOL    HW3 8523   3.657   1.632   3.451
 2123SOL    MW4 8524   3.578   1.668   3.459
 2124SOL     OW 8525   3.555   1.913   3.333
 2124SOL    HW2 8526   3.627   1.951   3.383
 2124SOL    HW3 8527   3.481   1.971   3.351
 2124SOL    MW4 8528   3.555   1.926   3.342
 2125SOL     OW 8529   3.776   2.035   3.465
 2125SOL    HW2 8530   3.769   2.031   3.561
 2125SOL    HW3 8531   3.847   1.975   3.444
 2125SOL    MW4 8532   3.785   2.027   3.475
 2126SOL     OW 8533   3.750   2.313   3.415
 2126SOL    HW2 8534   3.826   2.352   3.458
 2126SOL    HW3 8535   3.768   2.219   3.416
 2126SOL    MW4 8536   3.763   2.306   3.421
 2127SOL     OW 8537   3.520   2.439   3.484
 2127SOL    HW2 8538   3.542   2.532   3.473
 2127SOL    HW3 8539   3.600   2.393   3.458
 2127SOL    MW4 8540   3.534   2.445   3.479
 2128SOL     OW 8541   3.569   2.700   3.424
 2128SOL    HW2 8542   3.644   2.754   3.447
 2128SOL    HW3 8543   3.576   2.689   3.329
 2128SOL    MW4 8544   3.580   2.706   3.415
 2129SOL     OW 8545   3.784   2.847   3.491
 2129SOL    HW2 8546   3.800   2.832   3.584
 2129SOL    HW3 8547   3.782   2.942   3.482
 2129SOL    MW4 8548   3.786   2.857   3.502
 2130SOL     OW 8549   3.813   3.108   3.398
 2130SOL    HW2 8550   3.888   3.164   3.416
 2130SOL    HW3 8551   3.811   3.100   3.303
 2130SOL    MW4 8552   3.823   3.114   3.388
 2131SOL     OW 8553   3.570   3.208   3.474
 2131SOL    HW2 8554   3.581   3.296   3.438
 2131SOL    HW3 8555   3.656   3.167   3.465
 2131SOL    MW4 8556   3.583   3.214   3.468
 2132SOL     OW 8557   3.549   3.463   3.364
 2132SOL    HW2 8558   3.481   3.516   3.407
 2132SOL    HW3 8559   3.527   3.468   3.271
 2132SOL    MW4 8560   3.537   3.471   3.357
 2133SOL     OW 8561   3.791   3.586   3.456
 2133SOL    HW2 8562   3.808   3.580   3.550
 2133SOL    HW3 8563   3.708   3.539   3.444
 2133SOL    MW4 8564   3.783   3.579   3.467
 2134SOL     OW 8565   3.794   3.850   3.377
 2134SOL    HW2 8566   3.717   3.897   3.407
 2134SOL    HW3 8567   3.785   3.762   3.414
 2134SOL    MW4 8568   3.783   3.845   3.386
 2135SOL     OW 8569   3.592   4.012   3.459
 2135SOL    HW2 8570   3.582   3.997   3.553
 2135SOL    HW3 8571   3.586   4.106   3.448
 2135SOL    MW4 8572   3.590   4.022   3.470
 2136SOL     OW 8573   3.578   4.273   3.356
 2136SOL    HW2 8574   3.495   4.314   3.381
 2136SOL    HW3 8575   3.574   4.266   3.261
 2136SOL    MW4 8576   3.567   4.278   3.347
 2137SOL     OW 8577   3.824   4.373   3.449
 2137SOL    HW2 8578   3.744   4.337   3.410
 2137SOL    HW3 8579   3.815   4.468   3.441
 2137SOL    MW4 8580   3.812   4.381   3.443
 2138SOL     OW 8581   4.254   4.625   3.381
 2138SOL    HW2 8582   4.251   4.540   3.423
 2138SOL    HW3 8583   4.324   4.672   3.426
 2138SOL    MW4 8584   4.263   4.620   3.393
 2139SOL     OW 8585   4.035   0.091   3.499
 2139SOL    HW2 8586   4.108   0.041   3.462
 2139SOL    HW3 8587   3.957   0.044   3.469
 2139SOL    MW4 8588   4.034   0.079   3.490
 2140SOL     OW 8589   4.014   0.371   3.413
 2140SOL    HW2 8590   3.998   0.279   3.435
 2140SOL    HW3 8591   4.029   0.370   3.318
 2140SOL    MW4 8592   4.014   0.358   3.403
 2141SOL     OW 8593   4.237   0.492   3.477
 2141SOL    HW2 8594   4.228   0.585   3.456
 2141SOL    HW3 8595   4.153   0.453   3.450
 2141SOL    MW4 8596   4.225   0.499   3.470
 2142SOL     OW 8597   4.231   0.761   3.391
 2142SOL    HW2 8598   4.302   0.803   3.438
 2142SOL    HW3 8599   4.248   0.782   3.299
 2142SOL    MW4 8600   4.243   0.769   3.385
 2143SOL     OW 8601   4.015   0.890   3.487
 2143SOL    HW2 8602   4.027   0.981   3.460
 2143SOL    HW3 8603   4.089   0.843   3.450
 2143SOL    MW4 8604   4.026   0.896   3.479
 2144SOL     OW 8605   4.067   1.162   3.413
 2144SOL    HW2 8606   4.143   1.220   3.417
 2144SOL    HW3 8607   3.993   1.218   3.435
 2144SOL    MW4 8608   4.067   1.177   3.416
 2145SOL     OW 8609   4.274   1.329   3.493
 2145SOL    HW2 8610   4.293   1.417   3.460
 2145SOL    HW3 8611   4.344   1.274   3.458
 2145SOL    MW4 8612   4.286   1.333   3.484
 2146SOL     OW 8613   4.295   1.581   3.388
 2146SOL    HW2 8614   4.210   1.593   3.428
 2146SOL    HW3 8615   4.283   1.609   3.297
 2146SOL    MW4 8616   4.283   1.586   3.381
 2147SOL     OW 8617   4.039   1.616   3.487
 2147SOL    HW2 8618   4.056   1.612   3.581
 2147SOL    HW3 8619   4.019   1.708   3.470
 2147SOL    MW4 8620   4.039   1.628   3.497
 2148SOL     OW 8621   4.007   1.877   3.419
 2148SOL    HW2 8622   4.091   1.915   3.444
 2148SOL    HW3 8623   4.002   1.889   3.324
 2148SOL    MW4 8624   4.017   1.884   3.410
 2149SOL     OW 8625   4.231   2.033   3.473
 2149SOL    HW2 8626   4.206   2.119   3.438
 2149SOL    HW3 8627   4.317   2.015   3.434
 2149SOL    MW4 8628   4.239   2.042   3.463
 2150SOL     OW 8629   4.194   2.285   3.368
 2150SOL    HW2 8630   4.123   2.348   3.383
 2150SOL    HW3 8631   4.207   2.286   3.274
 2150SOL    MW4 8632   4.186   2.294   3.358
 2151SOL     OW 8633   3.998   2.452   3.467
 2151SOL    HW2 8634   4.033   2.442   3.555
 2151SOL    HW3 8635   3.996   2.547   3.452
 2151SOL    MW4 8636   4.002   2.464   3.477
 2152SOL     OW 8637   4.005   2.721   3.375
 2152SOL    HW2 8638   4.072   2.780   3.411
 2152SOL    HW3 8639   3.922   2.760   3.403
 2152SOL    MW4 8640   4.003   2.734   3.384
 2153SOL     OW 8641   4.234   2.862   3.441
 2153SOL    HW2 8642   4.223   2.860   3.536
 2153SOL    HW3 8643   4.317   2.816   3.426
 2153SOL    MW4 8644   4.244   2.856   3.451
 2154SOL     OW 8645   4.287   3.117   3.367
 2154SOL    HW2 8646   4.260   3.028   3.390
 2154SOL    HW3 8647   4.268   3.124   3.273
 2154SOL    MW4 8648   4.281   3.106   3.357
 2155SOL     OW 8649   4.046   3.252   3.433
 2155SOL    HW2 8650   4.063   3.342   3.404
 2155SOL    HW3 8651   4.127   3.206   3.413
 2155SOL    MW4 8652   4.059   3.258   3.426
 2156SOL     OW 8653   4.044   3.518   3.348
 2156SOL    HW2 8654   4.102   3.562   3.411
 2156SOL    HW3 8655   3.956   3.546   3.371
 2156SOL    MW4 8656   4.040   3.527   3.359
 2157SOL     OW 8657   4.254   3.587   3.519
 2157SOL    HW2 8658   4.265   3.581   3.614
 2157SOL    HW3 8659   4.258   3.681   3.501
 2157SOL    MW4 8660   4.256   3.599   3.529
 2158SOL     OW 8661   4.263   3.852   3.404
 2158SOL    HW2 8662   4.339   3.897   3.441
 2158SOL    HW3 8663   4.289   3.830   3.315
 2158SOL    MW4 8664   4.276   3.855   3.397
 2159SOL     OW 8665   4.032   3.993   3.477
 2159SOL    HW2 8666   4.104   3.937   3.450
 2159SOL    HW3 8667   3.953   3.944   3.453
 2159SOL    MW4 8668   4.031   3.979   3.471
 2160SOL     OW 8669   4.045   4.254   3.374
 2160SOL    HW2 8670   4.029   4.164   3.403
 2160SOL    HW3 8671   3.964   4.301   3.395
 2160SOL    MW4 8672   4.033   4.248   3.381
 2161SOL     OW 8673   4.264   4.377   3.500
 2161SOL    HW2 8674   4.265   4.362   3.594
 2161SOL    HW3 8675   4.191   4.324   3.468
 2161SOL    MW4 8676   4.255   4.368   3.508
 2162SOL     OW 8677   0.233   4.601   3.869
 2162SOL    HW2 8678   0.244   4.613   3.964
 2162SOL    HW3 8679   0.158   4.656   3.846
 2162SOL    MW4 8680   0.224   4.610   3.879
 2163SOL     OW 8681   4.485   0.078   3.824
 2163SOL    HW2 8682   4.481   0.167   3.858
 2163SOL    HW3 8683   4.464   0.086   3.731
 2163SOL    MW4 8684   4.482   0.091   3.816
 2164SOL     OW 8685   4.456   0.343   3.878
 2164SOL    HW2 8686   4.384   0.404   3.862
 2164SOL    HW3 8687   4.533   0.384   3.839
 2164SOL    MW4 8688   4.457   0.356   3.871
 2165SOL     OW 8689   0.204   0.490   3.797
 2165SOL    HW2 8690   0.184   0.579   3.825
 2165SOL    HW3 8691   0.208   0.495   3.701
 2165SOL    MW4 8692   0.202   0.503   3.788
 2166SOL     OW 8693   0.191   0.767   3.875
 2166SOL    HW2 8694   0.192   0.792   3.967
 2166SOL    HW3 8695   0.117   0.815   3.837
 2166SOL    MW4 8696   0.182   0.777   3.882
 2167SOL     OW 8697   4.469   0.905   3.791
 2167SOL    HW2 8698   4.403   0.858   3.842
 2167SOL    HW3 8699   4.477   0.990   3.834
 2167SOL    MW4 8700   4.461   0.910   3.803
 2168SOL     OW 8701   4.484   1.159   3.904
 2168SOL    HW2 8702   4.410   1.212   3.877
 2168SOL    HW3 8703   4.561   1.200   3.863
 2168SOL    MW4 8704   4.485   1.171   3.895
 2169SOL     OW 8705   0.247   1.304   3.745
 2169SOL    HW2 8706   0.239   1.391   3.782
 2169SOL    HW3 8707   0.239   1.317   3.651
 2169SOL    MW4 8708   0.245   1.317   3.737
 2170SOL     OW 8709   0.208   1.552   3.881
 2170SOL    HW2 8710   0.183   1.526   3.969
 2170SOL    HW3 8711   0.133   1.601   3.847
 2170SOL    MW4 8712   0.195   1.555   3.888
 2171SOL     OW 8713   4.474   1.686   3.766
 2171SOL    HW2 8714   4.468   1.782   3.772
 2171SOL    HW3 8715   4.465   1.667   3.673
 2171SOL    MW4 8716   4.472   1.697   3.755
 2172SOL     OW 8717   4.442   1.966   3.828
 2172SOL    HW2 8718   4.427   1.957   3.922
 2172SOL    HW3 8719   4.357   1.994   3.793
 2172SOL    MW4 8720   4.429   1.969   3.836
 2173SOL     OW 8721   0.180   2.062   3.715
 2173SOL    HW2 8722   0.194   2.146   3.758
 2173SOL    HW3 8723   0.088   2.042   3.729
 2173SOL    MW4 8724   0.170   2.070   3.722
 2174SOL     OW 8725   0.223   2.313   3.838
 2174SOL    HW2 8726   0.228   2.333   3.931
 2174SOL    HW3 8727   0.141   2.353   3.809
 2174SOL    MW4 8728   0.213   2.321   3.846
 2175SOL     OW 8729   0.021   2.452   3.704
 2175SOL    HW2 8730  -0.060   2.406   3.725
 2175SOL    HW3 8731   0.012   2.537   3.746
 2175SOL    MW4 8732   0.009   2.457   3.712
 2176SOL     OW 8733   4.436   2.711   3.838
 2176SOL    HW2 8734   4.425   2.691   3.931
 2176SOL    HW3 8735   4.512   2.768   3.834
 2176SOL    MW4 8736   4.444   2.716   3.850
 2177SOL     OW 8737   0.174   2.868   3.828
 2177SOL    HW2 8738   0.255   2.820   3.839
 2177SOL    HW3 8739   0.160   2.869   3.733
 2177SOL    MW4 8740   0.183   2.862   3.817
 2178SOL     OW 8741   0.181   3.118   3.943
 2178SOL    HW2 8742   0.180   3.126   4.038
 2178SOL    HW3 8743   0.184   3.024   3.926
 2178SOL    MW4 8744   0.181   3.106   3.953
 2179SOL     OW 8745   4.484   3.268   3.808
 2179SOL    HW2 8746   4.536   3.207   3.860
 2179SOL    HW3 8747   4.511   3.252   3.718
 2179SOL    MW4 8748   4.494   3.258   3.803
 2180SOL     OW 8749   0.027   3.502   3.965
 2180SOL    HW2 8750   0.097   3.543   3.914
 2180SOL    HW3 8751   0.023   3.412   3.933
 2180SOL    MW4 8752   0.035   3.496   3.954
 2181SOL     OW 8753   0.229   3.629   3.811
 2181SOL    HW2 8754   0.295   3.587   3.867
 2181SOL    HW3 8755   0.230   3.721   3.837
 2181SOL    MW4 8756   0.238   3.635   3.822
 2182SOL     OW 8757   0.207   3.896   3.900
 2182SOL    HW2 8758   0.196   3.928   3.989
 2182SOL    HW3 8759   0.287   3.937   3.869
 2182SOL    MW4 8760   0.216   3.905   3.908
 2183SOL     OW 8761   4.473   3.997   3.788
 2183SOL    HW2 8762   4.402   3.936   3.812
 2183SOL    HW3 8763   4.553   3.953   3.816
 2183SOL    MW4 8764   4.474   3.983   3.795
 2184SOL     OW 8765   4.490   4.258   3.893
 2184SOL    HW2 8766   4.572   4.291   3.854
 2184SOL    HW3 8767   4.482   4.169   3.859
 2184SOL    MW4 8768   4.500   4.251   3.883
 2185SOL     OW 8769   0.230   4.344   3.787
 2185SOL    HW2 8770   0.308   4.308   3.829
 2185SOL    HW3 8771   0.234   4.438   3.804
 2185SOL    MW4 8772   0.241   4.351   3.795
 2186SOL     OW 8773   0.678   0.005   3.911
 2186SOL    HW2 8774   0.681  -0.090   3.895
 2186SOL    HW3 8775   0.592   0.032   3.879
 2186SOL    MW4 8776   0.667  -0.004   3.905
 2187SOL     OW 8777   0.435   0.091   3.780
 2187SOL    HW2 8778   0.412   0.163   3.838
 2187SOL    HW3 8779   0.376   0.020   3.805
 2187SOL    MW4 8780   0.424   0.091   3.791
 2188SOL     OW 8781   0.416   0.329   3.907
 2188SOL    HW2 8782   0.498   0.367   3.876
 2188SOL    HW3 8783   0.349   0.395   3.885
 2188SOL    MW4 8784   0.418   0.343   3.900
 2189SOL     OW 8785   0.643   0.472   3.806
 2189SOL    HW2 8786   0.736   0.455   3.794
 2189SOL    HW3 8787   0.638   0.567   3.818
 2189SOL    MW4 8788   0.655   0.482   3.806
 2190SOL     OW 8789   0.629   0.743   3.850
 2190SOL    HW2 8790   0.699   0.783   3.798
 2190SOL    HW3 8791   0.550   0.788   3.823
 2190SOL    MW4 8792   0.628   0.754   3.840
 2191SOL     OW 8793   0.408   0.860   3.764
 2191SOL    HW2 8794   0.417   0.948   3.801
 2191SOL    HW3 8795   0.330   0.825   3.807
 2191SOL    MW4 8796   0.399   0.867   3.775
 2192SOL     OW 8797   0.454   1.124   3.855
 2192SOL    HW2 8798   0.528   1.179   3.829
 2192SOL    HW3 8799   0.376   1.174   3.831
 2192SOL    MW4 8800   0.454   1.138   3.849
 2193SOL     OW 8801   0.671   1.279   3.754
 2193SOL    HW2 8802   0.757   1.240   3.769
 2193SOL    HW3 8803   0.668   1.295   3.660
 2193SOL    MW4 8804   0.682   1.276   3.743
 2194SOL     OW 8805   0.652   1.532   3.843
 2194SOL    HW2 8806   0.732   1.563   3.801
 2194SOL    HW3 8807   0.645   1.440   3.818
 2194SOL    MW4 8808   0.662   1.524   3.834
 2195SOL     OW 8809   0.427   1.671   3.747
 2195SOL    HW2 8810   0.509   1.629   3.774
 2195SOL    HW3 8811   0.360   1.629   3.801
 2195SOL    MW4 8812   0.429   1.660   3.758
 2196SOL     OW 8813   0.393   1.940   3.848
 2196SOL    HW2 8814   0.386   1.847   3.825
 2196SOL    HW3 8815   0.317   1.981   3.806
 2196SOL    MW4 8816   0.382   1.933   3.839
 2197SOL     OW 8817   0.640   2.035   3.752
 2197SOL    HW2 8818   0.620   2.128   3.760
 2197SOL    HW3 8819   0.566   1.991   3.794
 2197SOL    MW4 8820   0.627   2.041   3.758
 2198SOL     OW 8821   0.637   2.303   3.831
 2198SOL    HW2 8822   0.720   2.349   3.823
 2198SOL    HW3 8823   0.571   2.366   3.803
 2198SOL    MW4 8824   0.639   2.317   3.826
 2199SOL     OW 8825   0.432   2.457   3.737
 2199SOL    HW2 8826   0.352   2.410   3.760
 2199SOL    HW3 8827   0.443   2.441   3.643
 2199SOL    MW4 8828   0.423   2.448   3.727
 2200SOL     OW 8829   0.404   2.708   3.859
 2200SOL    HW2 8830   0.479   2.745   3.813
 2200SOL    HW3 8831   0.407   2.615   3.837
 2200SOL    MW4 8832   0.415   2.700   3.850
 2201SOL     OW 8833   0.635   2.840   3.774
 2201SOL    HW2 8834   0.714   2.789   3.789
 2201SOL    HW3 8835   0.624   2.841   3.679
 2201SOL    MW4 8836   0.644   2.833   3.764
 2202SOL     OW 8837   0.622   3.100   3.908
 2202SOL    HW2 8838   0.634   3.108   4.003
 2202SOL    HW3 8839   0.647   3.010   3.888
 2202SOL    MW4 8840   0.627   3.089   3.918
 2203SOL     OW 8841   0.414   3.235   3.782
 2203SOL    HW2 8842   0.486   3.179   3.814
 2203SOL    HW3 8843   0.337   3.204   3.830
 2203SOL    MW4 8844   0.414   3.224   3.793
 2204SOL     OW 8845   0.436   3.481   3.926
 2204SOL    HW2 8846   0.523   3.522   3.920
 2204SOL    HW3 8847   0.442   3.403   3.872
 2204SOL    MW4 8848   0.448   3.476   3.918
 2205SOL     OW 8849   0.689   3.603   3.867
 2205SOL    HW2 8850   0.658   3.693   3.873
 2205SOL    HW3 8851   0.700   3.589   3.773
 2205SOL    MW4 8852   0.686   3.613   3.855
 2206SOL     OW 8853   0.654   3.873   3.949
 2206SOL    HW2 8854   0.672   3.874   4.043
 2206SOL    HW3 8855   0.717   3.935   3.912
 2206SOL    MW4 8856   0.665   3.882   3.957
 2207SOL     OW 8857   0.443   4.002   3.813
 2207SOL    HW2 8858   0.515   3.945   3.840
 2207SOL    HW3 8859   0.452   4.007   3.718
 2207SOL    MW4 8860   0.454   3.995   3.804
 2208SOL     OW 8861   0.461   4.257   3.931
 2208SOL    HW2 8862   0.527   4.307   3.884
 2208SOL    HW3 8863   0.458   4.173   3.885
 2208SOL    MW4 8864   0.469   4.252   3.919
 2209SOL     OW 8865   0.683   4.411   3.820
 2209SOL    HW2 8866   0.765   4.367   3.844
 2209SOL    HW3 8867   0.685   4.417   3.725
 2209SOL    MW4 8868   0.694   4.406   3.811
 2210SOL     OW 8869   1.136   0.018   3.895
 2210SOL    HW2 8870   1.196   0.071   3.841
 2210SOL    HW3 8871   1.145  -0.071   3.860
 2210SOL    MW4 8872   1.145   0.013   3.883
 2211SOL     OW 8873   0.886   0.109   3.761
 2211SOL    HW2 8874   0.969   0.085   3.802
 2211SOL    HW3 8875   0.820   0.062   3.810
 2211SOL    MW4 8876   0.888   0.100   3.773
 2212SOL     OW 8877   0.902   0.392   3.811
 2212SOL    HW2 8878   0.909   0.395   3.907
 2212SOL    HW3 8879   0.897   0.298   3.791
 2212SOL    MW4 8880   0.902   0.380   3.821
 2213SOL     OW 8881   1.140   0.537   3.758
 2213SOL    HW2 8882   1.218   0.501   3.801
 2213SOL    HW3 8883   1.067   0.488   3.796
 2213SOL    MW4 8884   1.141   0.526   3.769
 2214SOL     OW 8885   1.126   0.794   3.836
 2214SOL    HW2 8886   1.118   0.799   3.932
 2214SOL    HW3 8887   1.122   0.701   3.816
 2214SOL    MW4 8888   1.124   0.783   3.846
 2215SOL     OW 8889   0.866   0.868   3.753
 2215SOL    HW2 8890   0.960   0.856   3.765
 2215SOL    HW3 8891   0.855   0.883   3.660
 2215SOL    MW4 8892   0.877   0.869   3.743
 2216SOL     OW 8893   0.899   1.145   3.828
 2216SOL    HW2 8894   0.933   1.164   3.915
 2216SOL    HW3 8895   0.889   1.050   3.826
 2216SOL    MW4 8896   0.902   1.135   3.839
 2217SOL     OW 8897   1.114   1.289   3.754
 2217SOL    HW2 8898   1.102   1.379   3.783
 2217SOL    HW3 8899   1.032   1.245   3.777
 2217SOL    MW4 8900   1.102   1.295   3.761
 2218SOL     OW 8901   1.078   1.546   3.825
 2218SOL    HW2 8902   1.079   1.535   3.920
 2218SOL    HW3 8903   1.157   1.597   3.806
 2218SOL    MW4 8904   1.089   1.551   3.835
 2219SOL     OW 8905   0.865   1.684   3.730
 2219SOL    HW2 8906   0.939   1.648   3.778
 2219SOL    HW3 8907   0.884   1.665   3.638
 2219SOL    MW4 8908   0.877   1.677   3.724
 2220SOL     OW 8909   0.874   1.961   3.858
 2220SOL    HW2 8910   0.876   1.878   3.812
 2220SOL    HW3 8911   0.786   1.995   3.842
 2220SOL    MW4 8912   0.863   1.955   3.849
 2221SOL     OW 8913   1.111   2.080   3.731
 2221SOL    HW2 8914   1.020   2.064   3.756
 2221SOL    HW3 8915   1.109   2.088   3.636
 2221SOL    MW4 8916   1.098   2.079   3.722
 2222SOL     OW 8917   1.137   2.348   3.839
 2222SOL    HW2 8918   1.149   2.326   3.932
 2222SOL    HW3 8919   1.123   2.263   3.797
 2222SOL    MW4 8920   1.137   2.334   3.846
 2223SOL     OW 8921   0.895   2.445   3.771
 2223SOL    HW2 8922   0.892   2.531   3.813
 2223SOL    HW3 8923   0.985   2.416   3.784
 2223SOL    MW4 8924   0.907   2.453   3.778
 2224SOL     OW 8925   0.891   2.708   3.874
 2224SOL    HW2 8926   0.895   2.698   3.969
 2224SOL    HW3 8927   0.974   2.750   3.850
 2224SOL    MW4 8928   0.902   2.713   3.883
 2225SOL     OW 8929   1.105   2.824   3.738
 2225SOL    HW2 8930   1.188   2.779   3.756
 2225SOL    HW3 8931   1.122   2.915   3.761
 2225SOL    MW4 8932   1.118   2.830   3.743
 2226SOL     OW 8933   1.115   3.087   3.825
 2226SOL    HW2 8934   1.182   3.139   3.780
 2226SOL    HW3 8935   1.032   3.128   3.799
 2226SOL    MW4 8936   1.113   3.099   3.815
 2227SOL     OW 8937   0.880   3.213   3.801
 2227SOL    HW2 8938   0.806   3.167   3.841
 2227SOL    HW3 8939   0.868   3.202   3.707
 2227SOL    MW4 8940   0.869   3.206   3.794
 2228SOL     OW 8941   0.937   3.473   3.892
 2228SOL    HW2 8942   0.903   3.391   3.857
 2228SOL    HW3 8943   0.859   3.528   3.905
 2228SOL    MW4 8944   0.922   3.470   3.889
 2229SOL     OW 8945   1.141   3.626   3.781
 2229SOL    HW2 8946   1.110   3.712   3.810
 2229SOL    HW3 8947   1.077   3.564   3.815
 2229SOL    MW4 8948   1.129   3.629   3.789
 2230SOL     OW 8949   1.067   3.882   3.881
 2230SOL    HW2 8950   1.091   3.848   3.967
 2230SOL    HW3 8951   1.147   3.922   3.848
 2230SOL    MW4 8952   1.081   3.883   3.888
 2231SOL     OW 8953   0.821   4.027   3.817
 2231SOL    HW2 8954   0.898   3.979   3.848
 2231SOL    HW3 8955   0.835   4.035   3.723
 2231SOL    MW4 8956   0.833   4.022   3.809
 2232SOL     OW 8957   0.901   4.269   3.916
 2232SOL    HW2 8958   0.911   4.260   4.011
 2232SOL    HW3 8959   0.889   4.180   3.885
 2232SOL    MW4 8960   0.901   4.256   3.925
 2233SOL     OW 8961   1.121   4.414   3.793
 2233SOL    HW2 8962   1.054   4.354   3.825
 2233SOL    HW3 8963   1.124   4.399   3.699
 2233SOL    MW4 8964   1.113   4.404   3.785
 2234SOL     OW 8965   1.538   0.005   3.877
 2234SOL    HW2 8966   1.547  -0.011   3.971
 2234SOL    HW3 8967   1.543  -0.082   3.838
 2234SOL    MW4 8968   1.540  -0.009   3.884
 2235SOL     OW 8969   1.334   0.145   3.748
 2235SOL    HW2 8970   1.337   0.238   3.769
 2235SOL    HW3 8971   1.408   0.107   3.797
 2235SOL    MW4 8972   1.344   0.152   3.758
 2236SOL     OW 8973   1.389   0.413   3.842
 2236SOL    HW2 8974   1.392   0.392   3.936
 2236SOL    HW3 8975   1.454   0.481   3.830
 2236SOL    MW4 8976   1.398   0.419   3.853
 2237SOL     OW 8977   1.595   0.589   3.773
 2237SOL    HW2 8978   1.662   0.532   3.812
 2237SOL    HW3 8979   1.619   0.677   3.801
 2237SOL    MW4 8980   1.607   0.593   3.782
 2238SOL     OW 8981   1.604   0.838   3.876
 2238SOL    HW2 8982   1.666   0.892   3.827
 2238SOL    HW3 8983   1.518   0.862   3.840
 2238SOL    MW4 8984   1.600   0.848   3.865
 2239SOL     OW 8985   1.365   0.896   3.742
 2239SOL    HW2 8986   1.356   0.986   3.771
 2239SOL    HW3 8987   1.282   0.854   3.766
 2239SOL    MW4 8988   1.353   0.902   3.749
 2240SOL     OW 8989   1.329   1.165   3.843
 2240SOL    HW2 8990   1.404   1.215   3.811
 2240SOL    HW3 8991   1.253   1.201   3.797
 2240SOL    MW4 8992   1.329   1.176   3.833
 2241SOL     OW 8993   1.540   1.315   3.749
 2241SOL    HW2 8994   1.616   1.267   3.782
 2241SOL    HW3 8995   1.535   1.394   3.803
 2241SOL    MW4 8996   1.549   1.319   3.760
 2242SOL     OW 8997   1.501   1.563   3.887
 2242SOL    HW2 8998   1.495   1.574   3.982
 2242SOL    HW3 8999   1.575   1.619   3.862
 2242SOL    MW4 9000   1.510   1.572   3.897
 2243SOL     OW 9001   1.302   1.679   3.755
 2243SOL    HW2 9002   1.317   1.773   3.771
 2243SOL    HW3 9003   1.368   1.635   3.808
 2243SOL    MW4 9004   1.313   1.686   3.764
 2244SOL     OW 9005   1.346   1.947   3.809
 2244SOL    HW2 9006   1.344   1.945   3.905
 2244SOL    HW3 9007   1.264   1.989   3.784
 2244SOL    MW4 9008   1.335   1.952   3.818
 2245SOL     OW 9009   1.581   2.089   3.733
 2245SOL    HW2 9010   1.508   2.032   3.756
 2245SOL    HW3 9011   1.582   2.090   3.638
 2245SOL    MW4 9012   1.572   2.081   3.724
 2246SOL     OW 9013   1.608   2.335   3.858
 2246SOL    HW2 9014   1.689   2.372   3.822
 2246SOL    HW3 9015   1.608   2.244   3.829
 2246SOL    MW4 9016   1.619   2.328   3.849
 2247SOL     OW 9017   1.376   2.457   3.757
 2247SOL    HW2 9018   1.448   2.406   3.794
 2247SOL    HW3 9019   1.298   2.422   3.799
 2247SOL    MW4 9020   1.376   2.446   3.768
 2248SOL     OW 9021   1.339   2.739   3.834
 2248SOL    HW2 9022   1.325   2.749   3.928
 2248SOL    HW3 9023   1.364   2.648   3.823
 2248SOL    MW4 9024   1.340   2.729   3.845
 2249SOL     OW 9025   1.592   2.858   3.785
 2249SOL    HW2 9026   1.506   2.819   3.795
 2249SOL    HW3 9027   1.595   2.886   3.693
 2249SOL    MW4 9028   1.581   2.856   3.774
 2250SOL     OW 9029   1.563   3.107   3.887
 2250SOL    HW2 9030   1.555   3.111   3.982
 2250SOL    HW3 9031   1.576   3.014   3.867
 2250SOL    MW4 9032   1.564   3.095   3.897
 2251SOL     OW 9033   1.346   3.226   3.752
 2251SOL    HW2 9034   1.344   3.312   3.794
 2251SOL    HW3 9035   1.416   3.179   3.797
 2251SOL    MW4 9036   1.355   3.231   3.764
 2252SOL     OW 9037   1.380   3.487   3.835
 2252SOL    HW2 9038   1.461   3.521   3.798
 2252SOL    HW3 9039   1.312   3.544   3.801
 2252SOL    MW4 9040   1.382   3.499   3.826
 2253SOL     OW 9041   1.591   3.615   3.719
 2253SOL    HW2 9042   1.664   3.592   3.776
 2253SOL    HW3 9043   1.560   3.699   3.753
 2253SOL    MW4 9044   1.597   3.623   3.731
 2254SOL     OW 9045   1.530   3.853   3.842
 2254SOL    HW2 9046   1.536   3.870   3.936
 2254SOL    HW3 9047   1.446   3.892   3.816
 2254SOL    MW4 9048   1.520   3.860   3.851
 2255SOL     OW 9049   1.311   4.033   3.770
 2255SOL    HW2 9050   1.337   4.120   3.798
 2255SOL    HW3 9051   1.330   4.030   3.677
 2255SOL    MW4 9052   1.317   4.044   3.762
 2256SOL     OW 9053   1.356   4.292   3.895
 2256SOL    HW2 9054   1.430   4.339   3.855
 2256SOL    HW3 9055   1.279   4.339   3.865
 2256SOL    MW4 9056   1.356   4.304   3.886
 2257SOL     OW 9057   1.566   4.426   3.772
 2257SOL    HW2 9058   1.637   4.364   3.791
 2257SOL    HW3 9059   1.564   4.431   3.677
 2257SOL    MW4 9060   1.575   4.418   3.762
 2258SOL     OW 9061   1.977   4.639   3.872
 2258SOL    HW2 9062   2.060   4.674   3.841
 2258SOL    HW3 9063   1.971   4.552   3.832
 2258SOL    MW4 9064   1.987   4.632   3.863
 2259SOL     OW 9065   1.772   0.109   3.779
 2259SOL    HW2 9066   1.849   0.056   3.802
 2259SOL    HW3 9067   1.698   0.057   3.812
 2259SOL    MW4 9068   1.772   0.095   3.787
 2260SOL     OW 9069   1.756   0.384   3.860
 2260SOL    HW2 9070   1.753   0.370   3.954
 2260SOL    HW3 9071   1.766   0.296   3.822
 2260SOL    MW4 9072   1.757   0.371   3.867
 2261SOL     OW 9073   2.015   0.461   3.776
 2261SOL    HW2 9074   1.925   0.438   3.798
 2261SOL    HW3 9075   2.021   0.449   3.681
 2261SOL    MW4 9076   2.004   0.456   3.766
 2262SOL     OW 9077   1.993   0.735   3.850
 2262SOL    HW2 9078   1.997   0.734   3.946
 2262SOL    HW3 9079   2.013   0.645   3.824
 2262SOL    MW4 9080   1.996   0.723   3.859
 2263SOL     OW 9081   1.827   0.935   3.745
 2263SOL    HW2 9082   1.872   0.856   3.775
 2263SOL    HW3 9083   1.823   0.925   3.649
 2263SOL    MW4 9084   1.833   0.923   3.736
 2264SOL     OW 9085   1.758   1.180   3.846
 2264SOL    HW2 9086   1.786   1.182   3.938
 2264SOL    HW3 9087   1.779   1.091   3.817
 2264SOL    MW4 9088   1.764   1.168   3.854
 2265SOL     OW 9089   1.985   1.314   3.744
 2265SOL    HW2 9090   2.063   1.262   3.763
 2265SOL    HW3 9091   1.912   1.257   3.767
 2265SOL    MW4 9092   1.986   1.300   3.749
 2266SOL     OW 9093   1.990   1.578   3.833
 2266SOL    HW2 9094   1.901   1.609   3.817
 2266SOL    HW3 9095   1.990   1.488   3.803
 2266SOL    MW4 9096   1.979   1.571   3.827
 2267SOL     OW 9097   1.720   1.695   3.781
 2267SOL    HW2 9098   1.761   1.780   3.797
 2267SOL    HW3 9099   1.735   1.678   3.688
 2267SOL    MW4 9100   1.728   1.704   3.771
 2268SOL     OW 9101   1.822   1.928   3.850
 2268SOL    HW2 9102   1.839   1.957   3.940
 2268SOL    HW3 9103   1.755   1.988   3.818
 2268SOL    MW4 9104   1.816   1.940   3.858
 2269SOL     OW 9105   2.034   2.094   3.772
 2269SOL    HW2 9106   1.961   2.033   3.784
 2269SOL    HW3 9107   2.045   2.099   3.677
 2269SOL    MW4 9108   2.026   2.087   3.761
 2270SOL     OW 9109   2.082   2.352   3.901
 2270SOL    HW2 9110   2.009   2.400   3.863
 2270SOL    HW3 9111   2.084   2.268   3.855
 2270SOL    MW4 9112   2.073   2.347   3.890
 2271SOL     OW 9113   1.847   2.466   3.744
 2271SOL    HW2 9114   1.842   2.557   3.773
 2271SOL    HW3 9115   1.835   2.470   3.649
 2271SOL    MW4 9116   1.844   2.478   3.736
 2272SOL     OW 9117   1.805   2.710   3.862
 2272SOL    HW2 9118   1.811   2.717   3.957
 2272SOL    HW3 9119   1.717   2.742   3.841
 2272SOL    MW4 9120   1.794   2.715   3.872
 2273SOL     OW 9121   2.029   2.856   3.789
 2273SOL    HW2 9122   2.089   2.831   3.860
 2273SOL    HW3 9123   1.950   2.803   3.805
 2273SOL    MW4 9124   2.026   2.846   3.801
 2274SOL     OW 9125   1.997   3.132   3.793
 2274SOL    HW2 9126   1.995   3.038   3.778
 2274SOL    HW3 9127   2.089   3.151   3.809
 2274SOL    MW4 9128   2.009   3.122   3.793
 2275SOL     OW 9129   1.780   3.289   3.774
 2275SOL    HW2 9130   1.857   3.233   3.776
 2275SOL    HW3 9131   1.714   3.241   3.824
 2275SOL    MW4 9132   1.782   3.275   3.781
 2276SOL     OW 9133   1.790   3.540   3.900
 2276SOL    HW2 9134   1.865   3.582   3.857
 2276SOL    HW3 9135   1.797   3.448   3.876
 2276SOL    MW4 9136   1.801   3.534   3.891
 2277SOL     OW 9137   2.035   3.632   3.754
 2277SOL    HW2 9138   2.100   3.572   3.789
 2277SOL    HW3 9139   2.027   3.608   3.662
 2277SOL    MW4 9140   2.042   3.621   3.746
 2278SOL     OW 9141   2.002   3.878   3.878
 2278SOL    HW2 9142   2.057   3.935   3.824
 2278SOL    HW3 9143   2.005   3.793   3.834
 2278SOL    MW4 9144   2.010   3.874   3.865
 2279SOL     OW 9145   1.761   4.020   3.761
 2279SOL    HW2 9146   1.837   3.963   3.774
 2279SOL    HW3 9147   1.687   3.969   3.794
 2279SOL    MW4 9148   1.761   4.006   3.767
 2280SOL     OW 9149   1.800   4.274   3.872
 2280SOL    HW2 9150   1.878   4.304   3.825
 2280SOL    HW3 9151   1.775   4.193   3.828
 2280SOL    MW4 9152   1.807   4.268   3.860
 2281SOL     OW 9153   2.034   4.384   3.754
 2281SOL    HW2 9154   2.101   4.334   3.800
 2281SOL    HW3 9155   2.049   4.365   3.661
 2281SOL    MW4 9156   2.045   4.375   3.747
 2282SOL     OW 9157   2.466   4.636   3.850
 2282SOL    HW2 9158   2.466   4.651   3.945
 2282SOL    HW3 9159   2.549   4.673   3.820
 2282SOL    MW4 9160   2.477   4.643   3.859
 2283SOL     OW 9161   2.218   0.079   3.779
 2283SOL    HW2 9162   2.297   0.031   3.805
 2283SOL    HW3 9163   2.223   0.082   3.683
 2283SOL    MW4 9164   2.229   0.073   3.770
 2284SOL     OW 9165   2.252   0.330   3.851
 2284SOL    HW2 9166   2.236   0.238   3.830
 2284SOL    HW3 9167   2.168   0.373   3.833
 2284SOL    MW4 9168   2.239   0.324   3.846
 2285SOL     OW 9169   2.432   0.523   3.765
 2285SOL    HW2 9170   2.371   0.453   3.788
 2285SOL    HW3 9171   2.445   0.514   3.671
 2285SOL    MW4 9172   2.425   0.513   3.756
 2286SOL     OW 9173   2.467   0.783   3.852
 2286SOL    HW2 9174   2.379   0.815   3.833
 2286SOL    HW3 9175   2.464   0.690   3.828
 2286SOL    MW4 9176   2.455   0.775   3.846
 2287SOL     OW 9177   2.217   0.875   3.784
 2287SOL    HW2 9178   2.136   0.832   3.810
 2287SOL    HW3 9179   2.226   0.855   3.691
 2287SOL    MW4 9180   2.208   0.866   3.775
 2288SOL     OW 9181   2.186   1.146   3.826
 2288SOL    HW2 9182   2.193   1.150   3.922
 2288SOL    HW3 9183   2.194   1.053   3.805
 2288SOL    MW4 9184   2.188   1.135   3.836
 2289SOL     OW 9185   2.442   1.266   3.760
 2289SOL    HW2 9186   2.449   1.341   3.819
 2289SOL    HW3 9187   2.364   1.219   3.791
 2289SOL    MW4 9188   2.432   1.270   3.772
 2290SOL     OW 9189   2.451   1.521   3.921
 2290SOL    HW2 9190   2.534   1.549   3.883
 2290SOL    HW3 9191   2.385   1.574   3.877
 2290SOL    MW4 9192   2.453   1.531   3.910
 2291SOL     OW 9193   2.248   1.654   3.777
 2291SOL    HW2 9194   2.239   1.747   3.800
 2291SOL    HW3 9195   2.161   1.618   3.795
 2291SOL    MW4 9196   2.235   1.662   3.783
 2292SOL     OW 9197   2.267   1.937   3.838
 2292SOL    HW2 9198   2.281   1.952   3.931
 2292SOL    HW3 9199   2.197   1.998   3.815
 2292SOL    MW4 9200   2.260   1.947   3.847
 2293SOL     OW 9201   2.498   2.038   3.697
 2293SOL    HW2 9202   2.516   2.119   3.746
 2293SOL    HW3 9203   2.422   2.000   3.741
 2293SOL    MW4 9204   2.490   2.044   3.709
 2294SOL     OW 9205   2.530   2.297   3.843
 2294SOL    HW2 9206   2.588   2.370   3.823
 2294SOL    HW3 9207   2.445   2.324   3.809
 2294SOL    MW4 9208   2.526   2.310   3.836
 2295SOL     OW 9209   2.309   2.409   3.747
 2295SOL    HW2 9210   2.239   2.389   3.809
 2295SOL    HW3 9211   2.265   2.427   3.665
 2295SOL    MW4 9212   2.294   2.409   3.745
 2296SOL     OW 9213   2.214   2.714   3.974
 2296SOL    HW2 9214   2.220   2.776   4.047
 2296SOL    HW3 9215   2.191   2.631   4.015
 2296SOL    MW4 9216   2.212   2.711   3.989
 2297SOL     OW 9217   2.453   2.829   3.839
 2297SOL    HW2 9218   2.384   2.770   3.867
 2297SOL    HW3 9219   2.466   2.809   3.746
 2297SOL    MW4 9220   2.446   2.819   3.830
 2298SOL     OW 9221   2.477   3.095   3.910
 2298SOL    HW2 9222   2.455   3.093   4.004
 2298SOL    HW3 9223   2.466   3.005   3.881
 2298SOL    MW4 9224   2.472   3.083   3.919
 2299SOL     OW 9225   2.266   3.234   3.787
 2299SOL    HW2 9226   2.268   3.325   3.815
 2299SOL    HW3 9227   2.345   3.195   3.825
 2299SOL    MW4 9228   2.276   3.241   3.796
 2300SOL     OW 9229   2.249   3.508   3.855
 2300SOL    HW2 9230   2.242   3.529   3.948
 2300SOL    HW3 9231   2.316   3.568   3.822
 2300SOL    MW4 9232   2.257   3.519   3.863
 2301SOL     OW 9233   2.465   3.662   3.786
 2301SOL    HW2 9234   2.541   3.608   3.810
 2301SOL    HW3 9235   2.470   3.669   3.691
 2301SOL    MW4 9236   2.476   3.656   3.777
 2302SOL     OW 9237   2.457   3.916   3.881
 2302SOL    HW2 9238   2.526   3.962   3.835
 2302SOL    HW3 9239   2.463   3.826   3.850
 2302SOL    MW4 9240   2.467   3.910   3.871
 2303SOL     OW 9241   2.220   4.014   3.737
 2303SOL    HW2 9242   2.286   3.955   3.773
 2303SOL    HW3 9243   2.244   4.023   3.645
 2303SOL    MW4 9244   2.232   4.007   3.729
 2304SOL     OW 9245   2.246   4.256   3.885
 2304SOL    HW2 9246   2.233   4.236   3.978
 2304SOL    HW3 9247   2.230   4.172   3.841
 2304SOL    MW4 9248   2.242   4.242   3.892
 2305SOL     OW 9249   2.474   4.375   3.747
 2305SOL    HW2 9250   2.401   4.326   3.785
 2305SOL    HW3 9251   2.464   4.464   3.782
 2305SOL    MW4 9252   2.463   4.380   3.757
 2306SOL     OW 9253   2.862   4.610   3.859
 2306SOL    HW2 9254   2.854   4.629   3.953
 2306SOL    HW3 9255   2.946   4.649   3.834
 2306SOL    MW4 9256   2.872   4.618   3.868
 2307SOL     OW 9257   2.682   0.142   3.757
 2307SOL    HW2 9258   2.751   0.085   3.791
 2307SOL    HW3 9259   2.694   0.140   3.662
 2307SOL    MW4 9260   2.693   0.135   3.749
 2308SOL     OW 9261   2.672   0.392   3.859
 2308SOL    HW2 9262   2.653   0.301   3.836
 2308SOL    HW3 9263   2.591   0.438   3.841
 2308SOL    MW4 9264   2.659   0.386   3.853
 2309SOL     OW 9265   2.920   0.504   3.774
 2309SOL    HW2 9266   2.978   0.434   3.804
 2309SOL    HW3 9267   2.836   0.484   3.817
 2309SOL    MW4 9268   2.916   0.492   3.784
 2310SOL     OW 9269   2.912   0.769   3.849
 2310SOL    HW2 9270   3.003   0.798   3.835
 2310SOL    HW3 9271   2.914   0.675   3.830
 2310SOL    MW4 9272   2.925   0.761   3.845
 2311SOL     OW 9273   2.693   0.894   3.716
 2311SOL    HW2 9274   2.772   0.859   3.758
 2311SOL    HW3 9275   2.621   0.845   3.756
 2311SOL    MW4 9276   2.694   0.883   3.727
 2312SOL     OW 9277   2.669   1.145   3.850
 2312SOL    HW2 9278   2.667   1.051   3.831
 2312SOL    HW3 9279   2.587   1.179   3.815
 2312SOL    MW4 9280   2.658   1.137   3.843
 2313SOL     OW 9281   2.924   1.241   3.772
 2313SOL    HW2 9282   2.912   1.332   3.799
 2313SOL    HW3 9283   2.836   1.204   3.773
 2313SOL    MW4 9284   2.911   1.248   3.775
 2314SOL     OW 9285   2.899   1.501   3.895
 2314SOL    HW2 9286   2.878   1.514   3.987
 2314SOL    HW3 9287   2.985   1.542   3.884
 2314SOL    MW4 9288   2.908   1.508   3.906
 2315SOL     OW 9289   2.679   1.629   3.781
 2315SOL    HW2 9290   2.759   1.592   3.818
 2315SOL    HW3 9291   2.700   1.644   3.689
 2315SOL    MW4 9292   2.692   1.626   3.774
 2316SOL     OW 9293   2.667   1.904   3.878
 2316SOL    HW2 9294   2.670   1.812   3.853
 2316SOL    HW3 9295   2.616   1.945   3.808
 2316SOL    MW4 9296   2.660   1.897   3.865
 2317SOL     OW 9297   2.854   2.042   3.725
 2317SOL    HW2 9298   2.860   2.128   3.767
 2317SOL    HW3 9299   2.788   1.995   3.775
 2317SOL    MW4 9300   2.846   2.047   3.737
 2318SOL     OW 9301   2.907   2.311   3.818
 2318SOL    HW2 9302   2.897   2.308   3.913
 2318SOL    HW3 9303   2.991   2.354   3.803
 2318SOL    MW4 9304   2.916   2.316   3.828
 2319SOL     OW 9305   2.711   2.493   3.734
 2319SOL    HW2 9306   2.715   2.570   3.791
 2319SOL    HW3 9307   2.776   2.433   3.769
 2319SOL    MW4 9308   2.720   2.495   3.746
 2320SOL     OW 9309   2.714   2.721   3.902
 2320SOL    HW2 9310   2.706   2.666   3.980
 2320SOL    HW3 9311   2.627   2.757   3.889
 2320SOL    MW4 9312   2.702   2.718   3.911
 2321SOL     OW 9313   2.876   2.899   3.770
 2321SOL    HW2 9314   2.884   2.974   3.830
 2321SOL    HW3 9315   2.817   2.839   3.815
 2321SOL    MW4 9316   2.870   2.901   3.784
 2322SOL     OW 9317   2.896   3.095   3.953
 2322SOL    HW2 9318   2.933   3.154   3.887
 2322SOL    HW3 9319   2.820   3.142   3.987
 2322SOL    MW4 9320   2.891   3.109   3.948
 2323SOL     OW 9321   2.695   3.245   3.769
 2323SOL    HW2 9322   2.683   3.331   3.810
 2323SOL    HW3 9323   2.641   3.186   3.821
 2323SOL    MW4 9324   2.686   3.249   3.781
 2324SOL     OW 9325   2.667   3.506   3.863
 2324SOL    HW2 9326   2.658   3.516   3.958
 2324SOL    HW3 9327   2.756   3.534   3.844
 2324SOL    MW4 9328   2.677   3.511   3.873
 2325SOL     OW 9329   2.893   3.618   3.737
 2325SOL    HW2 9330   2.961   3.560   3.770
 2325SOL    HW3 9331   2.883   3.594   3.644
 2325SOL    MW4 9332   2.901   3.607   3.729
 2326SOL     OW 9333   2.875   3.879   3.807
 2326SOL    HW2 9334   2.894   3.889   3.901
 2326SOL    HW3 9335   2.885   3.785   3.791
 2326SOL    MW4 9336   2.879   3.868   3.817
 2327SOL     OW 9337   2.674   4.021   3.742
 2327SOL    HW2 9338   2.685   4.109   3.777
 2327SOL    HW3 9339   2.754   3.975   3.767
 2327SOL    MW4 9340   2.686   4.026   3.750
 2328SOL     OW 9341   2.683   4.269   3.892
 2328SOL    HW2 9342   2.758   4.307   3.846
 2328SOL    HW3 9343   2.606   4.306   3.848
 2328SOL    MW4 9344   2.683   4.279   3.880
 2329SOL     OW 9345   2.880   4.364   3.739
 2329SOL    HW2 9346   2.970   4.338   3.762
 2329SOL    HW3 9347   2.869   4.450   3.780
 2329SOL    MW4 9348   2.891   4.372   3.748
 2330SOL     OW 9349   3.335   4.609   3.877
 2330SOL    HW2 9350   3.329   4.612   3.973
 2330SOL    HW3 9351   3.418   4.653   3.857
 2330SOL    MW4 9352   3.345   4.615   3.887
 2331SOL     OW 9353   3.117   0.068   3.764
 2331SOL    HW2 9354   3.186   0.022   3.812
 2331SOL    HW3 9355   3.149   0.073   3.674
 2331SOL    MW4 9356   3.130   0.063   3.758
 2332SOL     OW 9357   3.129   0.343   3.829
 2332SOL    HW2 9358   3.137   0.337   3.924
 2332SOL    HW3 9359   3.134   0.253   3.798
 2332SOL    MW4 9360   3.131   0.330   3.837
 2333SOL     OW 9361   3.378   0.450   3.796
 2333SOL    HW2 9362   3.441   0.404   3.851
 2333SOL    HW3 9363   3.294   0.410   3.817
 2333SOL    MW4 9364   3.375   0.439   3.806
 2334SOL     OW 9365   3.376   0.721   3.901
 2334SOL    HW2 9366   3.324   0.699   3.978
 2334SOL    HW3 9367   3.397   0.636   3.861
 2334SOL    MW4 9368   3.372   0.707   3.906
 2335SOL     OW 9369   3.160   0.863   3.797
 2335SOL    HW2 9370   3.236   0.811   3.823
 2335SOL    HW3 9371   3.159   0.858   3.701
 2335SOL    MW4 9372   3.170   0.856   3.788
 2336SOL     OW 9373   3.135   1.109   3.917
 2336SOL    HW2 9374   3.134   1.020   3.883
 2336SOL    HW3 9375   3.075   1.158   3.861
 2336SOL    MW4 9376   3.127   1.104   3.905
 2337SOL     OW 9377   3.353   1.249   3.812
 2337SOL    HW2 9378   3.292   1.193   3.860
 2337SOL    HW3 9379   3.328   1.239   3.721
 2337SOL    MW4 9380   3.342   1.240   3.807
 2338SOL     OW 9381   3.378   1.527   3.877
 2338SOL    HW2 9382   3.301   1.581   3.856
 2338SOL    HW3 9383   3.345   1.437   3.871
 2338SOL    MW4 9384   3.363   1.523   3.874
 2339SOL     OW 9385   3.131   1.658   3.823
 2339SOL    HW2 9386   3.134   1.751   3.843
 2339SOL    HW3 9387   3.140   1.654   3.728
 2339SOL    MW4 9388   3.132   1.670   3.813
 2340SOL     OW 9389   3.095   1.943   3.839
 2340SOL    HW2 9390   3.090   1.978   3.928
 2340SOL    HW3 9391   3.021   1.982   3.794
 2340SOL    MW4 9392   3.085   1.953   3.845
 2341SOL     OW 9393   3.344   2.059   3.721
 2341SOL    HW2 9394   3.263   2.030   3.763
 2341SOL    HW3 9395   3.321   2.066   3.628
 2341SOL    MW4 9396   3.330   2.056   3.714
 2342SOL     OW 9397   3.361   2.283   3.884
 2342SOL    HW2 9398   3.288   2.340   3.859
 2342SOL    HW3 9399   3.349   2.204   3.833
 2342SOL    MW4 9400   3.350   2.280   3.874
 2343SOL     OW 9401   3.156   2.454   3.759
 2343SOL    HW2 9402   3.145   2.546   3.784
 2343SOL    HW3 9403   3.132   2.451   3.667
 2343SOL    MW4 9404   3.152   2.466   3.750
 2344SOL     OW 9405   3.094   2.738   3.833
 2344SOL    HW2 9406   3.088   2.726   3.928
 2344SOL    HW3 9407   3.015   2.788   3.810
 2344SOL    MW4 9408   3.083   2.743   3.842
 2345SOL     OW 9409   3.351   2.828   3.803
 2345SOL    HW2 9410   3.262   2.801   3.827
 2345SOL    HW3 9411   3.351   2.829   3.708
 2345SOL    MW4 9412   3.339   2.824   3.794
 2346SOL     OW 9413   3.355   3.085   3.869
 2346SOL    HW2 9414   3.433   3.119   3.825
 2346SOL    HW3 9415   3.346   2.996   3.837
 2346SOL    MW4 9416   3.364   3.078   3.859
 2347SOL     OW 9417   3.109   3.195   3.778
 2347SOL    HW2 9418   3.179   3.138   3.810
 2347SOL    HW3 9419   3.122   3.198   3.683
 2347SOL    MW4 9420   3.120   3.188   3.770
 2348SOL     OW 9421   3.096   3.459   3.820
 2348SOL    HW2 9422   3.178   3.490   3.782
 2348SOL    HW3 9423   3.102   3.364   3.815
 2348SOL    MW4 9424   3.108   3.451   3.814
 2349SOL     OW 9425   3.341   3.565   3.740
 2349SOL    HW2 9426   3.330   3.652   3.777
 2349SOL    HW3 9427   3.330   3.577   3.645
 2349SOL    MW4 9428   3.338   3.578   3.732
 2350SOL     OW 9429   3.337   3.829   3.821
 2350SOL    HW2 9430   3.407   3.871   3.771
 2350SOL    HW3 9431   3.257   3.868   3.787
 2350SOL    MW4 9432   3.336   3.839   3.810
 2351SOL     OW 9433   3.108   3.996   3.712
 2351SOL    HW2 9434   3.106   4.076   3.765
 2351SOL    HW3 9435   3.030   3.948   3.739
 2351SOL    MW4 9436   3.097   4.000   3.723
 2352SOL     OW 9437   3.115   4.239   3.824
 2352SOL    HW2 9438   3.105   4.245   3.919
 2352SOL    HW3 9439   3.191   4.294   3.805
 2352SOL    MW4 9440   3.124   4.247   3.834
 2353SOL     OW 9441   3.335   4.381   3.726
 2353SOL    HW2 9442   3.420   4.342   3.744
 2353SOL    HW3 9443   3.334   4.462   3.777
 2353SOL    MW4 9444   3.346   4.387   3.735
 2354SOL     OW 9445   3.810   4.633   3.853
 2354SOL    HW2 9446   3.885   4.685   3.825
 2354SOL    HW3 9447   3.824   4.547   3.812
 2354SOL    MW4 9448   3.822   4.629   3.844
 2355SOL     OW 9449   3.561   0.088   3.800
 2355SOL    HW2 9450   3.646   0.049   3.821
 2355SOL    HW3 9451   3.567   0.111   3.707
 2355SOL    MW4 9452   3.573   0.086   3.791
 2356SOL     OW 9453   3.586   0.319   3.955
 2356SOL    HW2 9454   3.654   0.370   3.911
 2356SOL    HW3 9455   3.577   0.240   3.902
 2356SOL    MW4 9456   3.594   0.316   3.942
 2357SOL     OW 9457   3.788   0.469   3.803
 2357SOL    HW2 9458   3.862   0.431   3.850
 2357SOL    HW3 9459   3.797   0.564   3.818
 2357SOL    MW4 9460   3.798   0.477   3.812
 2358SOL     OW 9461   3.816   0.723   3.852
 2358SOL    HW2 9462   3.884   0.784   3.825
 2358SOL    HW3 9463   3.734   0.764   3.826
 2358SOL    MW4 9464   3.814   0.736   3.845
 2359SOL     OW 9465   3.582   0.865   3.761
 2359SOL    HW2 9466   3.597   0.953   3.796
 2359SOL    HW3 9467   3.515   0.827   3.818
 2359SOL    MW4 9468   3.575   0.872   3.773
 2360SOL     OW 9469   3.608   1.117   3.862
 2360SOL    HW2 9470   3.680   1.166   3.822
 2360SOL    HW3 9471   3.530   1.169   3.843
 2360SOL    MW4 9472   3.607   1.130   3.854
 2361SOL     OW 9473   3.842   1.248   3.785
 2361SOL    HW2 9474   3.909   1.215   3.845
 2361SOL    HW3 9475   3.825   1.338   3.814
 2361SOL    MW4 9476   3.848   1.256   3.797
 2362SOL     OW 9477   3.806   1.500   3.875
 2362SOL    HW2 9478   3.790   1.522   3.967
 2362SOL    HW3 9479   3.732   1.539   3.828
 2362SOL    MW4 9480   3.794   1.508   3.881
 2363SOL     OW 9481   3.571   1.671   3.734
 2363SOL    HW2 9482   3.506   1.610   3.770
 2363SOL    HW3 9483   3.562   1.662   3.639
 2363SOL    MW4 9484   3.561   1.661   3.727
 2364SOL     OW 9485   3.536   1.922   3.871
 2364SOL    HW2 9486   3.570   1.840   3.835
 2364SOL    HW3 9487   3.471   1.952   3.807
 2364SOL    MW4 9488   3.532   1.916   3.858
 2365SOL     OW 9489   3.788   2.026   3.755
 2365SOL    HW2 9490   3.845   1.970   3.809
 2365SOL    HW3 9491   3.701   2.015   3.793
 2365SOL    MW4 9492   3.784   2.017   3.767
 2366SOL     OW 9493   3.853   2.293   3.837
 2366SOL    HW2 9494   3.775   2.335   3.800
 2366SOL    HW3 9495   3.840   2.199   3.819
 2366SOL    MW4 9496   3.841   2.286   3.829
 2367SOL     OW 9497   3.574   2.412   3.764
 2367SOL    HW2 9498   3.513   2.352   3.806
 2367SOL    HW3 9499   3.545   2.417   3.673
 2367SOL    MW4 9500   3.562   2.405   3.758
 2368SOL     OW 9501   3.576   2.681   3.891
 2368SOL    HW2 9502   3.574   2.593   3.853
 2368SOL    HW3 9503   3.497   2.724   3.856
 2368SOL    MW4 9504   3.565   2.675   3.882
 2369SOL     OW 9505   3.794   2.834   3.769
 2369SOL    HW2 9506   3.870   2.790   3.806
 2369SOL    HW3 9507   3.719   2.788   3.806
 2369SOL    MW4 9508   3.794   2.823   3.778
 2370SOL     OW 9509   3.840   3.095   3.844
 2370SOL    HW2 9510   3.752   3.121   3.818
 2370SOL    HW3 9511   3.843   3.001   3.827
 2370SOL    MW4 9512   3.829   3.086   3.838
 2371SOL     OW 9513   3.582   3.191   3.754
 2371SOL    HW2 9514   3.596   3.282   3.778
 2371SOL    HW3 9515   3.570   3.193   3.659
 2371SOL    MW4 9516   3.582   3.203   3.744
 2372SOL     OW 9517   3.596   3.456   3.818
 2372SOL    HW2 9518   3.597   3.468   3.913
 2372SOL    HW3 9519   3.508   3.479   3.791
 2372SOL    MW4 9520   3.585   3.461   3.827
 2373SOL     OW 9521   3.813   3.596   3.727
 2373SOL    HW2 9522   3.796   3.685   3.756
 2373SOL    HW3 9523   3.738   3.546   3.760
 2373SOL    MW4 9524   3.801   3.601   3.735
 2374SOL     OW 9525   3.773   3.850   3.837
 2374SOL    HW2 9526   3.775   3.842   3.932
 2374SOL    HW3 9527   3.855   3.892   3.814
 2374SOL    MW4 9528   3.784   3.854   3.846
 2375SOL     OW 9529   3.545   3.986   3.723
 2375SOL    HW2 9530   3.562   4.079   3.737
 2375SOL    HW3 9531   3.618   3.941   3.765
 2375SOL    MW4 9532   3.557   3.993   3.730
 2376SOL     OW 9533   3.568   4.262   3.812
 2376SOL    HW2 9534   3.552   4.256   3.907
 2376SOL    HW3 9535   3.648   4.313   3.804
 2376SOL    MW4 9536   3.577   4.268   3.824
 2377SOL     OW 9537   3.801   4.383   3.738
 2377SOL    HW2 9538   3.875   4.327   3.761
 2377SOL    HW3 9539   3.811   4.400   3.645
 2377SOL    MW4 9540   3.812   4.378   3.729
 2378SOL     OW 9541   4.237   4.647   3.880
 2378SOL    HW2 9542   4.234   4.621   3.972
 2378SOL    HW3 9543   4.325   4.683   3.869
 2378SOL    MW4 9544   4.248   4.648   3.891
 2379SOL     OW 9545   4.018   0.120   3.774
 2379SOL    HW2 9546   4.092   0.073   3.811
 2379SOL    HW3 9547   4.030   0.113   3.679
 2379SOL    MW4 9548   4.029   0.113   3.766
 2380SOL     OW 9549   4.036   0.377   3.910
 2380SOL    HW2 9550   4.043   0.348   4.001
 2380SOL    HW3 9551   4.025   0.296   3.860
 2380SOL    MW4 9552   4.035   0.362   3.915
 2381SOL     OW 9553   4.254   0.485   3.760
 2381SOL    HW2 9554   4.168   0.469   3.798
 2381SOL    HW3 9555   4.240   0.481   3.666
 2381SOL    MW4 9556   4.241   0.483   3.753
 2382SOL     OW 9557   4.263   0.744   3.861
 2382SOL    HW2 9558   4.179   0.779   3.831
 2382SOL    HW3 9559   4.267   0.655   3.826
 2382SOL    MW4 9560   4.253   0.737   3.853
 2383SOL     OW 9561   4.029   0.873   3.788
 2383SOL    HW2 9562   4.032   0.960   3.829
 2383SOL    HW3 9563   4.015   0.891   3.695
 2383SOL    MW4 9564   4.027   0.887   3.781
 2384SOL     OW 9565   4.064   1.124   3.894
 2384SOL    HW2 9566   4.063   1.162   3.982
 2384SOL    HW3 9567   4.134   1.171   3.849
 2384SOL    MW4 9568   4.073   1.136   3.900
 2385SOL     OW 9569   4.264   1.296   3.785
 2385SOL    HW2 9570   4.245   1.379   3.828
 2385SOL    HW3 9571   4.277   1.319   3.693
 2385SOL    MW4 9572   4.263   1.310   3.778
 2386SOL     OW 9573   4.269   1.553   3.911
 2386SOL    HW2 9574   4.186   1.592   3.884
 2386SOL    HW3 9575   4.334   1.595   3.856
 2386SOL    MW4 9576   4.266   1.564   3.900
 2387SOL     OW 9577   4.027   1.629   3.772
 2387SOL    HW2 9578   4.031   1.714   3.816
 2387SOL    HW3 9579   3.950   1.586   3.810
 2387SOL    MW4 9580   4.018   1.634   3.783
 2388SOL     OW 9581   4.032   1.888   3.893
 2388SOL    HW2 9582   4.047   1.886   3.987
 2388SOL    HW3 9583   4.094   1.952   3.860
 2388SOL    MW4 9584   4.042   1.896   3.901
 2389SOL     OW 9585   4.193   2.059   3.743
 2389SOL    HW2 9586   4.207   2.152   3.763
 2389SOL    HW3 9587   4.193   2.055   3.648
 2389SOL    MW4 9588   4.195   2.071   3.733
 2390SOL     OW 9589   4.276   2.320   3.784
 2390SOL    HW2 9590   4.290   2.328   3.878
 2390SOL    HW3 9591   4.200   2.375   3.766
 2390SOL    MW4 9592   4.267   2.328   3.794
 2391SOL     OW 9593   4.046   2.451   3.731
 2391SOL    HW2 9594   4.041   2.535   3.777
 2391SOL    HW3 9595   3.978   2.397   3.770
 2391SOL    MW4 9596   4.037   2.455   3.742
 2392SOL     OW 9597   4.016   2.701   3.840
 2392SOL    HW2 9598   4.043   2.691   3.931
 2392SOL    HW3 9599   4.079   2.763   3.803
 2392SOL    MW4 9600   4.028   2.708   3.847
 2393SOL     OW 9601   4.207   2.868   3.727
 2393SOL    HW2 9602   4.219   2.959   3.757
 2393SOL    HW3 9603   4.289   2.824   3.751
 2393SOL    MW4 9604   4.220   2.875   3.734
 2394SOL     OW 9605   4.244   3.113   3.816
 2394SOL    HW2 9606   4.177   3.177   3.793
 2394SOL    HW3 9607   4.324   3.164   3.827
 2394SOL    MW4 9608   4.245   3.128   3.815
 2395SOL     OW 9609   4.018   3.263   3.721
 2395SOL    HW2 9610   3.964   3.189   3.750
 2395SOL    HW3 9611   4.014   3.259   3.625
 2395SOL    MW4 9612   4.010   3.253   3.712
 2396SOL     OW 9613   4.022   3.498   3.889
 2396SOL    HW2 9614   4.037   3.411   3.851
 2396SOL    HW3 9615   3.956   3.538   3.833
 2396SOL    MW4 9616   4.015   3.492   3.876
 2397SOL     OW 9617   4.282   3.607   3.806
 2397SOL    HW2 9618   4.198   3.586   3.845
 2397SOL    HW3 9619   4.347   3.569   3.866
 2397SOL    MW4 9620   4.280   3.599   3.819
 2398SOL     OW 9621   4.240   3.872   3.873
 2398SOL    HW2 9622   4.153   3.900   3.846
 2398SOL    HW3 9623   4.249   3.783   3.838
 2398SOL    MW4 9624   4.230   3.864   3.865
 2399SOL     OW 9625   4.020   3.982   3.762
 2399SOL    HW2 9626   4.013   4.074   3.789
 2399SOL    HW3 9627   4.037   3.986   3.668
 2399SOL    MW4 9628   4.021   3.995   3.753
 2400SOL     OW 9629   4.013   4.244   3.833
 2400SOL    HW2 9630   4.010   4.258   3.928
 2400SOL    HW3 9631   4.086   4.299   3.804
 2400SOL    MW4 9632   4.022   4.253   3.842
 2401SOL     OW 9633   4.262   4.370   3.784
 2401SOL    HW2 9634   4.268   4.464   3.802
 2401SOL    HW3 9635   4.339   4.333   3.828
 2401SOL    MW4 9636   4.273   4.378   3.792
 2402SOL     OW 9637   0.234   4.621   4.134
 2402SOL    HW2 9638   0.290   4.689   4.172
 2402SOL    HW3 9639   0.248   4.544   4.189
 2402SOL    MW4 9640   0.243   4.620   4.146
 2403SOL     OW 9641   4.479   0.076   4.215
 2403SOL    HW2 9642   4.495   0.087   4.309
 2403SOL    HW3 9643   4.550   0.019   4.186
 2403SOL    MW4 9644   4.491   0.070   4.224
 2404SOL     OW 9645   0.018   0.357   4.153
 2404SOL    HW2 9646   0.008   0.270   4.191
 2404SOL    HW3 9647  -0.006   0.347   4.061
 2404SOL    MW4 9648   0.014   0.344   4.146
 2405SOL     OW 9649   0.226   0.523   4.229
 2405SOL    HW2 9650   0.311   0.485   4.206
 2405SOL    HW3 9651   0.162   0.464   4.187
 2405SOL    MW4 9652   0.228   0.510   4.220
 2406SOL     OW 9653   0.229   0.798   4.191
 2406SOL    HW2 9654   0.146   0.829   4.228
 2406SOL    HW3 9655   0.231   0.705   4.213
 2406SOL    MW4 9656   0.218   0.790   4.199
 2407SOL     OW 9657   4.483   0.900   4.277
 2407SOL    HW2 9658   4.409   0.855   4.236
 2407SOL    HW3 9659   4.468   0.993   4.258
 2407SOL    MW4 9660   4.471   0.907   4.269
 2408SOL     OW 9661   4.459   1.160   4.197
 2408SOL    HW2 9662   4.528   1.215   4.235
 2408SOL    HW3 9663   4.474   1.164   4.103
 2408SOL    MW4 9664   4.470   1.168   4.190
 2409SOL     OW 9665   0.220   1.280   4.284
 2409SOL    HW2 9666   0.247   1.252   4.372
 2409SOL    HW3 9667   0.280   1.235   4.225
 2409SOL    MW4 9668   0.231   1.270   4.288
 2410SOL     OW 9669   0.531   1.734   4.749
 2410SOL    HW2 9670   0.477   1.806   4.779
 2410SOL    HW3 9671   0.483   1.697   4.674
 2410SOL    MW4 9672   0.518   1.738   4.743
 2411SOL     OW 9673   4.386   1.755   4.319
 2411SOL    HW2 9674   4.355   1.681   4.266
 2411SOL    HW3 9675   4.421   1.817   4.255
 2411SOL    MW4 9676   4.387   1.753   4.303
 2412SOL     OW 9677   0.184   2.079   4.216
 2412SOL    HW2 9678   0.171   2.075   4.311
 2412SOL    HW3 9679   0.260   2.023   4.200
 2412SOL    MW4 9680   0.193   2.071   4.227
 2413SOL     OW 9681   0.474   1.406   4.589
 2413SOL    HW2 9682   0.424   1.478   4.550
 2413SOL    HW3 9683   0.499   1.438   4.675
 2413SOL    MW4 9684   0.471   1.420   4.595
 2414SOL     OW 9685   0.223   2.335   4.115
 2414SOL    HW2 9686   0.303   2.378   4.146
 2414SOL    HW3 9687   0.232   2.244   4.142
 2414SOL    MW4 9688   0.235   2.329   4.123
 2415SOL     OW 9689   4.472   2.420   4.237
 2415SOL    HW2 9690   4.398   2.391   4.184
 2415SOL    HW3 9691   4.549   2.383   4.194
 2415SOL    MW4 9692   4.472   2.411   4.224
 2416SOL     OW 9693   4.488   2.684   4.111
 2416SOL    HW2 9694   4.575   2.721   4.131
 2416SOL    HW3 9695   4.484   2.604   4.165
 2416SOL    MW4 9696   4.500   2.678   4.121
 2417SOL     OW 9697   0.223   2.825   4.211
 2417SOL    HW2 9698   0.314   2.801   4.196
 2417SOL    HW3 9699   0.222   2.921   4.202
 2417SOL    MW4 9700   0.235   2.835   4.208
 2418SOL     OW 9701   0.209   3.104   4.222
 2418SOL    HW2 9702   0.282   3.159   4.249
 2418SOL    HW3 9703   0.135   3.134   4.274
 2418SOL    MW4 9704   0.209   3.115   4.232
 2419SOL     OW 9705   4.457   3.214   4.284
 2419SOL    HW2 9706   4.397   3.178   4.218
 2419SOL    HW3 9707   4.460   3.307   4.264
 2419SOL    MW4 9708   4.449   3.221   4.272
 2420SOL     OW 9709   4.480   3.492   4.228
 2420SOL    HW2 9710   4.397   3.538   4.241
 2420SOL    HW3 9711   4.496   3.498   4.134
 2420SOL    MW4 9712   4.471   3.499   4.217
 2421SOL     OW 9713   0.211   3.626   4.350
 2421SOL    HW2 9714   0.277   3.602   4.284
 2421SOL    HW3 9715   0.132   3.580   4.322
 2421SOL    MW4 9716   0.209   3.617   4.337
 2422SOL     OW 9717   0.107   3.998   4.146
 2422SOL    HW2 9718   0.020   3.959   4.134
 2422SOL    HW3 9719   0.133   3.973   4.234
 2422SOL    MW4 9720   0.099   3.990   4.156
 2423SOL     OW 9721   0.070   3.896   4.610
 2423SOL    HW2 9722   0.106   3.810   4.632
 2423SOL    HW3 9723  -0.021   3.879   4.588
 2423SOL    MW4 9724   0.063   3.882   4.610
 2424SOL     OW 9725   0.015   4.262   4.166
 2424SOL    HW2 9726   0.043   4.171   4.166
 2424SOL    HW3 9727  -0.003   4.281   4.073
 2424SOL    MW4 9728   0.016   4.252   4.153
 2425SOL     OW 9729   0.251   4.373   4.285
 2425SOL    HW2 9730   0.222   4.418   4.364
 2425SOL    HW3 9731   0.169   4.345   4.242
 2425SOL    MW4 9732   0.236   4.375   4.290
 2426SOL     OW 9733   0.659   0.000   4.205
 2426SOL    HW2 9734   0.576   0.037   4.235
 2426SOL    HW3 9735   0.661   0.018   4.111
 2426SOL    MW4 9736   0.648   0.007   4.197
 2427SOL     OW 9737   0.409   0.130   4.256
 2427SOL    HW2 9738   0.369   0.137   4.342
 2427SOL    HW3 9739   0.426   0.221   4.231
 2427SOL    MW4 9740   0.406   0.143   4.264
 2428SOL     OW 9741   0.451   0.387   4.168
 2428SOL    HW2 9742   0.526   0.444   4.181
 2428SOL    HW3 9743   0.445   0.375   4.073
 2428SOL    MW4 9744   0.460   0.393   4.157
 2429SOL     OW 9745   0.670   0.542   4.194
 2429SOL    HW2 9746   0.744   0.490   4.164
 2429SOL    HW3 9747   0.677   0.625   4.146
 2429SOL    MW4 9748   0.681   0.546   4.184
 2430SOL     OW 9749   0.691   0.813   4.106
 2430SOL    HW2 9750   0.625   0.869   4.147
 2430SOL    HW3 9751   0.670   0.815   4.013
 2430SOL    MW4 9752   0.679   0.821   4.099
 2431SOL     OW 9753   0.462   0.931   4.245
 2431SOL    HW2 9754   0.429   1.018   4.224
 2431SOL    HW3 9755   0.391   0.872   4.223
 2431SOL    MW4 9756   0.448   0.935   4.239
 2432SOL     OW 9757   0.439   1.188   4.137
 2432SOL    HW2 9758   0.527   1.215   4.162
 2432SOL    HW3 9759   0.447   1.159   4.047
 2432SOL    MW4 9760   0.452   1.188   4.129
 2433SOL     OW 9761   0.691   1.293   4.181
 2433SOL    HW2 9762   0.700   1.316   4.274
 2433SOL    HW3 9763   0.674   1.376   4.137
 2433SOL    MW4 9764   0.690   1.307   4.188
 2434SOL     OW 9765   0.614   1.578   4.104
 2434SOL    HW2 9766   0.700   1.611   4.128
 2434SOL    HW3 9767   0.618   1.567   4.009
 2434SOL    MW4 9768   0.626   1.581   4.095
 2435SOL     OW 9769   0.139   1.515   4.156
 2435SOL    HW2 9770   0.162   1.452   4.224
 2435SOL    HW3 9771   0.045   1.531   4.169
 2435SOL    MW4 9772   0.130   1.509   4.167
 2436SOL     OW 9773   0.379   1.923   4.130
 2436SOL    HW2 9774   0.369   1.832   4.159
 2436SOL    HW3 9775   0.402   1.916   4.037
 2436SOL    MW4 9776   0.381   1.910   4.121
 2437SOL     OW 9777   0.617   2.046   4.201
 2437SOL    HW2 9778   0.629   2.057   4.295
 2437SOL    HW3 9779   0.534   1.999   4.193
 2437SOL    MW4 9780   0.608   2.041   4.212
 2438SOL     OW 9781   0.635   2.302   4.119
 2438SOL    HW2 9782   0.631   2.209   4.139
 2438SOL    HW3 9783   0.643   2.306   4.023
 2438SOL    MW4 9784   0.635   2.290   4.109
 2439SOL     OW 9785   0.432   2.439   4.270
 2439SOL    HW2 9786   0.447   2.524   4.229
 2439SOL    HW3 9787   0.502   2.383   4.238
 2439SOL    MW4 9788   0.443   2.443   4.261
 2440SOL     OW 9789   0.481   2.688   4.145
 2440SOL    HW2 9790   0.560   2.732   4.175
 2440SOL    HW3 9791   0.463   2.725   4.059
 2440SOL    MW4 9792   0.489   2.698   4.138
 2441SOL     OW 9793   0.681   2.839   4.264
 2441SOL    HW2 9794   0.702   2.833   4.358
 2441SOL    HW3 9795   0.684   2.932   4.244
 2441SOL    MW4 9796   0.684   2.850   4.274
 2442SOL     OW 9797   0.653   3.096   4.193
 2442SOL    HW2 9798   0.732   3.128   4.235
 2442SOL    HW3 9799   0.581   3.141   4.238
 2442SOL    MW4 9800   0.654   3.106   4.204
 2443SOL     OW 9801   0.435   3.251   4.288
 2443SOL    HW2 9802   0.445   3.253   4.384
 2443SOL    HW3 9803   0.449   3.341   4.261
 2443SOL    MW4 9804   0.438   3.263   4.297
 2444SOL     OW 9805   0.427   3.508   4.206
 2444SOL    HW2 9806   0.517   3.513   4.238
 2444SOL    HW3 9807   0.435   3.504   4.111
 2444SOL    MW4 9808   0.440   3.508   4.198
 2445SOL     OW 9809   0.689   3.559   4.273
 2445SOL    HW2 9810   0.675   3.550   4.368
 2445SOL    HW3 9811   0.759   3.498   4.253
 2445SOL    MW4 9812   0.696   3.550   4.283
 2446SOL     OW 9813   0.663   3.844   4.234
 2446SOL    HW2 9814   0.593   3.895   4.275
 2446SOL    HW3 9815   0.634   3.753   4.240
 2446SOL    MW4 9816   0.650   3.839   4.240
 2447SOL     OW 9817   0.479   4.022   4.334
 2447SOL    HW2 9818   0.471   4.110   4.296
 2447SOL    HW3 9819   0.391   4.000   4.363
 2447SOL    MW4 9820   0.467   4.031   4.333
 2448SOL     OW 9821   0.495   4.289   4.214
 2448SOL    HW2 9822   0.404   4.314   4.227
 2448SOL    HW3 9823   0.500   4.263   4.122
 2448SOL    MW4 9824   0.484   4.289   4.204
 2449SOL     OW 9825   0.744   4.397   4.275
 2449SOL    HW2 9826   0.657   4.361   4.256
 2449SOL    HW3 9827   0.729   4.491   4.284
 2449SOL    MW4 9828   0.730   4.405   4.273
 2450SOL     OW 9829   1.104   0.040   4.169
 2450SOL    HW2 9830   1.127  -0.051   4.193
 2450SOL    HW3 9831   1.124   0.046   4.076
 2450SOL    MW4 9832   1.110   0.028   4.160
 2451SOL     OW 9833   0.903   0.177   4.263
 2451SOL    HW2 9834   0.967   0.112   4.236
 2451SOL    HW3 9835   0.818   0.135   4.251
 2451SOL    MW4 9836   0.901   0.163   4.258
 2452SOL     OW 9837   0.942   0.407   4.092
 2452SOL    HW2 9838   1.019   0.453   4.127
 2452SOL    HW3 9839   0.938   0.326   4.144
 2452SOL    MW4 9840   0.952   0.402   4.104
 2453SOL     OW 9841   1.128   0.552   4.226
 2453SOL    HW2 9842   1.102   0.537   4.316
 2453SOL    HW3 9843   1.214   0.511   4.219
 2453SOL    MW4 9844   1.136   0.545   4.237
 2454SOL     OW 9845   1.145   0.799   4.112
 2454SOL    HW2 9846   1.221   0.844   4.148
 2454SOL    HW3 9847   1.147   0.712   4.153
 2454SOL    MW4 9848   1.155   0.794   4.122
 2455SOL     OW 9849   0.922   0.911   4.230
 2455SOL    HW2 9850   1.000   0.877   4.187
 2455SOL    HW3 9851   0.850   0.860   4.193
 2455SOL    MW4 9852   0.923   0.900   4.219
 2456SOL     OW 9853   0.931   1.163   4.119
 2456SOL    HW2 9854   0.926   1.082   4.170
 2456SOL    HW3 9855   0.850   1.209   4.138
 2456SOL    MW4 9856   0.920   1.158   4.128
 2457SOL     OW 9857   1.165   1.275   4.243
 2457SOL    HW2 9858   1.173   1.256   4.336
 2457SOL    HW3 9859   1.085   1.228   4.216
 2457SOL    MW4 9860   1.155   1.266   4.252
 2458SOL     OW 9861   1.089   1.500   4.106
 2458SOL    HW2 9862   1.015   1.546   4.147
 2458SOL    HW3 9863   1.103   1.423   4.161
 2458SOL    MW4 9864   1.081   1.496   4.119
 2459SOL     OW 9865   0.872   1.647   4.211
 2459SOL    HW2 9866   0.873   1.636   4.306
 2459SOL    HW3 9867   0.867   1.742   4.198
 2459SOL    MW4 9868   0.871   1.658   4.222
 2460SOL     OW 9869   0.879   1.930   4.139
 2460SOL    HW2 9870   0.797   1.972   4.166
 2460SOL    HW3 9871   0.888   1.954   4.046
 2460SOL    MW4 9872   0.869   1.939   4.130
 2461SOL     OW 9873   1.142   1.991   4.200
 2461SOL    HW2 9874   1.164   1.967   4.290
 2461SOL    HW3 9875   1.050   1.965   4.190
 2461SOL    MW4 9876   1.132   1.984   4.210
 2462SOL     OW 9877   1.128   2.290   4.109
 2462SOL    HW2 9878   1.198   2.349   4.137
 2462SOL    HW3 9879   1.152   2.205   4.144
 2462SOL    MW4 9880   1.140   2.287   4.117
 2463SOL     OW 9881   0.884   2.401   4.203
 2463SOL    HW2 9882   0.962   2.368   4.158
 2463SOL    HW3 9883   0.811   2.361   4.156
 2463SOL    MW4 9884   0.885   2.391   4.191
 2464SOL     OW 9885   0.910   2.679   4.156
 2464SOL    HW2 9886   0.901   2.590   4.189
 2464SOL    HW3 9887   0.830   2.724   4.184
 2464SOL    MW4 9888   0.898   2.673   4.164
 2465SOL     OW 9889   1.111   2.846   4.252
 2465SOL    HW2 9890   1.097   2.925   4.199
 2465SOL    HW3 9891   1.045   2.784   4.221
 2465SOL    MW4 9892   1.100   2.848   4.241
 2466SOL     OW 9893   1.110   3.095   4.113
 2466SOL    HW2 9894   1.180   3.152   4.144
 2466SOL    HW3 9895   1.120   3.094   4.017
 2466SOL    MW4 9896   1.121   3.102   4.104
 2467SOL     OW 9897   0.897   3.180   4.271
 2467SOL    HW2 9898   0.924   3.184   4.363
 2467SOL    HW3 9899   0.976   3.151   4.225
 2467SOL    MW4 9900   0.911   3.176   4.277
 2468SOL     OW 9901   0.939   3.441   4.185
 2468SOL    HW2 9902   0.918   3.350   4.207
 2468SOL    HW3 9903   0.956   3.440   4.091
 2468SOL    MW4 9904   0.938   3.429   4.176
 2469SOL     OW 9905   1.062   3.625   4.374
 2469SOL    HW2 9906   1.020   3.708   4.351
 2469SOL    HW3 9907   1.023   3.562   4.314
 2469SOL    MW4 9908   1.051   3.628   4.363
 2470SOL     OW 9909   1.142   3.765   4.122
 2470SOL    HW2 9910   1.213   3.822   4.153
 2470SOL    HW3 9911   1.062   3.805   4.156
 2470SOL    MW4 9912   1.141   3.778   4.131
 2471SOL     OW 9913   0.938   3.873   4.278
 2471SOL    HW2 9914   0.961   3.954   4.323
 2471SOL    HW3 9915   0.843   3.868   4.284
 2471SOL    MW4 9916   0.929   3.883   4.285
 2472SOL     OW 9917   0.993   4.267   4.180
 2472SOL    HW2 9918   1.068   4.321   4.205
 2472SOL    HW3 9919   0.917   4.313   4.214
 2472SOL    MW4 9920   0.993   4.280   4.188
 2473SOL     OW 9921   1.173   4.467   4.289
 2473SOL    HW2 9922   1.198   4.482   4.380
 2473SOL    HW3 9923   1.246   4.418   4.251
 2473SOL    MW4 9924   1.186   4.463   4.296
 2474SOL     OW 9925   1.553   4.657   4.154
 2474SOL    HW2 9926   1.640   4.691   4.175
 2474SOL    HW3 9927   1.493   4.721   4.194
 2474SOL    MW4 9928   1.557   4.670   4.162
 2475SOL     OW 9929   1.357   0.146   4.255
 2475SOL    HW2 9930   1.343   0.155   4.349
 2475SOL    HW3 9931   1.270   0.124   4.220
 2475SOL    MW4 9932   1.343   0.144   4.262
 2476SOL     OW 9933   1.369   0.402   4.151
 2476SOL    HW2 9934   1.430   0.447   4.210
 2476SOL    HW3 9935   1.366   0.312   4.184
 2476SOL    MW4 9936   1.377   0.396   4.163
 2477SOL     OW 9937   1.584   0.539   4.268
 2477SOL    HW2 9938   1.585   0.549   4.364
 2477SOL    HW3 9939   1.617   0.623   4.236
 2477SOL    MW4 9940   1.589   0.552   4.277
 2478SOL     OW 9941   1.628   0.796   4.153
 2478SOL    HW2 9942   1.695   0.859   4.178
 2478SOL    HW3 9943   1.619   0.806   4.058
 2478SOL    MW4 9944   1.636   0.805   4.144
 2479SOL     OW 9945   1.373   0.938   4.202
 2479SOL    HW2 9946   1.390   1.025   4.168
 2479SOL    HW3 9947   1.456   0.891   4.191
 2479SOL    MW4 9948   1.386   0.943   4.196
 2480SOL     OW 9949   1.393   1.199   4.111
 2480SOL    HW2 9950   1.321   1.238   4.162
 2480SOL    HW3 9951   1.357   1.187   4.024
 2480SOL    MW4 9952   1.379   1.203   4.106
 2481SOL     OW 9953   1.633   1.301   4.236
 2481SOL    HW2 9954   1.627   1.278   4.329
 2481SOL    HW3 9955   1.560   1.255   4.195
 2481SOL    MW4 9956   1.623   1.292   4.243
 2482SOL     OW 9957   1.558   1.561   4.167
 2482SOL    HW2 9958   1.466   1.556   4.194
 2482SOL    HW3 9959   1.595   1.476   4.191
 2482SOL    MW4 9960   1.551   1.549   4.174
 2483SOL     OW 9961   1.301   1.611   4.231
 2483SOL    HW2 9962   1.311   1.697   4.191
 2483SOL    HW3 9963   1.232   1.568   4.181
 2483SOL    MW4 9964   1.293   1.617   4.219
 2484SOL     OW 9965   1.372   1.861   4.084
 2484SOL    HW2 9966   1.443   1.914   4.119
 2484SOL    HW3 9967   1.292   1.904   4.115
 2484SOL    MW4 9968   1.371   1.874   4.092
 2485SOL     OW 9969   1.597   2.020   4.185
 2485SOL    HW2 9970   1.687   1.993   4.164
 2485SOL    HW3 9971   1.599   2.115   4.181
 2485SOL    MW4 9972   1.609   2.029   4.181
 2486SOL     OW 9973   1.618   2.304   4.160
 2486SOL    HW2 9974   1.679   2.368   4.197
 2486SOL    HW3 9975   1.632   2.308   4.066
 2486SOL    MW4 9976   1.628   2.313   4.153
 2487SOL     OW 9977   1.567   2.870   4.181
 2487SOL    HW2 9978   1.559   2.851   4.274
 2487SOL    HW3 9979   1.653   2.837   4.156
 2487SOL    MW4 9980   1.577   2.863   4.190
 2488SOL     OW 9981   1.336   2.712   4.140
 2488SOL    HW2 9982   1.416   2.764   4.139
 2488SOL    HW3 9983   1.277   2.760   4.198
 2488SOL    MW4 9984   1.339   2.725   4.147
 2489SOL     OW 9985   1.599   2.290   4.606
 2489SOL    HW2 9986   1.611   2.353   4.677
 2489SOL    HW3 9987   1.687   2.259   4.585
 2489SOL    MW4 9988   1.612   2.294   4.612
 2490SOL     OW 9989   1.545   3.155   4.144
 2490SOL    HW2 9990   1.595   3.212   4.203
 2490SOL    HW3 9991   1.576   3.067   4.163
 2490SOL    MW4 9992   1.556   3.151   4.154
 2491SOL     OW 9993   1.308   3.250   4.228
 2491SOL    HW2 9994   1.375   3.196   4.185
 2491SOL    HW3 9995   1.316   3.336   4.186
 2491SOL    MW4 9996   1.318   3.254   4.217
 2492SOL     OW 9997   1.297   3.499   4.109
 2492SOL    HW2 9998   1.249   3.579   4.132
 2492SOL    HW3 9999   1.306   3.503   4.014
 2492SOL    MW410000   1.292   3.510   4.100
 2493SOL     OW10001   1.500   3.659   4.222
 2493SOL    HW210002   1.454   3.683   4.303
 2493SOL    HW310003   1.448   3.587   4.186
 2493SOL    MW410004   1.487   3.653   4.228
 2494SOL     OW10005   1.559   3.910   4.139
 2494SOL    HW210006   1.478   3.958   4.157
 2494SOL    HW310007   1.544   3.824   4.178
 2494SOL    MW410008   1.546   3.905   4.147
 2495SOL     OW10009   1.296   4.006   4.178
 2495SOL    HW210010   1.288   3.999   4.273
 2495SOL    HW310011   1.305   4.100   4.161
 2495SOL    MW410012   1.296   4.018   4.188
 2496SOL     OW10013   1.345   4.293   4.167
 2496SOL    HW210014   1.430   4.322   4.202
 2496SOL    HW310015   1.356   4.297   4.072
 2496SOL    MW410016   1.358   4.298   4.159
 2497SOL     OW10017   1.574   4.411   4.268
 2497SOL    HW210018   1.559   4.496   4.227
 2497SOL    HW310019   1.652   4.376   4.225
 2497SOL    MW410020   1.582   4.417   4.257
 2498SOL     OW10021   1.986   0.029   4.151
 2498SOL    HW210022   1.904   0.070   4.179
 2498SOL    HW310023   1.974   0.015   4.057
 2498SOL    MW410024   1.973   0.033   4.142
 2499SOL     OW10025   1.758   0.141   4.233
 2499SOL    HW210026   1.741   0.150   4.327
 2499SOL    HW310027   1.771   0.230   4.202
 2499SOL    MW410028   1.757   0.154   4.241
 2500SOL     OW10029   1.797   0.400   4.141
 2500SOL    HW210030   1.880   0.435   4.172
 2500SOL    HW310031   1.730   0.448   4.190
 2500SOL    MW410032   1.799   0.411   4.151
 2501SOL     OW10033   2.025   0.514   4.240
 2501SOL    HW210034   2.012   0.474   4.326
 2501SOL    HW310035   2.099   0.465   4.203
 2501SOL    MW410036   2.033   0.502   4.247
 2502SOL     OW10037   1.996   0.767   4.112
 2502SOL    HW210038   2.085   0.801   4.120
 2502SOL    HW310039   2.001   0.679   4.149
 2502SOL    MW410040   2.008   0.760   4.118
 2503SOL     OW10041   1.839   0.962   4.240
 2503SOL    HW210042   1.846   1.040   4.184
 2503SOL    HW310043   1.898   0.898   4.201
 2503SOL    MW410044   1.847   0.964   4.227
 2504SOL     OW10045   1.864   1.220   4.115
 2504SOL    HW210046   1.939   1.264   4.154
 2504SOL    HW310047   1.788   1.257   4.160
 2504SOL    MW410048   1.864   1.230   4.126
 2505SOL     OW10049   2.091   1.332   4.232
 2505SOL    HW210050   2.166   1.324   4.173
 2505SOL    HW310051   2.050   1.416   4.207
 2505SOL    MW410052   2.095   1.342   4.221
 2506SOL     OW10053   2.016   1.561   4.109
 2506SOL    HW210054   2.089   1.622   4.122
 2506SOL    HW310055   1.995   1.569   4.016
 2506SOL    MW410056   2.023   1.570   4.099
 2507SOL     OW10057   1.802   1.713   4.204
 2507SOL    HW210058   1.871   1.648   4.192
 2507SOL    HW310059   1.721   1.667   4.181
 2507SOL    MW410060   1.800   1.698   4.199
 2508SOL     OW10061   1.865   1.956   4.116
 2508SOL    HW210062   1.842   1.870   4.153
 2508SOL    HW310063   1.938   1.987   4.169
 2508SOL    MW410064   1.871   1.949   4.128
 2509SOL     OW10065   1.744   2.516   4.338
 2509SOL    HW210066   1.755   2.505   4.433
 2509SOL    HW310067   1.830   2.545   4.308
 2509SOL    MW410068   1.757   2.519   4.347
 2510SOL     OW10069   2.487   2.387   4.110
 2510SOL    HW210070   2.490   2.347   4.023
 2510SOL    HW310071   2.465   2.315   4.169
 2510SOL    MW410072   2.485   2.372   4.106
 2511SOL     OW10073   1.783   3.014   4.386
 2511SOL    HW210074   1.749   2.925   4.393
 2511SOL    HW310075   1.872   3.008   4.421
 2511SOL    MW410076   1.790   3.001   4.391
 2512SOL     OW10077   1.823   2.801   4.119
 2512SOL    HW210078   1.888   2.754   4.172
 2512SOL    HW310079   1.857   2.890   4.112
 2512SOL    MW410080   1.836   2.806   4.126
 2513SOL     OW10081   2.034   3.224   4.300
 2513SOL    HW210082   2.053   3.161   4.369
 2513SOL    HW310083   2.001   3.171   4.227
 2513SOL    MW410084   2.032   3.209   4.299
 2514SOL     OW10085   2.188   2.938   4.152
 2514SOL    HW210086   2.269   2.985   4.172
 2514SOL    HW310087   2.163   2.898   4.235
 2514SOL    MW410088   2.195   2.939   4.166
 2515SOL     OW10089   1.686   3.299   4.344
 2515SOL    HW210090   1.716   3.378   4.301
 2515SOL    HW310091   1.760   3.238   4.338
 2515SOL    MW410092   1.700   3.301   4.337
 2516SOL     OW10093   1.767   3.533   4.180
 2516SOL    HW210094   1.695   3.588   4.208
 2516SOL    HW310095   1.769   3.542   4.085
 2516SOL    MW410096   1.758   3.541   4.171
 2517SOL     OW10097   2.027   3.626   4.299
 2517SOL    HW210098   2.030   3.706   4.245
 2517SOL    HW310099   1.944   3.585   4.275
 2517SOL    MW410100   2.016   3.631   4.289
 2518SOL     OW10101   2.005   3.867   4.148
 2518SOL    HW210102   1.933   3.924   4.176
 2518SOL    HW310103   2.007   3.875   4.053
 2518SOL    MW410104   1.996   3.875   4.139
 2519SOL     OW10105   1.809   4.025   4.221
 2519SOL    HW210106   1.820   4.114   4.189
 2519SOL    HW310107   1.719   4.001   4.196
 2519SOL    MW410108   1.798   4.034   4.214
 2520SOL     OW10109   1.796   4.296   4.148
 2520SOL    HW210110   1.872   4.350   4.171
 2520SOL    HW310111   1.803   4.285   4.054
 2520SOL    MW410112   1.807   4.302   4.139
 2521SOL     OW10113   2.004   4.451   4.256
 2521SOL    HW210114   1.982   4.438   4.348
 2521SOL    HW310115   1.977   4.541   4.237
 2521SOL    MW410116   1.997   4.461   4.265
 2522SOL     OW10117   2.422   4.637   4.124
 2522SOL    HW210118   2.488   4.699   4.155
 2522SOL    HW310119   2.431   4.561   4.180
 2522SOL    MW410120   2.432   4.635   4.135
 2523SOL     OW10121   2.223   0.124   4.239
 2523SOL    HW210122   2.272   0.056   4.195
 2523SOL    HW310123   2.132   0.109   4.212
 2523SOL    MW410124   2.217   0.113   4.230
 2524SOL     OW10125   2.245   0.380   4.120
 2524SOL    HW210126   2.236   0.292   4.155
 2524SOL    HW310127   2.254   0.368   4.026
 2524SOL    MW410128   2.245   0.367   4.112
 2525SOL     OW10129   2.393   0.547   4.263
 2525SOL    HW210130   2.352   0.543   4.350
 2525SOL    HW310131   2.344   0.483   4.211
 2525SOL    MW410132   2.381   0.538   4.268
 2526SOL     OW10133   2.449   0.801   4.140
 2526SOL    HW210134   2.435   0.708   4.157
 2526SOL    HW310135   2.470   0.805   4.046
 2526SOL    MW410136   2.450   0.789   4.130
 2527SOL     OW10137   2.216   0.921   4.219
 2527SOL    HW210138   2.210   0.949   4.310
 2527SOL    HW310139   2.302   0.880   4.211
 2527SOL    MW410140   2.227   0.919   4.230
 2528SOL     OW10141   2.276   1.153   4.099
 2528SOL    HW210142   2.335   1.198   4.161
 2528SOL    HW310143   2.257   1.070   4.141
 2528SOL    MW410144   2.281   1.148   4.113
 2529SOL     OW10145   2.455   1.298   4.250
 2529SOL    HW210146   2.469   1.285   4.344
 2529SOL    HW310147   2.532   1.259   4.209
 2529SOL    MW410148   2.467   1.291   4.257
 2530SOL     OW10149   2.472   1.571   4.191
 2530SOL    HW210150   2.463   1.482   4.223
 2530SOL    HW310151   2.467   1.563   4.096
 2530SOL    MW410152   2.470   1.559   4.182
 2531SOL     OW10153   2.234   1.720   4.192
 2531SOL    HW210154   2.308   1.659   4.191
 2531SOL    HW310155   2.272   1.806   4.178
 2531SOL    MW410156   2.249   1.723   4.190
 2532SOL     OW10157   2.314   1.981   4.109
 2532SOL    HW210158   2.407   1.995   4.123
 2532SOL    HW310159   2.270   2.045   4.164
 2532SOL    MW410160   2.320   1.991   4.118
 2533SOL     OW10161   2.369   2.192   4.288
 2533SOL    HW210162   2.285   2.230   4.317
 2533SOL    HW310163   2.424   2.194   4.366
 2533SOL    MW410164   2.365   2.197   4.302
 2534SOL     OW10165   2.694   2.551   4.131
 2534SOL    HW210166   2.626   2.484   4.133
 2534SOL    HW310167   2.701   2.579   4.222
 2534SOL    MW410168   2.686   2.546   4.143
 2535SOL     OW10169   2.481   2.518   4.531
 2535SOL    HW210170   2.431   2.554   4.458
 2535SOL    HW310171   2.473   2.583   4.601
 2535SOL    MW410172   2.474   2.531   4.531
 2536SOL     OW10173   2.008   2.626   4.269
 2536SOL    HW210174   2.062   2.691   4.315
 2536SOL    HW310175   2.068   2.552   4.254
 2536SOL    MW410176   2.023   2.625   4.273
 2537SOL     OW10177   2.463   2.895   4.343
 2537SOL    HW210178   2.441   2.803   4.326
 2537SOL    HW310179   2.414   2.916   4.423
 2537SOL    MW410180   2.453   2.885   4.351
 2538SOL     OW10181   2.308   3.278   4.323
 2538SOL    HW210182   2.217   3.253   4.306
 2538SOL    HW310183   2.323   3.251   4.413
 2538SOL    MW410184   2.298   3.271   4.333
 2539SOL     OW10185   1.954   3.067   4.071
 2539SOL    HW210186   1.961   3.100   3.982
 2539SOL    HW310187   2.034   3.016   4.084
 2539SOL    MW410188   1.966   3.064   4.061
 2540SOL     OW10189   2.235   3.493   4.158
 2540SOL    HW210190   2.255   3.417   4.213
 2540SOL    HW310191   2.163   3.538   4.202
 2540SOL    MW410192   2.228   3.489   4.171
 2541SOL     OW10193   2.438   3.645   4.290
 2541SOL    HW210194   2.381   3.587   4.239
 2541SOL    HW310195   2.435   3.729   4.243
 2541SOL    MW410196   2.430   3.649   4.277
 2542SOL     OW10197   2.473   3.882   4.147
 2542SOL    HW210198   2.557   3.914   4.180
 2542SOL    HW310199   2.473   3.906   4.054
 2542SOL    MW410200   2.484   3.889   4.139
 2543SOL     OW10201   2.221   4.002   4.280
 2543SOL    HW210202   2.295   3.966   4.232
 2543SOL    HW310203   2.146   3.951   4.250
 2543SOL    MW410204   2.221   3.991   4.270
 2544SOL     OW10205   2.209   4.249   4.157
 2544SOL    HW210206   2.203   4.165   4.202
 2544SOL    HW310207   2.129   4.295   4.180
 2544SOL    MW410208   2.198   4.244   4.166
 2545SOL     OW10209   2.440   4.399   4.284
 2545SOL    HW210210   2.504   4.349   4.232
 2545SOL    HW310211   2.356   4.381   4.242
 2545SOL    MW410212   2.438   4.390   4.272
 2546SOL     OW10213   2.849   4.586   4.138
 2546SOL    HW210214   2.930   4.633   4.156
 2546SOL    HW310215   2.845   4.519   4.206
 2546SOL    MW410216   2.859   4.583   4.149
 2547SOL     OW10217   2.653   0.116   4.194
 2547SOL    HW210218   2.700   0.194   4.162
 2547SOL    HW310219   2.719   0.047   4.194
 2547SOL    MW410220   2.668   0.118   4.190
 2548SOL     OW10221   2.778   0.349   4.102
 2548SOL    HW210222   2.735   0.374   4.020
 2548SOL    HW310223   2.727   0.392   4.170
 2548SOL    MW410224   2.766   0.358   4.100
 2549SOL     OW10225   3.231   0.677   4.138
 2549SOL    HW210226   3.292   0.730   4.189
 2549SOL    HW310227   3.145   0.715   4.155
 2549SOL    MW410228   3.228   0.689   4.147
 2550SOL     OW10229   2.975   0.825   4.129
 2550SOL    HW210230   2.984   0.916   4.157
 2550SOL    HW310231   2.953   0.831   4.036
 2550SOL    MW410232   2.973   0.838   4.120
 2551SOL     OW10233   2.651   0.936   4.294
 2551SOL    HW210234   2.732   0.891   4.317
 2551SOL    HW310235   2.591   0.866   4.268
 2551SOL    MW410236   2.653   0.921   4.293
 2552SOL     OW10237   2.678   1.178   4.132
 2552SOL    HW210238   2.672   1.087   4.162
 2552SOL    HW310239   2.673   1.173   4.037
 2552SOL    MW410240   2.677   1.166   4.124
 2553SOL     OW10241   2.880   1.301   4.315
 2553SOL    HW210242   2.950   1.247   4.278
 2553SOL    HW310243   2.802   1.275   4.266
 2553SOL    MW410244   2.879   1.290   4.304
 2554SOL     OW10245   2.877   1.539   4.175
 2554SOL    HW210246   2.959   1.586   4.189
 2554SOL    HW310247   2.875   1.473   4.245
 2554SOL    MW410248   2.887   1.536   4.186
 2555SOL     OW10249   2.704   1.742   4.249
 2555SOL    HW210250   2.773   1.681   4.226
 2555SOL    HW310251   2.623   1.691   4.243
 2555SOL    MW410252   2.702   1.727   4.245
 2556SOL     OW10253   2.604   1.976   4.139
 2556SOL    HW210254   2.636   1.892   4.173
 2556SOL    HW310255   2.626   1.974   4.046
 2556SOL    MW410256   2.611   1.964   4.131
 2557SOL     OW10257   2.833   2.102   4.223
 2557SOL    HW210258   2.829   2.181   4.170
 2557SOL    HW310259   2.754   2.054   4.199
 2557SOL    MW410260   2.822   2.106   4.213
 2558SOL     OW10261   2.879   2.332   4.089
 2558SOL    HW210262   2.963   2.361   4.127
 2558SOL    HW310263   2.821   2.408   4.100
 2558SOL    MW410264   2.883   2.346   4.096
 2559SOL     OW10265   2.783   3.262   4.389
 2559SOL    HW210266   2.781   3.355   4.411
 2559SOL    HW310267   2.738   3.219   4.463
 2559SOL    MW410268   2.777   3.269   4.402
 2560SOL     OW10269   2.488   3.111   4.178
 2560SOL    HW210270   2.506   3.028   4.222
 2560SOL    HW310271   2.434   3.161   4.240
 2560SOL    MW410272   2.483   3.107   4.192
 2561SOL     OW10273   2.956   2.930   4.187
 2561SOL    HW210274   2.985   2.994   4.252
 2561SOL    HW310275   2.963   2.976   4.103
 2561SOL    MW410276   2.961   2.945   4.184
 2562SOL     OW10277   3.017   3.111   4.398
 2562SOL    HW210278   3.026   3.075   4.486
 2562SOL    HW310279   2.939   3.167   4.403
 2562SOL    MW410280   3.008   3.114   4.410
 2563SOL     OW10281   2.725   3.243   4.112
 2563SOL    HW210282   2.646   3.188   4.104
 2563SOL    HW310283   2.769   3.209   4.190
 2563SOL    MW410284   2.720   3.231   4.121
 2564SOL     OW10285   2.665   3.521   4.147
 2564SOL    HW210286   2.678   3.428   4.168
 2564SOL    HW310287   2.604   3.552   4.213
 2564SOL    MW410288   2.659   3.513   4.158
 2565SOL     OW10289   2.897   3.644   4.184
 2565SOL    HW210290   2.917   3.656   4.277
 2565SOL    HW310291   2.810   3.604   4.183
 2565SOL    MW410292   2.888   3.640   4.196
 2566SOL     OW10293   2.928   3.901   4.066
 2566SOL    HW210294   3.006   3.924   4.117
 2566SOL    HW310295   2.897   3.819   4.104
 2566SOL    MW410296   2.934   3.894   4.077
 2567SOL     OW10297   2.710   3.991   4.234
 2567SOL    HW210298   2.692   4.084   4.221
 2567SOL    HW310299   2.767   3.967   4.161
 2567SOL    MW410300   2.715   4.000   4.223
 2568SOL     OW10301   2.680   4.260   4.175
 2568SOL    HW210302   2.728   4.333   4.213
 2568SOL    HW310303   2.692   4.270   4.080
 2568SOL    MW410304   2.688   4.271   4.167
 2569SOL     OW10305   2.846   4.418   4.343
 2569SOL    HW210306   2.806   4.447   4.425
 2569SOL    HW310307   2.876   4.329   4.361
 2569SOL    MW410308   2.844   4.410   4.356
 2570SOL     OW10309   3.311   4.641   4.148
 2570SOL    HW210310   3.390   4.682   4.185
 2570SOL    HW310311   3.315   4.550   4.177
 2570SOL    MW410312   3.322   4.634   4.156
 2571SOL     OW10313   3.057   0.094   4.169
 2571SOL    HW210314   3.032   0.105   4.261
 2571SOL    HW310315   3.135   0.039   4.172
 2571SOL    MW410316   3.064   0.088   4.182
 2572SOL     OW10317   3.195   0.336   4.100
 2572SOL    HW210318   3.254   0.351   4.174
 2572SOL    HW310319   3.144   0.259   4.125
 2572SOL    MW410320   3.196   0.328   4.113
 2573SOL     OW10321   3.369   0.433   4.290
 2573SOL    HW210322   3.463   0.415   4.289
 2573SOL    HW310323   3.360   0.515   4.242
 2573SOL    MW410324   3.380   0.442   4.283
 2574SOL     OW10325   3.429   0.767   4.310
 2574SOL    HW210326   3.464   0.855   4.321
 2574SOL    HW310327   3.370   0.755   4.384
 2574SOL    MW410328   3.426   0.777   4.321
 2575SOL     OW10329   3.203   1.124   4.627
 2575SOL    HW210330   3.251   1.049   4.663
 2575SOL    HW310331   3.111   1.095   4.627
 2575SOL    MW410332   3.197   1.110   4.632
 2576SOL     OW10333   3.018   1.106   4.168
 2576SOL    HW210334   3.100   1.100   4.217
 2576SOL    HW310335   3.045   1.120   4.077
 2576SOL    MW410336   3.033   1.107   4.162
 2577SOL     OW10337   3.533   1.038   4.339
 2577SOL    HW210338   3.566   1.045   4.428
 2577SOL    HW310339   3.446   1.077   4.342
 2577SOL    MW410340   3.526   1.044   4.351
 2578SOL     OW10341   3.284   1.410   4.352
 2578SOL    HW210342   3.297   1.457   4.269
 2578SOL    HW310343   3.360   1.434   4.405
 2578SOL    MW410344   3.296   1.419   4.348
 2579SOL     OW10345   3.093   1.697   4.201
 2579SOL    HW210346   3.102   1.714   4.295
 2579SOL    HW310347   3.080   1.784   4.163
 2579SOL    MW410348   3.093   1.711   4.209
 2580SOL     OW10349   3.060   1.984   4.107
 2580SOL    HW210350   3.128   2.032   4.155
 2580SOL    HW310351   2.978   2.019   4.141
 2580SOL    MW410352   3.059   1.995   4.118
 2581SOL     OW10353   3.313   2.093   4.208
 2581SOL    HW210354   3.396   2.045   4.214
 2581SOL    HW310355   3.339   2.185   4.207
 2581SOL    MW410356   3.328   2.099   4.209
 2582SOL     OW10357   3.353   2.356   4.154
 2582SOL    HW210358   3.433   2.402   4.179
 2582SOL    HW310359   3.365   2.334   4.061
 2582SOL    MW410360   3.365   2.359   4.145
 2583SOL     OW10361   3.099   2.439   4.215
 2583SOL    HW210362   3.096   2.527   4.178
 2583SOL    HW310363   3.190   2.411   4.204
 2583SOL    MW410364   3.111   2.447   4.209
 2584SOL     OW10365   3.099   2.699   4.112
 2584SOL    HW210366   3.183   2.723   4.152
 2584SOL    HW310367   3.038   2.767   4.142
 2584SOL    MW410368   3.102   2.711   4.122
 2585SOL     OW10369   3.335   2.793   4.213
 2585SOL    HW210370   3.325   2.888   4.211
 2585SOL    HW310371   3.428   2.778   4.198
 2585SOL    MW410372   3.346   2.803   4.211
 2586SOL     OW10373   3.394   3.079   4.156
 2586SOL    HW210374   3.340   3.154   4.181
 2586SOL    HW310375   3.383   3.070   4.062
 2586SOL    MW410376   3.386   3.087   4.147
 2587SOL     OW10377   3.226   3.285   4.294
 2587SOL    HW210378   3.182   3.334   4.225
 2587SOL    HW310379   3.159   3.226   4.327
 2587SOL    MW410380   3.211   3.283   4.289
 2588SOL     OW10381   3.126   3.478   4.085
 2588SOL    HW210382   3.048   3.529   4.107
 2588SOL    HW310383   3.125   3.473   3.990
 2588SOL    MW410384   3.115   3.484   4.076
 2589SOL     OW10385   3.361   3.607   4.198
 2589SOL    HW210386   3.341   3.625   4.290
 2589SOL    HW310387   3.284   3.560   4.166
 2589SOL    MW410388   3.348   3.603   4.206
 2590SOL     OW10389   3.303   3.852   4.090
 2590SOL    HW210390   3.314   3.760   4.115
 2590SOL    HW310391   3.309   3.852   3.994
 2590SOL    MW410392   3.305   3.840   4.080
 2591SOL     OW10393   3.124   3.995   4.249
 2591SOL    HW210394   3.169   4.003   4.333
 2591SOL    HW310395   3.190   3.957   4.190
 2591SOL    MW410396   3.139   3.991   4.252
 2592SOL     OW10397   3.089   4.246   4.121
 2592SOL    HW210398   3.124   4.304   4.189
 2592SOL    HW310399   3.114   4.158   4.151
 2592SOL    MW410400   3.097   4.242   4.134
 2593SOL     OW10401   3.311   4.384   4.247
 2593SOL    HW210402   3.351   4.396   4.332
 2593SOL    HW310403   3.375   4.332   4.198
 2593SOL    MW410404   3.325   4.379   4.251
 2594SOL     OW10405   3.795   4.625   4.129
 2594SOL    HW210406   3.866   4.671   4.173
 2594SOL    HW310407   3.808   4.645   4.036
 2594SOL    MW410408   3.806   4.634   4.122
 2595SOL     OW10409   3.548   0.071   4.241
 2595SOL    HW210410   3.566   0.164   4.224
 2595SOL    HW310411   3.620   0.025   4.199
 2595SOL    MW410412   3.560   0.077   4.234
 2596SOL     OW10413   3.638   0.350   4.225
 2596SOL    HW210414   3.719   0.396   4.242
 2596SOL    HW310415   3.624   0.357   4.131
 2596SOL    MW410416   3.647   0.357   4.215
 2597SOL     OW10417   3.850   0.502   4.323
 2597SOL    HW210418   3.889   0.475   4.406
 2597SOL    HW310419   3.797   0.578   4.345
 2597SOL    MW410420   3.848   0.508   4.337
 2598SOL     OW10421   3.828   0.803   4.117
 2598SOL    HW210422   3.781   0.886   4.114
 2598SOL    HW310423   3.827   0.772   4.026
 2598SOL    MW410424   3.822   0.810   4.104
 2599SOL     OW10425   3.708   0.741   4.350
 2599SOL    HW210426   3.613   0.736   4.346
 2599SOL    HW310427   3.736   0.751   4.259
 2599SOL    MW410428   3.700   0.742   4.338
 2600SOL     OW10429   3.698   1.042   4.111
 2600SOL    HW210430   3.633   1.040   4.181
 2600SOL    HW310431   3.646   1.051   4.031
 2600SOL    MW410432   3.683   1.043   4.110
 2601SOL     OW10433   3.781   1.304   4.202
 2601SOL    HW210434   3.756   1.214   4.182
 2601SOL    HW310435   3.755   1.316   4.294
 2601SOL    MW410436   3.774   1.294   4.211
 2602SOL     OW10437   3.791   1.572   4.146
 2602SOL    HW210438   3.793   1.479   4.167
 2602SOL    HW310439   3.852   1.612   4.208
 2602SOL    MW410440   3.800   1.565   4.157
 2603SOL     OW10441   3.571   1.997   4.156
 2603SOL    HW210442   3.549   2.007   4.063
 2603SOL    HW310443   3.576   1.903   4.170
 2603SOL    MW410444   3.568   1.986   4.146
 2604SOL     OW10445   3.333   1.570   4.133
 2604SOL    HW210446   3.359   1.570   4.041
 2604SOL    HW310447   3.247   1.613   4.134
 2604SOL    MW410448   3.325   1.576   4.121
 2605SOL     OW10449   3.836   2.027   4.213
 2605SOL    HW210450   3.821   2.045   4.306
 2605SOL    HW310451   3.749   2.017   4.176
 2605SOL    MW410452   3.823   2.028   4.221
 2606SOL     OW10453   3.844   2.296   4.136
 2606SOL    HW210454   3.856   2.206   4.165
 2606SOL    HW310455   3.834   2.289   4.041
 2606SOL    MW410456   3.844   2.283   4.127
 2607SOL     OW10457   3.613   2.450   4.250
 2607SOL    HW210458   3.617   2.428   4.344
 2607SOL    HW310459   3.685   2.400   4.211
 2607SOL    MW410460   3.623   2.440   4.258
 2608SOL     OW10461   3.638   2.728   4.161
 2608SOL    HW210462   3.631   2.637   4.190
 2608SOL    HW310463   3.628   2.723   4.066
 2608SOL    MW410464   3.636   2.715   4.152
 2609SOL     OW10465   3.869   2.869   4.225
 2609SOL    HW210466   3.889   2.857   4.318
 2609SOL    HW310467   3.803   2.803   4.206
 2609SOL    MW410468   3.863   2.859   4.235
 2610SOL     OW10469   3.849   3.127   4.126
 2610SOL    HW210470   3.836   3.036   4.155
 2610SOL    HW310471   3.852   3.120   4.030
 2610SOL    MW410472   3.847   3.114   4.117
 2611SOL     OW10473   3.622   3.263   4.215
 2611SOL    HW210474   3.709   3.232   4.190
 2611SOL    HW310475   3.562   3.194   4.188
 2611SOL    MW410476   3.626   3.250   4.208
 2612SOL     OW10477   3.590   3.516   4.086
 2612SOL    HW210478   3.593   3.426   4.118
 2612SOL    HW310479   3.503   3.548   4.113
 2612SOL    MW410480   3.579   3.509   4.094
 2613SOL     OW10481   3.789   3.601   4.245
 2613SOL    HW210482   3.860   3.546   4.211
 2613SOL    HW310483   3.715   3.582   4.188
 2613SOL    MW410484   3.789   3.591   4.233
 2614SOL     OW10485   3.792   3.862   4.114
 2614SOL    HW210486   3.706   3.893   4.141
 2614SOL    HW310487   3.802   3.777   4.157
 2614SOL    MW410488   3.782   3.855   4.123
 2615SOL     OW10489   3.541   3.945   4.208
 2615SOL    HW210490   3.532   3.956   4.303
 2615SOL    HW310491   3.465   3.893   4.182
 2615SOL    MW410492   3.530   3.940   4.217
 2616SOL     OW10493   3.521   4.224   4.080
 2616SOL    HW210494   3.602   4.257   4.118
 2616SOL    HW310495   3.522   4.130   4.099
 2616SOL    MW410496   3.532   4.216   4.088
 2617SOL     OW10497   3.767   4.334   4.152
 2617SOL    HW210498   3.859   4.308   4.144
 2617SOL    HW310499   3.769   4.430   4.147
 2617SOL    MW410500   3.779   4.343   4.150
 2618SOL     OW10501   4.250   4.588   4.149
 2618SOL    HW210502   4.262   4.505   4.194
 2618SOL    HW310503   4.322   4.643   4.180
 2618SOL    MW410504   4.261   4.584   4.159
 2619SOL     OW10505   4.022   0.057   4.275
 2619SOL    HW210506   4.043   0.142   4.236
 2619SOL    HW310507   4.084  -0.004   4.235
 2619SOL    MW410508   4.033   0.060   4.265
 2620SOL     OW10509   4.045   0.328   4.187
 2620SOL    HW210510   4.130   0.372   4.185
 2620SOL    HW310511   3.989   0.386   4.238
 2620SOL    MW410512   4.049   0.341   4.194
 2621SOL     OW10513   4.272   0.487   4.256
 2621SOL    HW210514   4.264   0.569   4.207
 2621SOL    HW310515   4.352   0.447   4.223
 2621SOL    MW410516   4.281   0.493   4.245
 2622SOL     OW10517   4.274   0.774   4.139
 2622SOL    HW210518   4.191   0.809   4.170
 2622SOL    HW310519   4.268   0.778   4.044
 2622SOL    MW410520   4.263   0.779   4.131
 2623SOL     OW10521   4.053   0.919   4.227
 2623SOL    HW210522   4.035   1.005   4.191
 2623SOL    HW310523   3.983   0.863   4.193
 2623SOL    MW410524   4.041   0.923   4.218
 2624SOL     OW10525   4.028   1.198   4.158
 2624SOL    HW210526   4.096   1.239   4.212
 2624SOL    HW310527   3.951   1.252   4.172
 2624SOL    MW410528   4.027   1.210   4.167
 2625SOL     OW10529   4.228   1.321   4.309
 2625SOL    HW210530   4.218   1.310   4.403
 2625SOL    HW310531   4.308   1.272   4.288
 2625SOL    MW410532   4.237   1.313   4.318
 2626SOL     OW10533   4.344   1.526   4.169
 2626SOL    HW210534   4.294   1.459   4.215
 2626SOL    HW310535   4.306   1.527   4.081
 2626SOL    MW410536   4.332   1.518   4.163
 2627SOL     OW10537   4.298   1.854   4.577
 2627SOL    HW210538   4.258   1.778   4.618
 2627SOL    HW310539   4.322   1.825   4.489
 2627SOL    MW410540   4.296   1.840   4.571
 2628SOL     OW10541   4.038   1.847   4.168
 2628SOL    HW210542   4.047   1.782   4.238
 2628SOL    HW310543   3.959   1.895   4.190
 2628SOL    MW410544   4.029   1.845   4.180
 2629SOL     OW10545   4.456   1.936   4.129
 2629SOL    HW210546   4.527   1.993   4.159
 2629SOL    HW310547   4.375   1.980   4.157
 2629SOL    MW410548   4.454   1.949   4.136
 2630SOL     OW10549   4.262   2.322   4.073
 2630SOL    HW210550   4.182   2.371   4.093
 2630SOL    HW310551   4.248   2.237   4.113
 2630SOL    MW410552   4.250   2.317   4.081
 2631SOL     OW10553   4.048   2.455   4.206
 2631SOL    HW210554   4.058   2.460   4.301
 2631SOL    HW310555   3.967   2.406   4.194
 2631SOL    MW410556   4.039   2.449   4.217
 2632SOL     OW10557   4.099   2.721   4.127
 2632SOL    HW210558   4.074   2.640   4.170
 2632SOL    HW310559   4.033   2.785   4.155
 2632SOL    MW410560   4.087   2.719   4.136
 2633SOL     OW10561   4.317   2.854   4.228
 2633SOL    HW210562   4.240   2.812   4.189
 2633SOL    HW310563   4.387   2.790   4.218
 2633SOL    MW410564   4.316   2.840   4.222
 2634SOL     OW10565   4.303   3.097   4.101
 2634SOL    HW210566   4.306   3.007   4.133
 2634SOL    HW310567   4.262   3.090   4.014
 2634SOL    MW410568   4.298   3.084   4.094
 2635SOL     OW10569   4.085   3.237   4.235
 2635SOL    HW210570   4.155   3.203   4.178
 2635SOL    HW310571   4.006   3.193   4.205
 2635SOL    MW410572   4.084   3.226   4.223
 2636SOL     OW10573   4.037   3.519   4.171
 2636SOL    HW210574   4.049   3.426   4.190
 2636SOL    HW310575   4.046   3.526   4.076
 2636SOL    MW410576   4.039   3.508   4.161
 2637SOL     OW10577   4.230   3.603   4.365
 2637SOL    HW210578   4.243   3.690   4.403
 2637SOL    HW310579   4.150   3.611   4.314
 2637SOL    MW410580   4.221   3.615   4.364
 2638SOL     OW10581   4.286   3.877   4.160
 2638SOL    HW210582   4.195   3.900   4.179
 2638SOL    HW310583   4.293   3.882   4.064
 2638SOL    MW410584   4.275   3.881   4.150
 2639SOL     OW10585   4.051   3.981   4.203
 2639SOL    HW210586   4.039   3.970   4.297
 2639SOL    HW310587   3.975   3.937   4.164
 2639SOL    MW410588   4.039   3.974   4.210
 2640SOL     OW10589   4.026   4.256   4.115
 2640SOL    HW210590   4.106   4.296   4.148
 2640SOL    HW310591   4.031   4.165   4.146
 2640SOL    MW410592   4.037   4.249   4.124
 2641SOL     OW10593   4.274   4.361   4.547
 2641SOL    HW210594   4.187   4.331   4.575
 2641SOL    HW310595   4.275   4.455   4.566
 2641SOL    MW410596   4.263   4.369   4.553
 2642SOL     OW10597   4.031   4.235   4.620
 2642SOL    HW210598   3.995   4.166   4.676
 2642SOL    HW310599   3.964   4.249   4.553
 2642SOL    MW410600   4.017   4.227   4.619
 2643SOL     OW10601   4.248   4.641   4.635
 2643SOL    HW210602   4.229   4.630   4.728
 2643SOL    HW310603   4.175   4.692   4.601
 2643SOL    MW410604   4.236   4.646   4.642
 2644SOL     OW10605   4.000   0.117   4.572
 2644SOL    HW210606   3.936   0.049   4.595
 2644SOL    HW310607   4.007   0.110   4.477
 2644SOL    MW410608   3.992   0.107   4.562
 2645SOL     OW10609   4.211   1.642   4.738
 2645SOL    HW210610   4.264   1.573   4.698
 2645SOL    HW310611   4.238   1.642   4.830
 2645SOL    MW410612   4.221   1.633   4.745
 2646SOL     OW10613   0.285   0.173   4.503
 2646SOL    HW210614   0.207   0.129   4.538
 2646SOL    HW310615   0.356   0.143   4.558
 2646SOL    MW410616   0.284   0.163   4.515
 2647SOL     OW10617   0.192   0.709   4.643
 2647SOL    HW210618   0.209   0.699   4.736
 2647SOL    HW310619   0.209   0.622   4.606
 2647SOL    MW410620   0.196   0.696   4.650
 2648SOL     OW10621   4.223   0.797   4.612
 2648SOL    HW210622   4.238   0.706   4.587
 2648SOL    HW310623   4.303   0.843   4.586
 2648SOL    MW410624   4.236   0.791   4.605
 2649SOL     OW10625   0.718   1.377   4.447
 2649SOL    HW210626   0.765   1.456   4.472
 2649SOL    HW310627   0.636   1.381   4.497
 2649SOL    MW410628   0.713   1.388   4.457
 2650SOL     OW10629   1.219   1.892   4.443
 2650SOL    HW210630   1.313   1.909   4.430
 2650SOL    HW310631   1.189   1.966   4.496
 2650SOL    MW410632   1.228   1.904   4.449
 2651SOL     OW10633   4.147   1.233   4.559
 2651SOL    HW210634   4.127   1.142   4.534
 2651SOL    HW310635   4.236   1.229   4.594
 2651SOL    MW410636   4.156   1.220   4.560
 2652SOL     OW10637   0.082   1.651   4.503
 2652SOL    HW210638   0.042   1.683   4.422
 2652SOL    HW310639   0.083   1.727   4.561
 2652SOL    MW410640   0.077   1.665   4.500
 2653SOL     OW10641   0.368   1.667   4.222
 2653SOL    HW210642   0.297   1.608   4.196
 2653SOL    HW310643   0.447   1.628   4.185
 2653SOL    MW410644   0.369   1.654   4.214
 2654SOL     OW10645   0.092   1.900   4.636
 2654SOL    HW210646   0.127   1.977   4.593
 2654SOL    HW310647  -0.002   1.919   4.649
 2654SOL    MW410648   0.084   1.912   4.632
 2655SOL     OW10649   4.277   2.336   4.595
 2655SOL    HW210650   4.368   2.357   4.574
 2655SOL    HW310651   4.228   2.414   4.568
 2655SOL    MW410652   4.282   2.349   4.588
 2656SOL     OW10653   0.600   2.930   4.733
 2656SOL    HW210654   0.634   2.902   4.648
 2656SOL    HW310655   0.596   2.849   4.784
 2656SOL    MW410656   0.604   2.916   4.728
 2657SOL     OW10657   0.362   3.017   4.609
 2657SOL    HW210658   0.443   2.987   4.651
 2657SOL    HW310659   0.378   3.109   4.588
 2657SOL    MW410660   0.375   3.025   4.612
 2658SOL     OW10661   0.061   2.359   4.495
 2658SOL    HW210662   0.031   2.369   4.405
 2658SOL    HW310663   0.131   2.424   4.505
 2658SOL    MW410664   0.066   2.369   4.485
 2659SOL     OW10665   3.695   3.324   4.474
 2659SOL    HW210666   3.666   3.302   4.386
 2659SOL    HW310667   3.728   3.241   4.510
 2659SOL    MW410668   3.696   3.310   4.467
 2660SOL     OW10669   0.456   3.276   4.568
 2660SOL    HW210670   0.371   3.314   4.592
 2660SOL    HW310671   0.498   3.259   4.652
 2660SOL    MW410672   0.450   3.279   4.583
 2661SOL     OW10673   4.053   3.947   4.477
 2661SOL    HW210674   3.990   3.875   4.480
 2661SOL    HW310675   4.037   3.996   4.558
 2661SOL    MW410676   4.042   3.944   4.488
 2662SOL     OW10677   4.472   0.079   4.489
 2662SOL    HW210678   4.391   0.058   4.536
 2662SOL    HW310679   4.488   0.172   4.509
 2662SOL    MW410680   4.463   0.089   4.498
 2663SOL     OW10681   3.297   0.435   4.559
 2663SOL    HW210682   3.325   0.449   4.469
 2663SOL    HW310683   3.206   0.405   4.551
 2663SOL    MW410684   3.288   0.433   4.546
 2664SOL     OW10685   3.890   4.015   4.726
 2664SOL    HW210686   3.838   3.938   4.702
 2664SOL    HW310687   3.826   4.079   4.756
 2664SOL    MW410688   3.875   4.013   4.727
 2665SOL     OW10689   3.710   3.798   4.649
 2665SOL    HW210690   3.773   3.739   4.607
 2665SOL    HW310691   3.643   3.740   4.684
 2665SOL    MW410692   3.710   3.783   4.648
 2666SOL     OW10693   0.531   4.468   4.544
 2666SOL    HW210694   0.599   4.403   4.563
 2666SOL    HW310695   0.451   4.417   4.535
 2666SOL    MW410696   0.529   4.453   4.545
 2667SOL     OW10697   3.971   0.644   4.731
 2667SOL    HW210698   4.057   0.681   4.713
 2667SOL    HW310699   3.913   0.720   4.736
 2667SOL    MW410700   3.975   0.659   4.729
 2668SOL     OW10701   1.087   0.739   4.515
 2668SOL    HW210702   1.007   0.791   4.509
 2668SOL    HW310703   1.058   0.649   4.502
 2668SOL    MW410704   1.073   0.734   4.512
 2669SOL     OW10705   0.526   0.073   4.595
 2669SOL    HW210706   0.620   0.081   4.577
 2669SOL    HW310707   0.511  -0.022   4.598
 2669SOL    MW410708   0.537   0.061   4.593
 2670SOL     OW10709   0.868   0.914   4.492
 2670SOL    HW210710   0.870   0.907   4.396
 2670SOL    HW310711   0.785   0.873   4.517
 2670SOL    MW410712   0.857   0.908   4.482
 2671SOL     OW10713   0.404   0.921   4.520
 2671SOL    HW210714   0.429   0.926   4.427
 2671SOL    HW310715   0.353   0.840   4.527
 2671SOL    MW410716   0.401   0.911   4.509
 2672SOL     OW10717   2.205   1.247   4.497
 2672SOL    HW210718   2.177   1.268   4.408
 2672SOL    HW310719   2.301   1.246   4.492
 2672SOL    MW410720   2.214   1.250   4.485
 2673SOL     OW10721   0.356   1.648   4.505
 2673SOL    HW210722   0.260   1.646   4.512
 2673SOL    HW310723   0.372   1.669   4.413
 2673SOL    MW410724   0.345   1.650   4.494
 2674SOL     OW10725   1.427   1.037   4.461
 2674SOL    HW210726   1.406   1.001   4.375
 2674SOL    HW310727   1.363   1.107   4.474
 2674SOL    MW410728   1.416   1.042   4.451
 2675SOL     OW10729   0.847   1.615   4.499
 2675SOL    HW210730   0.803   1.696   4.523
 2675SOL    HW310731   0.935   1.623   4.536
 2675SOL    MW410732   0.853   1.626   4.507
 2676SOL     OW10733   0.662   2.080   4.477
 2676SOL    HW210734   0.734   2.141   4.491
 2676SOL    HW310735   0.688   1.999   4.520
 2676SOL    MW410736   0.675   2.078   4.484
 2677SOL     OW10737   1.129   1.674   4.604
 2677SOL    HW210738   1.188   1.599   4.589
 2677SOL    HW310739   1.168   1.745   4.552
 2677SOL    MW410740   1.142   1.673   4.595
 2678SOL     OW10741   0.430   2.183   4.605
 2678SOL    HW210742   0.508   2.155   4.557
 2678SOL    HW310743   0.443   2.276   4.622
 2678SOL    MW410744   0.442   2.191   4.601
 2679SOL     OW10745   1.114   2.599   4.745
 2679SOL    HW210746   1.029   2.625   4.781
 2679SOL    HW310747   1.164   2.680   4.739
 2679SOL    MW410748   1.110   2.613   4.749
 2680SOL     OW10749   0.741   2.545   4.608
 2680SOL    HW210750   0.663   2.503   4.643
 2680SOL    HW310751   0.786   2.476   4.559
 2680SOL    MW410752   0.736   2.531   4.606
 2681SOL     OW10753   0.980   3.189   4.524
 2681SOL    HW210754   1.070   3.221   4.529
 2681SOL    HW310755   0.930   3.248   4.581
 2681SOL    MW410756   0.985   3.201   4.533
 2682SOL     OW10757   0.845   3.377   4.716
 2682SOL    HW210758   0.788   3.419   4.651
 2682SOL    HW310759   0.924   3.431   4.717
 2682SOL    MW410760   0.848   3.390   4.708
 2683SOL     OW10761   1.221   4.547   4.546
 2683SOL    HW210762   1.301   4.499   4.567
 2683SOL    HW310763   1.252   4.631   4.513
 2683SOL    MW410764   1.236   4.552   4.545
 2684SOL     OW10765   0.289   2.522   4.517
 2684SOL    HW210766   0.321   2.495   4.431
 2684SOL    HW310767   0.273   2.616   4.507
 2684SOL    MW410768   0.291   2.531   4.504
 2685SOL     OW10769   4.421   3.275   4.563
 2685SOL    HW210770   4.342   3.327   4.578
 2685SOL    HW310771   4.420   3.255   4.470
 2685SOL    MW410772   4.410   3.279   4.553
 2686SOL     OW10773   1.355   3.487   4.634
 2686SOL    HW210774   1.442   3.470   4.671
 2686SOL    HW310775   1.334   3.408   4.585
 2686SOL    MW410776   1.364   3.474   4.633
 2687SOL     OW10777   0.028   4.245   4.506
 2687SOL    HW210778   0.018   4.155   4.536
 2687SOL    HW310779  -0.054   4.288   4.531
 2687SOL    MW410780   0.016   4.239   4.513
 2688SOL     OW10781   0.220   3.920   4.383
 2688SOL    HW210782   0.215   3.826   4.365
 2688SOL    HW310783   0.172   3.932   4.464
 2688SOL    MW410784   0.213   3.909   4.391
 2689SOL     OW10785   0.165   4.478   4.515
 2689SOL    HW210786   0.093   4.538   4.498
 2689SOL    HW310787   0.123   4.396   4.538
 2689SOL    MW410788   0.150   4.475   4.516
 2690SOL     OW10789   0.518   0.371   4.653
 2690SOL    HW210790   0.579   0.403   4.586
 2690SOL    HW310791   0.529   0.276   4.652
 2690SOL    MW410792   0.527   0.363   4.644
 2691SOL     OW10793   0.947   4.567   4.669
 2691SOL    HW210794   0.901   4.495   4.626
 2691SOL    HW310795   1.038   4.556   4.640
 2691SOL    MW410796   0.953   4.556   4.659
 2692SOL     OW10797   0.447   0.605   4.772
 2692SOL    HW210798   0.482   0.590   4.860
 2692SOL    HW310799   0.461   0.522   4.727
 2692SOL    MW410800   0.453   0.592   4.778
 2693SOL     OW10801   1.350   0.797   4.615
 2693SOL    HW210802   1.373   0.886   4.586
 2693SOL    HW310803   1.263   0.782   4.579
 2693SOL    MW410804   1.342   0.807   4.607
 2694SOL     OW10805   1.841   1.097   4.654
 2694SOL    HW210806   1.825   1.076   4.746
 2694SOL    HW310807   1.888   1.180   4.656
 2694SOL    MW410808   1.845   1.105   4.667
 2695SOL     OW10809   0.295   1.195   4.543
 2695SOL    HW210810   0.343   1.112   4.539
 2695SOL    HW310811   0.362   1.260   4.565
 2695SOL    MW410812   0.310   1.192   4.546
 2696SOL     OW10813   0.977   1.900   4.707
 2696SOL    HW210814   1.025   1.819   4.688
 2696SOL    HW310815   1.038   1.970   4.685
 2696SOL    MW410816   0.991   1.899   4.701
 2697SOL     OW10817   0.940   1.185   4.512
 2697SOL    HW210818   0.867   1.246   4.500
 2697SOL    HW310819   0.900   1.098   4.512
 2697SOL    MW410820   0.925   1.182   4.511
 2698SOL     OW10821   1.991   1.310   4.659
 2698SOL    HW210822   2.078   1.292   4.623
 2698SOL    HW310823   1.982   1.405   4.655
 2698SOL    MW410824   2.001   1.320   4.654
 2699SOL     OW10825   1.221   1.230   4.508
 2699SOL    HW210826   1.130   1.208   4.529
 2699SOL    HW310827   1.234   1.316   4.546
 2699SOL    MW410828   1.210   1.238   4.515
 2700SOL     OW10829   1.117   2.354   4.571
 2700SOL    HW210830   1.105   2.426   4.633
 2700SOL    HW310831   1.207   2.365   4.540
 2700SOL    MW410832   1.128   2.365   4.575
 2701SOL     OW10833   1.602   2.472   4.806
 2701SOL    HW210834   1.656   2.530   4.860
 2701SOL    HW310835   1.546   2.530   4.756
 2701SOL    MW410836   1.602   2.487   4.807
 2702SOL     OW10837   1.448   3.047   4.684
 2702SOL    HW210838   1.452   3.113   4.752
 2702SOL    HW310839   1.539   3.031   4.659
 2702SOL    MW410840   1.461   3.054   4.689
 2703SOL     OW10841   1.600   3.365   4.603
 2703SOL    HW210842   1.625   3.283   4.647
 2703SOL    HW310843   1.623   3.351   4.511
 2703SOL    MW410844   1.606   3.352   4.597
 2704SOL     OW10845   0.766   2.815   4.520
 2704SOL    HW210846   0.857   2.844   4.514
 2704SOL    HW310847   0.771   2.725   4.554
 2704SOL    MW410848   0.779   2.807   4.524
 2705SOL     OW10849   0.820   4.336   4.556
 2705SOL    HW210850   0.786   4.360   4.470
 2705SOL    HW310851   0.879   4.263   4.538
 2705SOL    MW410852   0.823   4.329   4.542
 2706SOL     OW10853   1.257   2.828   4.638
 2706SOL    HW210854   1.182   2.867   4.593
 2706SOL    HW310855   1.319   2.900   4.648
 2706SOL    MW410856   1.255   2.842   4.634
 2707SOL     OW10857   1.019   2.898   4.517
 2707SOL    HW210858   1.013   2.993   4.532
 2707SOL    HW310859   1.042   2.891   4.424
 2707SOL    MW410860   1.021   2.910   4.506
 2708SOL     OW10861   1.782   3.579   4.544
 2708SOL    HW210862   1.862   3.530   4.566
 2708SOL    HW310863   1.711   3.515   4.554
 2708SOL    MW410864   1.783   3.564   4.548
 2709SOL     OW10865   0.487   3.716   4.635
 2709SOL    HW210866   0.413   3.716   4.695
 2709SOL    HW310867   0.491   3.806   4.602
 2709SOL    MW410868   0.478   3.728   4.638
 2710SOL     OW10869   0.199   3.369   4.687
 2710SOL    HW210870   0.179   3.345   4.777
 2710SOL    HW310871   0.122   3.344   4.637
 2710SOL    MW410872   0.186   3.362   4.692
 2711SOL     OW10873   0.798   0.120   4.536
 2711SOL    HW210874   0.838   0.134   4.450
 2711SOL    HW310875   0.841   0.042   4.570
 2711SOL    MW410876   0.809   0.112   4.529
 2712SOL     OW10877   1.006   4.118   4.441
 2712SOL    HW210878   1.014   4.168   4.360
 2712SOL    HW310879   1.094   4.085   4.457
 2712SOL    MW410880   1.018   4.120   4.432
 2713SOL     OW10881   2.268   3.955   4.560
 2713SOL    HW210882   2.258   3.981   4.468
 2713SOL    HW310883   2.209   3.881   4.570
 2713SOL    MW410884   2.259   3.949   4.549
 2714SOL     OW10885   1.709   4.560   4.566
 2714SOL    HW210886   1.782   4.504   4.539
 2714SOL    HW310887   1.633   4.503   4.564
 2714SOL    MW410888   1.709   4.545   4.562
 2715SOL     OW10889   1.471   4.397   4.530
 2715SOL    HW210890   1.485   4.303   4.546
 2715SOL    HW310891   1.502   4.410   4.440
 2715SOL    MW410892   1.477   4.386   4.520
 2716SOL     OW10893   0.675   0.523   4.472
 2716SOL    HW210894   0.666   0.614   4.501
 2716SOL    HW310895   0.671   0.527   4.377
 2716SOL    MW410896   0.673   0.535   4.463
 2717SOL     OW10897   1.725   0.202   4.524
 2717SOL    HW210898   1.726   0.116   4.566
 2717SOL    HW310899   1.642   0.240   4.551
 2717SOL    MW410900   1.714   0.195   4.533
 2718SOL     OW10901   0.980   0.494   4.476
 2718SOL    HW210902   0.885   0.485   4.476
 2718SOL    HW310903   1.011   0.417   4.524
 2718SOL    MW410904   0.971   0.482   4.482
 2719SOL     OW10905   1.704   1.759   4.456
 2719SOL    HW210906   1.696   1.678   4.506
 2719SOL    HW310907   1.741   1.731   4.372
 2719SOL    MW410908   1.708   1.744   4.451
 2720SOL     OW10909   0.626   0.778   4.610
 2720SOL    HW210910   0.552   0.831   4.579
 2720SOL    HW310911   0.587   0.718   4.673
 2720SOL    MW410912   0.611   0.777   4.614
 2721SOL     OW10913   1.483   0.338   4.596
 2721SOL    HW210914   1.495   0.430   4.574
 2721SOL    HW310915   1.476   0.337   4.692
 2721SOL    MW410916   1.484   0.350   4.606
 2722SOL     OW10917   1.625   1.213   4.495
 2722SOL    HW210918   1.553   1.150   4.481
 2722SOL    HW310919   1.686   1.166   4.551
 2722SOL    MW410920   1.623   1.198   4.501
 2723SOL     OW10921   1.342   1.494   4.526
 2723SOL    HW210922   1.428   1.520   4.557
 2723SOL    HW310923   1.324   1.552   4.452
 2723SOL    MW410924   1.351   1.505   4.520
 2724SOL     OW10925   1.471   2.643   4.638
 2724SOL    HW210926   1.405   2.712   4.636
 2724SOL    HW310927   1.433   2.572   4.586
 2724SOL    MW410928   1.457   2.642   4.631
 2725SOL     OW10929   2.340   2.637   4.327
 2725SOL    HW210930   2.298   2.590   4.255
 2725SOL    HW310931   2.272   2.696   4.360
 2725SOL    MW410932   2.325   2.639   4.322
 2726SOL     OW10933   0.854   2.313   4.467
 2726SOL    HW210934   0.944   2.317   4.499
 2726SOL    HW310935   0.859   2.344   4.377
 2726SOL    MW410936   0.867   2.317   4.460
 2727SOL     OW10937   1.269   3.988   4.461
 2727SOL    HW210938   1.348   4.027   4.496
 2727SOL    HW310939   1.280   3.894   4.476
 2727SOL    MW410940   1.281   3.980   4.468
 2728SOL     OW10941   1.354   2.443   4.193
 2728SOL    HW210942   1.346   2.535   4.165
 2728SOL    HW310943   1.447   2.423   4.184
 2728SOL    MW410944   1.365   2.453   4.188
 2729SOL     OW10945   1.365   2.451   4.479
 2729SOL    HW210946   1.346   2.456   4.385
 2729SOL    HW310947   1.429   2.380   4.487
 2729SOL    MW410948   1.371   2.442   4.468
 2730SOL     OW10949   1.265   3.232   4.517
 2730SOL    HW210950   1.315   3.163   4.560
 2730SOL    HW310951   1.305   3.239   4.430
 2730SOL    MW410952   1.277   3.224   4.511
 2731SOL     OW10953   0.603   3.200   4.786
 2731SOL    HW210954   0.688   3.241   4.801
 2731SOL    HW310955   0.622   3.107   4.774
 2731SOL    MW410956   0.616   3.193   4.786
 2732SOL     OW10957   0.626   3.499   4.534
 2732SOL    HW210958   0.566   3.426   4.542
 2732SOL    HW310959   0.575   3.576   4.558
 2732SOL    MW410960   0.612   3.499   4.538
 2733SOL     OW10961   2.276   3.470   4.638
 2733SOL    HW210962   2.313   3.383   4.626
 2733SOL    HW310963   2.197   3.471   4.584
 2733SOL    MW410964   2.271   3.459   4.629
 2734SOL     OW10965   2.002   3.413   4.542
 2734SOL    HW210966   2.008   3.328   4.586
 2734SOL    HW310967   2.007   3.393   4.449
 2734SOL    MW410968   2.004   3.399   4.536
 2735SOL     OW10969   2.381   3.181   4.570
 2735SOL    HW210970   2.333   3.100   4.585
 2735SOL    HW310971   2.471   3.153   4.553
 2735SOL    MW410972   2.387   3.167   4.570
 2736SOL     OW10973   1.077   3.496   4.621
 2736SOL    HW210974   1.072   3.556   4.547
 2736SOL    HW310975   1.169   3.495   4.645
 2736SOL    MW410976   1.088   3.504   4.615
 2737SOL     OW10977   1.794   4.081   4.500
 2737SOL    HW210978   1.802   4.054   4.408
 2737SOL    HW310979   1.833   4.010   4.550
 2737SOL    MW410980   1.800   4.068   4.494
 2738SOL     OW10981   1.951   0.381   4.480
 2738SOL    HW210982   1.883   0.320   4.509
 2738SOL    HW310983   2.022   0.369   4.543
 2738SOL    MW410984   1.951   0.371   4.492
 2739SOL     OW10985   1.024   0.272   4.636
 2739SOL    HW210986   0.950   0.211   4.630
 2739SOL    HW310987   1.011   0.319   4.718
 2739SOL    MW410988   1.013   0.270   4.646
 2740SOL     OW10989   1.273   0.167   4.519
 2740SOL    HW210990   1.327   0.237   4.554
 2740SOL    HW310991   1.187   0.182   4.559
 2740SOL    MW410992   1.268   0.178   4.529
 2741SOL     OW10993   2.283   0.113   4.500
 2741SOL    HW210994   2.272   0.020   4.519
 2741SOL    HW310995   2.269   0.121   4.406
 2741SOL    MW410996   2.280   0.102   4.490
 2742SOL     OW10997   1.937   0.900   4.497
 2742SOL    HW210998   1.898   0.962   4.559
 2742SOL    HW310999   1.895   0.921   4.413
 2742SOL    MW411000   1.927   0.911   4.494
 2743SOL     OW11001   1.543   0.594   4.542
 2743SOL    HW211002   1.488   0.660   4.583
 2743SOL    HW311003   1.631   0.632   4.543
 2743SOL    MW411004   1.548   0.607   4.548
 2744SOL     OW11005   2.120   1.721   4.459
 2744SOL    HW211006   2.195   1.758   4.506
 2744SOL    HW311007   2.150   1.714   4.368
 2744SOL    MW411008   2.134   1.725   4.453
 2745SOL     OW11009   0.731   1.839   4.596
 2745SOL    HW211010   0.804   1.855   4.656
 2745SOL    HW311011   0.660   1.807   4.651
 2745SOL    MW411012   0.731   1.837   4.611
 2746SOL     OW11013   1.662   1.496   4.601
 2746SOL    HW211014   1.644   1.408   4.568
 2746SOL    HW311015   1.756   1.496   4.621
 2746SOL    MW411016   1.672   1.485   4.599
 2747SOL     OW11017   1.173   2.102   4.627
 2747SOL    HW211018   1.255   2.107   4.676
 2747SOL    HW311019   1.140   2.192   4.626
 2747SOL    MW411020   1.179   2.114   4.633
 2748SOL     OW11021   1.492   1.953   4.446
 2748SOL    HW211022   1.536   2.010   4.382
 2748SOL    HW311023   1.552   1.880   4.458
 2748SOL    MW411024   1.506   1.951   4.439
 2749SOL     OW11025   2.226   2.459   4.140
 2749SOL    HW211026   2.180   2.399   4.082
 2749SOL    HW311027   2.319   2.437   4.128
 2749SOL    MW411028   2.232   2.448   4.131
 2750SOL     OW11029   1.451   2.057   4.704
 2750SOL    HW211030   1.456   2.004   4.624
 2750SOL    HW311031   1.494   2.140   4.681
 2750SOL    MW411032   1.458   2.061   4.690
 2751SOL     OW11033   3.046   3.286   4.803
 2751SOL    HW211034   3.134   3.311   4.778
 2751SOL    HW311035   3.045   3.190   4.797
 2751SOL    MW411036   3.057   3.277   4.799
 2752SOL     OW11037   1.708   3.094   4.639
 2752SOL    HW211038   1.735   3.089   4.548
 2752SOL    HW311039   1.788   3.119   4.686
 2752SOL    MW411040   1.722   3.097   4.633
 2753SOL     OW11041   1.818   3.854   4.664
 2753SOL    HW211042   1.802   3.770   4.621
 2753SOL    HW311043   1.901   3.842   4.710
 2753SOL    MW411044   1.827   3.841   4.664
 2754SOL     OW11045   2.594   2.916   4.747
 2754SOL    HW211046   2.524   2.851   4.744
 2754SOL    HW311047   2.668   2.874   4.704
 2754SOL    MW411048   2.595   2.902   4.741
 2755SOL     OW11049   2.248   2.790   4.943
 2755SOL    HW211050   2.324   2.808   4.998
 2755SOL    HW311051   2.220   2.877   4.912
 2755SOL    MW411052   2.254   2.804   4.946
 2756SOL     OW11053   2.780   3.945   4.500
 2756SOL    HW211054   2.752   3.938   4.409
 2756SOL    HW311055   2.701   3.930   4.551
 2756SOL    MW411056   2.766   3.942   4.494
 2757SOL     OW11057   2.557   3.883   4.628
 2757SOL    HW211058   2.544   3.788   4.622
 2757SOL    HW311059   2.470   3.920   4.612
 2757SOL    MW411060   2.544   3.875   4.625
 2758SOL     OW11061   2.503   3.614   4.567
 2758SOL    HW211062   2.432   3.557   4.597
 2758SOL    HW311063   2.476   3.642   4.480
 2758SOL    MW411064   2.490   3.610   4.560
 2759SOL     OW11065   2.082   3.747   4.594
 2759SOL    HW211066   2.139   3.674   4.618
 2759SOL    HW311067   2.036   3.717   4.516
 2759SOL    MW411068   2.084   3.733   4.587
 2760SOL     OW11069   1.910   4.348   4.510
 2760SOL    HW211070   1.863   4.267   4.491
 2760SOL    HW311071   1.986   4.320   4.560
 2760SOL    MW411072   1.914   4.334   4.514
 2761SOL     OW11073   1.333   3.695   4.445
 2761SOL    HW211074   1.247   3.670   4.412
 2761SOL    HW311075   1.353   3.630   4.512
 2761SOL    MW411076   1.324   3.683   4.450
 2762SOL     OW11077   2.156   0.313   4.640
 2762SOL    HW211078   2.196   0.236   4.599
 2762SOL    HW311079   2.229   0.374   4.652
 2762SOL    MW411080   2.171   0.311   4.636
 2763SOL     OW11081   2.427   0.867   4.641
 2763SOL    HW211082   2.421   0.904   4.729
 2763SOL    HW311083   2.360   0.913   4.590
 2763SOL    MW411084   2.418   0.878   4.645
 2764SOL     OW11085   1.952   1.584   4.635
 2764SOL    HW211086   2.011   1.623   4.572
 2764SOL    HW311087   1.982   1.615   4.720
 2764SOL    MW411088   1.963   1.593   4.638
 2765SOL     OW11089   2.652   0.484   4.325
 2765SOL    HW211090   2.568   0.515   4.292
 2765SOL    HW311091   2.706   0.563   4.331
 2765SOL    MW411092   2.648   0.499   4.321
 2766SOL     OW11093   2.810   0.709   4.350
 2766SOL    HW211094   2.874   0.713   4.422
 2766SOL    HW311095   2.862   0.725   4.271
 2766SOL    MW411096   2.825   0.712   4.349
 2767SOL     OW11097   3.254   1.122   4.350
 2767SOL    HW211098   3.230   1.107   4.442
 2767SOL    HW311099   3.266   1.216   4.343
 2767SOL    MW411100   3.253   1.132   4.362
 2768SOL     OW11101   2.211   0.967   4.496
 2768SOL    HW211102   2.198   1.059   4.519
 2768SOL    HW311103   2.124   0.928   4.503
 2768SOL    MW411104   2.198   0.974   4.500
 2769SOL     OW11105   2.616   1.460   4.610
 2769SOL    HW211106   2.615   1.553   4.629
 2769SOL    HW311107   2.705   1.432   4.633
 2769SOL    MW411108   2.628   1.468   4.616
 2770SOL     OW11109   2.601   1.740   4.670
 2770SOL    HW211110   2.683   1.758   4.623
 2770SOL    HW311111   2.600   1.805   4.741
 2770SOL    MW411112   2.612   1.751   4.673
 2771SOL     OW11113   2.370   1.823   4.540
 2771SOL    HW211114   2.436   1.788   4.599
 2771SOL    HW311115   2.418   1.843   4.459
 2771SOL    MW411116   2.385   1.821   4.537
 2772SOL     OW11117   2.154   2.181   4.797
 2772SOL    HW211118   2.136   2.273   4.816
 2772SOL    HW311119   2.067   2.143   4.782
 2772SOL    MW411120   2.140   2.188   4.797
 2773SOL     OW11121   2.359   2.088   4.621
 2773SOL    HW211122   2.340   2.001   4.587
 2773SOL    HW311123   2.288   2.106   4.683
 2773SOL    MW411124   2.347   2.079   4.625
 2774SOL     OW11125   2.721   2.573   4.411
 2774SOL    HW211126   2.634   2.554   4.447
 2774SOL    HW311127   2.725   2.668   4.408
 2774SOL    MW411128   2.710   2.583   4.415
 2775SOL     OW11129   1.634   2.762   4.439
 2775SOL    HW211130   1.684   2.693   4.395
 2775SOL    HW311131   1.593   2.718   4.514
 2775SOL    MW411132   1.635   2.747   4.443
 2776SOL     OW11133   2.215   3.026   4.813
 2776SOL    HW211134   2.281   3.092   4.832
 2776SOL    HW311135   2.235   2.995   4.725
 2776SOL    MW411136   2.226   3.030   4.804
 2777SOL     OW11137   2.760   3.505   4.531
 2777SOL    HW211138   2.775   3.473   4.620
 2777SOL    HW311139   2.675   3.549   4.535
 2777SOL    MW411140   2.751   3.507   4.544
 2778SOL     OW11141   2.677   3.149   4.617
 2778SOL    HW211142   2.722   3.213   4.673
 2778SOL    HW311143   2.637   3.088   4.679
 2778SOL    MW411144   2.678   3.149   4.633
 2779SOL     OW11145   1.520   4.132   4.571
 2779SOL    HW211146   1.504   4.113   4.663
 2779SOL    HW311147   1.604   4.090   4.552
 2779SOL    MW411148   1.529   4.124   4.580
 2780SOL     OW11149   2.935   4.166   4.403
 2780SOL    HW211150   2.863   4.104   4.409
 2780SOL    HW311151   2.989   4.133   4.330
 2780SOL    MW411152   2.933   4.153   4.395
 2781SOL     OW11153   1.985   3.162   4.705
 2781SOL    HW211154   2.009   3.115   4.625
 2781SOL    HW311155   2.046   3.128   4.771
 2781SOL    MW411156   1.997   3.151   4.703
 2782SOL     OW11157   3.249   3.954   4.507
 2782SOL    HW211158   3.199   3.994   4.578
 2782SOL    HW311159   3.225   3.862   4.510
 2782SOL    MW411160   3.239   3.947   4.517
 2783SOL     OW11161   3.098   4.111   4.666
 2783SOL    HW211162   3.120   4.202   4.685
 2783SOL    HW311163   3.015   4.116   4.617
 2783SOL    MW411164   3.090   4.124   4.662
 2784SOL     OW11165   2.196   4.234   4.615
 2784SOL    HW211166   2.269   4.181   4.582
 2784SOL    HW311167   2.147   4.175   4.672
 2784SOL    MW411168   2.199   4.219   4.618
 2785SOL     OW11169   2.304   4.479   4.523
 2785SOL    HW211170   2.265   4.400   4.558
 2785SOL    HW311171   2.350   4.451   4.444
 2785SOL    MW411172   2.305   4.465   4.517
 2786SOL     OW11173   2.984   0.501   4.221
 2786SOL    HW211174   3.063   0.474   4.174
 2786SOL    HW311175   2.915   0.446   4.186
 2786SOL    MW411176   2.986   0.490   4.210
 2787SOL     OW11177   2.948   4.521   4.803
 2787SOL    HW211178   3.011   4.460   4.767
 2787SOL    HW311179   2.870   4.511   4.748
 2787SOL    MW411180   2.946   4.512   4.791
 2788SOL     OW11181   2.478   4.584   4.741
 2788SOL    HW211182   2.409   4.546   4.686
 2788SOL    HW311183   2.433   4.611   4.821
 2788SOL    MW411184   2.463   4.582   4.744
 2789SOL     OW11185   2.923   1.023   4.563
 2789SOL    HW211186   2.954   0.933   4.557
 2789SOL    HW311187   2.829   1.017   4.550
 2789SOL    MW411188   2.915   1.010   4.561
 2790SOL     OW11189   3.034   0.333   4.844
 2790SOL    HW211190   3.087   0.379   4.909
 2790SOL    HW311191   2.987   0.403   4.798
 2790SOL    MW411192   3.035   0.349   4.847
 2791SOL     OW11193   1.828   0.649   4.542
 2791SOL    HW211194   1.890   0.578   4.528
 2791SOL    HW311195   1.873   0.727   4.510
 2791SOL    MW411196   1.842   0.650   4.536
 2792SOL     OW11197   2.649   1.034   4.552
 2792SOL    HW211198   2.590   0.979   4.603
 2792SOL    HW311199   2.627   1.015   4.460
 2792SOL    MW411200   2.638   1.025   4.546
 2793SOL     OW11201   3.081   1.481   4.552
 2793SOL    HW211202   3.003   1.428   4.565
 2793SOL    HW311203   3.124   1.442   4.476
 2793SOL    MW411204   3.077   1.469   4.543
 2794SOL     OW11205   3.075   1.745   4.486
 2794SOL    HW211206   2.982   1.763   4.499
 2794SOL    HW311207   3.090   1.663   4.532
 2794SOL    MW411208   3.065   1.737   4.494
 2795SOL     OW11209   2.810   1.829   4.507
 2795SOL    HW211210   2.801   1.924   4.514
 2795SOL    HW311211   2.786   1.809   4.417
 2795SOL    MW411212   2.806   1.839   4.496
 2796SOL     OW11213   2.541   2.248   4.489
 2796SOL    HW211214   2.526   2.338   4.516
 2796SOL    HW311215   2.499   2.195   4.558
 2796SOL    MW411216   2.533   2.253   4.502
 2797SOL     OW11217   2.781   2.114   4.501
 2797SOL    HW211218   2.702   2.166   4.504
 2797SOL    HW311219   2.807   2.114   4.409
 2797SOL    MW411220   2.774   2.121   4.489
 2798SOL     OW11221   3.058   2.324   4.489
 2798SOL    HW211222   2.983   2.264   4.483
 2798SOL    HW311223   3.062   2.365   4.402
 2798SOL    MW411224   3.048   2.322   4.477
 2799SOL     OW11225   2.390   2.723   4.704
 2799SOL    HW211226   2.336   2.717   4.783
 2799SOL    HW311227   2.345   2.788   4.650
 2799SOL    MW411228   2.377   2.731   4.707
 2800SOL     OW11229   3.553   3.502   4.610
 2800SOL    HW211230   3.464   3.471   4.597
 2800SOL    HW311231   3.607   3.447   4.553
 2800SOL    MW411232   3.549   3.491   4.601
 2801SOL     OW11233   2.739   2.848   4.363
 2801SOL    HW211234   2.779   2.873   4.280
 2801SOL    HW311235   2.647   2.873   4.354
 2801SOL    MW411236   2.732   2.855   4.351
 2802SOL     OW11237   2.780   3.353   4.783
 2802SOL    HW211238   2.869   3.321   4.799
 2802SOL    HW311239   2.753   3.391   4.867
 2802SOL    MW411240   2.789   3.354   4.796
 2803SOL     OW11241   3.052   3.022   4.659
 2803SOL    HW211242   3.137   2.978   4.665
 2803SOL    HW311243   2.988   2.954   4.677
 2803SOL    MW411244   3.055   3.007   4.662
 2804SOL     OW11245   2.634   0.468   4.607
 2804SOL    HW211246   2.650   0.478   4.513
 2804SOL    HW311247   2.610   0.376   4.618
 2804SOL    MW411248   2.633   0.457   4.596
 2805SOL     OW11249   3.717   4.210   4.788
 2805SOL    HW211250   3.647   4.163   4.834
 2805SOL    HW311251   3.678   4.235   4.704
 2805SOL    MW411252   3.702   4.207   4.783
 2806SOL     OW11253   3.929   3.682   4.471
 2806SOL    HW211254   3.888   3.650   4.390
 2806SOL    HW311255   3.924   3.609   4.531
 2806SOL    MW411256   3.923   3.668   4.468
 2807SOL     OW11257   2.976   3.686   4.445
 2807SOL    HW211258   2.919   3.622   4.487
 2807SOL    HW311259   2.934   3.770   4.462
 2807SOL    MW411260   2.963   3.689   4.453
 2808SOL     OW11261   3.127   4.373   4.632
 2808SOL    HW211262   3.070   4.355   4.558
 2808SOL    HW311263   3.210   4.400   4.593
 2808SOL    MW411264   3.131   4.374   4.617
 2809SOL     OW11265   3.007   0.393   4.468
 2809SOL    HW211266   3.008   0.426   4.379
 2809SOL    HW311267   3.007   0.298   4.459
 2809SOL    MW411268   3.007   0.385   4.455
 2810SOL     OW11269   3.000   0.748   4.576
 2810SOL    HW211270   3.095   0.734   4.567
 2810SOL    HW311271   2.970   0.672   4.626
 2810SOL    MW411272   3.009   0.736   4.581
 2811SOL     OW11273   2.377   0.570   4.566
 2811SOL    HW211274   2.463   0.535   4.590
 2811SOL    HW311275   2.370   0.653   4.612
 2811SOL    MW411276   2.387   0.576   4.575
 2812SOL     OW11277   2.477   1.244   4.529
 2812SOL    HW211278   2.545   1.177   4.531
 2812SOL    HW311279   2.520   1.323   4.561
 2812SOL    MW411280   2.491   1.246   4.533
 2813SOL     OW11281   2.732   4.539   4.586
 2813SOL    HW211282   2.655   4.557   4.639
 2813SOL    HW311283   2.756   4.624   4.549
 2813SOL    MW411284   2.725   4.552   4.588
 2814SOL     OW11285   2.742   0.112   4.446
 2814SOL    HW211286   2.699   0.119   4.361
 2814SOL    HW311287   2.676   0.140   4.509
 2814SOL    MW411288   2.728   0.116   4.443
 2815SOL     OW11289   3.289   1.425   4.721
 2815SOL    HW211290   3.289   1.329   4.723
 2815SOL    HW311291   3.214   1.448   4.666
 2815SOL    MW411292   3.279   1.416   4.714
 2816SOL     OW11293   2.859   1.321   4.579
 2816SOL    HW211294   2.866   1.228   4.600
 2816SOL    HW311295   2.860   1.324   4.483
 2816SOL    MW411296   2.860   1.309   4.569
 2817SOL     OW11297   4.059   0.980   4.498
 2817SOL    HW211298   4.055   0.960   4.404
 2817SOL    HW311299   4.111   0.909   4.535
 2817SOL    MW411300   4.065   0.968   4.490
 2818SOL     OW11301   3.494   1.468   4.519
 2818SOL    HW211302   3.534   1.555   4.511
 2818SOL    HW311303   3.436   1.476   4.594
 2818SOL    MW411304   3.492   1.481   4.528
 2819SOL     OW11305   3.329   1.857   4.553
 2819SOL    HW211306   3.311   1.950   4.570
 2819SOL    HW311307   3.244   1.819   4.532
 2819SOL    MW411308   3.315   1.864   4.553
 2820SOL     OW11309   3.310   2.155   4.517
 2820SOL    HW211310   3.220   2.185   4.520
 2820SOL    HW311311   3.323   2.125   4.427
 2820SOL    MW411312   3.300   2.155   4.506
 2821SOL     OW11313   3.554   1.721   4.493
 2821SOL    HW211314   3.480   1.774   4.521
 2821SOL    HW311315   3.564   1.742   4.400
 2821SOL    MW411316   3.546   1.731   4.484
 2822SOL     OW11317   2.844   2.815   4.643
 2822SOL    HW211318   2.818   2.843   4.555
 2822SOL    HW311319   2.896   2.736   4.628
 2822SOL    MW411320   2.848   2.808   4.629
 2823SOL     OW11321   3.265   2.637   4.498
 2823SOL    HW211322   3.171   2.631   4.519
 2823SOL    HW311323   3.267   2.677   4.411
 2823SOL    MW411324   3.253   2.641   4.489
 2824SOL     OW11325   2.982   2.582   4.546
 2824SOL    HW211326   2.900   2.584   4.496
 2824SOL    HW311327   3.010   2.490   4.541
 2824SOL    MW411328   2.975   2.570   4.539
 2825SOL     OW11329   3.733   3.054   4.556
 2825SOL    HW211330   3.754   3.080   4.646
 2825SOL    HW311331   3.801   2.990   4.534
 2825SOL    MW411332   3.745   3.049   4.565
 2826SOL     OW11333   3.403   3.183   4.716
 2826SOL    HW211334   3.379   3.092   4.698
 2826SOL    HW311335   3.495   3.189   4.692
 2826SOL    MW411336   3.412   3.172   4.711
 2827SOL     OW11337   3.480   3.011   4.455
 2827SOL    HW211338   3.494   3.048   4.368
 2827SOL    HW311339   3.565   3.017   4.498
 2827SOL    MW411340   3.493   3.017   4.449
 2828SOL     OW11341   3.938   2.849   4.505
 2828SOL    HW211342   3.918   2.767   4.552
 2828SOL    HW311343   4.034   2.851   4.501
 2828SOL    MW411344   3.948   2.838   4.511
 2829SOL     OW11345   3.636   3.373   4.852
 2829SOL    HW211346   3.543   3.357   4.868
 2829SOL    HW311347   3.637   3.431   4.776
 2829SOL    MW411348   3.623   3.378   4.844
 2830SOL     OW11349   3.624   4.232   4.528
 2830SOL    HW211350   3.713   4.237   4.492
 2830SOL    HW311351   3.595   4.143   4.506
 2830SOL    MW411352   3.632   4.221   4.520
 2831SOL     OW11353   3.019   0.114   4.433
 2831SOL    HW211354   2.924   0.112   4.446
 2831SOL    HW311355   3.055   0.081   4.515
 2831SOL    MW411356   3.011   0.110   4.445
 2832SOL     OW11357   3.084   0.084   4.703
 2832SOL    HW211358   3.032   0.011   4.737
 2832SOL    HW311359   3.075   0.153   4.768
 2832SOL    MW411360   3.076   0.083   4.716
 2833SOL     OW11361   3.411   4.412   4.507
 2833SOL    HW211362   3.481   4.347   4.514
 2833SOL    HW311363   3.451   4.494   4.536
 2833SOL    MW411364   3.425   4.414   4.512
 2834SOL     OW11365   3.530   3.977   4.477
 2834SOL    HW211366   3.573   3.902   4.518
 2834SOL    HW311367   3.437   3.952   4.474
 2834SOL    MW411368   3.523   3.963   4.482
 2835SOL     OW11369   3.519   0.010   4.523
 2835SOL    HW211370   3.459   0.064   4.574
 2835SOL    HW311371   3.514   0.046   4.434
 2835SOL    MW411372   3.510   0.022   4.518
 2836SOL     OW11373   3.391   0.900   4.711
 2836SOL    HW211374   3.460   0.951   4.668
 2836SOL    HW311375   3.428   0.877   4.797
 2836SOL    MW411376   3.405   0.904   4.717
 2837SOL     OW11377   2.547   0.187   4.617
 2837SOL    HW211378   2.473   0.190   4.557
 2837SOL    HW311379   2.530   0.110   4.672
 2837SOL    MW411380   2.535   0.177   4.616
 2838SOL     OW11381   3.924   1.588   4.680
 2838SOL    HW211382   4.019   1.602   4.689
 2838SOL    HW311383   3.912   1.494   4.694
 2838SOL    MW411384   3.935   1.578   4.683
 2839SOL     OW11385   3.829   0.882   4.594
 2839SOL    HW211386   3.789   0.830   4.524
 2839SOL    HW311387   3.910   0.916   4.556
 2839SOL    MW411388   3.834   0.880   4.580
 2840SOL     OW11389   4.485   0.903   4.574
 2840SOL    HW211390   4.504   0.908   4.480
 2840SOL    HW311391   4.539   0.829   4.604
 2840SOL    MW411392   4.495   0.894   4.566
 2841SOL     OW11393   4.262   0.543   4.533
 2841SOL    HW211394   4.272   0.533   4.438
 2841SOL    HW311395   4.180   0.498   4.553
 2841SOL    MW411396   4.252   0.536   4.523
 2842SOL     OW11397   3.563   1.737   4.208
 2842SOL    HW211398   3.627   1.676   4.171
 2842SOL    HW311399   3.478   1.695   4.193
 2842SOL    MW411400   3.560   1.723   4.201
 2843SOL     OW11401   3.961   1.677   4.372
 2843SOL    HW211402   4.024   1.628   4.425
 2843SOL    HW311403   3.907   1.723   4.436
 2843SOL    MW411404   3.962   1.677   4.388
 2844SOL     OW11405   3.774   2.367   4.505
 2844SOL    HW211406   3.682   2.376   4.528
 2844SOL    HW311407   3.786   2.273   4.489
 2844SOL    MW411408   3.763   2.356   4.506
 2845SOL     OW11409   3.806   1.811   4.550
 2845SOL    HW211410   3.716   1.782   4.534
 2845SOL    HW311411   3.841   1.746   4.612
 2845SOL    MW411412   3.799   1.798   4.556
 2846SOL     OW11413   0.346   1.954   4.789
 2846SOL    HW211414   0.373   2.029   4.736
 2846SOL    HW311415   0.266   1.922   4.747
 2846SOL    MW411416   0.339   1.960   4.777
 2847SOL     OW11417   3.842   2.099   4.478
 2847SOL    HW211418   3.936   2.108   4.488
 2847SOL    HW311419   3.821   2.015   4.521
 2847SOL    MW411420   3.851   2.089   4.485
 2848SOL     OW11421   3.885   2.607   4.634
 2848SOL    HW211422   3.850   2.527   4.593
 2848SOL    HW311423   3.871   2.593   4.728
 2848SOL    MW411424   3.879   2.594   4.641
 2849SOL     OW11425   4.111   2.534   4.482
 2849SOL    HW211426   4.040   2.534   4.546
 2849SOL    HW311427   4.132   2.627   4.470
 2849SOL    MW411428   4.104   2.547   4.489
 2850SOL     OW11429   0.011   3.048   4.724
 2850SOL    HW211430  -0.028   3.124   4.680
 2850SOL    HW311431   0.101   3.044   4.691
 2850SOL    MW411432   0.018   3.057   4.714
 2851SOL     OW11433   3.298   3.383   4.549
 2851SOL    HW211434   3.292   3.337   4.465
 2851SOL    HW311435   3.323   3.315   4.612
 2851SOL    MW411436   3.300   3.368   4.546
 2852SOL     OW11437   3.800   3.171   4.785
 2852SOL    HW211438   3.736   3.230   4.827
 2852SOL    HW311439   3.880   3.224   4.780
 2852SOL    MW411440   3.802   3.186   4.790
 2853SOL     OW11441   3.254   3.661   4.456
 2853SOL    HW211442   3.161   3.646   4.443
 2853SOL    HW311443   3.284   3.585   4.506
 2853SOL    MW411444   3.246   3.649   4.461
 2854SOL     OW11445   4.138   3.382   4.494
 2854SOL    HW211446   4.160   3.467   4.456
 2854SOL    HW311447   4.133   3.322   4.419
 2854SOL    MW411448   4.140   3.385   4.479
 2855SOL     OW11449   0.225   2.797   4.488
 2855SOL    HW211450   0.223   2.805   4.393
 2855SOL    HW311451   0.270   2.876   4.518
 2855SOL    MW411452   0.230   2.809   4.479
 2856SOL     OW11453   4.313   3.859   4.452
 2856SOL    HW211454   4.226   3.887   4.481
 2856SOL    HW311455   4.318   3.888   4.360
 2856SOL    MW411456   4.302   3.867   4.443
 2857SOL     OW11457   3.852   4.336   4.441
 2857SOL    HW211458   3.821   4.346   4.352
 2857SOL    HW311459   3.835   4.421   4.483
 2857SOL    MW411460   3.846   4.349   4.435
 2858SOL     OW11461   3.357   0.180   4.674
 2858SOL    HW211462   3.267   0.148   4.679
 2858SOL    HW311463   3.349   0.271   4.646
 2858SOL    MW411464   3.344   0.188   4.671
 2859SOL     OW11465   3.613   1.045   4.605
 2859SOL    HW211466   3.645   1.130   4.576
 2859SOL    HW311467   3.691   0.989   4.608
 2859SOL    MW411468   3.627   1.049   4.602
 2860SOL     OW11469   3.276   0.718   4.521
 2860SOL    HW211470   3.282   0.638   4.572
 2860SOL    HW311471   3.313   0.786   4.577
 2860SOL    MW411472   3.281   0.716   4.535
 2861SOL     OW11473   0.002   0.361   4.601
 2861SOL    HW211474   0.077   0.404   4.562
 2861SOL    HW311475  -0.058   0.432   4.625
 2861SOL    MW411476   0.004   0.376   4.599
 2862SOL     OW11477   0.229   0.476   4.502
 2862SOL    HW211478   0.274   0.396   4.528
 2862SOL    HW311479   0.239   0.479   4.407
 2862SOL    MW411480   0.237   0.466   4.493
 2863SOL     OW11481   3.975   0.419   4.554
 2863SOL    HW211482   3.953   0.485   4.620
 2863SOL    HW311483   3.941   0.337   4.590
 2863SOL    MW411484   3.968   0.417   4.567
 2864SOL     OW11485   3.700   1.266   4.463
 2864SOL    HW211486   3.639   1.339   4.477
 2864SOL    HW311487   3.774   1.286   4.520
 2864SOL    MW411488   3.702   1.278   4.472
 2865SOL     OW11489   4.485   1.205   4.601
 2865SOL    HW211490   4.579   1.215   4.616
 2865SOL    HW311491   4.473   1.111   4.585
 2865SOL    MW411492   4.496   1.194   4.601
 2866SOL     OW11493   4.358   1.473   4.580
 2866SOL    HW211494   4.426   1.531   4.545
 2866SOL    HW311495   4.398   1.386   4.575
 2866SOL    MW411496   4.373   1.469   4.575
 2867SOL     OW11497   3.896   1.301   4.674
 2867SOL    HW211498   3.912   1.259   4.759
 2867SOL    HW311499   3.973   1.279   4.622
 2867SOL    MW411500   3.908   1.293   4.678
 2868SOL     OW11501   3.311   2.880   4.648
 2868SOL    HW211502   3.292   2.790   4.621
 2868SOL    HW311503   3.368   2.914   4.579
 2868SOL    MW411504   3.316   2.872   4.636
 2869SOL     OW11505   4.228   2.077   4.207
 2869SOL    HW211506   4.167   2.009   4.178
 2869SOL    HW311507   4.213   2.085   4.301
 2869SOL    MW411508   4.218   2.069   4.215
 2870SOL     OW11509   0.195   2.102   4.485
 2870SOL    HW211510   0.285   2.113   4.517
 2870SOL    HW311511   0.150   2.181   4.512
 2870SOL    MW411512   0.201   2.114   4.493
 2871SOL     OW11513   4.155   2.106   4.491
 2871SOL    HW211514   4.198   2.038   4.543
 2871SOL    HW311515   4.189   2.188   4.527
 2871SOL    MW411516   4.165   2.108   4.502
 2872SOL     OW11517   3.472   2.417   4.537
 2872SOL    HW211518   3.416   2.493   4.550
 2872SOL    HW311519   3.412   2.344   4.522
 2872SOL    MW411520   3.457   2.417   4.537
 2873SOL     OW11521   0.487   2.433   4.686
 2873SOL    HW211522   0.440   2.482   4.619
 2873SOL    HW311523   0.433   2.440   4.764
 2873SOL    MW411524   0.474   2.440   4.688
 2874SOL     OW11525   4.221   2.800   4.482
 2874SOL    HW211526   4.302   2.786   4.532
 2874SOL    HW311527   4.250   2.838   4.399
 2874SOL    MW411528   4.236   2.803   4.478
 2875SOL     OW11529   4.462   2.790   4.623
 2875SOL    HW211530   4.467   2.882   4.647
 2875SOL    HW311531   4.552   2.766   4.601
 2875SOL    MW411532   4.475   2.799   4.623
 2876SOL     OW11533   0.188   3.647   4.620
 2876SOL    HW211534   0.198   3.633   4.526
 2876SOL    HW311535   0.173   3.560   4.656
 2876SOL    MW411536   0.188   3.634   4.612
 2877SOL     OW11537   3.790   4.574   4.571
 2877SOL    HW211538   3.805   4.565   4.666
 2877SOL    HW311539   3.707   4.620   4.564
 2877SOL    MW411540   3.781   4.579   4.583
 2878SOL     OW11541   3.909   4.428   4.830
 2878SOL    HW211542   3.966   4.385   4.767
 2878SOL    HW311543   3.841   4.363   4.849
 2878SOL    MW411544   3.908   4.414   4.824
 2879SOL     OW11545   3.910   3.446   4.623
 2879SOL    HW211546   3.850   3.392   4.572
 2879SOL    HW311547   3.995   3.435   4.580
 2879SOL    MW411548   3.913   3.437   4.611
 2880SOL     OW11549   2.891   0.529   4.674
 2880SOL    HW211550   2.797   0.523   4.657
 2880SOL    HW311551   2.932   0.484   4.600
 2880SOL    MW411552   2.884   0.522   4.662
 2881SOL     OW11553   4.265   4.353   4.268
 2881SOL    HW211554   4.345   4.312   4.234
 2881SOL    HW311555   4.253   4.314   4.355
 2881SOL    MW411556   4.274   4.342   4.275
 2882NA      NA11557   2.695   4.232   0.674
 2883NA      NA11558   0.745   2.085   0.363
   4.49070   4.66690  10.00000
