Gromacs Runs On Most of All Computer Systems in water t= 800.00000 step= 800000
11558
    1RG35     P    1   2.215   2.865   4.462
    1RG35   O1P    2   2.192   2.782   4.346
    1RG35   O2P    3   2.164   2.998   4.452
    1RG35   O5'    4   2.128   2.807   4.579
    1RG35   C5'    5   1.985   2.790   4.573
    1RG35  H5'1    6   1.942   2.791   4.473
    1RG35  H5'2    7   1.945   2.874   4.630
    1RG35   C4'    8   1.950   2.664   4.646
    1RG35   H4'    9   1.842   2.655   4.664
    1RG35   O4'   10   1.988   2.553   4.562
    1RG35   C1'   11   2.025   2.451   4.647
    1RG35   H1'   12   1.940   2.408   4.700
    1RG35    N9   13   2.085   2.358   4.547
    1RG35    C8   14   2.185   2.375   4.453
    1RG35    H8   15   2.249   2.462   4.450
    1RG35    N7   16   2.195   2.280   4.362
    1RG35    C5   17   2.104   2.182   4.403
    1RG35    C6   18   2.079   2.053   4.354
    1RG35    O6   19   2.121   2.001   4.253
    1RG35    N1   20   1.998   1.981   4.430
    1RG35    H1   21   2.006   1.881   4.421
    1RG35    C2   22   1.935   2.026   4.545
    1RG35    N2   23   1.848   1.947   4.594
    1RG35   H21   24   1.830   1.858   4.550
    1RG35   H22   25   1.801   1.970   4.681
    1RG35    N3   26   1.955   2.151   4.594
    1RG35    C4   27   2.042   2.226   4.516
    1RG35   C3'   28   2.014   2.638   4.790
    1RG35   H3'   29   2.066   2.724   4.832
    1RG35   C2'   30   2.110   2.527   4.741
    1RG35  H2'1   31   2.187   2.571   4.677
    1RG35   O2'   32   2.165   2.451   4.848
    1RG35  HO'2   33   2.249   2.487   4.877
    1RG35   O3'   34   1.939   2.573   4.890
    1RG35   H3T   35   1.998   2.506   4.923
    1RG35   O3P   36   2.353   2.855   4.515
    2SOL     OW   37   0.423   0.093   0.496
    2SOL    HW2   38   0.425   0.003   0.464
    2SOL    HW3   39   0.501   0.133   0.459
    2SOL    MW4   40   0.433   0.086   0.487
    3SOL     OW   41   3.581   0.469   0.098
    3SOL    HW2   42   3.581   0.453   0.004
    3SOL    HW3   43   3.630   0.550   0.109
    3SOL    MW4   44   3.587   0.477   0.087
    4SOL     OW   45   3.696   0.271   0.330
    4SOL    HW2   46   3.671   0.329   0.259
    4SOL    HW3   47   3.720   0.329   0.402
    4SOL    MW4   48   3.696   0.286   0.330
    5SOL     OW   49   0.388   1.787   0.335
    5SOL    HW2   50   0.469   1.736   0.339
    5SOL    HW3   51   0.321   1.728   0.368
    5SOL    MW4   52   0.390   1.773   0.340
    6SOL     OW   53   1.430   0.863   0.436
    6SOL    HW2   54   1.403   0.858   0.527
    6SOL    HW3   55   1.518   0.901   0.439
    6SOL    MW4   56   1.438   0.867   0.448
    7SOL     OW   57   0.173   0.483   0.390
    7SOL    HW2   58   0.188   0.489   0.484
    7SOL    HW3   59   0.214   0.399   0.365
    7SOL    MW4   60   0.181   0.472   0.399
    8SOL     OW   61   0.518   0.880   0.424
    8SOL    HW2   62   0.467   0.907   0.500
    8SOL    HW3   63   0.479   0.796   0.398
    8SOL    MW4   64   0.506   0.872   0.430
    9SOL     OW   65   0.789   0.864   0.391
    9SOL    HW2   66   0.818   0.887   0.480
    9SOL    HW3   67   0.696   0.887   0.390
    9SOL    MW4   68   0.780   0.870   0.403
   10SOL     OW   69   0.476   1.134   0.313
   10SOL    HW2   70   0.462   1.091   0.228
   10SOL    HW3   71   0.502   1.064   0.372
   10SOL    MW4   72   0.478   1.119   0.309
   11SOL     OW   73   4.215   1.491   0.469
   11SOL    HW2   74   4.158   1.565   0.486
   11SOL    HW3   75   4.211   1.439   0.550
   11SOL    MW4   76   4.207   1.494   0.482
   12SOL     OW   77   4.070   2.382   0.630
   12SOL    HW2   78   3.982   2.345   0.637
   12SOL    HW3   79   4.057   2.477   0.629
   12SOL    MW4   80   4.056   2.390   0.631
   13SOL     OW   81   4.464   1.639   0.433
   13SOL    HW2   82   4.475   1.650   0.528
   13SOL    HW3   83   4.385   1.586   0.424
   13SOL    MW4   84   4.455   1.634   0.445
   14SOL     OW   85   0.645   2.348   0.462
   14SOL    HW2   86   0.625   2.323   0.553
   14SOL    HW3   87   0.717   2.411   0.470
   14SOL    MW4   88   0.652   2.353   0.475
   15SOL     OW   89   0.208   2.811   0.453
   15SOL    HW2   90   0.215   2.900   0.420
   15SOL    HW3   91   0.276   2.762   0.407
   15SOL    MW4   92   0.218   2.816   0.443
   16SOL     OW   93   4.152   3.300   0.498
   16SOL    HW2   94   4.145   3.218   0.449
   16SOL    HW3   95   4.134   3.274   0.589
   16SOL    MW4   96   4.148   3.286   0.504
   17SOL     OW   97   0.250   3.068   0.378
   17SOL    HW2   98   0.327   3.100   0.424
   17SOL    HW3   99   0.187   3.140   0.384
   17SOL    MW4  100   0.252   3.082   0.384
   18SOL     OW  101   0.650   3.379   0.325
   18SOL    HW2  102   0.706   3.447   0.363
   18SOL    HW3  103   0.577   3.427   0.286
   18SOL    MW4  104   0.648   3.394   0.325
   19SOL     OW  105   0.607   3.817   0.329
   19SOL    HW2  106   0.694   3.858   0.320
   19SOL    HW3  107   0.552   3.886   0.366
   19SOL    MW4  108   0.611   3.832   0.333
   20SOL     OW  109   4.145   3.772   0.327
   20SOL    HW2  110   4.197   3.849   0.303
   20SOL    HW3  111   4.207   3.713   0.370
   20SOL    MW4  112   4.160   3.774   0.330
   21SOL     OW  113   0.225   3.719   0.143
   21SOL    HW2  114   0.210   3.779   0.216
   21SOL    HW3  115   0.234   3.776   0.066
   21SOL    MW4  116   0.224   3.734   0.142
   22SOL     OW  117   4.397   4.499   0.424
   22SOL    HW2  118   4.317   4.475   0.377
   22SOL    HW3  119   4.375   4.487   0.516
   22SOL    MW4  120   4.384   4.494   0.430
   23SOL     OW  121   4.119   4.164   0.220
   23SOL    HW2  122   4.034   4.127   0.244
   23SOL    HW3  123   4.130   4.238   0.280
   23SOL    MW4  124   4.109   4.169   0.231
   24SOL     OW  125   4.108   0.361   0.259
   24SOL    HW2  126   4.098   0.346   0.165
   24SOL    HW3  127   4.200   0.339   0.277
   24SOL    MW4  128   4.119   0.356   0.249
   25SOL     OW  129   0.517   3.174   0.464
   25SOL    HW2  130   0.519   3.184   0.560
   25SOL    HW3  131   0.540   3.261   0.431
   25SOL    MW4  132   0.520   3.187   0.473
   26SOL     OW  133   0.358   4.474   0.378
   26SOL    HW2  134   0.290   4.433   0.433
   26SOL    HW3  135   0.325   4.465   0.289
   26SOL    MW4  136   0.344   4.467   0.374
   27SOL     OW  137   0.235   0.191   0.330
   27SOL    HW2  138   0.152   0.148   0.349
   27SOL    HW3  139   0.300   0.140   0.379
   27SOL    MW4  140   0.233   0.179   0.339
   28SOL     OW  141   0.004   0.704   0.489
   28SOL    HW2  142   0.067   0.643   0.451
   28SOL    HW3  143  -0.025   0.759   0.416
   28SOL    MW4  144   0.009   0.703   0.475
   29SOL     OW  145   1.004   4.463   0.422
   29SOL    HW2  146   0.942   4.394   0.397
   29SOL    HW3  147   1.036   4.436   0.508
   29SOL    MW4  148   1.000   4.450   0.430
   30SOL     OW  149   1.140   1.245   0.495
   30SOL    HW2  150   1.050   1.221   0.475
   30SOL    HW3  151   1.161   1.314   0.433
   30SOL    MW4  152   1.131   1.251   0.484
   31SOL     OW  153   0.635   0.469   0.473
   31SOL    HW2  154   0.716   0.506   0.437
   31SOL    HW3  155   0.637   0.377   0.444
   31SOL    MW4  156   0.646   0.462   0.464
   32SOL     OW  157   0.249   1.242   0.461
   32SOL    HW2  158   0.326   1.211   0.413
   32SOL    HW3  159   0.188   1.168   0.458
   32SOL    MW4  160   0.251   1.228   0.455
   33SOL     OW  161   4.488   2.153   0.486
   33SOL    HW2  162   4.438   2.230   0.459
   33SOL    HW3  163   4.440   2.079   0.449
   33SOL    MW4  164   4.475   2.153   0.478
   34SOL     OW  165   0.456   2.051   0.394
   34SOL    HW2  166   0.385   2.115   0.389
   34SOL    HW3  167   0.423   1.975   0.346
   34SOL    MW4  168   0.442   2.049   0.387
   35SOL     OW  169   0.944   2.659   0.229
   35SOL    HW2  170   0.901   2.739   0.259
   35SOL    HW3  171   0.961   2.674   0.136
   35SOL    MW4  172   0.940   2.672   0.221
   36SOL     OW  173   0.846   3.176   0.241
   36SOL    HW2  174   0.778   3.234   0.275
   36SOL    HW3  175   0.854   3.201   0.148
   36SOL    MW4  176   0.838   3.187   0.233
   37SOL     OW  177   3.886   2.283   0.222
   37SOL    HW2  178   3.966   2.259   0.270
   37SOL    HW3  179   3.910   2.274   0.130
   37SOL    MW4  180   3.900   2.279   0.217
   38SOL     OW  181   1.118   2.109   0.451
   38SOL    HW2  182   1.086   2.065   0.529
   38SOL    HW3  183   1.211   2.090   0.449
   38SOL    MW4  184   1.126   2.101   0.461
   39SOL     OW  185   0.399   2.490   0.498
   39SOL    HW2  186   0.413   2.559   0.433
   39SOL    HW3  187   0.478   2.437   0.495
   39SOL    MW4  188   0.411   2.492   0.489
   40SOL     OW  189   4.356   3.096   0.258
   40SOL    HW2  190   4.271   3.076   0.298
   40SOL    HW3  191   4.352   3.054   0.172
   40SOL    MW4  192   4.344   3.088   0.252
   41SOL     OW  193   0.447   2.703   0.335
   41SOL    HW2  194   0.451   2.698   0.239
   41SOL    HW3  195   0.502   2.778   0.357
   41SOL    MW4  196   0.455   2.712   0.325
   42SOL     OW  197   0.905   0.415   0.159
   42SOL    HW2  198   0.866   0.443   0.076
   42SOL    HW3  199   0.880   0.483   0.222
   42SOL    MW4  200   0.897   0.428   0.157
   43SOL     OW  201   0.236   3.604   0.498
   43SOL    HW2  202   0.206   3.694   0.480
   43SOL    HW3  203   0.310   3.591   0.439
   43SOL    MW4  204   0.241   3.615   0.488
   44SOL     OW  205   0.433   3.590   0.282
   44SOL    HW2  206   0.365   3.619   0.221
   44SOL    HW3  207   0.483   3.669   0.302
   44SOL    MW4  208   0.431   3.605   0.277
   45SOL     OW  209   1.031   3.667   0.499
   45SOL    HW2  210   0.937   3.654   0.482
   45SOL    HW3  211   1.073   3.594   0.453
   45SOL    MW4  212   1.024   3.655   0.491
   46SOL     OW  213   0.129   4.353   0.495
   46SOL    HW2  214   0.050   4.394   0.460
   46SOL    HW3  215   0.124   4.262   0.467
   46SOL    MW4  216   0.118   4.346   0.487
   47SOL     OW  217   0.740   3.602   0.463
   47SOL    HW2  218   0.697   3.669   0.410
   47SOL    HW3  219   0.700   3.611   0.550
   47SOL    MW4  220   0.729   3.612   0.468
   48SOL     OW  221   0.550   4.285   0.450
   48SOL    HW2  222   0.500   4.361   0.421
   48SOL    HW3  223   0.597   4.315   0.528
   48SOL    MW4  224   0.550   4.299   0.457
   49SOL     OW  225   0.664   0.221   0.378
   49SOL    HW2  226   0.750   0.194   0.409
   49SOL    HW3  227   0.671   0.220   0.283
   49SOL    MW4  228   0.676   0.217   0.370
   50SOL     OW  229   0.858   0.598   0.370
   50SOL    HW2  230   0.841   0.692   0.371
   50SOL    HW3  231   0.948   0.590   0.402
   50SOL    MW4  232   0.868   0.609   0.375
   51SOL     OW  233   0.416   0.623   0.335
   51SOL    HW2  234   0.344   0.570   0.369
   51SOL    HW3  235   0.494   0.568   0.344
   51SOL    MW4  236   0.417   0.609   0.341
   52SOL     OW  237   1.412   0.576   0.408
   52SOL    HW2  238   1.492   0.542   0.449
   52SOL    HW3  239   1.422   0.671   0.410
   52SOL    MW4  240   1.424   0.584   0.414
   53SOL     OW  241   1.931   0.822   0.434
   53SOL    HW2  242   1.850   0.872   0.421
   53SOL    HW3  243   1.929   0.796   0.526
   53SOL    MW4  244   1.920   0.825   0.445
   54SOL     OW  245   1.919   0.031   0.395
   54SOL    HW2  246   1.920  -0.053   0.349
   54SOL    HW3  247   1.826   0.051   0.408
   54SOL    MW4  248   1.907   0.022   0.391
   55SOL     OW  249   0.622   1.642   0.355
   55SOL    HW2  250   0.627   1.547   0.356
   55SOL    HW3  251   0.685   1.670   0.421
   55SOL    MW4  252   0.631   1.633   0.364
   56SOL     OW  253   0.634   1.351   0.394
   56SOL    HW2  254   0.553   1.315   0.358
   56SOL    HW3  255   0.704   1.304   0.347
   56SOL    MW4  256   0.633   1.340   0.383
   57SOL     OW  257   1.458   1.281   0.171
   57SOL    HW2  258   1.445   1.212   0.236
   57SOL    HW3  259   1.441   1.239   0.087
   57SOL    MW4  260   1.454   1.267   0.169
   58SOL     OW  261   0.872   1.140   0.434
   58SOL    HW2  262   0.866   1.066   0.373
   58SOL    HW3  263   0.839   1.105   0.517
   58SOL    MW4  264   0.867   1.126   0.436
   59SOL     OW  265   1.270   1.435   0.336
   59SOL    HW2  266   1.261   1.530   0.338
   59SOL    HW3  267   1.312   1.416   0.252
   59SOL    MW4  268   1.274   1.445   0.326
   60SOL     OW  269   4.378   2.363   0.356
   60SOL    HW2  270   4.404   2.451   0.384
   60SOL    HW3  271   4.413   2.355   0.267
   60SOL    MW4  272   4.386   2.374   0.348
   61SOL     OW  273   4.393   1.898   0.367
   61SOL    HW2  274   4.435   1.815   0.390
   61SOL    HW3  275   4.400   1.903   0.272
   61SOL    MW4  276   4.400   1.888   0.358
   62SOL     OW  277   0.748   2.050   0.562
   62SOL    HW2  278   0.785   2.094   0.638
   62SOL    HW3  279   0.760   1.957   0.579
   62SOL    MW4  280   0.755   2.044   0.574
   63SOL     OW  281   0.710   1.917   0.258
   63SOL    HW2  282   0.802   1.896   0.273
   63SOL    HW3  283   0.663   1.836   0.277
   63SOL    MW4  284   0.716   1.904   0.263
   64SOL     OW  285   0.900   2.227   0.297
   64SOL    HW2  286   0.901   2.323   0.291
   64SOL    HW3  287   0.981   2.206   0.343
   64SOL    MW4  288   0.911   2.237   0.302
   65SOL     OW  289   0.860   2.923   0.323
   65SOL    HW2  290   0.776   2.921   0.368
   65SOL    HW3  291   0.863   3.010   0.283
   65SOL    MW4  292   0.849   2.934   0.324
   66SOL     OW  293   0.615   2.894   0.421
   66SOL    HW2  294   0.588   2.984   0.435
   66SOL    HW3  295   0.640   2.863   0.509
   66SOL    MW4  296   0.615   2.901   0.435
   67SOL     OW  297   0.996   3.209   0.479
   67SOL    HW2  298   0.958   3.258   0.552
   67SOL    HW3  299   0.923   3.192   0.421
   67SOL    MW4  300   0.981   3.213   0.481
   68SOL     OW  301   2.124   3.015   0.282
   68SOL    HW2  302   2.139   3.032   0.189
   68SOL    HW3  303   2.182   3.076   0.327
   68SOL    MW4  304   2.133   3.025   0.275
   69SOL     OW  305   0.817   4.247   0.357
   69SOL    HW2  306   0.730   4.286   0.366
   69SOL    HW3  307   0.806   4.157   0.388
   69SOL    MW4  308   0.804   4.240   0.362
   70SOL     OW  309   0.450   4.030   0.468
   70SOL    HW2  310   0.469   4.030   0.562
   70SOL    HW3  311   0.481   4.115   0.437
   70SOL    MW4  312   0.457   4.041   0.476
   71SOL     OW  313   1.259   4.396   0.255
   71SOL    HW2  314   1.173   4.422   0.286
   71SOL    HW3  315   1.250   4.387   0.160
   71SOL    MW4  316   1.247   4.398   0.247
   72SOL     OW  317   1.124   0.528   0.460
   72SOL    HW2  318   1.103   0.439   0.432
   72SOL    HW3  319   1.218   0.538   0.444
   72SOL    MW4  320   1.133   0.518   0.454
   73SOL     OW  321   0.915   0.083   0.432
   73SOL    HW2  322   0.941  -0.008   0.417
   73SOL    HW3  323   0.917   0.093   0.528
   73SOL    MW4  324   0.919   0.073   0.443
   74SOL     OW  325   1.368   0.301   0.306
   74SOL    HW2  326   1.274   0.283   0.308
   74SOL    HW3  327   1.375   0.395   0.322
   74SOL    MW4  328   1.356   0.311   0.308
   75SOL     OW  329   2.018   4.660   0.643
   75SOL    HW2  330   2.014   4.565   0.648
   75SOL    HW3  331   1.981   4.682   0.557
   75SOL    MW4  332   2.013   4.651   0.632
   76SOL     OW  333   1.089   0.280   0.335
   76SOL    HW2  334   1.050   0.199   0.369
   76SOL    HW3  335   1.034   0.304   0.260
   76SOL    MW4  336   1.076   0.273   0.330
   77SOL     OW  337   2.123   0.252   0.373
   77SOL    HW2  338   2.066   0.325   0.398
   77SOL    HW3  339   2.065   0.175   0.372
   77SOL    MW4  340   2.108   0.251   0.376
   78SOL     OW  341   2.445   1.056   0.366
   78SOL    HW2  342   2.448   1.077   0.273
   78SOL    HW3  343   2.352   1.045   0.385
   78SOL    MW4  344   2.433   1.058   0.356
   79SOL     OW  345   1.577   1.230   0.500
   79SOL    HW2  346   1.494   1.204   0.460
   79SOL    HW3  347   1.622   1.279   0.431
   79SOL    MW4  348   1.572   1.233   0.486
   80SOL     OW  349   1.677   0.975   0.468
   80SOL    HW2  350   1.699   0.946   0.556
   80SOL    HW3  351   1.663   1.070   0.477
   80SOL    MW4  352   1.678   0.984   0.481
   81SOL     OW  353   1.358   1.104   0.344
   81SOL    HW2  354   1.272   1.114   0.387
   81SOL    HW3  355   1.388   1.017   0.370
   81SOL    MW4  356   1.350   1.094   0.353
   82SOL     OW  357   1.823   1.929   0.473
   82SOL    HW2  358   1.791   1.923   0.563
   82SOL    HW3  359   1.853   2.020   0.465
   82SOL    MW4  360   1.823   1.940   0.484
   83SOL     OW  361   1.142   2.378   0.557
   83SOL    HW2  362   1.215   2.408   0.503
   83SOL    HW3  363   1.130   2.286   0.532
   83SOL    MW4  364   1.150   2.370   0.547
   84SOL     OW  365   1.377   2.571   0.543
   84SOL    HW2  366   1.362   2.647   0.487
   84SOL    HW3  367   1.393   2.609   0.630
   84SOL    MW4  368   1.377   2.586   0.547
   85SOL     OW  369   2.263   1.965   0.392
   85SOL    HW2  370   2.355   1.980   0.413
   85SOL    HW3  371   2.230   2.051   0.365
   85SOL    MW4  372   2.271   1.978   0.391
   86SOL     OW  373   1.463   2.349   0.404
   86SOL    HW2  374   1.559   2.345   0.412
   86SOL    HW3  375   1.440   2.429   0.451
   86SOL    MW4  376   1.473   2.359   0.411
   87SOL     OW  377   0.805   1.781   0.528
   87SOL    HW2  378   0.838   1.736   0.606
   87SOL    HW3  379   0.882   1.794   0.473
   87SOL    MW4  380   0.819   1.777   0.531
   88SOL     OW  381   1.169   3.437   0.403
   88SOL    HW2  382   1.263   3.425   0.417
   88SOL    HW3  383   1.132   3.349   0.409
   88SOL    MW4  384   1.176   3.424   0.405
   89SOL     OW  385   1.932   2.190   0.527
   89SOL    HW2  386   1.964   2.140   0.602
   89SOL    HW3  387   2.010   2.229   0.489
   89SOL    MW4  388   1.946   2.188   0.532
   90SOL     OW  389   1.939   0.484   0.438
   90SOL    HW2  390   1.950   0.574   0.408
   90SOL    HW3  391   1.844   0.470   0.436
   90SOL    MW4  392   1.928   0.494   0.433
   91SOL     OW  393   1.075   3.941   0.494
   91SOL    HW2  394   1.071   3.846   0.501
   91SOL    HW3  395   1.010   3.973   0.557
   91SOL    MW4  396   1.066   3.933   0.503
   92SOL     OW  397   1.887   2.604   0.375
   92SOL    HW2  398   1.837   2.678   0.410
   92SOL    HW3  399   1.977   2.635   0.373
   92SOL    MW4  400   1.892   2.618   0.379
   93SOL     OW  401   1.352   3.942   0.518
   93SOL    HW2  402   1.257   3.950   0.524
   93SOL    HW3  403   1.380   4.019   0.468
   93SOL    MW4  404   1.343   3.953   0.512
   94SOL     OW  405   1.770   2.802   0.505
   94SOL    HW2  406   1.790   2.779   0.596
   94SOL    HW3  407   1.681   2.838   0.508
   94SOL    MW4  408   1.761   2.804   0.518
   95SOL     OW  409   2.193   3.962   0.462
   95SOL    HW2  410   2.162   3.872   0.448
   95SOL    HW3  411   2.281   3.962   0.425
   95SOL    MW4  412   2.201   3.950   0.455
   96SOL     OW  413   0.863   3.962   0.298
   96SOL    HW2  414   0.932   3.947   0.363
   96SOL    HW3  415   0.905   4.015   0.230
   96SOL    MW4  416   0.878   3.967   0.298
   97SOL     OW  417   1.897   4.444   0.304
   97SOL    HW2  418   1.974   4.392   0.324
   97SOL    HW3  419   1.824   4.396   0.343
   97SOL    MW4  420   1.897   4.431   0.312
   98SOL     OW  421   2.141   0.023   0.895
   98SOL    HW2  422   2.098   0.007   0.811
   98SOL    HW3  423   2.231  -0.006   0.882
   98SOL    MW4  424   2.147   0.017   0.883
   99SOL     OW  425   2.608   4.384   0.225
   99SOL    HW2  426   2.634   4.424   0.309
   99SOL    HW3  427   2.631   4.450   0.160
   99SOL    MW4  428   2.614   4.398   0.228
  100SOL     OW  429   1.486   4.556   0.345
  100SOL    HW2  430   1.404   4.514   0.321
  100SOL    HW3  431   1.505   4.615   0.272
  100SOL    MW4  432   1.478   4.559   0.332
  101SOL     OW  433   2.441   0.369   0.438
  101SOL    HW2  434   2.349   0.344   0.422
  101SOL    HW3  435   2.461   0.433   0.369
  101SOL    MW4  436   2.431   0.374   0.427
  102SOL     OW  437   1.569   1.827   0.422
  102SOL    HW2  438   1.656   1.865   0.410
  102SOL    HW3  439   1.584   1.733   0.423
  102SOL    MW4  440   1.582   1.820   0.420
  103SOL     OW  441   2.018   1.252   0.403
  103SOL    HW2  442   1.933   1.277   0.369
  103SOL    HW3  443   2.080   1.312   0.361
  103SOL    MW4  444   2.015   1.263   0.393
  104SOL     OW  445   2.534   1.288   0.467
  104SOL    HW2  446   2.630   1.284   0.469
  104SOL    HW3  447   2.507   1.202   0.435
  104SOL    MW4  448   2.543   1.276   0.463
  105SOL     OW  449   2.540   1.732   0.361
  105SOL    HW2  450   2.496   1.653   0.392
  105SOL    HW3  451   2.632   1.706   0.353
  105SOL    MW4  452   2.546   1.718   0.364
  106SOL     OW  453   1.564   1.545   0.404
  106SOL    HW2  454   1.483   1.500   0.378
  106SOL    HW3  455   1.564   1.540   0.500
  106SOL    MW4  456   1.553   1.539   0.413
  107SOL     OW  457   1.270   1.736   0.385
  107SOL    HW2  458   1.364   1.753   0.373
  107SOL    HW3  459   1.263   1.703   0.475
  107SOL    MW4  460   1.282   1.734   0.396
  108SOL     OW  461   2.200   2.236   0.440
  108SOL    HW2  462   2.242   2.196   0.516
  108SOL    HW3  463   2.242   2.322   0.432
  108SOL    MW4  464   2.211   2.242   0.449
  109SOL     OW  465   1.829   3.038   0.335
  109SOL    HW2  466   1.805   2.963   0.389
  109SOL    HW3  467   1.924   3.029   0.323
  109SOL    MW4  468   1.839   3.027   0.341
  110SOL     OW  469   1.092   2.939   0.478
  110SOL    HW2  470   1.016   2.923   0.421
  110SOL    HW3  471   1.087   3.033   0.498
  110SOL    MW4  472   1.081   2.949   0.473
  111SOL     OW  473   1.639   3.182   0.478
  111SOL    HW2  474   1.695   3.163   0.403
  111SOL    HW3  475   1.589   3.101   0.491
  111SOL    MW4  476   1.640   3.169   0.470
  112SOL     OW  477   1.009   1.875   0.353
  112SOL    HW2  478   1.043   1.961   0.375
  112SOL    HW3  479   1.087   1.821   0.341
  112SOL    MW4  480   1.024   1.879   0.354
  113SOL     OW  481   3.752   1.492   0.274
  113SOL    HW2  482   3.782   1.569   0.323
  113SOL    HW3  483   3.656   1.500   0.274
  113SOL    MW4  484   3.743   1.503   0.281
  114SOL     OW  485   1.745   2.390   0.470
  114SOL    HW2  486   1.800   2.316   0.494
  114SOL    HW3  487   1.805   2.452   0.430
  114SOL    MW4  488   1.760   2.389   0.468
  115SOL     OW  489   1.393   2.055   0.453
  115SOL    HW2  490   1.434   2.141   0.446
  115SOL    HW3  491   1.466   1.993   0.455
  115SOL    MW4  492   1.408   2.058   0.452
  116SOL     OW  493   1.451   3.392   0.478
  116SOL    HW2  494   1.528   3.339   0.462
  116SOL    HW3  495   1.484   3.482   0.484
  116SOL    MW4  496   1.465   3.397   0.476
  117SOL     OW  497   2.485   3.429   0.324
  117SOL    HW2  498   2.556   3.401   0.381
  117SOL    HW3  499   2.428   3.352   0.317
  117SOL    MW4  500   2.487   3.415   0.331
  118SOL     OW  501   1.638   4.334   0.449
  118SOL    HW2  502   1.604   4.360   0.535
  118SOL    HW3  503   1.605   4.401   0.389
  118SOL    MW4  504   1.629   4.347   0.452
  119SOL     OW  505   1.512   3.699   0.495
  119SOL    HW2  506   1.449   3.771   0.497
  119SOL    HW3  507   1.596   3.741   0.475
  119SOL    MW4  508   1.515   3.714   0.493
  120SOL     OW  509   1.556   0.120   0.206
  120SOL    HW2  510   1.637   0.158   0.172
  120SOL    HW3  511   1.501   0.195   0.228
  120SOL    MW4  512   1.559   0.135   0.204
  121SOL     OW  513   1.421   0.106   0.518
  121SOL    HW2  514   1.394   0.178   0.462
  121SOL    HW3  515   1.430   0.032   0.458
  121SOL    MW4  516   1.419   0.105   0.503
  122SOL     OW  517   2.416   4.540   0.597
  122SOL    HW2  518   2.373   4.625   0.598
  122SOL    HW3  519   2.424   4.515   0.689
  122SOL    MW4  520   2.412   4.548   0.609
  123SOL     OW  521   2.243   0.128   0.586
  123SOL    HW2  522   2.168   0.071   0.605
  123SOL    HW3  523   2.224   0.163   0.499
  123SOL    MW4  524   2.231   0.125   0.577
  124SOL     OW  525   2.418   1.545   0.527
  124SOL    HW2  526   2.451   1.456   0.517
  124SOL    HW3  527   2.429   1.565   0.620
  124SOL    MW4  528   2.424   1.536   0.538
  125SOL     OW  529   2.976   0.631   0.503
  125SOL    HW2  530   3.070   0.643   0.483
  125SOL    HW3  531   2.938   0.718   0.489
  125SOL    MW4  532   2.984   0.644   0.498
  126SOL     OW  533   2.148   1.003   0.442
  126SOL    HW2  534   2.105   1.088   0.430
  126SOL    HW3  535   2.089   0.940   0.401
  126SOL    MW4  536   2.134   1.006   0.435
  127SOL     OW  537   2.823   1.311   0.506
  127SOL    HW2  538   2.869   1.242   0.457
  127SOL    HW3  539   2.872   1.319   0.587
  127SOL    MW4  540   2.836   1.303   0.510
  128SOL     OW  541   2.813   1.600   0.478
  128SOL    HW2  542   2.817   1.507   0.457
  128SOL    HW3  543   2.756   1.606   0.555
  128SOL    MW4  544   2.806   1.589   0.485
  129SOL     OW  545   3.223   2.116   0.467
  129SOL    HW2  546   3.175   2.050   0.518
  129SOL    HW3  547   3.300   2.069   0.435
  129SOL    MW4  548   3.227   2.101   0.469
  130SOL     OW  549   2.917   4.597   0.399
  130SOL    HW2  550   2.982   4.666   0.415
  130SOL    HW3  551   2.970   4.518   0.383
  130SOL    MW4  552   2.933   4.596   0.399
  131SOL     OW  553   2.098   1.755   0.438
  131SOL    HW2  554   2.013   1.797   0.426
  131SOL    HW3  555   2.161   1.827   0.431
  131SOL    MW4  556   2.095   1.770   0.436
  132SOL     OW  557   1.527   1.555   0.700
  132SOL    HW2  558   1.578   1.601   0.766
  132SOL    HW3  559   1.444   1.602   0.697
  132SOL    MW4  560   1.523   1.567   0.708
  133SOL     OW  561   2.525   1.975   0.481
  133SOL    HW2  562   2.548   1.894   0.436
  133SOL    HW3  563   2.591   2.038   0.453
  133SOL    MW4  564   2.537   1.973   0.471
  134SOL     OW  565   2.765   2.191   0.464
  134SOL    HW2  566   2.843   2.225   0.420
  134SOL    HW3  567   2.799   2.155   0.547
  134SOL    MW4  568   2.780   2.191   0.469
  135SOL     OW  569   2.537   2.639   0.357
  135SOL    HW2  570   2.600   2.577   0.395
  135SOL    HW3  571   2.452   2.599   0.372
  135SOL    MW4  572   2.534   2.626   0.364
  136SOL     OW  573   1.521   2.926   0.519
  136SOL    HW2  574   1.511   2.913   0.613
  136SOL    HW3  575   1.452   2.874   0.480
  136SOL    MW4  576   1.511   2.917   0.526
  137SOL     OW  577   1.323   2.795   0.368
  137SOL    HW2  578   1.240   2.837   0.391
  137SOL    HW3  579   1.307   2.756   0.282
  137SOL    MW4  580   1.310   2.795   0.360
  138SOL     OW  581   2.032   3.723   0.463
  138SOL    HW2  582   2.068   3.649   0.414
  138SOL    HW3  583   2.049   3.702   0.555
  138SOL    MW4  584   2.039   3.711   0.469
  139SOL     OW  585   2.442   3.960   0.352
  139SOL    HW2  586   2.466   3.868   0.346
  139SOL    HW3  587   2.506   4.005   0.298
  139SOL    MW4  588   2.453   3.954   0.344
  140SOL     OW  589   1.772   3.826   0.473
  140SOL    HW2  590   1.767   3.870   0.388
  140SOL    HW3  591   1.859   3.787   0.475
  140SOL    MW4  592   1.783   3.827   0.462
  141SOL     OW  593   2.186   3.530   0.335
  141SOL    HW2  594   2.270   3.555   0.297
  141SOL    HW3  595   2.198   3.440   0.364
  141SOL    MW4  596   2.198   3.521   0.334
  142SOL     OW  597   2.381   4.349   0.385
  142SOL    HW2  598   2.436   4.356   0.307
  142SOL    HW3  599   2.403   4.426   0.437
  142SOL    MW4  600   2.391   4.360   0.382
  143SOL     OW  601   2.108   4.262   0.407
  143SOL    HW2  602   2.117   4.172   0.377
  143SOL    HW3  603   2.198   4.295   0.414
  143SOL    MW4  604   2.121   4.255   0.404
  144SOL     OW  605   3.075   0.156   0.488
  144SOL    HW2  606   2.992   0.203   0.497
  144SOL    HW3  607   3.088   0.113   0.572
  144SOL    MW4  608   3.066   0.157   0.500
  145SOL     OW  609   2.511   3.695   0.411
  145SOL    HW2  610   2.506   3.674   0.504
  145SOL    HW3  611   2.511   3.611   0.366
  145SOL    MW4  612   2.510   3.681   0.417
  146SOL     OW  613   2.521   4.157   0.529
  146SOL    HW2  614   2.463   4.224   0.491
  146SOL    HW3  615   2.493   4.075   0.488
  146SOL    MW4  616   2.510   4.155   0.518
  147SOL     OW  617   2.614   0.154   0.472
  147SOL    HW2  618   2.548   0.221   0.452
  147SOL    HW3  619   2.694   0.204   0.489
  147SOL    MW4  620   2.616   0.170   0.472
  148SOL     OW  621   1.649   0.473   0.474
  148SOL    HW2  622   1.658   0.377   0.479
  148SOL    HW3  623   1.652   0.501   0.565
  148SOL    MW4  624   1.651   0.464   0.487
  149SOL     OW  625   3.248   0.679   0.452
  149SOL    HW2  626   3.248   0.775   0.450
  149SOL    HW3  627   3.296   0.654   0.373
  149SOL    MW4  628   3.254   0.689   0.442
  150SOL     OW  629   2.174   1.477   0.376
  150SOL    HW2  630   2.142   1.566   0.364
  150SOL    HW3  631   2.254   1.488   0.429
  150SOL    MW4  632   2.180   1.490   0.382
  151SOL     OW  633   2.526   0.584   0.274
  151SOL    HW2  634   2.531   0.669   0.317
  151SOL    HW3  635   2.610   0.542   0.291
  151SOL    MW4  636   2.538   0.589   0.282
  152SOL     OW  637   3.085   1.650   0.533
  152SOL    HW2  638   2.993   1.626   0.524
  152SOL    HW3  639   3.085   1.745   0.544
  152SOL    MW4  640   3.073   1.659   0.533
  153SOL     OW  641   3.467   1.014   0.460
  153SOL    HW2  642   3.524   0.978   0.392
  153SOL    HW3  643   3.501   0.978   0.542
  153SOL    MW4  644   3.479   1.005   0.462
  154SOL     OW  645   3.714   2.010   0.345
  154SOL    HW2  646   3.742   2.088   0.298
  154SOL    HW3  647   3.760   2.015   0.429
  154SOL    MW4  648   3.723   2.021   0.350
  155SOL     OW  649   2.853   0.300   0.525
  155SOL    HW2  650   2.810   0.370   0.475
  155SOL    HW3  651   2.855   0.332   0.615
  155SOL    MW4  652   2.848   0.314   0.530
  156SOL     OW  653   3.076   1.936   0.613
  156SOL    HW2  654   2.987   1.963   0.635
  156SOL    HW3  655   3.122   1.934   0.697
  156SOL    MW4  656   3.071   1.939   0.627
  157SOL     OW  657   2.720   2.499   0.491
  157SOL    HW2  658   2.815   2.509   0.486
  157SOL    HW3  659   2.704   2.408   0.468
  157SOL    MW4  660   2.730   2.488   0.487
  158SOL     OW  661   3.006   2.266   0.352
  158SOL    HW2  662   2.980   2.258   0.261
  158SOL    HW3  663   3.081   2.206   0.361
  158SOL    MW4  664   3.012   2.257   0.341
  159SOL     OW  665   2.308   2.526   0.464
  159SOL    HW2  666   2.288   2.510   0.556
  159SOL    HW3  667   2.241   2.588   0.436
  159SOL    MW4  668   2.296   2.532   0.472
  160SOL     OW  669   2.598   2.856   0.515
  160SOL    HW2  670   2.561   2.785   0.462
  160SOL    HW3  671   2.552   2.850   0.599
  160SOL    MW4  672   2.587   2.846   0.519
  161SOL     OW  673   3.177   3.209   0.454
  161SOL    HW2  674   3.166   3.114   0.456
  161SOL    HW3  675   3.142   3.239   0.538
  161SOL    MW4  676   3.171   3.201   0.466
  162SOL     OW  677   3.427   3.258   0.605
  162SOL    HW2  678   3.427   3.204   0.685
  162SOL    HW3  679   3.340   3.245   0.567
  162SOL    MW4  680   3.416   3.249   0.611
  163SOL     OW  681   2.266   3.229   0.409
  163SOL    HW2  682   2.347   3.178   0.407
  163SOL    HW3  683   2.240   3.230   0.501
  163SOL    MW4  684   2.273   3.222   0.421
  164SOL     OW  685   1.402   4.161   0.361
  164SOL    HW2  686   1.477   4.211   0.395
  164SOL    HW3  687   1.343   4.228   0.325
  164SOL    MW4  688   1.404   4.177   0.361
  165SOL     OW  689   3.374   4.110   0.347
  165SOL    HW2  690   3.296   4.105   0.292
  165SOL    HW3  691   3.365   4.038   0.409
  165SOL    MW4  692   3.362   4.100   0.348
  166SOL     OW  693   2.997   3.387   0.330
  166SOL    HW2  694   2.996   3.396   0.235
  166SOL    HW3  695   3.069   3.326   0.347
  166SOL    MW4  696   3.006   3.380   0.320
  167SOL     OW  697   2.712   3.295   0.434
  167SOL    HW2  698   2.714   3.279   0.528
  167SOL    HW3  699   2.804   3.296   0.408
  167SOL    MW4  700   2.724   3.293   0.443
  168SOL     OW  701   3.787   4.228   0.611
  168SOL    HW2  702   3.811   4.136   0.610
  168SOL    HW3  703   3.743   4.242   0.527
  168SOL    MW4  704   3.784   4.218   0.600
  169SOL     OW  705   3.119   4.113   0.198
  169SOL    HW2  706   3.101   4.206   0.211
  169SOL    HW3  707   3.045   4.068   0.237
  169SOL    MW4  708   3.107   4.119   0.205
  170SOL     OW  709   3.336   0.303   0.435
  170SOL    HW2  710   3.247   0.268   0.438
  170SOL    HW3  711   3.392   0.226   0.430
  170SOL    MW4  712   3.331   0.288   0.434
  171SOL     OW  713   2.735   0.057   0.238
  171SOL    HW2  714   2.804   0.005   0.277
  171SOL    HW3  715   2.691   0.098   0.312
  171SOL    MW4  716   2.738   0.056   0.253
  172SOL     OW  717   2.849   4.039   0.311
  172SOL    HW2  718   2.841   3.947   0.335
  172SOL    HW3  719   2.764   4.061   0.272
  172SOL    MW4  720   2.837   4.030   0.309
  173SOL     OW  721   2.879   0.302   0.169
  173SOL    HW2  722   2.968   0.266   0.181
  173SOL    HW3  723   2.822   0.225   0.174
  173SOL    MW4  724   2.883   0.287   0.172
  174SOL     OW  725   2.831   0.860   0.467
  174SOL    HW2  726   2.876   0.942   0.447
  174SOL    HW3  727   2.782   0.879   0.547
  174SOL    MW4  728   2.831   0.873   0.475
  175SOL     OW  729   3.468   1.536   0.332
  175SOL    HW2  730   3.504   1.572   0.414
  175SOL    HW3  731   3.433   1.450   0.357
  175SOL    MW4  732   3.468   1.529   0.346
  176SOL     OW  733   3.550   0.669   0.476
  176SOL    HW2  734   3.465   0.627   0.462
  176SOL    HW3  735   3.541   0.717   0.558
  176SOL    MW4  736   3.538   0.670   0.485
  177SOL     OW  737   3.194   0.970   0.448
  177SOL    HW2  738   3.165   0.942   0.535
  177SOL    HW3  739   3.284   0.998   0.460
  177SOL    MW4  740   3.202   0.970   0.461
  178SOL     OW  741   3.559   1.900   0.637
  178SOL    HW2  742   3.492   1.934   0.578
  178SOL    HW3  743   3.524   1.915   0.724
  178SOL    MW4  744   3.546   1.906   0.640
  179SOL     OW  745   3.446   1.990   0.407
  179SOL    HW2  746   3.398   1.918   0.365
  179SOL    HW3  747   3.535   1.982   0.373
  179SOL    MW4  748   3.451   1.979   0.397
  180SOL     OW  749   3.408   1.276   0.467
  180SOL    HW2  750   3.438   1.187   0.450
  180SOL    HW3  751   3.368   1.273   0.554
  180SOL    MW4  752   3.407   1.264   0.476
  181SOL     OW  753   3.778   1.745   0.388
  181SOL    HW2  754   3.756   1.831   0.351
  181SOL    HW3  755   3.711   1.728   0.453
  181SOL    MW4  756   3.766   1.754   0.392
  182SOL     OW  757   3.305   2.352   0.598
  182SOL    HW2  758   3.264   2.276   0.556
  182SOL    HW3  759   3.349   2.316   0.675
  182SOL    MW4  760   3.305   2.337   0.603
  183SOL     OW  761   3.545   2.742   0.643
  183SOL    HW2  762   3.573   2.692   0.720
  183SOL    HW3  763   3.526   2.676   0.577
  183SOL    MW4  764   3.546   2.727   0.644
  184SOL     OW  765   2.121   2.772   0.437
  184SOL    HW2  766   2.108   2.791   0.530
  184SOL    HW3  767   2.117   2.858   0.395
  184SOL    MW4  768   2.119   2.786   0.444
  185SOL     OW  769   3.230   2.695   0.413
  185SOL    HW2  770   3.163   2.628   0.431
  185SOL    HW3  771   3.313   2.647   0.414
  185SOL    MW4  772   3.232   2.680   0.416
  186SOL     OW  773   2.889   2.845   0.698
  186SOL    HW2  774   2.901   2.847   0.603
  186SOL    HW3  775   2.971   2.809   0.732
  186SOL    MW4  776   2.901   2.841   0.690
  187SOL     OW  777   2.548   0.804   0.428
  187SOL    HW2  778   2.640   0.830   0.421
  187SOL    HW3  779   2.499   0.883   0.404
  187SOL    MW4  780   2.554   0.818   0.424
  188SOL     OW  781   2.928   4.207   0.519
  188SOL    HW2  782   2.889   4.153   0.450
  188SOL    HW3  783   2.996   4.151   0.558
  188SOL    MW4  784   2.932   4.192   0.515
  189SOL     OW  785   3.307   3.645   0.483
  189SOL    HW2  786   3.373   3.620   0.418
  189SOL    HW3  787   3.339   3.609   0.565
  189SOL    MW4  788   3.320   3.637   0.485
  190SOL     OW  789   3.888   3.404   0.459
  190SOL    HW2  790   3.982   3.384   0.458
  190SOL    HW3  791   3.877   3.462   0.535
  190SOL    MW4  792   3.899   3.409   0.469
  191SOL     OW  793   3.763   3.268   0.770
  191SOL    HW2  794   3.855   3.281   0.791
  191SOL    HW3  795   3.763   3.245   0.677
  191SOL    MW4  796   3.775   3.267   0.760
  192SOL     OW  797   2.771   3.818   0.459
  192SOL    HW2  798   2.831   3.744   0.453
  192SOL    HW3  799   2.684   3.778   0.456
  192SOL    MW4  800   2.767   3.803   0.458
  193SOL     OW  801   2.504   3.106   0.400
  193SOL    HW2  802   2.584   3.154   0.419
  193SOL    HW3  803   2.519   3.018   0.434
  193SOL    MW4  804   2.517   3.101   0.407
  194SOL     OW  805   4.379   0.355   0.351
  194SOL    HW2  806   4.462   0.400   0.341
  194SOL    HW3  807   4.402   0.262   0.358
  194SOL    MW4  808   4.393   0.348   0.350
  195SOL     OW  809   3.974   0.188   0.431
  195SOL    HW2  810   3.879   0.199   0.421
  195SOL    HW3  811   4.012   0.246   0.364
  195SOL    MW4  812   3.967   0.197   0.421
  196SOL     OW  813   2.782   0.489   0.351
  196SOL    HW2  814   2.821   0.430   0.287
  196SOL    HW3  815   2.855   0.542   0.383
  196SOL    MW4  816   2.797   0.488   0.347
  197SOL     OW  817   3.367   0.533   0.260
  197SOL    HW2  818   3.362   0.445   0.298
  197SOL    HW3  819   3.426   0.523   0.186
  197SOL    MW4  820   3.374   0.520   0.255
  198SOL     OW  821   3.953   0.643   0.358
  198SOL    HW2  822   4.039   0.601   0.367
  198SOL    HW3  823   3.896   0.593   0.415
  198SOL    MW4  824   3.957   0.631   0.366
  199SOL     OW  825   4.343   0.903   0.298
  199SOL    HW2  826   4.256   0.903   0.336
  199SOL    HW3  827   4.329   0.928   0.206
  199SOL    MW4  828   4.330   0.906   0.291
  200SOL     OW  829   3.697   0.679   0.231
  200SOL    HW2  830   3.651   0.706   0.310
  200SOL    HW3  831   3.788   0.668   0.258
  200SOL    MW4  832   3.703   0.681   0.245
  201SOL     OW  833   3.876   1.062   0.358
  201SOL    HW2  834   3.893   1.146   0.315
  201SOL    HW3  835   3.840   1.085   0.443
  201SOL    MW4  836   3.874   1.076   0.363
  202SOL     OW  837   3.684   1.284   0.458
  202SOL    HW2  838   3.589   1.293   0.458
  202SOL    HW3  839   3.716   1.360   0.409
  202SOL    MW4  840   3.676   1.295   0.451
  203SOL     OW  841   3.308   1.776   0.337
  203SOL    HW2  842   3.222   1.768   0.378
  203SOL    HW3  843   3.341   1.686   0.334
  203SOL    MW4  844   3.301   1.763   0.342
  204SOL     OW  845   2.947   1.104   0.381
  204SOL    HW2  846   3.039   1.080   0.390
  204SOL    HW3  847   2.938   1.131   0.290
  204SOL    MW4  848   2.958   1.104   0.370
  205SOL     OW  849   3.731   2.479   0.364
  205SOL    HW2  850   3.772   2.425   0.297
  205SOL    HW3  851   3.755   2.437   0.447
  205SOL    MW4  852   3.740   2.466   0.366
  206SOL     OW  853   4.119   3.034   0.391
  206SOL    HW2  854   4.159   2.953   0.425
  206SOL    HW3  855   4.033   3.037   0.432
  206SOL    MW4  856   4.113   3.023   0.401
  207SOL     OW  857   2.999   2.531   0.466
  207SOL    HW2  858   3.020   2.514   0.558
  207SOL    HW3  859   3.003   2.445   0.424
  207SOL    MW4  860   3.002   2.517   0.473
  208SOL     OW  861   3.011   3.629   0.476
  208SOL    HW2  862   3.107   3.632   0.482
  208SOL    HW3  863   2.993   3.552   0.422
  208SOL    MW4  864   3.022   3.619   0.469
  209SOL     OW  865   3.124   2.934   0.484
  209SOL    HW2  866   3.166   2.854   0.454
  209SOL    HW3  867   3.033   2.926   0.454
  209SOL    MW4  868   3.117   2.923   0.476
  210SOL     OW  869   3.882   2.985   0.530
  210SOL    HW2  870   3.853   2.906   0.485
  210SOL    HW3  871   3.817   3.051   0.509
  210SOL    MW4  872   3.870   2.983   0.522
  211SOL     OW  873   3.778   2.726   0.474
  211SOL    HW2  874   3.760   2.649   0.419
  211SOL    HW3  875   3.706   2.729   0.536
  211SOL    MW4  876   3.766   2.716   0.475
  212SOL     OW  877   3.892   4.004   0.273
  212SOL    HW2  878   3.883   3.932   0.335
  212SOL    HW3  879   3.917   3.961   0.191
  212SOL    MW4  880   3.894   3.989   0.270
  213SOL     OW  881   3.452   2.536   0.458
  213SOL    HW2  882   3.413   2.458   0.498
  213SOL    HW3  883   3.510   2.501   0.390
  213SOL    MW4  884   3.455   2.521   0.454
  214SOL     OW  885   3.346   3.916   0.544
  214SOL    HW2  886   3.396   3.927   0.624
  214SOL    HW3  887   3.337   3.821   0.533
  214SOL    MW4  888   3.351   3.905   0.553
  215SOL     OW  889   4.284   4.008   0.388
  215SOL    HW2  890   4.238   4.004   0.472
  215SOL    HW3  891   4.226   4.060   0.332
  215SOL    MW4  892   4.270   4.015   0.392
  216SOL     OW  893   3.653   4.206   0.362
  216SOL    HW2  894   3.714   4.141   0.329
  216SOL    HW3  895   3.567   4.165   0.355
  216SOL    MW4  896   3.650   4.192   0.357
  217SOL     OW  897   3.638   4.515   0.371
  217SOL    HW2  898   3.642   4.424   0.342
  217SOL    HW3  899   3.729   4.540   0.386
  217SOL    MW4  900   3.651   4.506   0.369
  218SOL     OW  901   4.489   0.097   0.439
  218SOL    HW2  902   4.453   0.008   0.439
  218SOL    HW3  903   4.504   0.117   0.532
  218SOL    MW4  904   4.486   0.088   0.452
  219SOL     OW  905   4.077   0.897   0.444
  219SOL    HW2  906   4.050   0.822   0.391
  219SOL    HW3  907   4.018   0.968   0.417
  219SOL    MW4  908   4.066   0.897   0.433
  220SOL     OW  909   0.262   2.262   0.419
  220SOL    HW2  910   0.284   2.346   0.459
  220SOL    HW3  911   0.178   2.238   0.458
  220SOL    MW4  912   0.254   2.270   0.429
  221SOL     OW  913   4.240   0.562   0.492
  221SOL    HW2  914   4.270   0.491   0.436
  221SOL    HW3  915   4.317   0.617   0.505
  221SOL    MW4  916   4.254   0.560   0.486
  222SOL     OW  917   3.981   1.308   0.261
  222SOL    HW2  918   4.053   1.360   0.296
  222SOL    HW3  919   3.916   1.372   0.233
  222SOL    MW4  920   3.982   1.323   0.262
  223SOL     OW  921   3.505   0.081   0.384
  223SOL    HW2  922   3.544  -0.005   0.369
  223SOL    HW3  923   3.573   0.144   0.359
  223SOL    MW4  924   3.519   0.078   0.379
  224SOL     OW  925   3.635   0.961   0.260
  224SOL    HW2  926   3.708   1.020   0.279
  224SOL    HW3  927   3.677   0.882   0.227
  224SOL    MW4  928   3.650   0.958   0.258
  225SOL     OW  929   0.061   1.030   0.469
  225SOL    HW2  930   0.040   0.998   0.557
  225SOL    HW3  931  -0.020   1.017   0.419
  225SOL    MW4  932   0.047   1.024   0.474
  226SOL     OW  933   4.111   2.250   0.394
  226SOL    HW2  934   4.094   2.296   0.477
  226SOL    HW3  935   4.199   2.279   0.369
  226SOL    MW4  936   4.121   2.260   0.402
  227SOL     OW  937   0.247   1.544   0.417
  227SOL    HW2  938   0.239   1.450   0.430
  227SOL    HW3  939   0.156   1.577   0.420
  227SOL    MW4  940   0.234   1.536   0.419
  228SOL     OW  941   0.881   2.487   0.477
  228SOL    HW2  942   0.955   2.434   0.506
  228SOL    HW3  943   0.918   2.549   0.414
  228SOL    MW4  944   0.895   2.488   0.473
  229SOL     OW  945   4.154   1.972   0.510
  229SOL    HW2  946   4.238   1.948   0.471
  229SOL    HW3  947   4.135   2.059   0.474
  229SOL    MW4  948   4.163   1.981   0.500
  230SOL     OW  949   4.466   2.632   0.464
  230SOL    HW2  950   4.543   2.688   0.451
  230SOL    HW3  951   4.481   2.589   0.548
  230SOL    MW4  952   4.478   2.634   0.473
  231SOL     OW  953   4.290   3.552   0.447
  231SOL    HW2  954   4.355   3.532   0.379
  231SOL    HW3  955   4.251   3.467   0.467
  231SOL    MW4  956   4.294   3.538   0.441
  232SOL     OW  957   4.218   2.806   0.519
  232SOL    HW2  958   4.147   2.745   0.536
  232SOL    HW3  959   4.289   2.752   0.484
  232SOL    MW4  960   4.218   2.791   0.517
  233SOL     OW  961   0.250   3.855   0.384
  233SOL    HW2  962   0.171   3.905   0.401
  233SOL    HW3  963   0.321   3.912   0.412
  233SOL    MW4  964   0.249   3.869   0.390
  234SOL     OW  965   0.052   3.517   0.309
  234SOL    HW2  966   0.075   3.565   0.230
  234SOL    HW3  967   0.110   3.552   0.376
  234SOL    MW4  968   0.062   3.528   0.308
  235SOL     OW  969   0.045   3.253   0.400
  235SOL    HW2  970  -0.012   3.197   0.346
  235SOL    HW3  971   0.045   3.338   0.356
  235SOL    MW4  972   0.037   3.257   0.387
  236SOL     OW  973   3.896   3.779   0.462
  236SOL    HW2  974   3.886   3.704   0.521
  236SOL    HW3  975   3.976   3.759   0.412
  236SOL    MW4  976   3.905   3.766   0.463
  237SOL     OW  977   3.713   3.203   0.505
  237SOL    HW2  978   3.761   3.278   0.468
  237SOL    HW3  979   3.622   3.233   0.508
  237SOL    MW4  980   3.708   3.217   0.500
  238SOL     OW  981   0.052   4.089   0.437
  238SOL    HW2  982   0.044   4.100   0.531
  238SOL    HW3  983  -0.036   4.064   0.407
  238SOL    MW4  984   0.039   4.087   0.445
  239SOL     OW  985   4.127   4.387   0.390
  239SOL    HW2  986   4.054   4.449   0.390
  239SOL    HW3  987   4.123   4.345   0.475
  239SOL    MW4  988   4.117   4.390   0.401
  240SOL     OW  989   4.110   4.315   0.660
  240SOL    HW2  990   4.056   4.345   0.733
  240SOL    HW3  991   4.194   4.359   0.674
  240SOL    MW4  992   4.114   4.325   0.672
  241SOL     OW  993   3.906   4.579   0.460
  241SOL    HW2  994   3.926   4.672   0.454
  241SOL    HW3  995   3.904   4.560   0.554
  241SOL    MW4  996   3.908   4.589   0.471
  242SOL     OW  997   0.240   4.659   0.873
  242SOL    HW2  998   0.236   4.573   0.832
  242SOL    HW3  999   0.168   4.709   0.834
  242SOL    MW4 1000   0.230   4.654   0.862
  243SOL     OW 1001   0.023   0.110   0.734
  243SOL    HW2 1002  -0.064   0.073   0.752
  243SOL    HW3 1003   0.012   0.204   0.746
  243SOL    MW4 1004   0.010   0.118   0.738
  244SOL     OW 1005   0.001   0.391   0.800
  244SOL    HW2 1006   0.003   0.400   0.895
  244SOL    HW3 1007   0.074   0.445   0.769
  244SOL    MW4 1008   0.011   0.399   0.808
  245SOL     OW 1009   0.212   0.530   0.676
  245SOL    HW2 1010   0.285   0.483   0.717
  245SOL    HW3 1011   0.198   0.607   0.732
  245SOL    MW4 1012   0.220   0.534   0.689
  246SOL     OW 1013   0.190   0.773   0.838
  246SOL    HW2 1014   0.191   0.790   0.932
  246SOL    HW3 1015   0.116   0.825   0.805
  246SOL    MW4 1016   0.180   0.782   0.846
  247SOL     OW 1017   4.468   0.893   0.697
  247SOL    HW2 1018   4.390   0.855   0.738
  247SOL    HW3 1019   4.486   0.835   0.623
  247SOL    MW4 1020   4.460   0.880   0.692
  248SOL     OW 1021   0.018   1.141   0.844
  248SOL    HW2 1022   0.017   1.135   0.940
  248SOL    HW3 1023  -0.014   1.055   0.815
  248SOL    MW4 1024   0.013   1.129   0.853
  249SOL     OW 1025   0.239   1.296   0.746
  249SOL    HW2 1026   0.151   1.259   0.752
  249SOL    HW3 1027   0.263   1.286   0.654
  249SOL    MW4 1028   0.230   1.290   0.735
  250SOL     OW 1029   0.173   1.557   0.791
  250SOL    HW2 1030   0.257   1.593   0.763
  250SOL    HW3 1031   0.184   1.462   0.786
  250SOL    MW4 1032   0.186   1.550   0.787
  251SOL     OW 1033   4.453   1.690   0.713
  251SOL    HW2 1034   4.377   1.649   0.753
  251SOL    HW3 1035   4.528   1.650   0.758
  251SOL    MW4 1036   4.453   1.680   0.724
  252SOL     OW 1037   4.457   1.952   0.814
  252SOL    HW2 1038   4.526   1.995   0.762
  252SOL    HW3 1039   4.457   1.861   0.785
  252SOL    MW4 1040   4.466   1.946   0.803
  253SOL     OW 1041   0.163   2.081   0.685
  253SOL    HW2 1042   0.179   2.148   0.752
  253SOL    HW3 1043   0.104   2.124   0.623
  253SOL    MW4 1044   0.157   2.095   0.686
  254SOL     OW 1045   0.196   2.329   0.851
  254SOL    HW2 1046   0.199   2.313   0.945
  254SOL    HW3 1047   0.265   2.392   0.834
  254SOL    MW4 1048   0.205   2.335   0.861
  255SOL     OW 1049   4.480   2.437   0.695
  255SOL    HW2 1050   4.400   2.407   0.738
  255SOL    HW3 1051   4.551   2.395   0.745
  255SOL    MW4 1052   4.479   2.427   0.707
  256SOL     OW 1053   4.469   2.695   0.821
  256SOL    HW2 1054   4.469   2.688   0.917
  256SOL    HW3 1055   4.485   2.605   0.791
  256SOL    MW4 1056   4.471   2.682   0.830
  257SOL     OW 1057   0.197   2.844   0.746
  257SOL    HW2 1058   0.112   2.808   0.770
  257SOL    HW3 1059   0.202   2.831   0.651
  257SOL    MW4 1060   0.186   2.838   0.736
  258SOL     OW 1061   0.220   3.134   0.836
  258SOL    HW2 1062   0.215   3.154   0.930
  258SOL    HW3 1063   0.195   3.042   0.830
  258SOL    MW4 1064   0.216   3.125   0.848
  259SOL     OW 1065   0.009   3.262   0.677
  259SOL    HW2 1066   0.080   3.222   0.726
  259SOL    HW3 1067   0.027   3.240   0.586
  259SOL    MW4 1068   0.020   3.254   0.671
  260SOL     OW 1069   0.035   3.471   0.853
  260SOL    HW2 1070  -0.016   3.543   0.815
  260SOL    HW3 1071   0.022   3.398   0.792
  260SOL    MW4 1072   0.027   3.471   0.840
  261SOL     OW 1073   0.258   3.618   0.776
  261SOL    HW2 1074   0.193   3.554   0.806
  261SOL    HW3 1075   0.248   3.620   0.681
  261SOL    MW4 1076   0.248   3.610   0.768
  262SOL     OW 1077   0.250   3.903   0.834
  262SOL    HW2 1078   0.245   3.887   0.928
  262SOL    HW3 1079   0.240   3.816   0.794
  262SOL    MW4 1080   0.248   3.889   0.841
  263SOL     OW 1081   0.059   4.067   0.722
  263SOL    HW2 1082  -0.016   4.010   0.740
  263SOL    HW3 1083   0.132   4.027   0.768
  263SOL    MW4 1084   0.058   4.054   0.730
  264SOL     OW 1085   4.468   4.275   0.880
  264SOL    HW2 1086   4.493   4.258   0.971
  264SOL    HW3 1087   4.511   4.206   0.830
  264SOL    MW4 1088   4.477   4.264   0.885
  265SOL     OW 1089   0.195   4.411   0.756
  265SOL    HW2 1090   0.119   4.377   0.804
  265SOL    HW3 1091   0.170   4.403   0.664
  265SOL    MW4 1092   0.181   4.405   0.750
  266SOL     OW 1093   0.667   0.008   0.807
  266SOL    HW2 1094   0.673  -0.003   0.902
  266SOL    HW3 1095   0.590   0.064   0.795
  266SOL    MW4 1096   0.657   0.014   0.818
  267SOL     OW 1097   0.444   0.147   0.765
  267SOL    HW2 1098   0.370   0.092   0.790
  267SOL    HW3 1099   0.450   0.137   0.670
  267SOL    MW4 1100   0.435   0.139   0.756
  268SOL     OW 1101   0.400   0.410   0.840
  268SOL    HW2 1102   0.479   0.459   0.818
  268SOL    HW3 1103   0.420   0.319   0.816
  268SOL    MW4 1104   0.413   0.404   0.834
  269SOL     OW 1105   0.643   0.544   0.752
  269SOL    HW2 1106   0.720   0.493   0.778
  269SOL    HW3 1107   0.634   0.526   0.658
  269SOL    MW4 1108   0.652   0.535   0.743
  270SOL     OW 1109   0.623   0.820   0.814
  270SOL    HW2 1110   0.541   0.842   0.770
  270SOL    HW3 1111   0.632   0.726   0.803
  270SOL    MW4 1112   0.613   0.811   0.807
  271SOL     OW 1113   0.384   0.897   0.683
  271SOL    HW2 1114   0.399   0.974   0.738
  271SOL    HW3 1115   0.311   0.851   0.724
  271SOL    MW4 1116   0.377   0.901   0.695
  272SOL     OW 1117   0.462   1.146   0.818
  272SOL    HW2 1118   0.537   1.184   0.774
  272SOL    HW3 1119   0.389   1.205   0.798
  272SOL    MW4 1120   0.462   1.159   0.810
  273SOL     OW 1121   0.662   1.281   0.660
  273SOL    HW2 1122   0.643   1.356   0.717
  273SOL    HW3 1123   0.652   1.315   0.571
  273SOL    MW4 1124   0.658   1.296   0.656
  274SOL     OW 1125   0.614   1.520   0.790
  274SOL    HW2 1126   0.617   1.535   0.885
  274SOL    HW3 1127   0.535   1.566   0.762
  274SOL    MW4 1128   0.604   1.528   0.799
  275SOL     OW 1129   0.417   1.638   0.664
  275SOL    HW2 1130   0.391   1.730   0.656
  275SOL    HW3 1131   0.402   1.601   0.577
  275SOL    MW4 1132   0.412   1.645   0.652
  276SOL     OW 1133   0.401   1.926   0.632
  276SOL    HW2 1134   0.322   1.978   0.644
  276SOL    HW3 1135   0.442   1.962   0.553
  276SOL    MW4 1136   0.396   1.938   0.623
  277SOL     OW 1137   0.574   2.062   0.830
  277SOL    HW2 1138   0.512   2.040   0.900
  277SOL    HW3 1139   0.534   2.026   0.751
  277SOL    MW4 1140   0.561   2.054   0.829
  278SOL     OW 1141   0.619   2.321   0.723
  278SOL    HW2 1142   0.690   2.359   0.775
  278SOL    HW3 1143   0.611   2.231   0.756
  278SOL    MW4 1144   0.628   2.314   0.734
  279SOL     OW 1145   0.413   2.496   0.781
  279SOL    HW2 1146   0.468   2.422   0.805
  279SOL    HW3 1147   0.423   2.503   0.686
  279SOL    MW4 1148   0.422   2.487   0.771
  280SOL     OW 1149   0.441   2.752   0.870
  280SOL    HW2 1150   0.438   2.658   0.853
  280SOL    HW3 1151   0.358   2.785   0.836
  280SOL    MW4 1152   0.430   2.744   0.863
  281SOL     OW 1153   0.672   2.837   0.694
  281SOL    HW2 1154   0.757   2.804   0.720
  281SOL    HW3 1155   0.611   2.802   0.759
  281SOL    MW4 1156   0.675   2.828   0.706
  282SOL     OW 1157   0.690   3.099   0.798
  282SOL    HW2 1158   0.606   3.141   0.777
  282SOL    HW3 1159   0.686   3.013   0.756
  282SOL    MW4 1160   0.679   3.094   0.789
  283SOL     OW 1161   0.443   3.248   0.727
  283SOL    HW2 1162   0.443   3.339   0.755
  283SOL    HW3 1163   0.356   3.215   0.750
  283SOL    MW4 1164   0.432   3.256   0.734
  284SOL     OW 1165   0.469   3.474   0.869
  284SOL    HW2 1166   0.474   3.475   0.964
  284SOL    HW3 1167   0.394   3.529   0.847
  284SOL    MW4 1168   0.460   3.481   0.878
  285SOL     OW 1169   0.661   3.634   0.716
  285SOL    HW2 1170   0.579   3.604   0.756
  285SOL    HW3 1171   0.672   3.723   0.749
  285SOL    MW4 1172   0.651   3.641   0.725
  286SOL     OW 1173   0.685   3.893   0.827
  286SOL    HW2 1174   0.760   3.935   0.784
  286SOL    HW3 1175   0.611   3.949   0.805
  286SOL    MW4 1176   0.685   3.906   0.819
  287SOL     OW 1177   0.474   4.042   0.742
  287SOL    HW2 1178   0.463   4.136   0.755
  287SOL    HW3 1179   0.396   4.003   0.781
  287SOL    MW4 1180   0.463   4.049   0.749
  288SOL     OW 1181   0.435   4.298   0.813
  288SOL    HW2 1182   0.434   4.286   0.908
  288SOL    HW3 1183   0.346   4.327   0.791
  288SOL    MW4 1184   0.423   4.300   0.822
  289SOL     OW 1185   0.654   4.399   0.713
  289SOL    HW2 1186   0.587   4.370   0.774
  289SOL    HW3 1187   0.652   4.495   0.718
  289SOL    MW4 1188   0.645   4.408   0.721
  290SOL     OW 1189   1.114   4.647   0.855
  290SOL    HW2 1190   1.192   4.687   0.816
  290SOL    HW3 1191   1.041   4.699   0.821
  290SOL    MW4 1192   1.115   4.659   0.845
  291SOL     OW 1193   0.907   0.140   0.736
  291SOL    HW2 1194   0.896   0.233   0.754
  291SOL    HW3 1195   0.824   0.100   0.762
  291SOL    MW4 1196   0.894   0.147   0.742
  292SOL     OW 1197   0.866   0.398   0.817
  292SOL    HW2 1198   0.871   0.382   0.912
  292SOL    HW3 1199   0.946   0.445   0.796
  292SOL    MW4 1200   0.877   0.402   0.827
  293SOL     OW 1201   1.105   0.524   0.753
  293SOL    HW2 1202   1.181   0.471   0.776
  293SOL    HW3 1203   1.118   0.544   0.660
  293SOL    MW4 1204   1.117   0.520   0.743
  294SOL     OW 1205   1.040   0.814   0.825
  294SOL    HW2 1206   1.081   0.830   0.910
  294SOL    HW3 1207   1.056   0.721   0.808
  294SOL    MW4 1208   1.047   0.804   0.834
  295SOL     OW 1209   0.842   0.922   0.668
  295SOL    HW2 1210   0.915   0.875   0.707
  295SOL    HW3 1211   0.764   0.880   0.702
  295SOL    MW4 1212   0.842   0.910   0.677
  296SOL     OW 1213   0.873   1.168   0.829
  296SOL    HW2 1214   0.877   1.078   0.798
  296SOL    HW3 1215   0.799   1.206   0.781
  296SOL    MW4 1216   0.864   1.161   0.818
  297SOL     OW 1217   1.111   1.289   0.763
  297SOL    HW2 1218   1.031   1.242   0.788
  297SOL    HW3 1219   1.112   1.285   0.667
  297SOL    MW4 1220   1.101   1.282   0.754
  298SOL     OW 1221   1.100   1.566   0.829
  298SOL    HW2 1222   1.007   1.583   0.812
  298SOL    HW3 1223   1.113   1.476   0.800
  298SOL    MW4 1224   1.089   1.556   0.823
  299SOL     OW 1225   0.858   1.658   0.761
  299SOL    HW2 1226   0.831   1.733   0.814
  299SOL    HW3 1227   0.785   1.597   0.767
  299SOL    MW4 1228   0.845   1.660   0.769
  300SOL     OW 1229   0.802   1.917   0.859
  300SOL    HW2 1230   0.834   1.931   0.948
  300SOL    HW3 1231   0.719   1.965   0.856
  300SOL    MW4 1232   0.795   1.925   0.870
  301SOL     OW 1233   1.011   2.050   0.718
  301SOL    HW2 1234   1.030   2.120   0.781
  301SOL    HW3 1235   0.939   2.000   0.759
  301SOL    MW4 1236   1.004   2.052   0.732
  302SOL     OW 1237   1.047   2.268   0.888
  302SOL    HW2 1238   1.063   2.258   0.982
  302SOL    HW3 1239   1.125   2.313   0.855
  302SOL    MW4 1240   1.060   2.272   0.896
  303SOL     OW 1241   0.817   2.434   0.876
  303SOL    HW2 1242   0.900   2.389   0.893
  303SOL    HW3 1243   0.768   2.425   0.957
  303SOL    MW4 1244   0.822   2.427   0.889
  304SOL     OW 1245   0.870   2.692   0.799
  304SOL    HW2 1246   0.893   2.721   0.887
  304SOL    HW3 1247   0.863   2.597   0.807
  304SOL    MW4 1248   0.872   2.683   0.812
  305SOL     OW 1249   1.109   2.785   0.704
  305SOL    HW2 1250   1.025   2.742   0.722
  305SOL    HW3 1251   1.093   2.833   0.622
  305SOL    MW4 1252   1.096   2.786   0.696
  306SOL     OW 1253   1.168   3.080   0.757
  306SOL    HW2 1254   1.094   3.137   0.741
  306SOL    HW3 1255   1.136   2.992   0.737
  306SOL    MW4 1256   1.154   3.076   0.752
  307SOL     OW 1257   0.933   3.252   0.763
  307SOL    HW2 1258   0.943   3.345   0.780
  307SOL    HW3 1259   0.847   3.230   0.799
  307SOL    MW4 1260   0.923   3.261   0.770
  308SOL     OW 1261   0.927   3.530   0.830
  308SOL    HW2 1262   0.989   3.599   0.805
  308SOL    HW3 1263   0.845   3.554   0.787
  308SOL    MW4 1264   0.925   3.542   0.821
  309SOL     OW 1265   1.148   3.714   0.742
  309SOL    HW2 1266   1.216   3.652   0.771
  309SOL    HW3 1267   1.125   3.686   0.654
  309SOL    MW4 1268   1.154   3.702   0.735
  310SOL     OW 1269   1.100   3.943   0.864
  310SOL    HW2 1270   1.095   3.927   0.958
  310SOL    HW3 1271   1.117   3.857   0.825
  310SOL    MW4 1272   1.102   3.930   0.871
  311SOL     OW 1273   0.896   4.006   0.692
  311SOL    HW2 1274   0.870   4.095   0.716
  311SOL    HW3 1275   0.963   3.982   0.756
  311SOL    MW4 1276   0.902   4.015   0.704
  312SOL     OW 1277   0.869   4.258   0.812
  312SOL    HW2 1278   0.942   4.313   0.782
  312SOL    HW3 1279   0.791   4.309   0.791
  312SOL    MW4 1280   0.869   4.272   0.805
  313SOL     OW 1281   1.083   4.416   0.702
  313SOL    HW2 1282   1.154   4.358   0.729
  313SOL    HW3 1283   1.094   4.494   0.756
  313SOL    MW4 1284   1.093   4.418   0.713
  314SOL     OW 1285   1.576   4.625   0.876
  314SOL    HW2 1286   1.585   4.626   0.971
  314SOL    HW3 1287   1.492   4.668   0.860
  314SOL    MW4 1288   1.566   4.630   0.886
  315SOL     OW 1289   1.342   0.093   0.767
  315SOL    HW2 1290   1.332   0.186   0.789
  315SOL    HW3 1291   1.361   0.092   0.674
  315SOL    MW4 1292   1.343   0.105   0.758
  316SOL     OW 1293   1.333   0.358   0.840
  316SOL    HW2 1294   1.343   0.350   0.934
  316SOL    HW3 1295   1.413   0.401   0.810
  316SOL    MW4 1296   1.345   0.362   0.848
  317SOL     OW 1297   1.578   0.511   0.729
  317SOL    HW2 1298   1.553   0.593   0.772
  317SOL    HW3 1299   1.651   0.478   0.781
  317SOL    MW4 1300   1.584   0.518   0.742
  318SOL     OW 1301   1.515   0.750   0.862
  318SOL    HW2 1302   1.598   0.778   0.824
  318SOL    HW3 1303   1.449   0.801   0.815
  318SOL    MW4 1304   1.517   0.761   0.851
  319SOL     OW 1305   1.316   0.891   0.704
  319SOL    HW2 1306   1.317   0.979   0.742
  319SOL    HW3 1307   1.233   0.854   0.732
  319SOL    MW4 1308   1.305   0.898   0.713
  320SOL     OW 1309   1.315   1.118   0.861
  320SOL    HW2 1310   1.383   1.171   0.818
  320SOL    HW3 1311   1.233   1.161   0.836
  320SOL    MW4 1312   1.313   1.131   0.852
  321SOL     OW 1313   1.518   1.280   0.760
  321SOL    HW2 1314   1.506   1.375   0.761
  321SOL    HW3 1315   1.540   1.260   0.669
  321SOL    MW4 1316   1.519   1.290   0.748
  322SOL     OW 1317   1.688   1.694   0.871
  322SOL    HW2 1318   1.655   1.648   0.947
  322SOL    HW3 1319   1.771   1.650   0.850
  322SOL    MW4 1320   1.695   1.682   0.878
  323SOL     OW 1321   1.282   1.705   0.678
  323SOL    HW2 1322   1.281   1.795   0.712
  323SOL    HW3 1323   1.216   1.659   0.729
  323SOL    MW4 1324   1.273   1.711   0.689
  324SOL     OW 1325   1.242   1.944   0.848
  324SOL    HW2 1326   1.237   1.941   0.943
  324SOL    HW3 1327   1.162   1.989   0.821
  324SOL    MW4 1328   1.231   1.950   0.857
  325SOL     OW 1329   1.479   2.063   0.723
  325SOL    HW2 1330   1.445   2.075   0.635
  325SOL    HW3 1331   1.406   2.027   0.773
  325SOL    MW4 1332   1.465   2.060   0.718
  326SOL     OW 1333   1.533   2.316   0.842
  326SOL    HW2 1334   1.450   2.359   0.821
  326SOL    HW3 1335   1.523   2.227   0.807
  326SOL    MW4 1336   1.520   2.310   0.835
  327SOL     OW 1337   1.272   2.421   0.792
  327SOL    HW2 1338   1.289   2.514   0.809
  327SOL    HW3 1339   1.229   2.420   0.706
  327SOL    MW4 1340   1.269   2.434   0.783
  328SOL     OW 1341   1.348   2.708   0.820
  328SOL    HW2 1342   1.333   2.695   0.914
  328SOL    HW3 1343   1.263   2.732   0.785
  328SOL    MW4 1344   1.335   2.710   0.828
  329SOL     OW 1345   1.557   2.883   0.782
  329SOL    HW2 1346   1.545   2.974   0.809
  329SOL    HW3 1347   1.474   2.841   0.805
  329SOL    MW4 1348   1.544   2.889   0.789
  330SOL     OW 1349   1.598   3.158   0.867
  330SOL    HW2 1350   1.600   3.147   0.962
  330SOL    HW3 1351   1.516   3.204   0.850
  330SOL    MW4 1352   1.587   3.162   0.878
  331SOL     OW 1353   1.360   3.275   0.751
  331SOL    HW2 1354   1.302   3.199   0.743
  331SOL    HW3 1355   1.379   3.299   0.660
  331SOL    MW4 1356   1.355   3.268   0.738
  332SOL     OW 1357   1.336   3.520   0.852
  332SOL    HW2 1358   1.421   3.560   0.840
  332SOL    HW3 1359   1.346   3.431   0.818
  332SOL    MW4 1360   1.348   3.513   0.846
  333SOL     OW 1361   1.584   3.635   0.761
  333SOL    HW2 1362   1.669   3.592   0.757
  333SOL    HW3 1363   1.565   3.659   0.670
  333SOL    MW4 1364   1.592   3.632   0.749
  334SOL     OW 1365   1.582   3.878   0.875
  334SOL    HW2 1366   1.506   3.916   0.830
  334SOL    HW3 1367   1.591   3.791   0.836
  334SOL    MW4 1368   1.573   3.871   0.864
  335SOL     OW 1369   1.361   4.007   0.789
  335SOL    HW2 1370   1.271   3.988   0.816
  335SOL    HW3 1371   1.363   3.988   0.695
  335SOL    MW4 1372   1.350   4.002   0.780
  336SOL     OW 1373   1.316   4.276   0.797
  336SOL    HW2 1374   1.397   4.299   0.752
  336SOL    HW3 1375   1.317   4.181   0.802
  336SOL    MW4 1376   1.327   4.266   0.792
  337SOL     OW 1377   1.574   4.380   0.722
  337SOL    HW2 1378   1.653   4.326   0.733
  337SOL    HW3 1379   1.569   4.430   0.804
  337SOL    MW4 1380   1.584   4.379   0.735
  338SOL     OW 1381   1.775   0.109   0.776
  338SOL    HW2 1382   1.849   0.052   0.756
  338SOL    HW3 1383   1.707   0.049   0.808
  338SOL    MW4 1384   1.776   0.093   0.778
  339SOL     OW 1385   1.687   0.188   0.512
  339SOL    HW2 1386   1.599   0.150   0.515
  339SOL    HW3 1387   1.722   0.175   0.600
  339SOL    MW4 1388   1.680   0.181   0.524
  340SOL     OW 1389   1.811   0.381   0.847
  340SOL    HW2 1390   1.802   0.286   0.843
  340SOL    HW3 1391   1.891   0.399   0.799
  340SOL    MW4 1392   1.820   0.371   0.840
  341SOL     OW 1393   2.014   0.480   0.706
  341SOL    HW2 1394   2.003   0.467   0.612
  341SOL    HW3 1395   2.103   0.450   0.724
  341SOL    MW4 1396   2.025   0.475   0.696
  342SOL     OW 1397   1.981   0.728   0.813
  342SOL    HW2 1398   2.062   0.768   0.780
  342SOL    HW3 1399   1.979   0.641   0.774
  342SOL    MW4 1400   1.992   0.722   0.804
  343SOL     OW 1401   1.719   0.869   0.734
  343SOL    HW2 1402   1.750   0.955   0.760
  343SOL    HW3 1403   1.790   0.809   0.758
  343SOL    MW4 1404   1.732   0.872   0.741
  344SOL     OW 1405   1.746   1.139   0.820
  344SOL    HW2 1406   1.818   1.172   0.765
  344SOL    HW3 1407   1.675   1.201   0.806
  344SOL    MW4 1408   1.746   1.152   0.811
  345SOL     OW 1409   1.969   1.262   0.687
  345SOL    HW2 1410   2.042   1.207   0.714
  345SOL    HW3 1411   1.979   1.272   0.593
  345SOL    MW4 1412   1.980   1.256   0.678
  346SOL     OW 1413   1.919   1.518   0.840
  346SOL    HW2 1414   2.001   1.555   0.807
  346SOL    HW3 1415   1.907   1.438   0.789
  346SOL    MW4 1416   1.928   1.512   0.829
  347SOL     OW 1417   1.733   1.342   0.299
  347SOL    HW2 1418   1.702   1.427   0.330
  347SOL    HW3 1419   1.679   1.322   0.223
  347SOL    MW4 1420   1.722   1.351   0.293
  348SOL     OW 1421   1.742   1.946   0.747
  348SOL    HW2 1422   1.720   1.855   0.769
  348SOL    HW3 1423   1.657   1.988   0.732
  348SOL    MW4 1424   1.728   1.940   0.748
  349SOL     OW 1425   2.009   2.064   0.762
  349SOL    HW2 1426   1.993   2.155   0.788
  349SOL    HW3 1427   1.926   2.020   0.775
  349SOL    MW4 1428   1.996   2.070   0.767
  350SOL     OW 1429   1.966   2.336   0.818
  350SOL    HW2 1430   1.964   2.349   0.913
  350SOL    HW3 1431   1.891   2.388   0.786
  350SOL    MW4 1432   1.956   2.345   0.827
  351SOL     OW 1433   1.741   2.474   0.736
  351SOL    HW2 1434   1.672   2.420   0.775
  351SOL    HW3 1435   1.744   2.448   0.644
  351SOL    MW4 1436   1.732   2.464   0.729
  352SOL     OW 1437   1.776   2.722   0.838
  352SOL    HW2 1438   1.751   2.637   0.802
  352SOL    HW3 1439   1.698   2.778   0.825
  352SOL    MW4 1440   1.762   2.719   0.831
  353SOL     OW 1441   2.012   2.839   0.696
  353SOL    HW2 1442   2.088   2.794   0.732
  353SOL    HW3 1443   1.938   2.808   0.749
  353SOL    MW4 1444   2.012   2.829   0.708
  354SOL     OW 1445   2.026   3.092   0.799
  354SOL    HW2 1446   1.956   3.141   0.756
  354SOL    HW3 1447   2.023   3.005   0.759
  354SOL    MW4 1448   2.016   3.087   0.788
  355SOL     OW 1449   1.803   3.236   0.690
  355SOL    HW2 1450   1.739   3.207   0.755
  355SOL    HW3 1451   1.758   3.228   0.606
  355SOL    MW4 1452   1.788   3.231   0.688
  356SOL     OW 1453   1.827   3.497   0.793
  356SOL    HW2 1454   1.803   3.463   0.880
  356SOL    HW3 1455   1.823   3.420   0.736
  356SOL    MW4 1456   1.823   3.482   0.797
  357SOL     OW 1457   2.055   3.630   0.745
  357SOL    HW2 1458   2.049   3.713   0.792
  357SOL    HW3 1459   1.976   3.582   0.771
  357SOL    MW4 1460   2.043   3.634   0.755
  358SOL     OW 1461   2.020   3.881   0.842
  358SOL    HW2 1462   2.002   3.892   0.935
  358SOL    HW3 1463   1.944   3.918   0.798
  358SOL    MW4 1464   2.008   3.887   0.848
  359SOL     OW 1465   1.782   3.977   0.711
  359SOL    HW2 1466   1.715   3.949   0.773
  359SOL    HW3 1467   1.764   3.928   0.631
  359SOL    MW4 1468   1.771   3.967   0.708
  360SOL     OW 1469   1.810   4.235   0.792
  360SOL    HW2 1470   1.794   4.249   0.885
  360SOL    HW3 1471   1.787   4.144   0.776
  360SOL    MW4 1472   1.805   4.225   0.802
  361SOL     OW 1473   2.011   4.369   0.657
  361SOL    HW2 1474   1.948   4.322   0.712
  361SOL    HW3 1475   2.014   4.318   0.576
  361SOL    MW4 1476   2.003   4.356   0.653
  362SOL     OW 1477   2.667   0.040   0.736
  362SOL    HW2 1478   2.642   0.042   0.644
  362SOL    HW3 1479   2.679   0.132   0.760
  362SOL    MW4 1480   2.665   0.052   0.727
  363SOL     OW 1481   2.416   4.647   0.884
  363SOL    HW2 1482   2.494   4.671   0.835
  363SOL    HW3 1483   2.436   4.670   0.975
  363SOL    MW4 1484   2.429   4.653   0.889
  364SOL     OW 1485   2.245   0.371   0.803
  364SOL    HW2 1486   2.330   0.410   0.783
  364SOL    HW3 1487   2.251   0.282   0.767
  364SOL    MW4 1488   2.257   0.364   0.795
  365SOL     OW 1489   2.489   0.462   0.705
  365SOL    HW2 1490   2.470   0.449   0.612
  365SOL    HW3 1491   2.568   0.411   0.722
  365SOL    MW4 1492   2.497   0.454   0.695
  366SOL     OW 1493   2.481   0.738   0.696
  366SOL    HW2 1494   2.506   0.745   0.604
  366SOL    HW3 1495   2.485   0.644   0.715
  366SOL    MW4 1496   2.485   0.726   0.687
  367SOL     OW 1497   2.201   0.884   0.695
  367SOL    HW2 1498   2.288   0.845   0.684
  367SOL    HW3 1499   2.178   0.915   0.607
  367SOL    MW4 1500   2.209   0.883   0.682
  368SOL     OW 1501   2.222   1.151   0.793
  368SOL    HW2 1502   2.205   1.170   0.885
  368SOL    HW3 1503   2.228   1.055   0.789
  368SOL    MW4 1504   2.221   1.141   0.805
  369SOL     OW 1505   2.458   1.291   0.747
  369SOL    HW2 1506   2.382   1.235   0.758
  369SOL    HW3 1507   2.475   1.291   0.653
  369SOL    MW4 1508   2.451   1.284   0.737
  370SOL     OW 1509   2.417   1.559   0.827
  370SOL    HW2 1510   2.503   1.591   0.800
  370SOL    HW3 1511   2.421   1.465   0.814
  370SOL    MW4 1512   2.429   1.551   0.822
  371SOL     OW 1513   2.135   1.650   0.727
  371SOL    HW2 1514   2.226   1.621   0.738
  371SOL    HW3 1515   2.127   1.671   0.634
  371SOL    MW4 1516   2.146   1.649   0.716
  372SOL     OW 1517   2.217   1.901   0.835
  372SOL    HW2 1518   2.174   1.824   0.798
  372SOL    HW3 1519   2.155   1.972   0.818
  372SOL    MW4 1520   2.203   1.900   0.828
  373SOL     OW 1521   2.467   2.017   0.752
  373SOL    HW2 1522   2.383   1.983   0.784
  373SOL    HW3 1523   2.472   1.986   0.662
  373SOL    MW4 1524   2.457   2.008   0.744
  374SOL     OW 1525   2.446   2.279   0.837
  374SOL    HW2 1526   2.523   2.329   0.809
  374SOL    HW3 1527   2.461   2.192   0.802
  374SOL    MW4 1528   2.458   2.274   0.829
  375SOL     OW 1529   2.228   2.459   0.740
  375SOL    HW2 1530   2.285   2.398   0.788
  375SOL    HW3 1531   2.139   2.429   0.759
  375SOL    MW4 1532   2.224   2.447   0.749
  376SOL     OW 1533   2.247   2.724   0.838
  376SOL    HW2 1534   2.242   2.738   0.932
  376SOL    HW3 1535   2.249   2.629   0.827
  376SOL    MW4 1536   2.246   2.713   0.849
  377SOL     OW 1537   2.466   2.840   0.746
  377SOL    HW2 1538   2.524   2.784   0.796
  377SOL    HW3 1539   2.378   2.806   0.763
  377SOL    MW4 1540   2.462   2.828   0.755
  378SOL     OW 1541   2.461   3.109   0.804
  378SOL    HW2 1542   2.456   3.121   0.899
  378SOL    HW3 1543   2.468   3.014   0.793
  378SOL    MW4 1544   2.461   3.098   0.815
  379SOL     OW 1545   2.243   3.239   0.696
  379SOL    HW2 1546   2.167   3.188   0.724
  379SOL    HW3 1547   2.317   3.199   0.740
  379SOL    MW4 1548   2.242   3.227   0.705
  380SOL     OW 1549   2.283   3.487   0.790
  380SOL    HW2 1550   2.274   3.397   0.761
  380SOL    HW3 1551   2.199   3.528   0.767
  380SOL    MW4 1552   2.271   3.481   0.783
  381SOL     OW 1553   2.482   3.643   0.684
  381SOL    HW2 1554   2.564   3.604   0.715
  381SOL    HW3 1555   2.413   3.589   0.721
  381SOL    MW4 1556   2.484   3.631   0.693
  382SOL     OW 1557   2.502   3.922   0.767
  382SOL    HW2 1558   2.418   3.960   0.742
  382SOL    HW3 1559   2.493   3.829   0.746
  382SOL    MW4 1560   2.490   3.915   0.761
  383SOL     OW 1561   2.237   4.009   0.726
  383SOL    HW2 1562   2.174   3.952   0.770
  383SOL    HW3 1563   2.218   3.998   0.633
  383SOL    MW4 1564   2.227   4.000   0.719
  384SOL     OW 1565   2.234   4.275   0.783
  384SOL    HW2 1566   2.219   4.181   0.766
  384SOL    HW3 1567   2.163   4.318   0.735
  384SOL    MW4 1568   2.222   4.268   0.774
  385SOL     OW 1569   2.510   4.318   0.790
  385SOL    HW2 1570   2.495   4.352   0.879
  385SOL    HW3 1571   2.422   4.302   0.756
  385SOL    MW4 1572   2.496   4.320   0.798
  386SOL     OW 1573   2.903   4.580   0.828
  386SOL    HW2 1574   2.878   4.488   0.822
  386SOL    HW3 1575   2.826   4.628   0.798
  386SOL    MW4 1576   2.890   4.574   0.823
  387SOL     OW 1577   2.685   4.451   0.497
  387SOL    HW2 1578   2.753   4.514   0.476
  387SOL    HW3 1579   2.605   4.504   0.505
  387SOL    MW4 1580   2.683   4.467   0.496
  388SOL     OW 1581   2.723   0.330   0.816
  388SOL    HW2 1582   2.701   0.329   0.909
  388SOL    HW3 1583   2.798   0.388   0.810
  388SOL    MW4 1584   2.730   0.337   0.828
  389SOL     OW 1585   2.936   0.486   0.734
  389SOL    HW2 1586   3.023   0.464   0.768
  389SOL    HW3 1587   2.953   0.533   0.652
  389SOL    MW4 1588   2.950   0.490   0.728
  390SOL     OW 1589   2.863   0.729   0.835
  390SOL    HW2 1590   2.871   0.740   0.929
  390SOL    HW3 1591   2.886   0.637   0.819
  390SOL    MW4 1592   2.867   0.718   0.845
  391SOL     OW 1593   2.696   0.914   0.730
  391SOL    HW2 1594   2.762   0.864   0.778
  391SOL    HW3 1595   2.615   0.865   0.743
  391SOL    MW4 1596   2.694   0.901   0.738
  392SOL     OW 1597   2.707   1.172   0.840
  392SOL    HW2 1598   2.715   1.097   0.782
  392SOL    HW3 1599   2.620   1.207   0.823
  392SOL    MW4 1600   2.697   1.167   0.830
  393SOL     OW 1601   2.959   1.298   0.746
  393SOL    HW2 1602   3.022   1.229   0.770
  393SOL    HW3 1603   2.876   1.267   0.781
  393SOL    MW4 1604   2.956   1.285   0.754
  394SOL     OW 1605   2.926   1.560   0.830
  394SOL    HW2 1606   3.002   1.616   0.814
  394SOL    HW3 1607   2.952   1.475   0.795
  394SOL    MW4 1608   2.939   1.556   0.823
  395SOL     OW 1609   2.673   1.639   0.746
  395SOL    HW2 1610   2.674   1.728   0.781
  395SOL    HW3 1611   2.750   1.598   0.784
  395SOL    MW4 1612   2.683   1.646   0.756
  396SOL     OW 1613   2.705   1.901   0.852
  396SOL    HW2 1614   2.712   1.912   0.947
  396SOL    HW3 1615   2.622   1.943   0.829
  396SOL    MW4 1616   2.695   1.908   0.861
  397SOL     OW 1617   2.859   2.078   0.691
  397SOL    HW2 1618   2.893   2.153   0.739
  397SOL    HW3 1619   2.824   2.020   0.759
  397SOL    MW4 1620   2.859   2.080   0.706
  398SOL     OW 1621   2.899   2.310   0.849
  398SOL    HW2 1622   2.914   2.331   0.941
  398SOL    HW3 1623   2.820   2.358   0.826
  398SOL    MW4 1624   2.890   2.319   0.858
  399SOL     OW 1625   2.680   2.438   0.758
  399SOL    HW2 1626   2.687   2.465   0.667
  399SOL    HW3 1627   2.673   2.520   0.807
  399SOL    MW4 1628   2.680   2.452   0.752
  400SOL     OW 1629   2.683   2.693   0.865
  400SOL    HW2 1630   2.701   2.732   0.951
  400SOL    HW3 1631   2.759   2.714   0.812
  400SOL    MW4 1632   2.695   2.701   0.869
  401SOL     OW 1633   2.862   2.867   0.426
  401SOL    HW2 1634   2.865   2.813   0.347
  401SOL    HW3 1635   2.769   2.869   0.450
  401SOL    MW4 1636   2.850   2.860   0.419
  402SOL     OW 1637   2.912   3.093   0.829
  402SOL    HW2 1638   2.830   3.136   0.803
  402SOL    HW3 1639   2.903   3.003   0.797
  402SOL    MW4 1640   2.900   3.087   0.821
  403SOL     OW 1641   2.696   3.227   0.707
  403SOL    HW2 1642   2.686   3.321   0.721
  403SOL    HW3 1643   2.612   3.190   0.736
  403SOL    MW4 1644   2.683   3.235   0.713
  404SOL     OW 1645   2.696   3.497   0.778
  404SOL    HW2 1646   2.680   3.488   0.872
  404SOL    HW3 1647   2.781   3.541   0.773
  404SOL    MW4 1648   2.705   3.502   0.790
  405SOL     OW 1649   2.947   3.616   0.750
  405SOL    HW2 1650   2.942   3.706   0.783
  405SOL    HW3 1651   2.960   3.627   0.655
  405SOL    MW4 1652   2.948   3.630   0.742
  406SOL     OW 1653   2.936   3.904   0.839
  406SOL    HW2 1654   2.906   3.890   0.929
  406SOL    HW3 1655   2.856   3.928   0.792
  406SOL    MW4 1656   2.921   3.905   0.845
  407SOL     OW 1657   2.745   4.007   0.682
  407SOL    HW2 1658   2.657   3.990   0.714
  407SOL    HW3 1659   2.755   3.952   0.605
  407SOL    MW4 1660   2.735   3.997   0.676
  408SOL     OW 1661   2.851   4.301   0.812
  408SOL    HW2 1662   2.811   4.275   0.895
  408SOL    HW3 1663   2.942   4.273   0.819
  408SOL    MW4 1664   2.857   4.294   0.824
  409SOL     OW 1665   3.075   4.355   0.348
  409SOL    HW2 1666   3.162   4.359   0.389
  409SOL    HW3 1667   3.019   4.316   0.415
  409SOL    MW4 1668   3.079   4.350   0.362
  410SOL     OW 1669   3.363   4.650   0.836
  410SOL    HW2 1670   3.374   4.664   0.930
  410SOL    HW3 1671   3.287   4.703   0.812
  410SOL    MW4 1672   3.355   4.659   0.845
  411SOL     OW 1673   3.110   0.084   0.760
  411SOL    HW2 1674   3.103   0.163   0.813
  411SOL    HW3 1675   3.043   0.025   0.796
  411SOL    MW4 1676   3.100   0.086   0.772
  412SOL     OW 1677   3.151   0.346   0.859
  412SOL    HW2 1678   3.161   0.375   0.949
  412SOL    HW3 1679   3.230   0.377   0.814
  412SOL    MW4 1680   3.163   0.354   0.865
  413SOL     OW 1681   3.361   0.436   0.695
  413SOL    HW2 1682   3.443   0.397   0.724
  413SOL    HW3 1683   3.339   0.388   0.615
  413SOL    MW4 1684   3.369   0.424   0.688
  414SOL     OW 1685   3.338   0.722   0.797
  414SOL    HW2 1686   3.267   0.770   0.754
  414SOL    HW3 1687   3.335   0.635   0.759
  414SOL    MW4 1688   3.328   0.717   0.786
  415SOL     OW 1689   3.124   0.877   0.696
  415SOL    HW2 1690   3.134   0.957   0.747
  415SOL    HW3 1691   3.043   0.837   0.730
  415SOL    MW4 1692   3.114   0.882   0.707
  416SOL     OW 1693   3.135   1.119   0.844
  416SOL    HW2 1694   3.119   1.121   0.938
  416SOL    HW3 1695   3.215   1.171   0.832
  416SOL    MW4 1696   3.144   1.126   0.855
  417SOL     OW 1697   3.363   1.249   0.743
  417SOL    HW2 1698   3.433   1.184   0.752
  417SOL    HW3 1699   3.399   1.329   0.781
  417SOL    MW4 1700   3.377   1.251   0.749
  418SOL     OW 1701   3.466   1.479   0.869
  418SOL    HW2 1702   3.430   1.508   0.953
  418SOL    HW3 1703   3.559   1.501   0.874
  418SOL    MW4 1704   3.473   1.486   0.881
  419SOL     OW 1705   3.206   1.613   0.784
  419SOL    HW2 1706   3.265   1.538   0.790
  419SOL    HW3 1707   3.176   1.613   0.693
  419SOL    MW4 1708   3.210   1.603   0.773
  420SOL     OW 1709   3.222   1.876   0.838
  420SOL    HW2 1710   3.198   1.880   0.930
  420SOL    HW3 1711   3.221   1.783   0.817
  420SOL    MW4 1712   3.219   1.865   0.847
  421SOL     OW 1713   3.481   1.977   0.899
  421SOL    HW2 1714   3.462   2.061   0.859
  421SOL    HW3 1715   3.403   1.924   0.882
  421SOL    MW4 1716   3.468   1.981   0.892
  422SOL     OW 1717   3.435   2.244   0.838
  422SOL    HW2 1718   3.411   2.270   0.927
  422SOL    HW3 1719   3.523   2.280   0.825
  422SOL    MW4 1720   3.444   2.252   0.848
  423SOL     OW 1721   3.086   2.471   0.716
  423SOL    HW2 1722   3.153   2.412   0.680
  423SOL    HW3 1723   3.028   2.413   0.766
  423SOL    MW4 1724   3.087   2.455   0.718
  424SOL     OW 1725   3.092   2.719   0.820
  424SOL    HW2 1726   3.089   2.630   0.785
  424SOL    HW3 1727   3.171   2.757   0.781
  424SOL    MW4 1728   3.102   2.712   0.810
  425SOL     OW 1729   3.313   2.852   0.728
  425SOL    HW2 1730   3.272   2.845   0.642
  425SOL    HW3 1731   3.403   2.823   0.715
  425SOL    MW4 1732   3.319   2.847   0.715
  426SOL     OW 1733   3.390   3.106   0.837
  426SOL    HW2 1734   3.372   3.119   0.930
  426SOL    HW3 1735   3.357   3.019   0.817
  426SOL    MW4 1736   3.384   3.097   0.847
  427SOL     OW 1737   3.129   3.225   0.732
  427SOL    HW2 1738   3.198   3.184   0.784
  427SOL    HW3 1739   3.050   3.177   0.757
  427SOL    MW4 1740   3.128   3.213   0.742
  428SOL     OW 1741   3.176   3.459   0.852
  428SOL    HW2 1742   3.150   3.377   0.810
  428SOL    HW3 1743   3.113   3.523   0.819
  428SOL    MW4 1744   3.164   3.457   0.842
  429SOL     OW 1745   3.343   4.363   0.448
  429SOL    HW2 1746   3.358   4.276   0.411
  429SOL    HW3 1747   3.409   4.418   0.406
  429SOL    MW4 1748   3.354   4.359   0.438
  430SOL     OW 1749   3.476   3.936   0.789
  430SOL    HW2 1750   3.511   4.025   0.792
  430SOL    HW3 1751   3.431   3.925   0.873
  430SOL    MW4 1752   3.474   3.946   0.801
  431SOL     OW 1753   3.097   4.042   0.669
  431SOL    HW2 1754   3.172   3.991   0.639
  431SOL    HW3 1755   3.043   3.979   0.718
  431SOL    MW4 1756   3.100   4.027   0.671
  432SOL     OW 1757   3.129   4.243   0.851
  432SOL    HW2 1758   3.186   4.315   0.822
  432SOL    HW3 1759   3.132   4.181   0.778
  432SOL    MW4 1760   3.137   4.245   0.837
  433SOL     OW 1761   3.336   4.380   0.734
  433SOL    HW2 1762   3.348   4.472   0.757
  433SOL    HW3 1763   3.336   4.379   0.638
  433SOL    MW4 1764   3.338   4.392   0.724
  434SOL     OW 1765   3.836   4.627   0.746
  434SOL    HW2 1766   3.880   4.712   0.749
  434SOL    HW3 1767   3.746   4.648   0.724
  434SOL    MW4 1768   3.830   4.641   0.743
  435SOL     OW 1769   3.582   0.061   0.679
  435SOL    HW2 1770   3.509   0.025   0.729
  435SOL    HW3 1771   3.547   0.073   0.590
  435SOL    MW4 1772   3.568   0.058   0.673
  436SOL     OW 1773   3.617   0.339   0.771
  436SOL    HW2 1774   3.624   0.334   0.866
  436SOL    HW3 1775   3.617   0.247   0.742
  436SOL    MW4 1776   3.618   0.326   0.779
  437SOL     OW 1777   3.736   0.476   0.528
  437SOL    HW2 1778   3.672   0.542   0.501
  437SOL    HW3 1779   3.716   0.458   0.619
  437SOL    MW4 1780   3.725   0.482   0.536
  438SOL     OW 1781   3.813   0.693   0.822
  438SOL    HW2 1782   3.822   0.711   0.915
  438SOL    HW3 1783   3.888   0.736   0.781
  438SOL    MW4 1784   3.824   0.701   0.829
  439SOL     OW 1785   3.557   0.829   0.705
  439SOL    HW2 1786   3.624   0.771   0.740
  439SOL    HW3 1787   3.475   0.798   0.743
  439SOL    MW4 1788   3.555   0.817   0.714
  440SOL     OW 1789   3.592   1.093   0.796
  440SOL    HW2 1790   3.586   1.103   0.891
  440SOL    HW3 1791   3.577   1.000   0.781
  440SOL    MW4 1792   3.589   1.082   0.807
  441SOL     OW 1793   3.818   1.254   0.713
  441SOL    HW2 1794   3.755   1.187   0.742
  441SOL    HW3 1795   3.799   1.265   0.619
  441SOL    MW4 1796   3.807   1.246   0.704
  442SOL     OW 1797   3.738   1.511   0.812
  442SOL    HW2 1798   3.824   1.553   0.812
  442SOL    HW3 1799   3.756   1.418   0.800
  442SOL    MW4 1800   3.751   1.505   0.810
  443SOL     OW 1801   3.587   1.643   0.564
  443SOL    HW2 1802   3.568   1.730   0.598
  443SOL    HW3 1803   3.638   1.600   0.633
  443SOL    MW4 1804   3.591   1.649   0.577
  444SOL     OW 1805   3.810   2.031   0.618
  444SOL    HW2 1806   3.873   2.010   0.687
  444SOL    HW3 1807   3.728   1.991   0.647
  444SOL    MW4 1808   3.808   2.023   0.631
  445SOL     OW 1809   3.799   2.310   0.612
  445SOL    HW2 1810   3.789   2.342   0.702
  445SOL    HW3 1811   3.792   2.215   0.620
  445SOL    MW4 1812   3.797   2.302   0.625
  446SOL     OW 1813   4.042   1.724   0.512
  446SOL    HW2 1814   3.953   1.736   0.480
  446SOL    HW3 1815   4.077   1.813   0.519
  446SOL    MW4 1816   4.035   1.738   0.509
  447SOL     OW 1817   3.703   2.374   0.859
  447SOL    HW2 1818   3.685   2.468   0.852
  447SOL    HW3 1819   3.744   2.364   0.945
  447SOL    MW4 1820   3.706   2.385   0.869
  448SOL     OW 1821   3.677   2.660   0.868
  448SOL    HW2 1822   3.637   2.680   0.952
  448SOL    HW3 1823   3.724   2.740   0.844
  448SOL    MW4 1824   3.678   2.673   0.876
  449SOL     OW 1825   3.816   2.874   0.782
  449SOL    HW2 1826   3.751   2.937   0.812
  449SOL    HW3 1827   3.840   2.903   0.694
  449SOL    MW4 1828   3.811   2.886   0.774
  450SOL     OW 1829   3.647   3.059   0.907
  450SOL    HW2 1830   3.694   3.124   0.854
  450SOL    HW3 1831   3.555   3.074   0.886
  450SOL    MW4 1832   3.641   3.070   0.897
  451SOL     OW 1833   3.413   3.504   0.707
  451SOL    HW2 1834   3.411   3.416   0.670
  451SOL    HW3 1835   3.336   3.508   0.764
  451SOL    MW4 1836   3.402   3.493   0.710
  452SOL     OW 1837   3.652   3.536   0.834
  452SOL    HW2 1838   3.690   3.451   0.812
  452SOL    HW3 1839   3.565   3.535   0.794
  452SOL    MW4 1840   3.645   3.525   0.826
  453SOL     OW 1841   3.869   3.591   0.661
  453SOL    HW2 1842   3.798   3.569   0.720
  453SOL    HW3 1843   3.949   3.570   0.710
  453SOL    MW4 1844   3.870   3.585   0.675
  454SOL     OW 1845   3.715   3.814   0.856
  454SOL    HW2 1846   3.630   3.850   0.831
  454SOL    HW3 1847   3.697   3.720   0.870
  454SOL    MW4 1848   3.701   3.806   0.855
  455SOL     OW 1849   2.620   4.112   0.190
  455SOL    HW2 1850   2.620   4.102   0.095
  455SOL    HW3 1851   2.628   4.206   0.204
  455SOL    MW4 1852   2.621   4.123   0.179
  456SOL     OW 1853   3.556   4.208   0.806
  456SOL    HW2 1854   3.628   4.221   0.745
  456SOL    HW3 1855   3.492   4.275   0.782
  456SOL    MW4 1856   3.557   4.219   0.795
  457SOL     OW 1857   3.905   4.371   0.833
  457SOL    HW2 1858   3.862   4.314   0.769
  457SOL    HW3 1859   3.876   4.459   0.811
  457SOL    MW4 1860   3.896   4.375   0.822
  458SOL     OW 1861   4.247   0.040   0.817
  458SOL    HW2 1862   4.245   0.040   0.913
  458SOL    HW3 1863   4.175   0.098   0.792
  458SOL    MW4 1864   4.237   0.048   0.827
  459SOL     OW 1865   3.988   0.201   0.731
  459SOL    HW2 1866   3.978   0.290   0.765
  459SOL    HW3 1867   4.016   0.213   0.640
  459SOL    MW4 1868   3.991   0.214   0.723
  460SOL     OW 1869   3.985   0.457   0.836
  460SOL    HW2 1870   4.072   0.485   0.808
  460SOL    HW3 1871   3.927   0.528   0.807
  460SOL    MW4 1872   3.988   0.470   0.828
  461SOL     OW 1873   4.248   0.514   0.768
  461SOL    HW2 1874   4.331   0.470   0.786
  461SOL    HW3 1875   4.240   0.512   0.673
  461SOL    MW4 1876   4.258   0.508   0.758
  462SOL     OW 1877   4.256   0.779   0.817
  462SOL    HW2 1878   4.179   0.801   0.764
  462SOL    HW3 1879   4.272   0.687   0.798
  462SOL    MW4 1880   4.248   0.770   0.808
  463SOL     OW 1881   4.006   0.878   0.714
  463SOL    HW2 1882   4.033   0.965   0.745
  463SOL    HW3 1883   4.022   0.880   0.620
  463SOL    MW4 1884   4.011   0.890   0.706
  464SOL     OW 1885   4.059   1.151   0.828
  464SOL    HW2 1886   4.069   1.159   0.923
  464SOL    HW3 1887   3.982   1.203   0.808
  464SOL    MW4 1888   4.050   1.159   0.838
  465SOL     OW 1889   4.296   1.316   0.726
  465SOL    HW2 1890   4.212   1.273   0.743
  465SOL    HW3 1891   4.362   1.253   0.753
  465SOL    MW4 1892   4.294   1.302   0.732
  466SOL     OW 1893   4.241   1.568   0.839
  466SOL    HW2 1894   4.256   1.559   0.933
  466SOL    HW3 1895   4.256   1.480   0.804
  466SOL    MW4 1896   4.245   1.555   0.847
  467SOL     OW 1897   3.987   1.654   0.793
  467SOL    HW2 1898   4.073   1.620   0.817
  467SOL    HW3 1899   3.991   1.665   0.698
  467SOL    MW4 1900   3.999   1.651   0.784
  468SOL     OW 1901   3.961   1.932   0.837
  468SOL    HW2 1902   3.980   1.838   0.834
  468SOL    HW3 1903   4.046   1.974   0.827
  468SOL    MW4 1904   3.975   1.925   0.835
  469SOL     OW 1905   4.212   2.044   0.784
  469SOL    HW2 1906   4.298   2.009   0.807
  469SOL    HW3 1907   4.210   2.038   0.688
  469SOL    MW4 1908   4.224   2.039   0.774
  470SOL     OW 1909   4.271   2.330   0.816
  470SOL    HW2 1910   4.199   2.366   0.763
  470SOL    HW3 1911   4.263   2.235   0.806
  470SOL    MW4 1912   4.260   2.322   0.808
  471SOL     OW 1913   4.029   2.651   0.625
  471SOL    HW2 1914   4.017   2.677   0.717
  471SOL    HW3 1915   3.943   2.658   0.586
  471SOL    MW4 1916   4.016   2.655   0.632
  472SOL     OW 1917   4.021   2.727   0.900
  472SOL    HW2 1918   4.089   2.790   0.877
  472SOL    HW3 1919   3.939   2.773   0.883
  472SOL    MW4 1920   4.019   2.741   0.895
  473SOL     OW 1921   4.248   2.866   0.792
  473SOL    HW2 1922   4.308   2.798   0.822
  473SOL    HW3 1923   4.241   2.853   0.698
  473SOL    MW4 1924   4.255   2.855   0.784
  474SOL     OW 1925   4.276   3.146   0.794
  474SOL    HW2 1926   4.286   3.052   0.774
  474SOL    HW3 1927   4.347   3.188   0.747
  474SOL    MW4 1928   4.287   3.139   0.785
  475SOL     OW 1929   4.031   3.260   0.779
  475SOL    HW2 1930   4.055   3.352   0.789
  475SOL    HW3 1931   4.112   3.211   0.794
  475SOL    MW4 1932   4.045   3.266   0.783
  476SOL     OW 1933   4.104   3.522   0.796
  476SOL    HW2 1934   4.102   3.533   0.891
  476SOL    HW3 1935   4.194   3.545   0.772
  476SOL    MW4 1936   4.116   3.527   0.805
  477SOL     OW 1937   4.354   3.654   0.718
  477SOL    HW2 1938   4.303   3.735   0.725
  477SOL    HW3 1939   4.334   3.621   0.630
  477SOL    MW4 1940   4.344   3.660   0.707
  478SOL     OW 1941   4.304   3.933   0.814
  478SOL    HW2 1942   4.280   3.910   0.904
  478SOL    HW3 1943   4.225   3.972   0.777
  478SOL    MW4 1944   4.291   3.935   0.821
  479SOL     OW 1945   3.840   3.960   0.658
  479SOL    HW2 1946   3.798   3.913   0.730
  479SOL    HW3 1947   3.846   3.896   0.587
  479SOL    MW4 1948   3.835   3.946   0.658
  480SOL     OW 1949   4.103   4.047   0.600
  480SOL    HW2 1950   4.095   4.142   0.611
  480SOL    HW3 1951   4.019   4.013   0.631
  480SOL    MW4 1952   4.091   4.055   0.605
  481SOL     OW 1953   4.326   4.464   0.717
  481SOL    HW2 1954   4.297   4.536   0.774
  481SOL    HW3 1955   4.363   4.399   0.776
  481SOL    MW4 1956   4.327   4.465   0.732
  482SOL     OW 1957   0.212   0.005   1.145
  482SOL    HW2 1958   0.301   0.029   1.169
  482SOL    HW3 1959   0.213   0.000   1.050
  482SOL    MW4 1960   0.224   0.008   1.136
  483SOL     OW 1961   4.484   0.144   1.201
  483SOL    HW2 1962   4.413   0.096   1.157
  483SOL    HW3 1963   4.564   0.096   1.177
  483SOL    MW4 1964   4.485   0.131   1.192
  484SOL     OW 1965   4.474   0.390   1.077
  484SOL    HW2 1966   4.407   0.434   1.130
  484SOL    HW3 1967   4.477   0.301   1.112
  484SOL    MW4 1968   4.465   0.384   1.089
  485SOL     OW 1969   0.200   0.505   1.207
  485SOL    HW2 1970   0.204   0.594   1.173
  485SOL    HW3 1971   0.121   0.467   1.168
  485SOL    MW4 1972   0.190   0.511   1.198
  486SOL     OW 1973   0.223   0.765   1.115
  486SOL    HW2 1974   0.297   0.801   1.163
  486SOL    HW3 1975   0.146   0.793   1.166
  486SOL    MW4 1976   0.222   0.773   1.128
  487SOL     OW 1977   0.000   0.878   1.232
  487SOL    HW2 1978  -0.014   0.879   1.326
  487SOL    HW3 1979  -0.084   0.851   1.195
  487SOL    MW4 1980  -0.013   0.874   1.239
  488SOL     OW 1981   4.470   1.120   1.124
  488SOL    HW2 1982   4.387   1.148   1.164
  488SOL    HW3 1983   4.487   1.034   1.161
  488SOL    MW4 1984   4.461   1.112   1.134
  489SOL     OW 1985   0.212   1.269   1.222
  489SOL    HW2 1986   0.275   1.211   1.179
  489SOL    HW3 1987   0.127   1.226   1.208
  489SOL    MW4 1988   0.209   1.256   1.214
  490SOL     OW 1989   0.224   1.522   1.090
  490SOL    HW2 1990   0.209   1.429   1.110
  490SOL    HW3 1991   0.214   1.527   0.995
  490SOL    MW4 1992   0.221   1.510   1.080
  491SOL     OW 1993   0.004   1.681   1.176
  491SOL    HW2 1994   0.019   1.762   1.127
  491SOL    HW3 1995   0.086   1.632   1.166
  491SOL    MW4 1996   0.017   1.686   1.168
  492SOL     OW 1997   0.010   1.970   1.089
  492SOL    HW2 1998  -0.077   1.989   1.125
  492SOL    HW3 1999  -0.001   1.977   0.994
  492SOL    MW4 2000  -0.003   1.973   1.081
  493SOL     OW 2001   0.210   2.082   1.224
  493SOL    HW2 2002   0.207   2.175   1.203
  493SOL    HW3 2003   0.133   2.045   1.181
  493SOL    MW4 2004   0.199   2.089   1.215
  494SOL     OW 2005   0.218   2.335   1.135
  494SOL    HW2 2006   0.292   2.391   1.157
  494SOL    HW3 2007   0.141   2.386   1.162
  494SOL    MW4 2008   0.217   2.349   1.142
  495SOL     OW 2009   4.469   2.464   1.203
  495SOL    HW2 2010   4.469   2.456   1.299
  495SOL    HW3 2011   4.395   2.410   1.175
  495SOL    MW4 2012   4.459   2.456   1.212
  496SOL     OW 2013   4.487   2.748   1.103
  496SOL    HW2 2014   4.417   2.802   1.139
  496SOL    HW3 2015   4.480   2.666   1.152
  496SOL    MW4 2016   4.477   2.744   1.114
  497SOL     OW 2017   0.206   2.900   1.188
  497SOL    HW2 2018   0.223   2.868   1.277
  497SOL    HW3 2019   0.141   2.840   1.153
  497SOL    MW4 2020   0.200   2.888   1.195
  498SOL     OW 2021   0.200   3.173   1.110
  498SOL    HW2 2022   0.279   3.204   1.155
  498SOL    HW3 2023   0.189   3.083   1.140
  498SOL    MW4 2024   0.209   3.165   1.120
  499SOL     OW 2025   4.467   3.248   1.236
  499SOL    HW2 2026   4.400   3.211   1.178
  499SOL    HW3 2027   4.550   3.224   1.195
  499SOL    MW4 2028   4.469   3.240   1.223
  500SOL     OW 2029   4.476   3.506   1.122
  500SOL    HW2 2030   4.475   3.420   1.165
  500SOL    HW3 2031   4.490   3.486   1.029
  500SOL    MW4 2032   4.478   3.492   1.115
  501SOL     OW 2033   0.214   3.633   1.225
  501SOL    HW2 2034   0.218   3.605   1.317
  501SOL    HW3 2035   0.148   3.576   1.185
  501SOL    MW4 2036   0.206   3.622   1.232
  502SOL     OW 2037   0.216   3.884   1.103
  502SOL    HW2 2038   0.135   3.921   1.138
  502SOL    HW3 2039   0.219   3.795   1.138
  502SOL    MW4 2040   0.205   3.877   1.112
  503SOL     OW 2041   4.460   3.992   1.220
  503SOL    HW2 2042   4.457   3.973   1.314
  503SOL    HW3 2043   4.384   3.946   1.184
  503SOL    MW4 2044   4.450   3.983   1.227
  504SOL     OW 2045   0.001   4.265   1.148
  504SOL    HW2 2046   0.086   4.303   1.171
  504SOL    HW3 2047   0.006   4.174   1.177
  504SOL    MW4 2048   0.013   4.258   1.155
  505SOL     OW 2049   0.236   4.410   1.199
  505SOL    HW2 2050   0.211   4.412   1.292
  505SOL    HW3 2051   0.222   4.500   1.169
  505SOL    MW4 2052   0.231   4.422   1.208
  506SOL     OW 2053   0.668   4.659   1.084
  506SOL    HW2 2054   0.736   4.694   1.142
  506SOL    HW3 2055   0.665   4.566   1.103
  506SOL    MW4 2056   0.677   4.652   1.094
  507SOL     OW 2057   0.455   0.131   1.202
  507SOL    HW2 2058   0.441   0.223   1.177
  507SOL    HW3 2059   0.530   0.103   1.149
  507SOL    MW4 2060   0.463   0.140   1.191
  508SOL     OW 2061   0.450   0.401   1.123
  508SOL    HW2 2062   0.374   0.447   1.158
  508SOL    HW3 2063   0.437   0.402   1.028
  508SOL    MW4 2064   0.438   0.407   1.115
  509SOL     OW 2065   0.710   0.522   1.178
  509SOL    HW2 2066   0.719   0.614   1.154
  509SOL    HW3 2067   0.622   0.498   1.148
  509SOL    MW4 2068   0.700   0.531   1.171
  510SOL     OW 2069   0.663   0.788   1.102
  510SOL    HW2 2070   0.579   0.803   1.144
  510SOL    HW3 2071   0.647   0.805   1.009
  510SOL    MW4 2072   0.650   0.792   1.095
  511SOL     OW 2073   0.443   0.897   1.225
  511SOL    HW2 2074   0.439   0.904   1.320
  511SOL    HW3 2075   0.440   0.987   1.194
  511SOL    MW4 2076   0.442   0.910   1.233
  512SOL     OW 2077   0.457   1.138   1.099
  512SOL    HW2 2078   0.528   1.200   1.115
  512SOL    HW3 2079   0.458   1.123   1.005
  512SOL    MW4 2080   0.467   1.144   1.089
  513SOL     OW 2081   0.661   1.298   1.185
  513SOL    HW2 2082   0.741   1.250   1.162
  513SOL    HW3 2083   0.669   1.382   1.140
  513SOL    MW4 2084   0.673   1.303   1.176
  514SOL     OW 2085   0.662   1.538   1.059
  514SOL    HW2 2086   0.736   1.582   1.100
  514SOL    HW3 2087   0.586   1.591   1.083
  514SOL    MW4 2088   0.661   1.550   1.068
  515SOL     OW 2089   0.453   1.688   1.172
  515SOL    HW2 2090   0.451   1.685   1.268
  515SOL    HW3 2091   0.378   1.636   1.145
  515SOL    MW4 2092   0.443   1.681   1.181
  516SOL     OW 2093   0.432   1.958   1.092
  516SOL    HW2 2094   0.430   1.866   1.117
  516SOL    HW3 2095   0.357   1.997   1.138
  516SOL    MW4 2096   0.422   1.951   1.101
  517SOL     OW 2097   0.635   2.106   1.189
  517SOL    HW2 2098   0.642   2.075   1.279
  517SOL    HW3 2099   0.563   2.054   1.151
  517SOL    MW4 2100   0.626   2.095   1.196
  518SOL     OW 2101   0.677   2.378   1.110
  518SOL    HW2 2102   0.589   2.413   1.125
  518SOL    HW3 2103   0.670   2.285   1.133
  518SOL    MW4 2104   0.664   2.370   1.115
  519SOL     OW 2105   0.444   2.486   1.193
  519SOL    HW2 2106   0.450   2.472   1.288
  519SOL    HW3 2107   0.419   2.578   1.184
  519SOL    MW4 2108   0.441   2.496   1.204
  520SOL     OW 2109   0.432   2.759   1.138
  520SOL    HW2 2110   0.364   2.826   1.132
  520SOL    HW3 2111   0.461   2.747   1.047
  520SOL    MW4 2112   0.426   2.766   1.125
  521SOL     OW 2113   0.679   2.878   1.216
  521SOL    HW2 2114   0.687   2.959   1.166
  521SOL    HW3 2115   0.587   2.853   1.206
  521SOL    MW4 2116   0.668   2.885   1.208
  522SOL     OW 2117   0.662   3.123   1.084
  522SOL    HW2 2118   0.733   3.175   1.119
  522SOL    HW3 2119   0.684   3.111   0.991
  522SOL    MW4 2120   0.674   3.128   1.076
  523SOL     OW 2121   0.444   3.249   1.236
  523SOL    HW2 2122   0.459   3.341   1.214
  523SOL    HW3 2123   0.510   3.201   1.186
  523SOL    MW4 2124   0.454   3.255   1.226
  524SOL     OW 2125   0.452   3.506   1.137
  524SOL    HW2 2126   0.528   3.548   1.178
  524SOL    HW3 2127   0.379   3.564   1.158
  524SOL    MW4 2128   0.453   3.519   1.145
  525SOL     OW 2129   0.670   3.621   1.242
  525SOL    HW2 2130   0.664   3.632   1.337
  525SOL    HW3 2131   0.669   3.710   1.207
  525SOL    MW4 2132   0.669   3.634   1.250
  526SOL     OW 2133   0.637   3.839   1.104
  526SOL    HW2 2134   0.568   3.900   1.128
  526SOL    HW3 2135   0.653   3.856   1.011
  526SOL    MW4 2136   0.630   3.849   1.095
  527SOL     OW 2137   0.435   3.991   1.219
  527SOL    HW2 2138   0.428   4.081   1.185
  527SOL    HW3 2139   0.354   3.948   1.192
  527SOL    MW4 2140   0.423   3.997   1.211
  528SOL     OW 2141   0.451   4.259   1.111
  528SOL    HW2 2142   0.525   4.312   1.141
  528SOL    HW3 2143   0.374   4.311   1.132
  528SOL    MW4 2144   0.451   4.273   1.118
  529SOL     OW 2145   0.677   4.396   1.189
  529SOL    HW2 2146   0.666   4.383   1.283
  529SOL    HW3 2147   0.753   4.342   1.166
  529SOL    MW4 2148   0.685   4.387   1.198
  530SOL     OW 2149   1.097   4.610   1.126
  530SOL    HW2 2150   1.092   4.516   1.145
  530SOL    HW3 2151   1.112   4.615   1.032
  530SOL    MW4 2152   1.098   4.599   1.116
  531SOL     OW 2153   0.879   0.121   1.212
  531SOL    HW2 2154   0.883   0.125   1.307
  531SOL    HW3 2155   0.946   0.058   1.187
  531SOL    MW4 2156   0.888   0.113   1.221
  532SOL     OW 2157   0.921   0.368   1.099
  532SOL    HW2 2158   0.906   0.283   1.139
  532SOL    HW3 2159   0.845   0.421   1.123
  532SOL    MW4 2160   0.909   0.364   1.107
  533SOL     OW 2161   1.169   0.504   1.163
  533SOL    HW2 2162   1.146   0.527   1.253
  533SOL    HW3 2163   1.093   0.455   1.131
  533SOL    MW4 2164   1.156   0.500   1.171
  534SOL     OW 2165   1.135   0.780   1.078
  534SOL    HW2 2166   1.064   0.815   1.133
  534SOL    HW3 2167   1.140   0.687   1.101
  534SOL    MW4 2168   1.126   0.773   1.089
  535SOL     OW 2169   0.880   0.884   1.232
  535SOL    HW2 2170   0.901   0.965   1.186
  535SOL    HW3 2171   0.801   0.852   1.189
  535SOL    MW4 2172   0.872   0.891   1.220
  536SOL     OW 2173   0.875   1.147   1.119
  536SOL    HW2 2174   0.962   1.185   1.131
  536SOL    HW3 2175   0.860   1.152   1.025
  536SOL    MW4 2176   0.885   1.153   1.108
  537SOL     OW 2177   1.108   1.260   1.194
  537SOL    HW2 2178   1.096   1.278   1.287
  537SOL    HW3 2179   1.200   1.237   1.185
  537SOL    MW4 2180   1.119   1.259   1.205
  538SOL     OW 2181   1.126   1.539   1.097
  538SOL    HW2 2182   1.120   1.445   1.117
  538SOL    HW3 2183   1.119   1.544   1.002
  538SOL    MW4 2184   1.124   1.527   1.088
  539SOL     OW 2185   0.875   1.674   1.191
  539SOL    HW2 2186   0.893   1.767   1.174
  539SOL    HW3 2187   0.957   1.630   1.169
  539SOL    MW4 2188   0.889   1.680   1.186
  540SOL     OW 2189   0.869   1.942   1.128
  540SOL    HW2 2190   0.943   1.964   1.185
  540SOL    HW3 2191   0.798   1.997   1.159
  540SOL    MW4 2192   0.870   1.952   1.140
  541SOL     OW 2193   1.073   2.061   1.269
  541SOL    HW2 2194   1.082   2.056   1.364
  541SOL    HW3 2195   1.074   2.154   1.249
  541SOL    MW4 2196   1.074   2.072   1.279
  542SOL     OW 2197   1.070   2.325   1.167
  542SOL    HW2 2198   1.157   2.363   1.175
  542SOL    HW3 2199   1.011   2.395   1.194
  542SOL    MW4 2200   1.074   2.339   1.172
  543SOL     OW 2201   0.893   2.504   1.244
  543SOL    HW2 2202   0.882   2.490   1.338
  543SOL    HW3 2203   0.821   2.455   1.204
  543SOL    MW4 2204   0.882   2.495   1.251
  544SOL     OW 2205   0.905   2.726   1.079
  544SOL    HW2 2206   0.905   2.639   1.118
  544SOL    HW3 2207   0.828   2.769   1.116
  544SOL    MW4 2208   0.895   2.720   1.089
  545SOL     OW 2209   1.127   2.848   1.209
  545SOL    HW2 2210   1.121   2.845   1.304
  545SOL    HW3 2211   1.044   2.811   1.179
  545SOL    MW4 2212   1.115   2.843   1.218
  546SOL     OW 2213   1.139   3.112   1.076
  546SOL    HW2 2214   1.122   3.030   1.122
  546SOL    HW3 2215   1.122   3.093   0.984
  546SOL    MW4 2216   1.135   3.099   1.070
  547SOL     OW 2217   0.918   3.229   1.198
  547SOL    HW2 2218   0.927   3.323   1.184
  547SOL    HW3 2219   0.987   3.190   1.144
  547SOL    MW4 2220   0.928   3.236   1.189
  548SOL     OW 2221   0.900   3.495   1.124
  548SOL    HW2 2222   0.819   3.536   1.154
  548SOL    HW3 2223   0.894   3.495   1.028
  548SOL    MW4 2224   0.889   3.500   1.115
  549SOL     OW 2225   1.143   3.609   1.225
  549SOL    HW2 2226   1.218   3.580   1.172
  549SOL    HW3 2227   1.067   3.566   1.185
  549SOL    MW4 2228   1.143   3.599   1.212
  550SOL     OW 2229   1.100   3.867   1.132
  550SOL    HW2 2230   1.020   3.910   1.162
  550SOL    HW3 2231   1.097   3.780   1.174
  550SOL    MW4 2232   1.089   3.861   1.142
  551SOL     OW 2233   0.862   3.985   1.184
  551SOL    HW2 2234   0.867   3.970   1.278
  551SOL    HW3 2235   0.785   3.935   1.156
  551SOL    MW4 2236   0.852   3.976   1.192
  552SOL     OW 2237   0.874   4.243   1.088
  552SOL    HW2 2238   0.874   4.149   1.104
  552SOL    HW3 2239   0.854   4.251   0.994
  552SOL    MW4 2240   0.871   4.232   1.077
  553SOL     OW 2241   1.097   4.328   1.200
  553SOL    HW2 2242   1.089   4.310   1.294
  553SOL    HW3 2243   1.013   4.300   1.164
  553SOL    MW4 2244   1.085   4.322   1.208
  554SOL     OW 2245   1.563   4.651   1.149
  554SOL    HW2 2246   1.652   4.676   1.175
  554SOL    HW3 2247   1.546   4.570   1.197
  554SOL    MW4 2248   1.573   4.644   1.159
  555SOL     OW 2249   1.308   0.087   1.247
  555SOL    HW2 2250   1.387   0.047   1.210
  555SOL    HW3 2251   1.236   0.035   1.213
  555SOL    MW4 2252   1.309   0.075   1.237
  556SOL     OW 2253   1.367   0.325   1.119
  556SOL    HW2 2254   1.356   0.246   1.172
  556SOL    HW3 2255   1.287   0.375   1.134
  556SOL    MW4 2256   1.355   0.321   1.128
  557SOL     OW 2257   1.588   0.492   1.211
  557SOL    HW2 2258   1.576   0.581   1.179
  557SOL    HW3 2259   1.508   0.446   1.186
  557SOL    MW4 2260   1.576   0.498   1.203
  558SOL     OW 2261   1.556   0.752   1.121
  558SOL    HW2 2262   1.634   0.806   1.136
  558SOL    HW3 2263   1.538   0.762   1.028
  558SOL    MW4 2264   1.564   0.760   1.111
  559SOL     OW 2265   1.350   0.886   1.218
  559SOL    HW2 2266   1.421   0.832   1.183
  559SOL    HW3 2267   1.272   0.856   1.171
  559SOL    MW4 2268   1.349   0.875   1.207
  560SOL     OW 2269   1.364   1.146   1.134
  560SOL    HW2 2270   1.374   1.055   1.162
  560SOL    HW3 2271   1.335   1.141   1.043
  560SOL    MW4 2272   1.362   1.134   1.126
  561SOL     OW 2273   1.571   1.312   1.179
  561SOL    HW2 2274   1.648   1.264   1.149
  561SOL    HW3 2275   1.498   1.252   1.165
  561SOL    MW4 2276   1.571   1.298   1.173
  562SOL     OW 2277   1.580   1.577   1.121
  562SOL    HW2 2278   1.659   1.620   1.152
  562SOL    HW3 2279   1.595   1.484   1.138
  562SOL    MW4 2280   1.592   1.570   1.127
  563SOL     OW 2281   1.341   1.684   1.197
  563SOL    HW2 2282   1.421   1.635   1.179
  563SOL    HW3 2283   1.272   1.633   1.154
  563SOL    MW4 2284   1.343   1.671   1.189
  564SOL     OW 2285   1.290   1.939   1.122
  564SOL    HW2 2286   1.319   1.855   1.158
  564SOL    HW3 2287   1.224   1.970   1.184
  564SOL    MW4 2288   1.285   1.932   1.135
  565SOL     OW 2289   1.527   2.077   1.188
  565SOL    HW2 2290   1.503   2.169   1.181
  565SOL    HW3 2291   1.447   2.029   1.164
  565SOL    MW4 2292   1.513   2.083   1.184
  566SOL     OW 2293   1.542   2.353   1.116
  566SOL    HW2 2294   1.462   2.394   1.150
  566SOL    HW3 2295   1.524   2.341   1.022
  566SOL    MW4 2296   1.529   2.357   1.108
  567SOL     OW 2297   1.304   2.447   1.223
  567SOL    HW2 2298   1.323   2.454   1.316
  567SOL    HW3 2299   1.325   2.534   1.188
  567SOL    MW4 2300   1.309   2.460   1.230
  568SOL     OW 2301   1.332   2.694   1.100
  568SOL    HW2 2302   1.413   2.735   1.130
  568SOL    HW3 2303   1.263   2.749   1.136
  568SOL    MW4 2304   1.334   2.707   1.109
  569SOL     OW 2305   1.562   2.817   1.191
  569SOL    HW2 2306   1.646   2.774   1.174
  569SOL    HW3 2307   1.581   2.911   1.181
  569SOL    MW4 2308   1.576   2.824   1.188
  570SOL     OW 2309   1.593   3.087   1.146
  570SOL    HW2 2310   1.674   3.128   1.177
  570SOL    HW3 2311   1.524   3.147   1.173
  570SOL    MW4 2312   1.595   3.100   1.154
  571SOL     OW 2313   1.362   3.257   1.203
  571SOL    HW2 2314   1.353   3.253   1.298
  571SOL    HW3 2315   1.285   3.211   1.170
  571SOL    MW4 2316   1.350   3.251   1.211
  572SOL     OW 2317   1.371   3.512   1.113
  572SOL    HW2 2318   1.358   3.422   1.141
  572SOL    HW3 2319   1.343   3.514   1.021
  572SOL    MW4 2320   1.366   3.501   1.105
  573SOL     OW 2321   1.604   3.600   1.215
  573SOL    HW2 2322   1.604   3.692   1.188
  573SOL    HW3 2323   1.517   3.568   1.193
  573SOL    MW4 2324   1.593   3.608   1.209
  574SOL     OW 2325   1.570   3.857   1.140
  574SOL    HW2 2326   1.495   3.910   1.165
  574SOL    HW3 2327   1.576   3.867   1.045
  574SOL    MW4 2328   1.561   3.866   1.130
  575SOL     OW 2329   1.337   3.974   1.194
  575SOL    HW2 2330   1.325   4.058   1.149
  575SOL    HW3 2331   1.254   3.928   1.181
  575SOL    MW4 2332   1.325   3.979   1.186
  576SOL     OW 2333   1.315   4.220   1.088
  576SOL    HW2 2334   1.240   4.254   1.137
  576SOL    HW3 2335   1.315   4.269   1.006
  576SOL    MW4 2336   1.305   4.231   1.084
  577SOL     OW 2337   1.520   4.378   1.177
  577SOL    HW2 2338   1.521   4.373   1.273
  577SOL    HW3 2339   1.451   4.318   1.150
  577SOL    MW4 2340   1.511   4.370   1.186
  578SOL     OW 2341   2.050   4.662   1.153
  578SOL    HW2 2342   2.043   4.567   1.153
  578SOL    HW3 2343   2.078   4.684   1.064
  578SOL    MW4 2344   2.053   4.652   1.141
  579SOL     OW 2345   1.804   0.087   1.246
  579SOL    HW2 2346   1.807   0.161   1.185
  579SOL    HW3 2347   1.883   0.037   1.227
  579SOL    MW4 2348   1.815   0.090   1.235
  580SOL     OW 2349   1.811   0.352   1.120
  580SOL    HW2 2350   1.727   0.396   1.131
  580SOL    HW3 2351   1.823   0.347   1.025
  580SOL    MW4 2352   1.801   0.357   1.109
  581SOL     OW 2353   2.010   0.511   1.229
  581SOL    HW2 2354   2.006   0.525   1.323
  581SOL    HW3 2355   1.935   0.455   1.209
  581SOL    MW4 2356   2.000   0.506   1.239
  582SOL     OW 2357   2.023   0.777   1.102
  582SOL    HW2 2358   2.013   0.694   1.147
  582SOL    HW3 2359   2.013   0.756   1.009
  582SOL    MW4 2360   2.020   0.763   1.096
  583SOL     OW 2361   1.787   0.895   1.178
  583SOL    HW2 2362   1.789   0.902   1.273
  583SOL    HW3 2363   1.870   0.854   1.155
  583SOL    MW4 2364   1.798   0.890   1.187
  584SOL     OW 2365   1.782   1.163   1.094
  584SOL    HW2 2366   1.796   1.070   1.111
  584SOL    HW3 2367   1.765   1.168   1.000
  584SOL    MW4 2368   1.782   1.152   1.084
  585SOL     OW 2369   1.997   1.288   1.217
  585SOL    HW2 2370   2.068   1.267   1.157
  585SOL    HW3 2371   1.925   1.231   1.190
  585SOL    MW4 2372   1.997   1.278   1.206
  586SOL     OW 2373   2.011   1.549   1.125
  586SOL    HW2 2374   1.980   1.470   1.169
  586SOL    HW3 2375   1.992   1.533   1.032
  586SOL    MW4 2376   2.004   1.536   1.118
  587SOL     OW 2377   1.794   1.728   1.202
  587SOL    HW2 2378   1.804   1.811   1.156
  587SOL    HW3 2379   1.879   1.685   1.192
  587SOL    MW4 2380   1.807   1.733   1.195
  588SOL     OW 2381   1.770   2.013   1.052
  588SOL    HW2 2382   1.692   2.034   1.104
  588SOL    HW3 2383   1.735   1.996   0.965
  588SOL    MW4 2384   1.755   2.014   1.048
  589SOL     OW 2385   2.020   2.071   1.177
  589SOL    HW2 2386   2.007   2.073   1.272
  589SOL    HW3 2387   1.932   2.058   1.142
  589SOL    MW4 2388   2.006   2.070   1.185
  590SOL     OW 2389   2.039   2.354   1.081
  590SOL    HW2 2390   2.105   2.413   1.118
  590SOL    HW3 2391   2.063   2.267   1.114
  590SOL    MW4 2392   2.051   2.350   1.090
  591SOL     OW 2393   1.793   2.454   1.189
  591SOL    HW2 2394   1.862   2.403   1.148
  591SOL    HW3 2395   1.712   2.406   1.169
  591SOL    MW4 2396   1.792   2.441   1.181
  592SOL     OW 2397   1.797   2.717   1.110
  592SOL    HW2 2398   1.796   2.627   1.143
  592SOL    HW3 2399   1.781   2.708   1.016
  592SOL    MW4 2400   1.795   2.704   1.102
  593SOL     OW 2401   2.020   2.848   1.223
  593SOL    HW2 2402   2.010   2.940   1.199
  593SOL    HW3 2403   1.940   2.806   1.193
  593SOL    MW4 2404   2.008   2.855   1.216
  594SOL     OW 2405   2.017   3.098   1.096
  594SOL    HW2 2406   1.936   3.131   1.135
  594SOL    HW3 2407   2.003   3.105   1.002
  594SOL    MW4 2408   2.004   3.103   1.089
  595SOL     OW 2409   1.808   3.211   1.255
  595SOL    HW2 2410   1.801   3.239   1.346
  595SOL    HW3 2411   1.812   3.293   1.205
  595SOL    MW4 2412   1.808   3.226   1.260
  596SOL     OW 2413   1.786   3.442   1.066
  596SOL    HW2 2414   1.859   3.500   1.082
  596SOL    HW3 2415   1.712   3.484   1.110
  596SOL    MW4 2416   1.786   3.455   1.074
  597SOL     OW 2417   1.991   3.630   1.173
  597SOL    HW2 2418   1.986   3.615   1.268
  597SOL    HW3 2419   2.084   3.623   1.153
  597SOL    MW4 2420   2.002   3.627   1.183
  598SOL     OW 2421   2.007   3.901   1.110
  598SOL    HW2 2422   1.931   3.957   1.124
  598SOL    HW3 2423   1.982   3.817   1.147
  598SOL    MW4 2424   1.994   3.897   1.117
  599SOL     OW 2425   1.774   4.038   1.197
  599SOL    HW2 2426   1.793   4.022   1.290
  599SOL    HW3 2427   1.704   3.976   1.176
  599SOL    MW4 2428   1.767   4.027   1.207
  600SOL     OW 2429   1.768   4.282   1.069
  600SOL    HW2 2430   1.779   4.200   1.116
  600SOL    HW3 2431   1.689   4.321   1.108
  600SOL    MW4 2432   1.759   4.277   1.080
  601SOL     OW 2433   2.040   4.379   1.148
  601SOL    HW2 2434   2.040   4.393   1.243
  601SOL    HW3 2435   1.959   4.331   1.131
  601SOL    MW4 2436   2.030   4.375   1.158
  602SOL     OW 2437   2.488   0.012   1.158
  602SOL    HW2 2438   2.571   0.053   1.185
  602SOL    HW3 2439   2.421   0.060   1.207
  602SOL    MW4 2440   2.490   0.024   1.168
  603SOL     OW 2441   2.255   0.170   1.243
  603SOL    HW2 2442   2.241   0.253   1.199
  603SOL    HW3 2443   2.186   0.113   1.208
  603SOL    MW4 2444   2.244   0.173   1.233
  604SOL     OW 2445   2.221   0.405   1.099
  604SOL    HW2 2446   2.136   0.448   1.113
  604SOL    HW3 2447   2.224   0.389   1.005
  604SOL    MW4 2448   2.210   0.409   1.088
  605SOL     OW 2449   2.456   0.525   1.179
  605SOL    HW2 2450   2.469   0.503   1.271
  605SOL    HW3 2451   2.369   0.491   1.157
  605SOL    MW4 2452   2.446   0.518   1.188
  606SOL     OW 2453   2.446   0.772   1.026
  606SOL    HW2 2454   2.461   0.685   1.063
  606SOL    HW3 2455   2.475   0.764   0.935
  606SOL    MW4 2456   2.452   0.759   1.019
  607SOL     OW 2457   2.251   0.947   1.136
  607SOL    HW2 2458   2.316   0.905   1.080
  607SOL    HW3 2459   2.172   0.893   1.126
  607SOL    MW4 2460   2.249   0.934   1.127
  608SOL     OW 2461   2.195   1.208   1.052
  608SOL    HW2 2462   2.269   1.262   1.080
  608SOL    HW3 2463   2.216   1.121   1.084
  608SOL    MW4 2464   2.208   1.204   1.060
  609SOL     OW 2465   2.405   1.321   1.192
  609SOL    HW2 2466   2.484   1.269   1.175
  609SOL    HW3 2467   2.431   1.411   1.178
  609SOL    MW4 2468   2.419   1.326   1.188
  610SOL     OW 2469   2.483   1.564   1.117
  610SOL    HW2 2470   2.403   1.596   1.159
  610SOL    HW3 2471   2.463   1.566   1.023
  610SOL    MW4 2472   2.470   1.568   1.110
  611SOL     OW 2473   2.246   1.674   1.223
  611SOL    HW2 2474   2.245   1.766   1.194
  611SOL    HW3 2475   2.176   1.632   1.173
  611SOL    MW4 2476   2.237   1.681   1.212
  612SOL     OW 2477   2.225   1.913   1.117
  612SOL    HW2 2478   2.145   1.963   1.134
  612SOL    HW3 2479   2.232   1.912   1.021
  612SOL    MW4 2480   2.215   1.920   1.106
  613SOL     OW 2481   2.432   2.059   1.219
  613SOL    HW2 2482   2.513   2.031   1.177
  613SOL    HW3 2483   2.364   2.004   1.179
  613SOL    MW4 2484   2.433   2.048   1.208
  614SOL     OW 2485   2.447   2.317   1.125
  614SOL    HW2 2486   2.433   2.229   1.160
  614SOL    HW3 2487   2.457   2.303   1.031
  614SOL    MW4 2488   2.447   2.304   1.117
  615SOL     OW 2489   2.252   2.506   1.183
  615SOL    HW2 2490   2.247   2.498   1.279
  615SOL    HW3 2491   2.312   2.437   1.157
  615SOL    MW4 2492   2.259   2.496   1.192
  616SOL     OW 2493   2.261   2.768   1.116
  616SOL    HW2 2494   2.265   2.679   1.151
  616SOL    HW3 2495   2.180   2.804   1.151
  616SOL    MW4 2496   2.251   2.761   1.125
  617SOL     OW 2497   2.470   2.925   1.222
  617SOL    HW2 2498   2.466   2.922   1.318
  617SOL    HW3 2499   2.388   2.885   1.194
  617SOL    MW4 2500   2.459   2.919   1.231
  618SOL     OW 2501   2.488   3.167   1.084
  618SOL    HW2 2502   2.400   3.202   1.097
  618SOL    HW3 2503   2.487   3.083   1.131
  618SOL    MW4 2504   2.477   3.160   1.092
  619SOL     OW 2505   2.247   3.254   1.174
  619SOL    HW2 2506   2.224   3.342   1.145
  619SOL    HW3 2507   2.174   3.199   1.145
  619SOL    MW4 2508   2.234   3.258   1.167
  620SOL     OW 2509   2.217   3.511   1.078
  620SOL    HW2 2510   2.303   3.544   1.103
  620SOL    HW3 2511   2.221   3.501   0.983
  620SOL    MW4 2512   2.229   3.514   1.069
  621SOL     OW 2513   2.459   3.613   1.153
  621SOL    HW2 2514   2.456   3.601   1.248
  621SOL    HW3 2515   2.459   3.708   1.141
  621SOL    MW4 2516   2.459   3.624   1.164
  622SOL     OW 2517   2.483   3.914   1.051
  622SOL    HW2 2518   2.393   3.940   1.070
  622SOL    HW3 2519   2.491   3.923   0.956
  622SOL    MW4 2520   2.472   3.919   1.041
  623SOL     OW 2521   2.242   4.025   1.161
  623SOL    HW2 2522   2.244   4.113   1.126
  623SOL    HW3 2523   2.160   3.988   1.130
  623SOL    MW4 2524   2.232   4.031   1.152
  624SOL     OW 2525   2.270   4.287   1.070
  624SOL    HW2 2526   2.189   4.323   1.107
  624SOL    HW3 2527   2.250   4.275   0.977
  624SOL    MW4 2528   2.257   4.290   1.062
  625SOL     OW 2529   2.491   4.401   1.200
  625SOL    HW2 2530   2.430   4.357   1.140
  625SOL    HW3 2531   2.477   4.494   1.183
  625SOL    MW4 2532   2.481   4.408   1.190
  626SOL     OW 2533   2.922   4.654   1.127
  626SOL    HW2 2534   2.933   4.562   1.153
  626SOL    HW3 2535   2.940   4.654   1.033
  626SOL    MW4 2536   2.926   4.641   1.118
  627SOL     OW 2537   2.729   0.143   1.230
  627SOL    HW2 2538   2.733   0.119   1.322
  627SOL    HW3 2539   2.796   0.090   1.188
  627SOL    MW4 2540   2.738   0.133   1.236
  628SOL     OW 2541   2.661   0.369   1.079
  628SOL    HW2 2542   2.679   0.305   1.148
  628SOL    HW3 2543   2.585   0.418   1.111
  628SOL    MW4 2544   2.653   0.367   1.092
  629SOL     OW 2545   2.890   0.514   1.177
  629SOL    HW2 2546   2.893   0.605   1.148
  629SOL    HW3 2547   2.801   0.485   1.155
  629SOL    MW4 2548   2.878   0.522   1.170
  630SOL     OW 2549   2.885   0.780   1.098
  630SOL    HW2 2550   2.970   0.815   1.126
  630SOL    HW3 2551   2.820   0.833   1.144
  630SOL    MW4 2552   2.888   0.791   1.108
  631SOL     OW 2553   2.630   0.906   1.212
  631SOL    HW2 2554   2.606   0.992   1.178
  631SOL    HW3 2555   2.581   0.844   1.158
  631SOL    MW4 2556   2.620   0.909   1.200
  632SOL     OW 2557   2.631   1.168   1.111
  632SOL    HW2 2558   2.710   1.207   1.149
  632SOL    HW3 2559   2.655   1.150   1.020
  632SOL    MW4 2560   2.644   1.171   1.104
  633SOL     OW 2561   2.882   1.248   1.214
  633SOL    HW2 2562   2.874   1.266   1.308
  633SOL    HW3 2563   2.900   1.333   1.175
  633SOL    MW4 2564   2.884   1.262   1.221
  634SOL     OW 2565   2.925   1.506   1.116
  634SOL    HW2 2566   3.001   1.551   1.153
  634SOL    HW3 2567   2.919   1.538   1.026
  634SOL    MW4 2568   2.935   1.516   1.109
  635SOL     OW 2569   2.721   1.711   1.186
  635SOL    HW2 2570   2.781   1.641   1.162
  635SOL    HW3 2571   2.634   1.676   1.165
  635SOL    MW4 2572   2.717   1.697   1.180
  636SOL     OW 2573   2.672   1.972   1.119
  636SOL    HW2 2574   2.752   2.013   1.153
  636SOL    HW3 2575   2.681   1.879   1.140
  636SOL    MW4 2576   2.684   1.965   1.126
  637SOL     OW 2577   2.922   2.061   1.197
  637SOL    HW2 2578   2.914   2.051   1.292
  637SOL    HW3 2579   2.926   2.155   1.183
  637SOL    MW4 2580   2.921   2.072   1.208
  638SOL     OW 2581   2.891   2.347   1.130
  638SOL    HW2 2582   2.969   2.398   1.155
  638SOL    HW3 2583   2.819   2.389   1.176
  638SOL    MW4 2584   2.892   2.360   1.139
  639SOL     OW 2585   2.655   2.477   1.237
  639SOL    HW2 2586   2.645   2.461   1.330
  639SOL    HW3 2587   2.582   2.431   1.196
  639SOL    MW4 2588   2.644   2.469   1.244
  640SOL     OW 2589   2.684   2.752   1.150
  640SOL    HW2 2590   2.662   2.668   1.190
  640SOL    HW3 2591   2.608   2.808   1.167
  640SOL    MW4 2592   2.671   2.748   1.158
  641SOL     OW 2593   2.934   2.842   1.214
  641SOL    HW2 2594   2.925   2.839   1.310
  641SOL    HW3 2595   2.848   2.816   1.181
  641SOL    MW4 2596   2.922   2.838   1.223
  642SOL     OW 2597   2.894   3.091   1.103
  642SOL    HW2 2598   2.916   3.001   1.124
  642SOL    HW3 2599   2.887   3.093   1.007
  642SOL    MW4 2600   2.896   3.080   1.093
  643SOL     OW 2601   2.699   3.256   1.243
  643SOL    HW2 2602   2.762   3.187   1.219
  643SOL    HW3 2603   2.619   3.232   1.197
  643SOL    MW4 2604   2.697   3.244   1.234
  644SOL     OW 2605   2.692   3.475   1.063
  644SOL    HW2 2606   2.704   3.392   1.109
  644SOL    HW3 2607   2.606   3.506   1.090
  644SOL    MW4 2608   2.682   3.468   1.072
  645SOL     OW 2609   2.896   3.596   1.177
  645SOL    HW2 2610   2.974   3.542   1.166
  645SOL    HW3 2611   2.828   3.550   1.129
  645SOL    MW4 2612   2.897   3.583   1.169
  646SOL     OW 2613   2.904   3.876   1.112
  646SOL    HW2 2614   2.977   3.926   1.147
  646SOL    HW3 2615   2.907   3.792   1.157
  646SOL    MW4 2616   2.914   3.872   1.122
  647SOL     OW 2617   2.690   4.038   1.191
  647SOL    HW2 2618   2.759   3.975   1.173
  647SOL    HW3 2619   2.611   3.998   1.153
  647SOL    MW4 2620   2.688   4.024   1.184
  648SOL     OW 2621   2.705   4.276   1.061
  648SOL    HW2 2622   2.707   4.192   1.106
  648SOL    HW3 2623   2.630   4.322   1.101
  648SOL    MW4 2624   2.695   4.271   1.073
  649SOL     OW 2625   2.886   4.396   1.229
  649SOL    HW2 2626   2.965   4.347   1.205
  649SOL    HW3 2627   2.815   4.350   1.185
  649SOL    MW4 2628   2.887   4.384   1.220
  650SOL     OW 2629   3.379   0.026   1.110
  650SOL    HW2 2630   3.456   0.074   1.142
  650SOL    HW3 2631   3.305   0.083   1.130
  650SOL    MW4 2632   3.379   0.039   1.117
  651SOL     OW 2633   3.128   0.151   1.193
  651SOL    HW2 2634   3.141   0.134   1.287
  651SOL    HW3 2635   3.057   0.093   1.168
  651SOL    MW4 2636   3.121   0.141   1.202
  652SOL     OW 2637   3.141   0.414   1.120
  652SOL    HW2 2638   3.135   0.320   1.139
  652SOL    HW3 2639   3.057   0.450   1.149
  652SOL    MW4 2640   3.129   0.406   1.126
  653SOL     OW 2641   3.395   0.493   1.243
  653SOL    HW2 2642   3.411   0.575   1.196
  653SOL    HW3 2643   3.308   0.466   1.215
  653SOL    MW4 2644   3.386   0.501   1.233
  654SOL     OW 2645   3.355   0.716   1.081
  654SOL    HW2 2646   3.269   0.742   1.113
  654SOL    HW3 2647   3.348   0.720   0.986
  654SOL    MW4 2648   3.343   0.720   1.073
  655SOL     OW 2649   3.115   0.874   1.170
  655SOL    HW2 2650   3.121   0.875   1.265
  655SOL    HW3 2651   3.120   0.967   1.144
  655SOL    MW4 2652   3.116   0.887   1.179
  656SOL     OW 2653   3.112   1.157   1.110
  656SOL    HW2 2654   3.188   1.198   1.149
  656SOL    HW3 2655   3.037   1.201   1.150
  656SOL    MW4 2656   3.112   1.168   1.120
  657SOL     OW 2657   3.356   1.270   1.179
  657SOL    HW2 2658   3.351   1.261   1.274
  657SOL    HW3 2659   3.355   1.365   1.164
  657SOL    MW4 2660   3.355   1.281   1.190
  658SOL     OW 2661   3.399   1.540   1.130
  658SOL    HW2 2662   3.471   1.584   1.176
  658SOL    HW3 2663   3.320   1.576   1.168
  658SOL    MW4 2664   3.398   1.551   1.141
  659SOL     OW 2665   3.147   1.644   1.212
  659SOL    HW2 2666   3.145   1.636   1.308
  659SOL    HW3 2667   3.128   1.736   1.196
  659SOL    MW4 2668   3.144   1.655   1.223
  660SOL     OW 2669   3.114   1.891   1.114
  660SOL    HW2 2670   3.195   1.937   1.139
  660SOL    HW3 2671   3.044   1.947   1.149
  660SOL    MW4 2672   3.116   1.905   1.122
  661SOL     OW 2673   3.313   2.080   1.218
  661SOL    HW2 2674   3.396   2.033   1.224
  661SOL    HW3 2675   3.335   2.164   1.178
  661SOL    MW4 2676   3.327   2.085   1.214
  662SOL     OW 2677   3.371   2.335   1.099
  662SOL    HW2 2678   3.443   2.365   1.154
  662SOL    HW3 2679   3.296   2.388   1.127
  662SOL    MW4 2680   3.371   2.346   1.110
  663SOL     OW 2681   3.140   2.452   1.186
  663SOL    HW2 2682   3.140   2.459   1.281
  663SOL    HW3 2683   3.146   2.543   1.156
  663SOL    MW4 2684   3.141   2.465   1.195
  664SOL     OW 2685   3.157   2.722   1.109
  664SOL    HW2 2686   3.076   2.754   1.147
  664SOL    HW3 2687   3.140   2.719   1.015
  664SOL    MW4 2688   3.144   2.726   1.102
  665SOL     OW 2689   3.373   2.871   1.221
  665SOL    HW2 2690   3.383   2.952   1.171
  665SOL    HW3 2691   3.293   2.832   1.187
  665SOL    MW4 2692   3.364   2.877   1.210
  666SOL     OW 2693   3.367   3.154   1.111
  666SOL    HW2 2694   3.427   3.186   1.178
  666SOL    HW3 2695   3.280   3.166   1.148
  666SOL    MW4 2696   3.363   3.160   1.125
  667SOL     OW 2697   3.111   3.202   1.205
  667SOL    HW2 2698   3.098   3.295   1.187
  667SOL    HW3 2699   3.041   3.158   1.158
  667SOL    MW4 2700   3.100   3.209   1.197
  668SOL     OW 2701   3.130   3.469   1.126
  668SOL    HW2 2702   3.197   3.533   1.152
  668SOL    HW3 2703   3.149   3.451   1.034
  668SOL    MW4 2704   3.142   3.475   1.118
  669SOL     OW 2705   3.349   3.619   1.193
  669SOL    HW2 2706   3.358   3.623   1.288
  669SOL    HW3 2707   3.433   3.583   1.164
  669SOL    MW4 2708   3.361   3.615   1.202
  670SOL     OW 2709   3.377   3.882   1.062
  670SOL    HW2 2710   3.297   3.921   1.097
  670SOL    HW3 2711   3.367   3.788   1.078
  670SOL    MW4 2712   3.365   3.875   1.069
  671SOL     OW 2713   3.127   4.000   1.199
  671SOL    HW2 2714   3.136   3.986   1.293
  671SOL    HW3 2715   3.098   4.091   1.191
  671SOL    MW4 2716   3.125   4.011   1.210
  672SOL     OW 2717   3.105   4.266   1.131
  672SOL    HW2 2718   3.184   4.312   1.159
  672SOL    HW3 2719   3.112   4.261   1.036
  672SOL    MW4 2720   3.116   4.271   1.122
  673SOL     OW 2721   3.322   4.426   1.202
  673SOL    HW2 2722   3.385   4.382   1.144
  673SOL    HW3 2723   3.338   4.519   1.189
  673SOL    MW4 2724   3.333   4.432   1.193
  674SOL     OW 2725   3.826   4.624   1.039
  674SOL    HW2 2726   3.808   4.536   1.071
  674SOL    HW3 2727   3.836   4.613   0.945
  674SOL    MW4 2728   3.825   4.611   1.031
  675SOL     OW 2729   3.658   0.116   1.182
  675SOL    HW2 2730   3.648   0.197   1.131
  675SOL    HW3 2731   3.724   0.066   1.135
  675SOL    MW4 2732   3.665   0.120   1.169
  676SOL     OW 2733   3.603   0.361   1.049
  676SOL    HW2 2734   3.681   0.395   1.094
  676SOL    HW3 2735   3.529   0.397   1.099
  676SOL    MW4 2736   3.604   0.370   1.062
  677SOL     OW 2737   3.815   0.486   1.204
  677SOL    HW2 2738   3.899   0.455   1.170
  677SOL    HW3 2739   3.810   0.577   1.176
  677SOL    MW4 2740   3.825   0.494   1.196
  678SOL     OW 2741   3.817   0.760   1.098
  678SOL    HW2 2742   3.885   0.819   1.131
  678SOL    HW3 2743   3.736   0.790   1.141
  678SOL    MW4 2744   3.815   0.772   1.108
  679SOL     OW 2745   3.568   0.872   1.193
  679SOL    HW2 2746   3.565   0.965   1.169
  679SOL    HW3 2747   3.486   0.836   1.158
  679SOL    MW4 2748   3.557   0.880   1.185
  680SOL     OW 2749   3.563   1.126   1.072
  680SOL    HW2 2750   3.634   1.174   1.115
  680SOL    HW3 2751   3.484   1.176   1.093
  680SOL    MW4 2752   3.562   1.139   1.081
  681SOL     OW 2753   3.767   1.271   1.199
  681SOL    HW2 2754   3.777   1.265   1.294
  681SOL    HW3 2755   3.788   1.362   1.179
  681SOL    MW4 2756   3.771   1.282   1.209
  682SOL     OW 2757   3.821   1.534   1.125
  682SOL    HW2 2758   3.903   1.582   1.136
  682SOL    HW3 2759   3.784   1.568   1.043
  682SOL    MW4 2760   3.827   1.545   1.116
  683SOL     OW 2761   3.616   1.674   1.266
  683SOL    HW2 2762   3.605   1.763   1.234
  683SOL    HW3 2763   3.697   1.644   1.226
  683SOL    MW4 2764   3.625   1.682   1.257
  684SOL     OW 2765   3.560   1.940   1.167
  684SOL    HW2 2766   3.633   1.997   1.189
  684SOL    HW3 2767   3.548   1.950   1.072
  684SOL    MW4 2768   3.568   1.949   1.157
  685SOL     OW 2769   3.785   2.063   1.263
  685SOL    HW2 2770   3.787   2.050   1.358
  685SOL    HW3 2771   3.856   2.008   1.230
  685SOL    MW4 2772   3.795   2.054   1.271
  686SOL     OW 2773   3.788   2.303   1.114
  686SOL    HW2 2774   3.860   2.349   1.156
  686SOL    HW3 2775   3.788   2.216   1.155
  686SOL    MW4 2776   3.797   2.297   1.125
  687SOL     OW 2777   3.589   2.444   1.268
  687SOL    HW2 2778   3.588   2.413   1.359
  687SOL    HW3 2779   3.668   2.404   1.230
  687SOL    MW4 2780   3.600   2.434   1.275
  688SOL     OW 2781   3.576   2.692   1.125
  688SOL    HW2 2782   3.562   2.609   1.169
  688SOL    HW3 2783   3.513   2.752   1.166
  688SOL    MW4 2784   3.566   2.689   1.136
  689SOL     OW 2785   3.794   2.833   1.242
  689SOL    HW2 2786   3.793   2.839   1.338
  689SOL    HW3 2787   3.726   2.768   1.222
  689SOL    MW4 2788   3.785   2.825   1.252
  690SOL     OW 2789   3.784   3.096   1.148
  690SOL    HW2 2790   3.790   3.007   1.183
  690SOL    HW3 2791   3.724   3.088   1.074
  690SOL    MW4 2792   3.777   3.083   1.143
  691SOL     OW 2793   3.585   3.268   1.257
  691SOL    HW2 2794   3.585   3.350   1.208
  691SOL    HW3 2795   3.667   3.225   1.233
  691SOL    MW4 2796   3.595   3.273   1.248
  692SOL     OW 2797   3.579   3.491   1.096
  692SOL    HW2 2798   3.658   3.534   1.128
  692SOL    HW3 2799   3.590   3.490   1.001
  692SOL    MW4 2800   3.591   3.496   1.087
  693SOL     OW 2801   3.808   3.625   1.162
  693SOL    HW2 2802   3.820   3.615   1.256
  693SOL    HW3 2803   3.812   3.720   1.147
  693SOL    MW4 2804   3.810   3.637   1.172
  694SOL     OW 2805   3.828   3.914   1.091
  694SOL    HW2 2806   3.748   3.953   1.125
  694SOL    HW3 2807   3.803   3.881   1.004
  694SOL    MW4 2808   3.814   3.915   1.084
  695SOL     OW 2809   3.583   4.025   1.191
  695SOL    HW2 2810   3.583   3.994   1.281
  695SOL    HW3 2811   3.521   3.968   1.145
  695SOL    MW4 2812   3.575   4.014   1.197
  696SOL     OW 2813   3.525   4.273   1.086
  696SOL    HW2 2814   3.555   4.192   1.128
  696SOL    HW3 2815   3.525   4.253   0.992
  696SOL    MW4 2816   3.529   4.259   1.079
  697SOL     OW 2817   3.763   4.391   1.173
  697SOL    HW2 2818   3.768   4.403   1.267
  697SOL    HW3 2819   3.677   4.353   1.158
  697SOL    MW4 2820   3.752   4.387   1.183
  698SOL     OW 2821   4.271   0.004   1.085
  698SOL    HW2 2822   4.241  -0.085   1.105
  698SOL    HW3 2823   4.203   0.061   1.119
  698SOL    MW4 2824   4.258   0.000   1.092
  699SOL     OW 2825   4.024   0.122   1.164
  699SOL    HW2 2826   4.009   0.117   1.258
  699SOL    HW3 2827   3.954   0.070   1.125
  699SOL    MW4 2828   4.013   0.115   1.171
  700SOL     OW 2829   4.069   0.422   1.103
  700SOL    HW2 2830   4.079   0.329   1.126
  700SOL    HW3 2831   4.065   0.421   1.007
  700SOL    MW4 2832   4.070   0.409   1.093
  701SOL     OW 2833   4.301   0.557   1.217
  701SOL    HW2 2834   4.320   0.543   1.310
  701SOL    HW3 2835   4.216   0.516   1.203
  701SOL    MW4 2836   4.292   0.550   1.227
  702SOL     OW 2837   4.240   0.816   1.109
  702SOL    HW2 2838   4.268   0.727   1.133
  702SOL    HW3 2839   4.241   0.817   1.014
  702SOL    MW4 2840   4.244   0.804   1.100
  703SOL     OW 2841   3.996   0.907   1.218
  703SOL    HW2 2842   3.976   0.882   1.308
  703SOL    HW3 2843   4.084   0.870   1.202
  703SOL    MW4 2844   4.005   0.899   1.228
  704SOL     OW 2845   4.036   1.169   1.104
  704SOL    HW2 2846   4.037   1.083   1.145
  704SOL    HW3 2847   3.945   1.198   1.110
  704SOL    MW4 2848   4.024   1.162   1.110
  705SOL     OW 2849   4.264   1.283   1.212
  705SOL    HW2 2850   4.267   1.272   1.307
  705SOL    HW3 2851   4.177   1.250   1.188
  705SOL    MW4 2852   4.253   1.277   1.222
  706SOL     OW 2853   4.263   1.548   1.111
  706SOL    HW2 2854   4.269   1.460   1.147
  706SOL    HW3 2855   4.345   1.591   1.135
  706SOL    MW4 2856   4.274   1.542   1.119
  707SOL     OW 2857   4.036   1.668   1.192
  707SOL    HW2 2858   4.033   1.654   1.287
  707SOL    HW3 2859   4.115   1.622   1.163
  707SOL    MW4 2860   4.046   1.660   1.201
  708SOL     OW 2861   3.986   1.934   1.129
  708SOL    HW2 2862   4.005   1.844   1.154
  708SOL    HW3 2863   3.968   1.930   1.035
  708SOL    MW4 2864   3.986   1.922   1.120
  709SOL     OW 2865   4.251   2.051   1.195
  709SOL    HW2 2866   4.251   2.143   1.167
  709SOL    HW3 2867   4.172   2.014   1.157
  709SOL    MW4 2868   4.241   2.058   1.186
  710SOL     OW 2869   4.252   2.327   1.123
  710SOL    HW2 2870   4.169   2.359   1.157
  710SOL    HW3 2871   4.254   2.357   1.032
  710SOL    MW4 2872   4.241   2.335   1.115
  711SOL     OW 2873   4.009   2.439   1.220
  711SOL    HW2 2874   4.014   2.434   1.316
  711SOL    HW3 2875   4.029   2.531   1.201
  711SOL    MW4 2876   4.013   2.451   1.230
  712SOL     OW 2877   4.030   2.719   1.171
  712SOL    HW2 2878   3.950   2.754   1.209
  712SOL    HW3 2879   4.011   2.710   1.078
  712SOL    MW4 2880   4.017   2.722   1.164
  713SOL     OW 2881   4.275   2.881   1.229
  713SOL    HW2 2882   4.254   2.966   1.191
  713SOL    HW3 2883   4.200   2.826   1.208
  713SOL    MW4 2884   4.262   2.885   1.221
  714SOL     OW 2885   4.254   3.119   1.080
  714SOL    HW2 2886   4.174   3.153   1.121
  714SOL    HW3 2887   4.240   3.133   0.987
  714SOL    MW4 2888   4.242   3.125   1.073
  715SOL     OW 2889   4.024   3.241   1.187
  715SOL    HW2 2890   4.023   3.234   1.283
  715SOL    HW3 2891   3.942   3.200   1.159
  715SOL    MW4 2892   4.013   3.234   1.196
  716SOL     OW 2893   4.041   3.507   1.070
  716SOL    HW2 2894   4.050   3.420   1.110
  716SOL    HW3 2895   3.954   3.537   1.096
  716SOL    MW4 2896   4.031   3.499   1.078
  717SOL     OW 2897   4.235   3.609   1.235
  717SOL    HW2 2898   4.161   3.577   1.183
  717SOL    HW3 2899   4.311   3.565   1.198
  717SOL    MW4 2900   4.235   3.599   1.223
  718SOL     OW 2901   4.254   3.859   1.095
  718SOL    HW2 2902   4.190   3.924   1.125
  718SOL    HW3 2903   4.243   3.785   1.155
  718SOL    MW4 2904   4.244   3.858   1.107
  719SOL     OW 2905   4.073   4.036   1.174
  719SOL    HW2 2906   4.073   4.129   1.151
  719SOL    HW3 2907   3.997   4.000   1.128
  719SOL    MW4 2908   4.063   4.043   1.165
  720SOL     OW 2909   4.024   4.302   1.094
  720SOL    HW2 2910   3.942   4.311   1.143
  720SOL    HW3 2911   3.996   4.287   1.004
  720SOL    MW4 2912   4.010   4.301   1.089
  721SOL     OW 2913   4.263   4.409   1.224
  721SOL    HW2 2914   4.184   4.370   1.187
  721SOL    HW3 2915   4.335   4.358   1.186
  721SOL    MW4 2916   4.262   4.397   1.214
  722SOL     OW 2917   0.204   4.621   1.585
  722SOL    HW2 2918   0.282   4.657   1.542
  722SOL    HW3 2919   0.133   4.681   1.562
  722SOL    MW4 2920   0.205   4.634   1.576
  723SOL     OW 2921   0.003   0.118   1.473
  723SOL    HW2 2922  -0.085   0.081   1.485
  723SOL    HW3 2923   0.013   0.126   1.378
  723SOL    MW4 2924  -0.008   0.114   1.462
  724SOL     OW 2925   0.021   0.363   1.590
  724SOL    HW2 2926   0.028   0.359   1.685
  724SOL    HW3 2927   0.029   0.272   1.561
  724SOL    MW4 2928   0.023   0.351   1.599
  725SOL     OW 2929   0.246   0.478   1.497
  725SOL    HW2 2930   0.173   0.436   1.542
  725SOL    HW3 2931   0.219   0.482   1.406
  725SOL    MW4 2932   0.233   0.473   1.491
  726SOL     OW 2933   0.211   0.753   1.532
  726SOL    HW2 2934   0.294   0.800   1.543
  726SOL    HW3 2935   0.236   0.669   1.494
  726SOL    MW4 2936   0.225   0.748   1.528
  727SOL     OW 2937   4.446   0.865   1.517
  727SOL    HW2 2938   4.465   0.954   1.545
  727SOL    HW3 2939   4.527   0.816   1.535
  727SOL    MW4 2940   4.459   0.870   1.523
  728SOL     OW 2941   0.030   1.153   1.587
  728SOL    HW2 2942   0.031   1.175   1.680
  728SOL    HW3 2943   0.103   1.202   1.550
  728SOL    MW4 2944   0.040   1.162   1.594
  729SOL     OW 2945   0.246   1.288   1.494
  729SOL    HW2 2946   0.245   1.382   1.515
  729SOL    HW3 2947   0.231   1.284   1.400
  729SOL    MW4 2948   0.244   1.300   1.485
  730SOL     OW 2949   0.233   1.586   1.553
  730SOL    HW2 2950   0.216   1.564   1.645
  730SOL    HW3 2951   0.147   1.609   1.517
  730SOL    MW4 2952   0.219   1.586   1.560
  731SOL     OW 2953   4.480   1.671   1.464
  731SOL    HW2 2954   4.484   1.760   1.498
  731SOL    HW3 2955   4.459   1.681   1.371
  731SOL    MW4 2956   4.478   1.684   1.456
  732SOL     OW 2957   0.016   1.946   1.575
  732SOL    HW2 2958   0.008   1.929   1.669
  732SOL    HW3 2959  -0.065   1.992   1.553
  732SOL    MW4 2960   0.004   1.950   1.585
  733SOL     OW 2961   0.251   2.056   1.511
  733SOL    HW2 2962   0.170   2.014   1.539
  733SOL    HW3 2963   0.242   2.066   1.416
  733SOL    MW4 2964   0.239   2.052   1.502
  734SOL     OW 2965   0.224   2.331   1.599
  734SOL    HW2 2966   0.224   2.326   1.695
  734SOL    HW3 2967   0.251   2.244   1.570
  734SOL    MW4 2968   0.228   2.319   1.608
  735SOL     OW 2969   0.003   2.425   1.479
  735SOL    HW2 2970  -0.071   2.390   1.529
  735SOL    HW3 2971   0.080   2.384   1.517
  735SOL    MW4 2972   0.003   2.415   1.490
  736SOL     OW 2973   0.013   2.699   1.579
  736SOL    HW2 2974  -0.076   2.730   1.562
  736SOL    HW3 2975   0.015   2.611   1.542
  736SOL    MW4 2976   0.002   2.691   1.572
  737SOL     OW 2977   0.251   2.823   1.444
  737SOL    HW2 2978   0.328   2.782   1.484
  737SOL    HW3 2979   0.176   2.780   1.485
  737SOL    MW4 2980   0.251   2.812   1.455
  738SOL     OW 2981   0.224   3.058   1.581
  738SOL    HW2 2982   0.143   3.105   1.561
  738SOL    HW3 2983   0.219   2.978   1.529
  738SOL    MW4 2984   0.213   3.054   1.571
  739SOL     OW 2985   4.478   3.213   1.503
  739SOL    HW2 2986   4.472   3.301   1.539
  739SOL    HW3 2987   4.481   3.226   1.408
  739SOL    MW4 2988   4.478   3.226   1.495
  740SOL     OW 2989   4.480   3.484   1.592
  740SOL    HW2 2990   4.473   3.492   1.687
  740SOL    HW3 2991   4.396   3.518   1.559
  740SOL    MW4 2992   4.468   3.490   1.600
  741SOL     OW 2993   0.235   3.563   1.490
  741SOL    HW2 2994   0.248   3.657   1.500
  741SOL    HW3 2995   0.148   3.546   1.528
  741SOL    MW4 2996   0.225   3.573   1.496
  742SOL     OW 2997   0.239   3.829   1.552
  742SOL    HW2 2998   0.228   3.842   1.646
  742SOL    HW3 2999   0.285   3.907   1.522
  742SOL    MW4 3000   0.243   3.841   1.561
  743SOL     OW 3001   4.484   3.941   1.494
  743SOL    HW2 3002   4.493   4.027   1.536
  743SOL    HW3 3003   4.569   3.899   1.508
  743SOL    MW4 3004   4.497   3.947   1.502
  744SOL     OW 3005   0.000   4.211   1.586
  744SOL    HW2 3006  -0.008   4.237   1.677
  744SOL    HW3 3007  -0.082   4.241   1.545
  744SOL    MW4 3008  -0.012   4.219   1.592
  745SOL     OW 3009   0.179   4.377   1.456
  745SOL    HW2 3010   0.118   4.317   1.500
  745SOL    HW3 3011   0.164   4.461   1.499
  745SOL    MW4 3012   0.169   4.380   1.468
  746SOL     OW 3013   0.693   4.623   1.572
  746SOL    HW2 3014   0.769   4.671   1.537
  746SOL    HW3 3015   0.619   4.679   1.550
  746SOL    MW4 3016   0.693   4.637   1.564
  747SOL     OW 3017   0.461   0.084   1.480
  747SOL    HW2 3018   0.458   0.172   1.518
  747SOL    HW3 3019   0.457   0.098   1.386
  747SOL    MW4 3020   0.460   0.098   1.473
  748SOL     OW 3021   0.469   0.344   1.573
  748SOL    HW2 3022   0.535   0.390   1.521
  748SOL    HW3 3023   0.389   0.397   1.562
  748SOL    MW4 3024   0.467   0.357   1.564
  749SOL     OW 3025   0.682   0.469   1.452
  749SOL    HW2 3026   0.686   0.552   1.499
  749SOL    HW3 3027   0.669   0.494   1.361
  749SOL    MW4 3028   0.681   0.483   1.447
  750SOL     OW 3029   0.669   0.723   1.570
  750SOL    HW2 3030   0.677   0.727   1.666
  750SOL    HW3 3031   0.742   0.775   1.538
  750SOL    MW4 3032   0.679   0.730   1.579
  751SOL     OW 3033   0.447   0.887   1.518
  751SOL    HW2 3034   0.448   0.980   1.543
  751SOL    HW3 3035   0.535   0.856   1.537
  751SOL    MW4 3036   0.459   0.895   1.524
  752SOL     OW 3037   0.463   1.153   1.599
  752SOL    HW2 3038   0.540   1.196   1.563
  752SOL    HW3 3039   0.389   1.202   1.564
  752SOL    MW4 3040   0.463   1.165   1.590
  753SOL     OW 3041   0.685   1.278   1.474
  753SOL    HW2 3042   0.692   1.367   1.508
  753SOL    HW3 3043   0.687   1.288   1.379
  753SOL    MW4 3044   0.686   1.291   1.466
  754SOL     OW 3045   0.675   1.546   1.580
  754SOL    HW2 3046   0.752   1.582   1.535
  754SOL    HW3 3047   0.601   1.590   1.538
  754SOL    MW4 3048   0.675   1.557   1.569
  755SOL     OW 3049   0.473   1.676   1.449
  755SOL    HW2 3050   0.466   1.760   1.495
  755SOL    HW3 3051   0.392   1.630   1.468
  755SOL    MW4 3052   0.462   1.681   1.457
  756SOL     OW 3053   0.470   1.915   1.599
  756SOL    HW2 3054   0.479   1.931   1.693
  756SOL    HW3 3055   0.384   1.950   1.576
  756SOL    MW4 3056   0.460   1.922   1.608
  757SOL     OW 3057   0.675   2.026   1.446
  757SOL    HW2 3058   0.753   2.005   1.498
  757SOL    HW3 3059   0.602   1.989   1.497
  757SOL    MW4 3060   0.675   2.018   1.460
  758SOL     OW 3061   0.687   2.293   1.542
  758SOL    HW2 3062   0.622   2.347   1.497
  758SOL    HW3 3063   0.672   2.204   1.508
  758SOL    MW4 3064   0.676   2.288   1.532
  759SOL     OW 3065   0.457   2.443   1.462
  759SOL    HW2 3066   0.470   2.521   1.517
  759SOL    HW3 3067   0.381   2.400   1.499
  759SOL    MW4 3068   0.449   2.448   1.474
  760SOL     OW 3069   0.474   2.697   1.593
  760SOL    HW2 3070   0.479   2.693   1.688
  760SOL    HW3 3071   0.553   2.745   1.567
  760SOL    MW4 3072   0.485   2.703   1.602
  761SOL     OW 3073   0.700   2.823   1.502
  761SOL    HW2 3074   0.698   2.917   1.522
  761SOL    HW3 3075   0.695   2.819   1.407
  761SOL    MW4 3076   0.699   2.835   1.492
  762SOL     OW 3077   0.706   3.103   1.579
  762SOL    HW2 3078   0.776   3.139   1.523
  762SOL    HW3 3079   0.626   3.144   1.546
  762SOL    MW4 3080   0.705   3.113   1.567
  763SOL     OW 3081   0.452   3.196   1.500
  763SOL    HW2 3082   0.369   3.158   1.530
  763SOL    HW3 3083   0.448   3.190   1.405
  763SOL    MW4 3084   0.440   3.190   1.491
  764SOL     OW 3085   0.444   3.440   1.610
  764SOL    HW2 3086   0.448   3.352   1.572
  764SOL    HW3 3087   0.356   3.472   1.589
  764SOL    MW4 3088   0.433   3.433   1.602
  765SOL     OW 3089   0.648   3.613   1.523
  765SOL    HW2 3090   0.729   3.583   1.563
  765SOL    HW3 3091   0.585   3.543   1.542
  765SOL    MW4 3092   0.650   3.600   1.531
  766SOL     OW 3093   0.638   3.893   1.601
  766SOL    HW2 3094   0.719   3.932   1.567
  766SOL    HW3 3095   0.644   3.801   1.576
  766SOL    MW4 3096   0.649   3.886   1.593
  767SOL     OW 3097   0.426   4.035   1.493
  767SOL    HW2 3098   0.503   3.991   1.527
  767SOL    HW3 3099   0.433   4.027   1.398
  767SOL    MW4 3100   0.437   4.028   1.485
  768SOL     OW 3101   0.424   4.297   1.570
  768SOL    HW2 3102   0.407   4.207   1.543
  768SOL    HW3 3103   0.348   4.346   1.539
  768SOL    MW4 3104   0.411   4.292   1.562
  769SOL     OW 3105   0.665   4.370   1.471
  769SOL    HW2 3106   0.575   4.353   1.500
  769SOL    HW3 3107   0.688   4.452   1.513
  769SOL    MW4 3108   0.656   4.378   1.481
  770SOL     OW 3109   1.106   4.598   1.549
  770SOL    HW2 3110   1.094   4.602   1.644
  770SOL    HW3 3111   1.171   4.666   1.531
  770SOL    MW4 3112   1.113   4.607   1.560
  771SOL     OW 3113   0.891   0.106   1.482
  771SOL    HW2 3114   0.898   0.196   1.514
  771SOL    HW3 3115   0.965   0.061   1.522
  771SOL    MW4 3116   0.902   0.112   1.491
  772SOL     OW 3117   0.920   0.363   1.557
  772SOL    HW2 3118   0.924   0.371   1.652
  772SOL    HW3 3119   0.832   0.392   1.534
  772SOL    MW4 3120   0.909   0.367   1.567
  773SOL     OW 3121   1.110   0.514   1.434
  773SOL    HW2 3122   1.102   0.601   1.474
  773SOL    HW3 3123   1.039   0.463   1.474
  773SOL    MW4 3124   1.099   0.518   1.445
  774SOL     OW 3125   1.109   0.758   1.563
  774SOL    HW2 3126   1.119   0.748   1.657
  774SOL    HW3 3127   1.193   0.794   1.533
  774SOL    MW4 3128   1.121   0.762   1.571
  775SOL     OW 3129   0.865   0.894   1.514
  775SOL    HW2 3130   0.941   0.852   1.552
  775SOL    HW3 3131   0.881   0.891   1.419
  775SOL    MW4 3132   0.877   0.888   1.506
  776SOL     OW 3133   0.901   1.164   1.578
  776SOL    HW2 3134   0.882   1.074   1.554
  776SOL    HW3 3135   0.826   1.214   1.544
  776SOL    MW4 3136   0.888   1.159   1.570
  777SOL     OW 3137   1.110   1.290   1.464
  777SOL    HW2 3138   1.188   1.247   1.498
  777SOL    HW3 3139   1.037   1.241   1.503
  777SOL    MW4 3140   1.111   1.278   1.474
  778SOL     OW 3141   1.126   1.537   1.583
  778SOL    HW2 3142   1.199   1.597   1.570
  778SOL    HW3 3143   1.155   1.455   1.544
  778SOL    MW4 3144   1.139   1.534   1.576
  779SOL     OW 3145   0.907   1.672   1.473
  779SOL    HW2 3146   0.980   1.612   1.486
  779SOL    HW3 3147   0.885   1.663   1.380
  779SOL    MW4 3148   0.914   1.663   1.463
  780SOL     OW 3149   0.896   1.937   1.581
  780SOL    HW2 3150   0.987   1.966   1.585
  780SOL    HW3 3151   0.901   1.848   1.547
  780SOL    MW4 3152   0.908   1.929   1.577
  781SOL     OW 3153   1.131   2.077   1.552
  781SOL    HW2 3154   1.206   2.029   1.587
  781SOL    HW3 3155   1.151   2.169   1.567
  781SOL    MW4 3156   1.143   2.083   1.559
  782SOL     OW 3157   1.149   2.334   1.600
  782SOL    HW2 3158   1.213   2.393   1.560
  782SOL    HW3 3159   1.064   2.374   1.579
  782SOL    MW4 3160   1.146   2.347   1.592
  783SOL     OW 3161   0.910   2.450   1.514
  783SOL    HW2 3162   0.889   2.535   1.552
  783SOL    HW3 3163   0.843   2.391   1.548
  783SOL    MW4 3164   0.898   2.454   1.524
  784SOL     OW 3165   0.910   2.701   1.625
  784SOL    HW2 3166   0.903   2.699   1.720
  784SOL    HW3 3167   0.836   2.753   1.596
  784SOL    MW4 3168   0.900   2.707   1.634
  785SOL     OW 3169   1.128   2.836   1.497
  785SOL    HW2 3170   1.123   2.931   1.506
  785SOL    HW3 3171   1.042   2.805   1.522
  785SOL    MW4 3172   1.116   2.845   1.501
  786SOL     OW 3173   1.104   3.095   1.570
  786SOL    HW2 3174   1.095   3.090   1.665
  786SOL    HW3 3175   1.186   3.142   1.556
  786SOL    MW4 3176   1.114   3.101   1.580
  787SOL     OW 3177   0.915   3.259   1.465
  787SOL    HW2 3178   0.987   3.222   1.515
  787SOL    HW3 3179   0.931   3.230   1.375
  787SOL    MW4 3180   0.927   3.250   1.460
  788SOL     OW 3181   0.910   3.481   1.618
  788SOL    HW2 3182   0.984   3.524   1.575
  788SOL    HW3 3183   0.900   3.399   1.570
  788SOL    MW4 3184   0.919   3.476   1.606
  789SOL     OW 3185   1.131   3.573   1.489
  789SOL    HW2 3186   1.217   3.547   1.520
  789SOL    HW3 3187   1.133   3.557   1.395
  789SOL    MW4 3188   1.142   3.568   1.481
  790SOL     OW 3189   1.106   3.835   1.587
  790SOL    HW2 3190   1.179   3.880   1.545
  790SOL    HW3 3191   1.103   3.750   1.543
  790SOL    MW4 3192   1.115   3.830   1.575
  791SOL     OW 3193   0.903   3.962   1.455
  791SOL    HW2 3194   0.909   4.043   1.506
  791SOL    HW3 3195   0.966   3.903   1.497
  791SOL    MW4 3196   0.912   3.965   1.467
  792SOL     OW 3197   0.866   4.220   1.597
  792SOL    HW2 3198   0.864   4.231   1.692
  792SOL    HW3 3199   0.788   4.264   1.566
  792SOL    MW4 3200   0.856   4.227   1.605
  793SOL     OW 3201   1.113   4.333   1.493
  793SOL    HW2 3202   1.032   4.311   1.538
  793SOL    HW3 3203   1.116   4.429   1.494
  793SOL    MW4 3204   1.103   4.343   1.499
  794SOL     OW 3205   1.511   4.637   1.584
  794SOL    HW2 3206   1.523   4.654   1.677
  794SOL    HW3 3207   1.442   4.697   1.556
  794SOL    MW4 3208   1.504   4.647   1.592
  795SOL     OW 3209   1.290   0.115   1.522
  795SOL    HW2 3210   1.295   0.205   1.554
  795SOL    HW3 3211   1.295   0.123   1.427
  795SOL    MW4 3212   1.291   0.128   1.514
  796SOL     OW 3213   1.319   0.390   1.562
  796SOL    HW2 3214   1.408   0.417   1.537
  796SOL    HW3 3215   1.262   0.445   1.509
  796SOL    MW4 3216   1.323   0.400   1.551
  797SOL     OW 3217   1.576   0.522   1.480
  797SOL    HW2 3218   1.652   0.479   1.518
  797SOL    HW3 3219   1.584   0.506   1.386
  797SOL    MW4 3220   1.587   0.514   1.473
  798SOL     OW 3221   1.578   0.778   1.576
  798SOL    HW2 3222   1.578   0.767   1.671
  798SOL    HW3 3223   1.585   0.689   1.541
  798SOL    MW4 3224   1.579   0.765   1.584
  799SOL     OW 3225   1.354   0.901   1.492
  799SOL    HW2 3226   1.430   0.854   1.528
  799SOL    HW3 3227   1.360   0.888   1.397
  799SOL    MW4 3228   1.365   0.893   1.484
  800SOL     OW 3229   1.347   1.181   1.551
  800SOL    HW2 3230   1.374   1.178   1.643
  800SOL    HW3 3231   1.333   1.090   1.527
  800SOL    MW4 3232   1.349   1.169   1.560
  801SOL     OW 3233   1.588   1.283   1.456
  801SOL    HW2 3234   1.503   1.243   1.475
  801SOL    HW3 3235   1.587   1.297   1.361
  801SOL    MW4 3236   1.577   1.279   1.446
  802SOL     OW 3237   1.576   1.560   1.529
  802SOL    HW2 3238   1.589   1.568   1.623
  802SOL    HW3 3239   1.593   1.468   1.510
  802SOL    MW4 3240   1.580   1.549   1.539
  803SOL     OW 3241   1.348   1.676   1.473
  803SOL    HW2 3242   1.421   1.619   1.498
  803SOL    HW3 3243   1.352   1.680   1.377
  803SOL    MW4 3244   1.358   1.669   1.464
  804SOL     OW 3245   1.367   1.940   1.589
  804SOL    HW2 3246   1.371   1.920   1.683
  804SOL    HW3 3247   1.367   1.854   1.546
  804SOL    MW4 3248   1.367   1.926   1.596
  805SOL     OW 3249   1.573   2.049   1.474
  805SOL    HW2 3250   1.499   2.009   1.520
  805SOL    HW3 3251   1.551   2.041   1.382
  805SOL    MW4 3252   1.560   2.042   1.468
  806SOL     OW 3253   1.571   2.323   1.563
  806SOL    HW2 3254   1.653   2.352   1.522
  806SOL    HW3 3255   1.553   2.238   1.523
  806SOL    MW4 3256   1.580   2.316   1.552
  807SOL     OW 3257   1.342   2.480   1.491
  807SOL    HW2 3258   1.320   2.562   1.534
  807SOL    HW3 3259   1.426   2.454   1.530
  807SOL    MW4 3260   1.350   2.487   1.502
  808SOL     OW 3261   1.343   2.713   1.634
  808SOL    HW2 3262   1.420   2.746   1.588
  808SOL    HW3 3263   1.273   2.773   1.610
  808SOL    MW4 3264   1.344   2.725   1.625
  809SOL     OW 3265   1.526   2.867   1.496
  809SOL    HW2 3266   1.608   2.831   1.531
  809SOL    HW3 3267   1.530   2.849   1.402
  809SOL    MW4 3268   1.538   2.860   1.488
  810SOL     OW 3269   1.547   3.117   1.622
  810SOL    HW2 3270   1.626   3.149   1.578
  810SOL    HW3 3271   1.538   3.027   1.590
  810SOL    MW4 3272   1.557   3.109   1.612
  811SOL     OW 3273   1.335   3.229   1.495
  811SOL    HW2 3274   1.330   3.315   1.537
  811SOL    HW3 3275   1.418   3.193   1.524
  811SOL    MW4 3276   1.345   3.235   1.504
  812SOL     OW 3277   1.369   3.486   1.588
  812SOL    HW2 3278   1.371   3.489   1.684
  812SOL    HW3 3279   1.453   3.523   1.561
  812SOL    MW4 3280   1.380   3.491   1.598
  813SOL     OW 3281   1.586   3.645   1.496
  813SOL    HW2 3282   1.593   3.738   1.518
  813SOL    HW3 3283   1.593   3.642   1.401
  813SOL    MW4 3284   1.588   3.657   1.487
  814SOL     OW 3285   1.568   3.908   1.572
  814SOL    HW2 3286   1.576   3.888   1.665
  814SOL    HW3 3287   1.476   3.932   1.560
  814SOL    MW4 3288   1.557   3.909   1.583
  815SOL     OW 3289   1.319   3.979   1.465
  815SOL    HW2 3290   1.335   4.068   1.496
  815SOL    HW3 3291   1.337   3.983   1.371
  815SOL    MW4 3292   1.324   3.991   1.456
  816SOL     OW 3293   1.368   4.217   1.577
  816SOL    HW2 3294   1.428   4.277   1.532
  816SOL    HW3 3295   1.281   4.250   1.557
  816SOL    MW4 3296   1.365   4.229   1.568
  817SOL     OW 3297   1.539   4.377   1.451
  817SOL    HW2 3298   1.624   4.343   1.479
  817SOL    HW3 3299   1.533   4.463   1.492
  817SOL    MW4 3300   1.550   4.384   1.460
  818SOL     OW 3301   1.998   4.666   1.590
  818SOL    HW2 3302   1.998   4.665   1.686
  818SOL    HW3 3303   1.921   4.717   1.566
  818SOL    MW4 3304   1.988   4.673   1.599
  819SOL     OW 3305   1.761   0.123   1.524
  819SOL    HW2 3306   1.683   0.072   1.544
  819SOL    HW3 3307   1.771   0.116   1.429
  819SOL    MW4 3308   1.752   0.116   1.514
  820SOL     OW 3309   1.773   0.387   1.608
  820SOL    HW2 3310   1.853   0.430   1.576
  820SOL    HW3 3311   1.775   0.300   1.566
  820SOL    MW4 3312   1.784   0.381   1.598
  821SOL     OW 3313   2.002   0.537   1.503
  821SOL    HW2 3314   2.077   0.487   1.533
  821SOL    HW3 3315   2.019   0.626   1.534
  821SOL    MW4 3316   2.014   0.542   1.511
  822SOL     OW 3317   2.031   0.795   1.582
  822SOL    HW2 3318   2.105   0.825   1.528
  822SOL    HW3 3319   1.955   0.838   1.544
  822SOL    MW4 3320   2.031   0.804   1.570
  823SOL     OW 3321   1.801   0.917   1.465
  823SOL    HW2 3322   1.783   1.006   1.497
  823SOL    HW3 3323   1.725   0.866   1.493
  823SOL    MW4 3324   1.789   0.922   1.473
  824SOL     OW 3325   1.789   1.160   1.615
  824SOL    HW2 3326   1.875   1.194   1.591
  824SOL    HW3 3327   1.729   1.201   1.553
  824SOL    MW4 3328   1.792   1.170   1.604
  825SOL     OW 3329   2.011   1.274   1.515
  825SOL    HW2 3330   2.013   1.367   1.536
  825SOL    HW3 3331   2.018   1.270   1.420
  825SOL    MW4 3332   2.012   1.286   1.506
  826SOL     OW 3333   1.988   1.549   1.585
  826SOL    HW2 3334   2.070   1.593   1.564
  826SOL    HW3 3335   1.920   1.610   1.556
  826SOL    MW4 3336   1.990   1.563   1.578
  827SOL     OW 3337   1.796   1.715   1.483
  827SOL    HW2 3338   1.718   1.659   1.475
  827SOL    HW3 3339   1.815   1.743   1.394
  827SOL    MW4 3340   1.788   1.711   1.470
  828SOL     OW 3341   1.782   1.965   1.621
  828SOL    HW2 3342   1.795   1.874   1.595
  828SOL    HW3 3343   1.702   1.992   1.576
  828SOL    MW4 3344   1.774   1.957   1.612
  829SOL     OW 3345   1.972   2.083   1.443
  829SOL    HW2 3346   2.048   2.041   1.483
  829SOL    HW3 3347   1.897   2.035   1.478
  829SOL    MW4 3348   1.972   2.071   1.453
  830SOL     OW 3349   2.044   2.334   1.538
  830SOL    HW2 3350   2.041   2.337   1.634
  830SOL    HW3 3351   2.003   2.250   1.515
  830SOL    MW4 3352   2.038   2.323   1.548
  831SOL     OW 3353   1.809   2.460   1.477
  831SOL    HW2 3354   1.892   2.418   1.500
  831SOL    HW3 3355   1.812   2.468   1.382
  831SOL    MW4 3356   1.820   2.455   1.467
  832SOL     OW 3357   1.767   2.732   1.588
  832SOL    HW2 3358   1.838   2.793   1.568
  832SOL    HW3 3359   1.793   2.650   1.546
  832SOL    MW4 3360   1.779   2.729   1.579
  833SOL     OW 3361   2.014   2.854   1.502
  833SOL    HW2 3362   2.009   2.947   1.523
  833SOL    HW3 3363   2.018   2.851   1.406
  833SOL    MW4 3364   2.014   2.865   1.492
  834SOL     OW 3365   2.025   3.107   1.575
  834SOL    HW2 3366   2.049   3.096   1.667
  834SOL    HW3 3367   2.100   3.151   1.535
  834SOL    MW4 3368   2.038   3.111   1.581
  835SOL     OW 3369   1.775   3.225   1.519
  835SOL    HW2 3370   1.784   3.320   1.532
  835SOL    HW3 3371   1.856   3.188   1.553
  835SOL    MW4 3372   1.787   3.233   1.525
  836SOL     OW 3373   1.805   3.503   1.571
  836SOL    HW2 3374   1.805   3.487   1.666
  836SOL    HW3 3375   1.727   3.556   1.556
  836SOL    MW4 3376   1.794   3.507   1.582
  837SOL     OW 3377   2.035   3.590   1.446
  837SOL    HW2 3378   2.117   3.552   1.477
  837SOL    HW3 3379   1.967   3.543   1.494
  837SOL    MW4 3380   2.037   3.579   1.456
  838SOL     OW 3381   2.026   3.844   1.568
  838SOL    HW2 3382   2.090   3.897   1.520
  838SOL    HW3 3383   2.032   3.757   1.530
  838SOL    MW4 3384   2.035   3.840   1.557
  839SOL     OW 3385   1.809   4.005   1.483
  839SOL    HW2 3386   1.882   3.946   1.501
  839SOL    HW3 3387   1.733   3.962   1.524
  839SOL    MW4 3388   1.808   3.991   1.491
  840SOL     OW 3389   1.773   4.293   1.540
  840SOL    HW2 3390   1.853   4.337   1.511
  840SOL    HW3 3391   1.792   4.200   1.531
  840SOL    MW4 3392   1.786   4.286   1.535
  841SOL     OW 3393   2.005   4.411   1.423
  841SOL    HW2 3394   2.074   4.358   1.462
  841SOL    HW3 3395   2.008   4.494   1.472
  841SOL    MW4 3396   2.014   4.415   1.435
  842SOL     OW 3397   2.449   4.649   1.579
  842SOL    HW2 3398   2.461   4.641   1.674
  842SOL    HW3 3399   2.372   4.706   1.570
  842SOL    MW4 3400   2.440   4.655   1.591
  843SOL     OW 3401   2.227   0.142   1.545
  843SOL    HW2 3402   2.151   0.087   1.562
  843SOL    HW3 3403   2.233   0.146   1.449
  843SOL    MW4 3404   2.218   0.135   1.534
  844SOL     OW 3405   2.243   0.409   1.596
  844SOL    HW2 3406   2.257   0.416   1.690
  844SOL    HW3 3407   2.224   0.317   1.581
  844SOL    MW4 3408   2.243   0.398   1.606
  845SOL     OW 3409   2.482   0.480   1.444
  845SOL    HW2 3410   2.550   0.434   1.493
  845SOL    HW3 3411   2.399   0.445   1.478
  845SOL    MW4 3412   2.480   0.470   1.455
  846SOL     OW 3413   2.428   0.738   1.574
  846SOL    HW2 3414   2.375   0.784   1.509
  846SOL    HW3 3415   2.437   0.649   1.540
  846SOL    MW4 3416   2.422   0.732   1.561
  847SOL     OW 3417   2.238   0.892   1.425
  847SOL    HW2 3418   2.257   0.968   1.480
  847SOL    HW3 3419   2.250   0.924   1.335
  847SOL    MW4 3420   2.242   0.907   1.420
  848SOL     OW 3421   2.258   1.146   1.581
  848SOL    HW2 3422   2.261   1.132   1.675
  848SOL    HW3 3423   2.178   1.197   1.567
  848SOL    MW4 3424   2.248   1.151   1.591
  849SOL     OW 3425   2.448   1.287   1.450
  849SOL    HW2 3426   2.374   1.237   1.484
  849SOL    HW3 3427   2.425   1.304   1.358
  849SOL    MW4 3428   2.435   1.283   1.442
  850SOL     OW 3429   2.469   1.522   1.601
  850SOL    HW2 3430   2.550   1.562   1.571
  850SOL    HW3 3431   2.464   1.438   1.555
  850SOL    MW4 3432   2.479   1.516   1.591
  851SOL     OW 3433   2.248   1.673   1.515
  851SOL    HW2 3434   2.321   1.623   1.551
  851SOL    HW3 3435   2.254   1.659   1.420
  851SOL    MW4 3436   2.258   1.664   1.507
  852SOL     OW 3437   2.179   1.935   1.566
  852SOL    HW2 3438   2.190   1.952   1.659
  852SOL    HW3 3439   2.208   1.844   1.555
  852SOL    MW4 3440   2.184   1.925   1.577
  853SOL     OW 3441   2.419   2.036   1.504
  853SOL    HW2 3442   2.338   1.994   1.532
  853SOL    HW3 3443   2.422   2.023   1.409
  853SOL    MW4 3444   2.409   2.029   1.495
  854SOL     OW 3445   2.437   2.316   1.567
  854SOL    HW2 3446   2.448   2.299   1.661
  854SOL    HW3 3447   2.450   2.231   1.526
  854SOL    MW4 3448   2.440   2.303   1.574
  855SOL     OW 3449   2.263   2.492   1.481
  855SOL    HW2 3450   2.334   2.431   1.503
  855SOL    HW3 3451   2.183   2.443   1.499
  855SOL    MW4 3452   2.262   2.477   1.486
  856SOL     OW 3453   2.235   2.740   1.606
  856SOL    HW2 3454   2.250   2.663   1.552
  856SOL    HW3 3455   2.151   2.774   1.577
  856SOL    MW4 3456   2.226   2.734   1.595
  857SOL     OW 3457   2.433   2.895   1.488
  857SOL    HW2 3458   2.426   2.980   1.531
  857SOL    HW3 3459   2.357   2.846   1.518
  857SOL    MW4 3460   2.422   2.900   1.497
  858SOL     OW 3461   2.433   3.132   1.644
  858SOL    HW2 3462   2.514   3.169   1.608
  858SOL    HW3 3463   2.363   3.179   1.599
  858SOL    MW4 3464   2.435   3.143   1.634
  859SOL     OW 3465   2.238   3.231   1.468
  859SOL    HW2 3466   2.230   3.324   1.489
  859SOL    HW3 3467   2.246   3.229   1.372
  859SOL    MW4 3468   2.238   3.243   1.458
  860SOL     OW 3469   2.254   3.497   1.584
  860SOL    HW2 3470   2.237   3.520   1.675
  860SOL    HW3 3471   2.340   3.535   1.566
  860SOL    MW4 3472   2.263   3.505   1.593
  861SOL     OW 3473   2.482   3.644   1.481
  861SOL    HW2 3474   2.563   3.617   1.523
  861SOL    HW3 3475   2.473   3.737   1.503
  861SOL    MW4 3476   2.491   3.653   1.489
  862SOL     OW 3477   2.480   3.920   1.541
  862SOL    HW2 3478   2.469   3.912   1.636
  862SOL    HW3 3479   2.563   3.967   1.531
  862SOL    MW4 3480   2.489   3.925   1.553
  863SOL     OW 3481   2.230   4.007   1.444
  863SOL    HW2 3482   2.314   3.976   1.477
  863SOL    HW3 3483   2.239   4.008   1.349
  863SOL    MW4 3484   2.242   4.003   1.436
  864SOL     OW 3485   2.208   4.247   1.560
  864SOL    HW2 3486   2.283   4.295   1.525
  864SOL    HW3 3487   2.213   4.161   1.519
  864SOL    MW4 3488   2.219   4.242   1.550
  865SOL     OW 3489   2.450   4.388   1.488
  865SOL    HW2 3490   2.439   4.477   1.523
  865SOL    HW3 3491   2.461   4.401   1.393
  865SOL    MW4 3492   2.450   4.402   1.480
  866SOL     OW 3493   2.932   4.612   1.597
  866SOL    HW2 3494   2.937   4.622   1.692
  866SOL    HW3 3495   2.848   4.651   1.574
  866SOL    MW4 3496   2.921   4.618   1.607
  867SOL     OW 3497   2.692   0.090   1.497
  867SOL    HW2 3498   2.696   0.182   1.524
  867SOL    HW3 3499   2.601   0.064   1.512
  867SOL    MW4 3500   2.680   0.099   1.502
  868SOL     OW 3501   2.696   0.358   1.579
  868SOL    HW2 3502   2.698   0.391   1.669
  868SOL    HW3 3503   2.773   0.396   1.538
  868SOL    MW4 3504   2.707   0.367   1.586
  869SOL     OW 3505   2.925   0.477   1.466
  869SOL    HW2 3506   2.924   0.564   1.507
  869SOL    HW3 3507   2.943   0.495   1.373
  869SOL    MW4 3508   2.927   0.491   1.459
  870SOL     OW 3509   2.886   0.736   1.574
  870SOL    HW2 3510   2.886   0.740   1.670
  870SOL    HW3 3511   2.815   0.794   1.548
  870SOL    MW4 3512   2.877   0.744   1.583
  871SOL     OW 3513   2.659   0.864   1.504
  871SOL    HW2 3514   2.582   0.824   1.545
  871SOL    HW3 3515   2.636   0.870   1.412
  871SOL    MW4 3516   2.646   0.859   1.497
  872SOL     OW 3517   2.667   1.131   1.563
  872SOL    HW2 3518   2.671   1.043   1.527
  872SOL    HW3 3519   2.584   1.167   1.531
  872SOL    MW4 3520   2.656   1.124   1.554
  873SOL     OW 3521   2.885   1.280   1.483
  873SOL    HW2 3522   2.957   1.219   1.493
  873SOL    HW3 3523   2.809   1.234   1.520
  873SOL    MW4 3524   2.884   1.266   1.489
  874SOL     OW 3525   2.929   1.523   1.604
  874SOL    HW2 3526   2.841   1.557   1.585
  874SOL    HW3 3527   2.926   1.432   1.576
  874SOL    MW4 3528   2.917   1.515   1.598
  875SOL     OW 3529   2.683   1.638   1.495
  875SOL    HW2 3530   2.679   1.724   1.536
  875SOL    HW3 3531   2.676   1.656   1.401
  875SOL    MW4 3532   2.681   1.652   1.488
  876SOL     OW 3533   2.661   1.902   1.606
  876SOL    HW2 3534   2.644   1.887   1.699
  876SOL    HW3 3535   2.577   1.935   1.573
  876SOL    MW4 3536   2.647   1.905   1.614
  877SOL     OW 3537   2.890   2.017   1.485
  877SOL    HW2 3538   2.886   2.109   1.512
  877SOL    HW3 3539   2.809   1.979   1.517
  877SOL    MW4 3540   2.879   2.024   1.493
  878SOL     OW 3541   2.894   2.282   1.547
  878SOL    HW2 3542   2.919   2.278   1.640
  878SOL    HW3 3543   2.817   2.339   1.545
  878SOL    MW4 3544   2.887   2.289   1.559
  879SOL     OW 3545   2.673   2.444   1.508
  879SOL    HW2 3546   2.663   2.537   1.528
  879SOL    HW3 3547   2.590   2.405   1.535
  879SOL    MW4 3548   2.661   2.451   1.514
  880SOL     OW 3549   2.637   2.720   1.558
  880SOL    HW2 3550   2.720   2.747   1.518
  880SOL    HW3 3551   2.574   2.787   1.532
  880SOL    MW4 3552   2.640   2.732   1.550
  881SOL     OW 3553   2.886   2.802   1.485
  881SOL    HW2 3554   2.960   2.766   1.535
  881SOL    HW3 3555   2.872   2.889   1.521
  881SOL    MW4 3556   2.894   2.808   1.496
  882SOL     OW 3557   2.874   3.053   1.592
  882SOL    HW2 3558   2.873   3.047   1.687
  882SOL    HW3 3559   2.962   3.085   1.571
  882SOL    MW4 3560   2.885   3.057   1.602
  883SOL     OW 3561   2.660   3.232   1.521
  883SOL    HW2 3562   2.734   3.179   1.550
  883SOL    HW3 3563   2.674   3.246   1.428
  883SOL    MW4 3564   2.672   3.227   1.513
  884SOL     OW 3565   2.716   3.499   1.576
  884SOL    HW2 3566   2.710   3.494   1.671
  884SOL    HW3 3567   2.706   3.408   1.546
  884SOL    MW4 3568   2.714   3.486   1.584
  885SOL     OW 3569   2.929   3.627   1.457
  885SOL    HW2 3570   2.851   3.588   1.497
  885SOL    HW3 3571   2.911   3.626   1.363
  885SOL    MW4 3572   2.917   3.622   1.450
  886SOL     OW 3573   2.897   3.862   1.611
  886SOL    HW2 3574   2.845   3.915   1.552
  886SOL    HW3 3575   2.907   3.778   1.566
  886SOL    MW4 3576   2.892   3.858   1.597
  887SOL     OW 3577   2.733   4.030   1.461
  887SOL    HW2 3578   2.721   4.115   1.503
  887SOL    HW3 3579   2.696   4.042   1.373
  887SOL    MW4 3580   2.726   4.043   1.455
  888SOL     OW 3581   2.670   4.267   1.599
  888SOL    HW2 3582   2.743   4.311   1.554
  888SOL    HW3 3583   2.592   4.307   1.563
  888SOL    MW4 3584   2.670   4.278   1.588
  889SOL     OW 3585   2.894   4.355   1.502
  889SOL    HW2 3586   2.908   4.441   1.541
  889SOL    HW3 3587   2.882   4.373   1.408
  889SOL    MW4 3588   2.894   4.369   1.494
  890SOL     OW 3589   3.372   4.649   1.563
  890SOL    HW2 3590   3.457   4.680   1.533
  890SOL    HW3 3591   3.364   4.561   1.529
  890SOL    MW4 3592   3.382   4.642   1.555
  891SOL     OW 3593   3.138   0.089   1.472
  891SOL    HW2 3594   3.220   0.051   1.505
  891SOL    HW3 3595   3.070   0.038   1.514
  891SOL    MW4 3596   3.140   0.078   1.482
  892SOL     OW 3597   3.139   0.334   1.576
  892SOL    HW2 3598   3.137   0.245   1.542
  892SOL    HW3 3599   3.057   0.373   1.546
  892SOL    MW4 3600   3.128   0.328   1.568
  893SOL     OW 3601   3.393   0.439   1.526
  893SOL    HW2 3602   3.302   0.411   1.535
  893SOL    HW3 3603   3.409   0.440   1.432
  893SOL    MW4 3604   3.383   0.435   1.515
  894SOL     OW 3605   3.330   0.747   1.552
  894SOL    HW2 3606   3.338   0.748   1.647
  894SOL    HW3 3607   3.345   0.655   1.528
  894SOL    MW4 3608   3.333   0.735   1.561
  895SOL     OW 3609   3.103   0.866   1.456
  895SOL    HW2 3610   3.182   0.832   1.498
  895SOL    HW3 3611   3.031   0.829   1.507
  895SOL    MW4 3612   3.104   0.857   1.468
  896SOL     OW 3613   3.110   1.126   1.557
  896SOL    HW2 3614   3.094   1.125   1.651
  896SOL    HW3 3615   3.122   1.034   1.533
  896SOL    MW4 3616   3.110   1.114   1.566
  897SOL     OW 3617   3.358   1.261   1.475
  897SOL    HW2 3618   3.439   1.227   1.515
  897SOL    HW3 3619   3.288   1.210   1.516
  897SOL    MW4 3620   3.359   1.250   1.486
  898SOL     OW 3621   3.357   1.513   1.593
  898SOL    HW2 3622   3.369   1.499   1.686
  898SOL    HW3 3623   3.361   1.425   1.554
  898SOL    MW4 3624   3.359   1.499   1.600
  899SOL     OW 3625   3.142   1.649   1.488
  899SOL    HW2 3626   3.213   1.602   1.533
  899SOL    HW3 3627   3.062   1.614   1.525
  899SOL    MW4 3628   3.141   1.639   1.499
  900SOL     OW 3629   3.118   1.892   1.596
  900SOL    HW2 3630   3.128   1.810   1.547
  900SOL    HW3 3631   3.032   1.925   1.570
  900SOL    MW4 3632   3.108   1.886   1.586
  901SOL     OW 3633   3.327   2.049   1.490
  901SOL    HW2 3634   3.254   1.991   1.514
  901SOL    HW3 3635   3.312   2.069   1.398
  901SOL    MW4 3636   3.315   2.044   1.481
  902SOL     OW 3637   3.336   2.321   1.583
  902SOL    HW2 3638   3.429   2.342   1.574
  902SOL    HW3 3639   3.330   2.228   1.562
  902SOL    MW4 3640   3.348   2.311   1.579
  903SOL     OW 3641   3.122   2.428   1.461
  903SOL    HW2 3642   3.200   2.389   1.499
  903SOL    HW3 3643   3.054   2.362   1.472
  903SOL    MW4 3644   3.123   2.415   1.467
  904SOL     OW 3645   3.114   2.687   1.575
  904SOL    HW2 3646   3.188   2.728   1.529
  904SOL    HW3 3647   3.108   2.600   1.537
  904SOL    MW4 3648   3.123   2.681   1.564
  905SOL     OW 3649   3.350   2.828   1.500
  905SOL    HW2 3650   3.346   2.918   1.533
  905SOL    HW3 3651   3.354   2.838   1.405
  905SOL    MW4 3652   3.350   2.841   1.492
  906SOL     OW 3653   3.363   3.084   1.587
  906SOL    HW2 3654   3.370   3.088   1.682
  906SOL    HW3 3655   3.437   3.136   1.555
  906SOL    MW4 3656   3.374   3.092   1.595
  907SOL     OW 3657   3.105   3.188   1.501
  907SOL    HW2 3658   3.189   3.170   1.542
  907SOL    HW3 3659   3.122   3.179   1.407
  907SOL    MW4 3660   3.118   3.184   1.494
  908SOL     OW 3661   3.136   3.469   1.546
  908SOL    HW2 3662   3.115   3.380   1.516
  908SOL    HW3 3663   3.068   3.524   1.508
  908SOL    MW4 3664   3.124   3.464   1.537
  909SOL     OW 3665   3.364   3.612   1.470
  909SOL    HW2 3666   3.439   3.567   1.508
  909SOL    HW3 3667   3.288   3.563   1.503
  909SOL    MW4 3668   3.364   3.599   1.479
  910SOL     OW 3669   3.363   3.869   1.582
  910SOL    HW2 3670   3.281   3.907   1.548
  910SOL    HW3 3671   3.368   3.783   1.541
  910SOL    MW4 3672   3.353   3.863   1.572
  911SOL     OW 3673   3.107   3.974   1.474
  911SOL    HW2 3674   3.119   4.059   1.516
  911SOL    HW3 3675   3.037   3.932   1.524
  911SOL    MW4 3676   3.100   3.980   1.486
  912SOL     OW 3677   3.122   4.231   1.588
  912SOL    HW2 3678   3.135   4.247   1.681
  912SOL    HW3 3679   3.033   4.261   1.571
  912SOL    MW4 3680   3.112   4.237   1.598
  913SOL     OW 3681   3.336   4.368   1.481
  913SOL    HW2 3682   3.256   4.321   1.504
  913SOL    HW3 3683   3.332   4.377   1.386
  913SOL    MW4 3684   3.325   4.363   1.471
  914SOL     OW 3685   3.819   4.622   1.558
  914SOL    HW2 3686   3.825   4.624   1.653
  914SOL    HW3 3687   3.891   4.678   1.528
  914SOL    MW4 3688   3.829   4.630   1.566
  915SOL     OW 3689   3.616   0.106   1.460
  915SOL    HW2 3690   3.683   0.041   1.483
  915SOL    HW3 3691   3.608   0.100   1.365
  915SOL    MW4 3692   3.624   0.097   1.450
  916SOL     OW 3693   3.622   0.328   1.635
  916SOL    HW2 3694   3.615   0.257   1.571
  916SOL    HW3 3695   3.548   0.385   1.614
  916SOL    MW4 3696   3.611   0.326   1.624
  917SOL     OW 3697   3.819   0.483   1.497
  917SOL    HW2 3698   3.770   0.407   1.527
  917SOL    HW3 3699   3.808   0.482   1.402
  917SOL    MW4 3700   3.811   0.473   1.488
  918SOL     OW 3701   3.786   0.750   1.591
  918SOL    HW2 3702   3.703   0.776   1.550
  918SOL    HW3 3703   3.800   0.659   1.563
  918SOL    MW4 3704   3.777   0.741   1.582
  919SOL     OW 3705   3.571   0.861   1.470
  919SOL    HW2 3706   3.484   0.832   1.497
  919SOL    HW3 3707   3.567   0.860   1.374
  919SOL    MW4 3708   3.559   0.857   1.461
  920SOL     OW 3709   3.592   1.133   1.597
  920SOL    HW2 3710   3.670   1.176   1.561
  920SOL    HW3 3711   3.590   1.047   1.554
  920SOL    MW4 3712   3.602   1.127   1.586
  921SOL     OW 3713   3.804   1.263   1.479
  921SOL    HW2 3714   3.888   1.230   1.510
  921SOL    HW3 3715   3.802   1.354   1.508
  921SOL    MW4 3716   3.815   1.270   1.487
  922SOL     OW 3717   3.811   1.524   1.589
  922SOL    HW2 3718   3.819   1.505   1.682
  922SOL    HW3 3719   3.735   1.582   1.583
  922SOL    MW4 3720   3.802   1.530   1.600
  923SOL     OW 3721   3.575   1.661   1.531
  923SOL    HW2 3722   3.489   1.621   1.542
  923SOL    HW3 3723   3.588   1.665   1.436
  923SOL    MW4 3724   3.566   1.656   1.520
  924SOL     OW 3725   3.539   1.936   1.623
  924SOL    HW2 3726   3.561   1.850   1.587
  924SOL    HW3 3727   3.461   1.963   1.574
  924SOL    MW4 3728   3.531   1.928   1.612
  925SOL     OW 3729   3.786   2.027   1.553
  925SOL    HW2 3730   3.800   2.118   1.580
  925SOL    HW3 3731   3.700   2.004   1.589
  925SOL    MW4 3732   3.777   2.036   1.561
  926SOL     OW 3733   3.838   2.293   1.603
  926SOL    HW2 3734   3.814   2.304   1.696
  926SOL    HW3 3735   3.907   2.358   1.588
  926SOL    MW4 3736   3.844   2.303   1.614
  927SOL     OW 3737   3.583   2.406   1.558
  927SOL    HW2 3738   3.581   2.501   1.567
  927SOL    HW3 3739   3.671   2.381   1.584
  927SOL    MW4 3740   3.594   2.415   1.563
  928SOL     OW 3741   3.568   2.700   1.593
  928SOL    HW2 3742   3.571   2.698   1.689
  928SOL    HW3 3743   3.491   2.753   1.572
  928SOL    MW4 3744   3.558   2.707   1.603
  929SOL     OW 3745   3.778   2.855   1.518
  929SOL    HW2 3746   3.856   2.804   1.540
  929SOL    HW3 3747   3.705   2.802   1.550
  929SOL    MW4 3748   3.778   2.841   1.525
  930SOL     OW 3749   3.827   3.107   1.595
  930SOL    HW2 3750   3.909   3.136   1.555
  930SOL    HW3 3751   3.816   3.017   1.565
  930SOL    MW4 3752   3.836   3.099   1.586
  931SOL     OW 3753   3.588   3.239   1.521
  931SOL    HW2 3754   3.668   3.196   1.551
  931SOL    HW3 3755   3.594   3.238   1.426
  931SOL    MW4 3756   3.599   3.233   1.513
  932SOL     OW 3757   3.602   3.501   1.603
  932SOL    HW2 3758   3.670   3.530   1.541
  932SOL    HW3 3759   3.592   3.408   1.584
  932SOL    MW4 3760   3.610   3.492   1.592
  933SOL     OW 3761   3.799   3.616   1.447
  933SOL    HW2 3762   3.870   3.570   1.493
  933SOL    HW3 3763   3.792   3.700   1.492
  933SOL    MW4 3764   3.808   3.621   1.459
  934SOL     OW 3765   3.815   3.872   1.573
  934SOL    HW2 3766   3.893   3.916   1.539
  934SOL    HW3 3767   3.742   3.919   1.533
  934SOL    MW4 3768   3.816   3.884   1.563
  935SOL     OW 3769   3.591   3.995   1.473
  935SOL    HW2 3770   3.596   4.085   1.505
  935SOL    HW3 3771   3.523   3.954   1.527
  935SOL    MW4 3772   3.583   4.001   1.484
  936SOL     OW 3773   3.573   4.262   1.591
  936SOL    HW2 3774   3.567   4.255   1.686
  936SOL    HW3 3775   3.486   4.292   1.563
  936SOL    MW4 3776   3.561   4.265   1.600
  937SOL     OW 3777   3.792   4.370   1.461
  937SOL    HW2 3778   3.732   4.324   1.520
  937SOL    HW3 3779   3.796   4.459   1.494
  937SOL    MW4 3780   3.785   4.375   1.473
  938SOL     OW 3781   4.254   4.645   1.549
  938SOL    HW2 3782   4.262   4.652   1.644
  938SOL    HW3 3783   4.250   4.551   1.532
  938SOL    MW4 3784   4.254   4.634   1.559
  939SOL     OW 3785   4.027   0.118   1.457
  939SOL    HW2 3786   4.023   0.201   1.504
  939SOL    HW3 3787   4.106   0.075   1.489
  939SOL    MW4 3788   4.037   0.123   1.467
  940SOL     OW 3789   4.044   0.343   1.600
  940SOL    HW2 3790   4.053   0.340   1.695
  940SOL    HW3 3791   3.967   0.398   1.585
  940SOL    MW4 3792   4.035   0.350   1.611
  941SOL     OW 3793   4.286   0.473   1.491
  941SOL    HW2 3794   4.224   0.407   1.520
  941SOL    HW3 3795   4.370   0.447   1.530
  941SOL    MW4 3796   4.289   0.461   1.500
  942SOL     OW 3797   4.225   0.741   1.615
  942SOL    HW2 3798   4.231   0.653   1.579
  942SOL    HW3 3799   4.305   0.785   1.586
  942SOL    MW4 3800   4.236   0.735   1.606
  943SOL     OW 3801   4.007   0.893   1.509
  943SOL    HW2 3802   4.080   0.849   1.553
  943SOL    HW3 3803   3.929   0.850   1.545
  943SOL    MW4 3804   4.006   0.881   1.519
  944SOL     OW 3805   4.052   1.157   1.559
  944SOL    HW2 3806   4.056   1.146   1.654
  944SOL    HW3 3807   4.030   1.070   1.525
  944SOL    MW4 3808   4.050   1.144   1.567
  945SOL     OW 3809   4.289   1.260   1.475
  945SOL    HW2 3810   4.207   1.220   1.504
  945SOL    HW3 3811   4.357   1.206   1.515
  945SOL    MW4 3812   4.287   1.247   1.484
  946SOL     OW 3813   4.284   1.513   1.587
  946SOL    HW2 3814   4.305   1.426   1.555
  946SOL    HW3 3815   4.347   1.571   1.544
  946SOL    MW4 3816   4.295   1.510   1.577
  947SOL     OW 3817   4.041   1.656   1.492
  947SOL    HW2 3818   4.110   1.596   1.520
  947SOL    HW3 3819   3.960   1.618   1.526
  947SOL    MW4 3820   4.039   1.643   1.500
  948SOL     OW 3821   4.045   1.918   1.604
  948SOL    HW2 3822   4.057   1.836   1.556
  948SOL    HW3 3823   3.958   1.948   1.576
  948SOL    MW4 3824   4.035   1.911   1.594
  949SOL     OW 3825   4.255   2.053   1.486
  949SOL    HW2 3826   4.182   2.001   1.519
  949SOL    HW3 3827   4.241   2.057   1.391
  949SOL    MW4 3828   4.244   2.047   1.477
  950SOL     OW 3829   4.255   2.357   1.635
  950SOL    HW2 3830   4.258   2.345   1.730
  950SOL    HW3 3831   4.247   2.268   1.600
  950SOL    MW4 3832   4.254   2.344   1.643
  951SOL     OW 3833   4.053   2.466   1.502
  951SOL    HW2 3834   4.045   2.557   1.529
  951SOL    HW3 3835   4.124   2.431   1.554
  951SOL    MW4 3836   4.061   2.473   1.512
  952SOL     OW 3837   4.015   2.734   1.550
  952SOL    HW2 3838   4.008   2.710   1.642
  952SOL    HW3 3839   4.105   2.764   1.540
  952SOL    MW4 3840   4.026   2.735   1.561
  953SOL     OW 3841   4.280   2.823   1.511
  953SOL    HW2 3842   4.270   2.905   1.559
  953SOL    HW3 3843   4.276   2.849   1.419
  953SOL    MW4 3844   4.278   2.837   1.505
  954SOL     OW 3845   4.244   3.086   1.586
  954SOL    HW2 3846   4.244   3.090   1.682
  954SOL    HW3 3847   4.332   3.116   1.561
  954SOL    MW4 3848   4.256   3.091   1.595
  955SOL     OW 3849   4.029   3.236   1.451
  955SOL    HW2 3850   4.035   3.325   1.488
  955SOL    HW3 3851   4.103   3.189   1.489
  955SOL    MW4 3852   4.040   3.242   1.461
  956SOL     OW 3853   4.010   3.479   1.563
  956SOL    HW2 3854   4.003   3.469   1.658
  956SOL    HW3 3855   4.089   3.531   1.550
  956SOL    MW4 3856   4.019   3.484   1.574
  957SOL     OW 3857   4.253   3.599   1.509
  957SOL    HW2 3858   4.253   3.692   1.532
  957SOL    HW3 3859   4.275   3.597   1.416
  957SOL    MW4 3860   4.256   3.611   1.500
  958SOL     OW 3861   4.250   3.876   1.601
  958SOL    HW2 3862   4.183   3.923   1.551
  958SOL    HW3 3863   4.333   3.904   1.563
  958SOL    MW4 3864   4.252   3.886   1.590
  959SOL     OW 3865   4.020   4.004   1.484
  959SOL    HW2 3866   4.021   4.095   1.515
  959SOL    HW3 3867   4.037   4.011   1.390
  959SOL    MW4 3868   4.022   4.017   1.476
  960SOL     OW 3869   4.032   4.263   1.568
  960SOL    HW2 3870   4.031   4.267   1.664
  960SOL    HW3 3871   3.952   4.308   1.542
  960SOL    MW4 3872   4.021   4.270   1.577
  961SOL     OW 3873   4.272   4.349   1.483
  961SOL    HW2 3874   4.185   4.323   1.511
  961SOL    HW3 3875   4.265   4.360   1.388
  961SOL    MW4 3876   4.260   4.347   1.474
  962SOL     OW 3877   0.229   4.660   1.863
  962SOL    HW2 3878   0.315   4.688   1.892
  962SOL    HW3 3879   0.241   4.640   1.770
  962SOL    MW4 3880   0.242   4.661   1.854
  963SOL     OW 3881   4.468   0.070   1.970
  963SOL    HW2 3882   4.477   0.165   1.957
  963SOL    HW3 3883   4.549   0.034   1.933
  963SOL    MW4 3884   4.480   0.078   1.964
  964SOL     OW 3885   0.010   0.339   1.886
  964SOL    HW2 3886  -0.054   0.404   1.916
  964SOL    HW3 3887   0.095   0.376   1.910
  964SOL    MW4 3888   0.013   0.353   1.893
  965SOL     OW 3889   0.238   0.472   1.950
  965SOL    HW2 3890   0.317   0.435   1.911
  965SOL    HW3 3891   0.231   0.559   1.912
  965SOL    MW4 3892   0.248   0.478   1.940
  966SOL     OW 3893   0.208   0.730   1.829
  966SOL    HW2 3894   0.278   0.791   1.852
  966SOL    HW3 3895   0.210   0.728   1.733
  966SOL    MW4 3896   0.218   0.738   1.819
  967SOL     OW 3897   0.012   0.894   1.938
  967SOL    HW2 3898  -0.065   0.838   1.927
  967SOL    HW3 3899   0.082   0.849   1.891
  967SOL    MW4 3900   0.011   0.880   1.931
  968SOL     OW 3901   4.485   1.178   1.868
  968SOL    HW2 3902   4.399   1.209   1.896
  968SOL    HW3 3903   4.490   1.089   1.903
  968SOL    MW4 3904   4.475   1.170   1.876
  969SOL     OW 3905   0.215   1.294   1.961
  969SOL    HW2 3906   0.220   1.378   1.915
  969SOL    HW3 3907   0.132   1.256   1.933
  969SOL    MW4 3908   0.205   1.300   1.951
  970SOL     OW 3909   0.217   1.545   1.838
  970SOL    HW2 3910   0.293   1.601   1.853
  970SOL    HW3 3911   0.145   1.590   1.883
  970SOL    MW4 3912   0.217   1.558   1.846
  971SOL     OW 3913   0.017   1.673   1.982
  971SOL    HW2 3914   0.008   1.657   2.076
  971SOL    HW3 3915  -0.059   1.629   1.943
  971SOL    MW4 3916   0.006   1.665   1.989
  972SOL     OW 3917   4.480   1.911   1.847
  972SOL    HW2 3918   4.422   1.962   1.904
  972SOL    HW3 3919   4.482   1.824   1.887
  972SOL    MW4 3920   4.472   1.906   1.860
  973SOL     OW 3921   0.217   2.009   1.961
  973SOL    HW2 3922   0.214   2.102   1.942
  973SOL    HW3 3923   0.132   1.976   1.932
  973SOL    MW4 3924   0.205   2.017   1.955
  974SOL     OW 3925   0.239   2.289   1.886
  974SOL    HW2 3926   0.317   2.344   1.877
  974SOL    HW3 3927   0.170   2.349   1.911
  974SOL    MW4 3928   0.241   2.304   1.888
  975SOL     OW 3929   0.019   2.435   1.951
  975SOL    HW2 3930   0.015   2.434   2.046
  975SOL    HW3 3931  -0.008   2.524   1.926
  975SOL    MW4 3932   0.015   2.447   1.960
  976SOL     OW 3933   4.440   2.690   1.846
  976SOL    HW2 3934   4.366   2.748   1.861
  976SOL    HW3 3935   4.465   2.706   1.755
  976SOL    MW4 3936   4.434   2.700   1.836
  977SOL     OW 3937   0.138   2.844   1.981
  977SOL    HW2 3938   0.148   2.914   1.917
  977SOL    HW3 3939   0.076   2.783   1.941
  977SOL    MW4 3940   0.131   2.845   1.967
  978SOL     OW 3941   0.195   3.085   1.853
  978SOL    HW2 3942   0.280   3.117   1.881
  978SOL    HW3 3943   0.198   3.085   1.757
  978SOL    MW4 3944   0.206   3.090   1.844
  979SOL     OW 3945   4.480   3.241   1.964
  979SOL    HW2 3946   4.400   3.190   1.952
  979SOL    HW3 3947   4.547   3.190   1.917
  979SOL    MW4 3948   4.478   3.227   1.956
  980SOL     OW 3949   4.459   3.492   1.859
  980SOL    HW2 3950   4.534   3.534   1.901
  980SOL    HW3 3951   4.461   3.401   1.891
  980SOL    MW4 3952   4.469   3.485   1.869
  981SOL     OW 3953   0.197   3.617   1.957
  981SOL    HW2 3954   0.185   3.600   2.051
  981SOL    HW3 3955   0.271   3.562   1.932
  981SOL    MW4 3956   0.205   3.608   1.966
  982SOL     OW 3957   0.212   3.891   1.862
  982SOL    HW2 3958   0.282   3.936   1.908
  982SOL    HW3 3959   0.221   3.799   1.889
  982SOL    MW4 3960   0.222   3.885   1.872
  983SOL     OW 3961   4.473   4.003   1.981
  983SOL    HW2 3962   4.488   4.095   1.958
  983SOL    HW3 3963   4.549   3.957   1.945
  983SOL    MW4 3964   4.485   4.009   1.973
  984SOL     OW 3965   0.006   4.255   1.868
  984SOL    HW2 3966  -0.075   4.298   1.897
  984SOL    HW3 3967   0.076   4.313   1.897
  984SOL    MW4 3968   0.005   4.268   1.875
  985SOL     OW 3969   0.230   4.397   1.961
  985SOL    HW2 3970   0.206   4.389   2.053
  985SOL    HW3 3971   0.247   4.490   1.948
  985SOL    MW4 3972   0.229   4.408   1.971
  986SOL     OW 3973   0.653   4.636   1.837
  986SOL    HW2 3974   0.669   4.546   1.865
  986SOL    HW3 3975   0.663   4.634   1.742
  986SOL    MW4 3976   0.656   4.624   1.828
  987SOL     OW 3977   0.458   0.105   1.978
  987SOL    HW2 3978   0.453   0.188   1.931
  987SOL    HW3 3979   0.539   0.064   1.947
  987SOL    MW4 3980   0.468   0.110   1.968
  988SOL     OW 3981   0.445   0.327   1.844
  988SOL    HW2 3982   0.517   0.372   1.890
  988SOL    HW3 3983   0.475   0.322   1.753
  988SOL    MW4 3984   0.459   0.332   1.838
  989SOL     OW 3985   0.667   0.474   1.945
  989SOL    HW2 3986   0.672   0.485   2.040
  989SOL    HW3 3987   0.750   0.433   1.921
  989SOL    MW4 3988   0.678   0.470   1.954
  990SOL     OW 3989   0.641   0.735   1.838
  990SOL    HW2 3990   0.718   0.782   1.871
  990SOL    HW3 3991   0.650   0.647   1.874
  990SOL    MW4 3992   0.653   0.730   1.847
  991SOL     OW 3993   0.433   0.874   1.934
  991SOL    HW2 3994   0.443   0.966   1.909
  991SOL    HW3 3995   0.514   0.832   1.905
  991SOL    MW4 3996   0.445   0.881   1.927
  992SOL     OW 3997   0.444   1.157   1.880
  992SOL    HW2 3998   0.368   1.201   1.916
  992SOL    HW3 3999   0.437   1.169   1.785
  992SOL    MW4 4000   0.433   1.164   1.872
  993SOL     OW 4001   0.688   1.251   1.950
  993SOL    HW2 4002   0.682   1.263   2.044
  993SOL    HW3 4003   0.600   1.223   1.923
  993SOL    MW4 4004   0.675   1.249   1.959
  994SOL     OW 4005   0.685   1.513   1.877
  994SOL    HW2 4006   0.696   1.423   1.908
  994SOL    HW3 4007   0.687   1.506   1.782
  994SOL    MW4 4008   0.687   1.500   1.869
  995SOL     OW 4009   0.463   1.676   1.935
  995SOL    HW2 4010   0.460   1.655   2.028
  995SOL    HW3 4011   0.537   1.626   1.901
  995SOL    MW4 4012   0.472   1.667   1.943
  996SOL     OW 4013   0.489   1.937   1.883
  996SOL    HW2 4014   0.496   1.844   1.904
  996SOL    HW3 4015   0.407   1.965   1.925
  996SOL    MW4 4016   0.479   1.928   1.891
  997SOL     OW 4017   0.702   2.082   1.952
  997SOL    HW2 4018   0.691   2.085   2.047
  997SOL    HW3 4019   0.621   2.043   1.919
  997SOL    MW4 4020   0.690   2.077   1.960
  998SOL     OW 4021   0.662   2.334   1.828
  998SOL    HW2 4022   0.684   2.250   1.868
  998SOL    HW3 4023   0.665   2.317   1.734
  998SOL    MW4 4024   0.666   2.321   1.821
  999SOL     OW 4025   0.435   2.469   1.913
  999SOL    HW2 4026   0.428   2.452   2.008
  999SOL    HW3 4027   0.520   2.432   1.889
  999SOL    MW4 4028   0.445   2.462   1.923
 1000SOL     OW 4029   0.420   2.761   1.886
 1000SOL    HW2 4030   0.426   2.670   1.914
 1000SOL    HW3 4031   0.338   2.793   1.924
 1000SOL    MW4 4032   0.410   2.754   1.895
 1001SOL     OW 4033   0.659   2.877   1.976
 1001SOL    HW2 4034   0.655   2.868   2.072
 1001SOL    HW3 4035   0.570   2.861   1.946
 1001SOL    MW4 4036   0.647   2.874   1.985
 1002SOL     OW 4037   0.669   3.133   1.864
 1002SOL    HW2 4038   0.681   3.049   1.908
 1002SOL    HW3 4039   0.687   3.115   1.772
 1002SOL    MW4 4040   0.673   3.120   1.857
 1003SOL     OW 4041   0.408   3.206   1.944
 1003SOL    HW2 4042   0.387   3.299   1.929
 1003SOL    HW3 4043   0.500   3.198   1.917
 1003SOL    MW4 4044   0.418   3.217   1.938
 1004SOL     OW 4045   0.412   3.483   1.883
 1004SOL    HW2 4046   0.493   3.510   1.927
 1004SOL    HW3 4047   0.440   3.460   1.794
 1004SOL    MW4 4048   0.426   3.483   1.877
 1005SOL     OW 4049   0.619   3.618   2.011
 1005SOL    HW2 4050   0.704   3.600   1.972
 1005SOL    HW3 4051   0.597   3.706   1.982
 1005SOL    MW4 4052   0.627   3.627   2.002
 1006SOL     OW 4053   0.638   3.875   1.890
 1006SOL    HW2 4054   0.728   3.905   1.899
 1006SOL    HW3 4055   0.615   3.892   1.799
 1006SOL    MW4 4056   0.647   3.881   1.879
 1007SOL     OW 4057   0.403   4.038   2.002
 1007SOL    HW2 4058   0.417   4.126   1.966
 1007SOL    HW3 4059   0.480   3.989   1.974
 1007SOL    MW4 4060   0.415   4.043   1.994
 1008SOL     OW 4061   0.458   4.269   1.847
 1008SOL    HW2 4062   0.388   4.319   1.889
 1008SOL    HW3 4063   0.447   4.284   1.754
 1008SOL    MW4 4064   0.447   4.277   1.841
 1009SOL     OW 4065   0.690   4.385   1.944
 1009SOL    HW2 4066   0.769   4.343   1.910
 1009SOL    HW3 4067   0.618   4.333   1.910
 1009SOL    MW4 4068   0.691   4.373   1.935
 1010SOL     OW 4069   1.100   4.646   1.817
 1010SOL    HW2 4070   1.184   4.684   1.843
 1010SOL    HW3 4071   1.100   4.558   1.855
 1010SOL    MW4 4072   1.111   4.639   1.825
 1011SOL     OW 4073   0.883   0.123   1.928
 1011SOL    HW2 4074   0.954   0.074   1.887
 1011SOL    HW3 4075   0.803   0.082   1.895
 1011SOL    MW4 4076   0.882   0.111   1.918
 1012SOL     OW 4077   0.911   0.388   1.837
 1012SOL    HW2 4078   0.987   0.425   1.882
 1012SOL    HW3 4079   0.908   0.297   1.867
 1012SOL    MW4 4080   0.921   0.381   1.847
 1013SOL     OW 4081   1.121   0.514   1.992
 1013SOL    HW2 4082   1.204   0.469   1.976
 1013SOL    HW3 4083   1.129   0.598   1.947
 1013SOL    MW4 4084   1.133   0.519   1.984
 1014SOL     OW 4085   1.102   0.746   1.832
 1014SOL    HW2 4086   1.169   0.809   1.857
 1014SOL    HW3 4087   1.020   0.783   1.866
 1014SOL    MW4 4088   1.100   0.759   1.840
 1015SOL     OW 4089   0.884   0.874   1.936
 1015SOL    HW2 4090   0.886   0.882   2.032
 1015SOL    HW3 4091   0.885   0.965   1.905
 1015SOL    MW4 4092   0.884   0.887   1.945
 1016SOL     OW 4093   0.905   1.133   1.856
 1016SOL    HW2 4094   0.829   1.180   1.891
 1016SOL    HW3 4095   0.890   1.131   1.762
 1016SOL    MW4 4096   0.893   1.139   1.848
 1017SOL     OW 4097   1.176   1.273   1.926
 1017SOL    HW2 4098   1.162   1.358   1.884
 1017SOL    HW3 4099   1.097   1.223   1.906
 1017SOL    MW4 4100   1.164   1.278   1.918
 1018SOL     OW 4101   1.155   1.546   1.861
 1018SOL    HW2 4102   1.088   1.602   1.901
 1018SOL    HW3 4103   1.135   1.548   1.767
 1018SOL    MW4 4104   1.143   1.553   1.854
 1019SOL     OW 4105   0.917   1.657   1.978
 1019SOL    HW2 4106   0.911   1.744   1.937
 1019SOL    HW3 4107   0.841   1.610   1.945
 1019SOL    MW4 4108   0.907   1.663   1.968
 1020SOL     OW 4109   0.893   1.903   1.864
 1020SOL    HW2 4110   0.818   1.955   1.894
 1020SOL    HW3 4111   0.892   1.914   1.768
 1020SOL    MW4 4112   0.883   1.912   1.855
 1021SOL     OW 4113   1.130   2.017   1.954
 1021SOL    HW2 4114   1.120   2.099   1.904
 1021SOL    HW3 4115   1.048   1.970   1.937
 1021SOL    MW4 4116   1.118   2.022   1.945
 1022SOL     OW 4117   1.127   2.294   1.877
 1022SOL    HW2 4118   1.198   2.353   1.905
 1022SOL    HW3 4119   1.138   2.289   1.782
 1022SOL    MW4 4120   1.138   2.301   1.868
 1023SOL     OW 4121   0.884   2.456   1.962
 1023SOL    HW2 4122   0.961   2.418   1.919
 1023SOL    HW3 4123   0.809   2.415   1.919
 1023SOL    MW4 4124   0.885   2.446   1.951
 1024SOL     OW 4125   0.867   2.725   1.907
 1024SOL    HW2 4126   0.855   2.639   1.947
 1024SOL    HW3 4127   0.782   2.768   1.919
 1024SOL    MW4 4128   0.854   2.719   1.914
 1025SOL     OW 4129   1.086   2.862   1.964
 1025SOL    HW2 4130   1.088   2.861   2.060
 1025SOL    HW3 4131   1.006   2.814   1.941
 1025SOL    MW4 4132   1.076   2.856   1.974
 1026SOL     OW 4133   1.070   3.126   1.842
 1026SOL    HW2 4134   1.022   3.191   1.892
 1026SOL    HW3 4135   1.069   3.047   1.896
 1026SOL    MW4 4136   1.064   3.124   1.856
 1027SOL     OW 4137   0.902   3.291   2.001
 1027SOL    HW2 4138   0.899   3.296   2.096
 1027SOL    HW3 4139   0.831   3.231   1.978
 1027SOL    MW4 4140   0.892   3.284   2.010
 1028SOL     OW 4141   0.858   3.520   1.883
 1028SOL    HW2 4142   0.874   3.435   1.923
 1028SOL    HW3 4143   0.867   3.505   1.789
 1028SOL    MW4 4144   0.861   3.507   1.876
 1029SOL     OW 4145   1.125   3.637   1.932
 1029SOL    HW2 4146   1.102   3.639   2.025
 1029SOL    HW3 4147   1.051   3.595   1.890
 1029SOL    MW4 4148   1.112   3.632   1.939
 1030SOL     OW 4149   1.161   3.894   1.855
 1030SOL    HW2 4150   1.152   3.808   1.896
 1030SOL    HW3 4151   1.144   3.879   1.762
 1030SOL    MW4 4152   1.157   3.881   1.848
 1031SOL     OW 4153   0.907   3.986   1.946
 1031SOL    HW2 4154   0.901   3.976   2.042
 1031SOL    HW3 4155   0.996   3.960   1.925
 1031SOL    MW4 4156   0.918   3.981   1.956
 1032SOL     OW 4157   0.917   4.254   1.860
 1032SOL    HW2 4158   0.994   4.294   1.900
 1032SOL    HW3 4159   0.911   4.168   1.900
 1032SOL    MW4 4160   0.926   4.248   1.870
 1033SOL     OW 4161   1.142   4.402   1.951
 1033SOL    HW2 4162   1.156   4.411   2.046
 1033SOL    HW3 4163   1.211   4.341   1.922
 1033SOL    MW4 4164   1.153   4.395   1.960
 1034SOL     OW 4165   1.559   0.037   1.839
 1034SOL    HW2 4166   1.650   0.062   1.852
 1034SOL    HW3 4167   1.555  -0.055   1.865
 1034SOL    MW4 4168   1.570   0.028   1.844
 1035SOL     OW 4169   1.316   0.146   1.913
 1035SOL    HW2 4170   1.308   0.140   2.008
 1035SOL    HW3 4171   1.405   0.115   1.894
 1035SOL    MW4 4172   1.327   0.141   1.923
 1036SOL     OW 4173   1.348   0.410   1.874
 1036SOL    HW2 4174   1.337   0.316   1.885
 1036SOL    HW3 4175   1.342   0.425   1.780
 1036SOL    MW4 4176   1.345   0.400   1.863
 1037SOL     OW 4177   1.616   0.487   1.953
 1037SOL    HW2 4178   1.693   0.432   1.936
 1037SOL    HW3 4179   1.545   0.445   1.904
 1037SOL    MW4 4180   1.617   0.474   1.945
 1038SOL     OW 4181   1.600   0.758   1.865
 1038SOL    HW2 4182   1.673   0.796   1.915
 1038SOL    HW3 4183   1.597   0.666   1.893
 1038SOL    MW4 4184   1.609   0.751   1.875
 1039SOL     OW 4185   1.329   0.871   1.918
 1039SOL    HW2 4186   1.339   0.892   2.011
 1039SOL    HW3 4187   1.409   0.823   1.896
 1039SOL    MW4 4188   1.341   0.867   1.928
 1040SOL     OW 4189   1.408   1.144   1.843
 1040SOL    HW2 4190   1.407   1.050   1.861
 1040SOL    HW3 4191   1.329   1.177   1.887
 1040SOL    MW4 4192   1.397   1.136   1.851
 1041SOL     OW 4193   1.604   1.338   1.956
 1041SOL    HW2 4194   1.610   1.417   1.902
 1041SOL    HW3 4195   1.524   1.294   1.926
 1041SOL    MW4 4196   1.594   1.343   1.945
 1042SOL     OW 4197   1.610   1.570   1.808
 1042SOL    HW2 4198   1.688   1.610   1.846
 1042SOL    HW3 4199   1.539   1.599   1.865
 1042SOL    MW4 4200   1.611   1.579   1.821
 1043SOL     OW 4201   1.408   1.656   1.972
 1043SOL    HW2 4202   1.410   1.652   2.067
 1043SOL    HW3 4203   1.340   1.594   1.946
 1043SOL    MW4 4204   1.400   1.647   1.981
 1044SOL     OW 4205   1.388   1.897   1.863
 1044SOL    HW2 4206   1.393   1.807   1.895
 1044SOL    HW3 4207   1.309   1.932   1.903
 1044SOL    MW4 4208   1.378   1.890   1.872
 1045SOL     OW 4209   1.574   2.068   1.973
 1045SOL    HW2 4210   1.561   2.148   1.922
 1045SOL    HW3 4211   1.508   2.007   1.939
 1045SOL    MW4 4212   1.563   2.070   1.962
 1046SOL     OW 4213   1.555   2.311   1.837
 1046SOL    HW2 4214   1.645   2.340   1.853
 1046SOL    HW3 4215   1.543   2.324   1.743
 1046SOL    MW4 4216   1.565   2.316   1.826
 1047SOL     OW 4217   1.332   2.449   1.955
 1047SOL    HW2 4218   1.344   2.543   1.942
 1047SOL    HW3 4219   1.411   2.409   1.917
 1047SOL    MW4 4220   1.344   2.456   1.948
 1048SOL     OW 4221   1.328   2.732   1.909
 1048SOL    HW2 4222   1.249   2.784   1.926
 1048SOL    HW3 4223   1.328   2.719   1.814
 1048SOL    MW4 4224   1.318   2.737   1.899
 1049SOL     OW 4225   1.560   2.865   1.975
 1049SOL    HW2 4226   1.628   2.806   1.943
 1049SOL    HW3 4227   1.478   2.819   1.957
 1049SOL    MW4 4228   1.558   2.851   1.969
 1050SOL     OW 4229   1.585   3.125   1.898
 1050SOL    HW2 4230   1.605   3.037   1.932
 1050SOL    HW3 4231   1.571   3.112   1.804
 1050SOL    MW4 4232   1.586   3.111   1.890
 1051SOL     OW 4233   1.345   3.237   1.971
 1051SOL    HW2 4234   1.431   3.202   1.949
 1051SOL    HW3 4235   1.284   3.188   1.917
 1051SOL    MW4 4236   1.348   3.226   1.961
 1052SOL     OW 4237   1.359   3.502   1.863
 1052SOL    HW2 4238   1.368   3.424   1.918
 1052SOL    HW3 4239   1.280   3.544   1.895
 1052SOL    MW4 4240   1.350   3.497   1.875
 1053SOL     OW 4241   1.596   3.615   1.965
 1053SOL    HW2 4242   1.584   3.615   2.060
 1053SOL    HW3 4243   1.519   3.571   1.931
 1053SOL    MW4 4244   1.584   3.609   1.973
 1054SOL     OW 4245   1.592   3.857   1.842
 1054SOL    HW2 4246   1.658   3.903   1.894
 1054SOL    HW3 4247   1.583   3.772   1.885
 1054SOL    MW4 4248   1.599   3.852   1.855
 1055SOL     OW 4249   1.390   4.012   1.967
 1055SOL    HW2 4250   1.463   3.961   1.933
 1055SOL    HW3 4251   1.312   3.970   1.930
 1055SOL    MW4 4252   1.389   4.000   1.958
 1056SOL     OW 4253   1.375   4.257   1.848
 1056SOL    HW2 4254   1.403   4.170   1.876
 1056SOL    HW3 4255   1.367   4.250   1.753
 1056SOL    MW4 4256   1.378   4.244   1.839
 1057SOL     OW 4257   1.561   4.448   1.932
 1057SOL    HW2 4258   1.567   4.454   2.027
 1057SOL    HW3 4259   1.484   4.394   1.915
 1057SOL    MW4 4260   1.552   4.441   1.942
 1058SOL     OW 4261   2.042   4.658   1.865
 1058SOL    HW2 4262   2.133   4.685   1.877
 1058SOL    HW3 4263   2.039   4.569   1.901
 1058SOL    MW4 4264   2.054   4.650   1.872
 1059SOL     OW 4265   1.812   0.109   1.967
 1059SOL    HW2 4266   1.817   0.103   2.062
 1059SOL    HW3 4267   1.889   0.061   1.935
 1059SOL    MW4 4268   1.823   0.102   1.975
 1060SOL     OW 4269   1.870   0.358   1.858
 1060SOL    HW2 4270   1.852   0.271   1.892
 1060SOL    HW3 4271   1.841   0.355   1.766
 1060SOL    MW4 4272   1.864   0.346   1.850
 1061SOL     OW 4273   2.096   0.516   1.991
 1061SOL    HW2 4274   2.053   0.595   1.959
 1061SOL    HW3 4275   2.041   0.444   1.959
 1061SOL    MW4 4276   2.083   0.517   1.983
 1062SOL     OW 4277   2.006   0.766   1.869
 1062SOL    HW2 4278   2.083   0.812   1.901
 1062SOL    HW3 4279   2.011   0.774   1.774
 1062SOL    MW4 4280   2.017   0.774   1.861
 1063SOL     OW 4281   1.806   0.908   1.973
 1063SOL    HW2 4282   1.817   0.998   1.941
 1063SOL    HW3 4283   1.881   0.860   1.938
 1063SOL    MW4 4284   1.817   0.914   1.964
 1064SOL     OW 4285   1.810   1.173   1.904
 1064SOL    HW2 4286   1.756   1.244   1.937
 1064SOL    HW3 4287   1.786   1.165   1.811
 1064SOL    MW4 4288   1.800   1.181   1.896
 1065SOL     OW 4289   2.056   1.285   1.978
 1065SOL    HW2 4290   2.135   1.251   1.936
 1065SOL    HW3 4291   1.986   1.225   1.950
 1065SOL    MW4 4292   2.057   1.273   1.969
 1066SOL     OW 4293   2.021   1.535   1.872
 1066SOL    HW2 4294   2.037   1.448   1.910
 1066SOL    HW3 4295   2.027   1.521   1.778
 1066SOL    MW4 4296   2.024   1.521   1.865
 1067SOL     OW 4297   1.797   1.677   1.987
 1067SOL    HW2 4298   1.805   1.772   1.979
 1067SOL    HW3 4299   1.881   1.643   1.955
 1067SOL    MW4 4300   1.809   1.685   1.982
 1068SOL     OW 4301   1.812   1.947   1.903
 1068SOL    HW2 4302   1.728   1.987   1.925
 1068SOL    HW3 4303   1.817   1.953   1.808
 1068SOL    MW4 4304   1.801   1.953   1.894
 1069SOL     OW 4305   2.032   2.084   1.981
 1069SOL    HW2 4306   2.107   2.040   1.941
 1069SOL    HW3 4307   1.959   2.023   1.969
 1069SOL    MW4 4308   2.032   2.070   1.974
 1070SOL     OW 4309   2.032   2.326   1.819
 1070SOL    HW2 4310   2.114   2.358   1.856
 1070SOL    HW3 4311   2.028   2.235   1.847
 1070SOL    MW4 4312   2.043   2.318   1.828
 1071SOL     OW 4313   1.799   2.430   1.915
 1071SOL    HW2 4314   1.797   2.438   2.010
 1071SOL    HW3 4315   1.884   2.392   1.895
 1071SOL    MW4 4316   1.810   2.426   1.925
 1072SOL     OW 4317   1.748   2.698   1.853
 1072SOL    HW2 4318   1.763   2.604   1.866
 1072SOL    HW3 4319   1.745   2.708   1.757
 1072SOL    MW4 4320   1.750   2.687   1.842
 1073SOL     OW 4321   1.982   2.811   1.938
 1073SOL    HW2 4322   1.965   2.808   2.033
 1073SOL    HW3 4323   1.910   2.762   1.900
 1073SOL    MW4 4324   1.970   2.804   1.946
 1074SOL     OW 4325   2.041   3.073   1.858
 1074SOL    HW2 4326   1.964   3.124   1.885
 1074SOL    HW3 4327   2.027   2.987   1.898
 1074SOL    MW4 4328   2.029   3.069   1.867
 1075SOL     OW 4329   1.826   3.240   1.941
 1075SOL    HW2 4330   1.849   3.227   2.033
 1075SOL    HW3 4331   1.740   3.201   1.931
 1075SOL    MW4 4332   1.818   3.233   1.951
 1076SOL     OW 4333   1.805   3.492   1.845
 1076SOL    HW2 4334   1.804   3.404   1.884
 1076SOL    HW3 4335   1.740   3.541   1.895
 1076SOL    MW4 4336   1.797   3.487   1.857
 1077SOL     OW 4337   1.979   3.619   1.999
 1077SOL    HW2 4338   1.989   3.702   1.953
 1077SOL    HW3 4339   1.924   3.565   1.941
 1077SOL    MW4 4340   1.973   3.623   1.985
 1078SOL     OW 4341   2.027   3.841   1.860
 1078SOL    HW2 4342   2.111   3.875   1.891
 1078SOL    HW3 4343   2.034   3.844   1.765
 1078SOL    MW4 4344   2.039   3.846   1.852
 1079SOL     OW 4345   1.822   3.999   1.945
 1079SOL    HW2 4346   1.815   4.077   1.891
 1079SOL    HW3 4347   1.900   3.954   1.912
 1079SOL    MW4 4348   1.832   4.003   1.934
 1080SOL     OW 4349   1.776   4.274   1.826
 1080SOL    HW2 4350   1.692   4.296   1.867
 1080SOL    HW3 4351   1.762   4.291   1.733
 1080SOL    MW4 4352   1.763   4.279   1.819
 1081SOL     OW 4353   2.012   4.390   1.937
 1081SOL    HW2 4354   2.087   4.336   1.913
 1081SOL    HW3 4355   1.936   4.344   1.901
 1081SOL    MW4 4356   2.012   4.377   1.929
 1082SOL     OW 4357   2.504   4.642   1.852
 1082SOL    HW2 4358   2.594   4.672   1.868
 1082SOL    HW3 4359   2.506   4.549   1.876
 1082SOL    MW4 4360   2.516   4.633   1.857
 1083SOL     OW 4361   2.289   0.137   1.928
 1083SOL    HW2 4362   2.281   0.126   2.023
 1083SOL    HW3 4363   2.362   0.080   1.904
 1083SOL    MW4 4364   2.298   0.128   1.937
 1084SOL     OW 4365   2.297   0.400   1.855
 1084SOL    HW2 4366   2.296   0.305   1.869
 1084SOL    HW3 4367   2.227   0.433   1.911
 1084SOL    MW4 4368   2.287   0.392   1.864
 1085SOL     OW 4369   2.507   0.495   1.996
 1085SOL    HW2 4370   2.587   0.469   1.951
 1085SOL    HW3 4371   2.438   0.444   1.954
 1085SOL    MW4 4372   2.509   0.485   1.984
 1086SOL     OW 4373   2.455   0.749   1.881
 1086SOL    HW2 4374   2.466   0.660   1.913
 1086SOL    HW3 4375   2.471   0.744   1.787
 1086SOL    MW4 4376   2.459   0.737   1.873
 1087SOL     OW 4377   2.223   0.889   1.947
 1087SOL    HW2 4378   2.238   0.902   2.041
 1087SOL    HW3 4379   2.290   0.825   1.921
 1087SOL    MW4 4380   2.234   0.882   1.956
 1088SOL     OW 4381   2.281   1.163   1.866
 1088SOL    HW2 4382   2.345   1.202   1.925
 1088SOL    HW3 4383   2.258   1.080   1.906
 1088SOL    MW4 4384   2.287   1.157   1.879
 1089SOL     OW 4385   2.496   1.268   2.008
 1089SOL    HW2 4386   2.502   1.263   2.104
 1089SOL    HW3 4387   2.471   1.359   1.991
 1089SOL    MW4 4388   2.494   1.280   2.019
 1090SOL     OW 4389   2.452   1.500   1.901
 1090SOL    HW2 4390   2.382   1.563   1.919
 1090SOL    HW3 4391   2.474   1.513   1.809
 1090SOL    MW4 4392   2.446   1.510   1.891
 1091SOL     OW 4393   2.257   1.676   1.959
 1091SOL    HW2 4394   2.272   1.677   2.054
 1091SOL    HW3 4395   2.172   1.633   1.950
 1091SOL    MW4 4396   2.248   1.670   1.971
 1092SOL     OW 4397   2.226   1.954   1.866
 1092SOL    HW2 4398   2.312   1.984   1.896
 1092SOL    HW3 4399   2.224   1.861   1.890
 1092SOL    MW4 4400   2.237   1.946   1.873
 1093SOL     OW 4401   2.478   2.041   1.986
 1093SOL    HW2 4402   2.551   1.994   1.947
 1093SOL    HW3 4403   2.496   2.133   1.967
 1093SOL    MW4 4404   2.490   2.047   1.979
 1094SOL     OW 4405   2.507   2.281   1.865
 1094SOL    HW2 4406   2.580   2.343   1.878
 1094SOL    HW3 4407   2.430   2.329   1.895
 1094SOL    MW4 4408   2.507   2.296   1.871
 1095SOL     OW 4409   2.263   2.411   1.966
 1095SOL    HW2 4410   2.248   2.408   2.060
 1095SOL    HW3 4411   2.268   2.504   1.945
 1095SOL    MW4 4412   2.261   2.423   1.975
 1096SOL     OW 4413   2.245   2.688   1.885
 1096SOL    HW2 4414   2.164   2.729   1.916
 1096SOL    HW3 4415   2.234   2.682   1.790
 1096SOL    MW4 4416   2.233   2.693   1.877
 1097SOL     OW 4417   2.470   2.840   1.962
 1097SOL    HW2 4418   2.459   2.929   1.929
 1097SOL    HW3 4419   2.390   2.794   1.934
 1097SOL    MW4 4420   2.458   2.845   1.954
 1098SOL     OW 4421   2.444   3.120   1.910
 1098SOL    HW2 4422   2.359   3.151   1.940
 1098SOL    HW3 4423   2.444   3.136   1.816
 1098SOL    MW4 4424   2.433   3.126   1.902
 1099SOL     OW 4425   2.206   3.258   1.956
 1099SOL    HW2 4426   2.202   3.245   2.051
 1099SOL    HW3 4427   2.138   3.200   1.921
 1099SOL    MW4 4428   2.196   3.249   1.964
 1100SOL     OW 4429   2.186   3.518   1.850
 1100SOL    HW2 4430   2.204   3.430   1.884
 1100SOL    HW3 4431   2.105   3.544   1.894
 1100SOL    MW4 4432   2.178   3.510   1.860
 1101SOL     OW 4433   2.452   3.588   1.935
 1101SOL    HW2 4434   2.454   3.589   2.031
 1101SOL    HW3 4435   2.359   3.576   1.914
 1101SOL    MW4 4436   2.440   3.587   1.945
 1102SOL     OW 4437   2.458   3.847   1.802
 1102SOL    HW2 4438   2.392   3.901   1.846
 1102SOL    HW3 4439   2.445   3.760   1.839
 1102SOL    MW4 4440   2.448   3.843   1.813
 1103SOL     OW 4441   2.263   3.980   1.939
 1103SOL    HW2 4442   2.266   3.974   2.034
 1103SOL    HW3 4443   2.246   4.072   1.921
 1103SOL    MW4 4444   2.261   3.991   1.949
 1104SOL     OW 4445   2.237   4.241   1.852
 1104SOL    HW2 4446   2.314   4.296   1.864
 1104SOL    HW3 4447   2.224   4.237   1.758
 1104SOL    MW4 4448   2.246   4.248   1.841
 1105SOL     OW 4449   2.474   4.378   1.930
 1105SOL    HW2 4450   2.456   4.384   2.024
 1105SOL    HW3 4451   2.536   4.306   1.922
 1105SOL    MW4 4452   2.479   4.369   1.942
 1106SOL     OW 4453   2.946   4.633   1.880
 1106SOL    HW2 4454   3.031   4.669   1.906
 1106SOL    HW3 4455   2.937   4.552   1.930
 1106SOL    MW4 4456   2.956   4.627   1.890
 1107SOL     OW 4457   2.732   0.127   1.930
 1107SOL    HW2 4458   2.708   0.122   2.023
 1107SOL    HW3 4459   2.808   0.069   1.921
 1107SOL    MW4 4460   2.739   0.118   1.941
 1108SOL     OW 4461   2.719   0.400   1.844
 1108SOL    HW2 4462   2.792   0.437   1.893
 1108SOL    HW3 4463   2.719   0.307   1.867
 1108SOL    MW4 4464   2.729   0.393   1.854
 1109SOL     OW 4465   2.961   0.503   1.980
 1109SOL    HW2 4466   3.020   0.453   1.924
 1109SOL    HW3 4467   2.964   0.592   1.946
 1109SOL    MW4 4468   2.969   0.508   1.968
 1110SOL     OW 4469   2.914   0.770   1.870
 1110SOL    HW2 4470   2.991   0.824   1.885
 1110SOL    HW3 4471   2.843   0.818   1.914
 1110SOL    MW4 4472   2.914   0.783   1.878
 1111SOL     OW 4473   2.685   0.876   1.991
 1111SOL    HW2 4474   2.692   0.965   1.956
 1111SOL    HW3 4475   2.606   0.841   1.951
 1111SOL    MW4 4476   2.675   0.884   1.981
 1112SOL     OW 4477   2.690   1.131   1.872
 1112SOL    HW2 4478   2.609   1.164   1.910
 1112SOL    HW3 4479   2.679   1.145   1.778
 1112SOL    MW4 4480   2.678   1.137   1.864
 1113SOL     OW 4481   2.922   1.265   1.994
 1113SOL    HW2 4482   2.913   1.356   1.966
 1113SOL    HW3 4483   2.840   1.223   1.965
 1113SOL    MW4 4484   2.910   1.272   1.986
 1114SOL     OW 4485   2.887   1.522   1.907
 1114SOL    HW2 4486   2.959   1.564   1.954
 1114SOL    HW3 4487   2.914   1.524   1.815
 1114SOL    MW4 4488   2.900   1.528   1.901
 1115SOL     OW 4489   2.658   1.632   2.009
 1115SOL    HW2 4490   2.738   1.602   1.967
 1115SOL    HW3 4491   2.588   1.579   1.970
 1115SOL    MW4 4492   2.659   1.621   1.998
 1116SOL     OW 4493   2.679   1.875   1.883
 1116SOL    HW2 4494   2.767   1.890   1.918
 1116SOL    HW3 4495   2.655   1.789   1.916
 1116SOL    MW4 4496   2.688   1.866   1.892
 1117SOL     OW 4497   2.904   2.033   1.963
 1117SOL    HW2 4498   2.911   2.033   2.059
 1117SOL    HW3 4499   2.983   1.990   1.933
 1117SOL    MW4 4500   2.915   2.027   1.972
 1118SOL     OW 4501   2.932   2.297   1.825
 1118SOL    HW2 4502   3.001   2.344   1.871
 1118SOL    HW3 4503   2.925   2.213   1.870
 1118SOL    MW4 4504   2.940   2.292   1.837
 1119SOL     OW 4505   2.720   2.427   1.948
 1119SOL    HW2 4506   2.717   2.515   1.911
 1119SOL    HW3 4507   2.803   2.390   1.918
 1119SOL    MW4 4508   2.730   2.433   1.939
 1120SOL     OW 4509   2.680   2.683   1.848
 1120SOL    HW2 4510   2.622   2.744   1.893
 1120SOL    HW3 4511   2.669   2.703   1.755
 1120SOL    MW4 4512   2.671   2.694   1.842
 1121SOL     OW 4513   2.942   2.772   1.970
 1121SOL    HW2 4514   2.934   2.863   1.942
 1121SOL    HW3 4515   2.866   2.729   1.932
 1121SOL    MW4 4516   2.931   2.779   1.961
 1122SOL     OW 4517   2.908   3.042   1.860
 1122SOL    HW2 4518   2.989   3.091   1.870
 1122SOL    HW3 4519   2.843   3.092   1.909
 1122SOL    MW4 4520   2.910   3.055   1.868
 1123SOL     OW 4521   2.704   3.213   1.977
 1123SOL    HW2 4522   2.709   3.296   1.930
 1123SOL    HW3 4523   2.614   3.183   1.963
 1123SOL    MW4 4524   2.693   3.220   1.969
 1124SOL     OW 4525   2.683   3.473   1.841
 1124SOL    HW2 4526   2.746   3.529   1.887
 1124SOL    HW3 4527   2.597   3.501   1.873
 1124SOL    MW4 4528   2.680   3.484   1.851
 1125SOL     OW 4529   2.900   3.610   1.945
 1125SOL    HW2 4530   2.900   3.601   2.041
 1125SOL    HW3 4531   2.985   3.574   1.918
 1125SOL    MW4 4532   2.911   3.604   1.954
 1126SOL     OW 4533   2.892   3.867   1.883
 1126SOL    HW2 4534   2.903   3.777   1.914
 1126SOL    HW3 4535   2.897   3.860   1.788
 1126SOL    MW4 4536   2.894   3.854   1.875
 1127SOL     OW 4537   2.644   3.942   1.982
 1127SOL    HW2 4538   2.731   3.910   1.957
 1127SOL    HW3 4539   2.584   3.901   1.920
 1127SOL    MW4 4540   2.648   3.932   1.971
 1128SOL     OW 4541   2.702   4.207   1.888
 1128SOL    HW2 4542   2.694   4.114   1.910
 1128SOL    HW3 4543   2.715   4.208   1.793
 1128SOL    MW4 4544   2.702   4.195   1.879
 1129SOL     OW 4545   2.910   4.369   1.968
 1129SOL    HW2 4546   2.899   4.368   2.063
 1129SOL    HW3 4547   2.836   4.317   1.935
 1129SOL    MW4 4548   2.899   4.362   1.976
 1130SOL     OW 4549   3.423   4.661   1.848
 1130SOL    HW2 4550   3.409   4.585   1.904
 1130SOL    HW3 4551   3.399   4.632   1.760
 1130SOL    MW4 4552   3.418   4.647   1.844
 1131SOL     OW 4553   3.192   0.100   1.955
 1131SOL    HW2 4554   3.197   0.080   2.048
 1131SOL    HW3 4555   3.274   0.067   1.919
 1131SOL    MW4 4556   3.203   0.093   1.962
 1132SOL     OW 4557   3.138   0.348   1.846
 1132SOL    HW2 4558   3.143   0.258   1.880
 1132SOL    HW3 4559   3.148   0.338   1.752
 1132SOL    MW4 4560   3.140   0.334   1.838
 1133SOL     OW 4561   3.346   0.511   1.953
 1133SOL    HW2 4562   3.431   0.468   1.946
 1133SOL    HW3 4563   3.284   0.449   1.916
 1133SOL    MW4 4564   3.349   0.497   1.947
 1134SOL     OW 4565   3.350   0.769   1.823
 1134SOL    HW2 4566   3.276   0.813   1.867
 1134SOL    HW3 4567   3.351   0.681   1.861
 1134SOL    MW4 4568   3.340   0.763   1.834
 1135SOL     OW 4569   3.139   0.906   1.952
 1135SOL    HW2 4570   3.151   0.897   2.046
 1135SOL    HW3 4571   3.133   1.000   1.937
 1135SOL    MW4 4572   3.140   0.917   1.962
 1136SOL     OW 4573   3.115   1.153   1.840
 1136SOL    HW2 4574   3.201   1.179   1.874
 1136SOL    HW3 4575   3.053   1.205   1.891
 1136SOL    MW4 4576   3.118   1.163   1.851
 1137SOL     OW 4577   3.345   1.261   1.949
 1137SOL    HW2 4578   3.354   1.259   2.045
 1137SOL    HW3 4579   3.344   1.354   1.927
 1137SOL    MW4 4580   3.346   1.273   1.959
 1138SOL     OW 4581   3.359   1.527   1.873
 1138SOL    HW2 4582   3.437   1.564   1.915
 1138SOL    HW3 4583   3.285   1.569   1.917
 1138SOL    MW4 4584   3.359   1.537   1.885
 1139SOL     OW 4585   3.115   1.638   2.018
 1139SOL    HW2 4586   3.124   1.657   2.111
 1139SOL    HW3 4587   3.127   1.723   1.975
 1139SOL    MW4 4588   3.118   1.652   2.024
 1140SOL     OW 4589   3.154   1.889   1.883
 1140SOL    HW2 4590   3.238   1.927   1.906
 1140SOL    HW3 4591   3.156   1.882   1.787
 1140SOL    MW4 4592   3.165   1.893   1.873
 1141SOL     OW 4593   3.366   2.017   2.014
 1141SOL    HW2 4594   3.442   1.985   1.964
 1141SOL    HW3 4595   3.354   2.107   1.984
 1141SOL    MW4 4596   3.375   2.025   2.003
 1142SOL     OW 4597   3.352   2.278   1.879
 1142SOL    HW2 4598   3.283   2.331   1.918
 1142SOL    HW3 4599   3.345   2.295   1.785
 1142SOL    MW4 4600   3.342   2.287   1.872
 1143SOL     OW 4601   3.135   2.417   1.976
 1143SOL    HW2 4602   3.137   2.408   2.071
 1143SOL    HW3 4603   3.151   2.510   1.960
 1143SOL    MW4 4604   3.137   2.428   1.987
 1144SOL     OW 4605   3.188   2.682   1.860
 1144SOL    HW2 4606   3.102   2.706   1.891
 1144SOL    HW3 4607   3.175   2.662   1.767
 1144SOL    MW4 4608   3.175   2.682   1.851
 1145SOL     OW 4609   3.359   2.861   1.983
 1145SOL    HW2 4610   3.371   2.841   2.076
 1145SOL    HW3 4611   3.282   2.810   1.957
 1145SOL    MW4 4612   3.350   2.852   1.992
 1146SOL     OW 4613   3.410   3.087   1.844
 1146SOL    HW2 4614   3.476   3.148   1.877
 1146SOL    HW3 4615   3.410   3.016   1.908
 1146SOL    MW4 4616   3.419   3.086   1.857
 1147SOL     OW 4617   3.148   3.171   1.926
 1147SOL    HW2 4618   3.159   3.257   1.887
 1147SOL    HW3 4619   3.230   3.125   1.907
 1147SOL    MW4 4620   3.160   3.176   1.918
 1148SOL     OW 4621   3.150   3.439   1.831
 1148SOL    HW2 4622   3.229   3.478   1.868
 1148SOL    HW3 4623   3.160   3.449   1.737
 1148SOL    MW4 4624   3.161   3.446   1.824
 1149SOL     OW 4625   3.343   3.598   1.974
 1149SOL    HW2 4626   3.434   3.578   1.951
 1149SOL    HW3 4627   3.332   3.691   1.952
 1149SOL    MW4 4628   3.353   3.608   1.968
 1150SOL     OW 4629   3.334   3.868   1.851
 1150SOL    HW2 4630   3.252   3.912   1.872
 1150SOL    HW3 4631   3.348   3.885   1.758
 1150SOL    MW4 4632   3.325   3.876   1.842
 1151SOL     OW 4633   3.116   4.000   1.955
 1151SOL    HW2 4634   3.130   3.986   2.049
 1151SOL    HW3 4635   3.038   3.949   1.935
 1151SOL    MW4 4636   3.108   3.992   1.965
 1152SOL     OW 4637   3.150   4.263   1.869
 1152SOL    HW2 4638   3.141   4.172   1.898
 1152SOL    HW3 4639   3.077   4.309   1.911
 1152SOL    MW4 4640   3.139   4.257   1.878
 1153SOL     OW 4641   3.364   4.417   1.959
 1153SOL    HW2 4642   3.443   4.365   1.946
 1153SOL    HW3 4643   3.293   4.362   1.925
 1153SOL    MW4 4644   3.365   4.402   1.953
 1154SOL     OW 4645   3.833   4.628   1.857
 1154SOL    HW2 4646   3.813   4.536   1.876
 1154SOL    HW3 4647   3.761   4.677   1.898
 1154SOL    MW4 4648   3.821   4.622   1.865
 1155SOL     OW 4649   3.642   0.119   1.971
 1155SOL    HW2 4650   3.626   0.112   2.066
 1155SOL    HW3 4651   3.559   0.092   1.931
 1155SOL    MW4 4652   3.629   0.115   1.979
 1156SOL     OW 4653   3.615   0.382   1.913
 1156SOL    HW2 4654   3.638   0.293   1.941
 1156SOL    HW3 4655   3.611   0.377   1.818
 1156SOL    MW4 4656   3.617   0.369   1.904
 1157SOL     OW 4657   3.847   0.493   1.975
 1157SOL    HW2 4658   3.844   0.583   1.943
 1157SOL    HW3 4659   3.763   0.455   1.948
 1157SOL    MW4 4660   3.835   0.500   1.968
 1158SOL     OW 4661   3.836   0.746   1.867
 1158SOL    HW2 4662   3.755   0.788   1.897
 1158SOL    HW3 4663   3.832   0.753   1.771
 1158SOL    MW4 4664   3.825   0.753   1.858
 1159SOL     OW 4665   3.596   0.848   1.949
 1159SOL    HW2 4666   3.607   0.942   1.934
 1159SOL    HW3 4667   3.518   0.825   1.899
 1159SOL    MW4 4668   3.587   0.858   1.940
 1160SOL     OW 4669   3.575   1.123   1.878
 1160SOL    HW2 4670   3.493   1.166   1.900
 1160SOL    HW3 4671   3.575   1.118   1.783
 1160SOL    MW4 4672   3.564   1.128   1.868
 1161SOL     OW 4673   3.804   1.246   1.980
 1161SOL    HW2 4674   3.807   1.234   2.075
 1161SOL    HW3 4675   3.720   1.209   1.954
 1161SOL    MW4 4676   3.793   1.239   1.989
 1162SOL     OW 4677   3.803   1.506   1.894
 1162SOL    HW2 4678   3.894   1.534   1.909
 1162SOL    HW3 4679   3.801   1.416   1.926
 1162SOL    MW4 4680   3.815   1.498   1.900
 1163SOL     OW 4681   3.577   1.653   2.002
 1163SOL    HW2 4682   3.588   1.746   1.979
 1163SOL    HW3 4683   3.655   1.611   1.966
 1163SOL    MW4 4684   3.589   1.660   1.994
 1164SOL     OW 4685   3.602   1.913   1.911
 1164SOL    HW2 4686   3.684   1.961   1.923
 1164SOL    HW3 4687   3.586   1.916   1.817
 1164SOL    MW4 4688   3.611   1.920   1.900
 1165SOL     OW 4689   3.836   2.056   1.981
 1165SOL    HW2 4690   3.910   2.001   1.958
 1165SOL    HW3 4691   3.855   2.141   1.941
 1165SOL    MW4 4692   3.848   2.060   1.973
 1166SOL     OW 4693   3.804   2.324   1.863
 1166SOL    HW2 4694   3.878   2.372   1.900
 1166SOL    HW3 4695   3.728   2.358   1.909
 1166SOL    MW4 4696   3.804   2.335   1.874
 1167SOL     OW 4697   3.563   2.432   1.982
 1167SOL    HW2 4698   3.544   2.515   1.939
 1167SOL    HW3 4699   3.489   2.376   1.960
 1167SOL    MW4 4700   3.551   2.435   1.973
 1168SOL     OW 4701   3.560   2.689   1.873
 1168SOL    HW2 4702   3.631   2.750   1.893
 1168SOL    HW3 4703   3.481   2.733   1.904
 1168SOL    MW4 4704   3.559   2.703   1.879
 1169SOL     OW 4705   3.783   2.830   1.953
 1169SOL    HW2 4706   3.803   2.833   2.046
 1169SOL    HW3 4707   3.793   2.920   1.923
 1169SOL    MW4 4708   3.787   2.842   1.961
 1170SOL     OW 4709   3.802   3.110   1.873
 1170SOL    HW2 4710   3.728   3.167   1.891
 1170SOL    HW3 4711   3.820   3.122   1.780
 1170SOL    MW4 4712   3.795   3.119   1.863
 1171SOL     OW 4713   3.583   3.282   1.954
 1171SOL    HW2 4714   3.587   3.279   2.050
 1171SOL    HW3 4715   3.575   3.375   1.934
 1171SOL    MW4 4716   3.583   3.294   1.964
 1172SOL     OW 4717   3.591   3.569   1.875
 1172SOL    HW2 4718   3.680   3.602   1.893
 1172SOL    HW3 4719   3.587   3.562   1.780
 1172SOL    MW4 4720   3.602   3.573   1.865
 1173SOL     OW 4721   3.847   3.639   2.005
 1173SOL    HW2 4722   3.905   3.576   1.962
 1173SOL    HW3 4723   3.860   3.720   1.956
 1173SOL    MW4 4724   3.857   3.642   1.993
 1174SOL     OW 4725   3.829   3.867   1.852
 1174SOL    HW2 4726   3.745   3.900   1.884
 1174SOL    HW3 4727   3.819   3.864   1.757
 1174SOL    MW4 4728   3.817   3.871   1.843
 1175SOL     OW 4729   3.579   3.976   1.958
 1175SOL    HW2 4730   3.569   3.976   2.053
 1175SOL    HW3 4731   3.496   3.940   1.925
 1175SOL    MW4 4732   3.566   3.971   1.966
 1176SOL     OW 4733   3.553   4.233   1.875
 1176SOL    HW2 4734   3.629   4.271   1.918
 1176SOL    HW3 4735   3.559   4.140   1.892
 1176SOL    MW4 4736   3.564   4.226   1.883
 1177SOL     OW 4737   3.770   4.379   1.965
 1177SOL    HW2 4738   3.778   4.381   2.061
 1177SOL    HW3 4739   3.849   4.335   1.935
 1177SOL    MW4 4740   3.781   4.373   1.974
 1178SOL     OW 4741   4.252   4.620   1.824
 1178SOL    HW2 4742   4.182   4.677   1.856
 1178SOL    HW3 4743   4.332   4.654   1.864
 1178SOL    MW4 4744   4.253   4.632   1.833
 1179SOL     OW 4745   4.058   0.102   1.948
 1179SOL    HW2 4746   4.082   0.090   2.039
 1179SOL    HW3 4747   3.992   0.036   1.931
 1179SOL    MW4 4748   4.053   0.092   1.958
 1180SOL     OW 4749   4.080   0.380   1.883
 1180SOL    HW2 4750   4.072   0.292   1.920
 1180SOL    HW3 4751   3.999   0.424   1.910
 1180SOL    MW4 4752   4.068   0.374   1.891
 1181SOL     OW 4753   4.290   0.499   1.994
 1181SOL    HW2 4754   4.280   0.469   2.085
 1181SOL    HW3 4755   4.216   0.461   1.948
 1181SOL    MW4 4756   4.279   0.490   2.000
 1182SOL     OW 4757   4.274   0.746   1.889
 1182SOL    HW2 4758   4.285   0.656   1.920
 1182SOL    HW3 4759   4.257   0.738   1.796
 1182SOL    MW4 4760   4.273   0.733   1.881
 1183SOL     OW 4761   4.067   0.907   1.979
 1183SOL    HW2 4762   4.137   0.853   1.943
 1183SOL    HW3 4763   3.987   0.860   1.956
 1183SOL    MW4 4764   4.066   0.893   1.971
 1184SOL     OW 4765   4.043   1.168   1.842
 1184SOL    HW2 4766   4.064   1.082   1.878
 1184SOL    HW3 4767   3.957   1.188   1.879
 1184SOL    MW4 4768   4.034   1.159   1.852
 1185SOL     OW 4769   4.247   1.279   1.967
 1185SOL    HW2 4770   4.223   1.275   2.059
 1185SOL    HW3 4771   4.170   1.246   1.920
 1185SOL    MW4 4772   4.234   1.274   1.973
 1186SOL     OW 4773   4.312   1.526   1.860
 1186SOL    HW2 4774   4.299   1.441   1.902
 1186SOL    HW3 4775   4.291   1.511   1.768
 1186SOL    MW4 4776   4.308   1.513   1.853
 1187SOL     OW 4777   4.061   1.618   1.933
 1187SOL    HW2 4778   4.061   1.633   2.028
 1187SOL    HW3 4779   4.152   1.596   1.912
 1187SOL    MW4 4780   4.073   1.617   1.943
 1188SOL     OW 4781   4.053   1.890   1.888
 1188SOL    HW2 4782   4.047   1.795   1.901
 1188SOL    HW3 4783   4.043   1.902   1.794
 1188SOL    MW4 4784   4.051   1.879   1.878
 1189SOL     OW 4785   4.277   2.035   1.983
 1189SOL    HW2 4786   4.264   2.024   2.077
 1189SOL    HW3 4787   4.209   1.982   1.943
 1189SOL    MW4 4788   4.267   2.027   1.990
 1190SOL     OW 4789   4.257   2.307   1.916
 1190SOL    HW2 4790   4.262   2.213   1.933
 1190SOL    HW3 4791   4.342   2.341   1.945
 1190SOL    MW4 4792   4.269   2.299   1.922
 1191SOL     OW 4793   4.038   2.462   1.952
 1191SOL    HW2 4794   4.027   2.452   2.046
 1191SOL    HW3 4795   4.121   2.420   1.932
 1191SOL    MW4 4796   4.047   2.455   1.961
 1192SOL     OW 4797   3.988   2.694   1.826
 1192SOL    HW2 4798   3.995   2.611   1.873
 1192SOL    HW3 4799   3.902   2.728   1.851
 1192SOL    MW4 4800   3.977   2.687   1.836
 1193SOL     OW 4801   4.213   2.843   1.937
 1193SOL    HW2 4802   4.226   2.833   2.031
 1193SOL    HW3 4803   4.130   2.799   1.919
 1193SOL    MW4 4804   4.204   2.836   1.947
 1194SOL     OW 4805   4.241   3.105   1.863
 1194SOL    HW2 4806   4.169   3.147   1.909
 1194SOL    HW3 4807   4.239   3.014   1.893
 1194SOL    MW4 4808   4.231   3.098   1.873
 1195SOL     OW 4809   4.036   3.233   1.998
 1195SOL    HW2 4810   4.037   3.209   2.091
 1195SOL    HW3 4811   3.947   3.215   1.970
 1195SOL    MW4 4812   4.025   3.228   2.007
 1196SOL     OW 4813   4.043   3.489   1.861
 1196SOL    HW2 4814   4.112   3.548   1.892
 1196SOL    HW3 4815   4.059   3.406   1.907
 1196SOL    MW4 4816   4.055   3.486   1.871
 1197SOL     OW 4817   4.255   3.623   1.978
 1197SOL    HW2 4818   4.257   3.714   1.948
 1197SOL    HW3 4819   4.328   3.581   1.932
 1197SOL    MW4 4820   4.265   3.629   1.968
 1198SOL     OW 4821   4.254   3.885   1.886
 1198SOL    HW2 4822   4.333   3.931   1.914
 1198SOL    HW3 4823   4.252   3.896   1.791
 1198SOL    MW4 4824   4.264   3.893   1.877
 1199SOL     OW 4825   4.025   4.030   1.962
 1199SOL    HW2 4826   4.107   3.980   1.958
 1199SOL    HW3 4827   3.960   3.971   1.924
 1199SOL    MW4 4828   4.027   4.015   1.956
 1200SOL     OW 4829   4.015   4.278   1.846
 1200SOL    HW2 4830   4.097   4.314   1.879
 1200SOL    HW3 4831   4.008   4.192   1.887
 1200SOL    MW4 4832   4.025   4.271   1.856
 1201SOL     OW 4833   4.259   4.374   1.949
 1201SOL    HW2 4834   4.248   4.398   2.041
 1201SOL    HW3 4835   4.258   4.458   1.902
 1201SOL    MW4 4836   4.258   4.388   1.955
 1202SOL     OW 4837   0.230   4.643   2.326
 1202SOL    HW2 4838   0.232   4.666   2.419
 1202SOL    HW3 4839   0.298   4.697   2.287
 1202SOL    MW4 4840   0.239   4.653   2.333
 1203SOL     OW 4841   4.479   0.079   2.260
 1203SOL    HW2 4842   4.566   0.046   2.285
 1203SOL    HW3 4843   4.472   0.060   2.166
 1203SOL    MW4 4844   4.489   0.072   2.251
 1204SOL     OW 4845   0.031   0.335   2.368
 1204SOL    HW2 4846   0.103   0.377   2.320
 1204SOL    HW3 4847   0.020   0.251   2.325
 1204SOL    MW4 4848   0.039   0.330   2.356
 1205SOL     OW 4849   0.216   0.476   2.238
 1205SOL    HW2 4850   0.302   0.443   2.264
 1205SOL    HW3 4851   0.216   0.469   2.142
 1205SOL    MW4 4852   0.228   0.471   2.229
 1206SOL     OW 4853   0.236   0.741   2.337
 1206SOL    HW2 4854   0.218   0.741   2.432
 1206SOL    HW3 4855   0.231   0.648   2.313
 1206SOL    MW4 4856   0.233   0.729   2.347
 1207SOL     OW 4857   0.018   0.873   2.214
 1207SOL    HW2 4858   0.096   0.835   2.253
 1207SOL    HW3 4859   0.033   0.868   2.119
 1207SOL    MW4 4860   0.030   0.867   2.206
 1208SOL     OW 4861   4.462   1.133   2.332
 1208SOL    HW2 4862   4.460   1.129   2.427
 1208SOL    HW3 4863   4.460   1.042   2.303
 1208SOL    MW4 4864   4.461   1.120   2.341
 1209SOL     OW 4865   0.223   1.267   2.250
 1209SOL    HW2 4866   0.133   1.237   2.263
 1209SOL    HW3 4867   0.233   1.276   2.155
 1209SOL    MW4 4868   0.213   1.265   2.239
 1210SOL     OW 4869   0.270   1.520   2.347
 1210SOL    HW2 4870   0.270   1.508   2.442
 1210SOL    HW3 4871   0.250   1.434   2.312
 1210SOL    MW4 4872   0.267   1.507   2.355
 1211SOL     OW 4873   0.031   1.637   2.285
 1211SOL    HW2 4874   0.003   1.722   2.321
 1211SOL    HW3 4875   0.121   1.628   2.315
 1211SOL    MW4 4876   0.039   1.647   2.294
 1212SOL     OW 4877   0.000   1.909   2.366
 1212SOL    HW2 4878  -0.078   1.944   2.324
 1212SOL    HW3 4879   0.072   1.963   2.333
 1212SOL    MW4 4880  -0.001   1.921   2.356
 1213SOL     OW 4881   0.220   2.042   2.254
 1213SOL    HW2 4882   0.288   1.981   2.280
 1213SOL    HW3 4883   0.220   2.040   2.158
 1213SOL    MW4 4884   0.229   2.034   2.245
 1214SOL     OW 4885   0.190   2.316   2.330
 1214SOL    HW2 4886   0.190   2.331   2.425
 1214SOL    HW3 4887   0.200   2.221   2.321
 1214SOL    MW4 4888   0.191   2.305   2.342
 1215SOL     OW 4889   4.452   2.430   2.200
 1215SOL    HW2 4890   4.442   2.513   2.246
 1215SOL    HW3 4891   4.525   2.386   2.244
 1215SOL    MW4 4892   4.460   2.435   2.212
 1216SOL     OW 4893   4.471   2.685   2.320
 1216SOL    HW2 4894   4.465   2.688   2.415
 1216SOL    HW3 4895   4.555   2.727   2.299
 1216SOL    MW4 4896   4.481   2.691   2.330
 1217SOL     OW 4897   0.219   2.813   2.231
 1217SOL    HW2 4898   0.304   2.770   2.234
 1217SOL    HW3 4899   0.189   2.801   2.141
 1217SOL    MW4 4900   0.226   2.806   2.219
 1218SOL     OW 4901   0.240   3.053   2.349
 1218SOL    HW2 4902   0.182   3.116   2.306
 1218SOL    HW3 4903   0.229   2.972   2.298
 1218SOL    MW4 4904   0.231   3.050   2.337
 1219SOL     OW 4905   0.075   3.222   2.230
 1219SOL    HW2 4906   0.058   3.311   2.262
 1219SOL    HW3 4907   0.062   3.228   2.136
 1219SOL    MW4 4908   0.071   3.234   2.222
 1220SOL     OW 4909   0.015   3.469   2.362
 1220SOL    HW2 4910   0.001   3.469   2.457
 1220SOL    HW3 4911  -0.059   3.519   2.327
 1220SOL    MW4 4912   0.003   3.476   2.370
 1221SOL     OW 4913   0.234   3.596   2.243
 1221SOL    HW2 4914   0.298   3.556   2.301
 1221SOL    HW3 4915   0.150   3.559   2.271
 1221SOL    MW4 4916   0.231   3.586   2.254
 1222SOL     OW 4917   0.160   3.847   2.372
 1222SOL    HW2 4918   0.081   3.893   2.343
 1222SOL    HW3 4919   0.160   3.765   2.322
 1222SOL    MW4 4920   0.150   3.842   2.361
 1223SOL     OW 4921   4.432   3.995   2.257
 1223SOL    HW2 4922   4.455   4.080   2.295
 1223SOL    HW3 4923   4.432   4.011   2.163
 1223SOL    MW4 4924   4.435   4.008   2.250
 1224SOL     OW 4925   0.005   4.242   2.375
 1224SOL    HW2 4926   0.024   4.245   2.469
 1224SOL    HW3 4927   0.079   4.287   2.334
 1224SOL    MW4 4928   0.017   4.248   2.382
 1225SOL     OW 4929   0.201   4.377   2.221
 1225SOL    HW2 4930   0.278   4.332   2.254
 1225SOL    HW3 4931   0.200   4.461   2.267
 1225SOL    MW4 4932   0.211   4.382   2.231
 1226SOL     OW 4933   0.702   4.666   2.299
 1226SOL    HW2 4934   0.713   4.669   2.394
 1226SOL    HW3 4935   0.786   4.698   2.265
 1226SOL    MW4 4936   0.714   4.671   2.307
 1227SOL     OW 4937   0.457   0.135   2.250
 1227SOL    HW2 4938   0.542   0.101   2.275
 1227SOL    HW3 4939   0.457   0.131   2.154
 1227SOL    MW4 4940   0.468   0.130   2.240
 1228SOL     OW 4941   0.452   0.385   2.348
 1228SOL    HW2 4942   0.458   0.373   2.442
 1228SOL    HW3 4943   0.445   0.296   2.312
 1228SOL    MW4 4944   0.452   0.372   2.355
 1229SOL     OW 4945   0.671   0.503   2.214
 1229SOL    HW2 4946   0.693   0.589   2.251
 1229SOL    HW3 4947   0.602   0.469   2.270
 1229SOL    MW4 4948   0.665   0.510   2.226
 1230SOL     OW 4949   0.675   0.755   2.338
 1230SOL    HW2 4950   0.684   0.740   2.433
 1230SOL    HW3 4951   0.585   0.786   2.327
 1230SOL    MW4 4952   0.664   0.757   2.349
 1231SOL     OW 4953   0.429   0.901   2.211
 1231SOL    HW2 4954   0.362   0.842   2.244
 1231SOL    HW3 4955   0.434   0.882   2.117
 1231SOL    MW4 4956   0.421   0.891   2.203
 1232SOL     OW 4957   0.449   1.154   2.308
 1232SOL    HW2 4958   0.448   1.067   2.270
 1232SOL    HW3 4959   0.364   1.192   2.285
 1232SOL    MW4 4960   0.437   1.148   2.300
 1233SOL     OW 4961   0.672   1.276   2.210
 1233SOL    HW2 4962   0.682   1.356   2.261
 1233SOL    HW3 4963   0.588   1.240   2.237
 1233SOL    MW4 4964   0.663   1.281   2.221
 1234SOL     OW 4965   0.685   1.495   2.364
 1234SOL    HW2 4966   0.658   1.502   2.456
 1234SOL    HW3 4967   0.752   1.563   2.353
 1234SOL    MW4 4968   0.690   1.505   2.375
 1235SOL     OW 4969   0.490   1.619   2.204
 1235SOL    HW2 4970   0.564   1.585   2.254
 1235SOL    HW3 4971   0.413   1.575   2.240
 1235SOL    MW4 4972   0.490   1.609   2.215
 1236SOL     OW 4973   0.443   1.868   2.332
 1236SOL    HW2 4974   0.517   1.919   2.298
 1236SOL    HW3 4975   0.465   1.777   2.312
 1236SOL    MW4 4976   0.455   1.863   2.325
 1237SOL     OW 4977   0.636   2.059   2.228
 1237SOL    HW2 4978   0.720   2.025   2.257
 1237SOL    HW3 4979   0.633   2.149   2.262
 1237SOL    MW4 4980   0.647   2.067   2.236
 1238SOL     OW 4981   0.629   2.333   2.289
 1238SOL    HW2 4982   0.648   2.313   2.380
 1238SOL    HW3 4983   0.699   2.393   2.263
 1238SOL    MW4 4984   0.640   2.338   2.297
 1239SOL     OW 4985   0.383   2.436   2.184
 1239SOL    HW2 4986   0.456   2.385   2.219
 1239SOL    HW3 4987   0.305   2.394   2.221
 1239SOL    MW4 4988   0.382   2.424   2.194
 1240SOL     OW 4989   0.436   2.680   2.299
 1240SOL    HW2 4990   0.432   2.665   2.393
 1240SOL    HW3 4991   0.419   2.594   2.260
 1240SOL    MW4 4992   0.433   2.667   2.306
 1241SOL     OW 4993   0.672   2.830   2.248
 1241SOL    HW2 4994   0.738   2.763   2.267
 1241SOL    HW3 4995   0.588   2.784   2.257
 1241SOL    MW4 4996   0.669   2.815   2.252
 1242SOL     OW 4997   0.715   3.074   2.374
 1242SOL    HW2 4998   0.631   3.107   2.343
 1242SOL    HW3 4999   0.716   2.982   2.347
 1242SOL    MW4 5000   0.704   3.066   2.366
 1243SOL     OW 5001   0.471   3.192   2.256
 1243SOL    HW2 5002   0.406   3.145   2.308
 1243SOL    HW3 5003   0.436   3.191   2.167
 1243SOL    MW4 5004   0.458   3.186   2.252
 1244SOL     OW 5005   0.426   3.438   2.370
 1244SOL    HW2 5006   0.504   3.493   2.363
 1244SOL    HW3 5007   0.450   3.357   2.326
 1244SOL    MW4 5008   0.439   3.435   2.363
 1245SOL     OW 5009   0.636   3.614   2.296
 1245SOL    HW2 5010   0.615   3.706   2.315
 1245SOL    HW3 5011   0.635   3.608   2.201
 1245SOL    MW4 5012   0.633   3.626   2.286
 1246SOL     OW 5013   0.621   3.876   2.375
 1246SOL    HW2 5014   0.634   3.873   2.470
 1246SOL    HW3 5015   0.530   3.904   2.364
 1246SOL    MW4 5016   0.611   3.879   2.386
 1247SOL     OW 5017   0.379   3.999   2.298
 1247SOL    HW2 5018   0.304   3.940   2.303
 1247SOL    HW3 5019   0.393   4.012   2.204
 1247SOL    MW4 5020   0.371   3.993   2.286
 1248SOL     OW 5021   0.420   4.285   2.346
 1248SOL    HW2 5022   0.506   4.298   2.307
 1248SOL    HW3 5023   0.398   4.193   2.327
 1248SOL    MW4 5024   0.428   4.274   2.338
 1249SOL     OW 5025   0.646   4.389   2.218
 1249SOL    HW2 5026   0.644   4.481   2.245
 1249SOL    HW3 5027   0.662   4.391   2.124
 1249SOL    MW4 5028   0.648   4.401   2.209
 1250SOL     OW 5029   1.138   0.005   2.333
 1250SOL    HW2 5030   1.130  -0.003   2.428
 1250SOL    HW3 5031   1.065   0.062   2.308
 1250SOL    MW4 5032   1.127   0.012   2.342
 1251SOL     OW 5033   0.937   0.121   2.200
 1251SOL    HW2 5034   0.915   0.207   2.235
 1251SOL    HW3 5035   0.918   0.127   2.106
 1251SOL    MW4 5036   0.932   0.133   2.192
 1252SOL     OW 5037   0.885   0.372   2.327
 1252SOL    HW2 5038   0.958   0.426   2.295
 1252SOL    HW3 5039   0.806   0.419   2.299
 1252SOL    MW4 5040   0.884   0.386   2.319
 1253SOL     OW 5041   1.100   0.527   2.257
 1253SOL    HW2 5042   1.182   0.487   2.286
 1253SOL    HW3 5043   1.096   0.508   2.164
 1253SOL    MW4 5044   1.110   0.519   2.249
 1254SOL     OW 5045   1.120   0.804   2.289
 1254SOL    HW2 5046   1.034   0.843   2.272
 1254SOL    HW3 5047   1.106   0.710   2.277
 1254SOL    MW4 5048   1.107   0.797   2.285
 1255SOL     OW 5049   0.861   0.908   2.226
 1255SOL    HW2 5050   0.870   0.988   2.277
 1255SOL    HW3 5051   0.782   0.866   2.260
 1255SOL    MW4 5052   0.852   0.913   2.237
 1256SOL     OW 5053   0.901   1.164   2.324
 1256SOL    HW2 5054   0.969   1.228   2.305
 1256SOL    HW3 5055   0.821   1.203   2.289
 1256SOL    MW4 5056   0.900   1.178   2.317
 1257SOL     OW 5057   1.123   1.323   2.213
 1257SOL    HW2 5058   1.196   1.268   2.241
 1257SOL    HW3 5059   1.126   1.320   2.117
 1257SOL    MW4 5060   1.133   1.315   2.204
 1258SOL     OW 5061   1.099   1.552   2.364
 1258SOL    HW2 5062   1.029   1.603   2.322
 1258SOL    HW3 5063   1.110   1.476   2.306
 1258SOL    MW4 5064   1.091   1.549   2.351
 1259SOL     OW 5065   0.876   1.670   2.262
 1259SOL    HW2 5066   0.857   1.760   2.290
 1259SOL    HW3 5067   0.899   1.678   2.169
 1259SOL    MW4 5068   0.876   1.683   2.253
 1260SOL     OW 5069   0.869   1.938   2.331
 1260SOL    HW2 5070   0.874   1.952   2.425
 1260SOL    HW3 5071   0.953   1.972   2.298
 1260SOL    MW4 5072   0.881   1.945   2.339
 1261SOL     OW 5073   1.102   2.055   2.216
 1261SOL    HW2 5074   1.186   2.019   2.243
 1261SOL    HW3 5075   1.107   2.059   2.120
 1261SOL    MW4 5076   1.114   2.051   2.207
 1262SOL     OW 5077   1.110   2.298   2.324
 1262SOL    HW2 5078   1.175   2.358   2.288
 1262SOL    HW3 5079   1.141   2.211   2.300
 1262SOL    MW4 5080   1.123   2.294   2.316
 1263SOL     OW 5081   0.876   2.439   2.238
 1263SOL    HW2 5082   0.941   2.371   2.255
 1263SOL    HW3 5083   0.875   2.449   2.143
 1263SOL    MW4 5084   0.884   2.431   2.227
 1264SOL     OW 5085   0.901   2.688   2.337
 1264SOL    HW2 5086   0.890   2.668   2.430
 1264SOL    HW3 5087   0.903   2.603   2.294
 1264SOL    MW4 5088   0.900   2.675   2.343
 1265SOL     OW 5089   1.092   2.873   2.232
 1265SOL    HW2 5090   1.161   2.812   2.256
 1265SOL    HW3 5091   1.011   2.833   2.264
 1265SOL    MW4 5092   1.090   2.860   2.239
 1266SOL     OW 5093   1.117   3.109   2.369
 1266SOL    HW2 5094   1.042   3.160   2.336
 1266SOL    HW3 5095   1.106   3.022   2.330
 1266SOL    MW4 5096   1.106   3.104   2.360
 1267SOL     OW 5097   0.902   3.252   2.277
 1267SOL    HW2 5098   0.892   3.334   2.325
 1267SOL    HW3 5099   0.833   3.196   2.311
 1267SOL    MW4 5100   0.892   3.256   2.288
 1268SOL     OW 5101   0.871   3.503   2.380
 1268SOL    HW2 5102   0.872   3.497   2.476
 1268SOL    HW3 5103   0.802   3.566   2.360
 1268SOL    MW4 5104   0.862   3.511   2.390
 1269SOL     OW 5105   1.113   3.599   2.223
 1269SOL    HW2 5106   1.190   3.560   2.263
 1269SOL    HW3 5107   1.039   3.556   2.265
 1269SOL    MW4 5108   1.113   3.588   2.234
 1270SOL     OW 5109   1.080   3.873   2.321
 1270SOL    HW2 5110   1.156   3.929   2.310
 1270SOL    HW3 5111   1.110   3.786   2.297
 1270SOL    MW4 5112   1.094   3.869   2.317
 1271SOL     OW 5113   0.867   4.010   2.220
 1271SOL    HW2 5114   0.937   3.954   2.252
 1271SOL    HW3 5115   0.791   3.985   2.273
 1271SOL    MW4 5116   0.866   3.999   2.231
 1272SOL     OW 5117   0.870   4.266   2.323
 1272SOL    HW2 5118   0.878   4.183   2.276
 1272SOL    HW3 5119   0.798   4.312   2.278
 1272SOL    MW4 5120   0.861   4.261   2.311
 1273SOL     OW 5121   1.109   4.414   2.255
 1273SOL    HW2 5122   1.027   4.386   2.295
 1273SOL    HW3 5123   1.118   4.506   2.279
 1273SOL    MW4 5124   1.100   4.422   2.263
 1274SOL     OW 5125   1.567   0.008   2.314
 1274SOL    HW2 5126   1.651   0.043   2.282
 1274SOL    HW3 5127   1.501   0.060   2.270
 1274SOL    MW4 5128   1.570   0.019   2.304
 1275SOL     OW 5129   1.329   0.138   2.181
 1275SOL    HW2 5130   1.337   0.219   2.232
 1275SOL    HW3 5131   1.274   0.081   2.234
 1275SOL    MW4 5132   1.323   0.141   2.195
 1276SOL     OW 5133   1.339   0.381   2.307
 1276SOL    HW2 5134   1.350   0.383   2.402
 1276SOL    HW3 5135   1.419   0.421   2.273
 1276SOL    MW4 5136   1.351   0.387   2.315
 1277SOL     OW 5137   1.560   0.512   2.226
 1277SOL    HW2 5138   1.628   0.458   2.266
 1277SOL    HW3 5139   1.583   0.515   2.133
 1277SOL    MW4 5140   1.572   0.505   2.219
 1278SOL     OW 5141   1.539   0.771   2.350
 1278SOL    HW2 5142   1.617   0.821   2.327
 1278SOL    HW3 5143   1.548   0.689   2.301
 1278SOL    MW4 5144   1.551   0.767   2.341
 1279SOL     OW 5145   1.350   0.906   2.191
 1279SOL    HW2 5146   1.413   0.861   2.249
 1279SOL    HW3 5147   1.266   0.868   2.214
 1279SOL    MW4 5148   1.347   0.895   2.202
 1280SOL     OW 5149   1.347   1.159   2.295
 1280SOL    HW2 5150   1.350   1.154   2.390
 1280SOL    HW3 5151   1.361   1.069   2.265
 1280SOL    MW4 5152   1.349   1.147   2.303
 1281SOL     OW 5153   1.591   1.293   2.246
 1281SOL    HW2 5154   1.512   1.240   2.245
 1281SOL    HW3 5155   1.603   1.321   2.156
 1281SOL    MW4 5156   1.582   1.290   2.234
 1282SOL     OW 5157   1.545   1.527   2.373
 1282SOL    HW2 5158   1.612   1.592   2.350
 1282SOL    HW3 5159   1.565   1.451   2.318
 1282SOL    MW4 5160   1.557   1.525   2.362
 1283SOL     OW 5161   1.339   1.683   2.258
 1283SOL    HW2 5162   1.399   1.626   2.305
 1283SOL    HW3 5163   1.252   1.647   2.277
 1283SOL    MW4 5164   1.335   1.671   2.267
 1284SOL     OW 5165   1.332   1.936   2.362
 1284SOL    HW2 5166   1.405   1.979   2.318
 1284SOL    HW3 5167   1.342   1.843   2.342
 1284SOL    MW4 5168   1.343   1.930   2.354
 1285SOL     OW 5169   1.560   2.060   2.253
 1285SOL    HW2 5170   1.642   2.019   2.280
 1285SOL    HW3 5171   1.563   2.058   2.157
 1285SOL    MW4 5172   1.571   2.054   2.244
 1286SOL     OW 5173   1.557   2.344   2.318
 1286SOL    HW2 5174   1.542   2.333   2.412
 1286SOL    HW3 5175   1.568   2.255   2.284
 1286SOL    MW4 5176   1.557   2.331   2.326
 1287SOL     OW 5177   1.316   2.439   2.226
 1287SOL    HW2 5178   1.403   2.411   2.254
 1287SOL    HW3 5179   1.318   2.428   2.131
 1287SOL    MW4 5180   1.328   2.434   2.217
 1288SOL     OW 5181   1.320   2.716   2.304
 1288SOL    HW2 5182   1.408   2.752   2.294
 1288SOL    HW3 5183   1.330   2.624   2.280
 1288SOL    MW4 5184   1.333   2.708   2.299
 1289SOL     OW 5185   1.570   2.847   2.255
 1289SOL    HW2 5186   1.566   2.938   2.286
 1289SOL    HW3 5187   1.574   2.854   2.160
 1289SOL    MW4 5188   1.570   2.860   2.247
 1290SOL     OW 5189   1.586   3.122   2.322
 1290SOL    HW2 5190   1.585   3.112   2.417
 1290SOL    HW3 5191   1.509   3.175   2.302
 1290SOL    MW4 5192   1.576   3.127   2.332
 1291SOL     OW 5193   1.344   3.223   2.255
 1291SOL    HW2 5194   1.264   3.177   2.283
 1291SOL    HW3 5195   1.334   3.233   2.161
 1291SOL    MW4 5196   1.332   3.218   2.246
 1292SOL     OW 5197   1.347   3.506   2.335
 1292SOL    HW2 5198   1.333   3.514   2.429
 1292SOL    HW3 5199   1.325   3.414   2.316
 1292SOL    MW4 5200   1.342   3.495   2.345
 1293SOL     OW 5201   1.576   3.623   2.251
 1293SOL    HW2 5202   1.578   3.713   2.284
 1293SOL    HW3 5203   1.495   3.586   2.287
 1293SOL    MW4 5204   1.566   3.630   2.260
 1294SOL     OW 5205   1.576   3.883   2.326
 1294SOL    HW2 5206   1.585   3.876   2.421
 1294SOL    HW3 5207   1.655   3.931   2.299
 1294SOL    MW4 5208   1.588   3.889   2.335
 1295SOL     OW 5209   1.333   4.002   2.237
 1295SOL    HW2 5210   1.419   3.972   2.268
 1295SOL    HW3 5211   1.348   4.023   2.145
 1295SOL    MW4 5212   1.347   4.001   2.229
 1296SOL     OW 5213   1.347   4.281   2.314
 1296SOL    HW2 5214   1.325   4.190   2.293
 1296SOL    HW3 5215   1.264   4.328   2.306
 1296SOL    MW4 5216   1.333   4.275   2.310
 1297SOL     OW 5217   1.579   4.409   2.213
 1297SOL    HW2 5218   1.506   4.355   2.243
 1297SOL    HW3 5219   1.561   4.496   2.249
 1297SOL    MW4 5220   1.567   4.413   2.222
 1298SOL     OW 5221   2.046   4.631   2.336
 1298SOL    HW2 5222   2.115   4.669   2.283
 1298SOL    HW3 5223   2.033   4.543   2.300
 1298SOL    MW4 5224   2.053   4.624   2.325
 1299SOL     OW 5225   1.799   0.114   2.239
 1299SOL    HW2 5226   1.792   0.196   2.287
 1299SOL    HW3 5227   1.881   0.075   2.271
 1299SOL    MW4 5228   1.809   0.119   2.250
 1300SOL     OW 5229   1.755   0.366   2.365
 1300SOL    HW2 5230   1.749   0.364   2.460
 1300SOL    HW3 5231   1.844   0.396   2.347
 1300SOL    MW4 5232   1.766   0.370   2.375
 1301SOL     OW 5233   1.999   0.493   2.266
 1301SOL    HW2 5234   1.981   0.586   2.282
 1301SOL    HW3 5235   2.022   0.489   2.173
 1301SOL    MW4 5236   2.000   0.505   2.256
 1302SOL     OW 5237   1.972   0.776   2.337
 1302SOL    HW2 5238   2.047   0.819   2.296
 1302SOL    HW3 5239   1.895   0.815   2.294
 1302SOL    MW4 5240   1.972   0.787   2.326
 1303SOL     OW 5241   1.764   0.914   2.234
 1303SOL    HW2 5242   1.804   0.993   2.269
 1303SOL    HW3 5243   1.767   0.925   2.139
 1303SOL    MW4 5244   1.770   0.926   2.226
 1304SOL     OW 5245   1.833   1.150   2.368
 1304SOL    HW2 5246   1.903   1.207   2.337
 1304SOL    HW3 5247   1.753   1.191   2.335
 1304SOL    MW4 5248   1.832   1.163   2.359
 1305SOL     OW 5249   2.042   1.309   2.258
 1305SOL    HW2 5250   2.038   1.401   2.281
 1305SOL    HW3 5251   2.045   1.308   2.162
 1305SOL    MW4 5252   2.042   1.321   2.248
 1306SOL     OW 5253   2.036   1.572   2.326
 1306SOL    HW2 5254   2.034   1.556   2.420
 1306SOL    HW3 5255   1.958   1.625   2.310
 1306SOL    MW4 5256   2.025   1.577   2.336
 1307SOL     OW 5257   1.772   1.683   2.270
 1307SOL    HW2 5258   1.775   1.778   2.276
 1307SOL    HW3 5259   1.791   1.664   2.178
 1307SOL    MW4 5260   1.775   1.693   2.259
 1308SOL     OW 5261   1.788   1.949   2.319
 1308SOL    HW2 5262   1.774   1.958   2.414
 1308SOL    HW3 5263   1.867   2.001   2.302
 1308SOL    MW4 5264   1.797   1.957   2.330
 1309SOL     OW 5265   2.034   2.067   2.257
 1309SOL    HW2 5266   2.112   2.024   2.291
 1309SOL    HW3 5267   2.051   2.076   2.163
 1309SOL    MW4 5268   2.046   2.062   2.249
 1310SOL     OW 5269   1.997   2.328   2.322
 1310SOL    HW2 5270   2.083   2.364   2.301
 1310SOL    HW3 5271   2.004   2.235   2.302
 1310SOL    MW4 5272   2.009   2.321   2.316
 1311SOL     OW 5273   1.774   2.463   2.206
 1311SOL    HW2 5274   1.849   2.413   2.237
 1311SOL    HW3 5275   1.700   2.431   2.257
 1311SOL    MW4 5276   1.774   2.452   2.217
 1312SOL     OW 5277   1.764   2.689   2.359
 1312SOL    HW2 5278   1.762   2.616   2.297
 1312SOL    HW3 5279   1.696   2.749   2.328
 1312SOL    MW4 5280   1.755   2.687   2.347
 1313SOL     OW 5281   1.985   2.804   2.215
 1313SOL    HW2 5282   2.071   2.777   2.249
 1313SOL    HW3 5283   1.922   2.759   2.271
 1313SOL    MW4 5284   1.988   2.795   2.227
 1314SOL     OW 5285   1.991   3.049   2.325
 1314SOL    HW2 5286   2.060   3.097   2.280
 1314SOL    HW3 5287   1.985   2.966   2.276
 1314SOL    MW4 5288   2.000   3.044   2.313
 1315SOL     OW 5289   1.826   3.225   2.221
 1315SOL    HW2 5290   1.891   3.170   2.266
 1315SOL    HW3 5291   1.742   3.195   2.254
 1315SOL    MW4 5292   1.824   3.213   2.231
 1316SOL     OW 5293   1.793   3.456   2.356
 1316SOL    HW2 5294   1.810   3.379   2.302
 1316SOL    HW3 5295   1.712   3.493   2.320
 1316SOL    MW4 5296   1.784   3.451   2.344
 1317SOL     OW 5297   2.022   3.607   2.276
 1317SOL    HW2 5298   1.939   3.572   2.307
 1317SOL    HW3 5299   2.010   3.620   2.182
 1317SOL    MW4 5300   2.010   3.604   2.268
 1318SOL     OW 5301   2.018   3.875   2.329
 1318SOL    HW2 5302   1.995   3.886   2.421
 1318SOL    HW3 5303   2.024   3.780   2.317
 1318SOL    MW4 5304   2.016   3.864   2.339
 1319SOL     OW 5305   1.810   4.003   2.224
 1319SOL    HW2 5306   1.879   3.946   2.258
 1319SOL    HW3 5307   1.832   4.016   2.132
 1319SOL    MW4 5308   1.822   3.997   2.216
 1320SOL     OW 5309   1.777   4.270   2.342
 1320SOL    HW2 5310   1.764   4.189   2.292
 1320SOL    HW3 5311   1.712   4.331   2.308
 1320SOL    MW4 5312   1.767   4.267   2.331
 1321SOL     OW 5313   2.015   4.382   2.229
 1321SOL    HW2 5314   1.929   4.349   2.254
 1321SOL    HW3 5315   2.015   4.379   2.134
 1321SOL    MW4 5316   2.004   4.377   2.220
 1322SOL     OW 5317   2.479   0.014   2.327
 1322SOL    HW2 5318   2.560   0.044   2.286
 1322SOL    HW3 5319   2.466  -0.074   2.293
 1322SOL    MW4 5320   2.488   0.006   2.317
 1323SOL     OW 5321   2.240   0.108   2.205
 1323SOL    HW2 5322   2.229   0.199   2.233
 1323SOL    HW3 5323   2.309   0.073   2.261
 1323SOL    MW4 5324   2.247   0.116   2.216
 1324SOL     OW 5325   2.230   0.357   2.338
 1324SOL    HW2 5326   2.305   0.414   2.320
 1324SOL    HW3 5327   2.154   0.407   2.308
 1324SOL    MW4 5328   2.230   0.371   2.331
 1325SOL     OW 5329   2.485   0.483   2.259
 1325SOL    HW2 5330   2.562   0.428   2.273
 1325SOL    HW3 5331   2.481   0.493   2.164
 1325SOL    MW4 5332   2.495   0.477   2.248
 1326SOL     OW 5333   2.416   0.746   2.344
 1326SOL    HW2 5334   2.504   0.783   2.342
 1326SOL    HW3 5335   2.428   0.654   2.321
 1326SOL    MW4 5336   2.429   0.738   2.340
 1327SOL     OW 5337   2.201   0.910   2.228
 1327SOL    HW2 5338   2.208   0.998   2.265
 1327SOL    HW3 5339   2.274   0.862   2.266
 1327SOL    MW4 5340   2.211   0.915   2.238
 1328SOL     OW 5341   2.245   1.153   2.374
 1328SOL    HW2 5342   2.325   1.198   2.347
 1328SOL    HW3 5343   2.174   1.213   2.351
 1328SOL    MW4 5344   2.246   1.167   2.367
 1329SOL     OW 5345   2.497   1.255   2.279
 1329SOL    HW2 5346   2.564   1.198   2.316
 1329SOL    HW3 5347   2.499   1.334   2.333
 1329SOL    MW4 5348   2.506   1.258   2.291
 1330SOL     OW 5349   2.488   1.523   2.364
 1330SOL    HW2 5350   2.469   1.543   2.456
 1330SOL    HW3 5351   2.568   1.571   2.345
 1330SOL    MW4 5352   2.496   1.532   2.374
 1331SOL     OW 5353   2.284   1.657   2.230
 1331SOL    HW2 5354   2.358   1.608   2.268
 1331SOL    HW3 5355   2.206   1.612   2.263
 1331SOL    MW4 5356   2.284   1.644   2.240
 1332SOL     OW 5357   2.237   1.919   2.362
 1332SOL    HW2 5358   2.323   1.940   2.326
 1332SOL    HW3 5359   2.227   1.825   2.346
 1332SOL    MW4 5360   2.247   1.910   2.355
 1333SOL     OW 5361   2.475   2.054   2.270
 1333SOL    HW2 5362   2.555   2.023   2.311
 1333SOL    HW3 5363   2.497   2.062   2.177
 1333SOL    MW4 5364   2.488   2.051   2.263
 1334SOL     OW 5365   2.489   2.308   2.364
 1334SOL    HW2 5366   2.572   2.337   2.325
 1334SOL    HW3 5367   2.482   2.216   2.339
 1334SOL    MW4 5368   2.499   2.300   2.355
 1335SOL     OW 5369   2.257   2.432   2.251
 1335SOL    HW2 5370   2.240   2.512   2.301
 1335SOL    HW3 5371   2.343   2.402   2.283
 1335SOL    MW4 5372   2.266   2.439   2.262
 1336SOL     OW 5373   2.213   2.696   2.347
 1336SOL    HW2 5374   2.197   2.731   2.435
 1336SOL    HW3 5375   2.292   2.740   2.317
 1336SOL    MW4 5376   2.221   2.706   2.355
 1337SOL     OW 5377   2.444   2.834   2.246
 1337SOL    HW2 5378   2.529   2.793   2.264
 1337SOL    HW3 5379   2.439   2.838   2.151
 1337SOL    MW4 5380   2.454   2.829   2.236
 1338SOL     OW 5381   2.467   3.110   2.294
 1338SOL    HW2 5382   2.550   3.144   2.260
 1338SOL    HW3 5383   2.473   3.015   2.284
 1338SOL    MW4 5384   2.479   3.102   2.288
 1339SOL     OW 5385   2.207   3.202   2.221
 1339SOL    HW2 5386   2.213   3.291   2.258
 1339SOL    HW3 5387   2.291   3.162   2.244
 1339SOL    MW4 5388   2.219   3.209   2.229
 1340SOL     OW 5389   2.248   3.470   2.329
 1340SOL    HW2 5390   2.252   3.460   2.424
 1340SOL    HW3 5391   2.163   3.512   2.313
 1340SOL    MW4 5392   2.237   3.474   2.340
 1341SOL     OW 5393   2.472   3.627   2.207
 1341SOL    HW2 5394   2.453   3.713   2.243
 1341SOL    HW3 5395   2.403   3.570   2.241
 1341SOL    MW4 5396   2.460   3.630   2.216
 1342SOL     OW 5397   2.433   3.862   2.337
 1342SOL    HW2 5398   2.435   3.870   2.432
 1342SOL    HW3 5399   2.371   3.929   2.308
 1342SOL    MW4 5400   2.425   3.872   2.345
 1343SOL     OW 5401   2.249   4.016   2.214
 1343SOL    HW2 5402   2.258   4.099   2.261
 1343SOL    HW3 5403   2.178   3.970   2.258
 1343SOL    MW4 5404   2.241   4.021   2.226
 1344SOL     OW 5405   2.236   4.266   2.347
 1344SOL    HW2 5406   2.231   4.259   2.442
 1344SOL    HW3 5407   2.152   4.305   2.321
 1344SOL    MW4 5408   2.224   4.270   2.356
 1345SOL     OW 5409   2.437   4.421   2.216
 1345SOL    HW2 5410   2.510   4.378   2.260
 1345SOL    HW3 5411   2.359   4.379   2.254
 1345SOL    MW4 5412   2.436   4.410   2.227
 1346SOL     OW 5413   2.907   4.618   2.360
 1346SOL    HW2 5414   2.989   4.658   2.330
 1346SOL    HW3 5415   2.915   4.526   2.333
 1346SOL    MW4 5416   2.919   4.611   2.353
 1347SOL     OW 5417   2.731   0.094   2.196
 1347SOL    HW2 5418   2.731   0.182   2.233
 1347SOL    HW3 5419   2.805   0.050   2.237
 1347SOL    MW4 5420   2.740   0.100   2.206
 1348SOL     OW 5421   2.729   0.340   2.327
 1348SOL    HW2 5422   2.707   0.368   2.416
 1348SOL    HW3 5423   2.800   0.399   2.300
 1348SOL    MW4 5424   2.735   0.352   2.335
 1349SOL     OW 5425   2.953   0.510   2.259
 1349SOL    HW2 5426   2.956   0.596   2.301
 1349SOL    HW3 5427   2.963   0.529   2.165
 1349SOL    MW4 5428   2.955   0.524   2.252
 1350SOL     OW 5429   2.917   0.767   2.338
 1350SOL    HW2 5430   2.896   0.769   2.431
 1350SOL    HW3 5431   2.836   0.790   2.294
 1350SOL    MW4 5432   2.904   0.770   2.345
 1351SOL     OW 5433   2.659   0.862   2.266
 1351SOL    HW2 5434   2.700   0.944   2.294
 1351SOL    HW3 5435   2.659   0.867   2.170
 1351SOL    MW4 5436   2.665   0.873   2.257
 1352SOL     OW 5437   2.719   1.128   2.357
 1352SOL    HW2 5438   2.725   1.118   2.452
 1352SOL    HW3 5439   2.792   1.184   2.334
 1352SOL    MW4 5440   2.729   1.134   2.366
 1353SOL     OW 5441   2.951   1.269   2.279
 1353SOL    HW2 5442   3.027   1.217   2.307
 1353SOL    HW3 5443   2.956   1.268   2.183
 1353SOL    MW4 5444   2.962   1.262   2.270
 1354SOL     OW 5445   2.939   1.529   2.361
 1354SOL    HW2 5446   2.944   1.517   2.456
 1354SOL    HW3 5447   2.942   1.441   2.325
 1354SOL    MW4 5448   2.940   1.516   2.369
 1355SOL     OW 5449   2.712   1.654   2.298
 1355SOL    HW2 5450   2.796   1.612   2.317
 1355SOL    HW3 5451   2.700   1.642   2.204
 1355SOL    MW4 5452   2.721   1.646   2.288
 1356SOL     OW 5453   2.700   1.935   2.373
 1356SOL    HW2 5454   2.703   1.927   2.468
 1356SOL    HW3 5455   2.700   1.844   2.342
 1356SOL    MW4 5456   2.701   1.922   2.381
 1357SOL     OW 5457   2.909   2.042   2.260
 1357SOL    HW2 5458   2.985   1.999   2.299
 1357SOL    HW3 5459   2.834   1.998   2.301
 1357SOL    MW4 5460   2.909   2.030   2.271
 1358SOL     OW 5461   2.927   2.300   2.359
 1358SOL    HW2 5462   2.934   2.278   2.452
 1358SOL    HW3 5463   2.921   2.215   2.315
 1358SOL    MW4 5464   2.927   2.286   2.365
 1359SOL     OW 5465   2.709   2.414   2.249
 1359SOL    HW2 5466   2.795   2.375   2.263
 1359SOL    HW3 5467   2.706   2.435   2.156
 1359SOL    MW4 5468   2.720   2.411   2.239
 1360SOL     OW 5469   2.675   2.681   2.333
 1360SOL    HW2 5470   2.767   2.705   2.325
 1360SOL    HW3 5471   2.673   2.586   2.319
 1360SOL    MW4 5472   2.687   2.671   2.331
 1361SOL     OW 5473   2.928   2.793   2.259
 1361SOL    HW2 5474   2.924   2.888   2.270
 1361SOL    HW3 5475   2.941   2.780   2.165
 1361SOL    MW4 5476   2.929   2.804   2.248
 1362SOL     OW 5477   2.941   3.062   2.314
 1362SOL    HW2 5478   3.019   3.111   2.287
 1362SOL    HW3 5479   2.868   3.120   2.292
 1362SOL    MW4 5480   2.941   3.076   2.308
 1363SOL     OW 5481   2.739   3.220   2.251
 1363SOL    HW2 5482   2.735   3.311   2.281
 1363SOL    HW3 5483   2.737   3.226   2.156
 1363SOL    MW4 5484   2.738   3.233   2.242
 1364SOL     OW 5485   2.709   3.488   2.323
 1364SOL    HW2 5486   2.784   3.535   2.288
 1364SOL    HW3 5487   2.632   3.533   2.287
 1364SOL    MW4 5488   2.708   3.500   2.314
 1365SOL     OW 5489   2.937   3.591   2.213
 1365SOL    HW2 5490   3.019   3.563   2.254
 1365SOL    HW3 5491   2.929   3.684   2.236
 1365SOL    MW4 5492   2.947   3.600   2.221
 1366SOL     OW 5493   2.897   3.848   2.308
 1366SOL    HW2 5494   2.916   3.859   2.401
 1366SOL    HW3 5495   2.815   3.897   2.294
 1366SOL    MW4 5496   2.889   3.856   2.318
 1367SOL     OW 5497   2.662   3.997   2.254
 1367SOL    HW2 5498   2.596   3.939   2.292
 1367SOL    HW3 5499   2.655   3.981   2.159
 1367SOL    MW4 5500   2.652   3.987   2.246
 1368SOL     OW 5501   2.648   4.268   2.317
 1368SOL    HW2 5502   2.647   4.248   2.411
 1368SOL    HW3 5503   2.650   4.182   2.274
 1368SOL    MW4 5504   2.648   4.254   2.324
 1369SOL     OW 5505   2.900   4.379   2.235
 1369SOL    HW2 5506   2.967   4.321   2.272
 1369SOL    HW3 5507   2.818   4.349   2.273
 1369SOL    MW4 5508   2.898   4.368   2.245
 1370SOL     OW 5509   3.382   4.612   2.331
 1370SOL    HW2 5510   3.404   4.608   2.424
 1370SOL    HW3 5511   3.459   4.653   2.290
 1370SOL    MW4 5512   3.395   4.617   2.338
 1371SOL     OW 5513   3.141   0.054   2.235
 1371SOL    HW2 5514   3.135   0.148   2.256
 1371SOL    HW3 5515   3.220   0.025   2.281
 1371SOL    MW4 5516   3.151   0.063   2.244
 1372SOL     OW 5517   3.144   0.319   2.351
 1372SOL    HW2 5518   3.224   0.355   2.314
 1372SOL    HW3 5519   3.077   0.383   2.331
 1372SOL    MW4 5520   3.146   0.332   2.344
 1373SOL     OW 5521   3.353   0.453   2.240
 1373SOL    HW2 5522   3.438   0.412   2.254
 1373SOL    HW3 5523   3.355   0.480   2.148
 1373SOL    MW4 5524   3.365   0.451   2.230
 1374SOL     OW 5525   3.364   0.712   2.357
 1374SOL    HW2 5526   3.447   0.754   2.336
 1374SOL    HW3 5527   3.370   0.625   2.317
 1374SOL    MW4 5528   3.375   0.706   2.349
 1375SOL     OW 5529   3.163   0.843   2.221
 1375SOL    HW2 5530   3.219   0.789   2.277
 1375SOL    HW3 5531   3.075   0.834   2.258
 1375SOL    MW4 5532   3.159   0.835   2.233
 1376SOL     OW 5533   3.171   1.095   2.366
 1376SOL    HW2 5534   3.248   1.135   2.326
 1376SOL    HW3 5535   3.156   1.016   2.314
 1376SOL    MW4 5536   3.179   1.090   2.354
 1377SOL     OW 5537   3.387   1.239   2.233
 1377SOL    HW2 5538   3.461   1.190   2.269
 1377SOL    HW3 5539   3.387   1.322   2.281
 1377SOL    MW4 5540   3.396   1.243   2.244
 1378SOL     OW 5541   3.379   1.489   2.374
 1378SOL    HW2 5542   3.379   1.508   2.468
 1378SOL    HW3 5543   3.306   1.541   2.339
 1378SOL    MW4 5544   3.369   1.498   2.382
 1379SOL     OW 5545   3.184   1.648   2.296
 1379SOL    HW2 5546   3.176   1.730   2.346
 1379SOL    HW3 5547   3.102   1.602   2.314
 1379SOL    MW4 5548   3.172   1.653   2.305
 1380SOL     OW 5549   3.121   1.891   2.391
 1380SOL    HW2 5550   3.118   1.904   2.486
 1380SOL    HW3 5551   3.190   1.950   2.361
 1380SOL    MW4 5552   3.130   1.901   2.399
 1381SOL     OW 5553   3.366   2.026   2.289
 1381SOL    HW2 5554   3.437   1.975   2.329
 1381SOL    HW3 5555   3.385   2.023   2.195
 1381SOL    MW4 5556   3.378   2.019   2.282
 1382SOL     OW 5557   3.389   2.307   2.340
 1382SOL    HW2 5558   3.300   2.338   2.324
 1382SOL    HW3 5559   3.386   2.215   2.317
 1382SOL    MW4 5560   3.377   2.299   2.335
 1383SOL     OW 5561   3.150   2.418   2.254
 1383SOL    HW2 5562   3.145   2.500   2.303
 1383SOL    HW3 5563   3.068   2.373   2.274
 1383SOL    MW4 5564   3.138   2.423   2.263
 1384SOL     OW 5565   3.168   2.680   2.366
 1384SOL    HW2 5566   3.167   2.680   2.461
 1384SOL    HW3 5567   3.085   2.720   2.341
 1384SOL    MW4 5568   3.157   2.685   2.375
 1385SOL     OW 5569   3.400   2.805   2.250
 1385SOL    HW2 5570   3.420   2.889   2.292
 1385SOL    HW3 5571   3.321   2.775   2.294
 1385SOL    MW4 5572   3.392   2.812   2.261
 1386SOL     OW 5573   3.390   3.070   2.329
 1386SOL    HW2 5574   3.461   3.122   2.293
 1386SOL    HW3 5575   3.310   3.110   2.294
 1386SOL    MW4 5576   3.389   3.082   2.320
 1387SOL     OW 5577   3.173   3.189   2.197
 1387SOL    HW2 5578   3.164   3.277   2.232
 1387SOL    HW3 5579   3.157   3.198   2.103
 1387SOL    MW4 5580   3.170   3.202   2.189
 1388SOL     OW 5581   3.148   3.460   2.330
 1388SOL    HW2 5582   3.145   3.458   2.426
 1388SOL    HW3 5583   3.229   3.506   2.309
 1388SOL    MW4 5584   3.158   3.466   2.340
 1389SOL     OW 5585   3.364   3.590   2.237
 1389SOL    HW2 5586   3.451   3.553   2.255
 1389SOL    HW3 5587   3.357   3.589   2.142
 1389SOL    MW4 5588   3.374   3.585   2.227
 1390SOL     OW 5589   3.353   3.848   2.372
 1390SOL    HW2 5590   3.428   3.887   2.327
 1390SOL    HW3 5591   3.350   3.758   2.342
 1390SOL    MW4 5592   3.363   3.842   2.362
 1391SOL     OW 5593   3.141   3.994   2.238
 1391SOL    HW2 5594   3.215   3.954   2.283
 1391SOL    HW3 5595   3.065   3.945   2.269
 1391SOL    MW4 5596   3.141   3.982   2.248
 1392SOL     OW 5597   3.125   4.251   2.342
 1392SOL    HW2 5598   3.196   4.295   2.296
 1392SOL    HW3 5599   3.135   4.158   2.320
 1392SOL    MW4 5600   3.135   4.244   2.333
 1393SOL     OW 5601   3.371   4.354   2.235
 1393SOL    HW2 5602   3.383   4.440   2.276
 1393SOL    HW3 5603   3.367   4.373   2.141
 1393SOL    MW4 5604   3.372   4.368   2.228
 1394SOL     OW 5605   3.835   4.630   2.340
 1394SOL    HW2 5606   3.857   4.618   2.433
 1394SOL    HW3 5607   3.913   4.674   2.304
 1394SOL    MW4 5608   3.848   4.634   2.348
 1395SOL     OW 5609   3.595   0.071   2.237
 1395SOL    HW2 5610   3.580   0.159   2.273
 1395SOL    HW3 5611   3.673   0.039   2.282
 1395SOL    MW4 5612   3.603   0.079   2.248
 1396SOL     OW 5613   3.597   0.332   2.326
 1396SOL    HW2 5614   3.586   0.343   2.420
 1396SOL    HW3 5615   3.673   0.385   2.304
 1396SOL    MW4 5616   3.605   0.341   2.335
 1397SOL     OW 5617   3.806   0.481   2.247
 1397SOL    HW2 5618   3.830   0.568   2.280
 1397SOL    HW3 5619   3.821   0.487   2.153
 1397SOL    MW4 5620   3.811   0.494   2.239
 1398SOL     OW 5621   3.852   0.742   2.333
 1398SOL    HW2 5622   3.861   0.745   2.428
 1398SOL    HW3 5623   3.924   0.794   2.299
 1398SOL    MW4 5624   3.863   0.749   2.341
 1399SOL     OW 5625   3.585   0.858   2.270
 1399SOL    HW2 5626   3.660   0.812   2.308
 1399SOL    HW3 5627   3.597   0.849   2.176
 1399SOL    MW4 5628   3.597   0.851   2.263
 1400SOL     OW 5629   3.623   1.116   2.336
 1400SOL    HW2 5630   3.619   1.123   2.432
 1400SOL    HW3 5631   3.627   1.021   2.320
 1400SOL    MW4 5632   3.623   1.104   2.347
 1401SOL     OW 5633   3.836   1.257   2.269
 1401SOL    HW2 5634   3.825   1.340   2.314
 1401SOL    HW3 5635   3.761   1.204   2.295
 1401SOL    MW4 5636   3.825   1.261   2.278
 1402SOL     OW 5637   3.854   1.517   2.371
 1402SOL    HW2 5638   3.845   1.519   2.466
 1402SOL    HW3 5639   3.776   1.563   2.339
 1402SOL    MW4 5640   3.842   1.524   2.379
 1403SOL     OW 5641   3.610   1.628   2.286
 1403SOL    HW2 5642   3.533   1.586   2.324
 1403SOL    HW3 5643   3.589   1.636   2.193
 1403SOL    MW4 5644   3.597   1.624   2.278
 1404SOL     OW 5645   3.598   1.890   2.394
 1404SOL    HW2 5646   3.671   1.929   2.345
 1404SOL    HW3 5647   3.588   1.803   2.356
 1404SOL    MW4 5648   3.607   1.884   2.382
 1405SOL     OW 5649   3.805   2.028   2.269
 1405SOL    HW2 5650   3.887   1.988   2.298
 1405SOL    HW3 5651   3.816   2.038   2.174
 1405SOL    MW4 5652   3.817   2.024   2.260
 1406SOL     OW 5653   3.822   2.311   2.359
 1406SOL    HW2 5654   3.749   2.365   2.329
 1406SOL    HW3 5655   3.802   2.223   2.326
 1406SOL    MW4 5656   3.810   2.307   2.350
 1407SOL     OW 5657   3.615   2.455   2.248
 1407SOL    HW2 5658   3.535   2.424   2.291
 1407SOL    HW3 5659   3.593   2.455   2.155
 1407SOL    MW4 5660   3.601   2.451   2.241
 1408SOL     OW 5661   3.631   2.710   2.355
 1408SOL    HW2 5662   3.645   2.620   2.328
 1408SOL    HW3 5663   3.553   2.738   2.306
 1408SOL    MW4 5664   3.622   2.702   2.345
 1409SOL     OW 5665   3.826   2.855   2.234
 1409SOL    HW2 5666   3.825   2.941   2.274
 1409SOL    HW3 5667   3.762   2.804   2.283
 1409SOL    MW4 5668   3.818   2.859   2.245
 1410SOL     OW 5669   3.807   3.106   2.365
 1410SOL    HW2 5670   3.810   3.090   2.459
 1410SOL    HW3 5671   3.888   3.154   2.346
 1410SOL    MW4 5672   3.818   3.110   2.375
 1411SOL     OW 5673   3.594   3.221   2.231
 1411SOL    HW2 5674   3.587   3.311   2.262
 1411SOL    HW3 5675   3.670   3.185   2.277
 1411SOL    MW4 5676   3.603   3.228   2.241
 1412SOL     OW 5677   3.601   3.475   2.335
 1412SOL    HW2 5678   3.603   3.469   2.430
 1412SOL    HW3 5679   3.689   3.502   2.310
 1412SOL    MW4 5680   3.613   3.478   2.344
 1413SOL     OW 5681   3.859   3.569   2.271
 1413SOL    HW2 5682   3.854   3.654   2.313
 1413SOL    HW3 5683   3.876   3.588   2.179
 1413SOL    MW4 5684   3.860   3.583   2.265
 1414SOL     OW 5685   3.795   3.840   2.349
 1414SOL    HW2 5686   3.802   3.838   2.444
 1414SOL    HW3 5687   3.865   3.899   2.321
 1414SOL    MW4 5688   3.805   3.847   2.358
 1415SOL     OW 5689   3.568   3.948   2.235
 1415SOL    HW2 5690   3.578   4.035   2.274
 1415SOL    HW3 5691   3.638   3.896   2.275
 1415SOL    MW4 5692   3.579   3.952   2.245
 1416SOL     OW 5693   3.584   4.203   2.338
 1416SOL    HW2 5694   3.663   4.246   2.305
 1416SOL    HW3 5695   3.512   4.255   2.303
 1416SOL    MW4 5696   3.585   4.216   2.329
 1417SOL     OW 5697   3.802   4.373   2.251
 1417SOL    HW2 5698   3.886   4.334   2.277
 1417SOL    HW3 5699   3.811   4.465   2.276
 1417SOL    MW4 5700   3.814   4.380   2.258
 1418SOL     OW 5701   4.269   4.626   2.359
 1418SOL    HW2 5702   4.260   4.639   2.453
 1418SOL    HW3 5703   4.349   4.673   2.336
 1418SOL    MW4 5704   4.279   4.634   2.368
 1419SOL     OW 5705   4.064   0.095   2.220
 1419SOL    HW2 5706   4.048   0.177   2.267
 1419SOL    HW3 5707   4.136   0.054   2.269
 1419SOL    MW4 5708   4.072   0.101   2.233
 1420SOL     OW 5709   4.026   0.351   2.339
 1420SOL    HW2 5710   4.107   0.385   2.304
 1420SOL    HW3 5711   3.958   0.408   2.304
 1420SOL    MW4 5712   4.027   0.363   2.330
 1421SOL     OW 5713   4.282   0.450   2.264
 1421SOL    HW2 5714   4.286   0.542   2.290
 1421SOL    HW3 5715   4.359   0.410   2.305
 1421SOL    MW4 5716   4.293   0.457   2.272
 1422SOL     OW 5717   4.318   0.719   2.331
 1422SOL    HW2 5718   4.236   0.764   2.313
 1422SOL    HW3 5719   4.384   0.770   2.284
 1422SOL    MW4 5720   4.316   0.732   2.322
 1423SOL     OW 5721   4.078   0.884   2.255
 1423SOL    HW2 5722   4.070   0.958   2.315
 1423SOL    HW3 5723   4.075   0.922   2.168
 1423SOL    MW4 5724   4.077   0.899   2.252
 1424SOL     OW 5725   4.060   1.135   2.368
 1424SOL    HW2 5726   4.061   1.144   2.463
 1424SOL    HW3 5727   3.981   1.182   2.341
 1424SOL    MW4 5728   4.049   1.142   2.377
 1425SOL     OW 5729   4.251   1.279   2.236
 1425SOL    HW2 5730   4.181   1.234   2.284
 1425SOL    HW3 5731   4.332   1.241   2.269
 1425SOL    MW4 5732   4.252   1.268   2.246
 1426SOL     OW 5733   4.268   1.536   2.341
 1426SOL    HW2 5734   4.267   1.451   2.297
 1426SOL    HW3 5735   4.357   1.568   2.330
 1426SOL    MW4 5736   4.280   1.529   2.333
 1427SOL     OW 5737   4.051   1.649   2.223
 1427SOL    HW2 5738   4.132   1.616   2.263
 1427SOL    HW3 5739   3.981   1.603   2.270
 1427SOL    MW4 5740   4.053   1.638   2.235
 1428SOL     OW 5741   4.033   1.897   2.361
 1428SOL    HW2 5742   4.038   1.888   2.457
 1428SOL    HW3 5743   4.028   1.807   2.329
 1428SOL    MW4 5744   4.033   1.884   2.370
 1429SOL     OW 5745   4.254   1.989   2.232
 1429SOL    HW2 5746   4.246   2.076   2.270
 1429SOL    HW3 5747   4.181   1.939   2.269
 1429SOL    MW4 5748   4.244   1.994   2.242
 1430SOL     OW 5749   4.248   2.290   2.287
 1430SOL    HW2 5750   4.167   2.338   2.268
 1430SOL    HW3 5751   4.315   2.338   2.239
 1430SOL    MW4 5752   4.246   2.303   2.278
 1431SOL     OW 5753   4.023   2.436   2.228
 1431SOL    HW2 5754   4.023   2.523   2.266
 1431SOL    HW3 5755   3.944   2.394   2.261
 1431SOL    MW4 5756   4.013   2.442   2.237
 1432SOL     OW 5757   4.030   2.694   2.341
 1432SOL    HW2 5758   4.029   2.687   2.436
 1432SOL    HW3 5759   3.956   2.751   2.320
 1432SOL    MW4 5760   4.020   2.701   2.351
 1433SOL     OW 5761   4.254   2.821   2.204
 1433SOL    HW2 5762   4.183   2.780   2.253
 1433SOL    HW3 5763   4.333   2.774   2.229
 1433SOL    MW4 5764   4.255   2.810   2.214
 1434SOL     OW 5765   4.320   3.097   2.320
 1434SOL    HW2 5766   4.316   3.015   2.271
 1434SOL    HW3 5767   4.393   3.145   2.280
 1434SOL    MW4 5768   4.329   3.092   2.308
 1435SOL     OW 5769   4.052   3.197   2.287
 1435SOL    HW2 5770   4.070   3.288   2.308
 1435SOL    HW3 5771   4.135   3.152   2.303
 1435SOL    MW4 5772   4.065   3.203   2.292
 1436SOL     OW 5773   4.084   3.454   2.381
 1436SOL    HW2 5774   4.162   3.482   2.333
 1436SOL    HW3 5775   4.012   3.505   2.343
 1436SOL    MW4 5776   4.084   3.464   2.369
 1437SOL     OW 5777   4.277   3.586   2.255
 1437SOL    HW2 5778   4.246   3.668   2.293
 1437SOL    HW3 5779   4.266   3.598   2.160
 1437SOL    MW4 5780   4.271   3.598   2.247
 1438SOL     OW 5781   4.224   3.839   2.357
 1438SOL    HW2 5782   4.236   3.852   2.451
 1438SOL    HW3 5783   4.302   3.878   2.317
 1438SOL    MW4 5784   4.236   3.846   2.365
 1439SOL     OW 5785   4.002   4.000   2.250
 1439SOL    HW2 5786   4.073   3.940   2.274
 1439SOL    HW3 5787   4.000   3.996   2.154
 1439SOL    MW4 5788   4.011   3.991   2.240
 1440SOL     OW 5789   4.040   4.250   2.357
 1440SOL    HW2 5790   4.124   4.293   2.340
 1440SOL    HW3 5791   4.039   4.174   2.299
 1440SOL    MW4 5792   4.051   4.246   2.347
 1441SOL     OW 5793   4.269   4.372   2.249
 1441SOL    HW2 5794   4.263   4.454   2.298
 1441SOL    HW3 5795   4.352   4.334   2.278
 1441SOL    MW4 5796   4.279   4.378   2.260
 1442SOL     OW 5797   0.251   0.016   2.597
 1442SOL    HW2 5798   0.253  -0.074   2.630
 1442SOL    HW3 5799   0.171   0.053   2.634
 1442SOL    MW4 5800   0.241   0.009   2.606
 1443SOL     OW 5801   4.489   0.106   2.718
 1443SOL    HW2 5802   4.493   0.103   2.813
 1443SOL    HW3 5803   4.495   0.199   2.697
 1443SOL    MW4 5804   4.491   0.118   2.728
 1444SOL     OW 5805   4.477   0.362   2.640
 1444SOL    HW2 5806   4.560   0.399   2.671
 1444SOL    HW3 5807   4.485   0.359   2.545
 1444SOL    MW4 5808   4.489   0.366   2.632
 1445SOL     OW 5809   0.218   0.481   2.718
 1445SOL    HW2 5810   0.220   0.481   2.813
 1445SOL    HW3 5811   0.303   0.447   2.692
 1445SOL    MW4 5812   0.230   0.477   2.727
 1446SOL     OW 5813   0.207   0.734   2.625
 1446SOL    HW2 5814   0.290   0.775   2.650
 1446SOL    HW3 5815   0.219   0.642   2.647
 1446SOL    MW4 5816   0.220   0.728   2.631
 1447SOL     OW 5817   4.486   0.855   2.732
 1447SOL    HW2 5818   4.412   0.801   2.704
 1447SOL    HW3 5819   4.562   0.817   2.686
 1447SOL    MW4 5820   4.486   0.842   2.722
 1448SOL     OW 5821   0.002   1.105   2.614
 1448SOL    HW2 5822   0.089   1.142   2.629
 1448SOL    HW3 5823   0.008   1.015   2.646
 1448SOL    MW4 5824   0.014   1.098   2.620
 1449SOL     OW 5825   0.241   1.202   2.699
 1449SOL    HW2 5826   0.324   1.165   2.668
 1449SOL    HW3 5827   0.249   1.296   2.682
 1449SOL    MW4 5828   0.253   1.210   2.692
 1450SOL     OW 5829   0.254   1.481   2.644
 1450SOL    HW2 5830   0.318   1.527   2.698
 1450SOL    HW3 5831   0.171   1.523   2.665
 1450SOL    MW4 5832   0.252   1.493   2.654
 1451SOL     OW 5833   0.013   1.601   2.716
 1451SOL    HW2 5834   0.002   1.576   2.808
 1451SOL    HW3 5835   0.019   1.696   2.718
 1451SOL    MW4 5836   0.013   1.610   2.729
 1452SOL     OW 5837   0.008   1.879   2.649
 1452SOL    HW2 5838   0.069   1.948   2.675
 1452SOL    HW3 5839   0.012   1.878   2.554
 1452SOL    MW4 5840   0.017   1.888   2.640
 1453SOL     OW 5841   0.186   2.095   2.706
 1453SOL    HW2 5842   0.268   2.050   2.682
 1453SOL    HW3 5843   0.192   2.180   2.663
 1453SOL    MW4 5844   0.198   2.100   2.697
 1454SOL     OW 5845   0.227   2.348   2.597
 1454SOL    HW2 5846   0.304   2.384   2.640
 1454SOL    HW3 5847   0.153   2.393   2.638
 1454SOL    MW4 5848   0.227   2.358   2.608
 1455SOL     OW 5849   4.481   2.446   2.736
 1455SOL    HW2 5850   4.482   2.433   2.831
 1455SOL    HW3 5851   4.420   2.379   2.704
 1455SOL    MW4 5852   4.473   2.435   2.744
 1456SOL     OW 5853   4.479   2.699   2.601
 1456SOL    HW2 5854   4.393   2.729   2.628
 1456SOL    HW3 5855   4.489   2.613   2.643
 1456SOL    MW4 5856   4.469   2.691   2.610
 1457SOL     OW 5857   0.226   2.803   2.684
 1457SOL    HW2 5858   0.228   2.896   2.661
 1457SOL    HW3 5859   0.142   2.772   2.650
 1457SOL    MW4 5860   0.215   2.811   2.676
 1458SOL     OW 5861   0.235   3.066   2.622
 1458SOL    HW2 5862   0.315   3.103   2.660
 1458SOL    HW3 5863   0.246   3.075   2.528
 1458SOL    MW4 5864   0.247   3.072   2.615
 1459SOL     OW 5865   0.009   3.212   2.702
 1459SOL    HW2 5866  -0.056   3.162   2.653
 1459SOL    HW3 5867   0.093   3.179   2.671
 1459SOL    MW4 5868   0.011   3.201   2.692
 1460SOL     OW 5869   0.031   3.492   2.635
 1460SOL    HW2 5870   0.105   3.531   2.680
 1460SOL    HW3 5871   0.024   3.403   2.671
 1460SOL    MW4 5872   0.040   3.485   2.646
 1461SOL     OW 5873   0.233   3.612   2.745
 1461SOL    HW2 5874   0.241   3.605   2.840
 1461SOL    HW3 5875   0.303   3.557   2.710
 1461SOL    MW4 5876   0.243   3.604   2.753
 1462SOL     OW 5877   0.247   3.875   2.620
 1462SOL    HW2 5878   0.248   3.788   2.661
 1462SOL    HW3 5879   0.225   3.859   2.529
 1462SOL    MW4 5880   0.245   3.861   2.614
 1463SOL     OW 5881   0.013   3.982   2.722
 1463SOL    HW2 5882   0.035   4.075   2.723
 1463SOL    HW3 5883   0.083   3.941   2.670
 1463SOL    MW4 5884   0.026   3.989   2.715
 1464SOL     OW 5885   0.052   4.267   2.646
 1464SOL    HW2 5886  -0.032   4.309   2.665
 1464SOL    HW3 5887   0.118   4.329   2.676
 1464SOL    MW4 5888   0.049   4.281   2.652
 1465SOL     OW 5889   0.253   4.436   2.735
 1465SOL    HW2 5890   0.274   4.431   2.828
 1465SOL    HW3 5891   0.326   4.393   2.690
 1465SOL    MW4 5892   0.265   4.430   2.741
 1466SOL     OW 5893   0.705   0.018   2.590
 1466SOL    HW2 5894   0.779   0.062   2.634
 1466SOL    HW3 5895   0.628   0.054   2.633
 1466SOL    MW4 5896   0.705   0.029   2.602
 1467SOL     OW 5897   0.476   0.138   2.728
 1467SOL    HW2 5898   0.473   0.132   2.823
 1467SOL    HW3 5899   0.393   0.100   2.699
 1467SOL    MW4 5900   0.465   0.132   2.736
 1468SOL     OW 5901   0.468   0.390   2.631
 1468SOL    HW2 5902   0.537   0.441   2.673
 1468SOL    HW3 5903   0.470   0.306   2.676
 1468SOL    MW4 5904   0.478   0.386   2.643
 1469SOL     OW 5905   0.715   0.491   2.726
 1469SOL    HW2 5906   0.721   0.491   2.821
 1469SOL    HW3 5907   0.797   0.450   2.696
 1469SOL    MW4 5908   0.727   0.485   2.734
 1470SOL     OW 5909   0.701   0.758   2.608
 1470SOL    HW2 5910   0.770   0.811   2.647
 1470SOL    HW3 5911   0.713   0.671   2.648
 1470SOL    MW4 5912   0.712   0.753   2.619
 1471SOL     OW 5913   0.453   0.851   2.678
 1471SOL    HW2 5914   0.456   0.944   2.655
 1471SOL    HW3 5915   0.538   0.817   2.651
 1471SOL    MW4 5916   0.464   0.859   2.671
 1472SOL     OW 5917   0.470   1.106   2.599
 1472SOL    HW2 5918   0.537   1.155   2.648
 1472SOL    HW3 5919   0.477   1.139   2.510
 1472SOL    MW4 5920   0.480   1.117   2.594
 1473SOL     OW 5921   0.674   1.242   2.739
 1473SOL    HW2 5922   0.700   1.232   2.830
 1473SOL    HW3 5923   0.750   1.211   2.689
 1473SOL    MW4 5924   0.688   1.236   2.744
 1474SOL     OW 5925   0.651   1.495   2.630
 1474SOL    HW2 5926   0.595   1.552   2.684
 1474SOL    HW3 5927   0.640   1.408   2.669
 1474SOL    MW4 5928   0.642   1.491   2.643
 1475SOL     OW 5929   0.441   1.653   2.770
 1475SOL    HW2 5930   0.434   1.657   2.865
 1475SOL    HW3 5931   0.444   1.744   2.741
 1475SOL    MW4 5932   0.440   1.665   2.778
 1476SOL     OW 5933   0.387   1.898   2.649
 1476SOL    HW2 5934   0.471   1.939   2.668
 1476SOL    HW3 5935   0.390   1.878   2.555
 1476SOL    MW4 5936   0.398   1.901   2.639
 1477SOL     OW 5937   0.642   2.035   2.690
 1477SOL    HW2 5938   0.648   2.040   2.785
 1477SOL    HW3 5939   0.718   1.983   2.663
 1477SOL    MW4 5940   0.653   2.029   2.699
 1478SOL     OW 5941   0.653   2.282   2.577
 1478SOL    HW2 5942   0.718   2.332   2.627
 1478SOL    HW3 5943   0.654   2.195   2.617
 1478SOL    MW4 5944   0.661   2.277   2.589
 1479SOL     OW 5945   0.455   2.435   2.719
 1479SOL    HW2 5946   0.450   2.522   2.680
 1479SOL    HW3 5947   0.517   2.387   2.664
 1479SOL    MW4 5948   0.463   2.440   2.707
 1480SOL     OW 5949   0.426   2.663   2.565
 1480SOL    HW2 5950   0.510   2.690   2.603
 1480SOL    HW3 5951   0.363   2.725   2.601
 1480SOL    MW4 5952   0.429   2.674   2.575
 1481SOL     OW 5953   0.636   2.769   2.725
 1481SOL    HW2 5954   0.658   2.749   2.816
 1481SOL    HW3 5955   0.664   2.860   2.713
 1481SOL    MW4 5956   0.642   2.779   2.735
 1482SOL     OW 5957   0.716   3.024   2.658
 1482SOL    HW2 5958   0.790   3.072   2.696
 1482SOL    HW3 5959   0.720   3.045   2.564
 1482SOL    MW4 5960   0.727   3.033   2.650
 1483SOL     OW 5961   0.479   3.160   2.731
 1483SOL    HW2 5962   0.469   3.147   2.825
 1483SOL    HW3 5963   0.568   3.129   2.712
 1483SOL    MW4 5964   0.490   3.154   2.741
 1484SOL     OW 5965   0.437   3.446   2.648
 1484SOL    HW2 5966   0.440   3.359   2.687
 1484SOL    HW3 5967   0.441   3.430   2.554
 1484SOL    MW4 5968   0.438   3.432   2.641
 1485SOL     OW 5969   0.653   3.611   2.697
 1485SOL    HW2 5970   0.645   3.603   2.792
 1485SOL    HW3 5971   0.589   3.550   2.661
 1485SOL    MW4 5972   0.644   3.602   2.705
 1486SOL     OW 5973   0.647   3.889   2.652
 1486SOL    HW2 5974   0.565   3.932   2.675
 1486SOL    HW3 5975   0.631   3.796   2.673
 1486SOL    MW4 5976   0.634   3.882   2.658
 1487SOL     OW 5977   0.443   4.033   2.746
 1487SOL    HW2 5978   0.442   4.123   2.715
 1487SOL    HW3 5979   0.368   3.992   2.704
 1487SOL    MW4 5980   0.433   4.039   2.737
 1488SOL     OW 5981   0.451   4.293   2.627
 1488SOL    HW2 5982   0.525   4.347   2.655
 1488SOL    HW3 5983   0.451   4.299   2.532
 1488SOL    MW4 5984   0.461   4.301   2.618
 1489SOL     OW 5985   0.674   4.426   2.704
 1489SOL    HW2 5986   0.752   4.389   2.663
 1489SOL    HW3 5987   0.682   4.520   2.687
 1489SOL    MW4 5988   0.685   4.434   2.696
 1490SOL     OW 5989   1.145   4.606   2.600
 1490SOL    HW2 5990   1.210   4.666   2.638
 1490SOL    HW3 5991   1.167   4.521   2.637
 1490SOL    MW4 5992   1.157   4.603   2.610
 1491SOL     OW 5993   0.941   0.128   2.673
 1491SOL    HW2 5994   0.934   0.129   2.769
 1491SOL    HW3 5995   1.003   0.058   2.654
 1491SOL    MW4 5996   0.948   0.119   2.683
 1492SOL     OW 5997   0.925   0.390   2.585
 1492SOL    HW2 5998   0.947   0.303   2.618
 1492SOL    HW3 5999   0.913   0.378   2.491
 1492SOL    MW4 6000   0.926   0.377   2.577
 1493SOL     OW 6001   1.166   0.492   2.703
 1493SOL    HW2 6002   1.168   0.577   2.659
 1493SOL    HW3 6003   1.088   0.449   2.669
 1493SOL    MW4 6004   1.156   0.498   2.693
 1494SOL     OW 6005   1.155   0.724   2.551
 1494SOL    HW2 6006   1.233   0.765   2.589
 1494SOL    HW3 6007   1.144   0.766   2.466
 1494SOL    MW4 6008   1.164   0.735   2.545
 1495SOL     OW 6009   0.956   0.910   2.647
 1495SOL    HW2 6010   0.954   0.902   2.742
 1495SOL    HW3 6011   1.026   0.850   2.620
 1495SOL    MW4 6012   0.965   0.901   2.656
 1496SOL     OW 6013   0.893   1.170   2.597
 1496SOL    HW2 6014   0.908   1.077   2.614
 1496SOL    HW3 6015   0.886   1.175   2.501
 1496SOL    MW4 6016   0.894   1.158   2.586
 1497SOL     OW 6017   1.148   1.259   2.677
 1497SOL    HW2 6018   1.137   1.352   2.657
 1497SOL    HW3 6019   1.063   1.220   2.656
 1497SOL    MW4 6020   1.135   1.267   2.672
 1498SOL     OW 6021   1.128   1.529   2.634
 1498SOL    HW2 6022   1.041   1.549   2.667
 1498SOL    HW3 6023   1.118   1.527   2.539
 1498SOL    MW4 6024   1.115   1.531   2.626
 1499SOL     OW 6025   0.880   1.601   2.730
 1499SOL    HW2 6026   0.867   1.611   2.824
 1499SOL    HW3 6027   0.802   1.554   2.700
 1499SOL    MW4 6028   0.868   1.596   2.738
 1500SOL     OW 6029   0.857   1.870   2.633
 1500SOL    HW2 6030   0.936   1.908   2.672
 1500SOL    HW3 6031   0.852   1.782   2.669
 1500SOL    MW4 6032   0.867   1.864   2.643
 1501SOL     OW 6033   1.091   2.043   2.722
 1501SOL    HW2 6034   1.173   2.002   2.695
 1501SOL    HW3 6035   1.099   2.134   2.694
 1501SOL    MW4 6036   1.103   2.049   2.714
 1502SOL     OW 6037   1.096   2.305   2.609
 1502SOL    HW2 6038   1.180   2.344   2.635
 1502SOL    HW3 6039   1.098   2.309   2.513
 1502SOL    MW4 6040   1.108   2.311   2.600
 1503SOL     OW 6041   0.858   2.434   2.700
 1503SOL    HW2 6042   0.859   2.521   2.662
 1503SOL    HW3 6043   0.945   2.399   2.681
 1503SOL    MW4 6044   0.870   2.441   2.693
 1504SOL     OW 6045   0.876   2.682   2.609
 1504SOL    HW2 6046   0.938   2.735   2.658
 1504SOL    HW3 6047   0.791   2.700   2.648
 1504SOL    MW4 6048   0.873   2.691   2.620
 1505SOL     OW 6049   1.083   2.832   2.742
 1505SOL    HW2 6050   1.106   2.825   2.835
 1505SOL    HW3 6051   1.159   2.795   2.697
 1505SOL    MW4 6052   1.096   2.826   2.749
 1506SOL     OW 6053   1.148   3.096   2.652
 1506SOL    HW2 6054   1.122   3.007   2.675
 1506SOL    HW3 6055   1.136   3.101   2.557
 1506SOL    MW4 6056   1.143   3.085   2.642
 1507SOL     OW 6057   0.919   3.208   2.759
 1507SOL    HW2 6058   0.903   3.286   2.707
 1507SOL    HW3 6059   1.006   3.179   2.731
 1507SOL    MW4 6060   0.928   3.215   2.749
 1508SOL     OW 6061   0.887   3.462   2.656
 1508SOL    HW2 6062   0.961   3.508   2.697
 1508SOL    HW3 6063   0.810   3.512   2.684
 1508SOL    MW4 6064   0.887   3.475   2.665
 1509SOL     OW 6065   1.102   3.599   2.731
 1509SOL    HW2 6066   1.101   3.626   2.823
 1509SOL    HW3 6067   1.100   3.681   2.682
 1509SOL    MW4 6068   1.102   3.613   2.736
 1510SOL     OW 6069   1.098   3.851   2.596
 1510SOL    HW2 6070   1.178   3.889   2.634
 1510SOL    HW3 6071   1.110   3.859   2.501
 1510SOL    MW4 6072   1.110   3.857   2.588
 1511SOL     OW 6073   0.893   4.008   2.702
 1511SOL    HW2 6074   0.958   3.963   2.647
 1511SOL    HW3 6075   0.809   3.970   2.675
 1511SOL    MW4 6076   0.890   3.997   2.691
 1512SOL     OW 6077   0.888   4.266   2.612
 1512SOL    HW2 6078   0.892   4.174   2.637
 1512SOL    HW3 6079   0.884   4.265   2.516
 1512SOL    MW4 6080   0.888   4.254   2.603
 1513SOL     OW 6081   1.144   4.351   2.702
 1513SOL    HW2 6082   1.137   4.378   2.794
 1513SOL    HW3 6083   1.055   4.327   2.677
 1513SOL    MW4 6084   1.131   4.351   2.711
 1514SOL     OW 6085   1.552   4.663   2.579
 1514SOL    HW2 6086   1.563   4.572   2.608
 1514SOL    HW3 6087   1.565   4.659   2.484
 1514SOL    MW4 6088   1.555   4.650   2.570
 1515SOL     OW 6089   1.339   0.121   2.696
 1515SOL    HW2 6090   1.339   0.205   2.651
 1515SOL    HW3 6091   1.415   0.074   2.660
 1515SOL    MW4 6092   1.349   0.126   2.685
 1516SOL     OW 6093   1.364   0.380   2.578
 1516SOL    HW2 6094   1.448   0.410   2.614
 1516SOL    HW3 6095   1.299   0.438   2.617
 1516SOL    MW4 6096   1.367   0.392   2.588
 1517SOL     OW 6097   1.562   0.497   2.714
 1517SOL    HW2 6098   1.651   0.465   2.700
 1517SOL    HW3 6099   1.562   0.585   2.676
 1517SOL    MW4 6100   1.574   0.504   2.707
 1518SOL     OW 6101   1.584   0.757   2.624
 1518SOL    HW2 6102   1.513   0.810   2.659
 1518SOL    HW3 6103   1.571   0.759   2.529
 1518SOL    MW4 6104   1.573   0.764   2.616
 1519SOL     OW 6105   1.335   0.875   2.670
 1519SOL    HW2 6106   1.328   0.892   2.764
 1519SOL    HW3 6107   1.343   0.962   2.631
 1519SOL    MW4 6108   1.335   0.889   2.677
 1520SOL     OW 6109   1.370   1.129   2.564
 1520SOL    HW2 6110   1.450   1.146   2.615
 1520SOL    HW3 6111   1.301   1.175   2.610
 1520SOL    MW4 6112   1.372   1.137   2.577
 1521SOL     OW 6113   1.597   1.223   2.739
 1521SOL    HW2 6114   1.595   1.232   2.835
 1521SOL    HW3 6115   1.687   1.199   2.719
 1521SOL    MW4 6116   1.608   1.221   2.749
 1522SOL     OW 6117   1.561   1.499   2.653
 1522SOL    HW2 6118   1.570   1.408   2.681
 1522SOL    HW3 6119   1.557   1.495   2.557
 1522SOL    MW4 6120   1.562   1.487   2.644
 1523SOL     OW 6121   1.344   1.660   2.747
 1523SOL    HW2 6122   1.422   1.616   2.714
 1523SOL    HW3 6123   1.271   1.616   2.703
 1523SOL    MW4 6124   1.344   1.648   2.737
 1524SOL     OW 6125   1.306   1.926   2.631
 1524SOL    HW2 6126   1.302   1.834   2.659
 1524SOL    HW3 6127   1.303   1.921   2.535
 1524SOL    MW4 6128   1.305   1.913   2.622
 1525SOL     OW 6129   1.535   2.080   2.708
 1525SOL    HW2 6130   1.607   2.030   2.670
 1525SOL    HW3 6131   1.457   2.027   2.691
 1525SOL    MW4 6132   1.534   2.066   2.701
 1526SOL     OW 6133   1.546   2.332   2.588
 1526SOL    HW2 6134   1.625   2.365   2.630
 1526SOL    HW3 6135   1.535   2.244   2.623
 1526SOL    MW4 6136   1.555   2.325   2.598
 1527SOL     OW 6137   1.314   2.440   2.709
 1527SOL    HW2 6138   1.305   2.534   2.697
 1527SOL    HW3 6139   1.400   2.420   2.672
 1527SOL    MW4 6140   1.324   2.450   2.703
 1528SOL     OW 6141   1.332   2.730   2.606
 1528SOL    HW2 6142   1.417   2.767   2.630
 1528SOL    HW3 6143   1.324   2.749   2.512
 1528SOL    MW4 6144   1.342   2.737   2.597
 1529SOL     OW 6145   1.576   2.842   2.707
 1529SOL    HW2 6146   1.576   2.855   2.802
 1529SOL    HW3 6147   1.652   2.786   2.690
 1529SOL    MW4 6148   1.586   2.836   2.717
 1530SOL     OW 6149   1.574   3.090   2.603
 1530SOL    HW2 6150   1.651   3.123   2.649
 1530SOL    HW3 6151   1.567   2.999   2.629
 1530SOL    MW4 6152   1.583   3.083   2.612
 1531SOL     OW 6153   1.380   3.252   2.699
 1531SOL    HW2 6154   1.441   3.188   2.663
 1531SOL    HW3 6155   1.295   3.208   2.697
 1531SOL    MW4 6156   1.377   3.238   2.694
 1532SOL     OW 6157   1.346   3.509   2.607
 1532SOL    HW2 6158   1.353   3.414   2.619
 1532SOL    HW3 6159   1.262   3.532   2.647
 1532SOL    MW4 6160   1.336   3.499   2.614
 1533SOL     OW 6161   1.593   3.605   2.717
 1533SOL    HW2 6162   1.662   3.546   2.687
 1533SOL    HW3 6163   1.512   3.555   2.705
 1533SOL    MW4 6164   1.591   3.591   2.712
 1534SOL     OW 6165   1.591   3.870   2.625
 1534SOL    HW2 6166   1.511   3.903   2.665
 1534SOL    HW3 6167   1.600   3.781   2.660
 1534SOL    MW4 6168   1.582   3.863   2.635
 1535SOL     OW 6169   1.326   3.970   2.694
 1535SOL    HW2 6170   1.331   3.960   2.789
 1535SOL    HW3 6171   1.323   4.065   2.681
 1535SOL    MW4 6172   1.326   3.982   2.705
 1536SOL     OW 6173   1.366   4.249   2.610
 1536SOL    HW2 6174   1.283   4.285   2.641
 1536SOL    HW3 6175   1.354   4.239   2.516
 1536SOL    MW4 6176   1.354   4.252   2.602
 1537SOL     OW 6177   1.576   4.405   2.714
 1537SOL    HW2 6178   1.573   4.394   2.810
 1537SOL    HW3 6179   1.511   4.342   2.682
 1537SOL    MW4 6180   1.567   4.395   2.723
 1538SOL     OW 6181   1.996   4.622   2.606
 1538SOL    HW2 6182   2.075   4.668   2.634
 1538SOL    HW3 6183   1.998   4.626   2.511
 1538SOL    MW4 6184   2.007   4.628   2.597
 1539SOL     OW 6185   1.780   0.085   2.734
 1539SOL    HW2 6186   1.841   0.025   2.692
 1539SOL    HW3 6187   1.696   0.068   2.692
 1539SOL    MW4 6188   1.777   0.075   2.723
 1540SOL     OW 6189   1.790   0.369   2.649
 1540SOL    HW2 6190   1.872   0.396   2.691
 1540SOL    HW3 6191   1.780   0.277   2.673
 1540SOL    MW4 6192   1.800   0.361   2.658
 1541SOL     OW 6193   2.029   0.485   2.749
 1541SOL    HW2 6194   2.100   0.434   2.710
 1541SOL    HW3 6195   2.023   0.563   2.695
 1541SOL    MW4 6196   2.038   0.488   2.737
 1542SOL     OW 6197   2.017   0.706   2.598
 1542SOL    HW2 6198   1.934   0.734   2.637
 1542SOL    HW3 6199   2.010   0.729   2.506
 1542SOL    MW4 6200   2.005   0.713   2.591
 1543SOL     OW 6201   1.807   0.871   2.724
 1543SOL    HW2 6202   1.815   0.951   2.673
 1543SOL    HW3 6203   1.722   0.834   2.698
 1543SOL    MW4 6204   1.797   0.877   2.714
 1544SOL     OW 6205   1.836   1.124   2.633
 1544SOL    HW2 6206   1.915   1.162   2.671
 1544SOL    HW3 6207   1.848   1.132   2.539
 1544SOL    MW4 6208   1.848   1.130   2.626
 1545SOL     OW 6209   2.033   1.300   2.702
 1545SOL    HW2 6210   2.040   1.316   2.796
 1545SOL    HW3 6211   2.105   1.240   2.683
 1545SOL    MW4 6212   2.044   1.294   2.712
 1546SOL     OW 6213   1.996   1.567   2.604
 1546SOL    HW2 6214   1.915   1.601   2.643
 1546SOL    HW3 6215   2.006   1.479   2.640
 1546SOL    MW4 6216   1.986   1.560   2.614
 1547SOL     OW 6217   1.757   1.681   2.701
 1547SOL    HW2 6218   1.779   1.685   2.794
 1547SOL    HW3 6219   1.699   1.606   2.693
 1547SOL    MW4 6220   1.752   1.672   2.712
 1548SOL     OW 6221   1.750   1.939   2.589
 1548SOL    HW2 6222   1.837   1.967   2.618
 1548SOL    HW3 6223   1.736   1.855   2.632
 1548SOL    MW4 6224   1.760   1.932   2.599
 1549SOL     OW 6225   1.977   2.019   2.695
 1549SOL    HW2 6226   1.981   2.013   2.791
 1549SOL    HW3 6227   1.987   2.113   2.677
 1549SOL    MW4 6228   1.979   2.031   2.705
 1550SOL     OW 6229   2.025   2.322   2.618
 1550SOL    HW2 6230   2.096   2.378   2.649
 1550SOL    HW3 6231   2.029   2.329   2.522
 1550SOL    MW4 6232   2.035   2.330   2.609
 1551SOL     OW 6233   1.774   2.428   2.708
 1551SOL    HW2 6234   1.776   2.424   2.803
 1551SOL    HW3 6235   1.858   2.391   2.680
 1551SOL    MW4 6236   1.786   2.423   2.717
 1552SOL     OW 6237   1.800   2.707   2.631
 1552SOL    HW2 6238   1.792   2.617   2.663
 1552SOL    HW3 6239   1.770   2.703   2.540
 1552SOL    MW4 6240   1.795   2.695   2.624
 1553SOL     OW 6241   1.993   2.857   2.751
 1553SOL    HW2 6242   2.065   2.810   2.708
 1553SOL    HW3 6243   1.914   2.811   2.723
 1553SOL    MW4 6244   1.992   2.845   2.742
 1554SOL     OW 6245   2.031   3.087   2.605
 1554SOL    HW2 6246   2.039   3.003   2.650
 1554SOL    HW3 6247   2.011   3.064   2.515
 1554SOL    MW4 6248   2.030   3.073   2.599
 1555SOL     OW 6249   1.795   3.204   2.738
 1555SOL    HW2 6250   1.800   3.293   2.705
 1555SOL    HW3 6251   1.877   3.163   2.711
 1555SOL    MW4 6252   1.806   3.210   2.730
 1556SOL     OW 6253   1.799   3.457   2.633
 1556SOL    HW2 6254   1.869   3.519   2.653
 1556SOL    HW3 6255   1.816   3.430   2.543
 1556SOL    MW4 6256   1.810   3.462   2.624
 1557SOL     OW 6257   2.003   3.647   2.699
 1557SOL    HW2 6258   2.009   3.641   2.794
 1557SOL    HW3 6259   2.081   3.601   2.667
 1557SOL    MW4 6260   2.014   3.640   2.707
 1558SOL     OW 6261   1.997   3.918   2.596
 1558SOL    HW2 6262   1.931   3.958   2.652
 1558SOL    HW3 6263   2.003   3.827   2.628
 1558SOL    MW4 6264   1.989   3.911   2.608
 1559SOL     OW 6265   1.775   4.042   2.737
 1559SOL    HW2 6266   1.760   4.130   2.701
 1559SOL    HW3 6267   1.715   3.986   2.687
 1559SOL    MW4 6268   1.765   4.046   2.726
 1560SOL     OW 6269   1.811   4.287   2.622
 1560SOL    HW2 6270   1.738   4.342   2.651
 1560SOL    HW3 6271   1.799   4.279   2.527
 1560SOL    MW4 6272   1.800   4.293   2.613
 1561SOL     OW 6273   2.042   4.375   2.740
 1561SOL    HW2 6274   1.958   4.333   2.721
 1561SOL    HW3 6275   2.033   4.464   2.706
 1561SOL    MW4 6276   2.030   4.381   2.733
 1562SOL     OW 6277   2.481   4.616   2.601
 1562SOL    HW2 6278   2.557   4.661   2.638
 1562SOL    HW3 6279   2.474   4.650   2.512
 1562SOL    MW4 6280   2.490   4.627   2.594
 1563SOL     OW 6281   2.228   0.067   2.707
 1563SOL    HW2 6282   2.225   0.077   2.802
 1563SOL    HW3 6283   2.306   0.014   2.690
 1563SOL    MW4 6284   2.238   0.062   2.717
 1564SOL     OW 6285   2.247   0.340   2.641
 1564SOL    HW2 6286   2.247   0.244   2.643
 1564SOL    HW3 6287   2.227   0.361   2.550
 1564SOL    MW4 6288   2.245   0.330   2.629
 1565SOL     OW 6289   2.453   0.486   2.757
 1565SOL    HW2 6290   2.449   0.566   2.705
 1565SOL    HW3 6291   2.378   0.434   2.728
 1565SOL    MW4 6292   2.442   0.490   2.746
 1566SOL     OW 6293   2.430   0.737   2.618
 1566SOL    HW2 6294   2.349   0.765   2.661
 1566SOL    HW3 6295   2.409   0.738   2.524
 1566SOL    MW4 6296   2.417   0.741   2.611
 1567SOL     OW 6297   2.210   0.859   2.735
 1567SOL    HW2 6298   2.209   0.862   2.831
 1567SOL    HW3 6299   2.132   0.809   2.712
 1567SOL    MW4 6300   2.200   0.853   2.745
 1568SOL     OW 6301   2.246   1.131   2.650
 1568SOL    HW2 6302   2.245   1.042   2.686
 1568SOL    HW3 6303   2.253   1.118   2.556
 1568SOL    MW4 6304   2.247   1.117   2.643
 1569SOL     OW 6305   2.458   1.274   2.761
 1569SOL    HW2 6306   2.541   1.249   2.719
 1569SOL    HW3 6307   2.392   1.220   2.717
 1569SOL    MW4 6308   2.460   1.263   2.749
 1570SOL     OW 6309   2.420   1.528   2.652
 1570SOL    HW2 6310   2.354   1.585   2.693
 1570SOL    HW3 6311   2.422   1.451   2.708
 1570SOL    MW4 6312   2.412   1.526   2.665
 1571SOL     OW 6313   2.206   1.692   2.739
 1571SOL    HW2 6314   2.209   1.784   2.714
 1571SOL    HW3 6315   2.132   1.656   2.690
 1571SOL    MW4 6316   2.197   1.699   2.729
 1572SOL     OW 6317   2.258   1.941   2.638
 1572SOL    HW2 6318   2.171   1.979   2.634
 1572SOL    HW3 6319   2.281   1.924   2.546
 1572SOL    MW4 6320   2.250   1.943   2.625
 1573SOL     OW 6321   2.484   2.013   2.768
 1573SOL    HW2 6322   2.477   2.103   2.738
 1573SOL    HW3 6323   2.412   1.967   2.725
 1573SOL    MW4 6324   2.474   2.019   2.758
 1574SOL     OW 6325   2.480   2.303   2.646
 1574SOL    HW2 6326   2.566   2.340   2.666
 1574SOL    HW3 6327   2.477   2.301   2.551
 1574SOL    MW4 6328   2.491   2.308   2.636
 1575SOL     OW 6329   2.251   2.489   2.689
 1575SOL    HW2 6330   2.265   2.497   2.784
 1575SOL    HW3 6331   2.316   2.425   2.661
 1575SOL    MW4 6332   2.261   2.481   2.698
 1576SOL     OW 6333   2.223   2.771   2.607
 1576SOL    HW2 6334   2.294   2.824   2.641
 1576SOL    HW3 6335   2.242   2.682   2.638
 1576SOL    MW4 6336   2.235   2.766   2.616
 1577SOL     OW 6337   2.478   2.847   2.695
 1577SOL    HW2 6338   2.534   2.784   2.650
 1577SOL    HW3 6339   2.508   2.933   2.664
 1577SOL    MW4 6340   2.489   2.850   2.685
 1578SOL     OW 6341   2.501   3.097   2.571
 1578SOL    HW2 6342   2.418   3.140   2.592
 1578SOL    HW3 6343   2.512   3.110   2.477
 1578SOL    MW4 6344   2.492   3.104   2.562
 1579SOL     OW 6345   2.252   3.230   2.675
 1579SOL    HW2 6346   2.242   3.232   2.770
 1579SOL    HW3 6347   2.171   3.190   2.643
 1579SOL    MW4 6348   2.240   3.225   2.683
 1580SOL     OW 6349   2.227   3.489   2.628
 1580SOL    HW2 6350   2.312   3.534   2.635
 1580SOL    HW3 6351   2.246   3.399   2.653
 1580SOL    MW4 6352   2.241   3.483   2.632
 1581SOL     OW 6353   2.486   3.604   2.682
 1581SOL    HW2 6354   2.475   3.621   2.776
 1581SOL    HW3 6355   2.458   3.685   2.639
 1581SOL    MW4 6356   2.481   3.617   2.689
 1582SOL     OW 6357   2.454   3.873   2.593
 1582SOL    HW2 6358   2.533   3.896   2.642
 1582SOL    HW3 6359   2.382   3.907   2.646
 1582SOL    MW4 6360   2.455   3.880   2.606
 1583SOL     OW 6361   2.238   3.991   2.707
 1583SOL    HW2 6362   2.237   3.998   2.802
 1583SOL    HW3 6363   2.151   3.959   2.684
 1583SOL    MW4 6364   2.226   3.987   2.716
 1584SOL     OW 6365   2.257   4.247   2.616
 1584SOL    HW2 6366   2.253   4.157   2.647
 1584SOL    HW3 6367   2.179   4.288   2.653
 1584SOL    MW4 6368   2.246   4.241   2.625
 1585SOL     OW 6369   2.486   4.357   2.717
 1585SOL    HW2 6370   2.408   4.306   2.694
 1585SOL    HW3 6371   2.479   4.437   2.665
 1585SOL    MW4 6372   2.475   4.361   2.707
 1586SOL     OW 6373   2.915   4.623   2.637
 1586SOL    HW2 6374   3.000   4.665   2.652
 1586SOL    HW3 6375   2.902   4.627   2.542
 1586SOL    MW4 6376   2.925   4.629   2.627
 1587SOL     OW 6377   2.699   0.094   2.730
 1587SOL    HW2 6378   2.701   0.106   2.825
 1587SOL    HW3 6379   2.773   0.036   2.711
 1587SOL    MW4 6380   2.709   0.088   2.740
 1588SOL     OW 6381   2.672   0.359   2.612
 1588SOL    HW2 6382   2.681   0.266   2.634
 1588SOL    HW3 6383   2.589   0.385   2.653
 1588SOL    MW4 6384   2.662   0.350   2.620
 1589SOL     OW 6385   2.930   0.511   2.710
 1589SOL    HW2 6386   2.932   0.601   2.679
 1589SOL    HW3 6387   2.858   0.471   2.661
 1589SOL    MW4 6388   2.921   0.517   2.699
 1590SOL     OW 6389   2.916   0.766   2.624
 1590SOL    HW2 6390   2.980   0.820   2.671
 1590SOL    HW3 6391   2.831   0.807   2.645
 1590SOL    MW4 6392   2.913   0.779   2.633
 1591SOL     OW 6393   2.668   0.863   2.717
 1591SOL    HW2 6394   2.677   0.859   2.812
 1591SOL    HW3 6395   2.586   0.818   2.699
 1591SOL    MW4 6396   2.658   0.857   2.727
 1592SOL     OW 6397   2.684   1.134   2.641
 1592SOL    HW2 6398   2.764   1.167   2.682
 1592SOL    HW3 6399   2.682   1.041   2.664
 1592SOL    MW4 6400   2.695   1.126   2.649
 1593SOL     OW 6401   2.903   1.253   2.747
 1593SOL    HW2 6402   2.912   1.256   2.843
 1593SOL    HW3 6403   2.984   1.214   2.716
 1593SOL    MW4 6404   2.915   1.248   2.756
 1594SOL     OW 6405   2.907   1.514   2.665
 1594SOL    HW2 6406   2.818   1.548   2.665
 1594SOL    HW3 6407   2.898   1.421   2.683
 1594SOL    MW4 6408   2.894   1.507   2.667
 1595SOL     OW 6409   2.658   1.630   2.728
 1595SOL    HW2 6410   2.648   1.624   2.823
 1595SOL    HW3 6411   2.574   1.602   2.693
 1595SOL    MW4 6412   2.646   1.626   2.736
 1596SOL     OW 6413   2.677   1.887   2.643
 1596SOL    HW2 6414   2.665   1.794   2.658
 1596SOL    HW3 6415   2.604   1.929   2.689
 1596SOL    MW4 6416   2.666   1.880   2.651
 1597SOL     OW 6417   2.900   2.007   2.780
 1597SOL    HW2 6418   2.890   2.088   2.730
 1597SOL    HW3 6419   2.822   1.956   2.758
 1597SOL    MW4 6420   2.889   2.011   2.771
 1598SOL     OW 6421   2.911   2.265   2.632
 1598SOL    HW2 6422   2.993   2.302   2.666
 1598SOL    HW3 6423   2.844   2.329   2.655
 1598SOL    MW4 6424   2.913   2.278   2.639
 1599SOL     OW 6425   2.716   2.427   2.723
 1599SOL    HW2 6426   2.723   2.439   2.818
 1599SOL    HW3 6427   2.705   2.515   2.688
 1599SOL    MW4 6428   2.715   2.440   2.731
 1600SOL     OW 6429   2.691   2.688   2.603
 1600SOL    HW2 6430   2.768   2.742   2.618
 1600SOL    HW3 6431   2.674   2.694   2.509
 1600SOL    MW4 6432   2.699   2.696   2.593
 1601SOL     OW 6433   2.919   2.813   2.726
 1601SOL    HW2 6434   2.911   2.789   2.818
 1601SOL    HW3 6435   2.914   2.909   2.725
 1601SOL    MW4 6436   2.917   2.822   2.738
 1602SOL     OW 6437   2.921   3.067   2.603
 1602SOL    HW2 6438   2.843   3.117   2.629
 1602SOL    HW3 6439   2.923   3.075   2.507
 1602SOL    MW4 6440   2.911   3.075   2.594
 1603SOL     OW 6441   2.718   3.219   2.705
 1603SOL    HW2 6442   2.722   3.310   2.675
 1603SOL    HW3 6443   2.645   3.181   2.657
 1603SOL    MW4 6444   2.709   3.226   2.695
 1604SOL     OW 6445   2.722   3.476   2.609
 1604SOL    HW2 6446   2.649   3.534   2.631
 1604SOL    HW3 6447   2.729   3.480   2.514
 1604SOL    MW4 6448   2.713   3.484   2.599
 1605SOL     OW 6449   2.923   3.606   2.739
 1605SOL    HW2 6450   2.922   3.593   2.834
 1605SOL    HW3 6451   2.852   3.551   2.707
 1605SOL    MW4 6452   2.913   3.597   2.747
 1606SOL     OW 6453   2.938   3.860   2.606
 1606SOL    HW2 6454   3.006   3.913   2.648
 1606SOL    HW3 6455   2.926   3.785   2.665
 1606SOL    MW4 6456   2.945   3.857   2.620
 1607SOL     OW 6457   2.693   3.959   2.711
 1607SOL    HW2 6458   2.703   4.042   2.663
 1607SOL    HW3 6459   2.775   3.913   2.697
 1607SOL    MW4 6460   2.705   3.964   2.703
 1608SOL     OW 6461   2.682   4.217   2.576
 1608SOL    HW2 6462   2.755   4.271   2.606
 1608SOL    HW3 6463   2.606   4.251   2.624
 1608SOL    MW4 6464   2.681   4.229   2.586
 1609SOL     OW 6465   2.896   4.359   2.694
 1609SOL    HW2 6466   2.901   4.353   2.789
 1609SOL    HW3 6467   2.899   4.452   2.675
 1609SOL    MW4 6468   2.897   4.370   2.704
 1610SOL     OW 6469   3.397   4.621   2.605
 1610SOL    HW2 6470   3.388   4.530   2.631
 1610SOL    HW3 6471   3.326   4.667   2.650
 1610SOL    MW4 6472   3.387   4.615   2.614
 1611SOL     OW 6473   3.160   0.058   2.718
 1611SOL    HW2 6474   3.174   0.039   2.811
 1611SOL    HW3 6475   3.153   0.153   2.713
 1611SOL    MW4 6476   3.161   0.068   2.730
 1612SOL     OW 6477   3.143   0.335   2.664
 1612SOL    HW2 6478   3.064   0.382   2.689
 1612SOL    HW3 6479   3.145   0.341   2.568
 1612SOL    MW4 6480   3.133   0.342   2.654
 1613SOL     OW 6481   3.359   0.498   2.744
 1613SOL    HW2 6482   3.319   0.580   2.716
 1613SOL    HW3 6483   3.299   0.430   2.714
 1613SOL    MW4 6484   3.346   0.500   2.737
 1614SOL     OW 6485   3.342   0.785   2.645
 1614SOL    HW2 6486   3.433   0.812   2.655
 1614SOL    HW3 6487   3.337   0.750   2.556
 1614SOL    MW4 6488   3.353   0.784   2.634
 1615SOL     OW 6489   3.117   0.890   2.756
 1615SOL    HW2 6490   3.124   0.876   2.850
 1615SOL    HW3 6491   3.206   0.873   2.723
 1615SOL    MW4 6492   3.130   0.886   2.764
 1616SOL     OW 6493   3.126   1.139   2.641
 1616SOL    HW2 6494   3.106   1.052   2.677
 1616SOL    HW3 6495   3.137   1.123   2.547
 1616SOL    MW4 6496   3.124   1.125   2.634
 1617SOL     OW 6497   3.354   1.272   2.735
 1617SOL    HW2 6498   3.359   1.262   2.830
 1617SOL    HW3 6499   3.275   1.224   2.710
 1617SOL    MW4 6500   3.344   1.265   2.744
 1618SOL     OW 6501   3.372   1.540   2.659
 1618SOL    HW2 6502   3.288   1.571   2.692
 1618SOL    HW3 6503   3.374   1.447   2.681
 1618SOL    MW4 6504   3.361   1.532   2.666
 1619SOL     OW 6505   3.144   1.620   2.791
 1619SOL    HW2 6506   3.127   1.706   2.753
 1619SOL    HW3 6507   3.070   1.566   2.762
 1619SOL    MW4 6508   3.132   1.624   2.782
 1620SOL     OW 6509   3.112   1.878   2.676
 1620SOL    HW2 6510   3.185   1.932   2.708
 1620SOL    HW3 6511   3.035   1.916   2.718
 1620SOL    MW4 6512   3.112   1.890   2.686
 1621SOL     OW 6513   3.339   2.022   2.735
 1621SOL    HW2 6514   3.357   2.034   2.828
 1621SOL    HW3 6515   3.334   2.111   2.700
 1621SOL    MW4 6516   3.341   2.036   2.743
 1622SOL     OW 6517   3.355   2.281   2.622
 1622SOL    HW2 6518   3.432   2.330   2.651
 1622SOL    HW3 6519   3.361   2.280   2.527
 1622SOL    MW4 6520   3.366   2.288   2.613
 1623SOL     OW 6521   3.124   2.408   2.729
 1623SOL    HW2 6522   3.125   2.501   2.707
 1623SOL    HW3 6523   3.205   2.374   2.693
 1623SOL    MW4 6524   3.135   2.416   2.721
 1624SOL     OW 6525   3.150   2.681   2.653
 1624SOL    HW2 6526   3.231   2.731   2.666
 1624SOL    HW3 6527   3.080   2.740   2.681
 1624SOL    MW4 6528   3.152   2.695   2.659
 1625SOL     OW 6529   3.358   2.838   2.696
 1625SOL    HW2 6530   3.341   2.841   2.790
 1625SOL    HW3 6531   3.447   2.805   2.688
 1625SOL    MW4 6532   3.367   2.834   2.707
 1626SOL     OW 6533   3.386   3.091   2.617
 1626SOL    HW2 6534   3.381   3.000   2.647
 1626SOL    HW3 6535   3.381   3.085   2.522
 1626SOL    MW4 6536   3.385   3.078   2.609
 1627SOL     OW 6537   3.137   3.205   2.732
 1627SOL    HW2 6538   3.213   3.170   2.686
 1627SOL    HW3 6539   3.062   3.171   2.684
 1627SOL    MW4 6540   3.137   3.196   2.720
 1628SOL     OW 6541   3.118   3.468   2.612
 1628SOL    HW2 6542   3.117   3.388   2.665
 1628SOL    HW3 6543   3.057   3.527   2.656
 1628SOL    MW4 6544   3.110   3.465   2.625
 1629SOL     OW 6545   3.355   3.553   2.701
 1629SOL    HW2 6546   3.338   3.553   2.795
 1629SOL    HW3 6547   3.272   3.527   2.662
 1629SOL    MW4 6548   3.342   3.549   2.708
 1630SOL     OW 6549   3.395   3.820   2.637
 1630SOL    HW2 6550   3.384   3.726   2.650
 1630SOL    HW3 6551   3.388   3.832   2.543
 1630SOL    MW4 6552   3.392   3.809   2.627
 1631SOL     OW 6553   3.171   3.986   2.712
 1631SOL    HW2 6554   3.188   4.077   2.690
 1631SOL    HW3 6555   3.251   3.940   2.688
 1631SOL    MW4 6556   3.184   3.992   2.706
 1632SOL     OW 6557   3.128   4.263   2.612
 1632SOL    HW2 6558   3.045   4.300   2.642
 1632SOL    HW3 6559   3.122   4.264   2.517
 1632SOL    MW4 6560   3.116   4.268   2.604
 1633SOL     OW 6561   3.369   4.349   2.688
 1633SOL    HW2 6562   3.383   4.346   2.783
 1633SOL    HW3 6563   3.281   4.312   2.676
 1633SOL    MW4 6564   3.359   4.344   2.699
 1634SOL     OW 6565   3.857   4.629   2.626
 1634SOL    HW2 6566   3.844   4.537   2.649
 1634SOL    HW3 6567   3.776   4.672   2.653
 1634SOL    MW4 6568   3.845   4.623   2.633
 1635SOL     OW 6569   3.637   0.095   2.719
 1635SOL    HW2 6570   3.633   0.189   2.700
 1635SOL    HW3 6571   3.571   0.056   2.661
 1635SOL    MW4 6572   3.628   0.102   2.709
 1636SOL     OW 6573   3.620   0.374   2.617
 1636SOL    HW2 6574   3.703   0.408   2.652
 1636SOL    HW3 6575   3.555   0.438   2.646
 1636SOL    MW4 6576   3.622   0.387   2.626
 1637SOL     OW 6577   3.836   0.483   2.751
 1637SOL    HW2 6578   3.840   0.455   2.842
 1637SOL    HW3 6579   3.916   0.447   2.711
 1637SOL    MW4 6580   3.847   0.475   2.758
 1638SOL     OW 6581   3.830   0.730   2.618
 1638SOL    HW2 6582   3.765   0.791   2.653
 1638SOL    HW3 6583   3.818   0.650   2.669
 1638SOL    MW4 6584   3.820   0.728   2.630
 1639SOL     OW 6585   3.613   0.880   2.721
 1639SOL    HW2 6586   3.624   0.881   2.816
 1639SOL    HW3 6587   3.605   0.972   2.697
 1639SOL    MW4 6588   3.613   0.892   2.730
 1640SOL     OW 6589   3.587   1.136   2.622
 1640SOL    HW2 6590   3.660   1.183   2.663
 1640SOL    HW3 6591   3.510   1.166   2.670
 1640SOL    MW4 6592   3.587   1.147   2.634
 1641SOL     OW 6593   3.802   1.272   2.776
 1641SOL    HW2 6594   3.877   1.231   2.734
 1641SOL    HW3 6595   3.790   1.354   2.728
 1641SOL    MW4 6596   3.810   1.278   2.764
 1642SOL     OW 6597   3.793   1.524   2.642
 1642SOL    HW2 6598   3.875   1.550   2.684
 1642SOL    HW3 6599   3.725   1.559   2.698
 1642SOL    MW4 6600   3.795   1.532   2.655
 1643SOL     OW 6601   3.598   1.641   2.780
 1643SOL    HW2 6602   3.611   1.730   2.749
 1643SOL    HW3 6603   3.510   1.618   2.750
 1643SOL    MW4 6604   3.588   1.649   2.772
 1644SOL     OW 6605   3.619   1.886   2.675
 1644SOL    HW2 6606   3.537   1.930   2.696
 1644SOL    HW3 6607   3.613   1.865   2.582
 1644SOL    MW4 6608   3.607   1.889   2.666
 1645SOL     OW 6609   3.842   2.049   2.744
 1645SOL    HW2 6610   3.917   1.994   2.723
 1645SOL    HW3 6611   3.766   1.992   2.728
 1645SOL    MW4 6612   3.842   2.034   2.739
 1646SOL     OW 6613   3.785   2.304   2.642
 1646SOL    HW2 6614   3.808   2.218   2.676
 1646SOL    HW3 6615   3.801   2.298   2.548
 1646SOL    MW4 6616   3.790   2.292   2.634
 1647SOL     OW 6617   3.547   2.436   2.730
 1647SOL    HW2 6618   3.554   2.421   2.824
 1647SOL    HW3 6619   3.623   2.392   2.692
 1647SOL    MW4 6620   3.558   2.428   2.737
 1648SOL     OW 6621   3.595   2.701   2.661
 1648SOL    HW2 6622   3.574   2.617   2.702
 1648SOL    HW3 6623   3.586   2.685   2.567
 1648SOL    MW4 6624   3.591   2.688   2.654
 1649SOL     OW 6625   3.832   2.812   2.738
 1649SOL    HW2 6626   3.900   2.768   2.687
 1649SOL    HW3 6627   3.752   2.764   2.717
 1649SOL    MW4 6628   3.831   2.800   2.728
 1650SOL     OW 6629   3.808   3.076   2.635
 1650SOL    HW2 6630   3.735   3.118   2.680
 1650SOL    HW3 6631   3.815   2.989   2.674
 1650SOL    MW4 6632   3.800   3.070   2.646
 1651SOL     OW 6633   3.587   3.206   2.738
 1651SOL    HW2 6634   3.598   3.284   2.683
 1651SOL    HW3 6635   3.515   3.158   2.697
 1651SOL    MW4 6636   3.579   3.210   2.725
 1652SOL     OW 6637   3.611   3.440   2.597
 1652SOL    HW2 6638   3.675   3.498   2.636
 1652SOL    HW3 6639   3.527   3.471   2.630
 1652SOL    MW4 6640   3.608   3.451   2.606
 1653SOL     OW 6641   3.780   3.606   2.738
 1653SOL    HW2 6642   3.869   3.569   2.740
 1653SOL    HW3 6643   3.792   3.695   2.704
 1653SOL    MW4 6644   3.794   3.613   2.733
 1654SOL     OW 6645   3.816   3.848   2.625
 1654SOL    HW2 6646   3.903   3.882   2.650
 1654SOL    HW3 6647   3.755   3.902   2.675
 1654SOL    MW4 6648   3.820   3.859   2.635
 1655SOL     OW 6649   3.605   3.976   2.749
 1655SOL    HW2 6650   3.593   4.052   2.693
 1655SOL    HW3 6651   3.530   3.920   2.732
 1655SOL    MW4 6652   3.594   3.979   2.740
 1656SOL     OW 6653   3.604   4.232   2.622
 1656SOL    HW2 6654   3.524   4.282   2.643
 1656SOL    HW3 6655   3.593   4.208   2.530
 1656SOL    MW4 6656   3.592   4.236   2.612
 1657SOL     OW 6657   3.830   4.356   2.724
 1657SOL    HW2 6658   3.905   4.318   2.678
 1657SOL    HW3 6659   3.754   4.327   2.674
 1657SOL    MW4 6660   3.830   4.347   2.711
 1658SOL     OW 6661   4.271   4.615   2.645
 1658SOL    HW2 6662   4.201   4.670   2.681
 1658SOL    HW3 6663   4.352   4.652   2.682
 1658SOL    MW4 6664   4.273   4.627   2.655
 1659SOL     OW 6665   4.065   0.117   2.719
 1659SOL    HW2 6666   4.070   0.128   2.814
 1659SOL    HW3 6667   3.985   0.067   2.705
 1659SOL    MW4 6668   4.055   0.112   2.730
 1660SOL     OW 6669   4.076   0.370   2.605
 1660SOL    HW2 6670   4.068   0.281   2.639
 1660SOL    HW3 6671   4.058   0.362   2.512
 1660SOL    MW4 6672   4.072   0.357   2.597
 1661SOL     OW 6673   4.274   0.497   2.785
 1661SOL    HW2 6674   4.203   0.451   2.742
 1661SOL    HW3 6675   4.354   0.462   2.745
 1661SOL    MW4 6676   4.275   0.487   2.774
 1662SOL     OW 6677   4.277   0.718   2.623
 1662SOL    HW2 6678   4.273   0.640   2.678
 1662SOL    HW3 6679   4.313   0.686   2.540
 1662SOL    MW4 6680   4.281   0.703   2.619
 1663SOL     OW 6681   4.061   0.862   2.725
 1663SOL    HW2 6682   4.142   0.819   2.699
 1663SOL    HW3 6683   3.991   0.806   2.690
 1663SOL    MW4 6684   4.062   0.849   2.717
 1664SOL     OW 6685   4.015   1.131   2.650
 1664SOL    HW2 6686   4.097   1.164   2.686
 1664SOL    HW3 6687   4.015   1.038   2.673
 1664SOL    MW4 6688   4.026   1.123   2.658
 1665SOL     OW 6689   4.254   1.207   2.752
 1665SOL    HW2 6690   4.275   1.293   2.716
 1665SOL    HW3 6691   4.333   1.155   2.736
 1665SOL    MW4 6692   4.267   1.211   2.745
 1666SOL     OW 6693   4.263   1.492   2.656
 1666SOL    HW2 6694   4.348   1.530   2.675
 1666SOL    HW3 6695   4.261   1.483   2.560
 1666SOL    MW4 6696   4.274   1.496   2.646
 1667SOL     OW 6697   4.046   1.632   2.727
 1667SOL    HW2 6698   4.044   1.663   2.817
 1667SOL    HW3 6699   4.125   1.580   2.721
 1667SOL    MW4 6700   4.056   1.629   2.738
 1668SOL     OW 6701   4.030   1.890   2.628
 1668SOL    HW2 6702   4.108   1.932   2.663
 1668SOL    HW3 6703   4.043   1.797   2.647
 1668SOL    MW4 6704   4.042   1.883   2.635
 1669SOL     OW 6705   4.264   2.037   2.738
 1669SOL    HW2 6706   4.267   2.122   2.694
 1669SOL    HW3 6707   4.340   1.990   2.705
 1669SOL    MW4 6708   4.274   2.042   2.728
 1670SOL     OW 6709   4.287   2.300   2.567
 1670SOL    HW2 6710   4.201   2.332   2.595
 1670SOL    HW3 6711   4.281   2.294   2.472
 1670SOL    MW4 6712   4.275   2.304   2.558
 1671SOL     OW 6713   4.064   2.401   2.690
 1671SOL    HW2 6714   4.081   2.405   2.784
 1671SOL    HW3 6715   3.974   2.369   2.684
 1671SOL    MW4 6716   4.054   2.397   2.702
 1672SOL     OW 6717   4.039   2.671   2.638
 1672SOL    HW2 6718   4.124   2.702   2.669
 1672SOL    HW3 6719   4.038   2.578   2.660
 1672SOL    MW4 6720   4.050   2.663   2.645
 1673SOL     OW 6721   4.258   2.796   2.708
 1673SOL    HW2 6722   4.249   2.788   2.803
 1673SOL    HW3 6723   4.281   2.888   2.694
 1673SOL    MW4 6724   4.260   2.807   2.719
 1674SOL     OW 6725   4.283   3.062   2.601
 1674SOL    HW2 6726   4.199   3.102   2.621
 1674SOL    HW3 6727   4.288   3.063   2.506
 1674SOL    MW4 6728   4.273   3.067   2.591
 1675SOL     OW 6729   4.061   3.197   2.711
 1675SOL    HW2 6730   4.057   3.292   2.701
 1675SOL    HW3 6731   3.978   3.165   2.676
 1675SOL    MW4 6732   4.049   3.205   2.705
 1676SOL     OW 6733   4.042   3.479   2.671
 1676SOL    HW2 6734   4.122   3.527   2.694
 1676SOL    HW3 6735   4.046   3.470   2.576
 1676SOL    MW4 6736   4.053   3.484   2.662
 1677SOL     OW 6737   4.276   3.616   2.726
 1677SOL    HW2 6738   4.273   3.632   2.820
 1677SOL    HW3 6739   4.363   3.578   2.711
 1677SOL    MW4 6740   4.287   3.613   2.736
 1678SOL     OW 6741   4.264   3.871   2.646
 1678SOL    HW2 6742   4.276   3.785   2.687
 1678SOL    HW3 6743   4.346   3.918   2.663
 1678SOL    MW4 6744   4.276   3.866   2.654
 1679SOL     OW 6745   4.033   3.961   2.741
 1679SOL    HW2 6746   4.039   3.978   2.834
 1679SOL    HW3 6747   4.122   3.938   2.715
 1679SOL    MW4 6748   4.045   3.960   2.750
 1680SOL     OW 6749   4.056   4.220   2.624
 1680SOL    HW2 6750   4.040   4.130   2.653
 1680SOL    HW3 6751   4.040   4.218   2.530
 1680SOL    MW4 6752   4.052   4.208   2.616
 1681SOL     OW 6753   4.281   4.346   2.734
 1681SOL    HW2 6754   4.211   4.298   2.692
 1681SOL    HW3 6755   4.277   4.434   2.696
 1681SOL    MW4 6756   4.271   4.351   2.724
 1682SOL     OW 6757   0.234   0.019   3.103
 1682SOL    HW2 6758   0.219   0.008   3.197
 1682SOL    HW3 6759   0.146   0.028   3.065
 1682SOL    MW4 6760   0.220   0.019   3.110
 1683SOL     OW 6761   0.001   0.097   2.988
 1683SOL    HW2 6762  -0.067   0.043   3.029
 1683SOL    HW3 6763  -0.011   0.184   3.027
 1683SOL    MW4 6764  -0.010   0.102   2.999
 1684SOL     OW 6765   4.474   0.331   3.135
 1684SOL    HW2 6766   4.483   0.328   3.230
 1684SOL    HW3 6767   4.387   0.367   3.120
 1684SOL    MW4 6768   4.464   0.335   3.146
 1685SOL     OW 6769   0.188   0.499   3.011
 1685SOL    HW2 6770   0.273   0.467   3.041
 1685SOL    HW3 6771   0.125   0.436   3.047
 1685SOL    MW4 6772   0.191   0.486   3.020
 1686SOL     OW 6773   0.184   0.758   3.068
 1686SOL    HW2 6774   0.196   0.762   3.163
 1686SOL    HW3 6775   0.167   0.666   3.050
 1686SOL    MW4 6776   0.183   0.746   3.078
 1687SOL     OW 6777   4.449   0.907   2.999
 1687SOL    HW2 6778   4.526   0.856   3.026
 1687SOL    HW3 6779   4.451   0.902   2.903
 1687SOL    MW4 6780   4.460   0.899   2.990
 1688SOL     OW 6781   0.005   1.173   3.088
 1688SOL    HW2 6782  -0.088   1.194   3.077
 1688SOL    HW3 6783   0.010   1.078   3.075
 1688SOL    MW4 6784  -0.007   1.163   3.085
 1689SOL     OW 6785   0.259   1.256   2.997
 1689SOL    HW2 6786   0.175   1.225   3.031
 1689SOL    HW3 6787   0.258   1.231   2.904
 1689SOL    MW4 6788   0.248   1.248   2.989
 1690SOL     OW 6789   0.212   1.503   3.132
 1690SOL    HW2 6790   0.128   1.531   3.096
 1690SOL    HW3 6791   0.233   1.422   3.084
 1690SOL    MW4 6792   0.204   1.496   3.121
 1691SOL     OW 6793   4.461   1.612   3.014
 1691SOL    HW2 6794   4.378   1.587   3.054
 1691SOL    HW3 6795   4.469   1.706   3.033
 1691SOL    MW4 6796   4.451   1.621   3.022
 1692SOL     OW 6797   0.002   1.875   3.098
 1692SOL    HW2 6798  -0.069   1.929   3.064
 1692SOL    HW3 6799   0.082   1.919   3.067
 1692SOL    MW4 6800   0.003   1.888   3.089
 1693SOL     OW 6801   0.210   2.017   2.987
 1693SOL    HW2 6802   0.224   2.097   3.038
 1693SOL    HW3 6803   0.205   2.047   2.897
 1693SOL    MW4 6804   0.211   2.032   2.982
 1694SOL     OW 6805   0.254   2.268   3.102
 1694SOL    HW2 6806   0.267   2.280   3.196
 1694SOL    HW3 6807   0.330   2.310   3.062
 1694SOL    MW4 6808   0.266   2.275   3.109
 1695SOL     OW 6809   0.002   2.402   2.999
 1695SOL    HW2 6810   0.038   2.475   3.050
 1695SOL    HW3 6811   0.072   2.338   2.995
 1695SOL    MW4 6812   0.016   2.403   3.006
 1696SOL     OW 6813   0.044   2.648   3.112
 1696SOL    HW2 6814   0.064   2.654   3.206
 1696SOL    HW3 6815   0.111   2.701   3.070
 1696SOL    MW4 6816   0.056   2.656   3.119
 1697SOL     OW 6817   0.223   2.820   2.953
 1697SOL    HW2 6818   0.298   2.763   2.970
 1697SOL    HW3 6819   0.211   2.814   2.858
 1697SOL    MW4 6820   0.231   2.812   2.942
 1698SOL     OW 6821   0.215   3.083   3.095
 1698SOL    HW2 6822   0.144   3.126   3.048
 1698SOL    HW3 6823   0.225   2.998   3.052
 1698SOL    MW4 6824   0.207   3.078   3.083
 1699SOL     OW 6825   4.475   3.233   2.982
 1699SOL    HW2 6826   4.412   3.164   3.001
 1699SOL    HW3 6827   4.494   3.224   2.889
 1699SOL    MW4 6828   4.469   3.223   2.972
 1700SOL     OW 6829   4.482   3.472   3.115
 1700SOL    HW2 6830   4.391   3.499   3.104
 1700SOL    HW3 6831   4.487   3.386   3.073
 1700SOL    MW4 6832   4.471   3.464   3.108
 1701SOL     OW 6833   0.236   3.569   3.021
 1701SOL    HW2 6834   0.246   3.658   3.053
 1701SOL    HW3 6835   0.150   3.542   3.052
 1701SOL    MW4 6836   0.226   3.577   3.029
 1702SOL     OW 6837   0.240   3.839   3.089
 1702SOL    HW2 6838   0.236   3.846   3.184
 1702SOL    HW3 6839   0.308   3.900   3.062
 1702SOL    MW4 6840   0.248   3.848   3.098
 1703SOL     OW 6841   0.010   3.947   3.014
 1703SOL    HW2 6842   0.091   3.900   3.031
 1703SOL    HW3 6843   0.008   3.958   2.919
 1703SOL    MW4 6844   0.020   3.942   3.003
 1704SOL     OW 6845   0.070   4.225   3.109
 1704SOL    HW2 6846   0.053   4.228   3.203
 1704SOL    HW3 6847   0.072   4.131   3.088
 1704SOL    MW4 6848   0.068   4.213   3.118
 1705SOL     OW 6849   0.255   4.416   3.016
 1705SOL    HW2 6850   0.175   4.367   3.035
 1705SOL    HW3 6851   0.255   4.487   3.080
 1705SOL    MW4 6852   0.245   4.419   3.027
 1706SOL     OW 6853   0.706   4.622   3.089
 1706SOL    HW2 6854   0.693   4.535   3.052
 1706SOL    HW3 6855   0.626   4.670   3.066
 1706SOL    MW4 6856   0.693   4.617   3.081
 1707SOL     OW 6857   0.480   0.106   3.003
 1707SOL    HW2 6858   0.484   0.200   3.020
 1707SOL    HW3 6859   0.396   0.079   3.039
 1707SOL    MW4 6860   0.470   0.115   3.010
 1708SOL     OW 6861   0.454   0.390   3.077
 1708SOL    HW2 6862   0.443   0.384   3.172
 1708SOL    HW3 6863   0.542   0.425   3.065
 1708SOL    MW4 6864   0.464   0.394   3.088
 1709SOL     OW 6865   0.701   0.491   3.002
 1709SOL    HW2 6866   0.780   0.458   3.044
 1709SOL    HW3 6867   0.694   0.582   3.032
 1709SOL    MW4 6868   0.711   0.498   3.012
 1710SOL     OW 6869   0.681   0.781   3.069
 1710SOL    HW2 6870   0.679   0.777   3.165
 1710SOL    HW3 6871   0.589   0.791   3.043
 1710SOL    MW4 6872   0.669   0.782   3.078
 1711SOL     OW 6873   0.436   0.868   2.973
 1711SOL    HW2 6874   0.360   0.819   3.005
 1711SOL    HW3 6875   0.436   0.854   2.878
 1711SOL    MW4 6876   0.426   0.860   2.965
 1712SOL     OW 6877   0.458   1.119   3.079
 1712SOL    HW2 6878   0.429   1.036   3.042
 1712SOL    HW3 6879   0.384   1.178   3.064
 1712SOL    MW4 6880   0.444   1.116   3.072
 1713SOL     OW 6881   0.703   1.243   3.004
 1713SOL    HW2 6882   0.780   1.208   3.050
 1713SOL    HW3 6883   0.630   1.190   3.036
 1713SOL    MW4 6884   0.703   1.231   3.014
 1714SOL     OW 6885   0.676   1.498   3.108
 1714SOL    HW2 6886   0.693   1.499   3.202
 1714SOL    HW3 6887   0.677   1.405   3.084
 1714SOL    MW4 6888   0.678   1.486   3.117
 1715SOL     OW 6889   0.445   1.652   3.057
 1715SOL    HW2 6890   0.518   1.594   3.077
 1715SOL    HW3 6891   0.368   1.607   3.091
 1715SOL    MW4 6892   0.444   1.639   3.064
 1716SOL     OW 6893   0.460   1.928   3.062
 1716SOL    HW2 6894   0.475   1.835   3.049
 1716SOL    HW3 6895   0.370   1.942   3.031
 1716SOL    MW4 6896   0.450   1.918   3.056
 1717SOL     OW 6897   0.686   2.061   2.963
 1717SOL    HW2 6898   0.763   2.015   2.997
 1717SOL    HW3 6899   0.613   2.029   3.016
 1717SOL    MW4 6900   0.686   2.051   2.975
 1718SOL     OW 6901   0.687   2.316   3.076
 1718SOL    HW2 6902   0.715   2.319   3.168
 1718SOL    HW3 6903   0.707   2.227   3.047
 1718SOL    MW4 6904   0.693   2.305   3.084
 1719SOL     OW 6905   0.454   2.427   2.992
 1719SOL    HW2 6906   0.533   2.381   3.021
 1719SOL    HW3 6907   0.452   2.415   2.897
 1719SOL    MW4 6908   0.464   2.419   2.984
 1720SOL     OW 6909   0.437   2.681   3.081
 1720SOL    HW2 6910   0.517   2.723   3.050
 1720SOL    HW3 6911   0.445   2.590   3.051
 1720SOL    MW4 6912   0.449   2.675   3.073
 1721SOL     OW 6913   0.687   2.793   2.992
 1721SOL    HW2 6914   0.761   2.747   3.031
 1721SOL    HW3 6915   0.687   2.879   3.034
 1721SOL    MW4 6916   0.697   2.798   3.002
 1722SOL     OW 6917   0.710   3.053   3.114
 1722SOL    HW2 6918   0.711   3.056   3.210
 1722SOL    HW3 6919   0.626   3.092   3.090
 1722SOL    MW4 6920   0.699   3.059   3.123
 1723SOL     OW 6921   0.477   3.150   3.026
 1723SOL    HW2 6922   0.487   3.244   3.039
 1723SOL    HW3 6923   0.390   3.130   3.059
 1723SOL    MW4 6924   0.467   3.160   3.032
 1724SOL     OW 6925   0.469   3.427   3.100
 1724SOL    HW2 6926   0.491   3.445   3.192
 1724SOL    HW3 6927   0.376   3.447   3.094
 1724SOL    MW4 6928   0.460   3.432   3.111
 1725SOL     OW 6929   0.634   3.596   2.978
 1725SOL    HW2 6930   0.712   3.549   3.010
 1725SOL    HW3 6931   0.561   3.546   3.013
 1725SOL    MW4 6932   0.635   3.583   2.987
 1726SOL     OW 6933   0.677   3.855   3.086
 1726SOL    HW2 6934   0.673   3.839   3.180
 1726SOL    HW3 6935   0.665   3.769   3.047
 1726SOL    MW4 6936   0.675   3.842   3.093
 1727SOL     OW 6937   0.438   4.009   3.032
 1727SOL    HW2 6938   0.513   3.952   3.052
 1727SOL    HW3 6939   0.443   4.022   2.937
 1727SOL    MW4 6940   0.449   4.003   3.022
 1728SOL     OW 6941   0.488   4.281   3.090
 1728SOL    HW2 6942   0.484   4.190   3.060
 1728SOL    HW3 6943   0.404   4.318   3.064
 1728SOL    MW4 6944   0.477   4.274   3.082
 1729SOL     OW 6945   0.715   4.362   2.973
 1729SOL    HW2 6946   0.635   4.328   3.013
 1729SOL    HW3 6947   0.697   4.361   2.879
 1729SOL    MW4 6948   0.702   4.357   2.966
 1730SOL     OW 6949   1.117   4.660   3.070
 1730SOL    HW2 6950   1.186   4.712   3.029
 1730SOL    HW3 6951   1.036   4.692   3.031
 1730SOL    MW4 6952   1.115   4.671   3.059
 1731SOL     OW 6953   0.892   0.111   2.963
 1731SOL    HW2 6954   0.884   0.191   3.016
 1731SOL    HW3 6955   0.826   0.051   3.000
 1731SOL    MW4 6956   0.882   0.114   2.975
 1732SOL     OW 6957   0.911   0.362   3.098
 1732SOL    HW2 6958   0.914   0.378   3.192
 1732SOL    HW3 6959   1.001   0.380   3.068
 1732SOL    MW4 6960   0.924   0.366   3.106
 1733SOL     OW 6961   1.169   0.490   2.984
 1733SOL    HW2 6962   1.252   0.454   3.016
 1733SOL    HW3 6963   1.183   0.506   2.891
 1733SOL    MW4 6964   1.182   0.487   2.976
 1734SOL     OW 6965   1.111   0.744   3.083
 1734SOL    HW2 6966   1.112   0.751   3.178
 1734SOL    HW3 6967   1.124   0.650   3.066
 1734SOL    MW4 6968   1.113   0.732   3.093
 1735SOL     OW 6969   0.907   0.868   2.944
 1735SOL    HW2 6970   0.974   0.819   2.991
 1735SOL    HW3 6971   0.826   0.846   2.989
 1735SOL    MW4 6972   0.905   0.859   2.956
 1736SOL     OW 6973   0.922   1.109   3.093
 1736SOL    HW2 6974   0.995   1.152   3.050
 1736SOL    HW3 6975   0.912   1.026   3.047
 1736SOL    MW4 6976   0.930   1.104   3.081
 1737SOL     OW 6977   1.110   1.264   2.960
 1737SOL    HW2 6978   1.193   1.234   2.997
 1737SOL    HW3 6979   1.125   1.265   2.865
 1737SOL    MW4 6980   1.123   1.260   2.952
 1738SOL     OW 6981   1.079   1.523   3.091
 1738SOL    HW2 6982   1.151   1.578   3.060
 1738SOL    HW3 6983   1.096   1.437   3.050
 1738SOL    MW4 6984   1.091   1.519   3.081
 1739SOL     OW 6985   0.867   1.673   2.997
 1739SOL    HW2 6986   0.940   1.616   3.023
 1739SOL    HW3 6987   0.789   1.629   3.031
 1739SOL    MW4 6988   0.866   1.660   3.005
 1740SOL     OW 6989   0.888   1.922   3.101
 1740SOL    HW2 6990   0.891   1.914   3.197
 1740SOL    HW3 6991   0.868   1.834   3.070
 1740SOL    MW4 6992   0.886   1.910   3.110
 1741SOL     OW 6993   1.096   2.064   2.994
 1741SOL    HW2 6994   1.018   2.021   3.030
 1741SOL    HW3 6995   1.091   2.046   2.900
 1741SOL    MW4 6996   1.085   2.056   2.987
 1742SOL     OW 6997   1.151   2.337   3.093
 1742SOL    HW2 6998   1.077   2.389   3.061
 1742SOL    HW3 6999   1.133   2.249   3.061
 1742SOL    MW4 7000   1.139   2.332   3.085
 1743SOL     OW 7001   0.904   2.452   2.987
 1743SOL    HW2 7002   0.831   2.395   3.014
 1743SOL    HW3 7003   0.894   2.460   2.892
 1743SOL    MW4 7004   0.893   2.446   2.978
 1744SOL     OW 7005   0.917   2.697   3.126
 1744SOL    HW2 7006   0.940   2.679   3.217
 1744SOL    HW3 7007   0.904   2.611   3.087
 1744SOL    MW4 7008   0.919   2.684   3.133
 1745SOL     OW 7009   1.162   2.809   3.007
 1745SOL    HW2 7010   1.173   2.899   3.037
 1745SOL    HW3 7011   1.080   2.780   3.047
 1745SOL    MW4 7012   1.152   2.817   3.016
 1746SOL     OW 7013   1.148   3.073   3.094
 1746SOL    HW2 7014   1.213   3.112   3.036
 1746SOL    HW3 7015   1.064   3.106   3.061
 1746SOL    MW4 7016   1.146   3.082   3.082
 1747SOL     OW 7017   0.912   3.215   3.032
 1747SOL    HW2 7018   0.840   3.155   3.050
 1747SOL    HW3 7019   0.911   3.225   2.936
 1747SOL    MW4 7020   0.902   3.208   3.022
 1748SOL     OW 7021   0.855   3.471   3.102
 1748SOL    HW2 7022   0.934   3.509   3.064
 1748SOL    HW3 7023   0.864   3.377   3.087
 1748SOL    MW4 7024   0.867   3.464   3.095
 1749SOL     OW 7025   1.095   3.622   3.013
 1749SOL    HW2 7026   1.163   3.563   3.045
 1749SOL    HW3 7027   1.115   3.706   3.054
 1749SOL    MW4 7028   1.107   3.625   3.023
 1750SOL     OW 7029   1.126   3.884   3.107
 1750SOL    HW2 7030   1.126   3.907   3.200
 1750SOL    HW3 7031   1.040   3.910   3.076
 1750SOL    MW4 7032   1.115   3.891   3.115
 1751SOL     OW 7033   0.900   4.004   2.984
 1751SOL    HW2 7034   0.823   3.954   3.011
 1751SOL    HW3 7035   0.894   4.007   2.889
 1751SOL    MW4 7036   0.889   3.998   2.975
 1752SOL     OW 7037   0.929   4.264   3.101
 1752SOL    HW2 7038   0.933   4.180   3.057
 1752SOL    HW3 7039   0.859   4.312   3.056
 1752SOL    MW4 7040   0.920   4.260   3.089
 1753SOL     OW 7041   1.145   4.400   2.992
 1753SOL    HW2 7042   1.065   4.367   3.033
 1753SOL    HW3 7043   1.150   4.491   3.022
 1753SOL    MW4 7044   1.135   4.408   3.001
 1754SOL     OW 7045   1.606   4.634   3.117
 1754SOL    HW2 7046   1.600   4.648   3.211
 1754SOL    HW3 7047   1.549   4.702   3.079
 1754SOL    MW4 7048   1.597   4.645   3.124
 1755SOL     OW 7049   1.384   0.095   3.012
 1755SOL    HW2 7050   1.379   0.186   3.039
 1755SOL    HW3 7051   1.367   0.096   2.918
 1755SOL    MW4 7052   1.381   0.107   3.003
 1756SOL     OW 7053   1.391   0.359   3.101
 1756SOL    HW2 7054   1.381   0.372   3.196
 1756SOL    HW3 7055   1.475   0.400   3.080
 1756SOL    MW4 7056   1.401   0.366   3.111
 1757SOL     OW 7057   1.610   0.491   2.988
 1757SOL    HW2 7058   1.616   0.580   3.022
 1757SOL    HW3 7059   1.587   0.502   2.896
 1757SOL    MW4 7060   1.608   0.504   2.980
 1758SOL     OW 7061   1.576   0.765   3.077
 1758SOL    HW2 7062   1.578   0.768   3.173
 1758SOL    HW3 7063   1.490   0.799   3.054
 1758SOL    MW4 7064   1.565   0.770   3.087
 1759SOL     OW 7065   1.339   0.880   2.980
 1759SOL    HW2 7066   1.337   0.970   3.011
 1759SOL    HW3 7067   1.261   0.840   3.018
 1759SOL    MW4 7068   1.329   0.886   2.989
 1760SOL     OW 7069   1.325   1.156   3.074
 1760SOL    HW2 7070   1.326   1.150   3.170
 1760SOL    HW3 7071   1.402   1.208   3.052
 1760SOL    MW4 7072   1.335   1.162   3.084
 1761SOL     OW 7073   1.576   1.268   3.006
 1761SOL    HW2 7074   1.666   1.235   3.017
 1761SOL    HW3 7075   1.585   1.363   3.014
 1761SOL    MW4 7076   1.589   1.276   3.009
 1762SOL     OW 7077   1.565   1.528   3.103
 1762SOL    HW2 7078   1.633   1.584   3.067
 1762SOL    HW3 7079   1.484   1.576   3.089
 1762SOL    MW4 7080   1.564   1.541   3.097
 1763SOL     OW 7081   1.315   1.662   3.013
 1763SOL    HW2 7082   1.318   1.755   3.039
 1763SOL    HW3 7083   1.327   1.663   2.918
 1763SOL    MW4 7084   1.317   1.675   3.004
 1764SOL     OW 7085   1.314   1.926   3.093
 1764SOL    HW2 7086   1.306   1.928   3.188
 1764SOL    HW3 7087   1.240   1.978   3.061
 1764SOL    MW4 7088   1.303   1.933   3.101
 1765SOL     OW 7089   1.543   2.077   2.987
 1765SOL    HW2 7090   1.471   2.022   3.019
 1765SOL    HW3 7091   1.528   2.082   2.892
 1765SOL    MW4 7092   1.531   2.070   2.979
 1766SOL     OW 7093   1.585   2.316   3.134
 1766SOL    HW2 7094   1.527   2.369   3.078
 1766SOL    HW3 7095   1.577   2.227   3.099
 1766SOL    MW4 7096   1.576   2.311   3.122
 1767SOL     OW 7097   1.386   2.458   2.972
 1767SOL    HW2 7098   1.311   2.415   3.013
 1767SOL    HW3 7099   1.371   2.447   2.878
 1767SOL    MW4 7100   1.374   2.451   2.965
 1768SOL     OW 7101   1.411   2.686   3.111
 1768SOL    HW2 7102   1.413   2.598   3.073
 1768SOL    HW3 7103   1.324   2.720   3.088
 1768SOL    MW4 7104   1.400   2.679   3.103
 1769SOL     OW 7105   1.607   2.858   3.004
 1769SOL    HW2 7106   1.693   2.825   3.031
 1769SOL    HW3 7107   1.544   2.795   3.040
 1769SOL    MW4 7108   1.610   2.845   3.012
 1770SOL     OW 7109   1.591   3.118   3.089
 1770SOL    HW2 7110   1.579   3.121   3.184
 1770SOL    HW3 7111   1.577   3.027   3.066
 1770SOL    MW4 7112   1.588   3.107   3.098
 1771SOL     OW 7113   1.374   3.204   2.962
 1771SOL    HW2 7114   1.459   3.171   2.991
 1771SOL    HW3 7115   1.385   3.219   2.868
 1771SOL    MW4 7116   1.386   3.202   2.953
 1772SOL     OW 7117   1.337   3.471   3.093
 1772SOL    HW2 7118   1.362   3.469   3.186
 1772SOL    HW3 7119   1.351   3.381   3.063
 1772SOL    MW4 7120   1.342   3.458   3.102
 1773SOL     OW 7121   1.563   3.610   3.007
 1773SOL    HW2 7122   1.477   3.574   3.028
 1773SOL    HW3 7123   1.573   3.595   2.913
 1773SOL    MW4 7124   1.553   3.603   2.998
 1774SOL     OW 7125   1.592   3.851   3.118
 1774SOL    HW2 7126   1.662   3.907   3.084
 1774SOL    HW3 7127   1.600   3.769   3.068
 1774SOL    MW4 7128   1.602   3.847   3.107
 1775SOL     OW 7129   1.351   3.988   2.990
 1775SOL    HW2 7130   1.422   3.935   3.026
 1775SOL    HW3 7131   1.272   3.948   3.026
 1775SOL    MW4 7132   1.350   3.975   2.999
 1776SOL     OW 7133   1.344   4.243   3.120
 1776SOL    HW2 7134   1.357   4.162   3.071
 1776SOL    HW3 7135   1.266   4.282   3.080
 1776SOL    MW4 7136   1.335   4.237   3.108
 1777SOL     OW 7137   1.555   4.381   3.010
 1777SOL    HW2 7138   1.484   4.344   3.063
 1777SOL    HW3 7139   1.563   4.471   3.041
 1777SOL    MW4 7140   1.546   4.388   3.021
 1778SOL     OW 7141   2.049   4.648   3.137
 1778SOL    HW2 7142   2.045   4.655   3.232
 1778SOL    HW3 7143   1.970   4.692   3.106
 1778SOL    MW4 7144   2.038   4.654   3.146
 1779SOL     OW 7145   1.831   0.083   3.007
 1779SOL    HW2 7146   1.764   0.023   3.040
 1779SOL    HW3 7147   1.818   0.082   2.912
 1779SOL    MW4 7148   1.821   0.075   2.998
 1780SOL     OW 7149   1.806   0.359   3.125
 1780SOL    HW2 7150   1.793   0.267   3.099
 1780SOL    HW3 7151   1.737   0.407   3.079
 1780SOL    MW4 7152   1.795   0.353   3.115
 1781SOL     OW 7153   2.035   0.502   3.037
 1781SOL    HW2 7154   1.956   0.467   3.078
 1781SOL    HW3 7155   2.022   0.488   2.943
 1781SOL    MW4 7156   2.023   0.495   3.030
 1782SOL     OW 7157   1.997   0.766   3.119
 1782SOL    HW2 7158   1.928   0.806   3.066
 1782SOL    HW3 7159   2.011   0.680   3.080
 1782SOL    MW4 7160   1.990   0.760   3.107
 1783SOL     OW 7161   1.792   0.900   2.994
 1783SOL    HW2 7162   1.712   0.853   3.017
 1783SOL    HW3 7163   1.790   0.907   2.899
 1783SOL    MW4 7164   1.781   0.895   2.985
 1784SOL     OW 7165   1.824   1.159   3.073
 1784SOL    HW2 7166   1.838   1.151   3.168
 1784SOL    HW3 7167   1.808   1.069   3.044
 1784SOL    MW4 7168   1.824   1.146   3.082
 1785SOL     OW 7169   2.030   1.323   2.998
 1785SOL    HW2 7170   2.108   1.287   3.039
 1785SOL    HW3 7171   1.959   1.265   3.026
 1785SOL    MW4 7172   2.031   1.311   3.007
 1786SOL     OW 7173   1.986   1.583   3.098
 1786SOL    HW2 7174   1.994   1.577   3.193
 1786SOL    HW3 7175   1.990   1.492   3.068
 1786SOL    MW4 7176   1.988   1.570   3.107
 1787SOL     OW 7177   1.759   1.662   2.976
 1787SOL    HW2 7178   1.748   1.750   3.012
 1787SOL    HW3 7179   1.840   1.630   3.015
 1787SOL    MW4 7180   1.768   1.670   2.986
 1788SOL     OW 7181   1.778   1.939   3.061
 1788SOL    HW2 7182   1.853   1.980   3.020
 1788SOL    HW3 7183   1.702   1.979   3.019
 1788SOL    MW4 7184   1.778   1.950   3.050
 1789SOL     OW 7185   2.022   2.073   2.964
 1789SOL    HW2 7186   2.109   2.041   2.987
 1789SOL    HW3 7187   2.012   2.154   3.015
 1789SOL    MW4 7188   2.032   2.080   2.974
 1790SOL     OW 7189   2.049   2.337   3.097
 1790SOL    HW2 7190   2.110   2.387   3.043
 1790SOL    HW3 7191   1.963   2.358   3.061
 1790SOL    MW4 7192   2.046   2.346   3.085
 1791SOL     OW 7193   1.806   2.406   2.984
 1791SOL    HW2 7194   1.797   2.499   3.006
 1791SOL    HW3 7195   1.739   2.362   3.037
 1791SOL    MW4 7196   1.796   2.412   2.994
 1792SOL     OW 7197   1.829   2.668   3.080
 1792SOL    HW2 7198   1.795   2.689   3.167
 1792SOL    HW3 7199   1.907   2.723   3.071
 1792SOL    MW4 7200   1.835   2.678   3.091
 1793SOL     OW 7201   2.047   2.839   3.020
 1793SOL    HW2 7202   2.039   2.928   3.054
 1793SOL    HW3 7203   2.014   2.845   2.930
 1793SOL    MW4 7204   2.041   2.852   3.012
 1794SOL     OW 7205   2.014   3.092   3.120
 1794SOL    HW2 7206   2.000   3.081   3.215
 1794SOL    HW3 7207   1.945   3.154   3.094
 1794SOL    MW4 7208   2.003   3.099   3.129
 1795SOL     OW 7209   1.814   3.244   3.017
 1795SOL    HW2 7210   1.741   3.188   3.042
 1795SOL    HW3 7211   1.811   3.245   2.921
 1795SOL    MW4 7212   1.804   3.237   3.007
 1796SOL     OW 7213   1.797   3.520   3.141
 1796SOL    HW2 7214   1.815   3.432   3.107
 1796SOL    HW3 7215   1.706   3.537   3.119
 1796SOL    MW4 7216   1.787   3.511   3.133
 1797SOL     OW 7217   2.017   3.633   2.970
 1797SOL    HW2 7218   2.035   3.717   3.011
 1797SOL    HW3 7219   1.950   3.593   3.027
 1797SOL    MW4 7220   2.011   3.639   2.983
 1798SOL     OW 7221   2.039   3.886   3.115
 1798SOL    HW2 7222   2.055   3.879   3.209
 1798SOL    HW3 7223   1.953   3.927   3.108
 1798SOL    MW4 7224   2.030   3.890   3.127
 1799SOL     OW 7225   1.778   3.994   3.000
 1799SOL    HW2 7226   1.769   4.083   3.033
 1799SOL    HW3 7227   1.777   4.003   2.905
 1799SOL    MW4 7228   1.777   4.007   2.992
 1800SOL     OW 7229   1.782   4.260   3.109
 1800SOL    HW2 7230   1.859   4.307   3.075
 1800SOL    HW3 7231   1.708   4.301   3.065
 1800SOL    MW4 7232   1.782   4.272   3.099
 1801SOL     OW 7233   2.016   4.392   3.019
 1801SOL    HW2 7234   2.027   4.481   3.052
 1801SOL    HW3 7235   2.028   4.401   2.924
 1801SOL    MW4 7236   2.019   4.405   3.011
 1802SOL     OW 7237   2.497   0.002   3.086
 1802SOL    HW2 7238   2.513  -0.085   3.051
 1802SOL    HW3 7239   2.437   0.043   3.023
 1802SOL    MW4 7240   2.492  -0.004   3.073
 1803SOL     OW 7241   2.250   0.114   2.985
 1803SOL    HW2 7242   2.268   0.196   3.031
 1803SOL    HW3 7243   2.180   0.073   3.036
 1803SOL    MW4 7244   2.243   0.120   2.998
 1804SOL     OW 7245   2.273   0.369   3.116
 1804SOL    HW2 7246   2.271   0.368   3.212
 1804SOL    HW3 7247   2.198   0.423   3.092
 1804SOL    MW4 7248   2.263   0.376   3.126
 1805SOL     OW 7249   2.483   0.503   3.032
 1805SOL    HW2 7250   2.414   0.450   3.071
 1805SOL    HW3 7251   2.468   0.497   2.937
 1805SOL    MW4 7252   2.472   0.495   3.024
 1806SOL     OW 7253   2.474   0.759   3.134
 1806SOL    HW2 7254   2.546   0.812   3.100
 1806SOL    HW3 7255   2.485   0.673   3.093
 1806SOL    MW4 7256   2.485   0.754   3.124
 1807SOL     OW 7257   2.234   0.908   3.007
 1807SOL    HW2 7258   2.311   0.867   3.046
 1807SOL    HW3 7259   2.160   0.871   3.055
 1807SOL    MW4 7260   2.234   0.897   3.018
 1808SOL     OW 7261   2.225   1.169   3.138
 1808SOL    HW2 7262   2.213   1.166   3.233
 1808SOL    HW3 7263   2.226   1.077   3.110
 1808SOL    MW4 7264   2.224   1.156   3.147
 1809SOL     OW 7265   2.460   1.277   3.050
 1809SOL    HW2 7266   2.374   1.245   3.077
 1809SOL    HW3 7267   2.456   1.279   2.954
 1809SOL    MW4 7268   2.448   1.273   3.041
 1810SOL     OW 7269   2.464   1.550   3.106
 1810SOL    HW2 7270   2.376   1.584   3.093
 1810SOL    HW3 7271   2.456   1.455   3.092
 1810SOL    MW4 7272   2.452   1.542   3.103
 1811SOL     OW 7273   2.230   1.658   3.002
 1811SOL    HW2 7274   2.140   1.660   3.036
 1811SOL    HW3 7275   2.220   1.667   2.907
 1811SOL    MW4 7276   2.217   1.660   2.994
 1812SOL     OW 7277   2.251   1.931   3.058
 1812SOL    HW2 7278   2.332   1.981   3.052
 1812SOL    HW3 7279   2.277   1.842   3.034
 1812SOL    MW4 7280   2.266   1.926   3.054
 1813SOL     OW 7281   2.477   2.086   3.033
 1813SOL    HW2 7282   2.554   2.040   3.065
 1813SOL    HW3 7283   2.469   2.058   2.941
 1813SOL    MW4 7284   2.486   2.076   3.025
 1814SOL     OW 7285   2.451   2.352   3.083
 1814SOL    HW2 7286   2.447   2.349   3.179
 1814SOL    HW3 7287   2.434   2.261   3.056
 1814SOL    MW4 7288   2.448   2.340   3.092
 1815SOL     OW 7289   2.238   2.482   2.964
 1815SOL    HW2 7290   2.220   2.552   3.027
 1815SOL    HW3 7291   2.318   2.441   2.997
 1815SOL    MW4 7292   2.246   2.486   2.977
 1816SOL     OW 7293   2.248   2.702   3.137
 1816SOL    HW2 7294   2.331   2.730   3.098
 1816SOL    HW3 7295   2.183   2.760   3.099
 1816SOL    MW4 7296   2.251   2.713   3.127
 1817SOL     OW 7297   2.460   2.824   3.010
 1817SOL    HW2 7298   2.441   2.905   3.056
 1817SOL    HW3 7299   2.467   2.849   2.918
 1817SOL    MW4 7300   2.459   2.838   3.004
 1818SOL     OW 7301   2.447   3.104   3.114
 1818SOL    HW2 7302   2.514   3.154   3.068
 1818SOL    HW3 7303   2.365   3.130   3.071
 1818SOL    MW4 7304   2.445   3.114   3.102
 1819SOL     OW 7305   2.241   3.213   2.976
 1819SOL    HW2 7306   2.236   3.302   3.012
 1819SOL    HW3 7307   2.171   3.166   3.021
 1819SOL    MW4 7308   2.231   3.219   2.987
 1820SOL     OW 7309   2.237   3.476   3.080
 1820SOL    HW2 7310   2.301   3.536   3.042
 1820SOL    HW3 7311   2.153   3.511   3.054
 1820SOL    MW4 7312   2.235   3.488   3.072
 1821SOL     OW 7313   2.475   3.627   2.953
 1821SOL    HW2 7314   2.549   3.582   2.993
 1821SOL    HW3 7315   2.469   3.711   2.999
 1821SOL    MW4 7316   2.484   3.632   2.964
 1822SOL     OW 7317   2.448   3.876   3.079
 1822SOL    HW2 7318   2.460   3.866   3.174
 1822SOL    HW3 7319   2.527   3.920   3.049
 1822SOL    MW4 7320   2.460   3.880   3.088
 1823SOL     OW 7321   2.239   4.030   2.990
 1823SOL    HW2 7322   2.310   3.975   3.025
 1823SOL    HW3 7323   2.159   3.993   3.027
 1823SOL    MW4 7324   2.238   4.018   3.000
 1824SOL     OW 7325   2.267   4.306   3.070
 1824SOL    HW2 7326   2.267   4.213   3.044
 1824SOL    HW3 7327   2.175   4.333   3.059
 1824SOL    MW4 7328   2.255   4.297   3.065
 1825SOL     OW 7329   2.510   4.402   2.992
 1825SOL    HW2 7330   2.422   4.373   3.018
 1825SOL    HW3 7331   2.513   4.387   2.898
 1825SOL    MW4 7332   2.498   4.397   2.983
 1826SOL     OW 7333   2.901   4.622   3.140
 1826SOL    HW2 7334   2.978   4.667   3.106
 1826SOL    HW3 7335   2.896   4.541   3.090
 1826SOL    MW4 7336   2.911   4.617   3.129
 1827SOL     OW 7337   2.726   0.118   3.016
 1827SOL    HW2 7338   2.795   0.065   3.058
 1827SOL    HW3 7339   2.644   0.081   3.048
 1827SOL    MW4 7340   2.725   0.106   3.026
 1828SOL     OW 7341   2.712   0.375   3.119
 1828SOL    HW2 7342   2.704   0.289   3.078
 1828SOL    HW3 7343   2.638   0.425   3.086
 1828SOL    MW4 7344   2.701   0.371   3.110
 1829SOL     OW 7345   2.949   0.502   3.015
 1829SOL    HW2 7346   2.867   0.462   3.042
 1829SOL    HW3 7347   2.949   0.493   2.919
 1829SOL    MW4 7348   2.938   0.495   3.006
 1830SOL     OW 7349   2.897   0.757   3.114
 1830SOL    HW2 7350   2.908   0.745   3.208
 1830SOL    HW3 7351   2.900   0.669   3.078
 1830SOL    MW4 7352   2.899   0.744   3.122
 1831SOL     OW 7353   2.692   0.895   2.993
 1831SOL    HW2 7354   2.701   0.986   3.019
 1831SOL    HW3 7355   2.765   0.850   3.037
 1831SOL    MW4 7356   2.703   0.901   3.002
 1832SOL     OW 7357   2.721   1.148   3.109
 1832SOL    HW2 7358   2.790   1.205   3.076
 1832SOL    HW3 7359   2.639   1.190   3.083
 1832SOL    MW4 7360   2.719   1.161   3.102
 1833SOL     OW 7361   2.933   1.292   3.014
 1833SOL    HW2 7362   2.993   1.240   3.068
 1833SOL    HW3 7363   2.924   1.374   3.062
 1833SOL    MW4 7364   2.940   1.296   3.028
 1834SOL     OW 7365   2.894   1.525   3.150
 1834SOL    HW2 7366   2.887   1.506   3.243
 1834SOL    HW3 7367   2.978   1.570   3.141
 1834SOL    MW4 7368   2.904   1.528   3.161
 1835SOL     OW 7369   2.684   1.669   3.004
 1835SOL    HW2 7370   2.757   1.621   3.043
 1835SOL    HW3 7371   2.607   1.636   3.051
 1835SOL    MW4 7372   2.683   1.658   3.016
 1836SOL     OW 7373   2.673   1.916   3.122
 1836SOL    HW2 7374   2.756   1.963   3.111
 1836SOL    HW3 7375   2.685   1.835   3.073
 1836SOL    MW4 7376   2.686   1.912   3.114
 1837SOL     OW 7377   2.894   2.052   3.039
 1837SOL    HW2 7378   2.899   2.147   3.053
 1837SOL    HW3 7379   2.889   2.042   2.944
 1837SOL    MW4 7380   2.894   2.064   3.029
 1838SOL     OW 7381   2.916   2.308   3.132
 1838SOL    HW2 7382   2.995   2.348   3.094
 1838SOL    HW3 7383   2.844   2.349   3.085
 1838SOL    MW4 7384   2.917   2.319   3.120
 1839SOL     OW 7385   2.714   2.438   2.999
 1839SOL    HW2 7386   2.706   2.525   3.038
 1839SOL    HW3 7387   2.633   2.393   3.025
 1839SOL    MW4 7388   2.702   2.443   3.008
 1840SOL     OW 7389   2.688   2.696   3.111
 1840SOL    HW2 7390   2.690   2.713   3.205
 1840SOL    HW3 7391   2.615   2.748   3.079
 1840SOL    MW4 7392   2.679   2.705   3.119
 1841SOL     OW 7393   2.910   2.820   2.998
 1841SOL    HW2 7394   2.993   2.776   3.015
 1841SOL    HW3 7395   2.843   2.757   3.025
 1841SOL    MW4 7396   2.912   2.806   3.004
 1842SOL     OW 7397   2.907   3.063   3.126
 1842SOL    HW2 7398   2.842   3.114   3.078
 1842SOL    HW3 7399   2.916   2.982   3.077
 1842SOL    MW4 7400   2.900   3.059   3.113
 1843SOL     OW 7401   2.694   3.190   2.977
 1843SOL    HW2 7402   2.704   3.279   3.009
 1843SOL    HW3 7403   2.711   3.195   2.883
 1843SOL    MW4 7404   2.697   3.202   2.969
 1844SOL     OW 7405   2.677   3.463   3.076
 1844SOL    HW2 7406   2.669   3.467   3.171
 1844SOL    HW3 7407   2.760   3.509   3.057
 1844SOL    MW4 7408   2.687   3.470   3.086
 1845SOL     OW 7409   2.901   3.593   3.005
 1845SOL    HW2 7410   2.979   3.558   3.048
 1845SOL    HW3 7411   2.900   3.686   3.028
 1845SOL    MW4 7412   2.911   3.600   3.014
 1846SOL     OW 7413   2.943   3.848   3.081
 1846SOL    HW2 7414   2.937   3.843   3.176
 1846SOL    HW3 7415   2.857   3.877   3.053
 1846SOL    MW4 7416   2.931   3.851   3.090
 1847SOL     OW 7417   2.691   3.981   2.988
 1847SOL    HW2 7418   2.707   4.075   2.991
 1847SOL    HW3 7419   2.670   3.963   2.896
 1847SOL    MW4 7420   2.691   3.991   2.976
 1848SOL     OW 7421   2.704   4.245   3.099
 1848SOL    HW2 7422   2.701   4.239   3.194
 1848SOL    HW3 7423   2.633   4.304   3.076
 1848SOL    MW4 7424   2.694   4.252   3.108
 1849SOL     OW 7425   2.927   4.388   2.987
 1849SOL    HW2 7426   3.014   4.354   3.013
 1849SOL    HW3 7427   2.865   4.335   3.038
 1849SOL    MW4 7428   2.931   4.376   2.997
 1850SOL     OW 7429   3.352   4.599   3.093
 1850SOL    HW2 7430   3.431   4.647   3.067
 1850SOL    HW3 7431   3.350   4.523   3.035
 1850SOL    MW4 7432   3.362   4.595   3.082
 1851SOL     OW 7433   3.129   0.075   3.005
 1851SOL    HW2 7434   3.124   0.168   3.030
 1851SOL    HW3 7435   3.210   0.044   3.045
 1851SOL    MW4 7436   3.139   0.083   3.014
 1852SOL     OW 7437   3.135   0.330   3.101
 1852SOL    HW2 7438   3.213   0.385   3.095
 1852SOL    HW3 7439   3.064   0.385   3.068
 1852SOL    MW4 7440   3.136   0.344   3.096
 1853SOL     OW 7441   3.355   0.480   3.042
 1853SOL    HW2 7442   3.433   0.441   3.082
 1853SOL    HW3 7443   3.363   0.461   2.949
 1853SOL    MW4 7444   3.367   0.473   3.035
 1854SOL     OW 7445   3.366   0.750   3.120
 1854SOL    HW2 7446   3.369   0.734   3.214
 1854SOL    HW3 7447   3.361   0.663   3.080
 1854SOL    MW4 7448   3.366   0.737   3.127
 1855SOL     OW 7449   3.133   0.875   3.030
 1855SOL    HW2 7450   3.209   0.827   3.063
 1855SOL    HW3 7451   3.058   0.825   3.062
 1855SOL    MW4 7452   3.133   0.862   3.038
 1856SOL     OW 7453   3.146   1.142   3.146
 1856SOL    HW2 7454   3.223   1.186   3.110
 1856SOL    HW3 7455   3.150   1.054   3.109
 1856SOL    MW4 7456   3.157   1.136   3.136
 1857SOL     OW 7457   3.357   1.263   3.018
 1857SOL    HW2 7458   3.443   1.228   3.043
 1857SOL    HW3 7459   3.361   1.356   3.039
 1857SOL    MW4 7460   3.369   1.271   3.024
 1858SOL     OW 7461   3.383   1.525   3.134
 1858SOL    HW2 7462   3.379   1.531   3.229
 1858SOL    HW3 7463   3.456   1.582   3.110
 1858SOL    MW4 7464   3.392   1.533   3.143
 1859SOL     OW 7465   3.134   1.637   3.066
 1859SOL    HW2 7466   3.207   1.591   3.108
 1859SOL    HW3 7467   3.150   1.628   2.972
 1859SOL    MW4 7468   3.146   1.630   3.059
 1860SOL     OW 7469   3.128   1.910   3.099
 1860SOL    HW2 7470   3.124   1.815   3.089
 1860SOL    HW3 7471   3.048   1.942   3.059
 1860SOL    MW4 7472   3.117   1.901   3.093
 1861SOL     OW 7473   3.359   2.040   3.027
 1861SOL    HW2 7474   3.436   1.992   3.058
 1861SOL    HW3 7475   3.285   1.984   3.051
 1861SOL    MW4 7476   3.360   2.026   3.034
 1862SOL     OW 7477   3.350   2.282   3.170
 1862SOL    HW2 7478   3.332   2.263   3.262
 1862SOL    HW3 7479   3.351   2.196   3.127
 1862SOL    MW4 7480   3.348   2.268   3.176
 1863SOL     OW 7481   3.138   2.397   3.017
 1863SOL    HW2 7482   3.218   2.358   3.053
 1863SOL    HW3 7483   3.144   2.381   2.923
 1863SOL    MW4 7484   3.150   2.390   3.009
 1864SOL     OW 7485   3.123   2.676   3.054
 1864SOL    HW2 7486   3.120   2.683   3.149
 1864SOL    HW3 7487   3.133   2.583   3.037
 1864SOL    MW4 7488   3.124   2.665   3.064
 1865SOL     OW 7489   3.345   2.836   2.973
 1865SOL    HW2 7490   3.356   2.921   3.016
 1865SOL    HW3 7491   3.266   2.799   3.012
 1865SOL    MW4 7492   3.336   2.842   2.984
 1866SOL     OW 7493   3.387   3.081   3.093
 1866SOL    HW2 7494   3.380   3.071   3.188
 1866SOL    HW3 7495   3.306   3.126   3.067
 1866SOL    MW4 7496   3.376   3.085   3.102
 1867SOL     OW 7497   3.128   3.187   3.014
 1867SOL    HW2 7498   3.062   3.136   3.061
 1867SOL    HW3 7499   3.108   3.172   2.922
 1867SOL    MW4 7500   3.117   3.178   3.008
 1868SOL     OW 7501   3.108   3.445   3.113
 1868SOL    HW2 7502   3.183   3.475   3.062
 1868SOL    HW3 7503   3.084   3.361   3.073
 1868SOL    MW4 7504   3.115   3.438   3.101
 1869SOL     OW 7505   3.335   3.582   3.007
 1869SOL    HW2 7506   3.423   3.547   3.019
 1869SOL    HW3 7507   3.341   3.673   3.037
 1869SOL    MW4 7508   3.347   3.589   3.013
 1870SOL     OW 7509   3.389   3.841   3.083
 1870SOL    HW2 7510   3.397   3.833   3.178
 1870SOL    HW3 7511   3.312   3.896   3.070
 1870SOL    MW4 7512   3.380   3.847   3.094
 1871SOL     OW 7513   3.169   3.989   3.007
 1871SOL    HW2 7514   3.089   3.941   3.026
 1871SOL    HW3 7515   3.175   3.991   2.912
 1871SOL    MW4 7516   3.159   3.983   2.997
 1872SOL     OW 7517   3.141   4.253   3.103
 1872SOL    HW2 7518   3.147   4.243   3.198
 1872SOL    HW3 7519   3.154   4.165   3.069
 1872SOL    MW4 7520   3.144   4.240   3.111
 1873SOL     OW 7521   3.384   4.352   2.961
 1873SOL    HW2 7522   3.465   4.333   3.009
 1873SOL    HW3 7523   3.315   4.307   3.011
 1873SOL    MW4 7524   3.385   4.344   2.974
 1874SOL     OW 7525   3.808   4.632   3.112
 1874SOL    HW2 7526   3.807   4.546   3.071
 1874SOL    HW3 7527   3.736   4.679   3.072
 1874SOL    MW4 7528   3.799   4.627   3.101
 1875SOL     OW 7529   3.585   0.073   3.011
 1875SOL    HW2 7530   3.581   0.164   3.042
 1875SOL    HW3 7531   3.608   0.080   2.919
 1875SOL    MW4 7532   3.587   0.086   3.003
 1876SOL     OW 7533   3.588   0.345   3.108
 1876SOL    HW2 7534   3.589   0.340   3.204
 1876SOL    HW3 7535   3.674   0.380   3.085
 1876SOL    MW4 7536   3.600   0.349   3.118
 1877SOL     OW 7537   3.824   0.436   3.017
 1877SOL    HW2 7538   3.883   0.391   3.077
 1877SOL    HW3 7539   3.825   0.527   3.046
 1877SOL    MW4 7540   3.832   0.442   3.029
 1878SOL     OW 7541   3.789   0.691   3.113
 1878SOL    HW2 7542   3.786   0.700   3.208
 1878SOL    HW3 7543   3.862   0.748   3.086
 1878SOL    MW4 7544   3.799   0.700   3.122
 1879SOL     OW 7545   3.587   0.871   3.007
 1879SOL    HW2 7546   3.647   0.802   3.035
 1879SOL    HW3 7547   3.501   0.843   3.038
 1879SOL    MW4 7548   3.583   0.859   3.014
 1880SOL     OW 7549   3.592   1.117   3.132
 1880SOL    HW2 7550   3.670   1.164   3.104
 1880SOL    HW3 7551   3.597   1.033   3.086
 1880SOL    MW4 7552   3.603   1.112   3.122
 1881SOL     OW 7553   3.804   1.271   3.062
 1881SOL    HW2 7554   3.825   1.362   3.083
 1881SOL    HW3 7555   3.812   1.266   2.967
 1881SOL    MW4 7556   3.808   1.282   3.052
 1882SOL     OW 7557   3.844   1.541   3.139
 1882SOL    HW2 7558   3.836   1.527   3.234
 1882SOL    HW3 7559   3.761   1.582   3.114
 1882SOL    MW4 7560   3.832   1.545   3.148
 1883SOL     OW 7561   3.614   1.659   3.053
 1883SOL    HW2 7562   3.620   1.750   3.082
 1883SOL    HW3 7563   3.611   1.664   2.958
 1883SOL    MW4 7564   3.614   1.672   3.045
 1884SOL     OW 7565   3.596   1.929   3.138
 1884SOL    HW2 7566   3.587   1.936   3.233
 1884SOL    HW3 7567   3.673   1.981   3.117
 1884SOL    MW4 7568   3.605   1.937   3.148
 1885SOL     OW 7569   3.845   2.039   3.023
 1885SOL    HW2 7570   3.828   2.131   3.042
 1885SOL    HW3 7571   3.864   2.037   2.929
 1885SOL    MW4 7572   3.845   2.051   3.013
 1886SOL     OW 7573   3.808   2.294   3.065
 1886SOL    HW2 7574   3.798   2.295   3.161
 1886SOL    HW3 7575   3.725   2.328   3.032
 1886SOL    MW4 7576   3.796   2.299   3.074
 1887SOL     OW 7577   3.559   2.419   3.010
 1887SOL    HW2 7578   3.567   2.513   3.030
 1887SOL    HW3 7579   3.496   2.387   3.074
 1887SOL    MW4 7580   3.552   2.427   3.021
 1888SOL     OW 7581   3.548   2.690   3.097
 1888SOL    HW2 7582   3.629   2.726   3.062
 1888SOL    HW3 7583   3.479   2.746   3.062
 1888SOL    MW4 7584   3.550   2.702   3.088
 1889SOL     OW 7585   3.793   2.788   3.001
 1889SOL    HW2 7586   3.806   2.874   3.041
 1889SOL    HW3 7587   3.810   2.802   2.908
 1889SOL    MW4 7588   3.797   2.801   2.994
 1890SOL     OW 7589   3.865   3.067   3.149
 1890SOL    HW2 7590   3.935   3.107   3.097
 1890SOL    HW3 7591   3.786   3.115   3.125
 1890SOL    MW4 7592   3.864   3.079   3.139
 1891SOL     OW 7593   3.647   3.176   3.009
 1891SOL    HW2 7594   3.558   3.159   3.039
 1891SOL    HW3 7595   3.638   3.196   2.916
 1891SOL    MW4 7596   3.634   3.176   3.000
 1892SOL     OW 7597   3.571   3.463   3.124
 1892SOL    HW2 7598   3.656   3.505   3.110
 1892SOL    HW3 7599   3.580   3.376   3.086
 1892SOL    MW4 7600   3.583   3.457   3.117
 1893SOL     OW 7601   3.813   3.624   3.038
 1893SOL    HW2 7602   3.818   3.706   3.087
 1893SOL    HW3 7603   3.789   3.651   2.949
 1893SOL    MW4 7604   3.810   3.638   3.032
 1894SOL     OW 7605   3.834   3.886   3.148
 1894SOL    HW2 7606   3.823   3.888   3.243
 1894SOL    HW3 7607   3.753   3.925   3.114
 1894SOL    MW4 7608   3.822   3.892   3.156
 1895SOL     OW 7609   3.595   4.006   3.035
 1895SOL    HW2 7610   3.522   3.946   3.054
 1895SOL    HW3 7611   3.595   4.014   2.940
 1895SOL    MW4 7612   3.585   3.999   3.025
 1896SOL     OW 7613   3.602   4.267   3.122
 1896SOL    HW2 7614   3.684   4.298   3.086
 1896SOL    HW3 7615   3.600   4.173   3.102
 1896SOL    MW4 7616   3.612   4.258   3.115
 1897SOL     OW 7617   3.833   4.347   3.003
 1897SOL    HW2 7618   3.916   4.308   3.028
 1897SOL    HW3 7619   3.833   4.344   2.907
 1897SOL    MW4 7620   3.844   4.341   2.994
 1898SOL     OW 7621   4.281   4.595   3.120
 1898SOL    HW2 7622   4.287   4.591   3.215
 1898SOL    HW3 7623   4.289   4.505   3.091
 1898SOL    MW4 7624   4.283   4.583   3.129
 1899SOL     OW 7625   4.061   0.090   3.014
 1899SOL    HW2 7626   4.138   0.037   3.034
 1899SOL    HW3 7627   3.988   0.040   3.051
 1899SOL    MW4 7628   4.062   0.076   3.021
 1900SOL     OW 7629   4.014   0.314   3.172
 1900SOL    HW2 7630   4.083   0.375   3.147
 1900SOL    HW3 7631   4.030   0.236   3.119
 1900SOL    MW4 7632   4.025   0.312   3.161
 1901SOL     OW 7633   4.221   0.469   3.070
 1901SOL    HW2 7634   4.252   0.559   3.083
 1901SOL    HW3 7635   4.230   0.454   2.976
 1901SOL    MW4 7636   4.227   0.479   3.059
 1902SOL     OW 7637   4.241   0.750   3.082
 1902SOL    HW2 7638   4.159   0.791   3.054
 1902SOL    HW3 7639   4.309   0.806   3.047
 1902SOL    MW4 7640   4.239   0.763   3.074
 1903SOL     OW 7641   3.984   0.835   2.995
 1903SOL    HW2 7642   3.993   0.923   3.033
 1903SOL    HW3 7643   4.009   0.846   2.903
 1903SOL    MW4 7644   3.988   0.848   2.988
 1904SOL     OW 7645   4.018   1.082   3.119
 1904SOL    HW2 7646   4.034   1.085   3.213
 1904SOL    HW3 7647   3.956   1.153   3.103
 1904SOL    MW4 7648   4.012   1.091   3.129
 1905SOL     OW 7649   4.234   1.217   3.029
 1905SOL    HW2 7650   4.170   1.153   3.061
 1905SOL    HW3 7651   4.233   1.206   2.934
 1905SOL    MW4 7652   4.226   1.207   3.021
 1906SOL     OW 7653   4.241   1.498   3.115
 1906SOL    HW2 7654   4.179   1.555   3.069
 1906SOL    HW3 7655   4.223   1.411   3.081
 1906SOL    MW4 7656   4.230   1.494   3.104
 1907SOL     OW 7657   4.045   1.679   3.002
 1907SOL    HW2 7658   4.056   1.758   3.055
 1907SOL    HW3 7659   3.984   1.625   3.051
 1907SOL    MW4 7660   4.039   1.683   3.015
 1908SOL     OW 7661   4.039   1.908   3.167
 1908SOL    HW2 7662   4.119   1.939   3.125
 1908SOL    HW3 7663   3.969   1.961   3.128
 1908SOL    MW4 7664   4.040   1.919   3.157
 1909SOL     OW 7665   4.240   2.009   3.025
 1909SOL    HW2 7666   4.241   2.100   3.056
 1909SOL    HW3 7667   4.237   2.017   2.929
 1909SOL    MW4 7668   4.240   2.022   3.016
 1910SOL     OW 7669   4.283   2.271   3.097
 1910SOL    HW2 7670   4.206   2.313   3.058
 1910SOL    HW3 7671   4.357   2.315   3.056
 1910SOL    MW4 7672   4.282   2.282   3.086
 1911SOL     OW 7673   4.054   2.412   2.988
 1911SOL    HW2 7674   4.052   2.505   3.008
 1911SOL    HW3 7675   3.972   2.378   3.023
 1911SOL    MW4 7676   4.043   2.419   2.995
 1912SOL     OW 7677   4.036   2.671   3.079
 1912SOL    HW2 7678   4.040   2.675   3.174
 1912SOL    HW3 7679   3.953   2.712   3.057
 1912SOL    MW4 7680   4.026   2.677   3.089
 1913SOL     OW 7681   4.288   2.780   3.001
 1913SOL    HW2 7682   4.214   2.725   3.027
 1913SOL    HW3 7683   4.363   2.741   3.046
 1913SOL    MW4 7684   4.288   2.767   3.011
 1914SOL     OW 7685   4.293   3.049   3.070
 1914SOL    HW2 7686   4.209   3.086   3.044
 1914SOL    HW3 7687   4.290   2.958   3.039
 1914SOL    MW4 7688   4.282   3.042   3.063
 1915SOL     OW 7689   4.068   3.190   2.987
 1915SOL    HW2 7690   4.058   3.280   3.018
 1915SOL    HW3 7691   4.062   3.195   2.892
 1915SOL    MW4 7692   4.065   3.202   2.979
 1916SOL     OW 7693   4.033   3.446   3.087
 1916SOL    HW2 7694   4.049   3.434   3.181
 1916SOL    HW3 7695   3.951   3.494   3.083
 1916SOL    MW4 7696   4.025   3.451   3.099
 1917SOL     OW 7697   4.252   3.598   3.015
 1917SOL    HW2 7698   4.247   3.687   3.052
 1917SOL    HW3 7699   4.172   3.555   3.045
 1917SOL    MW4 7700   4.241   3.604   3.024
 1918SOL     OW 7701   4.266   3.845   3.132
 1918SOL    HW2 7702   4.191   3.898   3.104
 1918SOL    HW3 7703   4.341   3.882   3.086
 1918SOL    MW4 7704   4.266   3.857   3.122
 1919SOL     OW 7705   4.052   3.991   3.024
 1919SOL    HW2 7706   4.057   4.085   3.039
 1919SOL    HW3 7707   3.971   3.964   3.067
 1919SOL    MW4 7708   4.042   4.000   3.032
 1920SOL     OW 7709   4.082   4.239   3.109
 1920SOL    HW2 7710   4.088   4.227   3.204
 1920SOL    HW3 7711   4.169   4.272   3.084
 1920SOL    MW4 7712   4.094   4.242   3.118
 1921SOL     OW 7713   4.317   4.323   3.008
 1921SOL    HW2 7714   4.406   4.296   3.031
 1921SOL    HW3 7715   4.315   4.320   2.912
 1921SOL    MW4 7716   4.328   4.319   2.998
 1922SOL     OW 7717   0.203   4.649   3.378
 1922SOL    HW2 7718   0.271   4.696   3.428
 1922SOL    HW3 7719   0.211   4.558   3.408
 1922SOL    MW4 7720   0.213   4.643   3.389
 1923SOL     OW 7721   4.491   0.083   3.521
 1923SOL    HW2 7722   4.500   0.176   3.503
 1923SOL    HW3 7723   4.571   0.044   3.487
 1923SOL    MW4 7724   4.503   0.090   3.514
 1924SOL     OW 7725   4.480   0.336   3.432
 1924SOL    HW2 7726   4.407   0.377   3.479
 1924SOL    HW3 7727   4.554   0.395   3.447
 1924SOL    MW4 7728   4.480   0.349   3.440
 1925SOL     OW 7729   0.210   0.507   3.479
 1925SOL    HW2 7730   0.283   0.460   3.438
 1925SOL    HW3 7731   0.207   0.591   3.434
 1925SOL    MW4 7732   0.219   0.512   3.468
 1926SOL     OW 7733   0.200   0.751   3.338
 1926SOL    HW2 7734   0.278   0.796   3.371
 1926SOL    HW3 7735   0.128   0.784   3.393
 1926SOL    MW4 7736   0.200   0.761   3.350
 1927SOL     OW 7737   4.469   0.848   3.473
 1927SOL    HW2 7738   4.478   0.860   3.567
 1927SOL    HW3 7739   4.442   0.933   3.440
 1927SOL    MW4 7740   4.466   0.861   3.481
 1928SOL     OW 7741   4.461   1.115   3.352
 1928SOL    HW2 7742   4.538   1.137   3.405
 1928SOL    HW3 7743   4.484   1.144   3.263
 1928SOL    MW4 7744   4.474   1.122   3.347
 1929SOL     OW 7745   0.168   1.236   3.495
 1929SOL    HW2 7746   0.252   1.203   3.463
 1929SOL    HW3 7747   0.170   1.330   3.475
 1929SOL    MW4 7748   0.180   1.244   3.488
 1930SOL     OW 7749   0.221   1.505   3.410
 1930SOL    HW2 7750   0.308   1.538   3.434
 1930SOL    HW3 7751   0.218   1.515   3.314
 1930SOL    MW4 7752   0.232   1.510   3.400
 1931SOL     OW 7753   4.484   1.681   3.453
 1931SOL    HW2 7754   4.411   1.619   3.447
 1931SOL    HW3 7755   4.563   1.627   3.451
 1931SOL    MW4 7756   4.485   1.666   3.452
 1932SOL     OW 7757   0.034   1.950   3.369
 1932SOL    HW2 7758   0.023   1.865   3.411
 1932SOL    HW3 7759   0.030   1.932   3.275
 1932SOL    MW4 7760   0.032   1.937   3.362
 1933SOL     OW 7761   0.265   2.053   3.488
 1933SOL    HW2 7762   0.248   2.038   3.581
 1933SOL    HW3 7763   0.183   2.029   3.445
 1933SOL    MW4 7764   0.252   2.048   3.494
 1934SOL     OW 7765   0.282   2.302   3.385
 1934SOL    HW2 7766   0.201   2.349   3.407
 1934SOL    HW3 7767   0.277   2.221   3.434
 1934SOL    MW4 7768   0.271   2.298   3.394
 1935SOL     OW 7769   0.052   2.401   3.485
 1935SOL    HW2 7770   0.042   2.418   3.579
 1935SOL    HW3 7771  -0.036   2.376   3.456
 1935SOL    MW4 7772   0.039   2.400   3.494
 1936SOL     OW 7773   0.040   2.664   3.399
 1936SOL    HW2 7774   0.109   2.701   3.453
 1936SOL    HW3 7775   0.049   2.569   3.410
 1936SOL    MW4 7776   0.050   2.657   3.407
 1937SOL     OW 7777   0.262   2.790   3.527
 1937SOL    HW2 7778   0.335   2.750   3.480
 1937SOL    HW3 7779   0.235   2.863   3.472
 1937SOL    MW4 7780   0.268   2.794   3.513
 1938SOL     OW 7781   0.231   3.020   3.368
 1938SOL    HW2 7782   0.156   3.071   3.399
 1938SOL    HW3 7783   0.234   3.037   3.274
 1938SOL    MW4 7784   0.222   3.029   3.360
 1939SOL     OW 7785   0.012   3.178   3.469
 1939SOL    HW2 7786  -0.060   3.122   3.438
 1939SOL    HW3 7787  -0.002   3.262   3.426
 1939SOL    MW4 7788   0.001   3.182   3.459
 1940SOL     OW 7789   4.488   3.457   3.387
 1940SOL    HW2 7790   4.405   3.498   3.412
 1940SOL    HW3 7791   4.486   3.457   3.291
 1940SOL    MW4 7792   4.477   3.463   3.378
 1941SOL     OW 7793   0.228   3.577   3.447
 1941SOL    HW2 7794   0.228   3.577   3.543
 1941SOL    HW3 7795   0.144   3.537   3.423
 1941SOL    MW4 7796   0.217   3.571   3.457
 1942SOL     OW 7797   0.214   3.845   3.364
 1942SOL    HW2 7798   0.133   3.879   3.404
 1942SOL    HW3 7799   0.218   3.754   3.393
 1942SOL    MW4 7800   0.204   3.838   3.373
 1943SOL     OW 7801   4.466   3.970   3.470
 1943SOL    HW2 7802   4.476   3.976   3.565
 1943SOL    HW3 7803   4.477   4.060   3.439
 1943SOL    MW4 7804   4.469   3.983   3.479
 1944SOL     OW 7805   0.016   4.236   3.378
 1944SOL    HW2 7806  -0.064   4.278   3.410
 1944SOL    HW3 7807   0.087   4.282   3.423
 1944SOL    MW4 7808   0.015   4.248   3.388
 1945SOL     OW 7809   0.239   4.400   3.478
 1945SOL    HW2 7810   0.235   4.388   3.572
 1945SOL    HW3 7811   0.321   4.359   3.452
 1945SOL    MW4 7812   0.249   4.393   3.487
 1946SOL     OW 7813   0.679   4.641   3.362
 1946SOL    HW2 7814   0.748   4.702   3.390
 1946SOL    HW3 7815   0.686   4.639   3.267
 1946SOL    MW4 7816   0.689   4.649   3.353
 1947SOL     OW 7817   0.411   0.106   3.515
 1947SOL    HW2 7818   0.401   0.091   3.609
 1947SOL    HW3 7819   0.497   0.070   3.494
 1947SOL    MW4 7820   0.421   0.099   3.525
 1948SOL     OW 7821   0.413   0.352   3.368
 1948SOL    HW2 7822   0.489   0.394   3.407
 1948SOL    HW3 7823   0.410   0.265   3.409
 1948SOL    MW4 7824   0.423   0.346   3.378
 1949SOL     OW 7825   0.627   0.543   3.466
 1949SOL    HW2 7826   0.625   0.538   3.561
 1949SOL    HW3 7827   0.703   0.491   3.441
 1949SOL    MW4 7828   0.637   0.535   3.475
 1950SOL     OW 7829   0.640   0.781   3.341
 1950SOL    HW2 7830   0.573   0.843   3.369
 1950SOL    HW3 7831   0.607   0.695   3.368
 1950SOL    MW4 7832   0.627   0.778   3.348
 1951SOL     OW 7833   0.421   0.892   3.462
 1951SOL    HW2 7834   0.437   0.881   3.556
 1951SOL    HW3 7835   0.410   0.986   3.451
 1951SOL    MW4 7836   0.421   0.903   3.473
 1952SOL     OW 7837   0.426   1.152   3.368
 1952SOL    HW2 7838   0.509   1.180   3.405
 1952SOL    HW3 7839   0.437   1.161   3.274
 1952SOL    MW4 7840   0.438   1.157   3.361
 1953SOL     OW 7841   0.670   1.243   3.465
 1953SOL    HW2 7842   0.748   1.192   3.441
 1953SOL    HW3 7843   0.685   1.328   3.425
 1953SOL    MW4 7844   0.683   1.247   3.457
 1954SOL     OW 7845   0.692   1.499   3.382
 1954SOL    HW2 7846   0.763   1.551   3.419
 1954SOL    HW3 7847   0.613   1.534   3.422
 1954SOL    MW4 7848   0.691   1.510   3.392
 1955SOL     OW 7849   0.454   1.621   3.478
 1955SOL    HW2 7850   0.463   1.642   3.571
 1955SOL    HW3 7851   0.456   1.706   3.434
 1955SOL    MW4 7852   0.455   1.635   3.484
 1956SOL     OW 7853   0.445   1.854   3.351
 1956SOL    HW2 7854   0.390   1.917   3.399
 1956SOL    HW3 7855   0.448   1.888   3.262
 1956SOL    MW4 7856   0.438   1.867   3.346
 1957SOL     OW 7857   0.637   2.038   3.460
 1957SOL    HW2 7858   0.627   2.025   3.555
 1957SOL    HW3 7859   0.587   1.966   3.421
 1957SOL    MW4 7860   0.629   2.027   3.468
 1958SOL     OW 7861   0.709   2.288   3.371
 1958SOL    HW2 7862   0.769   2.343   3.422
 1958SOL    HW3 7863   0.693   2.212   3.427
 1958SOL    MW4 7864   0.715   2.286   3.385
 1959SOL     OW 7865   0.509   2.427   3.476
 1959SOL    HW2 7866   0.587   2.383   3.441
 1959SOL    HW3 7867   0.435   2.381   3.436
 1959SOL    MW4 7868   0.510   2.415   3.466
 1960SOL     OW 7869   0.457   2.676   3.367
 1960SOL    HW2 7870   0.474   2.585   3.395
 1960SOL    HW3 7871   0.434   2.668   3.275
 1960SOL    MW4 7872   0.456   2.663   3.358
 1961SOL     OW 7873   0.690   2.803   3.458
 1961SOL    HW2 7874   0.761   2.742   3.440
 1961SOL    HW3 7875   0.610   2.757   3.431
 1961SOL    MW4 7876   0.689   2.789   3.452
 1962SOL     OW 7877   0.685   3.068   3.384
 1962SOL    HW2 7878   0.602   3.101   3.417
 1962SOL    HW3 7879   0.682   2.974   3.401
 1962SOL    MW4 7880   0.673   3.060   3.390
 1963SOL     OW 7881   0.455   3.192   3.467
 1963SOL    HW2 7882   0.447   3.185   3.562
 1963SOL    HW3 7883   0.379   3.144   3.433
 1963SOL    MW4 7884   0.444   3.184   3.475
 1964SOL     OW 7885   0.489   3.452   3.369
 1964SOL    HW2 7886   0.492   3.360   3.396
 1964SOL    HW3 7887   0.401   3.481   3.394
 1964SOL    MW4 7888   0.478   3.444   3.376
 1965SOL     OW 7889   0.698   3.593   3.475
 1965SOL    HW2 7890   0.785   3.556   3.456
 1965SOL    HW3 7891   0.637   3.529   3.439
 1965SOL    MW4 7892   0.701   3.580   3.468
 1966SOL     OW 7893   0.691   3.854   3.370
 1966SOL    HW2 7894   0.615   3.911   3.381
 1966SOL    HW3 7895   0.658   3.767   3.392
 1966SOL    MW4 7896   0.677   3.850   3.374
 1967SOL     OW 7897   0.460   3.959   3.469
 1967SOL    HW2 7898   0.450   4.053   3.451
 1967SOL    HW3 7899   0.383   3.919   3.429
 1967SOL    MW4 7900   0.449   3.966   3.461
 1968SOL     OW 7901   0.463   4.240   3.378
 1968SOL    HW2 7902   0.539   4.282   3.420
 1968SOL    HW3 7903   0.479   4.248   3.284
 1968SOL    MW4 7904   0.475   4.247   3.372
 1969SOL     OW 7905   0.659   4.389   3.485
 1969SOL    HW2 7906   0.734   4.345   3.445
 1969SOL    HW3 7907   0.659   4.476   3.446
 1969SOL    MW4 7908   0.669   4.395   3.475
 1970SOL     OW 7909   1.115   4.628   3.350
 1970SOL    HW2 7910   1.189   4.679   3.384
 1970SOL    HW3 7911   1.118   4.641   3.255
 1970SOL    MW4 7912   1.125   4.636   3.342
 1971SOL     OW 7913   0.909   0.132   3.431
 1971SOL    HW2 7914   0.918   0.153   3.524
 1971SOL    HW3 7915   0.971   0.060   3.417
 1971SOL    MW4 7916   0.919   0.125   3.441
 1972SOL     OW 7917   0.841   0.402   3.356
 1972SOL    HW2 7918   0.924   0.440   3.385
 1972SOL    HW3 7919   0.847   0.310   3.382
 1972SOL    MW4 7920   0.853   0.395   3.363
 1973SOL     OW 7921   1.110   0.482   3.423
 1973SOL    HW2 7922   1.124   0.491   3.517
 1973SOL    HW3 7923   1.127   0.569   3.388
 1973SOL    MW4 7924   1.114   0.495   3.431
 1974SOL     OW 7925   1.091   0.761   3.352
 1974SOL    HW2 7926   1.171   0.795   3.392
 1974SOL    HW3 7927   1.021   0.790   3.410
 1974SOL    MW4 7928   1.093   0.769   3.365
 1975SOL     OW 7929   0.865   0.845   3.498
 1975SOL    HW2 7930   0.863   0.930   3.454
 1975SOL    HW3 7931   0.784   0.801   3.469
 1975SOL    MW4 7932   0.854   0.850   3.488
 1976SOL     OW 7933   0.899   1.104   3.379
 1976SOL    HW2 7934   0.973   1.163   3.394
 1976SOL    HW3 7935   0.894   1.095   3.284
 1976SOL    MW4 7936   0.908   1.110   3.369
 1977SOL     OW 7937   1.112   1.278   3.448
 1977SOL    HW2 7938   1.116   1.277   3.544
 1977SOL    HW3 7939   1.113   1.371   3.425
 1977SOL    MW4 7940   1.112   1.290   3.458
 1978SOL     OW 7941   1.101   1.550   3.383
 1978SOL    HW2 7942   1.182   1.601   3.379
 1978SOL    HW3 7943   1.074   1.540   3.291
 1978SOL    MW4 7944   1.108   1.555   3.370
 1979SOL     OW 7945   0.890   1.662   3.510
 1979SOL    HW2 7946   0.906   1.753   3.486
 1979SOL    HW3 7947   0.953   1.612   3.458
 1979SOL    MW4 7948   0.901   1.667   3.500
 1980SOL     OW 7949   0.889   1.922   3.394
 1980SOL    HW2 7950   0.950   1.968   3.452
 1980SOL    HW3 7951   0.806   1.969   3.403
 1980SOL    MW4 7952   0.886   1.934   3.403
 1981SOL     OW 7953   1.073   2.077   3.526
 1981SOL    HW2 7954   1.153   2.045   3.484
 1981SOL    HW3 7955   1.059   2.164   3.489
 1981SOL    MW4 7956   1.082   2.084   3.516
 1982SOL     OW 7957   1.108   2.313   3.388
 1982SOL    HW2 7958   1.181   2.368   3.415
 1982SOL    HW3 7959   1.121   2.302   3.293
 1982SOL    MW4 7960   1.119   2.319   3.379
 1983SOL     OW 7961   0.894   2.404   3.533
 1983SOL    HW2 7962   0.908   2.391   3.626
 1983SOL    HW3 7963   0.973   2.370   3.491
 1983SOL    MW4 7964   0.906   2.398   3.539
 1984SOL     OW 7965   0.907   2.655   3.406
 1984SOL    HW2 7966   0.971   2.715   3.445
 1984SOL    HW3 7967   0.921   2.572   3.452
 1984SOL    MW4 7968   0.918   2.652   3.417
 1985SOL     OW 7969   1.120   2.821   3.471
 1985SOL    HW2 7970   1.134   2.821   3.566
 1985SOL    HW3 7971   1.205   2.798   3.434
 1985SOL    MW4 7972   1.133   2.818   3.479
 1986SOL     OW 7973   1.126   3.101   3.408
 1986SOL    HW2 7974   1.105   3.008   3.421
 1986SOL    HW3 7975   1.154   3.106   3.316
 1986SOL    MW4 7976   1.127   3.089   3.397
 1987SOL     OW 7977   0.893   3.240   3.494
 1987SOL    HW2 7978   0.976   3.196   3.473
 1987SOL    HW3 7979   0.826   3.187   3.451
 1987SOL    MW4 7980   0.895   3.227   3.485
 1988SOL     OW 7981   0.942   3.486   3.385
 1988SOL    HW2 7982   0.923   3.402   3.426
 1988SOL    HW3 7983   0.928   3.471   3.292
 1988SOL    MW4 7984   0.938   3.473   3.378
 1989SOL     OW 7985   1.153   3.640   3.467
 1989SOL    HW2 7986   1.148   3.644   3.563
 1989SOL    HW3 7987   1.081   3.584   3.441
 1989SOL    MW4 7988   1.143   3.633   3.476
 1990SOL     OW 7989   1.105   3.902   3.388
 1990SOL    HW2 7990   1.186   3.945   3.415
 1990SOL    HW3 7991   1.117   3.811   3.416
 1990SOL    MW4 7992   1.117   3.895   3.395
 1991SOL     OW 7993   0.881   4.018   3.505
 1991SOL    HW2 7994   0.956   3.981   3.458
 1991SOL    HW3 7995   0.812   3.952   3.495
 1991SOL    MW4 7996   0.881   4.005   3.498
 1992SOL     OW 7997   0.883   4.273   3.371
 1992SOL    HW2 7998   0.880   4.181   3.399
 1992SOL    HW3 7999   0.904   4.269   3.278
 1992SOL    MW4 8000   0.885   4.260   3.362
 1993SOL     OW 8001   1.107   4.379   3.470
 1993SOL    HW2 8002   1.027   4.329   3.450
 1993SOL    HW3 8003   1.097   4.461   3.423
 1993SOL    MW4 8004   1.095   4.383   3.462
 1994SOL     OW 8005   1.591   0.011   3.396
 1994SOL    HW2 8006   1.583  -0.077   3.433
 1994SOL    HW3 8007   1.511   0.056   3.422
 1994SOL    MW4 8008   1.580   0.006   3.404
 1995SOL     OW 8009   1.333   0.109   3.459
 1995SOL    HW2 8010   1.321   0.112   3.554
 1995SOL    HW3 8011   1.359   0.198   3.434
 1995SOL    MW4 8012   1.335   0.121   3.468
 1996SOL     OW 8013   1.353   0.372   3.372
 1996SOL    HW2 8014   1.411   0.424   3.429
 1996SOL    HW3 8015   1.266   0.409   3.387
 1996SOL    MW4 8016   1.350   0.384   3.382
 1997SOL     OW 8017   1.554   0.525   3.516
 1997SOL    HW2 8018   1.538   0.518   3.610
 1997SOL    HW3 8019   1.634   0.475   3.502
 1997SOL    MW4 8020   1.562   0.518   3.527
 1998SOL     OW 8021   1.571   0.754   3.377
 1998SOL    HW2 8022   1.494   0.806   3.401
 1998SOL    HW3 8023   1.569   0.679   3.437
 1998SOL    MW4 8024   1.561   0.751   3.388
 1999SOL     OW 8025   1.336   0.886   3.445
 1999SOL    HW2 8026   1.333   0.892   3.541
 1999SOL    HW3 8027   1.342   0.977   3.415
 1999SOL    MW4 8028   1.336   0.899   3.454
 2000SOL     OW 8029   1.341   1.140   3.359
 2000SOL    HW2 8030   1.430   1.170   3.374
 2000SOL    HW3 8031   1.286   1.212   3.391
 2000SOL    MW4 8032   1.345   1.153   3.365
 2001SOL     OW 8033   1.581   1.250   3.422
 2001SOL    HW2 8034   1.579   1.264   3.517
 2001SOL    HW3 8035   1.669   1.217   3.404
 2001SOL    MW4 8036   1.592   1.248   3.432
 2002SOL     OW 8037   1.595   1.529   3.397
 2002SOL    HW2 8038   1.614   1.436   3.408
 2002SOL    HW3 8039   1.582   1.539   3.302
 2002SOL    MW4 8040   1.596   1.518   3.386
 2003SOL     OW 8041   1.333   1.687   3.464
 2003SOL    HW2 8042   1.324   1.690   3.559
 2003SOL    HW3 8043   1.410   1.632   3.449
 2003SOL    MW4 8044   1.342   1.680   3.474
 2004SOL     OW 8045   1.287   1.949   3.387
 2004SOL    HW2 8046   1.370   1.988   3.414
 2004SOL    HW3 8047   1.296   1.856   3.411
 2004SOL    MW4 8048   1.299   1.942   3.394
 2005SOL     OW 8049   1.530   2.040   3.505
 2005SOL    HW2 8050   1.608   2.010   3.458
 2005SOL    HW3 8051   1.524   2.133   3.484
 2005SOL    MW4 8052   1.539   2.048   3.496
 2006SOL     OW 8053   1.541   2.297   3.406
 2006SOL    HW2 8054   1.465   2.352   3.422
 2006SOL    HW3 8055   1.554   2.299   3.311
 2006SOL    MW4 8056   1.533   2.304   3.396
 2007SOL     OW 8057   1.332   2.468   3.480
 2007SOL    HW2 8058   1.339   2.456   3.575
 2007SOL    HW3 8059   1.366   2.556   3.464
 2007SOL    MW4 8060   1.337   2.478   3.490
 2008SOL     OW 8061   1.373   2.724   3.398
 2008SOL    HW2 8062   1.449   2.771   3.433
 2008SOL    HW3 8063   1.394   2.710   3.306
 2008SOL    MW4 8064   1.386   2.728   3.391
 2009SOL     OW 8065   1.596   2.879   3.501
 2009SOL    HW2 8066   1.656   2.822   3.452
 2009SOL    HW3 8067   1.581   2.953   3.443
 2009SOL    MW4 8068   1.602   2.881   3.487
 2010SOL     OW 8069   1.560   3.119   3.360
 2010SOL    HW2 8070   1.646   3.147   3.394
 2010SOL    HW3 8071   1.497   3.160   3.418
 2010SOL    MW4 8072   1.563   3.128   3.372
 2011SOL     OW 8073   1.349   3.254   3.516
 2011SOL    HW2 8074   1.343   3.258   3.612
 2011SOL    HW3 8075   1.267   3.213   3.489
 2011SOL    MW4 8076   1.337   3.249   3.525
 2012SOL     OW 8077   1.373   3.493   3.376
 2012SOL    HW2 8078   1.359   3.409   3.420
 2012SOL    HW3 8079   1.294   3.543   3.396
 2012SOL    MW4 8080   1.361   3.488   3.385
 2013SOL     OW 8081   1.584   3.625   3.523
 2013SOL    HW2 8082   1.571   3.615   3.617
 2013SOL    HW3 8083   1.499   3.605   3.485
 2013SOL    MW4 8084   1.571   3.621   3.530
 2014SOL     OW 8085   1.608   3.892   3.393
 2014SOL    HW2 8086   1.611   3.808   3.440
 2014SOL    HW3 8087   1.598   3.868   3.301
 2014SOL    MW4 8088   1.607   3.878   3.387
 2015SOL     OW 8089   1.357   4.012   3.491
 2015SOL    HW2 8090   1.357   4.103   3.462
 2015SOL    HW3 8091   1.437   3.975   3.454
 2015SOL    MW4 8092   1.367   4.019   3.482
 2016SOL     OW 8093   1.353   4.279   3.393
 2016SOL    HW2 8094   1.263   4.305   3.412
 2016SOL    HW3 8095   1.355   4.268   3.298
 2016SOL    MW4 8096   1.341   4.281   3.383
 2017SOL     OW 8097   1.575   4.414   3.478
 2017SOL    HW2 8098   1.653   4.367   3.450
 2017SOL    HW3 8099   1.502   4.357   3.454
 2017SOL    MW4 8100   1.576   4.400   3.471
 2018SOL     OW 8101   2.049   4.651   3.407
 2018SOL    HW2 8102   2.129   4.684   3.447
 2018SOL    HW3 8103   1.979   4.700   3.450
 2018SOL    MW4 8104   2.050   4.662   3.418
 2019SOL     OW 8105   1.829   0.103   3.514
 2019SOL    HW2 8106   1.806   0.114   3.606
 2019SOL    HW3 8107   1.750   0.066   3.474
 2019SOL    MW4 8108   1.816   0.099   3.521
 2020SOL     OW 8109   1.776   0.369   3.404
 2020SOL    HW2 8110   1.801   0.278   3.424
 2020SOL    HW3 8111   1.778   0.374   3.309
 2020SOL    MW4 8112   1.779   0.357   3.394
 2021SOL     OW 8113   2.037   0.484   3.479
 2021SOL    HW2 8114   2.035   0.566   3.430
 2021SOL    HW3 8115   1.952   0.443   3.462
 2021SOL    MW4 8116   2.026   0.490   3.471
 2022SOL     OW 8117   1.958   0.738   3.388
 2022SOL    HW2 8118   2.035   0.780   3.425
 2022SOL    HW3 8119   1.965   0.754   3.294
 2022SOL    MW4 8120   1.969   0.745   3.380
 2023SOL     OW 8121   1.776   0.906   3.494
 2023SOL    HW2 8122   1.846   0.852   3.456
 2023SOL    HW3 8123   1.696   0.873   3.452
 2023SOL    MW4 8124   1.775   0.894   3.483
 2024SOL     OW 8125   1.838   1.127   3.333
 2024SOL    HW2 8126   1.899   1.175   3.389
 2024SOL    HW3 8127   1.810   1.052   3.386
 2024SOL    MW4 8128   1.842   1.123   3.347
 2025SOL     OW 8129   2.018   1.296   3.451
 2025SOL    HW2 8130   2.009   1.285   3.546
 2025SOL    HW3 8131   2.035   1.389   3.438
 2025SOL    MW4 8132   2.019   1.307   3.462
 2026SOL     OW 8133   2.017   1.565   3.374
 2026SOL    HW2 8134   2.099   1.613   3.364
 2026SOL    HW3 8135   1.959   1.627   3.418
 2026SOL    MW4 8136   2.020   1.580   3.378
 2027SOL     OW 8137   1.812   1.706   3.478
 2027SOL    HW2 8138   1.782   1.782   3.427
 2027SOL    HW3 8139   1.747   1.639   3.461
 2027SOL    MW4 8140   1.800   1.707   3.469
 2028SOL     OW 8141   1.740   1.942   3.347
 2028SOL    HW2 8142   1.810   1.997   3.381
 2028SOL    HW3 8143   1.754   1.941   3.252
 2028SOL    MW4 8144   1.751   1.949   3.339
 2029SOL     OW 8145   1.966   2.097   3.434
 2029SOL    HW2 8146   2.044   2.053   3.398
 2029SOL    HW3 8147   1.974   2.187   3.403
 2029SOL    MW4 8148   1.977   2.103   3.425
 2030SOL     OW 8149   2.003   2.365   3.369
 2030SOL    HW2 8150   2.085   2.394   3.410
 2030SOL    HW3 8151   2.023   2.365   3.275
 2030SOL    MW4 8152   2.017   2.369   3.362
 2031SOL     OW 8153   1.764   2.476   3.485
 2031SOL    HW2 8154   1.844   2.430   3.459
 2031SOL    HW3 8155   1.693   2.419   3.457
 2031SOL    MW4 8156   1.765   2.463   3.478
 2032SOL     OW 8157   1.780   2.714   3.344
 2032SOL    HW2 8158   1.854   2.759   3.385
 2032SOL    HW3 8159   1.788   2.623   3.374
 2032SOL    MW4 8160   1.791   2.708   3.354
 2033SOL     OW 8161   1.988   2.827   3.460
 2033SOL    HW2 8162   1.984   2.810   3.554
 2033SOL    HW3 8163   1.985   2.922   3.453
 2033SOL    MW4 8164   1.987   2.837   3.472
 2034SOL     OW 8165   2.012   3.105   3.399
 2034SOL    HW2 8166   2.085   3.147   3.444
 2034SOL    HW3 8167   1.935   3.154   3.425
 2034SOL    MW4 8168   2.011   3.117   3.408
 2035SOL     OW 8169   1.786   3.224   3.474
 2035SOL    HW2 8170   1.779   3.217   3.569
 2035SOL    HW3 8171   1.784   3.318   3.456
 2035SOL    MW4 8172   1.785   3.235   3.484
 2036SOL     OW 8173   1.807   3.496   3.414
 2036SOL    HW2 8174   1.736   3.553   3.442
 2036SOL    HW3 8175   1.811   3.508   3.319
 2036SOL    MW4 8176   1.798   3.505   3.405
 2037SOL     OW 8177   2.039   3.624   3.521
 2037SOL    HW2 8178   2.108   3.587   3.467
 2037SOL    HW3 8179   1.959   3.579   3.493
 2037SOL    MW4 8180   2.037   3.613   3.510
 2038SOL     OW 8181   2.045   3.875   3.387
 2038SOL    HW2 8182   1.968   3.921   3.421
 2038SOL    HW3 8183   2.044   3.790   3.429
 2038SOL    MW4 8184   2.035   3.870   3.397
 2039SOL     OW 8185   1.836   4.012   3.487
 2039SOL    HW2 8186   1.813   4.010   3.580
 2039SOL    HW3 8187   1.761   3.972   3.443
 2039SOL    MW4 8188   1.823   4.006   3.494
 2040SOL     OW 8189   1.787   4.280   3.381
 2040SOL    HW2 8190   1.802   4.192   3.415
 2040SOL    HW3 8191   1.791   4.270   3.286
 2040SOL    MW4 8192   1.789   4.267   3.373
 2041SOL     OW 8193   2.029   4.387   3.469
 2041SOL    HW2 8194   1.938   4.363   3.450
 2041SOL    HW3 8195   2.034   4.480   3.448
 2041SOL    MW4 8196   2.018   4.396   3.464
 2042SOL     OW 8197   2.490   4.650   3.375
 2042SOL    HW2 8198   2.473   4.561   3.406
 2042SOL    HW3 8199   2.480   4.645   3.280
 2042SOL    MW4 8200   2.486   4.638   3.367
 2043SOL     OW 8201   2.281   0.110   3.502
 2043SOL    HW2 8202   2.266   0.197   3.464
 2043SOL    HW3 8203   2.352   0.073   3.450
 2043SOL    MW4 8204   2.289   0.116   3.490
 2044SOL     OW 8205   2.267   0.354   3.385
 2044SOL    HW2 8206   2.338   0.408   3.420
 2044SOL    HW3 8207   2.187   0.394   3.421
 2044SOL    MW4 8208   2.266   0.367   3.395
 2045SOL     OW 8209   2.458   0.506   3.487
 2045SOL    HW2 8210   2.534   0.458   3.453
 2045SOL    HW3 8211   2.473   0.597   3.462
 2045SOL    MW4 8212   2.470   0.512   3.479
 2046SOL     OW 8213   2.444   0.773   3.394
 2046SOL    HW2 8214   2.529   0.813   3.416
 2046SOL    HW3 8215   2.445   0.768   3.299
 2046SOL    MW4 8216   2.456   0.778   3.385
 2047SOL     OW 8217   2.198   0.857   3.477
 2047SOL    HW2 8218   2.203   0.951   3.462
 2047SOL    HW3 8219   2.282   0.822   3.449
 2047SOL    MW4 8220   2.209   0.865   3.472
 2048SOL     OW 8221   2.258   1.133   3.417
 2048SOL    HW2 8222   2.341   1.178   3.428
 2048SOL    HW3 8223   2.193   1.196   3.450
 2048SOL    MW4 8224   2.260   1.148   3.423
 2049SOL     OW 8225   2.501   1.281   3.456
 2049SOL    HW2 8226   2.495   1.276   3.551
 2049SOL    HW3 8227   2.578   1.229   3.434
 2049SOL    MW4 8228   2.511   1.274   3.465
 2050SOL     OW 8229   2.491   1.548   3.384
 2050SOL    HW2 8230   2.486   1.455   3.406
 2050SOL    HW3 8231   2.501   1.550   3.289
 2050SOL    MW4 8232   2.492   1.536   3.375
 2051SOL     OW 8233   2.272   1.711   3.414
 2051SOL    HW2 8234   2.247   1.706   3.506
 2051SOL    HW3 8235   2.344   1.648   3.405
 2051SOL    MW4 8236   2.278   1.702   3.425
 2052SOL     OW 8237   2.231   1.985   3.345
 2052SOL    HW2 8238   2.247   1.894   3.367
 2052SOL    HW3 8239   2.214   1.985   3.250
 2052SOL    MW4 8240   2.231   1.973   3.335
 2053SOL     OW 8241   2.474   2.099   3.449
 2053SOL    HW2 8242   2.480   2.077   3.541
 2053SOL    HW3 8243   2.390   2.064   3.420
 2053SOL    MW4 8244   2.464   2.092   3.457
 2054SOL     OW 8245   2.480   2.363   3.347
 2054SOL    HW2 8246   2.560   2.397   3.388
 2054SOL    HW3 8247   2.480   2.270   3.367
 2054SOL    MW4 8248   2.491   2.355   3.355
 2055SOL     OW 8249   2.253   2.460   3.470
 2055SOL    HW2 8250   2.249   2.556   3.467
 2055SOL    HW3 8251   2.332   2.439   3.420
 2055SOL    MW4 8252   2.263   2.470   3.463
 2056SOL     OW 8253   2.240   2.730   3.418
 2056SOL    HW2 8254   2.154   2.769   3.430
 2056SOL    HW3 8255   2.255   2.734   3.324
 2056SOL    MW4 8256   2.231   2.736   3.407
 2057SOL     OW 8257   2.483   2.855   3.519
 2057SOL    HW2 8258   2.487   2.940   3.476
 2057SOL    HW3 8259   2.394   2.823   3.501
 2057SOL    MW4 8260   2.472   2.862   3.511
 2058SOL     OW 8261   2.456   3.103   3.402
 2058SOL    HW2 8262   2.540   3.139   3.430
 2058SOL    HW3 8263   2.449   3.127   3.310
 2058SOL    MW4 8264   2.466   3.111   3.394
 2059SOL     OW 8265   2.237   3.233   3.514
 2059SOL    HW2 8266   2.242   3.227   3.610
 2059SOL    HW3 8267   2.311   3.181   3.483
 2059SOL    MW4 8268   2.247   3.225   3.523
 2060SOL     OW 8269   2.207   3.473   3.377
 2060SOL    HW2 8270   2.208   3.384   3.412
 2060SOL    HW3 8271   2.211   3.463   3.282
 2060SOL    MW4 8272   2.207   3.460   3.369
 2061SOL     OW 8273   2.460   3.591   3.497
 2061SOL    HW2 8274   2.465   3.681   3.464
 2061SOL    HW3 8275   2.381   3.555   3.458
 2061SOL    MW4 8276   2.450   3.598   3.488
 2062SOL     OW 8277   2.476   3.825   3.352
 2062SOL    HW2 8278   2.560   3.868   3.371
 2062SOL    HW3 8279   2.410   3.883   3.390
 2062SOL    MW4 8280   2.479   3.839   3.359
 2063SOL     OW 8281   2.274   3.992   3.465
 2063SOL    HW2 8282   2.266   4.082   3.432
 2063SOL    HW3 8283   2.189   3.953   3.450
 2063SOL    MW4 8284   2.262   3.999   3.458
 2064SOL     OW 8285   2.261   4.253   3.348
 2064SOL    HW2 8286   2.184   4.295   3.387
 2064SOL    HW3 8287   2.247   4.259   3.254
 2064SOL    MW4 8288   2.249   4.259   3.341
 2065SOL     OW 8289   2.494   4.395   3.460
 2065SOL    HW2 8290   2.474   4.404   3.553
 2065SOL    HW3 8291   2.416   4.352   3.423
 2065SOL    MW4 8292   2.481   4.390   3.467
 2066SOL     OW 8293   2.946   4.629   3.421
 2066SOL    HW2 8294   2.879   4.689   3.452
 2066SOL    HW3 8295   2.935   4.628   3.325
 2066SOL    MW4 8296   2.936   4.637   3.412
 2067SOL     OW 8297   2.710   0.115   3.508
 2067SOL    HW2 8298   2.698   0.202   3.470
 2067SOL    HW3 8299   2.648   0.059   3.461
 2067SOL    MW4 8300   2.700   0.119   3.497
 2068SOL     OW 8301   2.682   0.366   3.383
 2068SOL    HW2 8302   2.756   0.416   3.418
 2068SOL    HW3 8303   2.702   0.356   3.290
 2068SOL    MW4 8304   2.694   0.371   3.375
 2069SOL     OW 8305   2.895   0.470   3.512
 2069SOL    HW2 8306   2.892   0.473   3.608
 2069SOL    HW3 8307   2.910   0.560   3.485
 2069SOL    MW4 8308   2.896   0.482   3.521
 2070SOL     OW 8309   2.945   0.732   3.387
 2070SOL    HW2 8310   3.023   0.778   3.418
 2070SOL    HW3 8311   2.872   0.786   3.418
 2070SOL    MW4 8312   2.945   0.746   3.395
 2071SOL     OW 8313   2.709   0.860   3.440
 2071SOL    HW2 8314   2.699   0.860   3.535
 2071SOL    HW3 8315   2.717   0.952   3.416
 2071SOL    MW4 8316   2.709   0.872   3.449
 2072SOL     OW 8317   2.733   1.125   3.390
 2072SOL    HW2 8318   2.804   1.184   3.414
 2072SOL    HW3 8319   2.725   1.134   3.295
 2072SOL    MW4 8320   2.741   1.134   3.381
 2073SOL     OW 8321   2.930   1.277   3.514
 2073SOL    HW2 8322   2.943   1.282   3.609
 2073SOL    HW3 8323   3.002   1.223   3.482
 2073SOL    MW4 8324   2.941   1.271   3.522
 2074SOL     OW 8325   2.881   1.535   3.419
 2074SOL    HW2 8326   2.817   1.581   3.473
 2074SOL    HW3 8327   2.890   1.449   3.459
 2074SOL    MW4 8328   2.874   1.530   3.431
 2075SOL     OW 8329   2.673   1.674   3.542
 2075SOL    HW2 8330   2.677   1.767   3.516
 2075SOL    HW3 8331   2.609   1.635   3.483
 2075SOL    MW4 8332   2.665   1.681   3.530
 2076SOL     OW 8333   2.682   1.916   3.409
 2076SOL    HW2 8334   2.611   1.979   3.423
 2076SOL    HW3 8335   2.679   1.897   3.315
 2076SOL    MW4 8336   2.672   1.922   3.398
 2077SOL     OW 8337   2.909   2.035   3.487
 2077SOL    HW2 8338   2.915   2.024   3.581
 2077SOL    HW3 8339   2.829   1.989   3.462
 2077SOL    MW4 8340   2.900   2.028   3.496
 2078SOL     OW 8341   2.913   2.308   3.404
 2078SOL    HW2 8342   2.907   2.216   3.429
 2078SOL    HW3 8343   2.910   2.307   3.308
 2078SOL    MW4 8344   2.912   2.296   3.394
 2079SOL     OW 8345   2.708   2.470   3.494
 2079SOL    HW2 8346   2.705   2.449   3.588
 2079SOL    HW3 8347   2.776   2.413   3.459
 2079SOL    MW4 8348   2.717   2.460   3.502
 2080SOL     OW 8349   2.690   2.731   3.395
 2080SOL    HW2 8350   2.694   2.637   3.415
 2080SOL    HW3 8351   2.606   2.760   3.430
 2080SOL    MW4 8352   2.680   2.722   3.402
 2081SOL     OW 8353   2.946   2.852   3.489
 2081SOL    HW2 8354   2.949   2.836   3.583
 2081SOL    HW3 8355   2.869   2.804   3.459
 2081SOL    MW4 8356   2.936   2.843   3.497
 2082SOL     OW 8357   2.935   3.110   3.411
 2082SOL    HW2 8358   2.948   3.027   3.456
 2082SOL    HW3 8359   2.933   3.087   3.318
 2082SOL    MW4 8360   2.937   3.096   3.405
 2083SOL     OW 8361   2.695   3.230   3.519
 2083SOL    HW2 8362   2.699   3.242   3.614
 2083SOL    HW3 8363   2.785   3.208   3.493
 2083SOL    MW4 8364   2.708   3.228   3.528
 2084SOL     OW 8365   2.656   3.455   3.349
 2084SOL    HW2 8366   2.652   3.368   3.387
 2084SOL    HW3 8367   2.588   3.504   3.395
 2084SOL    MW4 8368   2.646   3.450   3.360
 2085SOL     OW 8369   2.912   3.536   3.460
 2085SOL    HW2 8370   2.915   3.623   3.422
 2085SOL    HW3 8371   2.828   3.500   3.432
 2085SOL    MW4 8372   2.901   3.543   3.451
 2086SOL     OW 8373   2.929   3.808   3.353
 2086SOL    HW2 8374   3.002   3.845   3.401
 2086SOL    HW3 8375   2.855   3.866   3.372
 2086SOL    MW4 8376   2.929   3.821   3.362
 2087SOL     OW 8377   2.702   3.955   3.434
 2087SOL    HW2 8378   2.709   3.950   3.529
 2087SOL    HW3 8379   2.694   4.049   3.415
 2087SOL    MW4 8380   2.702   3.967   3.444
 2088SOL     OW 8381   2.715   4.246   3.377
 2088SOL    HW2 8382   2.798   4.275   3.415
 2088SOL    HW3 8383   2.649   4.306   3.414
 2088SOL    MW4 8384   2.717   4.258   3.387
 2089SOL     OW 8385   2.942   4.369   3.473
 2089SOL    HW2 8386   2.938   4.359   3.568
 2089SOL    HW3 8387   2.950   4.463   3.458
 2089SOL    MW4 8388   2.943   4.380   3.483
 2090SOL     OW 8389   3.359   4.608   3.398
 2090SOL    HW2 8390   3.296   4.666   3.440
 2090SOL    HW3 8391   3.347   4.624   3.304
 2090SOL    MW4 8392   3.349   4.617   3.391
 2091SOL     OW 8393   3.163   0.116   3.502
 2091SOL    HW2 8394   3.154   0.200   3.456
 2091SOL    HW3 8395   3.100   0.058   3.458
 2091SOL    MW4 8396   3.154   0.119   3.490
 2092SOL     OW 8397   3.132   0.372   3.396
 2092SOL    HW2 8398   3.044   0.375   3.433
 2092SOL    HW3 8399   3.118   0.367   3.302
 2092SOL    MW4 8400   3.119   0.372   3.389
 2093SOL     OW 8401   3.368   0.482   3.511
 2093SOL    HW2 8402   3.367   0.488   3.606
 2093SOL    HW3 8403   3.283   0.444   3.489
 2093SOL    MW4 8404   3.357   0.478   3.521
 2094SOL     OW 8405   3.378   0.734   3.403
 2094SOL    HW2 8406   3.451   0.783   3.441
 2094SOL    HW3 8407   3.383   0.647   3.443
 2094SOL    MW4 8408   3.388   0.729   3.414
 2095SOL     OW 8409   3.160   0.861   3.491
 2095SOL    HW2 8410   3.163   0.956   3.478
 2095SOL    HW3 8411   3.238   0.828   3.448
 2095SOL    MW4 8412   3.170   0.869   3.484
 2096SOL     OW 8413   3.157   1.147   3.424
 2096SOL    HW2 8414   3.226   1.198   3.468
 2096SOL    HW3 8415   3.173   1.162   3.331
 2096SOL    MW4 8416   3.168   1.156   3.418
 2097SOL     OW 8417   3.387   1.292   3.510
 2097SOL    HW2 8418   3.453   1.242   3.462
 2097SOL    HW3 8419   3.400   1.382   3.481
 2097SOL    MW4 8420   3.398   1.297   3.500
 2098SOL     OW 8421   3.385   1.542   3.410
 2098SOL    HW2 8422   3.448   1.603   3.447
 2098SOL    HW3 8423   3.300   1.575   3.439
 2098SOL    MW4 8424   3.382   1.554   3.419
 2099SOL     OW 8425   3.146   1.654   3.485
 2099SOL    HW2 8426   3.138   1.746   3.459
 2099SOL    HW3 8427   3.057   1.619   3.482
 2099SOL    MW4 8428   3.133   1.662   3.481
 2100SOL     OW 8429   3.134   1.910   3.375
 2100SOL    HW2 8430   3.060   1.968   3.397
 2100SOL    HW3 8431   3.141   1.916   3.280
 2100SOL    MW4 8432   3.125   1.919   3.365
 2101SOL     OW 8433   3.369   1.994   3.509
 2101SOL    HW2 8434   3.352   2.086   3.489
 2101SOL    HW3 8435   3.294   1.947   3.473
 2101SOL    MW4 8436   3.357   2.000   3.501
 2102SOL     OW 8437   3.328   2.252   3.430
 2102SOL    HW2 8438   3.401   2.311   3.444
 2102SOL    HW3 8439   3.251   2.301   3.458
 2102SOL    MW4 8440   3.327   2.266   3.435
 2103SOL     OW 8441   3.120   2.447   3.497
 2103SOL    HW2 8442   3.127   2.530   3.450
 2103SOL    HW3 8443   3.041   2.406   3.462
 2103SOL    MW4 8444   3.110   2.453   3.486
 2104SOL     OW 8445   3.134   2.691   3.355
 2104SOL    HW2 8446   3.214   2.721   3.398
 2104SOL    HW3 8447   3.065   2.746   3.392
 2104SOL    MW4 8448   3.135   2.702   3.366
 2105SOL     OW 8449   3.343   2.805   3.492
 2105SOL    HW2 8450   3.410   2.746   3.457
 2105SOL    HW3 8451   3.360   2.889   3.449
 2105SOL    MW4 8452   3.355   2.808   3.482
 2106SOL     OW 8453   3.340   3.060   3.390
 2106SOL    HW2 8454   3.421   3.099   3.421
 2106SOL    HW3 8455   3.272   3.096   3.446
 2106SOL    MW4 8456   3.342   3.070   3.401
 2107SOL     OW 8457   3.164   3.229   3.549
 2107SOL    HW2 8458   3.165   3.311   3.500
 2107SOL    HW3 8459   3.091   3.180   3.512
 2107SOL    MW4 8460   3.154   3.234   3.538
 2108SOL     OW 8461   3.169   3.454   3.379
 2108SOL    HW2 8462   3.082   3.477   3.413
 2108SOL    HW3 8463   3.154   3.432   3.287
 2108SOL    MW4 8464   3.156   3.454   3.372
 2109SOL     OW 8465   3.351   3.591   3.527
 2109SOL    HW2 8466   3.366   3.670   3.476
 2109SOL    HW3 8467   3.287   3.542   3.476
 2109SOL    MW4 8468   3.344   3.595   3.513
 2110SOL     OW 8469   3.401   3.808   3.369
 2110SOL    HW2 8470   3.472   3.844   3.422
 2110SOL    HW3 8471   3.323   3.854   3.400
 2110SOL    MW4 8472   3.400   3.819   3.380
 2111SOL     OW 8473   3.163   3.932   3.463
 2111SOL    HW2 8474   3.165   3.944   3.558
 2111SOL    HW3 8475   3.166   4.021   3.429
 2111SOL    MW4 8476   3.164   3.946   3.471
 2112SOL     OW 8477   3.152   4.209   3.385
 2112SOL    HW2 8478   3.222   4.251   3.436
 2112SOL    HW3 8479   3.072   4.255   3.411
 2112SOL    MW4 8480   3.151   4.220   3.395
 2113SOL     OW 8481   3.351   4.334   3.520
 2113SOL    HW2 8482   3.346   4.344   3.615
 2113SOL    HW3 8483   3.330   4.420   3.485
 2113SOL    MW4 8484   3.348   4.346   3.528
 2114SOL     OW 8485   3.829   4.615   3.411
 2114SOL    HW2 8486   3.752   4.653   3.452
 2114SOL    HW3 8487   3.813   4.620   3.317
 2114SOL    MW4 8488   3.817   4.621   3.404
 2115SOL     OW 8489   3.591   0.054   3.490
 2115SOL    HW2 8490   3.581   0.137   3.445
 2115SOL    HW3 8491   3.513   0.004   3.465
 2115SOL    MW4 8492   3.580   0.058   3.480
 2116SOL     OW 8493   3.572   0.318   3.407
 2116SOL    HW2 8494   3.643   0.378   3.431
 2116SOL    HW3 8495   3.493   0.359   3.442
 2116SOL    MW4 8496   3.571   0.332   3.414
 2117SOL     OW 8497   3.786   0.460   3.500
 2117SOL    HW2 8498   3.772   0.448   3.594
 2117SOL    HW3 8499   3.868   0.413   3.482
 2117SOL    MW4 8500   3.795   0.452   3.510
 2118SOL     OW 8501   3.810   0.705   3.381
 2118SOL    HW2 8502   3.879   0.749   3.431
 2118SOL    HW3 8503   3.795   0.623   3.428
 2118SOL    MW4 8504   3.817   0.700   3.394
 2119SOL     OW 8505   3.595   0.870   3.506
 2119SOL    HW2 8506   3.606   0.882   3.601
 2119SOL    HW3 8507   3.667   0.812   3.481
 2119SOL    MW4 8508   3.606   0.864   3.515
 2120SOL     OW 8509   3.584   1.136   3.396
 2120SOL    HW2 8510   3.585   1.050   3.440
 2120SOL    HW3 8511   3.590   1.115   3.303
 2120SOL    MW4 8512   3.585   1.122   3.389
 2121SOL     OW 8513   3.845   1.224   3.469
 2121SOL    HW2 8514   3.843   1.238   3.564
 2121SOL    HW3 8515   3.755   1.199   3.447
 2121SOL    MW4 8516   3.833   1.223   3.479
 2122SOL     OW 8517   3.786   1.492   3.395
 2122SOL    HW2 8518   3.857   1.538   3.439
 2122SOL    HW3 8519   3.798   1.400   3.420
 2122SOL    MW4 8520   3.797   1.486   3.404
 2123SOL     OW 8521   3.606   1.660   3.546
 2123SOL    HW2 8522   3.624   1.748   3.513
 2123SOL    HW3 8523   3.664   1.603   3.495
 2123SOL    MW4 8524   3.616   1.664   3.535
 2124SOL     OW 8525   3.621   1.913   3.410
 2124SOL    HW2 8526   3.692   1.973   3.435
 2124SOL    HW3 8527   3.542   1.953   3.446
 2124SOL    MW4 8528   3.620   1.926   3.418
 2125SOL     OW 8529   3.848   2.047   3.488
 2125SOL    HW2 8530   3.866   2.070   3.579
 2125SOL    HW3 8531   3.910   1.977   3.468
 2125SOL    MW4 8532   3.859   2.041   3.497
 2126SOL     OW 8533   3.815   2.297   3.345
 2126SOL    HW2 8534   3.886   2.347   3.385
 2126SOL    HW3 8535   3.816   2.213   3.392
 2126SOL    MW4 8536   3.825   2.292   3.356
 2127SOL     OW 8537   3.555   2.402   3.472
 2127SOL    HW2 8538   3.552   2.487   3.428
 2127SOL    HW3 8539   3.633   2.359   3.436
 2127SOL    MW4 8540   3.565   2.408   3.461
 2128SOL     OW 8541   3.518   2.646   3.359
 2128SOL    HW2 8542   3.593   2.698   3.388
 2128SOL    HW3 8543   3.514   2.660   3.264
 2128SOL    MW4 8544   3.527   2.655   3.350
 2129SOL     OW 8545   3.768   2.789   3.455
 2129SOL    HW2 8546   3.798   2.785   3.546
 2129SOL    HW3 8547   3.779   2.881   3.431
 2129SOL    MW4 8548   3.774   2.801   3.464
 2130SOL     OW 8549   3.797   3.068   3.424
 2130SOL    HW2 8550   3.875   3.094   3.474
 2130SOL    HW3 8551   3.826   3.069   3.333
 2130SOL    MW4 8552   3.811   3.072   3.419
 2131SOL     OW 8553   3.567   3.177   3.514
 2131SOL    HW2 8554   3.565   3.265   3.476
 2131SOL    HW3 8555   3.651   3.141   3.488
 2131SOL    MW4 8556   3.578   3.184   3.505
 2132SOL     OW 8557   3.555   3.429   3.405
 2132SOL    HW2 8558   3.481   3.466   3.453
 2132SOL    HW3 8559   3.537   3.448   3.313
 2132SOL    MW4 8560   3.543   3.436   3.399
 2133SOL     OW 8561   3.790   3.568   3.455
 2133SOL    HW2 8562   3.796   3.570   3.551
 2133SOL    HW3 8563   3.701   3.538   3.438
 2133SOL    MW4 8564   3.779   3.564   3.465
 2134SOL     OW 8565   3.782   3.865   3.426
 2134SOL    HW2 8566   3.703   3.903   3.463
 2134SOL    HW3 8567   3.768   3.771   3.428
 2134SOL    MW4 8568   3.770   3.858   3.431
 2135SOL     OW 8569   3.558   3.981   3.511
 2135SOL    HW2 8570   3.537   3.959   3.602
 2135SOL    HW3 8571   3.582   4.074   3.514
 2135SOL    MW4 8572   3.558   3.991   3.523
 2136SOL     OW 8573   3.603   4.260   3.433
 2136SOL    HW2 8574   3.516   4.294   3.455
 2136SOL    HW3 8575   3.605   4.261   3.337
 2136SOL    MW4 8576   3.592   4.265   3.423
 2137SOL     OW 8577   3.859   4.349   3.511
 2137SOL    HW2 8578   3.769   4.331   3.485
 2137SOL    HW3 8579   3.871   4.443   3.496
 2137SOL    MW4 8580   3.849   4.359   3.506
 2138SOL     OW 8581   4.286   4.641   3.390
 2138SOL    HW2 8582   4.282   4.552   3.425
 2138SOL    HW3 8583   4.356   4.683   3.440
 2138SOL    MW4 8584   4.294   4.635   3.401
 2139SOL     OW 8585   4.058   0.062   3.546
 2139SOL    HW2 8586   4.136   0.036   3.497
 2139SOL    HW3 8587   3.985   0.024   3.499
 2139SOL    MW4 8588   4.059   0.054   3.534
 2140SOL     OW 8589   4.033   0.317   3.455
 2140SOL    HW2 8590   4.049   0.229   3.488
 2140SOL    HW3 8591   4.035   0.308   3.360
 2140SOL    MW4 8592   4.035   0.304   3.447
 2141SOL     OW 8593   4.247   0.465   3.523
 2141SOL    HW2 8594   4.232   0.552   3.486
 2141SOL    HW3 8595   4.168   0.415   3.502
 2141SOL    MW4 8596   4.235   0.470   3.515
 2142SOL     OW 8597   4.241   0.719   3.383
 2142SOL    HW2 8598   4.323   0.754   3.416
 2142SOL    HW3 8599   4.248   0.725   3.287
 2142SOL    MW4 8600   4.252   0.724   3.374
 2143SOL     OW 8601   4.033   0.838   3.495
 2143SOL    HW2 8602   4.039   0.932   3.478
 2143SOL    HW3 8603   4.103   0.799   3.443
 2143SOL    MW4 8604   4.043   0.846   3.486
 2144SOL     OW 8605   4.056   1.091   3.389
 2144SOL    HW2 8606   4.134   1.134   3.425
 2144SOL    HW3 8607   3.983   1.144   3.421
 2144SOL    MW4 8608   4.057   1.104   3.398
 2145SOL     OW 8609   4.286   1.251   3.520
 2145SOL    HW2 8610   4.287   1.344   3.497
 2145SOL    HW3 8611   4.346   1.210   3.458
 2145SOL    MW4 8612   4.294   1.258   3.509
 2146SOL     OW 8613   4.267   1.500   3.390
 2146SOL    HW2 8614   4.182   1.538   3.416
 2146SOL    HW3 8615   4.263   1.494   3.295
 2146SOL    MW4 8616   4.255   1.504   3.381
 2147SOL     OW 8617   4.017   1.576   3.515
 2147SOL    HW2 8618   4.014   1.576   3.611
 2147SOL    HW3 8619   4.018   1.669   3.491
 2147SOL    MW4 8620   4.017   1.589   3.525
 2148SOL     OW 8621   4.034   1.853   3.443
 2148SOL    HW2 8622   4.109   1.902   3.476
 2148SOL    HW3 8623   4.037   1.865   3.348
 2148SOL    MW4 8624   4.044   1.861   3.434
 2149SOL     OW 8625   4.272   2.059   3.465
 2149SOL    HW2 8626   4.263   2.145   3.424
 2149SOL    HW3 8627   4.356   2.025   3.431
 2149SOL    MW4 8628   4.282   2.066   3.455
 2150SOL     OW 8629   4.297   2.332   3.361
 2150SOL    HW2 8630   4.210   2.358   3.393
 2150SOL    HW3 8631   4.285   2.317   3.267
 2150SOL    MW4 8632   4.284   2.334   3.353
 2151SOL     OW 8633   4.050   2.401   3.447
 2151SOL    HW2 8634   4.049   2.415   3.541
 2151SOL    HW3 8635   4.039   2.489   3.410
 2151SOL    MW4 8636   4.048   2.415   3.454
 2152SOL     OW 8637   4.017   2.674   3.368
 2152SOL    HW2 8638   4.102   2.715   3.379
 2152SOL    HW3 8639   3.954   2.739   3.399
 2152SOL    MW4 8640   4.020   2.688   3.373
 2153SOL     OW 8641   4.281   2.768   3.443
 2153SOL    HW2 8642   4.298   2.773   3.537
 2153SOL    HW3 8643   4.359   2.726   3.407
 2153SOL    MW4 8644   4.294   2.763   3.450
 2154SOL     OW 8645   4.280   3.044   3.362
 2154SOL    HW2 8646   4.292   2.951   3.383
 2154SOL    HW3 8647   4.279   3.047   3.267
 2154SOL    MW4 8648   4.282   3.032   3.353
 2155SOL     OW 8649   4.056   3.163   3.483
 2155SOL    HW2 8650   4.040   3.253   3.455
 2155SOL    HW3 8651   4.129   3.133   3.429
 2155SOL    MW4 8652   4.063   3.171   3.473
 2156SOL     OW 8653   4.027   3.445   3.383
 2156SOL    HW2 8654   4.103   3.491   3.418
 2156SOL    HW3 8655   3.952   3.497   3.415
 2156SOL    MW4 8656   4.027   3.458   3.392
 2157SOL     OW 8657   4.251   3.586   3.471
 2157SOL    HW2 8658   4.260   3.596   3.565
 2157SOL    HW3 8659   4.240   3.675   3.438
 2157SOL    MW4 8660   4.251   3.599   3.479
 2158SOL     OW 8661   4.226   3.844   3.403
 2158SOL    HW2 8662   4.314   3.863   3.436
 2158SOL    HW3 8663   4.235   3.851   3.308
 2158SOL    MW4 8664   4.239   3.847   3.394
 2159SOL     OW 8665   4.022   3.977   3.523
 2159SOL    HW2 8666   4.085   3.918   3.482
 2159SOL    HW3 8667   3.937   3.945   3.492
 2159SOL    MW4 8668   4.019   3.965   3.513
 2160SOL     OW 8669   4.087   4.229   3.410
 2160SOL    HW2 8670   4.092   4.145   3.456
 2160SOL    HW3 8671   4.000   4.262   3.431
 2160SOL    MW4 8672   4.076   4.222   3.419
 2161SOL     OW 8673   4.283   4.380   3.500
 2161SOL    HW2 8674   4.285   4.363   3.595
 2161SOL    HW3 8675   4.198   4.347   3.472
 2161SOL    MW4 8676   4.272   4.373   3.509
 2162SOL     OW 8677   0.214   4.638   3.908
 2162SOL    HW2 8678   0.218   4.627   4.003
 2162SOL    HW3 8679   0.133   4.687   3.892
 2162SOL    MW4 8680   0.204   4.643   3.918
 2163SOL     OW 8681   4.483   0.107   3.807
 2163SOL    HW2 8682   4.479   0.202   3.818
 2163SOL    HW3 8683   4.465   0.092   3.714
 2163SOL    MW4 8684   4.480   0.117   3.796
 2164SOL     OW 8685   4.474   0.368   3.875
 2164SOL    HW2 8686   4.396   0.414   3.841
 2164SOL    HW3 8687   4.547   0.406   3.826
 2164SOL    MW4 8688   4.473   0.379   3.864
 2165SOL     OW 8689   0.215   0.476   3.755
 2165SOL    HW2 8690   0.220   0.569   3.779
 2165SOL    HW3 8691   0.231   0.475   3.661
 2165SOL    MW4 8692   0.218   0.488   3.746
 2166SOL     OW 8693   0.193   0.742   3.824
 2166SOL    HW2 8694   0.184   0.741   3.919
 2166SOL    HW3 8695   0.126   0.803   3.794
 2166SOL    MW4 8696   0.183   0.750   3.833
 2167SOL     OW 8697   4.479   0.887   3.746
 2167SOL    HW2 8698   4.412   0.845   3.799
 2167SOL    HW3 8699   4.482   0.978   3.778
 2167SOL    MW4 8700   4.471   0.894   3.757
 2168SOL     OW 8701   0.017   1.139   3.879
 2168SOL    HW2 8702  -0.057   1.195   3.856
 2168SOL    HW3 8703   0.094   1.189   3.853
 2168SOL    MW4 8704   0.018   1.153   3.872
 2169SOL     OW 8705   0.233   1.277   3.768
 2169SOL    HW2 8706   0.219   1.369   3.791
 2169SOL    HW3 8707   0.218   1.274   3.673
 2169SOL    MW4 8708   0.229   1.289   3.758
 2170SOL     OW 8709   0.205   1.555   3.818
 2170SOL    HW2 8710   0.201   1.563   3.913
 2170SOL    HW3 8711   0.122   1.593   3.787
 2170SOL    MW4 8712   0.193   1.561   3.826
 2171SOL     OW 8713   4.463   1.679   3.738
 2171SOL    HW2 8714   4.473   1.765   3.780
 2171SOL    HW3 8715   4.455   1.699   3.645
 2171SOL    MW4 8716   4.463   1.693   3.731
 2172SOL     OW 8717   4.473   1.936   3.868
 2172SOL    HW2 8718   4.476   1.954   3.962
 2172SOL    HW3 8719   4.394   1.979   3.837
 2172SOL    MW4 8720   4.463   1.944   3.876
 2173SOL     OW 8721   0.230   2.012   3.779
 2173SOL    HW2 8722   0.239   2.103   3.808
 2173SOL    HW3 8723   0.144   1.985   3.813
 2173SOL    MW4 8724   0.220   2.020   3.788
 2174SOL     OW 8725   0.249   2.293   3.862
 2174SOL    HW2 8726   0.256   2.307   3.956
 2174SOL    HW3 8727   0.177   2.349   3.834
 2174SOL    MW4 8728   0.241   2.302   3.871
 2175SOL     OW 8729   0.023   2.446   3.753
 2175SOL    HW2 8730  -0.058   2.410   3.788
 2175SOL    HW3 8731   0.037   2.527   3.802
 2175SOL    MW4 8732   0.015   2.452   3.764
 2176SOL     OW 8733   0.032   2.673   3.906
 2176SOL    HW2 8734  -0.010   2.691   3.990
 2176SOL    HW3 8735   0.114   2.722   3.909
 2176SOL    MW4 8736   0.037   2.682   3.917
 2177SOL     OW 8737   0.288   2.794   3.837
 2177SOL    HW2 8738   0.361   2.756   3.886
 2177SOL    HW3 8739   0.300   2.762   3.748
 2177SOL    MW4 8740   0.299   2.785   3.832
 2178SOL     OW 8741   0.238   3.072   3.883
 2178SOL    HW2 8742   0.240   3.088   3.978
 2178SOL    HW3 8743   0.259   2.979   3.875
 2178SOL    MW4 8744   0.241   3.061   3.895
 2179SOL     OW 8745   0.043   3.217   3.767
 2179SOL    HW2 8746   0.118   3.174   3.809
 2179SOL    HW3 8747   0.063   3.212   3.674
 2179SOL    MW4 8748   0.056   3.210   3.760
 2180SOL     OW 8749   4.461   3.498   3.841
 2180SOL    HW2 8750   4.535   3.532   3.791
 2180SOL    HW3 8751   4.480   3.405   3.852
 2180SOL    MW4 8752   4.473   3.490   3.836
 2181SOL     OW 8753   0.221   3.634   3.718
 2181SOL    HW2 8754   0.285   3.573   3.757
 2181SOL    HW3 8755   0.232   3.715   3.767
 2181SOL    MW4 8756   0.231   3.637   3.729
 2182SOL     OW 8757   0.241   3.867   3.861
 2182SOL    HW2 8758   0.257   3.856   3.955
 2182SOL    HW3 8759   0.324   3.900   3.827
 2182SOL    MW4 8760   0.254   3.870   3.869
 2183SOL     OW 8761   0.006   3.995   3.756
 2183SOL    HW2 8762  -0.072   3.958   3.798
 2183SOL    HW3 8763   0.078   3.944   3.791
 2183SOL    MW4 8764   0.005   3.984   3.766
 2184SOL     OW 8765   4.484   4.236   3.856
 2184SOL    HW2 8766   4.559   4.280   3.816
 2184SOL    HW3 8767   4.484   4.148   3.819
 2184SOL    MW4 8768   4.494   4.230   3.846
 2185SOL     OW 8769   0.234   4.390   3.772
 2185SOL    HW2 8770   0.315   4.357   3.810
 2185SOL    HW3 8771   0.214   4.469   3.822
 2185SOL    MW4 8772   0.242   4.396   3.784
 2186SOL     OW 8773   0.695   0.033   3.836
 2186SOL    HW2 8774   0.696  -0.061   3.814
 2186SOL    HW3 8775   0.605   0.061   3.817
 2186SOL    MW4 8776   0.683   0.024   3.830
 2187SOL     OW 8777   0.435   0.100   3.803
 2187SOL    HW2 8778   0.423   0.192   3.830
 2187SOL    HW3 8779   0.356   0.056   3.836
 2187SOL    MW4 8780   0.423   0.107   3.811
 2188SOL     OW 8781   0.447   0.379   3.838
 2188SOL    HW2 8782   0.512   0.438   3.800
 2188SOL    HW3 8783   0.363   0.412   3.807
 2188SOL    MW4 8784   0.444   0.391   3.829
 2189SOL     OW 8785   0.665   0.542   3.738
 2189SOL    HW2 8786   0.737   0.487   3.768
 2189SOL    HW3 8787   0.657   0.610   3.805
 2189SOL    MW4 8788   0.673   0.544   3.751
 2190SOL     OW 8789   0.648   0.773   3.893
 2190SOL    HW2 8790   0.732   0.810   3.865
 2190SOL    HW3 8791   0.586   0.803   3.826
 2190SOL    MW4 8792   0.651   0.782   3.880
 2191SOL     OW 8793   0.437   0.866   3.732
 2191SOL    HW2 8794   0.445   0.936   3.796
 2191SOL    HW3 8795   0.353   0.824   3.752
 2191SOL    MW4 8796   0.427   0.870   3.743
 2192SOL     OW 8797   0.440   1.114   3.872
 2192SOL    HW2 8798   0.515   1.166   3.845
 2192SOL    HW3 8799   0.364   1.160   3.837
 2192SOL    MW4 8800   0.440   1.127   3.864
 2193SOL     OW 8801   0.667   1.264   3.774
 2193SOL    HW2 8802   0.746   1.210   3.783
 2193SOL    HW3 8803   0.637   1.248   3.685
 2193SOL    MW4 8804   0.674   1.255   3.764
 2194SOL     OW 8805   0.676   1.537   3.859
 2194SOL    HW2 8806   0.762   1.574   3.840
 2194SOL    HW3 8807   0.684   1.444   3.834
 2194SOL    MW4 8808   0.688   1.529   3.853
 2195SOL     OW 8809   0.486   1.692   3.757
 2195SOL    HW2 8810   0.549   1.629   3.792
 2195SOL    HW3 8811   0.401   1.652   3.774
 2195SOL    MW4 8812   0.483   1.678   3.764
 2196SOL     OW 8813   0.467   1.912   3.908
 2196SOL    HW2 8814   0.484   1.828   3.865
 2196SOL    HW3 8815   0.387   1.944   3.867
 2196SOL    MW4 8816   0.459   1.905   3.897
 2197SOL     OW 8817   0.643   2.057   3.733
 2197SOL    HW2 8818   0.659   2.133   3.790
 2197SOL    HW3 8819   0.589   1.998   3.786
 2197SOL    MW4 8820   0.638   2.059   3.748
 2198SOL     OW 8821   0.674   2.289   3.880
 2198SOL    HW2 8822   0.754   2.338   3.859
 2198SOL    HW3 8823   0.605   2.336   3.833
 2198SOL    MW4 8824   0.675   2.302   3.871
 2199SOL     OW 8825   0.469   2.422   3.758
 2199SOL    HW2 8826   0.385   2.388   3.790
 2199SOL    HW3 8827   0.468   2.404   3.664
 2199SOL    MW4 8828   0.457   2.415   3.750
 2200SOL     OW 8829   0.511   2.648   3.924
 2200SOL    HW2 8830   0.570   2.710   3.881
 2200SOL    HW3 8831   0.492   2.582   3.858
 2200SOL    MW4 8832   0.516   2.648   3.910
 2201SOL     OW 8833   0.679   2.821   3.769
 2201SOL    HW2 8834   0.752   2.759   3.773
 2201SOL    HW3 8835   0.657   2.826   3.676
 2201SOL    MW4 8836   0.686   2.813   3.757
 2202SOL     OW 8837   0.682   3.089   3.868
 2202SOL    HW2 8838   0.681   3.083   3.963
 2202SOL    HW3 8839   0.678   2.998   3.837
 2202SOL    MW4 8840   0.682   3.076   3.876
 2203SOL     OW 8841   0.443   3.205   3.752
 2203SOL    HW2 8842   0.518   3.164   3.795
 2203SOL    HW3 8843   0.367   3.169   3.798
 2203SOL    MW4 8844   0.443   3.195   3.764
 2204SOL     OW 8845   0.417   3.467   3.828
 2204SOL    HW2 8846   0.500   3.502   3.796
 2204SOL    HW3 8847   0.419   3.374   3.806
 2204SOL    MW4 8848   0.428   3.459   3.821
 2205SOL     OW 8849   0.637   3.613   3.743
 2205SOL    HW2 8850   0.637   3.701   3.781
 2205SOL    HW3 8851   0.658   3.626   3.651
 2205SOL    MW4 8852   0.640   3.626   3.736
 2206SOL     OW 8853   0.653   3.871   3.848
 2206SOL    HW2 8854   0.673   3.824   3.929
 2206SOL    HW3 8855   0.721   3.938   3.842
 2206SOL    MW4 8856   0.665   3.874   3.858
 2207SOL     OW 8857   0.447   4.022   3.733
 2207SOL    HW2 8858   0.518   3.977   3.778
 2207SOL    HW3 8859   0.440   3.978   3.648
 2207SOL    MW4 8860   0.455   4.010   3.728
 2208SOL     OW 8861   0.468   4.284   3.870
 2208SOL    HW2 8862   0.544   4.331   3.836
 2208SOL    HW3 8863   0.467   4.202   3.821
 2208SOL    MW4 8864   0.478   4.279   3.859
 2209SOL     OW 8865   0.677   4.435   3.753
 2209SOL    HW2 8866   0.763   4.403   3.780
 2209SOL    HW3 8867   0.671   4.412   3.660
 2209SOL    MW4 8868   0.688   4.428   3.744
 2210SOL     OW 8869   1.108   4.657   3.824
 2210SOL    HW2 8870   1.187   4.707   3.803
 2210SOL    HW3 8871   1.138   4.566   3.827
 2210SOL    MW4 8872   1.122   4.652   3.821
 2211SOL     OW 8873   0.914   0.133   3.704
 2211SOL    HW2 8874   0.980   0.072   3.735
 2211SOL    HW3 8875   0.834   0.107   3.750
 2211SOL    MW4 8876   0.912   0.122   3.714
 2212SOL     OW 8877   0.904   0.383   3.804
 2212SOL    HW2 8878   0.895   0.371   3.899
 2212SOL    HW3 8879   0.918   0.295   3.770
 2212SOL    MW4 8880   0.904   0.370   3.812
 2213SOL     OW 8881   1.119   0.508   3.706
 2213SOL    HW2 8882   1.185   0.459   3.756
 2213SOL    HW3 8883   1.035   0.470   3.733
 2213SOL    MW4 8884   1.117   0.496   3.717
 2214SOL     OW 8885   1.118   0.765   3.839
 2214SOL    HW2 8886   1.139   0.752   3.931
 2214SOL    HW3 8887   1.113   0.677   3.802
 2214SOL    MW4 8888   1.120   0.752   3.846
 2215SOL     OW 8889   0.876   0.875   3.770
 2215SOL    HW2 8890   0.956   0.831   3.798
 2215SOL    HW3 8891   0.882   0.878   3.675
 2215SOL    MW4 8892   0.887   0.869   3.761
 2216SOL     OW 8893   0.918   1.171   3.850
 2216SOL    HW2 8894   0.917   1.165   3.945
 2216SOL    HW3 8895   0.911   1.080   3.820
 2216SOL    MW4 8896   0.917   1.158   3.858
 2217SOL     OW 8897   1.133   1.290   3.728
 2217SOL    HW2 8898   1.124   1.377   3.766
 2217SOL    HW3 8899   1.069   1.237   3.776
 2217SOL    MW4 8900   1.123   1.294   3.739
 2218SOL     OW 8901   1.100   1.548   3.861
 2218SOL    HW2 8902   1.093   1.563   3.955
 2218SOL    HW3 8903   1.170   1.606   3.833
 2218SOL    MW4 8904   1.108   1.557   3.870
 2219SOL     OW 8905   0.888   1.706   3.784
 2219SOL    HW2 8906   0.965   1.656   3.808
 2219SOL    HW3 8907   0.881   1.696   3.689
 2219SOL    MW4 8908   0.897   1.698   3.774
 2220SOL     OW 8909   0.863   1.966   3.882
 2220SOL    HW2 8910   0.878   1.876   3.853
 2220SOL    HW3 8911   0.798   2.001   3.820
 2220SOL    MW4 8912   0.856   1.959   3.870
 2221SOL     OW 8913   1.102   2.081   3.824
 2221SOL    HW2 8914   1.020   2.039   3.852
 2221SOL    HW3 8915   1.105   2.067   3.730
 2221SOL    MW4 8916   1.092   2.074   3.815
 2222SOL     OW 8917   1.180   2.341   3.884
 2222SOL    HW2 8918   1.180   2.360   3.978
 2222SOL    HW3 8919   1.156   2.249   3.879
 2222SOL    MW4 8920   1.177   2.331   3.896
 2223SOL     OW 8921   0.908   2.379   3.809
 2223SOL    HW2 8922   0.900   2.473   3.822
 2223SOL    HW3 8923   0.990   2.355   3.852
 2223SOL    MW4 8924   0.917   2.388   3.816
 2224SOL     OW 8925   0.921   2.658   3.850
 2224SOL    HW2 8926   0.909   2.680   3.943
 2224SOL    HW3 8927   1.002   2.703   3.825
 2224SOL    MW4 8928   0.930   2.667   3.859
 2225SOL     OW 8929   1.144   2.820   3.764
 2225SOL    HW2 8930   1.218   2.774   3.803
 2225SOL    HW3 8931   1.145   2.907   3.804
 2225SOL    MW4 8932   1.154   2.825   3.774
 2226SOL     OW 8933   1.094   3.096   3.859
 2226SOL    HW2 8934   1.178   3.135   3.835
 2226SOL    HW3 8935   1.029   3.156   3.824
 2226SOL    MW4 8936   1.097   3.109   3.851
 2227SOL     OW 8937   0.885   3.254   3.766
 2227SOL    HW2 8938   0.813   3.196   3.793
 2227SOL    HW3 8939   0.889   3.246   3.671
 2227SOL    MW4 8940   0.876   3.245   3.757
 2228SOL     OW 8941   0.895   3.528   3.859
 2228SOL    HW2 8942   0.904   3.437   3.833
 2228SOL    HW3 8943   0.816   3.559   3.815
 2228SOL    MW4 8944   0.886   3.520   3.850
 2229SOL     OW 8945   1.080   3.666   3.726
 2229SOL    HW2 8946   1.088   3.755   3.759
 2229SOL    HW3 8947   1.016   3.624   3.783
 2229SOL    MW4 8948   1.073   3.672   3.738
 2230SOL     OW 8949   1.076   3.927   3.866
 2230SOL    HW2 8950   1.088   3.884   3.950
 2230SOL    HW3 8951   1.164   3.944   3.834
 2230SOL    MW4 8952   1.089   3.923   3.873
 2231SOL     OW 8953   0.855   4.073   3.768
 2231SOL    HW2 8954   0.928   4.030   3.812
 2231SOL    HW3 8955   0.858   4.039   3.678
 2231SOL    MW4 8956   0.865   4.063   3.762
 2232SOL     OW 8957   0.912   4.344   3.847
 2232SOL    HW2 8958   0.950   4.346   3.935
 2232SOL    HW3 8959   0.907   4.251   3.825
 2232SOL    MW4 8960   0.916   4.332   3.855
 2233SOL     OW 8961   1.182   4.394   3.744
 2233SOL    HW2 8962   1.104   4.369   3.793
 2233SOL    HW3 8963   1.152   4.401   3.653
 2233SOL    MW4 8964   1.167   4.392   3.739
 2234SOL     OW 8965   1.544   4.648   3.880
 2234SOL    HW2 8966   1.532   4.631   3.973
 2234SOL    HW3 8967   1.547   4.561   3.840
 2234SOL    MW4 8968   1.543   4.634   3.887
 2235SOL     OW 8969   1.338   0.126   3.752
 2235SOL    HW2 8970   1.328   0.211   3.795
 2235SOL    HW3 8971   1.408   0.083   3.801
 2235SOL    MW4 8972   1.346   0.132   3.764
 2236SOL     OW 8973   1.321   0.387   3.864
 2236SOL    HW2 8974   1.309   0.387   3.959
 2236SOL    HW3 8975   1.414   0.404   3.851
 2236SOL    MW4 8976   1.331   0.389   3.875
 2237SOL     OW 8977   1.549   0.510   3.800
 2237SOL    HW2 8978   1.635   0.484   3.832
 2237SOL    HW3 8979   1.543   0.603   3.821
 2237SOL    MW4 8980   1.560   0.519   3.807
 2238SOL     OW 8981   1.536   0.768   3.887
 2238SOL    HW2 8982   1.619   0.794   3.848
 2238SOL    HW3 8983   1.469   0.805   3.829
 2238SOL    MW4 8984   1.538   0.776   3.874
 2239SOL     OW 8985   1.358   0.883   3.719
 2239SOL    HW2 8986   1.361   0.973   3.750
 2239SOL    HW3 8987   1.272   0.851   3.745
 2239SOL    MW4 8988   1.347   0.890   3.726
 2240SOL     OW 8989   1.363   1.142   3.778
 2240SOL    HW2 8990   1.446   1.183   3.754
 2240SOL    HW3 8991   1.296   1.199   3.741
 2240SOL    MW4 8992   1.365   1.155   3.770
 2241SOL     OW 8993   1.594   1.278   3.706
 2241SOL    HW2 8994   1.667   1.237   3.753
 2241SOL    HW3 8995   1.587   1.365   3.744
 2241SOL    MW4 8996   1.603   1.284   3.717
 2242SOL     OW 8997   1.535   1.564   3.838
 2242SOL    HW2 8998   1.529   1.576   3.933
 2242SOL    HW3 8999   1.615   1.610   3.813
 2242SOL    MW4 9000   1.545   1.571   3.847
 2243SOL     OW 9001   1.299   1.694   3.743
 2243SOL    HW2 9002   1.296   1.780   3.785
 2243SOL    HW3 9003   1.375   1.652   3.783
 2243SOL    MW4 9004   1.309   1.700   3.754
 2244SOL     OW 9005   1.333   1.918   3.884
 2244SOL    HW2 9006   1.359   1.918   3.976
 2244SOL    HW3 9007   1.264   1.984   3.879
 2244SOL    MW4 9008   1.327   1.927   3.895
 2245SOL     OW 9009   1.560   2.068   3.777
 2245SOL    HW2 9010   1.491   2.020   3.822
 2245SOL    HW3 9011   1.539   2.058   3.684
 2245SOL    MW4 9012   1.548   2.061   3.770
 2246SOL     OW 9013   1.617   2.335   3.865
 2246SOL    HW2 9014   1.699   2.381   3.843
 2246SOL    HW3 9015   1.629   2.247   3.829
 2246SOL    MW4 9016   1.630   2.330   3.857
 2247SOL     OW 9017   1.384   2.462   3.748
 2247SOL    HW2 9018   1.458   2.405   3.772
 2247SOL    HW3 9019   1.307   2.413   3.775
 2247SOL    MW4 9020   1.384   2.448   3.755
 2248SOL     OW 9021   1.389   2.725   3.860
 2248SOL    HW2 9022   1.375   2.705   3.952
 2248SOL    HW3 9023   1.380   2.640   3.816
 2248SOL    MW4 9024   1.386   2.711   3.866
 2249SOL     OW 9025   1.599   2.900   3.781
 2249SOL    HW2 9026   1.518   2.859   3.811
 2249SOL    HW3 9027   1.599   2.887   3.686
 2249SOL    MW4 9028   1.588   2.893   3.772
 2250SOL     OW 9029   1.562   3.171   3.903
 2250SOL    HW2 9030   1.564   3.168   3.999
 2250SOL    HW3 9031   1.587   3.083   3.876
 2250SOL    MW4 9032   1.566   3.159   3.912
 2251SOL     OW 9033   1.309   3.253   3.801
 2251SOL    HW2 9034   1.277   3.341   3.821
 2251SOL    HW3 9035   1.392   3.247   3.849
 2251SOL    MW4 9036   1.316   3.264   3.810
 2252SOL     OW 9037   1.280   3.510   3.882
 2252SOL    HW2 9038   1.372   3.524   3.858
 2252SOL    HW3 9039   1.233   3.580   3.836
 2252SOL    MW4 9040   1.286   3.521   3.873
 2253SOL     OW 9041   1.553   3.587   3.794
 2253SOL    HW2 9042   1.644   3.565   3.816
 2253SOL    HW3 9043   1.545   3.680   3.817
 2253SOL    MW4 9044   1.564   3.597   3.800
 2254SOL     OW 9045   1.561   3.856   3.845
 2254SOL    HW2 9046   1.573   3.860   3.940
 2254SOL    HW3 9047   1.479   3.901   3.829
 2254SOL    MW4 9048   1.552   3.862   3.856
 2255SOL     OW 9049   1.317   3.953   3.764
 2255SOL    HW2 9050   1.344   4.039   3.795
 2255SOL    HW3 9051   1.337   3.954   3.671
 2255SOL    MW4 9052   1.323   3.965   3.756
 2256SOL     OW 9053   1.359   4.208   3.834
 2256SOL    HW2 9054   1.443   4.251   3.818
 2256SOL    HW3 9055   1.294   4.273   3.808
 2256SOL    MW4 9056   1.361   4.223   3.829
 2257SOL     OW 9057   1.578   4.393   3.761
 2257SOL    HW2 9058   1.649   4.332   3.780
 2257SOL    HW3 9059   1.584   4.407   3.667
 2257SOL    MW4 9060   1.588   4.387   3.751
 2258SOL     OW 9061   1.994   4.642   3.897
 2258SOL    HW2 9062   2.083   4.674   3.881
 2258SOL    HW3 9063   1.987   4.563   3.844
 2258SOL    MW4 9064   2.005   4.636   3.888
 2259SOL     OW 9065   1.771   0.147   3.808
 2259SOL    HW2 9066   1.842   0.097   3.847
 2259SOL    HW3 9067   1.694   0.090   3.816
 2259SOL    MW4 9068   1.770   0.132   3.814
 2260SOL     OW 9069   1.798   0.402   3.889
 2260SOL    HW2 9070   1.772   0.389   3.980
 2260SOL    HW3 9071   1.787   0.316   3.848
 2260SOL    MW4 9072   1.793   0.389   3.896
 2261SOL     OW 9073   2.065   0.482   3.776
 2261SOL    HW2 9074   1.982   0.454   3.814
 2261SOL    HW3 9075   2.052   0.475   3.681
 2261SOL    MW4 9076   2.052   0.478   3.768
 2262SOL     OW 9077   2.028   0.755   3.867
 2262SOL    HW2 9078   2.024   0.740   3.961
 2262SOL    HW3 9079   2.033   0.667   3.829
 2262SOL    MW4 9080   2.028   0.741   3.874
 2263SOL     OW 9081   1.772   0.873   3.774
 2263SOL    HW2 9082   1.849   0.826   3.807
 2263SOL    HW3 9083   1.775   0.859   3.679
 2263SOL    MW4 9084   1.782   0.865   3.766
 2264SOL     OW 9085   1.804   1.151   3.836
 2264SOL    HW2 9086   1.830   1.158   3.928
 2264SOL    HW3 9087   1.798   1.056   3.820
 2264SOL    MW4 9088   1.807   1.139   3.846
 2265SOL     OW 9089   2.032   1.268   3.715
 2265SOL    HW2 9090   2.101   1.203   3.726
 2265SOL    HW3 9091   1.959   1.235   3.768
 2265SOL    MW4 9092   2.031   1.255   3.724
 2266SOL     OW 9093   2.033   1.536   3.799
 2266SOL    HW2 9094   1.948   1.565   3.766
 2266SOL    HW3 9095   2.033   1.442   3.784
 2266SOL    MW4 9096   2.022   1.528   3.793
 2267SOL     OW 9097   1.775   1.679   3.740
 2267SOL    HW2 9098   1.783   1.771   3.766
 2267SOL    HW3 9099   1.801   1.679   3.647
 2267SOL    MW4 9100   1.780   1.692   3.731
 2268SOL     OW 9101   1.796   1.944   3.824
 2268SOL    HW2 9102   1.798   1.951   3.920
 2268SOL    HW3 9103   1.720   1.995   3.798
 2268SOL    MW4 9104   1.786   1.952   3.834
 2269SOL     OW 9105   2.005   2.100   3.712
 2269SOL    HW2 9106   1.935   2.054   3.758
 2269SOL    HW3 9107   1.985   2.087   3.620
 2269SOL    MW4 9108   1.993   2.092   3.706
 2270SOL     OW 9109   2.019   2.332   3.893
 2270SOL    HW2 9110   1.956   2.390   3.850
 2270SOL    HW3 9111   2.040   2.266   3.828
 2270SOL    MW4 9112   2.014   2.331   3.879
 2271SOL     OW 9113   1.835   2.481   3.763
 2271SOL    HW2 9114   1.829   2.569   3.802
 2271SOL    HW3 9115   1.798   2.491   3.676
 2271SOL    MW4 9116   1.830   2.494   3.757
 2272SOL     OW 9117   1.806   2.734   3.868
 2272SOL    HW2 9118   1.805   2.730   3.964
 2272SOL    HW3 9119   1.732   2.790   3.846
 2272SOL    MW4 9120   1.796   2.741   3.878
 2273SOL     OW 9121   2.032   2.804   3.731
 2273SOL    HW2 9122   2.116   2.786   3.773
 2273SOL    HW3 9123   1.967   2.770   3.792
 2273SOL    MW4 9124   2.035   2.797   3.744
 2274SOL     OW 9125   1.985   3.061   3.827
 2274SOL    HW2 9126   2.004   2.980   3.780
 2274SOL    HW3 9127   2.057   3.120   3.804
 2274SOL    MW4 9128   1.997   3.058   3.817
 2275SOL     OW 9129   1.781   3.228   3.741
 2275SOL    HW2 9130   1.856   3.178   3.772
 2275SOL    HW3 9131   1.711   3.209   3.804
 2275SOL    MW4 9132   1.781   3.219   3.753
 2276SOL     OW 9133   1.804   3.520   3.853
 2276SOL    HW2 9134   1.889   3.556   3.829
 2276SOL    HW3 9135   1.792   3.444   3.796
 2276SOL    MW4 9136   1.813   3.515   3.842
 2277SOL     OW 9137   2.037   3.662   3.799
 2277SOL    HW2 9138   2.096   3.602   3.844
 2277SOL    HW3 9139   2.062   3.656   3.707
 2277SOL    MW4 9140   2.048   3.653   3.793
 2278SOL     OW 9141   2.023   3.905   3.903
 2278SOL    HW2 9142   2.090   3.953   3.854
 2278SOL    HW3 9143   2.027   3.816   3.868
 2278SOL    MW4 9144   2.033   3.899   3.892
 2279SOL     OW 9145   1.800   3.999   3.769
 2279SOL    HW2 9146   1.881   3.963   3.807
 2279SOL    HW3 9147   1.730   3.946   3.807
 2279SOL    MW4 9148   1.802   3.987   3.779
 2280SOL     OW 9149   1.820   4.259   3.882
 2280SOL    HW2 9150   1.880   4.303   3.821
 2280SOL    HW3 9151   1.809   4.171   3.846
 2280SOL    MW4 9152   1.826   4.254   3.869
 2281SOL     OW 9153   2.018   4.397   3.746
 2281SOL    HW2 9154   2.094   4.348   3.777
 2281SOL    HW3 9155   2.024   4.393   3.651
 2281SOL    MW4 9156   2.028   4.390   3.738
 2282SOL     OW 9157   2.444   4.631   3.898
 2282SOL    HW2 9158   2.471   4.562   3.958
 2282SOL    HW3 9159   2.525   4.669   3.864
 2282SOL    MW4 9160   2.458   4.627   3.901
 2283SOL     OW 9161   2.226   0.110   3.776
 2283SOL    HW2 9162   2.296   0.055   3.809
 2283SOL    HW3 9163   2.244   0.121   3.683
 2283SOL    MW4 9164   2.237   0.104   3.768
 2284SOL     OW 9165   2.258   0.342   3.901
 2284SOL    HW2 9166   2.252   0.252   3.870
 2284SOL    HW3 9167   2.182   0.386   3.862
 2284SOL    MW4 9168   2.247   0.336   3.892
 2285SOL     OW 9169   2.467   0.456   3.765
 2285SOL    HW2 9170   2.386   0.421   3.802
 2285SOL    HW3 9171   2.446   0.474   3.674
 2285SOL    MW4 9172   2.453   0.454   3.758
 2286SOL     OW 9173   2.462   0.741   3.869
 2286SOL    HW2 9174   2.397   0.792   3.820
 2286SOL    HW3 9175   2.470   0.660   3.820
 2286SOL    MW4 9176   2.454   0.737   3.856
 2287SOL     OW 9177   2.254   0.855   3.743
 2287SOL    HW2 9178   2.178   0.824   3.791
 2287SOL    HW3 9179   2.225   0.859   3.652
 2287SOL    MW4 9180   2.240   0.851   3.737
 2288SOL     OW 9181   2.244   1.121   3.832
 2288SOL    HW2 9182   2.223   1.118   3.925
 2288SOL    HW3 9183   2.256   1.030   3.806
 2288SOL    MW4 9184   2.243   1.109   3.841
 2289SOL     OW 9185   2.474   1.269   3.734
 2289SOL    HW2 9186   2.451   1.351   3.778
 2289SOL    HW3 9187   2.410   1.205   3.767
 2289SOL    MW4 9188   2.462   1.271   3.744
 2290SOL     OW 9189   2.431   1.538   3.824
 2290SOL    HW2 9190   2.509   1.589   3.804
 2290SOL    HW3 9191   2.362   1.579   3.771
 2290SOL    MW4 9192   2.432   1.550   3.814
 2291SOL     OW 9193   2.229   1.678   3.682
 2291SOL    HW2 9194   2.224   1.765   3.723
 2291SOL    HW3 9195   2.150   1.633   3.712
 2291SOL    MW4 9196   2.218   1.684   3.691
 2292SOL     OW 9197   2.224   1.923   3.814
 2292SOL    HW2 9198   2.249   1.937   3.905
 2292SOL    HW3 9199   2.150   1.982   3.800
 2292SOL    MW4 9200   2.217   1.933   3.824
 2293SOL     OW 9201   2.458   2.035   3.730
 2293SOL    HW2 9202   2.447   2.120   3.771
 2293SOL    HW3 9203   2.375   1.990   3.746
 2293SOL    MW4 9204   2.445   2.040   3.737
 2294SOL     OW 9205   2.480   2.278   3.870
 2294SOL    HW2 9206   2.558   2.318   3.831
 2294SOL    HW3 9207   2.408   2.335   3.844
 2294SOL    MW4 9208   2.481   2.291   3.861
 2295SOL     OW 9209   2.278   2.431   3.755
 2295SOL    HW2 9210   2.188   2.407   3.779
 2295SOL    HW3 9211   2.280   2.423   3.659
 2295SOL    MW4 9212   2.267   2.427   3.745
 2296SOL     OW 9213   2.267   2.756   3.855
 2296SOL    HW2 9214   2.248   2.791   3.942
 2296SOL    HW3 9215   2.284   2.663   3.870
 2296SOL    MW4 9216   2.266   2.748   3.869
 2297SOL     OW 9217   2.526   2.822   3.804
 2297SOL    HW2 9218   2.438   2.797   3.831
 2297SOL    HW3 9219   2.518   2.842   3.711
 2297SOL    MW4 9220   2.513   2.822   3.795
 2298SOL     OW 9221   2.471   3.090   3.891
 2298SOL    HW2 9222   2.485   3.080   3.985
 2298SOL    HW3 9223   2.489   3.002   3.855
 2298SOL    MW4 9224   2.475   3.077   3.899
 2299SOL     OW 9225   2.222   3.207   3.780
 2299SOL    HW2 9226   2.220   3.297   3.813
 2299SOL    HW3 9227   2.305   3.171   3.813
 2299SOL    MW4 9228   2.233   3.214   3.789
 2300SOL     OW 9229   2.216   3.463   3.868
 2300SOL    HW2 9230   2.223   3.448   3.963
 2300SOL    HW3 9231   2.297   3.509   3.845
 2300SOL    MW4 9232   2.228   3.467   3.878
 2301SOL     OW 9233   2.446   3.626   3.778
 2301SOL    HW2 9234   2.532   3.590   3.800
 2301SOL    HW3 9235   2.438   3.612   3.684
 2301SOL    MW4 9236   2.456   3.619   3.769
 2302SOL     OW 9237   2.478   3.894   3.852
 2302SOL    HW2 9238   2.557   3.932   3.812
 2302SOL    HW3 9239   2.476   3.804   3.819
 2302SOL    MW4 9240   2.488   3.887   3.842
 2303SOL     OW 9241   2.242   4.002   3.746
 2303SOL    HW2 9242   2.321   3.960   3.780
 2303SOL    HW3 9243   2.251   3.996   3.651
 2303SOL    MW4 9244   2.254   3.996   3.738
 2304SOL     OW 9245   2.261   4.256   3.863
 2304SOL    HW2 9246   2.242   4.231   3.954
 2304SOL    HW3 9247   2.274   4.173   3.818
 2304SOL    MW4 9248   2.260   4.241   3.869
 2305SOL     OW 9249   2.459   4.410   3.745
 2305SOL    HW2 9250   2.397   4.354   3.791
 2305SOL    HW3 9251   2.453   4.495   3.790
 2305SOL    MW4 9252   2.450   4.414   3.757
 2306SOL     OW 9253   2.937   4.615   3.838
 2306SOL    HW2 9254   2.940   4.618   3.934
 2306SOL    HW3 9255   3.006   4.674   3.810
 2306SOL    MW4 9256   2.946   4.623   3.847
 2307SOL     OW 9257   2.681   0.069   3.796
 2307SOL    HW2 9258   2.763   0.025   3.816
 2307SOL    HW3 9259   2.677   0.071   3.701
 2307SOL    MW4 9260   2.691   0.063   3.786
 2308SOL     OW 9261   2.696   0.341   3.880
 2308SOL    HW2 9262   2.696   0.246   3.868
 2308SOL    HW3 9263   2.618   0.371   3.835
 2308SOL    MW4 9264   2.686   0.333   3.873
 2309SOL     OW 9265   2.910   0.492   3.797
 2309SOL    HW2 9266   2.980   0.430   3.815
 2309SOL    HW3 9267   2.831   0.449   3.829
 2309SOL    MW4 9268   2.908   0.478   3.804
 2310SOL     OW 9269   2.909   0.759   3.875
 2310SOL    HW2 9270   2.992   0.793   3.839
 2310SOL    HW3 9271   2.913   0.665   3.860
 2310SOL    MW4 9272   2.921   0.751   3.868
 2311SOL     OW 9273   2.684   0.869   3.747
 2311SOL    HW2 9274   2.760   0.830   3.790
 2311SOL    HW3 9275   2.609   0.825   3.787
 2311SOL    MW4 9276   2.685   0.858   3.758
 2312SOL     OW 9277   2.716   1.134   3.840
 2312SOL    HW2 9278   2.707   1.050   3.794
 2312SOL    HW3 9279   2.639   1.184   3.814
 2312SOL    MW4 9280   2.704   1.129   3.831
 2313SOL     OW 9281   2.945   1.287   3.775
 2313SOL    HW2 9282   2.941   1.371   3.822
 2313SOL    HW3 9283   2.867   1.240   3.803
 2313SOL    MW4 9284   2.934   1.292   3.784
 2314SOL     OW 9285   2.893   1.537   3.900
 2314SOL    HW2 9286   2.883   1.551   3.994
 2314SOL    HW3 9287   2.980   1.570   3.880
 2314SOL    MW4 9288   2.903   1.543   3.910
 2315SOL     OW 9289   2.680   1.665   3.803
 2315SOL    HW2 9290   2.747   1.604   3.833
 2315SOL    HW3 9291   2.689   1.665   3.708
 2315SOL    MW4 9292   2.690   1.657   3.795
 2316SOL     OW 9293   2.701   1.919   3.838
 2316SOL    HW2 9294   2.692   1.825   3.826
 2316SOL    HW3 9295   2.623   1.956   3.797
 2316SOL    MW4 9296   2.689   1.912   3.831
 2317SOL     OW 9297   2.959   2.003   3.744
 2317SOL    HW2 9298   2.978   2.094   3.766
 2317SOL    HW3 9299   2.873   1.987   3.784
 2317SOL    MW4 9300   2.950   2.013   3.752
 2318SOL     OW 9301   2.968   2.264   3.843
 2318SOL    HW2 9302   2.951   2.257   3.937
 2318SOL    HW3 9303   3.036   2.331   3.835
 2318SOL    MW4 9304   2.975   2.272   3.854
 2319SOL     OW 9305   2.717   2.353   3.760
 2319SOL    HW2 9306   2.720   2.439   3.803
 2319SOL    HW3 9307   2.796   2.308   3.789
 2319SOL    MW4 9308   2.728   2.359   3.770
 2320SOL     OW 9309   2.746   2.660   3.881
 2320SOL    HW2 9310   2.732   2.624   3.968
 2320SOL    HW3 9311   2.669   2.715   3.865
 2320SOL    MW4 9312   2.734   2.663   3.890
 2321SOL     OW 9313   2.918   2.841   3.764
 2321SOL    HW2 9314   2.911   2.927   3.804
 2321SOL    HW3 9315   2.852   2.787   3.808
 2321SOL    MW4 9316   2.908   2.845   3.775
 2322SOL     OW 9317   2.897   3.072   3.899
 2322SOL    HW2 9318   2.977   3.123   3.885
 2322SOL    HW3 9319   2.827   3.129   3.867
 2322SOL    MW4 9320   2.899   3.086   3.893
 2323SOL     OW 9321   2.688   3.247   3.802
 2323SOL    HW2 9322   2.678   3.334   3.842
 2323SOL    HW3 9323   2.611   3.198   3.833
 2323SOL    MW4 9324   2.676   3.252   3.811
 2324SOL     OW 9325   2.685   3.516   3.865
 2324SOL    HW2 9326   2.717   3.509   3.955
 2324SOL    HW3 9327   2.759   3.553   3.816
 2324SOL    MW4 9328   2.699   3.520   3.870
 2325SOL     OW 9329   2.918   3.602   3.740
 2325SOL    HW2 9330   2.978   3.539   3.781
 2325SOL    HW3 9331   2.918   3.578   3.648
 2325SOL    MW4 9332   2.925   3.590   3.734
 2326SOL     OW 9333   2.926   3.854   3.881
 2326SOL    HW2 9334   2.920   3.836   3.975
 2326SOL    HW3 9335   2.925   3.767   3.840
 2326SOL    MW4 9336   2.925   3.840   3.888
 2327SOL     OW 9337   2.732   3.962   3.729
 2327SOL    HW2 9338   2.747   4.054   3.753
 2327SOL    HW3 9339   2.784   3.912   3.791
 2327SOL    MW4 9340   2.741   3.968   3.740
 2328SOL     OW 9341   2.694   4.232   3.786
 2328SOL    HW2 9342   2.776   4.273   3.760
 2328SOL    HW3 9343   2.626   4.292   3.758
 2328SOL    MW4 9344   2.696   4.245   3.779
 2329SOL     OW 9345   2.937   4.350   3.751
 2329SOL    HW2 9346   3.007   4.309   3.802
 2329SOL    HW3 9347   2.938   4.442   3.778
 2329SOL    MW4 9348   2.946   4.357   3.761
 2330SOL     OW 9349   3.375   4.604   3.860
 2330SOL    HW2 9350   3.357   4.618   3.952
 2330SOL    HW3 9351   3.445   4.666   3.839
 2330SOL    MW4 9352   3.382   4.614   3.869
 2331SOL     OW 9353   3.152   0.113   3.796
 2331SOL    HW2 9354   3.226   0.062   3.829
 2331SOL    HW3 9355   3.167   0.118   3.701
 2331SOL    MW4 9356   3.164   0.107   3.787
 2332SOL     OW 9357   3.151   0.376   3.887
 2332SOL    HW2 9358   3.139   0.357   3.980
 2332SOL    HW3 9359   3.165   0.291   3.847
 2332SOL    MW4 9360   3.151   0.363   3.894
 2333SOL     OW 9361   3.393   0.473   3.780
 2333SOL    HW2 9362   3.466   0.447   3.838
 2333SOL    HW3 9363   3.315   0.437   3.822
 2333SOL    MW4 9364   3.393   0.465   3.793
 2334SOL     OW 9365   3.382   0.739   3.872
 2334SOL    HW2 9366   3.352   0.722   3.962
 2334SOL    HW3 9367   3.398   0.652   3.835
 2334SOL    MW4 9368   3.380   0.725   3.879
 2335SOL     OW 9369   3.152   0.888   3.776
 2335SOL    HW2 9370   3.221   0.837   3.819
 2335SOL    HW3 9371   3.166   0.873   3.682
 2335SOL    MW4 9372   3.163   0.879   3.769
 2336SOL     OW 9373   3.157   1.147   3.905
 2336SOL    HW2 9374   3.154   1.058   3.869
 2336SOL    HW3 9375   3.082   1.191   3.864
 2336SOL    MW4 9376   3.147   1.141   3.895
 2337SOL     OW 9377   3.394   1.286   3.789
 2337SOL    HW2 9378   3.320   1.230   3.813
 2337SOL    HW3 9379   3.395   1.284   3.694
 2337SOL    MW4 9380   3.384   1.278   3.780
 2338SOL     OW 9381   3.329   1.525   3.911
 2338SOL    HW2 9382   3.256   1.551   3.854
 2338SOL    HW3 9383   3.353   1.437   3.881
 2338SOL    MW4 9384   3.322   1.517   3.900
 2339SOL     OW 9385   3.117   1.626   3.783
 2339SOL    HW2 9386   3.145   1.711   3.817
 2339SOL    HW3 9387   3.136   1.629   3.690
 2339SOL    MW4 9388   3.123   1.638   3.775
 2340SOL     OW 9389   3.203   1.869   3.870
 2340SOL    HW2 9390   3.173   1.882   3.959
 2340SOL    HW3 9391   3.138   1.913   3.816
 2340SOL    MW4 9392   3.191   1.877   3.874
 2341SOL     OW 9393   3.385   2.057   3.791
 2341SOL    HW2 9394   3.327   1.992   3.831
 2341SOL    HW3 9395   3.374   2.045   3.697
 2341SOL    MW4 9396   3.376   2.047   3.784
 2342SOL     OW 9397   3.411   2.324   3.866
 2342SOL    HW2 9398   3.331   2.359   3.826
 2342SOL    HW3 9399   3.402   2.229   3.859
 2342SOL    MW4 9400   3.399   2.316   3.860
 2343SOL     OW 9401   3.173   2.424   3.769
 2343SOL    HW2 9402   3.181   2.513   3.803
 2343SOL    HW3 9403   3.155   2.435   3.676
 2343SOL    MW4 9404   3.172   2.437   3.761
 2344SOL     OW 9405   3.147   2.691   3.870
 2344SOL    HW2 9406   3.142   2.682   3.965
 2344SOL    HW3 9407   3.083   2.759   3.849
 2344SOL    MW4 9408   3.138   2.699   3.880
 2345SOL     OW 9409   3.387   2.807   3.772
 2345SOL    HW2 9410   3.310   2.760   3.803
 2345SOL    HW3 9411   3.368   2.824   3.679
 2345SOL    MW4 9412   3.374   2.803   3.764
 2346SOL     OW 9413   3.391   3.058   3.904
 2346SOL    HW2 9414   3.473   3.099   3.877
 2346SOL    HW3 9415   3.385   2.978   3.852
 2346SOL    MW4 9416   3.401   3.053   3.894
 2347SOL     OW 9417   3.163   3.179   3.827
 2347SOL    HW2 9418   3.240   3.136   3.865
 2347SOL    HW3 9419   3.182   3.183   3.733
 2347SOL    MW4 9420   3.176   3.174   3.820
 2348SOL     OW 9421   3.100   3.440   3.848
 2348SOL    HW2 9422   3.183   3.487   3.837
 2348SOL    HW3 9423   3.122   3.348   3.831
 2348SOL    MW4 9424   3.114   3.434   3.844
 2349SOL     OW 9425   3.334   3.580   3.817
 2349SOL    HW2 9426   3.335   3.665   3.863
 2349SOL    HW3 9427   3.319   3.603   3.725
 2349SOL    MW4 9428   3.332   3.594   3.811
 2350SOL     OW 9429   3.330   3.862   3.917
 2350SOL    HW2 9430   3.412   3.882   3.872
 2350SOL    HW3 9431   3.262   3.902   3.863
 2350SOL    MW4 9432   3.332   3.870   3.904
 2351SOL     OW 9433   3.139   3.969   3.751
 2351SOL    HW2 9434   3.134   4.058   3.786
 2351SOL    HW3 9435   3.072   3.920   3.798
 2351SOL    MW4 9436   3.130   3.974   3.762
 2352SOL     OW 9437   3.159   4.215   3.878
 2352SOL    HW2 9438   3.158   4.203   3.973
 2352SOL    HW3 9439   3.252   4.222   3.856
 2352SOL    MW4 9440   3.172   4.215   3.888
 2353SOL     OW 9441   3.402   4.312   3.781
 2353SOL    HW2 9442   3.488   4.273   3.796
 2353SOL    HW3 9443   3.410   4.400   3.817
 2353SOL    MW4 9444   3.415   4.319   3.788
 2354SOL     OW 9445   3.781   4.641   3.890
 2354SOL    HW2 9446   3.869   4.670   3.869
 2354SOL    HW3 9447   3.775   4.552   3.855
 2354SOL    MW4 9448   3.792   4.633   3.883
 2355SOL     OW 9449   3.571   0.125   3.825
 2355SOL    HW2 9450   3.648   0.075   3.855
 2355SOL    HW3 9451   3.581   0.127   3.729
 2355SOL    MW4 9452   3.583   0.118   3.816
 2356SOL     OW 9453   3.602   0.365   3.951
 2356SOL    HW2 9454   3.674   0.394   3.895
 2356SOL    HW3 9455   3.590   0.273   3.930
 2356SOL    MW4 9456   3.610   0.357   3.941
 2357SOL     OW 9457   3.788   0.466   3.782
 2357SOL    HW2 9458   3.871   0.419   3.793
 2357SOL    HW3 9459   3.807   0.555   3.810
 2357SOL    MW4 9460   3.801   0.471   3.787
 2358SOL     OW 9461   3.832   0.716   3.885
 2358SOL    HW2 9462   3.910   0.756   3.848
 2358SOL    HW3 9463   3.759   0.764   3.846
 2358SOL    MW4 9464   3.832   0.728   3.875
 2359SOL     OW 9465   3.614   0.881   3.782
 2359SOL    HW2 9466   3.610   0.970   3.816
 2359SOL    HW3 9467   3.535   0.839   3.817
 2359SOL    MW4 9468   3.603   0.887   3.791
 2360SOL     OW 9469   3.629   1.152   3.873
 2360SOL    HW2 9470   3.688   1.195   3.811
 2360SOL    HW3 9471   3.542   1.184   3.849
 2360SOL    MW4 9472   3.626   1.162   3.861
 2361SOL     OW 9473   3.824   1.294   3.729
 2361SOL    HW2 9474   3.901   1.241   3.751
 2361SOL    HW3 9475   3.824   1.363   3.795
 2361SOL    MW4 9476   3.834   1.296   3.741
 2362SOL     OW 9477   3.781   1.513   3.892
 2362SOL    HW2 9478   3.791   1.516   3.987
 2362SOL    HW3 9479   3.714   1.579   3.873
 2362SOL    MW4 9480   3.774   1.522   3.902
 2363SOL     OW 9481   3.551   1.684   3.832
 2363SOL    HW2 9482   3.466   1.653   3.863
 2363SOL    HW3 9483   3.549   1.668   3.737
 2363SOL    MW4 9484   3.540   1.678   3.823
 2364SOL     OW 9485   3.620   1.933   3.891
 2364SOL    HW2 9486   3.593   1.841   3.886
 2364SOL    HW3 9487   3.548   1.981   3.850
 2364SOL    MW4 9488   3.607   1.927   3.885
 2365SOL     OW 9489   3.841   2.083   3.761
 2365SOL    HW2 9490   3.914   2.025   3.780
 2365SOL    HW3 9491   3.765   2.038   3.797
 2365SOL    MW4 9492   3.840   2.069   3.768
 2366SOL     OW 9493   3.853   2.340   3.875
 2366SOL    HW2 9494   3.766   2.358   3.840
 2366SOL    HW3 9495   3.868   2.247   3.855
 2366SOL    MW4 9496   3.844   2.330   3.868
 2367SOL     OW 9497   3.625   2.436   3.737
 2367SOL    HW2 9498   3.547   2.396   3.776
 2367SOL    HW3 9499   3.613   2.426   3.643
 2367SOL    MW4 9500   3.613   2.429   3.730
 2368SOL     OW 9501   3.639   2.700   3.799
 2368SOL    HW2 9502   3.632   2.610   3.769
 2368SOL    HW3 9503   3.553   2.738   3.783
 2368SOL    MW4 9504   3.627   2.693   3.793
 2369SOL     OW 9505   3.869   2.822   3.708
 2369SOL    HW2 9506   3.942   2.772   3.744
 2369SOL    HW3 9507   3.792   2.787   3.751
 2369SOL    MW4 9508   3.869   2.811   3.718
 2370SOL     OW 9509   3.836   3.045   3.886
 2370SOL    HW2 9510   3.764   3.083   3.837
 2370SOL    HW3 9511   3.848   2.958   3.848
 2370SOL    MW4 9512   3.828   3.038   3.875
 2371SOL     OW 9513   3.609   3.179   3.785
 2371SOL    HW2 9514   3.594   3.267   3.820
 2371SOL    HW3 9515   3.589   3.187   3.692
 2371SOL    MW4 9516   3.604   3.191   3.778
 2372SOL     OW 9517   3.581   3.443   3.842
 2372SOL    HW2 9518   3.597   3.450   3.936
 2372SOL    HW3 9519   3.496   3.485   3.828
 2372SOL    MW4 9520   3.572   3.450   3.852
 2373SOL     OW 9521   3.798   3.578   3.725
 2373SOL    HW2 9522   3.802   3.660   3.774
 2373SOL    HW3 9523   3.729   3.527   3.767
 2373SOL    MW4 9524   3.789   3.582   3.737
 2374SOL     OW 9525   3.830   3.823   3.873
 2374SOL    HW2 9526   3.829   3.816   3.969
 2374SOL    HW3 9527   3.897   3.890   3.855
 2374SOL    MW4 9528   3.839   3.831   3.883
 2375SOL     OW 9529   3.587   3.946   3.797
 2375SOL    HW2 9530   3.588   4.028   3.847
 2375SOL    HW3 9531   3.666   3.900   3.824
 2375SOL    MW4 9532   3.597   3.951   3.807
 2376SOL     OW 9533   3.623   4.199   3.909
 2376SOL    HW2 9534   3.622   4.226   4.001
 2376SOL    HW3 9535   3.684   4.260   3.867
 2376SOL    MW4 9536   3.631   4.211   3.916
 2377SOL     OW 9537   3.806   4.383   3.786
 2377SOL    HW2 9538   3.889   4.359   3.829
 2377SOL    HW3 9539   3.823   4.367   3.693
 2377SOL    MW4 9540   3.819   4.378   3.779
 2378SOL     OW 9541   4.286   4.618   3.898
 2378SOL    HW2 9542   4.283   4.612   3.994
 2378SOL    HW3 9543   4.356   4.682   3.880
 2378SOL    MW4 9544   4.295   4.626   3.908
 2379SOL     OW 9545   4.045   0.065   3.817
 2379SOL    HW2 9546   4.125   0.021   3.846
 2379SOL    HW3 9547   4.048   0.060   3.721
 2379SOL    MW4 9548   4.056   0.058   3.808
 2380SOL     OW 9549   4.018   0.332   3.879
 2380SOL    HW2 9550   4.029   0.337   3.974
 2380SOL    HW3 9551   4.010   0.238   3.861
 2380SOL    MW4 9552   4.019   0.320   3.889
 2381SOL     OW 9553   4.252   0.502   3.806
 2381SOL    HW2 9554   4.179   0.447   3.835
 2381SOL    HW3 9555   4.247   0.501   3.711
 2381SOL    MW4 9556   4.242   0.494   3.797
 2382SOL     OW 9557   4.293   0.758   3.901
 2382SOL    HW2 9558   4.206   0.791   3.875
 2382SOL    HW3 9559   4.292   0.666   3.874
 2382SOL    MW4 9560   4.281   0.751   3.894
 2383SOL     OW 9561   4.043   0.868   3.797
 2383SOL    HW2 9562   4.029   0.962   3.811
 2383SOL    HW3 9563   4.034   0.856   3.703
 2383SOL    MW4 9564   4.040   0.879   3.787
 2384SOL     OW 9565   4.024   1.149   3.846
 2384SOL    HW2 9566   4.019   1.168   3.939
 2384SOL    HW3 9567   4.114   1.170   3.821
 2384SOL    MW4 9568   4.035   1.155   3.855
 2385SOL     OW 9569   4.279   1.263   3.797
 2385SOL    HW2 9570   4.288   1.353   3.830
 2385SOL    HW3 9571   4.295   1.270   3.703
 2385SOL    MW4 9572   4.282   1.276   3.789
 2386SOL     OW 9573   4.272   1.533   3.878
 2386SOL    HW2 9574   4.182   1.557   3.858
 2386SOL    HW3 9575   4.326   1.590   3.822
 2386SOL    MW4 9576   4.267   1.544   3.868
 2387SOL     OW 9577   4.015   1.619   3.793
 2387SOL    HW2 9578   4.004   1.711   3.816
 2387SOL    HW3 9579   3.943   1.574   3.838
 2387SOL    MW4 9580   4.004   1.625   3.802
 2388SOL     OW 9581   4.038   1.886   3.853
 2388SOL    HW2 9582   4.011   1.933   3.932
 2388SOL    HW3 9583   4.127   1.915   3.836
 2388SOL    MW4 9584   4.046   1.896   3.861
 2389SOL     OW 9585   4.254   2.051   3.750
 2389SOL    HW2 9586   4.275   2.137   3.786
 2389SOL    HW3 9587   4.253   2.064   3.655
 2389SOL    MW4 9588   4.256   2.064   3.742
 2390SOL     OW 9589   4.283   2.321   3.849
 2390SOL    HW2 9590   4.260   2.329   3.941
 2390SOL    HW3 9591   4.207   2.358   3.802
 2390SOL    MW4 9592   4.270   2.327   3.855
 2391SOL     OW 9593   4.060   2.438   3.723
 2391SOL    HW2 9594   4.061   2.528   3.755
 2391SOL    HW3 9595   3.984   2.398   3.766
 2391SOL    MW4 9596   4.050   2.445   3.733
 2392SOL     OW 9597   4.087   2.686   3.808
 2392SOL    HW2 9598   4.045   2.712   3.890
 2392SOL    HW3 9599   4.174   2.725   3.812
 2392SOL    MW4 9600   4.093   2.695   3.819
 2393SOL     OW 9601   4.354   2.826   3.732
 2393SOL    HW2 9602   4.348   2.912   3.773
 2393SOL    HW3 9603   4.428   2.783   3.777
 2393SOL    MW4 9604   4.363   2.832   3.743
 2394SOL     OW 9605   4.296   3.079   3.839
 2394SOL    HW2 9606   4.221   3.132   3.810
 2394SOL    HW3 9607   4.372   3.120   3.798
 2394SOL    MW4 9608   4.296   3.092   3.830
 2395SOL     OW 9609   4.056   3.210   3.765
 2395SOL    HW2 9610   3.998   3.147   3.808
 2395SOL    HW3 9611   4.061   3.179   3.674
 2395SOL    MW4 9612   4.049   3.198   3.759
 2396SOL     OW 9613   4.036   3.479   3.807
 2396SOL    HW2 9614   4.041   3.386   3.781
 2396SOL    HW3 9615   3.954   3.510   3.768
 2396SOL    MW4 9616   4.026   3.471   3.798
 2397SOL     OW 9617   4.247   3.650   3.740
 2397SOL    HW2 9618   4.163   3.609   3.759
 2397SOL    HW3 9619   4.312   3.593   3.782
 2397SOL    MW4 9620   4.245   3.637   3.748
 2398SOL     OW 9621   4.270   3.902   3.869
 2398SOL    HW2 9622   4.185   3.946   3.856
 2398SOL    HW3 9623   4.257   3.814   3.834
 2398SOL    MW4 9624   4.257   3.897   3.862
 2399SOL     OW 9625   4.017   4.004   3.818
 2399SOL    HW2 9626   4.018   4.098   3.838
 2399SOL    HW3 9627   4.014   4.001   3.722
 2399SOL    MW4 9628   4.017   4.016   3.808
 2400SOL     OW 9629   4.033   4.260   3.915
 2400SOL    HW2 9630   4.037   4.265   4.011
 2400SOL    HW3 9631   4.113   4.303   3.885
 2400SOL    MW4 9632   4.044   4.267   3.924
 2401SOL     OW 9633   4.257   4.370   3.788
 2401SOL    HW2 9634   4.265   4.449   3.841
 2401SOL    HW3 9635   4.326   4.312   3.820
 2401SOL    MW4 9636   4.267   4.373   3.799
 2402SOL     OW 9637   0.235   4.636   4.174
 2402SOL    HW2 9638   0.318   4.673   4.203
 2402SOL    HW3 9639   0.235   4.547   4.209
 2402SOL    MW4 9640   0.246   4.629   4.183
 2403SOL     OW 9641   0.007   0.097   4.265
 2403SOL    HW2 9642   0.026   0.094   4.359
 2403SOL    HW3 9643   0.081   0.053   4.224
 2403SOL    MW4 9644   0.019   0.091   4.272
 2404SOL     OW 9645   0.018   0.360   4.162
 2404SOL    HW2 9646   0.015   0.269   4.194
 2404SOL    HW3 9647   0.021   0.351   4.066
 2404SOL    MW4 9648   0.018   0.347   4.153
 2405SOL     OW 9649   0.249   0.510   4.231
 2405SOL    HW2 9650   0.324   0.475   4.183
 2405SOL    HW3 9651   0.175   0.457   4.201
 2405SOL    MW4 9652   0.249   0.498   4.221
 2406SOL     OW 9653   0.174   0.766   4.128
 2406SOL    HW2 9654   0.095   0.801   4.170
 2406SOL    HW3 9655   0.199   0.692   4.184
 2406SOL    MW4 9656   0.167   0.760   4.141
 2407SOL     OW 9657   4.469   0.899   4.271
 2407SOL    HW2 9658   4.390   0.864   4.231
 2407SOL    HW3 9659   4.476   0.988   4.235
 2407SOL    MW4 9660   4.460   0.906   4.261
 2408SOL     OW 9661   4.461   1.157   4.148
 2408SOL    HW2 9662   4.531   1.212   4.186
 2408SOL    HW3 9663   4.482   1.153   4.055
 2408SOL    MW4 9664   4.473   1.164   4.141
 2409SOL     OW 9665   0.212   1.315   4.198
 2409SOL    HW2 9666   0.237   1.310   4.291
 2409SOL    HW3 9667   0.284   1.273   4.151
 2409SOL    MW4 9668   0.225   1.309   4.204
 2410SOL     OW 9669   0.482   1.879   4.639
 2410SOL    HW2 9670   0.433   1.960   4.625
 2410SOL    HW3 9671   0.422   1.810   4.610
 2410SOL    MW4 9672   0.467   1.881   4.634
 2411SOL     OW 9673   0.001   1.721   4.198
 2411SOL    HW2 9674  -0.084   1.686   4.169
 2411SOL    HW3 9675  -0.002   1.813   4.172
 2411SOL    MW4 9676  -0.011   1.728   4.190
 2412SOL     OW 9677   0.227   2.075   4.258
 2412SOL    HW2 9678   0.207   2.061   4.351
 2412SOL    HW3 9679   0.298   2.014   4.239
 2412SOL    MW4 9680   0.234   2.065   4.268
 2413SOL     OW 9681   0.453   1.423   4.621
 2413SOL    HW2 9682   0.413   1.504   4.589
 2413SOL    HW3 9683   0.494   1.448   4.704
 2413SOL    MW4 9684   0.453   1.437   4.628
 2414SOL     OW 9685   0.253   2.337   4.152
 2414SOL    HW2 9686   0.326   2.383   4.194
 2414SOL    HW3 9687   0.245   2.255   4.200
 2414SOL    MW4 9688   0.261   2.333   4.164
 2415SOL     OW 9689   0.014   2.454   4.221
 2415SOL    HW2 9690  -0.065   2.408   4.192
 2415SOL    HW3 9691   0.086   2.409   4.177
 2415SOL    MW4 9692   0.013   2.442   4.211
 2416SOL     OW 9693   4.461   2.724   4.157
 2416SOL    HW2 9694   4.546   2.765   4.174
 2416SOL    HW3 9695   4.470   2.635   4.191
 2416SOL    MW4 9696   4.473   2.718   4.164
 2417SOL     OW 9697   0.218   2.832   4.232
 2417SOL    HW2 9698   0.308   2.802   4.221
 2417SOL    HW3 9699   0.221   2.926   4.211
 2417SOL    MW4 9700   0.230   2.841   4.228
 2418SOL     OW 9701   0.244   3.106   4.165
 2418SOL    HW2 9702   0.323   3.148   4.199
 2418SOL    HW3 9703   0.172   3.158   4.201
 2418SOL    MW4 9704   0.245   3.119   4.174
 2419SOL     OW 9705   0.035   3.261   4.238
 2419SOL    HW2 9706  -0.039   3.219   4.193
 2419SOL    HW3 9707   0.015   3.354   4.235
 2419SOL    MW4 9708   0.022   3.268   4.232
 2420SOL     OW 9709   4.485   3.546   4.161
 2420SOL    HW2 9710   4.405   3.572   4.207
 2420SOL    HW3 9711   4.465   3.558   4.069
 2420SOL    MW4 9712   4.472   3.551   4.155
 2421SOL     OW 9713   0.302   3.620   4.265
 2421SOL    HW2 9714   0.378   3.576   4.227
 2421SOL    HW3 9715   0.226   3.575   4.227
 2421SOL    MW4 9716   0.302   3.609   4.255
 2422SOL     OW 9717   0.077   4.019   4.236
 2422SOL    HW2 9718  -0.014   4.000   4.213
 2422SOL    HW3 9719   0.085   3.988   4.326
 2422SOL    MW4 9720   0.066   4.013   4.245
 2423SOL     OW 9721   0.056   3.872   4.482
 2423SOL    HW2 9722   0.090   3.787   4.511
 2423SOL    HW3 9723  -0.035   3.855   4.458
 2423SOL    MW4 9724   0.049   3.859   4.482
 2424SOL     OW 9725   0.012   4.260   4.124
 2424SOL    HW2 9726   0.033   4.172   4.157
 2424SOL    HW3 9727   0.005   4.248   4.029
 2424SOL    MW4 9728   0.014   4.247   4.116
 2425SOL     OW 9729   0.214   4.362   4.261
 2425SOL    HW2 9730   0.206   4.330   4.351
 2425SOL    HW3 9731   0.146   4.314   4.213
 2425SOL    MW4 9732   0.204   4.352   4.267
 2426SOL     OW 9733   0.636   4.648   4.096
 2426SOL    HW2 9734   0.567   4.709   4.126
 2426SOL    HW3 9735   0.652   4.674   4.006
 2426SOL    MW4 9736   0.629   4.660   4.088
 2427SOL     OW 9737   0.443   0.138   4.229
 2427SOL    HW2 9738   0.477   0.156   4.317
 2427SOL    HW3 9739   0.435   0.224   4.188
 2427SOL    MW4 9740   0.447   0.152   4.235
 2428SOL     OW 9741   0.455   0.384   4.101
 2428SOL    HW2 9742   0.539   0.419   4.132
 2428SOL    HW3 9743   0.462   0.388   4.006
 2428SOL    MW4 9744   0.467   0.389   4.093
 2429SOL     OW 9745   0.667   0.519   4.234
 2429SOL    HW2 9746   0.742   0.473   4.196
 2429SOL    HW3 9747   0.678   0.610   4.207
 2429SOL    MW4 9748   0.679   0.525   4.226
 2430SOL     OW 9749   0.678   0.783   4.159
 2430SOL    HW2 9750   0.593   0.807   4.195
 2430SOL    HW3 9751   0.666   0.785   4.064
 2430SOL    MW4 9752   0.665   0.787   4.151
 2431SOL     OW 9753   0.419   0.890   4.196
 2431SOL    HW2 9754   0.414   0.981   4.165
 2431SOL    HW3 9755   0.333   0.854   4.177
 2431SOL    MW4 9756   0.407   0.897   4.189
 2432SOL     OW 9757   0.440   1.175   4.149
 2432SOL    HW2 9758   0.527   1.203   4.176
 2432SOL    HW3 9759   0.446   1.168   4.054
 2432SOL    MW4 9760   0.452   1.178   4.140
 2433SOL     OW 9761   0.685   1.297   4.224
 2433SOL    HW2 9762   0.676   1.312   4.318
 2433SOL    HW3 9763   0.688   1.385   4.186
 2433SOL    MW4 9764   0.684   1.310   4.232
 2434SOL     OW 9765   0.671   1.573   4.150
 2434SOL    HW2 9766   0.753   1.611   4.181
 2434SOL    HW3 9767   0.677   1.576   4.055
 2434SOL    MW4 9768   0.682   1.578   4.142
 2435SOL     OW 9769   0.215   1.578   4.105
 2435SOL    HW2 9770   0.197   1.488   4.134
 2435SOL    HW3 9771   0.140   1.628   4.137
 2435SOL    MW4 9772   0.203   1.573   4.113
 2436SOL     OW 9773   0.446   1.943   4.184
 2436SOL    HW2 9774   0.450   1.853   4.215
 2436SOL    HW3 9775   0.475   1.939   4.092
 2436SOL    MW4 9776   0.451   1.931   4.176
 2437SOL     OW 9777   0.696   2.072   4.270
 2437SOL    HW2 9778   0.680   2.121   4.350
 2437SOL    HW3 9779   0.610   2.038   4.245
 2437SOL    MW4 9780   0.682   2.074   4.277
 2438SOL     OW 9781   0.667   2.337   4.159
 2438SOL    HW2 9782   0.668   2.250   4.201
 2438SOL    HW3 9783   0.647   2.319   4.067
 2438SOL    MW4 9784   0.664   2.323   4.153
 2439SOL     OW 9785   0.443   2.462   4.312
 2439SOL    HW2 9786   0.446   2.556   4.297
 2439SOL    HW3 9787   0.517   2.428   4.260
 2439SOL    MW4 9788   0.453   2.470   4.303
 2440SOL     OW 9789   0.471   2.708   4.177
 2440SOL    HW2 9790   0.546   2.760   4.207
 2440SOL    HW3 9791   0.492   2.686   4.086
 2440SOL    MW4 9792   0.484   2.712   4.169
 2441SOL     OW 9793   0.686   2.867   4.259
 2441SOL    HW2 9794   0.667   2.881   4.351
 2441SOL    HW3 9795   0.672   2.953   4.218
 2441SOL    MW4 9796   0.682   2.880   4.265
 2442SOL     OW 9797   0.681   3.113   4.140
 2442SOL    HW2 9798   0.765   3.153   4.161
 2442SOL    HW3 9799   0.616   3.168   4.184
 2442SOL    MW4 9800   0.683   3.126   4.148
 2443SOL     OW 9801   0.494   3.278   4.226
 2443SOL    HW2 9802   0.513   3.302   4.316
 2443SOL    HW3 9803   0.508   3.359   4.176
 2443SOL    MW4 9804   0.498   3.292   4.231
 2444SOL     OW 9805   0.487   3.517   4.086
 2444SOL    HW2 9806   0.558   3.570   4.051
 2444SOL    HW3 9807   0.440   3.485   4.009
 2444SOL    MW4 9808   0.490   3.520   4.072
 2445SOL     OW 9809   0.958   3.611   4.386
 2445SOL    HW2 9810   0.870   3.600   4.421
 2445SOL    HW3 9811   0.950   3.584   4.294
 2445SOL    MW4 9812   0.945   3.606   4.379
 2446SOL     OW 9813   0.691   3.702   4.064
 2446SOL    HW2 9814   0.658   3.744   4.143
 2446SOL    HW3 9815   0.769   3.654   4.093
 2446SOL    MW4 9816   0.697   3.701   4.078
 2447SOL     OW 9817   0.563   3.870   4.243
 2447SOL    HW2 9818   0.582   3.946   4.298
 2447SOL    HW3 9819   0.487   3.895   4.192
 2447SOL    MW4 9820   0.556   3.883   4.243
 2448SOL     OW 9821   0.464   4.290   4.179
 2448SOL    HW2 9822   0.375   4.323   4.189
 2448SOL    HW3 9823   0.477   4.285   4.085
 2448SOL    MW4 9824   0.454   4.294   4.168
 2449SOL     OW 9825   0.658   4.447   4.295
 2449SOL    HW2 9826   0.582   4.391   4.277
 2449SOL    HW3 9827   0.644   4.524   4.241
 2449SOL    MW4 9828   0.646   4.449   4.285
 2450SOL     OW 9829   1.090   4.642   4.104
 2450SOL    HW2 9830   1.102   4.547   4.104
 2450SOL    HW3 9831   1.103   4.668   4.013
 2450SOL    MW4 9832   1.093   4.633   4.092
 2451SOL     OW 9833   0.863   0.112   4.185
 2451SOL    HW2 9834   0.944   0.073   4.152
 2451SOL    HW3 9835   0.794   0.055   4.151
 2451SOL    MW4 9836   0.864   0.099   4.176
 2452SOL     OW 9837   0.883   0.387   4.095
 2452SOL    HW2 9838   0.965   0.432   4.111
 2452SOL    HW3 9839   0.897   0.298   4.126
 2452SOL    MW4 9840   0.895   0.381   4.101
 2453SOL     OW 9841   1.127   0.505   4.164
 2453SOL    HW2 9842   1.096   0.507   4.255
 2453SOL    HW3 9843   1.204   0.449   4.166
 2453SOL    MW4 9844   1.133   0.498   4.176
 2454SOL     OW 9845   1.122   0.773   4.126
 2454SOL    HW2 9846   1.194   0.817   4.171
 2454SOL    HW3 9847   1.147   0.681   4.125
 2454SOL    MW4 9848   1.134   0.767   4.132
 2455SOL     OW 9849   0.896   0.919   4.230
 2455SOL    HW2 9850   0.980   0.884   4.201
 2455SOL    HW3 9851   0.832   0.853   4.202
 2455SOL    MW4 9852   0.899   0.906   4.222
 2456SOL     OW 9853   0.910   1.163   4.120
 2456SOL    HW2 9854   0.903   1.079   4.166
 2456SOL    HW3 9855   0.835   1.214   4.150
 2456SOL    MW4 9856   0.899   1.158   4.130
 2457SOL     OW 9857   1.151   1.293   4.172
 2457SOL    HW2 9858   1.165   1.300   4.267
 2457SOL    HW3 9859   1.071   1.242   4.164
 2457SOL    MW4 9860   1.142   1.288   4.184
 2458SOL     OW 9861   1.127   1.574   4.127
 2458SOL    HW2 9862   1.060   1.604   4.189
 2458SOL    HW3 9863   1.136   1.480   4.146
 2458SOL    MW4 9864   1.120   1.565   4.138
 2459SOL     OW 9865   0.898   1.683   4.252
 2459SOL    HW2 9866   0.873   1.682   4.345
 2459SOL    HW3 9867   0.913   1.776   4.233
 2459SOL    MW4 9868   0.897   1.695   4.262
 2460SOL     OW 9869   0.939   1.936   4.161
 2460SOL    HW2 9870   0.872   1.984   4.211
 2460SOL    HW3 9871   0.897   1.915   4.078
 2460SOL    MW4 9872   0.925   1.940   4.157
 2461SOL     OW 9873   1.184   2.055   4.245
 2461SOL    HW2 9874   1.183   2.032   4.338
 2461SOL    HW3 9875   1.104   2.017   4.210
 2461SOL    MW4 9876   1.173   2.047   4.253
 2462SOL     OW 9877   1.138   2.319   4.163
 2462SOL    HW2 9878   1.208   2.374   4.197
 2462SOL    HW3 9879   1.153   2.233   4.203
 2462SOL    MW4 9880   1.149   2.315   4.173
 2463SOL     OW 9881   0.914   2.468   4.221
 2463SOL    HW2 9882   0.988   2.424   4.180
 2463SOL    HW3 9883   0.837   2.433   4.175
 2463SOL    MW4 9884   0.914   2.458   4.209
 2464SOL     OW 9885   0.878   2.722   4.119
 2464SOL    HW2 9886   0.900   2.650   4.178
 2464SOL    HW3 9887   0.821   2.779   4.171
 2464SOL    MW4 9888   0.873   2.720   4.133
 2465SOL     OW 9889   1.112   2.854   4.216
 2465SOL    HW2 9890   1.128   2.946   4.195
 2465SOL    HW3 9891   1.027   2.834   4.176
 2465SOL    MW4 9892   1.103   2.863   4.208
 2466SOL     OW 9893   1.148   3.111   4.146
 2466SOL    HW2 9894   1.214   3.177   4.166
 2466SOL    HW3 9895   1.137   3.116   4.051
 2466SOL    MW4 9896   1.155   3.120   4.136
 2467SOL     OW 9897   0.913   3.230   4.229
 2467SOL    HW2 9898   0.924   3.252   4.322
 2467SOL    HW3 9899   1.001   3.208   4.199
 2467SOL    MW4 9900   0.926   3.230   4.237
 2468SOL     OW 9901   0.899   3.503   4.144
 2468SOL    HW2 9902   0.869   3.414   4.165
 2468SOL    HW3 9903   0.916   3.502   4.050
 2468SOL    MW4 9904   0.897   3.491   4.135
 2469SOL     OW 9905   0.994   3.887   4.317
 2469SOL    HW2 9906   0.934   3.960   4.329
 2469SOL    HW3 9907   0.952   3.814   4.363
 2469SOL    MW4 9908   0.980   3.887   4.325
 2470SOL     OW 9909   1.145   3.807   4.098
 2470SOL    HW2 9910   1.222   3.854   4.130
 2470SOL    HW3 9911   1.074   3.835   4.156
 2470SOL    MW4 9912   1.146   3.817   4.110
 2471SOL     OW 9913   0.792   4.074   4.358
 2471SOL    HW2 9914   0.824   4.155   4.319
 2471SOL    HW3 9915   0.702   4.093   4.383
 2471SOL    MW4 9916   0.784   4.087   4.356
 2472SOL     OW 9917   1.079   4.368   4.054
 2472SOL    HW2 9918   1.151   4.309   4.076
 2472SOL    HW3 9919   1.021   4.364   4.130
 2472SOL    MW4 9920   1.081   4.360   4.067
 2473SOL     OW 9921   1.003   4.403   4.501
 2473SOL    HW2 9922   1.097   4.416   4.490
 2473SOL    HW3 9923   0.995   4.317   4.543
 2473SOL    MW4 9924   1.015   4.393   4.505
 2474SOL     OW 9925   1.515   4.640   4.158
 2474SOL    HW2 9926   1.589   4.693   4.187
 2474SOL    HW3 9927   1.440   4.675   4.206
 2474SOL    MW4 9928   1.515   4.652   4.168
 2475SOL     OW 9929   1.290   0.085   4.271
 2475SOL    HW2 9930   1.276   0.078   4.365
 2475SOL    HW3 9931   1.215   0.040   4.231
 2475SOL    MW4 9932   1.278   0.078   4.278
 2476SOL     OW 9933   1.351   0.339   4.164
 2476SOL    HW2 9934   1.415   0.401   4.200
 2476SOL    HW3 9935   1.348   0.268   4.228
 2476SOL    MW4 9936   1.359   0.338   4.177
 2477SOL     OW 9937   1.548   0.501   4.296
 2477SOL    HW2 9938   1.522   0.515   4.387
 2477SOL    HW3 9939   1.549   0.588   4.257
 2477SOL    MW4 9940   1.545   0.514   4.303
 2478SOL     OW 9941   1.528   0.750   4.165
 2478SOL    HW2 9942   1.592   0.815   4.193
 2478SOL    HW3 9943   1.538   0.745   4.070
 2478SOL    MW4 9944   1.538   0.758   4.156
 2479SOL     OW 9945   1.316   0.918   4.236
 2479SOL    HW2 9946   1.335   0.982   4.168
 2479SOL    HW3 9947   1.381   0.848   4.222
 2479SOL    MW4 9948   1.327   0.917   4.226
 2480SOL     OW 9949   1.366   1.129   4.059
 2480SOL    HW2 9950   1.297   1.178   4.106
 2480SOL    HW3 9951   1.353   1.152   3.967
 2480SOL    MW4 9952   1.355   1.139   4.053
 2481SOL     OW 9953   1.571   1.257   4.184
 2481SOL    HW2 9954   1.552   1.255   4.278
 2481SOL    HW3 9955   1.505   1.201   4.144
 2481SOL    MW4 9956   1.560   1.250   4.191
 2482SOL     OW 9957   1.598   1.540   4.105
 2482SOL    HW2 9958   1.528   1.590   4.147
 2482SOL    HW3 9959   1.585   1.450   4.136
 2482SOL    MW4 9960   1.587   1.535   4.114
 2483SOL     OW 9961   1.391   1.662   4.209
 2483SOL    HW2 9962   1.400   1.755   4.192
 2483SOL    HW3 9963   1.305   1.639   4.174
 2483SOL    MW4 9964   1.381   1.671   4.203
 2484SOL     OW 9965   1.425   1.930   4.143
 2484SOL    HW2 9966   1.505   1.972   4.175
 2484SOL    HW3 9967   1.354   1.973   4.190
 2484SOL    MW4 9968   1.426   1.941   4.153
 2485SOL     OW 9969   1.648   2.080   4.230
 2485SOL    HW2 9970   1.735   2.050   4.204
 2485SOL    HW3 9971   1.639   2.166   4.190
 2485SOL    MW4 9972   1.658   2.087   4.221
 2486SOL     OW 9973   1.579   2.343   4.162
 2486SOL    HW2 9974   1.653   2.391   4.199
 2486SOL    HW3 9975   1.593   2.347   4.067
 2486SOL    MW4 9976   1.591   2.350   4.154
 2487SOL     OW 9977   1.531   2.851   4.243
 2487SOL    HW2 9978   1.540   2.818   4.333
 2487SOL    HW3 9979   1.608   2.816   4.198
 2487SOL    MW4 9980   1.543   2.842   4.249
 2488SOL     OW 9981   1.323   2.714   4.117
 2488SOL    HW2 9982   1.392   2.757   4.169
 2488SOL    HW3 9983   1.241   2.750   4.152
 2488SOL    MW4 9984   1.321   2.725   4.129
 2489SOL     OW 9985   1.711   2.309   4.569
 2489SOL    HW2 9986   1.686   2.335   4.658
 2489SOL    HW3 9987   1.789   2.255   4.581
 2489SOL    MW4 9988   1.718   2.305   4.582
 2490SOL     OW 9989   1.522   3.142   4.175
 2490SOL    HW2 9990   1.591   3.178   4.231
 2490SOL    HW3 9991   1.512   3.052   4.206
 2490SOL    MW4 9992   1.530   3.135   4.187
 2491SOL     OW 9993   1.308   3.318   4.234
 2491SOL    HW2 9994   1.394   3.289   4.204
 2491SOL    HW3 9995   1.304   3.411   4.210
 2491SOL    MW4 9996   1.319   3.327   4.227
 2492SOL     OW 9997   1.315   3.585   4.137
 2492SOL    HW2 9998   1.248   3.650   4.156
 2492SOL    HW3 9999   1.308   3.570   4.042
 2492SOL    MW410000   1.305   3.591   4.127
 2493SOL     OW10001   1.566   3.612   4.214
 2493SOL    HW210002   1.553   3.619   4.309
 2493SOL    HW310003   1.478   3.615   4.177
 2493SOL    MW410004   1.553   3.613   4.222
 2494SOL     OW10005   1.582   3.870   4.116
 2494SOL    HW210006   1.508   3.900   4.169
 2494SOL    HW310007   1.601   3.782   4.148
 2494SOL    MW410008   1.575   3.862   4.127
 2495SOL     OW10009   1.326   3.955   4.209
 2495SOL    HW210010   1.307   3.961   4.303
 2495SOL    HW310011   1.315   4.044   4.176
 2495SOL    MW410012   1.322   3.967   4.217
 2496SOL     OW10013   1.317   4.210   4.106
 2496SOL    HW210014   1.384   4.266   4.146
 2496SOL    HW310015   1.340   4.207   4.013
 2496SOL    MW410016   1.329   4.217   4.099
 2497SOL     OW10017   1.524   4.367   4.204
 2497SOL    HW210018   1.517   4.462   4.194
 2497SOL    HW310019   1.617   4.349   4.188
 2497SOL    MW410020   1.535   4.377   4.200
 2498SOL     OW10021   1.989   4.617   4.183
 2498SOL    HW210022   1.910   4.662   4.212
 2498SOL    HW310023   1.987   4.623   4.087
 2498SOL    MW410024   1.979   4.624   4.174
 2499SOL     OW10025   1.756   0.094   4.235
 2499SOL    HW210026   1.749   0.102   4.330
 2499SOL    HW310027   1.766   0.184   4.204
 2499SOL    MW410028   1.756   0.107   4.243
 2500SOL     OW10029   1.736   0.355   4.164
 2500SOL    HW210030   1.817   0.384   4.206
 2500SOL    HW310031   1.667   0.389   4.220
 2500SOL    MW410032   1.738   0.363   4.177
 2501SOL     OW10033   1.974   0.456   4.305
 2501SOL    HW210034   1.963   0.408   4.388
 2501SOL    HW310035   2.043   0.408   4.259
 2501SOL    MW410036   1.982   0.443   4.310
 2502SOL     OW10037   1.980   0.744   4.175
 2502SOL    HW210038   2.053   0.793   4.213
 2502SOL    HW310039   1.978   0.662   4.223
 2502SOL    MW410040   1.989   0.740   4.186
 2503SOL     OW10041   1.753   0.900   4.220
 2503SOL    HW210042   1.785   0.986   4.191
 2503SOL    HW310043   1.822   0.839   4.195
 2503SOL    MW410044   1.766   0.903   4.213
 2504SOL     OW10045   1.814   1.168   4.106
 2504SOL    HW210046   1.883   1.210   4.158
 2504SOL    HW310047   1.732   1.202   4.141
 2504SOL    MW410048   1.812   1.178   4.117
 2505SOL     OW10049   1.998   1.313   4.251
 2505SOL    HW210050   2.072   1.254   4.234
 2505SOL    HW310051   2.001   1.377   4.180
 2505SOL    MW410052   2.009   1.313   4.240
 2506SOL     OW10053   2.040   1.508   4.065
 2506SOL    HW210054   2.115   1.564   4.087
 2506SOL    HW310055   2.023   1.526   3.973
 2506SOL    MW410056   2.048   1.518   4.056
 2507SOL     OW10057   1.830   1.695   4.181
 2507SOL    HW210058   1.911   1.650   4.155
 2507SOL    HW310059   1.760   1.636   4.154
 2507SOL    MW410060   1.831   1.682   4.174
 2508SOL     OW10061   1.877   1.958   4.125
 2508SOL    HW210062   1.844   1.872   4.151
 2508SOL    HW310063   1.965   1.963   4.164
 2508SOL    MW410064   1.884   1.948   4.133
 2509SOL     OW10065   1.731   2.499   4.376
 2509SOL    HW210066   1.726   2.427   4.439
 2509SOL    HW310067   1.823   2.525   4.377
 2509SOL    MW410068   1.743   2.493   4.385
 2510SOL     OW10069   2.563   2.258   4.130
 2510SOL    HW210070   2.527   2.248   4.042
 2510SOL    HW310071   2.551   2.172   4.170
 2510SOL    MW410072   2.556   2.246   4.124
 2511SOL     OW10073   1.717   2.973   4.520
 2511SOL    HW210074   1.680   2.885   4.511
 2511SOL    HW310075   1.777   2.981   4.446
 2511SOL    MW410076   1.720   2.962   4.509
 2512SOL     OW10077   1.797   2.765   4.136
 2512SOL    HW210078   1.845   2.701   4.188
 2512SOL    HW310079   1.861   2.834   4.118
 2512SOL    MW410080   1.812   2.766   4.141
 2513SOL     OW10081   1.935   3.056   4.343
 2513SOL    HW210082   2.012   3.015   4.382
 2513SOL    HW310083   1.934   3.026   4.252
 2513SOL    MW410084   1.945   3.047   4.336
 2514SOL     OW10085   2.230   2.901   4.098
 2514SOL    HW210086   2.297   2.966   4.120
 2514SOL    HW310087   2.210   2.858   4.182
 2514SOL    MW410088   2.236   2.904   4.112
 2515SOL     OW10089   1.729   3.267   4.318
 2515SOL    HW210090   1.780   3.329   4.266
 2515SOL    HW310091   1.791   3.199   4.343
 2515SOL    MW410092   1.744   3.266   4.314
 2516SOL     OW10093   1.821   3.479   4.144
 2516SOL    HW210094   1.752   3.527   4.190
 2516SOL    HW310095   1.801   3.492   4.051
 2516SOL    MW410096   1.809   3.487   4.137
 2517SOL     OW10097   2.054   3.609   4.242
 2517SOL    HW210098   2.035   3.696   4.206
 2517SOL    HW310099   1.978   3.556   4.219
 2517SOL    MW410100   2.042   3.614   4.234
 2518SOL     OW10101   2.004   3.869   4.189
 2518SOL    HW210102   1.916   3.903   4.206
 2518SOL    HW310103   2.018   3.884   4.096
 2518SOL    MW410104   1.994   3.876   4.179
 2519SOL     OW10105   1.766   4.026   4.237
 2519SOL    HW210106   1.768   4.117   4.209
 2519SOL    HW310107   1.688   3.989   4.196
 2519SOL    MW410108   1.756   4.033   4.228
 2520SOL     OW10109   1.771   4.282   4.157
 2520SOL    HW210110   1.848   4.325   4.194
 2520SOL    HW310111   1.789   4.278   4.063
 2520SOL    MW410112   1.784   4.287   4.149
 2521SOL     OW10113   2.021   4.352   4.268
 2521SOL    HW210114   2.033   4.346   4.363
 2521SOL    HW310115   2.009   4.446   4.252
 2521SOL    MW410116   2.021   4.364   4.279
 2522SOL     OW10117   2.459   4.553   4.270
 2522SOL    HW210118   2.531   4.614   4.257
 2522SOL    HW310119   2.459   4.497   4.193
 2522SOL    MW410120   2.468   4.554   4.258
 2523SOL     OW10121   2.246   0.086   4.260
 2523SOL    HW210122   2.304   0.020   4.222
 2523SOL    HW310123   2.159   0.046   4.258
 2523SOL    MW410124   2.242   0.072   4.254
 2524SOL     OW10125   2.190   0.352   4.164
 2524SOL    HW210126   2.208   0.263   4.194
 2524SOL    HW310127   2.227   0.356   4.076
 2524SOL    MW410128   2.197   0.341   4.157
 2525SOL     OW10129   2.435   0.485   4.227
 2525SOL    HW210130   2.506   0.427   4.199
 2525SOL    HW310131   2.357   0.430   4.226
 2525SOL    MW410132   2.434   0.470   4.223
 2526SOL     OW10133   2.398   0.741   4.144
 2526SOL    HW210134   2.411   0.653   4.179
 2526SOL    HW310135   2.408   0.731   4.049
 2526SOL    MW410136   2.401   0.728   4.136
 2527SOL     OW10137   2.194   0.897   4.254
 2527SOL    HW210138   2.195   0.886   4.349
 2527SOL    HW310139   2.264   0.840   4.223
 2527SOL    MW410140   2.203   0.888   4.263
 2528SOL     OW10141   2.197   1.131   4.099
 2528SOL    HW210142   2.277   1.171   4.134
 2528SOL    HW310143   2.183   1.054   4.155
 2528SOL    MW410144   2.206   1.126   4.111
 2529SOL     OW10145   2.441   1.277   4.181
 2529SOL    HW210146   2.425   1.277   4.276
 2529SOL    HW310147   2.522   1.227   4.171
 2529SOL    MW410148   2.449   1.271   4.192
 2530SOL     OW10149   2.454   1.539   4.106
 2530SOL    HW210150   2.451   1.445   4.124
 2530SOL    HW310151   2.437   1.547   4.012
 2530SOL    MW410152   2.451   1.528   4.096
 2531SOL     OW10153   2.227   1.676   4.172
 2531SOL    HW210154   2.303   1.618   4.167
 2531SOL    HW310155   2.252   1.753   4.122
 2531SOL    MW410156   2.240   1.678   4.165
 2532SOL     OW10157   2.326   1.927   4.083
 2532SOL    HW210158   2.417   1.941   4.109
 2532SOL    HW310159   2.274   1.960   4.157
 2532SOL    MW410160   2.331   1.933   4.096
 2533SOL     OW10161   2.434   2.103   4.327
 2533SOL    HW210162   2.364   2.166   4.314
 2533SOL    HW310163   2.496   2.147   4.385
 2533SOL    MW410164   2.433   2.117   4.333
 2534SOL     OW10165   2.723   2.467   4.098
 2534SOL    HW210166   2.744   2.500   4.185
 2534SOL    HW310167   2.661   2.395   4.114
 2534SOL    MW410168   2.718   2.462   4.112
 2535SOL     OW10169   2.524   2.459   4.395
 2535SOL    HW210170   2.470   2.488   4.321
 2535SOL    HW310171   2.481   2.495   4.472
 2535SOL    MW410172   2.512   2.468   4.395
 2536SOL     OW10173   1.991   2.601   4.276
 2536SOL    HW210174   2.058   2.667   4.292
 2536SOL    HW310175   2.033   2.537   4.218
 2536SOL    MW410176   2.005   2.601   4.271
 2537SOL     OW10177   2.505   2.826   4.291
 2537SOL    HW210178   2.474   2.745   4.250
 2537SOL    HW310179   2.460   2.829   4.375
 2537SOL    MW410180   2.495   2.816   4.296
 2538SOL     OW10181   2.270   3.204   4.328
 2538SOL    HW210182   2.230   3.129   4.372
 2538SOL    HW310183   2.325   3.244   4.396
 2538SOL    MW410184   2.272   3.199   4.343
 2539SOL     OW10185   1.967   2.965   4.085
 2539SOL    HW210186   1.960   2.999   3.996
 2539SOL    HW310187   2.058   2.936   4.093
 2539SOL    MW410188   1.978   2.966   4.074
 2540SOL     OW10189   2.244   3.435   4.134
 2540SOL    HW210190   2.236   3.355   4.185
 2540SOL    HW310191   2.194   3.500   4.183
 2540SOL    MW410192   2.237   3.433   4.147
 2541SOL     OW10193   2.510   3.553   4.250
 2541SOL    HW210194   2.436   3.522   4.198
 2541SOL    HW310195   2.497   3.648   4.255
 2541SOL    MW410196   2.499   3.562   4.244
 2542SOL     OW10197   2.463   3.854   4.155
 2542SOL    HW210198   2.541   3.899   4.186
 2542SOL    HW310199   2.474   3.849   4.060
 2542SOL    MW410200   2.475   3.859   4.147
 2543SOL     OW10201   2.242   3.974   4.281
 2543SOL    HW210202   2.308   3.930   4.228
 2543SOL    HW310203   2.159   3.934   4.254
 2543SOL    MW410204   2.240   3.963   4.271
 2544SOL     OW10205   2.235   4.229   4.135
 2544SOL    HW210206   2.253   4.166   4.204
 2544SOL    HW310207   2.154   4.272   4.161
 2544SOL    MW410208   2.227   4.226   4.147
 2545SOL     OW10209   2.464   4.379   4.059
 2545SOL    HW210210   2.539   4.322   4.078
 2545SOL    HW310211   2.388   4.329   4.087
 2545SOL    MW410212   2.464   4.365   4.065
 2546SOL     OW10213   2.920   4.644   4.117
 2546SOL    HW210214   2.982   4.672   4.184
 2546SOL    HW310215   2.909   4.550   4.132
 2546SOL    MW410216   2.926   4.635   4.128
 2547SOL     OW10217   2.668   0.060   4.229
 2547SOL    HW210218   2.655   0.152   4.206
 2547SOL    HW310219   2.747   0.034   4.182
 2547SOL    MW410220   2.677   0.069   4.220
 2548SOL     OW10221   2.635   0.327   4.141
 2548SOL    HW210222   2.644   0.340   4.047
 2548SOL    HW310223   2.718   0.356   4.178
 2548SOL    MW410224   2.647   0.333   4.134
 2549SOL     OW10225   3.264   0.690   4.124
 2549SOL    HW210226   3.320   0.739   4.184
 2549SOL    HW310227   3.180   0.737   4.125
 2549SOL    MW410228   3.260   0.703   4.132
 2550SOL     OW10229   3.006   0.836   4.136
 2550SOL    HW210230   2.997   0.932   4.136
 2550SOL    HW310231   2.953   0.807   4.062
 2550SOL    MW410232   2.998   0.845   4.126
 2551SOL     OW10233   2.654   0.863   4.215
 2551SOL    HW210234   2.713   0.800   4.255
 2551SOL    HW310235   2.575   0.813   4.195
 2551SOL    MW410236   2.651   0.848   4.217
 2552SOL     OW10237   2.674   1.130   4.119
 2552SOL    HW210238   2.673   1.035   4.133
 2552SOL    HW310239   2.691   1.140   4.025
 2552SOL    MW410240   2.676   1.119   4.109
 2553SOL     OW10241   2.862   1.310   4.263
 2553SOL    HW210242   2.922   1.239   4.242
 2553SOL    HW310243   2.777   1.279   4.233
 2553SOL    MW410244   2.859   1.296   4.256
 2554SOL     OW10245   2.873   1.582   4.165
 2554SOL    HW210246   2.960   1.611   4.192
 2554SOL    HW310247   2.867   1.492   4.198
 2554SOL    MW410248   2.884   1.574   4.173
 2555SOL     OW10249   2.642   1.693   4.236
 2555SOL    HW210250   2.724   1.658   4.201
 2555SOL    HW310251   2.574   1.638   4.198
 2555SOL    MW410252   2.644   1.681   4.226
 2556SOL     OW10253   2.618   1.929   4.109
 2556SOL    HW210254   2.628   1.836   4.132
 2556SOL    HW310255   2.641   1.933   4.016
 2556SOL    MW410256   2.622   1.917   4.100
 2557SOL     OW10257   2.867   2.044   4.191
 2557SOL    HW210258   2.875   2.129   4.148
 2557SOL    HW310259   2.787   2.006   4.154
 2557SOL    MW410260   2.857   2.050   4.180
 2558SOL     OW10261   2.937   2.297   4.107
 2558SOL    HW210262   2.998   2.353   4.155
 2558SOL    HW310263   2.861   2.353   4.091
 2558SOL    MW410264   2.935   2.312   4.111
 2559SOL     OW10265   2.756   3.202   4.444
 2559SOL    HW210266   2.740   3.292   4.472
 2559SOL    HW310267   2.689   3.150   4.490
 2559SOL    MW410268   2.745   3.207   4.454
 2560SOL     OW10269   2.477   3.075   4.156
 2560SOL    HW210270   2.494   2.997   4.208
 2560SOL    HW310271   2.413   3.124   4.206
 2560SOL    MW410272   2.471   3.071   4.169
 2561SOL     OW10273   2.956   2.947   4.182
 2561SOL    HW210274   3.025   3.005   4.213
 2561SOL    HW310275   2.923   2.989   4.102
 2561SOL    MW410276   2.961   2.960   4.175
 2562SOL     OW10277   3.029   3.144   4.478
 2562SOL    HW210278   2.997   3.065   4.523
 2562SOL    HW310279   2.949   3.189   4.450
 2562SOL    MW410280   3.014   3.139   4.480
 2563SOL     OW10281   2.745   3.203   4.177
 2563SOL    HW210282   2.660   3.159   4.169
 2563SOL    HW310283   2.763   3.203   4.271
 2563SOL    MW410284   2.736   3.197   4.189
 2564SOL     OW10285   2.753   3.480   4.129
 2564SOL    HW210286   2.755   3.385   4.143
 2564SOL    HW310287   2.678   3.510   4.179
 2564SOL    MW410288   2.744   3.471   4.137
 2565SOL     OW10289   2.983   3.585   4.273
 2565SOL    HW210290   2.954   3.583   4.365
 2565SOL    HW310291   2.901   3.577   4.223
 2565SOL    MW410292   2.968   3.584   4.279
 2566SOL     OW10293   2.944   3.845   4.170
 2566SOL    HW210294   3.025   3.893   4.187
 2566SOL    HW310295   2.958   3.759   4.209
 2566SOL    MW410296   2.957   3.840   4.177
 2567SOL     OW10297   2.706   3.989   4.253
 2567SOL    HW210298   2.714   4.070   4.202
 2567SOL    HW310299   2.794   3.951   4.250
 2567SOL    MW410300   2.719   3.995   4.246
 2568SOL     OW10301   2.703   4.201   4.069
 2568SOL    HW210302   2.777   4.254   4.098
 2568SOL    HW310303   2.715   4.194   3.975
 2568SOL    MW410304   2.715   4.207   4.061
 2569SOL     OW10305   2.900   4.365   4.182
 2569SOL    HW210306   2.885   4.392   4.273
 2569SOL    HW310307   2.983   4.319   4.185
 2569SOL    MW410308   2.909   4.363   4.195
 2570SOL     OW10309   3.335   4.608   4.154
 2570SOL    HW210310   3.406   4.660   4.191
 2570SOL    HW310311   3.352   4.519   4.185
 2570SOL    MW410312   3.347   4.603   4.163
 2571SOL     OW10313   3.141   0.070   4.292
 2571SOL    HW210314   3.184   0.095   4.374
 2571SOL    HW310315   3.204   0.014   4.247
 2571SOL    MW410316   3.155   0.066   4.297
 2572SOL     OW10317   3.107   0.305   4.160
 2572SOL    HW210318   3.182   0.356   4.189
 2572SOL    HW310319   3.118   0.220   4.201
 2572SOL    MW410320   3.118   0.301   4.169
 2573SOL     OW10321   3.303   0.466   4.272
 2573SOL    HW210322   3.392   0.433   4.261
 2573SOL    HW310323   3.296   0.539   4.210
 2573SOL    MW410324   3.313   0.471   4.262
 2574SOL     OW10325   3.443   0.820   4.285
 2574SOL    HW210326   3.463   0.912   4.268
 2574SOL    HW310327   3.417   0.817   4.377
 2574SOL    MW410328   3.442   0.832   4.295
 2575SOL     OW10329   3.085   0.992   4.652
 2575SOL    HW210330   3.102   0.898   4.655
 2575SOL    HW310331   2.999   1.000   4.609
 2575SOL    MW410332   3.076   0.981   4.646
 2576SOL     OW10333   3.050   1.105   4.176
 2576SOL    HW210334   3.127   1.096   4.232
 2576SOL    HW310335   3.085   1.108   4.087
 2576SOL    MW410336   3.064   1.105   4.172
 2577SOL     OW10337   3.559   1.074   4.304
 2577SOL    HW210338   3.604   1.057   4.387
 2577SOL    HW310339   3.508   1.153   4.320
 2577SOL    MW410340   3.558   1.082   4.317
 2578SOL     OW10341   3.441   1.305   4.378
 2578SOL    HW210342   3.428   1.379   4.319
 2578SOL    HW310343   3.488   1.342   4.453
 2578SOL    MW410344   3.445   1.320   4.380
 2579SOL     OW10345   3.116   1.672   4.267
 2579SOL    HW210346   3.116   1.680   4.362
 2579SOL    HW310347   3.120   1.762   4.235
 2579SOL    MW410348   3.116   1.685   4.275
 2580SOL     OW10349   3.115   1.915   4.122
 2580SOL    HW210350   3.179   1.970   4.168
 2580SOL    HW310351   3.033   1.964   4.127
 2580SOL    MW410352   3.113   1.928   4.129
 2581SOL     OW10353   3.303   2.106   4.239
 2581SOL    HW210354   3.376   2.044   4.233
 2581SOL    HW310355   3.335   2.184   4.192
 2581SOL    MW410356   3.317   2.108   4.232
 2582SOL     OW10357   3.340   2.369   4.133
 2582SOL    HW210358   3.414   2.413   4.175
 2582SOL    HW310359   3.366   2.360   4.042
 2582SOL    MW410360   3.353   2.374   4.127
 2583SOL     OW10361   3.119   2.424   4.282
 2583SOL    HW210362   3.080   2.501   4.241
 2583SOL    HW310363   3.198   2.408   4.230
 2583SOL    MW410364   3.125   2.432   4.269
 2584SOL     OW10365   3.107   2.712   4.165
 2584SOL    HW210366   3.190   2.743   4.201
 2584SOL    HW310367   3.045   2.782   4.184
 2584SOL    MW410368   3.110   2.725   4.172
 2585SOL     OW10369   3.389   2.831   4.189
 2585SOL    HW210370   3.404   2.926   4.188
 2585SOL    HW310371   3.464   2.794   4.142
 2585SOL    MW410372   3.401   2.839   4.183
 2586SOL     OW10373   3.445   3.085   4.175
 2586SOL    HW210374   3.361   3.118   4.208
 2586SOL    HW310375   3.429   3.069   4.082
 2586SOL    MW410376   3.432   3.087   4.167
 2587SOL     OW10377   3.182   3.129   4.244
 2587SOL    HW210378   3.150   3.212   4.208
 2587SOL    HW310379   3.150   3.129   4.334
 2587SOL    MW410380   3.173   3.140   4.251
 2588SOL     OW10381   3.104   3.380   4.135
 2588SOL    HW210382   3.059   3.448   4.185
 2588SOL    HW310383   3.093   3.406   4.044
 2588SOL    MW410384   3.097   3.393   4.130
 2589SOL     OW10385   3.339   3.528   4.214
 2589SOL    HW210386   3.368   3.500   4.300
 2589SOL    HW310387   3.259   3.479   4.198
 2589SOL    MW410388   3.332   3.518   4.223
 2590SOL     OW10389   3.422   3.808   4.174
 2590SOL    HW210390   3.385   3.722   4.193
 2590SOL    HW310391   3.382   3.833   4.091
 2590SOL    MW410392   3.412   3.800   4.165
 2591SOL     OW10393   3.188   3.968   4.259
 2591SOL    HW210394   3.210   4.009   4.342
 2591SOL    HW310395   3.261   3.908   4.242
 2591SOL    MW410396   3.201   3.966   4.268
 2592SOL     OW10397   3.140   4.224   4.139
 2592SOL    HW210398   3.224   4.254   4.174
 2592SOL    HW310399   3.128   4.137   4.177
 2592SOL    MW410400   3.149   4.216   4.149
 2593SOL     OW10401   3.363   4.338   4.255
 2593SOL    HW210402   3.379   4.364   4.346
 2593SOL    HW310403   3.446   4.298   4.227
 2593SOL    MW410404   3.376   4.336   4.263
 2594SOL     OW10405   3.780   4.645   4.166
 2594SOL    HW210406   3.866   4.686   4.166
 2594SOL    HW310407   3.776   4.598   4.082
 2594SOL    MW410408   3.791   4.644   4.155
 2595SOL     OW10409   3.548   0.106   4.246
 2595SOL    HW210410   3.556   0.201   4.238
 2595SOL    HW310411   3.637   0.073   4.229
 2595SOL    MW410412   3.561   0.114   4.243
 2596SOL     OW10413   3.572   0.377   4.237
 2596SOL    HW210414   3.652   0.401   4.284
 2596SOL    HW310415   3.593   0.395   4.145
 2596SOL    MW410416   3.586   0.383   4.231
 2597SOL     OW10417   3.820   0.452   4.311
 2597SOL    HW210418   3.879   0.430   4.383
 2597SOL    HW310419   3.785   0.538   4.333
 2597SOL    MW410420   3.823   0.460   4.323
 2598SOL     OW10421   3.867   0.847   4.122
 2598SOL    HW210422   3.834   0.932   4.093
 2598SOL    HW310423   3.854   0.790   4.046
 2598SOL    MW410424   3.861   0.851   4.108
 2599SOL     OW10425   3.738   0.736   4.352
 2599SOL    HW210426   3.647   0.761   4.338
 2599SOL    HW310427   3.784   0.770   4.275
 2599SOL    MW410428   3.732   0.744   4.340
 2600SOL     OW10429   3.742   1.094   4.121
 2600SOL    HW210430   3.669   1.076   4.181
 2600SOL    HW310431   3.700   1.116   4.038
 2600SOL    MW410432   3.727   1.095   4.118
 2601SOL     OW10433   3.830   1.298   4.315
 2601SOL    HW210434   3.774   1.245   4.258
 2601SOL    HW310435   3.801   1.276   4.404
 2601SOL    MW410436   3.819   1.288   4.319
 2602SOL     OW10437   3.799   1.546   4.158
 2602SOL    HW210438   3.806   1.466   4.211
 2602SOL    HW310439   3.876   1.597   4.181
 2602SOL    MW410440   3.810   1.542   4.168
 2603SOL     OW10441   3.513   1.945   4.155
 2603SOL    HW210442   3.541   1.939   4.063
 2603SOL    HW310443   3.532   1.858   4.191
 2603SOL    MW410444   3.519   1.933   4.147
 2604SOL     OW10445   3.362   1.508   4.187
 2604SOL    HW210446   3.350   1.516   4.092
 2604SOL    HW310447   3.275   1.522   4.223
 2604SOL    MW410448   3.349   1.511   4.179
 2605SOL     OW10449   3.740   2.079   4.205
 2605SOL    HW210450   3.735   2.099   4.298
 2605SOL    HW310451   3.661   2.028   4.187
 2605SOL    MW410452   3.729   2.075   4.215
 2606SOL     OW10453   3.846   2.327   4.168
 2606SOL    HW210454   3.803   2.242   4.176
 2606SOL    HW310455   3.862   2.337   4.074
 2606SOL    MW410456   3.842   2.317   4.156
 2607SOL     OW10457   3.611   2.475   4.207
 2607SOL    HW210458   3.617   2.487   4.302
 2607SOL    HW310459   3.694   2.432   4.183
 2607SOL    MW410460   3.623   2.471   4.217
 2608SOL     OW10461   3.609   2.715   4.080
 2608SOL    HW210462   3.628   2.630   4.121
 2608SOL    HW310463   3.602   2.695   3.987
 2608SOL    MW410464   3.611   2.701   4.073
 2609SOL     OW10465   3.805   2.829   4.222
 2609SOL    HW210466   3.778   2.809   4.311
 2609SOL    HW310467   3.733   2.796   4.167
 2609SOL    MW410468   3.792   2.822   4.226
 2610SOL     OW10469   3.874   3.105   4.149
 2610SOL    HW210470   3.840   3.029   4.197
 2610SOL    HW310471   3.852   3.088   4.057
 2610SOL    MW410472   3.866   3.093   4.143
 2611SOL     OW10473   3.659   3.236   4.289
 2611SOL    HW210474   3.734   3.192   4.249
 2611SOL    HW310475   3.584   3.181   4.266
 2611SOL    MW410476   3.659   3.223   4.280
 2612SOL     OW10477   3.595   3.460   4.125
 2612SOL    HW210478   3.619   3.390   4.186
 2612SOL    HW310479   3.508   3.487   4.153
 2612SOL    MW410480   3.587   3.455   4.137
 2613SOL     OW10481   3.795   3.618   4.189
 2613SOL    HW210482   3.870   3.568   4.156
 2613SOL    HW310483   3.719   3.564   4.168
 2613SOL    MW410484   3.795   3.604   4.182
 2614SOL     OW10485   3.841   3.872   4.153
 2614SOL    HW210486   3.767   3.914   4.198
 2614SOL    HW310487   3.820   3.779   4.154
 2614SOL    MW410488   3.829   3.866   4.159
 2615SOL     OW10489   3.618   3.972   4.276
 2615SOL    HW210490   3.610   3.980   4.371
 2615SOL    HW310491   3.546   3.915   4.250
 2615SOL    MW410492   3.608   3.965   4.285
 2616SOL     OW10493   3.611   4.232   4.195
 2616SOL    HW210494   3.670   4.286   4.248
 2616SOL    HW310495   3.622   4.143   4.229
 2616SOL    MW410496   3.620   4.227   4.206
 2617SOL     OW10497   3.797   4.400   4.308
 2617SOL    HW210498   3.877   4.366   4.268
 2617SOL    HW310499   3.788   4.488   4.271
 2617SOL    MW410500   3.807   4.407   4.298
 2618SOL     OW10501   4.258   4.636   4.177
 2618SOL    HW210502   4.277   4.549   4.212
 2618SOL    HW310503   4.332   4.690   4.206
 2618SOL    MW410504   4.271   4.632   4.186
 2619SOL     OW10505   4.022   0.099   4.249
 2619SOL    HW210506   4.047   0.191   4.238
 2619SOL    HW310507   4.095   0.050   4.212
 2619SOL    MW410508   4.035   0.104   4.243
 2620SOL     OW10509   4.054   0.371   4.151
 2620SOL    HW210510   4.126   0.385   4.212
 2620SOL    HW310511   3.976   0.402   4.197
 2620SOL    MW410512   4.053   0.377   4.165
 2621SOL     OW10513   4.285   0.504   4.247
 2621SOL    HW210514   4.268   0.594   4.218
 2621SOL    HW310515   4.364   0.478   4.198
 2621SOL    MW410516   4.293   0.512   4.236
 2622SOL     OW10517   4.253   0.776   4.171
 2622SOL    HW210518   4.183   0.841   4.183
 2622SOL    HW310519   4.257   0.762   4.076
 2622SOL    MW410520   4.244   0.783   4.160
 2623SOL     OW10521   4.061   0.957   4.254
 2623SOL    HW210522   4.076   1.037   4.203
 2623SOL    HW310523   3.981   0.919   4.216
 2623SOL    MW410524   4.053   0.963   4.242
 2624SOL     OW10525   4.039   1.228   4.119
 2624SOL    HW210526   4.123   1.270   4.137
 2624SOL    HW310527   3.985   1.249   4.195
 2624SOL    MW410528   4.043   1.236   4.131
 2625SOL     OW10529   4.264   1.348   4.250
 2625SOL    HW210530   4.237   1.313   4.335
 2625SOL    HW310531   4.330   1.288   4.218
 2625SOL    MW410532   4.269   1.336   4.257
 2626SOL     OW10533   4.237   1.595   4.151
 2626SOL    HW210534   4.231   1.511   4.196
 2626SOL    HW310535   4.231   1.574   4.058
 2626SOL    MW410536   4.236   1.581   4.144
 2627SOL     OW10537   4.055   1.954   4.610
 2627SOL    HW210538   3.996   1.890   4.568
 2627SOL    HW310539   4.141   1.912   4.607
 2627SOL    MW410540   4.058   1.940   4.604
 2628SOL     OW10541   3.969   1.976   4.100
 2628SOL    HW210542   3.978   1.896   4.153
 2628SOL    HW310543   3.883   2.011   4.124
 2628SOL    MW410544   3.959   1.970   4.110
 2629SOL     OW10545   4.474   1.997   4.171
 2629SOL    HW210546   4.563   2.026   4.193
 2629SOL    HW310547   4.419   2.029   4.243
 2629SOL    MW410548   4.478   2.005   4.183
 2630SOL     OW10549   4.238   2.357   4.125
 2630SOL    HW210550   4.193   2.422   4.179
 2630SOL    HW310551   4.210   2.273   4.161
 2630SOL    MW410552   4.228   2.355   4.137
 2631SOL     OW10553   4.036   2.522   4.232
 2631SOL    HW210554   4.054   2.540   4.324
 2631SOL    HW310555   3.969   2.454   4.233
 2631SOL    MW410556   4.029   2.516   4.244
 2632SOL     OW10557   4.005   2.747   4.069
 2632SOL    HW210558   4.016   2.668   4.122
 2632SOL    HW310559   3.929   2.791   4.107
 2632SOL    MW410560   3.997   2.743   4.081
 2633SOL     OW10561   4.223   2.894   4.179
 2633SOL    HW210562   4.159   2.856   4.119
 2633SOL    HW310563   4.292   2.829   4.185
 2633SOL    MW410564   4.223   2.881   4.172
 2634SOL     OW10565   4.304   3.144   4.113
 2634SOL    HW210566   4.281   3.055   4.139
 2634SOL    HW310567   4.316   3.139   4.018
 2634SOL    MW410568   4.302   3.132   4.104
 2635SOL     OW10569   4.081   3.290   4.183
 2635SOL    HW210570   4.162   3.249   4.152
 2635SOL    HW310571   4.020   3.218   4.194
 2635SOL    MW410572   4.084   3.275   4.180
 2636SOL     OW10573   4.063   3.558   4.104
 2636SOL    HW210574   4.072   3.467   4.133
 2636SOL    HW310575   4.039   3.552   4.012
 2636SOL    MW410576   4.061   3.545   4.096
 2637SOL     OW10577   4.258   3.584   4.301
 2637SOL    HW210578   4.241   3.659   4.358
 2637SOL    HW310579   4.183   3.581   4.242
 2637SOL    MW410580   4.246   3.593   4.301
 2638SOL     OW10581   4.321   3.974   4.137
 2638SOL    HW210582   4.248   3.992   4.195
 2638SOL    HW310583   4.282   3.932   4.060
 2638SOL    MW410584   4.306   3.971   4.134
 2639SOL     OW10585   4.029   3.992   4.320
 2639SOL    HW210586   3.985   3.974   4.403
 2639SOL    HW310587   3.980   3.941   4.255
 2639SOL    MW410588   4.017   3.983   4.322
 2640SOL     OW10589   4.014   4.249   4.211
 2640SOL    HW210590   4.099   4.277   4.247
 2640SOL    HW310591   4.010   4.155   4.230
 2640SOL    MW410592   4.025   4.240   4.218
 2641SOL     OW10593   0.153   4.305   4.529
 2641SOL    HW210594   0.063   4.294   4.559
 2641SOL    HW310595   0.181   4.389   4.565
 2641SOL    MW410596   0.145   4.314   4.537
 2642SOL     OW10597   4.111   4.171   4.633
 2642SOL    HW210598   4.124   4.098   4.694
 2642SOL    HW310599   4.019   4.196   4.647
 2642SOL    MW410600   4.101   4.165   4.643
 2643SOL     OW10601   4.260   4.650   4.506
 2643SOL    HW210602   4.238   4.661   4.413
 2643SOL    HW310603   4.176   4.657   4.551
 2643SOL    MW410604   4.246   4.652   4.500
 2644SOL     OW10605   3.991   0.082   4.526
 2644SOL    HW210606   3.923   0.026   4.564
 2644SOL    HW310607   3.980   0.072   4.431
 2644SOL    MW410608   3.981   0.073   4.518
 2645SOL     OW10609   3.935   1.721   4.505
 2645SOL    HW210610   3.840   1.707   4.508
 2645SOL    HW310611   3.971   1.656   4.566
 2645SOL    MW410612   3.927   1.711   4.514
 2646SOL     OW10613   0.564   0.210   4.484
 2646SOL    HW210614   0.532   0.151   4.553
 2646SOL    HW310615   0.655   0.185   4.471
 2646SOL    MW410616   0.572   0.199   4.491
 2647SOL     OW10617   0.261   0.811   4.590
 2647SOL    HW210618   0.323   0.809   4.663
 2647SOL    HW310619   0.267   0.724   4.551
 2647SOL    MW410620   0.270   0.799   4.594
 2648SOL     OW10621   4.224   0.732   4.627
 2648SOL    HW210622   4.247   0.653   4.578
 2648SOL    HW310623   4.308   0.777   4.640
 2648SOL    MW410624   4.238   0.727   4.622
 2649SOL     OW10625   0.687   1.397   4.495
 2649SOL    HW210626   0.717   1.488   4.505
 2649SOL    HW310627   0.596   1.399   4.524
 2649SOL    MW410628   0.679   1.409   4.500
 2650SOL     OW10629   1.235   2.014   4.523
 2650SOL    HW210630   1.327   2.037   4.511
 2650SOL    HW310631   1.207   2.067   4.597
 2650SOL    MW410632   1.244   2.024   4.531
 2651SOL     OW10633   4.223   1.200   4.474
 2651SOL    HW210634   4.183   1.119   4.505
 2651SOL    HW310635   4.317   1.185   4.482
 2651SOL    MW410636   4.230   1.187   4.479
 2652SOL     OW10637   0.067   1.773   4.488
 2652SOL    HW210638   0.035   1.759   4.399
 2652SOL    HW310639   0.082   1.868   4.494
 2652SOL    MW410640   0.064   1.784   4.477
 2653SOL     OW10641   0.441   1.668   4.260
 2653SOL    HW210642   0.371   1.631   4.205
 2653SOL    HW310643   0.522   1.638   4.219
 2653SOL    MW410644   0.442   1.659   4.247
 2654SOL     OW10645   4.330   2.027   4.413
 2654SOL    HW210646   4.366   2.098   4.465
 2654SOL    HW310647   4.298   1.964   4.478
 2654SOL    MW410648   4.331   2.028   4.428
 2655SOL     OW10649   4.203   2.350   4.564
 2655SOL    HW210650   4.118   2.310   4.546
 2655SOL    HW310651   4.187   2.444   4.559
 2655SOL    MW410652   4.189   2.357   4.561
 2656SOL     OW10653   0.661   3.151   4.625
 2656SOL    HW210654   0.673   3.061   4.592
 2656SOL    HW310655   0.741   3.168   4.674
 2656SOL    MW410656   0.673   3.141   4.627
 2657SOL     OW10657   0.281   2.818   4.671
 2657SOL    HW210658   0.258   2.780   4.756
 2657SOL    HW310659   0.306   2.908   4.692
 2657SOL    MW410660   0.281   2.825   4.685
 2658SOL     OW10661   0.074   2.500   4.486
 2658SOL    HW210662   0.066   2.471   4.395
 2658SOL    HW310663   0.062   2.595   4.482
 2658SOL    MW410664   0.071   2.509   4.473
 2659SOL     OW10665   3.564   3.502   4.549
 2659SOL    HW210666   3.613   3.439   4.603
 2659SOL    HW310667   3.503   3.448   4.499
 2659SOL    MW410668   3.563   3.486   4.549
 2660SOL     OW10669   0.571   3.369   4.475
 2660SOL    HW210670   0.478   3.363   4.498
 2660SOL    HW310671   0.614   3.308   4.535
 2660SOL    MW410672   0.564   3.360   4.486
 2661SOL     OW10673   3.852   3.856   4.549
 2661SOL    HW210674   3.848   3.777   4.496
 2661SOL    HW310675   3.897   3.830   4.629
 2661SOL    MW410676   3.857   3.842   4.552
 2662SOL     OW10677   0.053   0.057   4.532
 2662SOL    HW210678  -0.035   0.028   4.559
 2662SOL    HW310679   0.058   0.148   4.562
 2662SOL    MW410680   0.042   0.065   4.539
 2663SOL     OW10681   3.206   0.433   4.533
 2663SOL    HW210682   3.240   0.452   4.445
 2663SOL    HW310683   3.120   0.393   4.517
 2663SOL    MW410684   3.199   0.430   4.519
 2664SOL     OW10685   4.216   3.931   4.728
 2664SOL    HW210686   4.163   3.860   4.765
 2664SOL    HW310687   4.284   3.946   4.793
 2664SOL    MW410688   4.218   3.923   4.741
 2665SOL     OW10689   4.008   3.716   4.773
 2665SOL    HW210690   3.917   3.703   4.802
 2665SOL    HW310691   4.033   3.631   4.735
 2665SOL    MW410692   3.999   3.703   4.772
 2666SOL     OW10693   0.532   0.004   4.669
 2666SOL    HW210694   0.610  -0.035   4.629
 2666SOL    HW310695   0.547  -0.005   4.763
 2666SOL    MW410696   0.544  -0.002   4.676
 2667SOL     OW10697   3.953   0.604   4.748
 2667SOL    HW210698   4.045   0.627   4.752
 2667SOL    HW310699   3.913   0.674   4.696
 2667SOL    MW410700   3.960   0.616   4.741
 2668SOL     OW10701   1.120   0.704   4.622
 2668SOL    HW210702   1.064   0.780   4.608
 2668SOL    HW310703   1.109   0.652   4.542
 2668SOL    MW410704   1.111   0.707   4.609
 2669SOL     OW10705   0.951   0.506   4.728
 2669SOL    HW210706   1.014   0.574   4.708
 2669SOL    HW310707   0.867   0.551   4.732
 2669SOL    MW410708   0.948   0.521   4.726
 2670SOL     OW10709   0.851   0.868   4.485
 2670SOL    HW210710   0.873   0.896   4.396
 2670SOL    HW310711   0.783   0.929   4.513
 2670SOL    MW410712   0.845   0.879   4.477
 2671SOL     OW10713   0.391   1.011   4.472
 2671SOL    HW210714   0.418   0.974   4.388
 2671SOL    HW310715   0.342   0.941   4.514
 2671SOL    MW410716   0.388   0.997   4.466
 2672SOL     OW10717   2.219   1.116   4.587
 2672SOL    HW210718   2.147   1.178   4.586
 2672SOL    HW310719   2.296   1.168   4.564
 2672SOL    MW410720   2.220   1.131   4.584
 2673SOL     OW10721   0.350   1.652   4.515
 2673SOL    HW210722   0.259   1.682   4.521
 2673SOL    HW310723   0.370   1.655   4.421
 2673SOL    MW410724   0.340   1.656   4.503
 2674SOL     OW10725   1.375   1.067   4.459
 2674SOL    HW210726   1.356   1.012   4.383
 2674SOL    HW310727   1.325   1.147   4.444
 2674SOL    MW410728   1.366   1.070   4.447
 2675SOL     OW10729   0.831   1.652   4.535
 2675SOL    HW210730   0.788   1.737   4.539
 2675SOL    HW310731   0.915   1.665   4.579
 2675SOL    MW410732   0.837   1.665   4.541
 2676SOL     OW10733   0.666   2.170   4.517
 2676SOL    HW210734   0.736   2.234   4.509
 2676SOL    HW310735   0.711   2.087   4.531
 2676SOL    MW410736   0.681   2.167   4.518
 2677SOL     OW10737   1.078   1.777   4.609
 2677SOL    HW210738   1.144   1.707   4.614
 2677SOL    HW310739   1.125   1.851   4.570
 2677SOL    MW410740   1.093   1.778   4.605
 2678SOL     OW10741   0.398   2.156   4.617
 2678SOL    HW210742   0.491   2.155   4.596
 2678SOL    HW310743   0.373   2.249   4.614
 2678SOL    MW410744   0.407   2.168   4.614
 2679SOL     OW10745   1.018   2.681   4.586
 2679SOL    HW210746   0.924   2.672   4.571
 2679SOL    HW310747   1.036   2.774   4.571
 2679SOL    MW410748   1.008   2.692   4.582
 2680SOL     OW10749   0.766   2.610   4.487
 2680SOL    HW210750   0.671   2.601   4.492
 2680SOL    HW310751   0.798   2.521   4.475
 2680SOL    MW410752   0.758   2.597   4.486
 2681SOL     OW10753   0.990   3.192   4.518
 2681SOL    HW210754   1.080   3.225   4.509
 2681SOL    HW310755   0.961   3.224   4.603
 2681SOL    MW410756   0.998   3.201   4.528
 2682SOL     OW10757   0.907   3.535   4.771
 2682SOL    HW210758   0.853   3.566   4.698
 2682SOL    HW310759   0.996   3.560   4.747
 2682SOL    MW410760   0.911   3.542   4.758
 2683SOL     OW10761   1.273   4.480   4.465
 2683SOL    HW210762   1.349   4.435   4.502
 2683SOL    HW310763   1.275   4.567   4.506
 2683SOL    MW410764   1.283   4.486   4.475
 2684SOL     OW10765   0.332   2.413   4.560
 2684SOL    HW210766   0.359   2.396   4.470
 2684SOL    HW310767   0.243   2.448   4.552
 2684SOL    MW410768   0.323   2.415   4.547
 2685SOL     OW10769   4.476   3.240   4.520
 2685SOL    HW210770   4.386   3.274   4.520
 2685SOL    HW310771   4.499   3.231   4.428
 2685SOL    MW410772   4.467   3.243   4.508
 2686SOL     OW10773   1.549   3.639   4.476
 2686SOL    HW210774   1.560   3.555   4.521
 2686SOL    HW310775   1.626   3.689   4.501
 2686SOL    MW410776   1.560   3.634   4.485
 2687SOL     OW10777   0.303   4.018   4.552
 2687SOL    HW210778   0.215   3.983   4.537
 2687SOL    HW310779   0.290   4.111   4.567
 2687SOL    MW410780   0.289   4.025   4.552
 2688SOL     OW10781   0.284   3.866   4.131
 2688SOL    HW210782   0.288   3.786   4.183
 2688SOL    HW310783   0.216   3.919   4.173
 2688SOL    MW410784   0.276   3.862   4.144
 2689SOL     OW10785   0.266   4.560   4.618
 2689SOL    HW210786   0.208   4.616   4.566
 2689SOL    HW310787   0.342   4.615   4.636
 2689SOL    MW410788   0.268   4.575   4.613
 2690SOL     OW10789   0.544   0.483   4.476
 2690SOL    HW210790   0.574   0.503   4.387
 2690SOL    HW310791   0.536   0.388   4.478
 2690SOL    MW410792   0.547   0.473   4.465
 2691SOL     OW10793   0.513   4.116   4.389
 2691SOL    HW210794   0.434   4.087   4.434
 2691SOL    HW310795   0.482   4.186   4.331
 2691SOL    MW410796   0.498   4.122   4.387
 2692SOL     OW10797   0.493   0.813   4.783
 2692SOL    HW210798   0.456   0.765   4.857
 2692SOL    HW310799   0.564   0.758   4.751
 2692SOL    MW410800   0.498   0.799   4.788
 2693SOL     OW10801   1.396   0.811   4.561
 2693SOL    HW210802   1.397   0.906   4.557
 2693SOL    HW310803   1.307   0.788   4.589
 2693SOL    MW410804   1.384   0.820   4.564
 2694SOL     OW10805   1.815   1.132   4.438
 2694SOL    HW210806   1.823   1.039   4.459
 2694SOL    HW310807   1.871   1.177   4.501
 2694SOL    MW410808   1.823   1.126   4.449
 2695SOL     OW10809   0.277   1.256   4.481
 2695SOL    HW210810   0.320   1.171   4.486
 2695SOL    HW310811   0.330   1.314   4.535
 2695SOL    MW410812   0.289   1.252   4.488
 2696SOL     OW10813   0.927   1.947   4.770
 2696SOL    HW210814   0.981   2.026   4.780
 2696SOL    HW310815   0.985   1.885   4.725
 2696SOL    MW410816   0.942   1.949   4.766
 2697SOL     OW10817   0.951   1.264   4.507
 2697SOL    HW210818   0.875   1.316   4.482
 2697SOL    HW310819   0.928   1.228   4.593
 2697SOL    MW410820   0.938   1.266   4.515
 2698SOL     OW10821   1.982   1.270   4.603
 2698SOL    HW210822   1.961   1.294   4.693
 2698SOL    HW310823   1.991   1.354   4.557
 2698SOL    MW410824   1.980   1.284   4.609
 2699SOL     OW10825   1.209   1.336   4.434
 2699SOL    HW210826   1.118   1.326   4.462
 2699SOL    HW310827   1.239   1.415   4.479
 2699SOL    MW410828   1.201   1.345   4.443
 2700SOL     OW10829   1.096   2.431   4.625
 2700SOL    HW210830   1.077   2.523   4.605
 2700SOL    HW310831   1.187   2.420   4.601
 2700SOL    MW410832   1.105   2.442   4.620
 2701SOL     OW10833   1.656   2.448   4.794
 2701SOL    HW210834   1.713   2.514   4.833
 2701SOL    HW310835   1.573   2.494   4.780
 2701SOL    MW410836   1.653   2.463   4.798
 2702SOL     OW10837   1.478   3.131   4.576
 2702SOL    HW210838   1.549   3.078   4.539
 2702SOL    HW310839   1.517   3.218   4.586
 2702SOL    MW410840   1.492   3.136   4.572
 2703SOL     OW10841   1.658   3.363   4.565
 2703SOL    HW210842   1.719   3.309   4.617
 2703SOL    HW310843   1.675   3.336   4.475
 2703SOL    MW410844   1.669   3.352   4.560
 2704SOL     OW10845   0.658   2.872   4.542
 2704SOL    HW210846   0.720   2.802   4.522
 2704SOL    HW310847   0.576   2.826   4.562
 2704SOL    MW410848   0.655   2.857   4.542
 2705SOL     OW10849   0.737   4.541   4.559
 2705SOL    HW210850   0.825   4.509   4.543
 2705SOL    HW310851   0.685   4.504   4.488
 2705SOL    MW410852   0.741   4.532   4.548
 2706SOL     OW10853   1.343   2.883   4.645
 2706SOL    HW210854   1.267   2.890   4.587
 2706SOL    HW310855   1.383   2.970   4.642
 2706SOL    MW410856   1.338   2.896   4.637
 2707SOL     OW10857   1.096   2.928   4.485
 2707SOL    HW210858   1.042   3.006   4.487
 2707SOL    HW310859   1.095   2.900   4.393
 2707SOL    MW410860   1.089   2.935   4.473
 2708SOL     OW10861   2.018   3.621   4.512
 2708SOL    HW210862   2.022   3.639   4.418
 2708SOL    HW310863   2.017   3.526   4.519
 2708SOL    MW410864   2.018   3.611   4.501
 2709SOL     OW10865   0.496   3.787   4.533
 2709SOL    HW210866   0.497   3.811   4.440
 2709SOL    HW310867   0.455   3.861   4.577
 2709SOL    MW410868   0.491   3.800   4.526
 2710SOL     OW10869   0.282   3.324   4.530
 2710SOL    HW210870   0.274   3.413   4.566
 2710SOL    HW310871   0.192   3.294   4.520
 2710SOL    MW410872   0.269   3.332   4.534
 2711SOL     OW10873   0.830   0.132   4.466
 2711SOL    HW210874   0.880   0.126   4.384
 2711SOL    HW310875   0.816   0.040   4.491
 2711SOL    MW410876   0.835   0.119   4.458
 2712SOL     OW10877   0.907   4.305   4.261
 2712SOL    HW210878   0.947   4.340   4.340
 2712SOL    HW310879   0.823   4.351   4.253
 2712SOL    MW410880   0.901   4.315   4.270
 2713SOL     OW10881   2.353   3.986   4.543
 2713SOL    HW210882   2.332   3.990   4.449
 2713SOL    HW310883   2.330   3.897   4.568
 2713SOL    MW410884   2.347   3.975   4.534
 2714SOL     OW10885   1.758   4.536   4.512
 2714SOL    HW210886   1.837   4.491   4.541
 2714SOL    HW310887   1.690   4.468   4.511
 2714SOL    MW410888   1.759   4.521   4.516
 2715SOL     OW10889   1.566   4.341   4.497
 2715SOL    HW210890   1.598   4.253   4.519
 2715SOL    HW310891   1.540   4.334   4.405
 2715SOL    MW410892   1.567   4.329   4.488
 2716SOL     OW10893   0.687   0.643   4.649
 2716SOL    HW210894   0.734   0.698   4.587
 2716SOL    HW310895   0.647   0.575   4.596
 2716SOL    MW410896   0.688   0.641   4.634
 2717SOL     OW10897   1.714   0.151   4.505
 2717SOL    HW210898   1.727   0.058   4.526
 2717SOL    HW310899   1.634   0.175   4.552
 2717SOL    MW410900   1.705   0.142   4.514
 2718SOL     OW10901   1.056   0.485   4.430
 2718SOL    HW210902   0.967   0.515   4.445
 2718SOL    HW310903   1.068   0.414   4.493
 2718SOL    MW410904   1.046   0.479   4.441
 2719SOL     OW10905   1.768   1.701   4.445
 2719SOL    HW210906   1.809   1.621   4.479
 2719SOL    HW310907   1.777   1.694   4.350
 2719SOL    MW410908   1.774   1.689   4.437
 2720SOL     OW10909   0.649   0.998   4.617
 2720SOL    HW210910   0.567   1.033   4.582
 2720SOL    HW310911   0.621   0.930   4.678
 2720SOL    MW410912   0.634   0.994   4.620
 2721SOL     OW10913   1.466   0.263   4.606
 2721SOL    HW210914   1.481   0.358   4.601
 2721SOL    HW310915   1.442   0.247   4.697
 2721SOL    MW410916   1.465   0.274   4.617
 2722SOL     OW10917   1.569   1.266   4.456
 2722SOL    HW210918   1.505   1.198   4.478
 2722SOL    HW310919   1.651   1.219   4.444
 2722SOL    MW410920   1.571   1.251   4.457
 2723SOL     OW10921   1.309   1.611   4.503
 2723SOL    HW210922   1.389   1.589   4.552
 2723SOL    HW310923   1.338   1.616   4.411
 2723SOL    MW410924   1.324   1.608   4.497
 2724SOL     OW10925   1.456   2.621   4.701
 2724SOL    HW210926   1.412   2.705   4.693
 2724SOL    HW310927   1.411   2.564   4.638
 2724SOL    MW410928   1.444   2.624   4.692
 2725SOL     OW10929   2.333   2.599   4.228
 2725SOL    HW210930   2.271   2.547   4.177
 2725SOL    HW310931   2.280   2.668   4.268
 2725SOL    MW410932   2.318   2.601   4.227
 2726SOL     OW10933   0.866   2.352   4.463
 2726SOL    HW210934   0.950   2.354   4.508
 2726SOL    HW310935   0.888   2.364   4.371
 2726SOL    MW410936   0.880   2.354   4.457
 2727SOL     OW10937   1.198   3.965   4.470
 2727SOL    HW210938   1.134   3.919   4.416
 2727SOL    HW310939   1.212   3.906   4.545
 2727SOL    MW410940   1.191   3.951   4.473
 2728SOL     OW10941   1.341   2.457   4.264
 2728SOL    HW210942   1.347   2.543   4.222
 2728SOL    HW310943   1.417   2.408   4.231
 2728SOL    MW410944   1.352   2.462   4.254
 2729SOL     OW10945   1.354   2.410   4.534
 2729SOL    HW210946   1.340   2.437   4.443
 2729SOL    HW310947   1.380   2.318   4.529
 2729SOL    MW410948   1.356   2.402   4.521
 2730SOL     OW10949   1.235   3.294   4.526
 2730SOL    HW210950   1.295   3.223   4.549
 2730SOL    HW310951   1.262   3.320   4.438
 2730SOL    MW410952   1.246   3.288   4.517
 2731SOL     OW10953   0.860   3.261   4.776
 2731SOL    HW210954   0.895   3.218   4.853
 2731SOL    HW310955   0.883   3.354   4.788
 2731SOL    MW410956   0.868   3.268   4.788
 2732SOL     OW10957   0.715   3.605   4.536
 2732SOL    HW210958   0.669   3.522   4.525
 2732SOL    HW310959   0.647   3.672   4.533
 2732SOL    MW410960   0.700   3.603   4.534
 2733SOL     OW10961   2.385   3.262   4.599
 2733SOL    HW210962   2.434   3.180   4.604
 2733SOL    HW310963   2.298   3.239   4.630
 2733SOL    MW410964   2.380   3.248   4.604
 2734SOL     OW10965   2.013   3.356   4.474
 2734SOL    HW210966   2.009   3.291   4.544
 2734SOL    HW310967   2.056   3.312   4.401
 2734SOL    MW410968   2.018   3.342   4.474
 2735SOL     OW10969   2.554   3.031   4.550
 2735SOL    HW210970   2.485   2.972   4.519
 2735SOL    HW310971   2.582   2.994   4.634
 2735SOL    MW410972   2.549   3.018   4.557
 2736SOL     OW10973   1.155   3.567   4.601
 2736SOL    HW210974   1.092   3.587   4.532
 2736SOL    HW310975   1.184   3.477   4.581
 2736SOL    MW410976   1.150   3.558   4.589
 2737SOL     OW10977   1.775   4.081   4.519
 2737SOL    HW210978   1.771   4.056   4.426
 2737SOL    HW310979   1.759   4.000   4.567
 2737SOL    MW410980   1.772   4.067   4.513
 2738SOL     OW10981   1.924   0.328   4.538
 2738SOL    HW210982   1.862   0.257   4.523
 2738SOL    HW310983   1.995   0.288   4.589
 2738SOL    MW410984   1.925   0.314   4.543
 2739SOL     OW10985   1.023   0.265   4.616
 2739SOL    HW210986   0.949   0.233   4.564
 2739SOL    HW310987   0.982   0.315   4.687
 2739SOL    MW410988   1.008   0.268   4.618
 2740SOL     OW10989   1.241   0.085   4.539
 2740SOL    HW210990   1.318   0.139   4.557
 2740SOL    HW310991   1.167   0.139   4.567
 2740SOL    MW410992   1.241   0.099   4.545
 2741SOL     OW10993   2.292   0.051   4.539
 2741SOL    HW210994   2.325  -0.039   4.551
 2741SOL    HW310995   2.273   0.057   4.445
 2741SOL    MW410996   2.294   0.040   4.528
 2742SOL     OW10997   1.828   0.851   4.472
 2742SOL    HW210998   1.814   0.758   4.490
 2742SOL    HW310999   1.808   0.862   4.379
 2742SOL    MW411000   1.824   0.841   4.462
 2743SOL     OW11001   1.502   0.572   4.570
 2743SOL    HW211002   1.464   0.659   4.580
 2743SOL    HW311003   1.597   0.587   4.577
 2743SOL    MW411004   1.510   0.586   4.572
 2744SOL     OW11005   2.161   1.742   4.430
 2744SOL    HW211006   2.238   1.782   4.470
 2744SOL    HW311007   2.188   1.722   4.341
 2744SOL    MW411008   2.175   1.745   4.423
 2745SOL     OW11009   0.749   1.904   4.565
 2745SOL    HW211010   0.799   1.921   4.645
 2745SOL    HW311011   0.663   1.877   4.597
 2745SOL    MW411012   0.744   1.903   4.580
 2746SOL     OW11013   1.578   1.553   4.576
 2746SOL    HW211014   1.603   1.466   4.545
 2746SOL    HW311015   1.622   1.613   4.515
 2746SOL    MW411016   1.587   1.550   4.564
 2747SOL     OW11017   1.123   2.165   4.734
 2747SOL    HW211018   1.164   2.196   4.815
 2747SOL    HW311019   1.089   2.244   4.693
 2747SOL    MW411020   1.124   2.180   4.739
 2748SOL     OW11021   1.500   2.137   4.465
 2748SOL    HW211022   1.546   2.096   4.391
 2748SOL    HW311023   1.564   2.197   4.503
 2748SOL    MW411024   1.515   2.140   4.460
 2749SOL     OW11025   2.152   2.422   4.113
 2749SOL    HW211026   2.100   2.377   4.046
 2749SOL    HW311027   2.182   2.353   4.171
 2749SOL    MW411028   2.149   2.407   4.112
 2750SOL     OW11029   1.236   2.242   4.986
 2750SOL    HW211030   1.322   2.245   5.030
 2750SOL    HW311031   1.188   2.316   5.022
 2750SOL    MW411032   1.241   2.252   4.997
 2751SOL     OW11033   2.905   3.082   4.818
 2751SOL    HW211034   2.988   3.129   4.814
 2751SOL    HW311035   2.904   3.027   4.740
 2751SOL    MW411036   2.916   3.081   4.807
 2752SOL     OW11037   1.854   3.180   4.671
 2752SOL    HW211038   1.809   3.106   4.632
 2752SOL    HW311039   1.941   3.147   4.695
 2752SOL    MW411040   1.860   3.166   4.669
 2753SOL     OW11041   1.774   3.804   4.590
 2753SOL    HW211042   1.753   3.793   4.682
 2753SOL    HW311043   1.845   3.742   4.575
 2753SOL    MW411044   1.781   3.794   4.600
 2754SOL     OW11045   2.659   2.716   4.749
 2754SOL    HW211046   2.585   2.681   4.699
 2754SOL    HW311047   2.736   2.674   4.709
 2754SOL    MW411048   2.659   2.706   4.737
 2755SOL     OW11049   2.379   2.648   4.886
 2755SOL    HW211050   2.474   2.655   4.891
 2755SOL    HW311051   2.350   2.734   4.856
 2755SOL    MW411052   2.387   2.660   4.883
 2756SOL     OW11053   2.921   4.058   4.611
 2756SOL    HW211054   2.827   4.060   4.594
 2756SOL    HW311055   2.945   4.150   4.619
 2756SOL    MW411056   2.911   4.071   4.610
 2757SOL     OW11057   2.624   4.056   4.527
 2757SOL    HW211058   2.537   4.021   4.547
 2757SOL    HW311059   2.643   4.025   4.438
 2757SOL    MW411060   2.615   4.048   4.518
 2758SOL     OW11061   2.455   3.516   4.519
 2758SOL    HW211062   2.411   3.435   4.548
 2758SOL    HW311063   2.451   3.512   4.424
 2758SOL    MW411064   2.449   3.505   4.510
 2759SOL     OW11065   2.280   3.734   4.606
 2759SOL    HW211066   2.340   3.661   4.593
 2759SOL    HW311067   2.195   3.700   4.577
 2759SOL    MW411068   2.277   3.720   4.600
 2760SOL     OW11069   1.963   4.288   4.549
 2760SOL    HW211070   1.915   4.210   4.519
 2760SOL    HW311071   1.959   4.283   4.645
 2760SOL    MW411072   1.956   4.277   4.558
 2761SOL     OW11073   1.333   3.787   4.640
 2761SOL    HW211074   1.404   3.752   4.587
 2761SOL    HW311075   1.268   3.718   4.642
 2761SOL    MW411076   1.334   3.774   4.633
 2762SOL     OW11077   2.145   0.228   4.700
 2762SOL    HW211078   2.180   0.148   4.661
 2762SOL    HW311079   2.222   0.277   4.729
 2762SOL    MW411080   2.160   0.224   4.698
 2763SOL     OW11081   2.109   0.587   4.617
 2763SOL    HW211082   2.109   0.675   4.579
 2763SOL    HW311083   2.068   0.532   4.550
 2763SOL    MW411084   2.103   0.592   4.603
 2764SOL     OW11085   2.006   1.514   4.477
 2764SOL    HW211086   2.064   1.590   4.476
 2764SOL    HW311087   2.019   1.472   4.392
 2764SOL    MW411088   2.016   1.518   4.466
 2765SOL     OW11089   2.413   0.834   4.561
 2765SOL    HW211090   2.331   0.863   4.601
 2765SOL    HW311091   2.427   0.747   4.599
 2765SOL    MW411092   2.404   0.826   4.572
 2766SOL     OW11093   2.840   0.681   4.313
 2766SOL    HW211094   2.853   0.700   4.406
 2766SOL    HW311095   2.911   0.728   4.269
 2766SOL    MW411096   2.851   0.690   4.320
 2767SOL     OW11097   3.266   1.087   4.399
 2767SOL    HW211098   3.208   1.102   4.474
 2767SOL    HW311099   3.318   1.167   4.393
 2767SOL    MW411100   3.265   1.100   4.408
 2768SOL     OW11101   2.117   0.868   4.543
 2768SOL    HW211102   2.139   0.957   4.568
 2768SOL    HW311103   2.023   0.870   4.527
 2768SOL    MW411104   2.108   0.880   4.544
 2769SOL     OW11105   2.602   1.447   4.571
 2769SOL    HW211106   2.641   1.447   4.658
 2769SOL    HW311107   2.665   1.400   4.516
 2769SOL    MW411108   2.615   1.441   4.575
 2770SOL     OW11109   2.610   1.723   4.527
 2770SOL    HW211110   2.616   1.721   4.431
 2770SOL    HW311111   2.619   1.631   4.553
 2770SOL    MW411112   2.612   1.711   4.518
 2771SOL     OW11113   2.384   1.889   4.516
 2771SOL    HW211114   2.457   1.827   4.525
 2771SOL    HW311115   2.409   1.943   4.441
 2771SOL    MW411116   2.397   1.888   4.507
 2772SOL     OW11117   2.143   2.181   4.836
 2772SOL    HW211118   2.082   2.170   4.764
 2772SOL    HW311119   2.165   2.274   4.835
 2772SOL    MW411120   2.138   2.192   4.827
 2773SOL     OW11121   2.365   2.148   4.669
 2773SOL    HW211122   2.372   2.058   4.637
 2773SOL    HW311123   2.306   2.142   4.744
 2773SOL    MW411124   2.358   2.135   4.675
 2774SOL     OW11125   2.784   2.589   4.350
 2774SOL    HW211126   2.692   2.569   4.366
 2774SOL    HW311127   2.787   2.685   4.345
 2774SOL    MW411128   2.772   2.599   4.351
 2775SOL     OW11129   1.578   2.730   4.479
 2775SOL    HW211130   1.622   2.647   4.461
 2775SOL    HW311131   1.523   2.712   4.555
 2775SOL    MW411132   1.577   2.716   4.487
 2776SOL     OW11133   2.336   2.927   4.792
 2776SOL    HW211134   2.422   2.958   4.819
 2776SOL    HW311135   2.342   2.917   4.697
 2776SOL    MW411136   2.348   2.930   4.783
 2777SOL     OW11137   2.723   3.445   4.561
 2777SOL    HW211138   2.732   3.405   4.647
 2777SOL    HW311139   2.637   3.487   4.563
 2777SOL    MW411140   2.713   3.446   4.573
 2778SOL     OW11141   2.625   2.980   4.812
 2778SOL    HW211142   2.711   3.021   4.823
 2778SOL    HW311143   2.644   2.887   4.800
 2778SOL    MW411144   2.639   2.974   4.812
 2779SOL     OW11145   0.988   4.127   4.569
 2779SOL    HW211146   1.071   4.082   4.555
 2779SOL    HW311147   0.926   4.081   4.512
 2779SOL    MW411148   0.991   4.115   4.560
 2780SOL     OW11149   3.215   4.046   4.519
 2780SOL    HW211150   3.124   4.024   4.543
 2780SOL    HW311151   3.268   4.004   4.587
 2780SOL    MW411152   3.210   4.038   4.531
 2781SOL     OW11153   2.157   3.117   4.681
 2781SOL    HW211154   2.157   3.066   4.600
 2781SOL    HW311155   2.199   3.060   4.746
 2781SOL    MW411156   2.163   3.103   4.679
 2782SOL     OW11157   3.357   3.951   4.733
 2782SOL    HW211158   3.393   4.010   4.799
 2782SOL    HW311159   3.398   3.867   4.751
 2782SOL    MW411160   3.367   3.948   4.744
 2783SOL     OW11161   3.346   4.408   4.868
 2783SOL    HW211162   3.299   4.357   4.801
 2783SOL    HW311163   3.278   4.460   4.910
 2783SOL    MW411164   3.331   4.408   4.865
 2784SOL     OW11165   2.268   4.253   4.596
 2784SOL    HW211166   2.173   4.250   4.590
 2784SOL    HW311167   2.295   4.161   4.599
 2784SOL    MW411168   2.259   4.240   4.596
 2785SOL     OW11169   2.438   4.462   4.556
 2785SOL    HW211170   2.381   4.386   4.569
 2785SOL    HW311171   2.441   4.474   4.461
 2785SOL    MW411172   2.431   4.454   4.545
 2786SOL     OW11173   2.866   0.406   4.273
 2786SOL    HW211174   2.864   0.501   4.288
 2786SOL    HW311175   2.947   0.392   4.224
 2786SOL    MW411176   2.877   0.417   4.269
 2787SOL     OW11177   2.987   4.473   4.665
 2787SOL    HW211178   3.071   4.429   4.653
 2787SOL    HW311179   2.948   4.475   4.577
 2787SOL    MW411180   2.993   4.468   4.652
 2788SOL     OW11181   2.678   4.316   4.573
 2788SOL    HW211182   2.598   4.368   4.559
 2788SOL    HW311183   2.652   4.226   4.554
 2788SOL    MW411184   2.664   4.311   4.569
 2789SOL     OW11185   2.797   0.989   4.592
 2789SOL    HW211186   2.833   0.901   4.602
 2789SOL    HW311187   2.720   0.978   4.536
 2789SOL    MW411188   2.792   0.976   4.586
 2790SOL     OW11189   2.924   0.257   4.813
 2790SOL    HW211190   2.941   0.351   4.801
 2790SOL    HW311191   2.830   0.252   4.832
 2790SOL    MW411192   2.914   0.269   4.814
 2791SOL     OW11193   1.772   0.584   4.572
 2791SOL    HW211194   1.800   0.636   4.647
 2791SOL    HW311195   1.818   0.501   4.581
 2791SOL    MW411196   1.781   0.580   4.583
 2792SOL     OW11197   2.579   1.015   4.427
 2792SOL    HW211198   2.509   0.961   4.463
 2792SOL    HW311199   2.601   0.973   4.344
 2792SOL    MW411200   2.573   1.002   4.421
 2793SOL     OW11201   3.098   1.285   4.609
 2793SOL    HW211202   3.007   1.317   4.609
 2793SOL    HW311203   3.092   1.197   4.644
 2793SOL    MW411204   3.085   1.278   4.613
 2794SOL     OW11205   3.146   1.717   4.548
 2794SOL    HW211206   3.061   1.749   4.576
 2794SOL    HW311207   3.164   1.642   4.605
 2794SOL    MW411208   3.137   1.711   4.559
 2795SOL     OW11209   2.889   1.818   4.585
 2795SOL    HW211210   2.870   1.909   4.564
 2795SOL    HW311211   2.810   1.770   4.560
 2795SOL    MW411212   2.876   1.824   4.579
 2796SOL     OW11213   2.593   2.198   4.536
 2796SOL    HW211214   2.569   2.283   4.500
 2796SOL    HW311215   2.521   2.177   4.596
 2796SOL    MW411216   2.580   2.206   4.539
 2797SOL     OW11217   2.857   2.084   4.467
 2797SOL    HW211218   2.772   2.119   4.495
 2797SOL    HW311219   2.853   2.085   4.371
 2797SOL    MW411220   2.845   2.089   4.458
 2798SOL     OW11221   3.033   2.298   4.518
 2798SOL    HW211222   2.979   2.221   4.498
 2798SOL    HW311223   3.045   2.341   4.434
 2798SOL    MW411224   3.027   2.293   4.504
 2799SOL     OW11225   2.423   2.596   4.600
 2799SOL    HW211226   2.392   2.603   4.690
 2799SOL    HW311227   2.393   2.678   4.558
 2799SOL    MW411228   2.415   2.608   4.606
 2800SOL     OW11229   3.740   3.631   4.819
 2800SOL    HW211230   3.645   3.640   4.813
 2800SOL    HW311231   3.756   3.539   4.798
 2800SOL    MW411232   3.730   3.620   4.816
 2801SOL     OW11233   2.776   2.862   4.365
 2801SOL    HW211234   2.827   2.902   4.295
 2801SOL    HW311235   2.685   2.869   4.334
 2801SOL    MW411236   2.770   2.868   4.351
 2802SOL     OW11237   2.737   3.296   4.795
 2802SOL    HW211238   2.797   3.222   4.796
 2802SOL    HW311239   2.660   3.266   4.844
 2802SOL    MW411240   2.735   3.282   4.802
 2803SOL     OW11241   2.905   2.928   4.594
 2803SOL    HW211242   2.955   2.846   4.596
 2803SOL    HW311243   2.830   2.909   4.537
 2803SOL    MW411244   2.902   2.914   4.586
 2804SOL     OW11245   2.635   0.328   4.782
 2804SOL    HW211246   2.549   0.360   4.810
 2804SOL    HW311247   2.618   0.244   4.741
 2804SOL    MW411248   2.622   0.321   4.781
 2805SOL     OW11249   3.491   4.156   4.894
 2805SOL    HW211250   3.447   4.233   4.929
 2805SOL    HW311251   3.539   4.187   4.817
 2805SOL    MW411252   3.492   4.170   4.889
 2806SOL     OW11253   3.840   3.571   4.454
 2806SOL    HW211254   3.820   3.590   4.362
 2806SOL    HW311255   3.756   3.547   4.492
 2806SOL    MW411256   3.826   3.571   4.447
 2807SOL     OW11257   2.942   3.626   4.550
 2807SOL    HW211258   2.869   3.570   4.576
 2807SOL    HW311259   2.911   3.715   4.568
 2807SOL    MW411260   2.928   3.631   4.556
 2808SOL     OW11261   3.215   4.308   4.620
 2808SOL    HW211262   3.243   4.224   4.584
 2808SOL    HW311263   3.264   4.374   4.570
 2808SOL    MW411264   3.225   4.306   4.608
 2809SOL     OW11265   2.781   0.497   4.624
 2809SOL    HW211266   2.716   0.448   4.674
 2809SOL    HW311267   2.847   0.431   4.599
 2809SOL    MW411268   2.781   0.482   4.627
 2810SOL     OW11269   2.907   0.734   4.576
 2810SOL    HW211270   2.997   0.715   4.603
 2810SOL    HW311271   2.859   0.653   4.597
 2810SOL    MW411272   2.912   0.721   4.583
 2811SOL     OW11273   2.348   0.422   4.722
 2811SOL    HW211274   2.397   0.452   4.645
 2811SOL    HW311275   2.269   0.475   4.722
 2811SOL    MW411276   2.344   0.433   4.712
 2812SOL     OW11277   2.449   1.244   4.462
 2812SOL    HW211278   2.495   1.162   4.445
 2812SOL    HW311279   2.504   1.289   4.527
 2812SOL    MW411280   2.463   1.239   4.468
 2813SOL     OW11281   2.846   4.476   4.430
 2813SOL    HW211282   2.785   4.428   4.486
 2813SOL    HW311283   2.838   4.567   4.459
 2813SOL    MW411284   2.837   4.482   4.441
 2814SOL     OW11285   2.785   0.070   4.496
 2814SOL    HW211286   2.751   0.054   4.408
 2814SOL    HW311287   2.706   0.082   4.549
 2814SOL    MW411288   2.770   0.069   4.491
 2815SOL     OW11289   3.249   1.502   4.693
 2815SOL    HW211290   3.241   1.499   4.789
 2815SOL    HW311291   3.202   1.423   4.663
 2815SOL    MW411292   3.242   1.491   4.702
 2816SOL     OW11293   2.831   1.275   4.537
 2816SOL    HW211294   2.816   1.182   4.555
 2816SOL    HW311295   2.871   1.277   4.450
 2816SOL    MW411296   2.835   1.263   4.528
 2817SOL     OW11297   4.075   0.971   4.547
 2817SOL    HW211298   4.070   0.968   4.451
 2817SOL    HW311299   4.140   0.904   4.569
 2817SOL    MW411300   4.083   0.962   4.537
 2818SOL     OW11301   3.525   1.468   4.597
 2818SOL    HW211302   3.564   1.554   4.583
 2818SOL    HW311303   3.433   1.485   4.615
 2818SOL    MW411304   3.518   1.481   4.597
 2819SOL     OW11305   3.352   1.908   4.554
 2819SOL    HW211306   3.303   1.990   4.546
 2819SOL    HW311307   3.284   1.840   4.556
 2819SOL    MW411308   3.337   1.910   4.553
 2820SOL     OW11309   3.280   2.181   4.515
 2820SOL    HW211310   3.193   2.222   4.519
 2820SOL    HW311311   3.301   2.180   4.422
 2820SOL    MW411312   3.271   2.186   4.504
 2821SOL     OW11313   3.662   1.702   4.509
 2821SOL    HW211314   3.643   1.791   4.539
 2821SOL    HW311315   3.643   1.703   4.416
 2821SOL    MW411316   3.657   1.714   4.501
 2822SOL     OW11317   2.916   2.627   4.595
 2822SOL    HW211318   2.885   2.596   4.510
 2822SOL    HW311319   2.918   2.549   4.650
 2822SOL    MW411320   2.912   2.613   4.591
 2823SOL     OW11321   3.190   2.585   4.491
 2823SOL    HW211322   3.105   2.617   4.520
 2823SOL    HW311323   3.171   2.515   4.428
 2823SOL    MW411324   3.177   2.580   4.486
 2824SOL     OW11325   2.909   2.383   4.750
 2824SOL    HW211326   2.945   2.340   4.673
 2824SOL    HW311327   2.828   2.337   4.769
 2824SOL    MW411328   2.903   2.372   4.742
 2825SOL     OW11329   3.663   3.120   4.557
 2825SOL    HW211330   3.669   3.162   4.471
 2825SOL    HW311331   3.714   3.040   4.547
 2825SOL    MW411332   3.670   3.115   4.544
 2826SOL     OW11333   3.352   3.347   4.448
 2826SOL    HW211334   3.288   3.392   4.503
 2826SOL    HW311335   3.350   3.256   4.478
 2826SOL    MW411336   3.343   3.341   4.459
 2827SOL     OW11337   3.368   3.083   4.589
 2827SOL    HW211338   3.342   2.996   4.560
 2827SOL    HW311339   3.463   3.077   4.602
 2827SOL    MW411340   3.377   3.071   4.587
 2828SOL     OW11341   3.837   2.900   4.490
 2828SOL    HW211342   3.841   2.822   4.545
 2828SOL    HW311343   3.928   2.918   4.467
 2828SOL    MW411344   3.849   2.892   4.494
 2829SOL     OW11345   3.757   3.364   4.698
 2829SOL    HW211346   3.737   3.274   4.673
 2829SOL    HW311347   3.851   3.373   4.682
 2829SOL    MW411348   3.766   3.354   4.692
 2830SOL     OW11349   3.597   4.258   4.659
 2830SOL    HW211350   3.682   4.301   4.645
 2830SOL    HW311351   3.608   4.171   4.621
 2830SOL    MW411352   3.610   4.252   4.652
 2831SOL     OW11353   2.932   0.299   4.509
 2831SOL    HW211354   2.910   0.312   4.417
 2831SOL    HW311355   2.894   0.213   4.531
 2831SOL    MW411356   2.924   0.289   4.500
 2832SOL     OW11357   3.114   0.054   4.721
 2832SOL    HW211358   3.072  -0.031   4.703
 2832SOL    HW311359   3.041   0.111   4.748
 2832SOL    MW411360   3.099   0.050   4.722
 2833SOL     OW11361   3.425   4.436   4.498
 2833SOL    HW211362   3.488   4.392   4.555
 2833SOL    HW311363   3.456   4.526   4.493
 2833SOL    MW411364   3.438   4.442   4.505
 2834SOL     OW11365   3.591   3.984   4.559
 2834SOL    HW211366   3.660   3.923   4.584
 2834SOL    HW311367   3.512   3.948   4.599
 2834SOL    MW411368   3.589   3.971   4.567
 2835SOL     OW11369   3.552   0.047   4.527
 2835SOL    HW211370   3.464   0.078   4.548
 2835SOL    HW311371   3.558   0.056   4.432
 2835SOL    MW411372   3.541   0.052   4.517
 2836SOL     OW11373   3.391   0.887   4.558
 2836SOL    HW211374   3.354   0.954   4.500
 2836SOL    HW311375   3.483   0.914   4.569
 2836SOL    MW411376   3.398   0.900   4.552
 2837SOL     OW11377   2.556   0.078   4.648
 2837SOL    HW211378   2.470   0.073   4.607
 2837SOL    HW311379   2.562  -0.002   4.701
 2837SOL    MW411380   2.545   0.067   4.649
 2838SOL     OW11381   4.299   1.788   4.571
 2838SOL    HW211382   4.288   1.693   4.576
 2838SOL    HW311383   4.388   1.800   4.538
 2838SOL    MW411384   4.309   1.777   4.567
 2839SOL     OW11385   3.854   0.816   4.591
 2839SOL    HW211386   3.829   0.791   4.502
 2839SOL    HW311387   3.930   0.872   4.579
 2839SOL    MW411388   3.861   0.820   4.578
 2840SOL     OW11389   4.463   0.891   4.557
 2840SOL    HW211390   4.458   0.877   4.462
 2840SOL    HW311391   4.551   0.862   4.581
 2840SOL    MW411392   4.474   0.885   4.547
 2841SOL     OW11393   4.275   0.475   4.521
 2841SOL    HW211394   4.279   0.483   4.426
 2841SOL    HW311395   4.190   0.435   4.539
 2841SOL    MW411396   4.264   0.471   4.511
 2842SOL     OW11397   3.574   1.693   4.230
 2842SOL    HW211398   3.650   1.658   4.183
 2842SOL    HW311399   3.505   1.629   4.215
 2842SOL    MW411400   3.575   1.680   4.221
 2843SOL     OW11401   4.003   1.748   4.236
 2843SOL    HW211402   4.093   1.717   4.228
 2843SOL    HW311403   3.979   1.729   4.327
 2843SOL    MW411404   4.011   1.741   4.247
 2844SOL     OW11405   3.677   2.485   4.468
 2844SOL    HW211406   3.593   2.479   4.513
 2844SOL    HW311407   3.700   2.394   4.448
 2844SOL    MW411408   3.669   2.472   4.471
 2845SOL     OW11409   3.607   1.981   4.576
 2845SOL    HW211410   3.622   1.993   4.670
 2845SOL    HW311411   3.515   1.956   4.569
 2845SOL    MW411412   3.597   1.979   4.587
 2846SOL     OW11413   0.153   2.045   4.531
 2846SOL    HW211414   0.227   2.083   4.577
 2846SOL    HW311415   0.080   2.106   4.547
 2846SOL    MW411416   0.153   2.058   4.539
 2847SOL     OW11417   3.712   2.200   4.439
 2847SOL    HW211418   3.804   2.205   4.466
 2847SOL    HW311419   3.675   2.129   4.490
 2847SOL    MW411420   3.720   2.192   4.449
 2848SOL     OW11421   3.872   2.622   4.626
 2848SOL    HW211422   3.805   2.589   4.567
 2848SOL    HW311423   3.853   2.583   4.711
 2848SOL    MW411424   3.861   2.613   4.629
 2849SOL     OW11425   4.104   2.635   4.479
 2849SOL    HW211426   4.031   2.640   4.540
 2849SOL    HW311427   4.140   2.724   4.476
 2849SOL    MW411428   4.099   2.647   4.486
 2850SOL     OW11429   4.371   2.949   4.524
 2850SOL    HW211430   4.407   3.038   4.529
 2850SOL    HW311431   4.444   2.895   4.492
 2850SOL    MW411432   4.386   2.954   4.520
 2851SOL     OW11433   3.136   3.237   4.713
 2851SOL    HW211434   3.105   3.211   4.626
 2851SOL    HW311435   3.228   3.210   4.716
 2851SOL    MW411436   3.144   3.230   4.702
 2852SOL     OW11437   3.455   3.677   4.733
 2852SOL    HW211438   3.363   3.651   4.735
 2852SOL    HW311439   3.497   3.613   4.676
 2852SOL    MW411440   3.448   3.665   4.726
 2853SOL     OW11441   3.199   3.502   4.623
 2853SOL    HW211442   3.120   3.553   4.607
 2853SOL    HW311443   3.168   3.426   4.673
 2853SOL    MW411444   3.184   3.498   4.627
 2854SOL     OW11445   4.208   3.343   4.440
 2854SOL    HW211446   4.224   3.431   4.404
 2854SOL    HW311447   4.161   3.297   4.370
 2854SOL    MW411448   4.204   3.349   4.426
 2855SOL     OW11449   0.381   3.071   4.684
 2855SOL    HW211450   0.474   3.085   4.667
 2855SOL    HW311451   0.337   3.142   4.638
 2855SOL    MW411452   0.388   3.082   4.676
 2856SOL     OW11453   4.238   3.834   4.449
 2856SOL    HW211454   4.183   3.902   4.411
 2856SOL    HW311455   4.230   3.845   4.544
 2856SOL    MW411456   4.230   3.844   4.456
 2857SOL     OW11457   3.850   4.358   4.602
 2857SOL    HW211458   3.846   4.353   4.506
 2857SOL    HW311459   3.825   4.448   4.622
 2857SOL    MW411460   3.846   4.369   4.592
 2858SOL     OW11461   3.281   0.172   4.537
 2858SOL    HW211462   3.228   0.144   4.612
 2858SOL    HW311463   3.272   0.267   4.535
 2858SOL    MW411464   3.273   0.180   4.547
 2859SOL     OW11465   3.675   1.020   4.545
 2859SOL    HW211466   3.706   1.101   4.585
 2859SOL    HW311467   3.737   0.953   4.573
 2859SOL    MW411468   3.687   1.022   4.554
 2860SOL     OW11469   3.186   0.711   4.596
 2860SOL    HW211470   3.205   0.618   4.590
 2860SOL    HW311471   3.272   0.753   4.596
 2860SOL    MW411472   3.200   0.705   4.595
 2861SOL     OW11473   0.034   0.326   4.551
 2861SOL    HW211474   0.114   0.373   4.526
 2861SOL    HW311475  -0.034   0.393   4.553
 2861SOL    MW411476   0.036   0.341   4.548
 2862SOL     OW11477   0.272   0.527   4.501
 2862SOL    HW211478   0.366   0.510   4.501
 2862SOL    HW311479   0.247   0.524   4.408
 2862SOL    MW411480   0.281   0.524   4.488
 2863SOL     OW11481   4.003   0.378   4.519
 2863SOL    HW211482   3.947   0.415   4.587
 2863SOL    HW311483   4.000   0.283   4.534
 2863SOL    MW411484   3.995   0.370   4.530
 2864SOL     OW11485   3.774   1.285   4.625
 2864SOL    HW211486   3.713   1.359   4.629
 2864SOL    HW311487   3.861   1.325   4.631
 2864SOL    MW411488   3.778   1.300   4.626
 2865SOL     OW11489   0.005   1.187   4.538
 2865SOL    HW211490   0.094   1.218   4.520
 2865SOL    HW311491   0.015   1.095   4.559
 2865SOL    MW411492   0.018   1.179   4.538
 2866SOL     OW11493   4.250   1.463   4.609
 2866SOL    HW211494   4.246   1.391   4.547
 2866SOL    HW311495   4.319   1.438   4.671
 2866SOL    MW411496   4.259   1.450   4.609
 2867SOL     OW11497   3.987   1.471   4.678
 2867SOL    HW211498   4.077   1.458   4.649
 2867SOL    HW311499   3.996   1.517   4.762
 2867SOL    MW411500   4.000   1.476   4.685
 2868SOL     OW11501   3.329   2.833   4.460
 2868SOL    HW211502   3.293   2.748   4.485
 2868SOL    HW311503   3.363   2.820   4.372
 2868SOL    MW411504   3.329   2.820   4.452
 2869SOL     OW11505   4.126   2.144   4.253
 2869SOL    HW211506   4.067   2.094   4.197
 2869SOL    HW311507   4.187   2.079   4.288
 2869SOL    MW411508   4.126   2.129   4.250
 2870SOL     OW11509   4.442   2.239   4.550
 2870SOL    HW211510   4.354   2.276   4.560
 2870SOL    HW311511   4.493   2.310   4.511
 2870SOL    MW411512   4.437   2.254   4.546
 2871SOL     OW11513   3.981   2.215   4.490
 2871SOL    HW211514   4.008   2.142   4.544
 2871SOL    HW311515   4.034   2.207   4.410
 2871SOL    MW411516   3.992   2.205   4.486
 2872SOL     OW11517   3.412   2.444   4.582
 2872SOL    HW211518   3.334   2.497   4.567
 2872SOL    HW311519   3.382   2.354   4.577
 2872SOL    MW411520   3.398   2.439   4.579
 2873SOL     OW11521   0.474   2.663   4.541
 2873SOL    HW211522   0.430   2.580   4.522
 2873SOL    HW311523   0.404   2.721   4.571
 2873SOL    MW411524   0.459   2.660   4.542
 2874SOL     OW11525   4.111   2.913   4.437
 2874SOL    HW211526   4.192   2.944   4.479
 2874SOL    HW311527   4.130   2.915   4.344
 2874SOL    MW411528   4.125   2.918   4.430
 2875SOL     OW11529   0.092   2.777   4.460
 2875SOL    HW211530   0.146   2.775   4.381
 2875SOL    HW311531   0.153   2.796   4.531
 2875SOL    MW411532   0.107   2.779   4.459
 2876SOL     OW11533   0.249   3.642   4.540
 2876SOL    HW211534   0.327   3.693   4.562
 2876SOL    HW311535   0.253   3.631   4.445
 2876SOL    MW411536   0.260   3.647   4.531
 2877SOL     OW11537   3.767   4.631   4.680
 2877SOL    HW211538   3.748   4.672   4.764
 2877SOL    HW311539   3.691   4.653   4.625
 2877SOL    MW411540   3.754   4.639   4.684
 2878SOL     OW11541   4.353   4.326   4.559
 2878SOL    HW211542   4.340   4.421   4.556
 2878SOL    HW311543   4.272   4.292   4.595
 2878SOL    MW411544   4.341   4.334   4.563
 2879SOL     OW11545   4.012   3.433   4.637
 2879SOL    HW211546   3.948   3.476   4.579
 2879SOL    HW311547   4.072   3.389   4.577
 2879SOL    MW411548   4.011   3.433   4.621
 2880SOL     OW11549   2.505   0.521   4.507
 2880SOL    HW211550   2.598   0.542   4.495
 2880SOL    HW311551   2.475   0.498   4.419
 2880SOL    MW411552   2.513   0.521   4.494
 2881SOL     OW11553   4.276   4.360   4.252
 2881SOL    HW211554   4.346   4.310   4.210
 2881SOL    HW311555   4.294   4.354   4.345
 2881SOL    MW411556   4.288   4.353   4.259
 2882NA      NA11557   2.707   4.231   0.640
 2883NA      NA11558   0.674   2.138   0.349
   4.49070   4.66690  10.00000
