Gromacs Runs On Most of All Computer Systems in water t= 200.00000 step= 200000
11558
    1RG35     P    1   2.169   2.846   4.449
    1RG35   O1P    2   2.216   2.760   4.341
    1RG35   O2P    3   2.048   2.919   4.416
    1RG35   O5'    4   2.134   2.751   4.569
    1RG35   C5'    5   2.073   2.797   4.686
    1RG35  H5'1    6   1.971   2.821   4.655
    1RG35  H5'2    7   2.131   2.882   4.723
    1RG35   C4'    8   2.063   2.693   4.801
    1RG35   H4'    9   1.996   2.724   4.881
    1RG35   O4'   10   1.998   2.579   4.745
    1RG35   C1'   11   2.088   2.471   4.734
    1RG35   H1'   12   2.066   2.408   4.820
    1RG35    N9   13   2.060   2.395   4.614
    1RG35    C8   14   2.044   2.441   4.486
    1RG35    H8   15   2.073   2.541   4.456
    1RG35    N7   16   1.985   2.350   4.410
    1RG35    C5   17   1.962   2.243   4.491
    1RG35    C6   18   1.901   2.119   4.459
    1RG35    O6   19   1.847   2.077   4.356
    1RG35    N1   20   1.899   2.032   4.568
    1RG35    H1   21   1.864   1.938   4.552
    1RG35    C2   22   1.942   2.067   4.688
    1RG35    N2   23   1.970   1.965   4.775
    1RG35   H21   24   1.973   1.867   4.753
    1RG35   H22   25   2.021   2.004   4.852
    1RG35    N3   26   1.994   2.177   4.723
    1RG35    C4   27   2.007   2.265   4.613
    1RG35   C3'   28   2.198   2.645   4.845
    1RG35   H3'   29   2.275   2.720   4.826
    1RG35   C2'   30   2.230   2.523   4.748
    1RG35  H2'1   31   2.266   2.564   4.654
    1RG35   O2'   32   2.315   2.416   4.785
    1RG35  HO'2   33   2.396   2.424   4.734
    1RG35   O3'   34   2.191   2.595   4.974
    1RG35   H3T   35   2.260   2.530   4.989
    1RG35   O3P   36   2.279   2.930   4.507
    2SOL     OW   37   0.469   0.051   0.499
    2SOL    HW2   38   0.479  -0.037   0.464
    2SOL    HW3   39   0.551   0.096   0.475
    2SOL    MW4   40   0.481   0.046   0.491
    3SOL     OW   41   4.060   0.201   0.483
    3SOL    HW2   42   4.140   0.239   0.447
    3SOL    HW3   43   4.066   0.108   0.463
    3SOL    MW4   44   4.071   0.194   0.475
    4SOL     OW   45   3.804   0.571   0.512
    4SOL    HW2   46   3.732   0.630   0.489
    4SOL    HW3   47   3.798   0.561   0.607
    4SOL    MW4   48   3.793   0.578   0.522
    5SOL     OW   49   0.084   1.669   0.536
    5SOL    HW2   50   0.087   1.674   0.631
    5SOL    HW3   51   0.025   1.596   0.517
    5SOL    MW4   52   0.077   1.660   0.546
    6SOL     OW   53   1.435   0.846   0.489
    6SOL    HW2   54   1.409   0.868   0.579
    6SOL    HW3   55   1.352   0.835   0.443
    6SOL    MW4   56   1.420   0.848   0.495
    7SOL     OW   57   0.257   0.482   0.517
    7SOL    HW2   58   0.258   0.483   0.612
    7SOL    HW3   59   0.263   0.390   0.493
    7SOL    MW4   60   0.258   0.470   0.526
    8SOL     OW   61   0.474   0.921   0.469
    8SOL    HW2   62   0.472   0.902   0.562
    8SOL    HW3   63   0.457   0.837   0.427
    8SOL    MW4   64   0.471   0.908   0.475
    9SOL     OW   65   0.946   0.852   0.467
    9SOL    HW2   66   0.943   0.875   0.560
    9SOL    HW3   67   0.881   0.909   0.426
    9SOL    MW4   68   0.937   0.863   0.474
   10SOL     OW   69   0.741   1.013   0.354
   10SOL    HW2   70   0.715   1.017   0.262
   10SOL    HW3   71   0.665   0.975   0.399
   10SOL    MW4   72   0.728   1.008   0.348
   11SOL     OW   73   0.578   1.633   0.232
   11SOL    HW2   74   0.505   1.651   0.173
   11SOL    HW3   75   0.550   1.557   0.283
   11SOL    MW4   76   0.565   1.625   0.231
   12SOL     OW   77   4.007   2.068   0.516
   12SOL    HW2   78   3.962   2.015   0.450
   12SOL    HW3   79   3.940   2.086   0.582
   12SOL    MW4   80   3.992   2.063   0.516
   13SOL     OW   81   0.085   2.012   0.238
   13SOL    HW2   82   0.051   2.098   0.263
   13SOL    HW3   83   0.011   1.952   0.252
   13SOL    MW4   84   0.070   2.015   0.243
   14SOL     OW   85   0.334   2.337   0.504
   14SOL    HW2   86   0.271   2.409   0.506
   14SOL    HW3   87   0.281   2.259   0.490
   14SOL    MW4   88   0.319   2.337   0.502
   15SOL     OW   89   0.103   2.704   0.480
   15SOL    HW2   90   0.191   2.725   0.450
   15SOL    HW3   91   0.049   2.777   0.451
   15SOL    MW4   92   0.107   2.716   0.472
   16SOL     OW   93   4.142   3.304   0.462
   16SOL    HW2   94   4.067   3.247   0.477
   16SOL    HW3   95   4.217   3.244   0.458
   16SOL    MW4   96   4.142   3.289   0.463
   17SOL     OW   97   4.442   2.912   0.387
   17SOL    HW2   98   4.444   2.901   0.291
   17SOL    HW3   99   4.363   2.866   0.415
   17SOL    MW4  100   4.432   2.904   0.378
   18SOL     OW  101   0.341   3.464   0.331
   18SOL    HW2  102   0.399   3.399   0.372
   18SOL    HW3  103   0.400   3.533   0.300
   18SOL    MW4  104   0.356   3.464   0.333
   19SOL     OW  105   0.500   3.705   0.308
   19SOL    HW2  106   0.567   3.727   0.244
   19SOL    HW3  107   0.487   3.786   0.358
   19SOL    MW4  108   0.507   3.718   0.306
   20SOL     OW  109   3.841   3.535   0.472
   20SOL    HW2  110   3.827   3.572   0.559
   20SOL    HW3  111   3.934   3.513   0.470
   20SOL    MW4  112   3.851   3.537   0.483
   21SOL     OW  113   4.419   3.844   0.313
   21SOL    HW2  114   4.372   3.834   0.395
   21SOL    HW3  115   4.510   3.860   0.338
   21SOL    MW4  116   4.425   3.845   0.327
   22SOL     OW  117   4.468   4.522   0.518
   22SOL    HW2  118   4.392   4.476   0.483
   22SOL    HW3  119   4.462   4.509   0.612
   22SOL    MW4  120   4.457   4.514   0.526
   23SOL     OW  121   4.227   4.387   0.436
   23SOL    HW2  122   4.254   4.306   0.391
   23SOL    HW3  123   4.233   4.365   0.529
   23SOL    MW4  124   4.231   4.373   0.442
   24SOL     OW  125   4.282   4.128   0.342
   24SOL    HW2  126   4.309   4.059   0.281
   24SOL    HW3  127   4.197   4.099   0.375
   24SOL    MW4  128   4.275   4.115   0.338
   25SOL     OW  129   0.456   3.249   0.473
   25SOL    HW2  130   0.432   3.265   0.564
   25SOL    HW3  131   0.551   3.258   0.471
   25SOL    MW4  132   0.465   3.252   0.484
   26SOL     OW  133   0.443   4.450   0.375
   26SOL    HW2  134   0.370   4.393   0.400
   26SOL    HW3  135   0.432   4.464   0.281
   26SOL    MW4  136   0.432   4.444   0.366
   27SOL     OW  137   0.252   0.212   0.459
   27SOL    HW2  138   0.172   0.159   0.461
   27SOL    HW3  139   0.322   0.147   0.452
   27SOL    MW4  140   0.250   0.196   0.458
   28SOL     OW  141   0.060   0.672   0.445
   28SOL    HW2  142   0.124   0.740   0.424
   28SOL    HW3  143   0.113   0.595   0.465
   28SOL    MW4  144   0.076   0.671   0.445
   29SOL     OW  145   0.919   4.453   0.415
   29SOL    HW2  146   0.992   4.391   0.416
   29SOL    HW3  147   0.847   4.406   0.457
   29SOL    MW4  148   0.919   4.438   0.421
   30SOL     OW  149   1.199   0.821   0.348
   30SOL    HW2  150   1.181   0.728   0.359
   30SOL    HW3  151   1.121   0.865   0.383
   30SOL    MW4  152   1.187   0.815   0.354
   31SOL     OW  153   0.663   0.488   0.492
   31SOL    HW2  154   0.744   0.524   0.457
   31SOL    HW3  155   0.676   0.393   0.490
   31SOL    MW4  156   0.675   0.480   0.487
   32SOL     OW  157   0.370   1.166   0.413
   32SOL    HW2  158   0.276   1.149   0.421
   32SOL    HW3  159   0.412   1.082   0.435
   32SOL    MW4  160   0.363   1.153   0.417
   33SOL     OW  161   0.476   1.894   0.444
   33SOL    HW2  162   0.568   1.869   0.429
   33SOL    HW3  163   0.434   1.812   0.469
   33SOL    MW4  164   0.483   1.880   0.446
   34SOL     OW  165   0.409   1.981   0.173
   34SOL    HW2  166   0.416   1.938   0.258
   34SOL    HW3  167   0.315   1.994   0.161
   34SOL    MW4  168   0.397   1.977   0.183
   35SOL     OW  169   0.771   2.731   0.362
   35SOL    HW2  170   0.852   2.691   0.394
   35SOL    HW3  171   0.782   2.824   0.382
   35SOL    MW4  172   0.784   2.738   0.369
   36SOL     OW  173   0.573   2.542   0.202
   36SOL    HW2  174   0.598   2.540   0.110
   36SOL    HW3  175   0.637   2.601   0.243
   36SOL    MW4  176   0.585   2.550   0.195
   37SOL     OW  177   3.973   2.305   0.364
   37SOL    HW2  178   3.980   2.228   0.420
   37SOL    HW3  179   4.017   2.375   0.412
   37SOL    MW4  180   3.979   2.304   0.377
   38SOL     OW  181   1.174   2.815   0.510
   38SOL    HW2  182   1.114   2.888   0.500
   38SOL    HW3  183   1.118   2.738   0.522
   38SOL    MW4  184   1.159   2.814   0.510
   39SOL     OW  185   0.544   2.572   0.506
   39SOL    HW2  186   0.466   2.611   0.467
   39SOL    HW3  187   0.617   2.618   0.465
   39SOL    MW4  188   0.544   2.583   0.496
   40SOL     OW  189   4.414   3.186   0.451
   40SOL    HW2  190   4.457   3.245   0.389
   40SOL    HW3  191   4.438   3.098   0.421
   40SOL    MW4  192   4.423   3.182   0.439
   41SOL     OW  193   0.350   2.716   0.372
   41SOL    HW2  194   0.366   2.690   0.282
   41SOL    HW3  195   0.388   2.804   0.379
   41SOL    MW4  196   0.357   2.724   0.361
   42SOL     OW  197   0.776   0.383   0.204
   42SOL    HW2  198   0.720   0.441   0.152
   42SOL    HW3  199   0.831   0.443   0.255
   42SOL    MW4  200   0.776   0.399   0.204
   43SOL     OW  201   0.184   3.617   0.513
   43SOL    HW2  202   0.189   3.709   0.488
   43SOL    HW3  203   0.251   3.574   0.460
   43SOL    MW4  204   0.194   3.623   0.503
   44SOL     OW  205   0.669   3.572   0.475
   44SOL    HW2  206   0.606   3.621   0.422
   44SOL    HW3  207   0.655   3.602   0.564
   44SOL    MW4  208   0.659   3.582   0.480
   45SOL     OW  209   1.177   3.614   0.454
   45SOL    HW2  210   1.088   3.621   0.419
   45SOL    HW3  211   1.207   3.528   0.426
   45SOL    MW4  212   1.169   3.604   0.446
   46SOL     OW  213   0.207   4.346   0.492
   46SOL    HW2  214   0.137   4.410   0.478
   46SOL    HW3  215   0.162   4.264   0.510
   46SOL    MW4  216   0.192   4.344   0.493
   47SOL     OW  217   0.909   3.676   0.365
   47SOL    HW2  218   0.870   3.743   0.309
   47SOL    HW3  219   0.837   3.646   0.420
   47SOL    MW4  220   0.894   3.681   0.365
   48SOL     OW  221   0.669   4.328   0.502
   48SOL    HW2  222   0.588   4.370   0.472
   48SOL    HW3  223   0.676   4.353   0.594
   48SOL    MW4  224   0.659   4.337   0.510
   49SOL     OW  225   0.703   0.205   0.444
   49SOL    HW2  226   0.784   0.154   0.453
   49SOL    HW3  227   0.710   0.244   0.357
   49SOL    MW4  228   0.715   0.203   0.433
   50SOL     OW  229   0.897   0.591   0.406
   50SOL    HW2  230   0.898   0.686   0.422
   50SOL    HW3  231   0.974   0.558   0.451
   50SOL    MW4  232   0.907   0.599   0.414
   51SOL     OW  233   0.450   0.660   0.385
   51SOL    HW2  234   0.381   0.608   0.426
   51SOL    HW3  235   0.531   0.612   0.405
   51SOL    MW4  236   0.452   0.646   0.393
   52SOL     OW  237   1.403   0.559   0.517
   52SOL    HW2  238   1.428   0.651   0.528
   52SOL    HW3  239   1.440   0.515   0.593
   52SOL    MW4  240   1.411   0.566   0.529
   53SOL     OW  241   1.798   0.649   0.316
   53SOL    HW2  242   1.760   0.729   0.355
   53SOL    HW3  243   1.819   0.674   0.226
   53SOL    MW4  244   1.796   0.663   0.310
   54SOL     OW  245   1.703   0.887   0.448
   54SOL    HW2  246   1.608   0.875   0.453
   54SOL    HW3  247   1.732   0.896   0.539
   54SOL    MW4  248   1.695   0.887   0.460
   55SOL     OW  249   0.505   1.407   0.401
   55SOL    HW2  250   0.597   1.390   0.419
   55SOL    HW3  251   0.461   1.323   0.413
   55SOL    MW4  252   0.511   1.394   0.405
   56SOL     OW  253   0.766   1.265   0.484
   56SOL    HW2  254   0.758   1.182   0.436
   56SOL    HW3  255   0.858   1.290   0.472
   56SOL    MW4  256   0.777   1.257   0.476
   57SOL     OW  257   1.306   1.383   0.428
   57SOL    HW2  258   1.288   1.473   0.455
   57SOL    HW3  259   1.346   1.391   0.341
   57SOL    MW4  260   1.309   1.396   0.420
   58SOL     OW  261   1.033   1.386   0.481
   58SOL    HW2  262   1.121   1.386   0.445
   58SOL    HW3  263   1.000   1.474   0.462
   58SOL    MW4  264   1.040   1.398   0.474
   59SOL     OW  265   0.970   1.663   0.520
   59SOL    HW2  266   1.064   1.671   0.505
   59SOL    HW3  267   0.962   1.647   0.614
   59SOL    MW4  268   0.981   1.662   0.531
   60SOL     OW  269   0.250   2.063   0.469
   60SOL    HW2  270   0.205   2.030   0.391
   60SOL    HW3  271   0.334   2.016   0.469
   60SOL    MW4  272   0.255   2.052   0.459
   61SOL     OW  273   0.738   1.808   0.387
   61SOL    HW2  274   0.683   1.750   0.335
   61SOL    HW3  275   0.800   1.750   0.432
   61SOL    MW4  276   0.739   1.793   0.386
   62SOL     OW  277   0.796   2.363   0.418
   62SOL    HW2  278   0.862   2.297   0.396
   62SOL    HW3  279   0.813   2.382   0.511
   62SOL    MW4  280   0.807   2.356   0.428
   63SOL     OW  281   0.629   2.134   0.515
   63SOL    HW2  282   0.705   2.137   0.457
   63SOL    HW3  283   0.574   2.065   0.479
   63SOL    MW4  284   0.632   2.126   0.503
   64SOL     OW  285   0.990   2.612   0.486
   64SOL    HW2  286   1.043   2.540   0.454
   64SOL    HW3  287   0.927   2.572   0.545
   64SOL    MW4  288   0.989   2.597   0.489
   65SOL     OW  289   0.578   2.194   0.193
   65SOL    HW2  290   0.659   2.144   0.189
   65SOL    HW3  291   0.510   2.132   0.169
   65SOL    MW4  292   0.580   2.179   0.190
   66SOL     OW  293   0.484   2.976   0.473
   66SOL    HW2  294   0.460   3.068   0.481
   66SOL    HW3  295   0.505   2.949   0.563
   66SOL    MW4  296   0.484   2.984   0.486
   67SOL     OW  297   0.721   3.300   0.466
   67SOL    HW2  298   0.779   3.285   0.540
   67SOL    HW3  299   0.720   3.395   0.455
   67SOL    MW4  300   0.728   3.310   0.474
   68SOL     OW  301   2.072   3.715   0.268
   68SOL    HW2  302   2.066   3.646   0.334
   68SOL    HW3  303   2.099   3.669   0.188
   68SOL    MW4  304   2.075   3.700   0.266
   69SOL     OW  305   0.682   4.057   0.468
   69SOL    HW2  306   0.652   4.147   0.478
   69SOL    HW3  307   0.753   4.048   0.533
   69SOL    MW4  308   0.688   4.068   0.478
   70SOL     OW  309   0.459   3.908   0.507
   70SOL    HW2  310   0.436   3.918   0.599
   70SOL    HW3  311   0.533   3.969   0.494
   70SOL    MW4  312   0.466   3.918   0.517
   71SOL     OW  313   1.082   4.253   0.540
   71SOL    HW2  314   1.032   4.183   0.584
   71SOL    HW3  315   1.092   4.321   0.606
   71SOL    MW4  316   1.076   4.252   0.554
   72SOL     OW  317   1.137   0.469   0.493
   72SOL    HW2  318   1.136   0.381   0.456
   72SOL    HW3  319   1.230   0.494   0.494
   72SOL    MW4  320   1.149   0.461   0.488
   73SOL     OW  321   0.944   0.053   0.476
   73SOL    HW2  322   0.942  -0.042   0.467
   73SOL    HW3  323   0.958   0.068   0.570
   73SOL    MW4  324   0.946   0.043   0.487
   74SOL     OW  325   1.332   0.089   0.474
   74SOL    HW2  326   1.254   0.119   0.426
   74SOL    HW3  327   1.393   0.164   0.470
   74SOL    MW4  328   1.330   0.103   0.467
   75SOL     OW  329   1.921   0.053   0.219
   75SOL    HW2  330   1.829   0.073   0.207
   75SOL    HW3  331   1.923  -0.014   0.288
   75SOL    MW4  332   1.909   0.046   0.227
   76SOL     OW  333   1.124   0.222   0.348
   76SOL    HW2  334   1.059   0.159   0.379
   76SOL    HW3  335   1.116   0.219   0.252
   76SOL    MW4  336   1.115   0.213   0.339
   77SOL     OW  337   2.032   0.527   0.406
   77SOL    HW2  338   1.952   0.565   0.371
   77SOL    HW3  339   2.021   0.432   0.396
   77SOL    MW4  340   2.020   0.519   0.400
   78SOL     OW  341   2.591   0.807   0.534
   78SOL    HW2  342   2.588   0.730   0.591
   78SOL    HW3  343   2.501   0.822   0.508
   78SOL    MW4  344   2.579   0.799   0.538
   79SOL     OW  345   1.994   1.271   0.525
   79SOL    HW2  346   1.911   1.228   0.503
   79SOL    HW3  347   1.994   1.350   0.472
   79SOL    MW4  348   1.983   1.276   0.515
   80SOL     OW  349   1.781   1.150   0.421
   80SOL    HW2  350   1.766   1.055   0.429
   80SOL    HW3  351   1.694   1.186   0.402
   80SOL    MW4  352   1.767   1.142   0.420
   81SOL     OW  353   1.488   1.176   0.475
   81SOL    HW2  354   1.443   1.094   0.490
   81SOL    HW3  355   1.418   1.240   0.459
   81SOL    MW4  356   1.473   1.174   0.475
   82SOL     OW  357   1.232   1.660   0.457
   82SOL    HW2  358   1.270   1.666   0.545
   82SOL    HW3  359   1.258   1.741   0.414
   82SOL    MW4  360   1.240   1.672   0.463
   83SOL     OW  361   1.124   2.371   0.398
   83SOL    HW2  362   1.210   2.414   0.404
   83SOL    HW3  363   1.141   2.279   0.418
   83SOL    MW4  364   1.138   2.365   0.401
   84SOL     OW  365   1.447   2.759   0.466
   84SOL    HW2  366   1.354   2.784   0.470
   84SOL    HW3  367   1.475   2.757   0.558
   84SOL    MW4  368   1.438   2.762   0.479
   85SOL     OW  369   1.909   2.071   0.362
   85SOL    HW2  370   1.974   2.014   0.402
   85SOL    HW3  371   1.952   2.156   0.354
   85SOL    MW4  372   1.923   2.074   0.366
   86SOL     OW  373   1.540   2.081   0.460
   86SOL    HW2  374   1.557   2.170   0.427
   86SOL    HW3  375   1.584   2.024   0.398
   86SOL    MW4  376   1.548   2.085   0.448
   87SOL     OW  377   0.842   2.080   0.361
   87SOL    HW2  378   0.937   2.084   0.373
   87SOL    HW3  379   0.820   1.988   0.376
   87SOL    MW4  380   0.852   2.068   0.365
   88SOL     OW  381   0.758   3.016   0.394
   88SOL    HW2  382   0.679   3.002   0.447
   88SOL    HW3  383   0.745   3.102   0.353
   88SOL    MW4  384   0.746   3.025   0.396
   89SOL     OW  385   2.027   2.314   0.329
   89SOL    HW2  386   1.998   2.349   0.245
   89SOL    HW3  387   2.121   2.333   0.331
   89SOL    MW4  388   2.036   2.321   0.318
   90SOL     OW  389   1.655   0.096   0.262
   90SOL    HW2  390   1.597   0.157   0.307
   90SOL    HW3  391   1.599   0.023   0.236
   90SOL    MW4  392   1.640   0.094   0.265
   91SOL     OW  393   1.356   3.836   0.418
   91SOL    HW2  394   1.278   3.784   0.437
   91SOL    HW3  395   1.332   3.925   0.443
   91SOL    MW4  396   1.342   3.841   0.424
   92SOL     OW  397   1.660   2.807   0.302
   92SOL    HW2  398   1.628   2.822   0.213
   92SOL    HW3  399   1.581   2.798   0.355
   92SOL    MW4  400   1.645   2.808   0.297
   93SOL     OW  401   1.413   3.742   0.151
   93SOL    HW2  402   1.399   3.786   0.235
   93SOL    HW3  403   1.372   3.656   0.162
   93SOL    MW4  404   1.406   3.737   0.164
   94SOL     OW  405   1.318   3.153   0.516
   94SOL    HW2  406   1.358   3.068   0.499
   94SOL    HW3  407   1.225   3.140   0.493
   94SOL    MW4  408   1.311   3.140   0.510
   95SOL     OW  409   2.305   3.818   0.346
   95SOL    HW2  410   2.223   3.786   0.308
   95SOL    HW3  411   2.359   3.740   0.357
   95SOL    MW4  412   2.301   3.804   0.342
   96SOL     OW  413   0.769   3.896   0.245
   96SOL    HW2  414   0.759   3.949   0.325
   96SOL    HW3  415   0.839   3.940   0.196
   96SOL    MW4  416   0.777   3.909   0.249
   97SOL     OW  417   1.817   4.522   0.441
   97SOL    HW2  418   1.732   4.554   0.412
   97SOL    HW3  419   1.808   4.427   0.442
   97SOL    MW4  420   1.805   4.513   0.437
   98SOL     OW  421   1.833   4.664   0.679
   98SOL    HW2  422   1.756   4.634   0.728
   98SOL    HW3  423   1.835   4.608   0.601
   98SOL    MW4  424   1.823   4.652   0.675
   99SOL     OW  425   1.955   0.266   0.395
   99SOL    HW2  426   1.870   0.259   0.438
   99SOL    HW3  427   1.950   0.204   0.322
   99SOL    MW4  428   1.943   0.257   0.391
  100SOL     OW  429   1.300   4.113   0.485
  100SOL    HW2  430   1.214   4.154   0.489
  100SOL    HW3  431   1.357   4.181   0.448
  100SOL    MW4  432   1.296   4.127   0.481
  101SOL     OW  433   2.299   0.597   0.459
  101SOL    HW2  434   2.208   0.589   0.430
  101SOL    HW3  435   2.318   0.691   0.454
  101SOL    MW4  436   2.289   0.609   0.455
  102SOL     OW  437   1.674   1.891   0.319
  102SOL    HW2  438   1.708   1.840   0.393
  102SOL    HW3  439   1.739   1.960   0.306
  102SOL    MW4  440   1.687   1.894   0.327
  103SOL     OW  441   2.226   1.100   0.535
  103SOL    HW2  442   2.295   1.149   0.492
  103SOL    HW3  443   2.155   1.164   0.547
  103SOL    MW4  444   2.225   1.115   0.531
  104SOL     OW  445   2.442   1.257   0.462
  104SOL    HW2  446   2.538   1.248   0.462
  104SOL    HW3  447   2.426   1.343   0.425
  104SOL    MW4  448   2.453   1.267   0.457
  105SOL     OW  449   2.169   1.653   0.446
  105SOL    HW2  450   2.144   1.745   0.459
  105SOL    HW3  451   2.093   1.614   0.404
  105SOL    MW4  452   2.156   1.660   0.442
  106SOL     OW  453   1.769   1.716   0.523
  106SOL    HW2  454   1.819   1.729   0.604
  106SOL    HW3  455   1.704   1.650   0.546
  106SOL    MW4  456   1.767   1.709   0.537
  107SOL     OW  457   1.324   1.900   0.373
  107SOL    HW2  458   1.369   1.952   0.439
  107SOL    HW3  459   1.389   1.886   0.304
  107SOL    MW4  460   1.338   1.905   0.373
  108SOL     OW  461   2.310   2.333   0.426
  108SOL    HW2  462   2.386   2.383   0.397
  108SOL    HW3  463   2.270   2.386   0.494
  108SOL    MW4  464   2.314   2.346   0.431
  109SOL     OW  465   1.817   3.339   0.492
  109SOL    HW2  466   1.755   3.369   0.427
  109SOL    HW3  467   1.895   3.394   0.479
  109SOL    MW4  468   1.819   3.350   0.482
  110SOL     OW  469   1.019   3.086   0.509
  110SOL    HW2  470   1.000   3.147   0.580
  110SOL    HW3  471   0.937   3.079   0.461
  110SOL    MW4  472   1.005   3.093   0.512
  111SOL     OW  473   1.631   3.449   0.333
  111SOL    HW2  474   1.672   3.481   0.253
  111SOL    HW3  475   1.617   3.528   0.386
  111SOL    MW4  476   1.634   3.464   0.330
  112SOL     OW  477   1.115   2.100   0.452
  112SOL    HW2  478   1.142   2.085   0.543
  112SOL    HW3  479   1.163   2.034   0.402
  112SOL    MW4  480   1.125   2.089   0.458
  113SOL     OW  481   3.634   1.785   0.287
  113SOL    HW2  482   3.656   1.818   0.374
  113SOL    HW3  483   3.652   1.691   0.291
  113SOL    MW4  484   3.639   1.777   0.299
  114SOL     OW  485   1.814   2.454   0.457
  114SOL    HW2  486   1.888   2.402   0.426
  114SOL    HW3  487   1.841   2.545   0.444
  114SOL    MW4  488   1.827   2.459   0.451
  115SOL     OW  489   1.404   2.493   0.465
  115SOL    HW2  490   1.474   2.456   0.412
  115SOL    HW3  491   1.423   2.586   0.470
  115SOL    MW4  492   1.416   2.500   0.458
  116SOL     OW  493   1.338   3.393   0.360
  116SOL    HW2  494   1.431   3.393   0.340
  116SOL    HW3  495   1.325   3.318   0.418
  116SOL    MW4  496   1.348   3.383   0.365
  117SOL     OW  497   2.226   3.300   0.458
  117SOL    HW2  498   2.157   3.242   0.425
  117SOL    HW3  499   2.234   3.278   0.551
  117SOL    MW4  500   2.218   3.289   0.466
  118SOL     OW  501   1.788   4.105   0.452
  118SOL    HW2  502   1.786   4.017   0.415
  118SOL    HW3  503   1.874   4.140   0.429
  118SOL    MW4  504   1.799   4.098   0.444
  119SOL     OW  505   1.578   3.676   0.489
  119SOL    HW2  506   1.507   3.736   0.467
  119SOL    HW3  507   1.658   3.728   0.478
  119SOL    MW4  508   1.579   3.691   0.484
  120SOL     OW  509   1.571   4.288   0.434
  120SOL    HW2  510   1.589   4.306   0.526
  120SOL    HW3  511   1.618   4.206   0.416
  120SOL    MW4  512   1.580   4.280   0.444
  121SOL     OW  513   1.518   4.555   0.402
  121SOL    HW2  514   1.449   4.603   0.447
  121SOL    HW3  515   1.498   4.463   0.417
  121SOL    MW4  516   1.506   4.549   0.410
  122SOL     OW  517   2.210   4.582   0.560
  122SOL    HW2  518   2.293   4.541   0.582
  122SOL    HW3  519   2.144   4.530   0.606
  122SOL    MW4  520   2.212   4.570   0.569
  123SOL     OW  521   2.204   0.189   0.530
  123SOL    HW2  522   2.200   0.094   0.534
  123SOL    HW3  523   2.125   0.214   0.482
  123SOL    MW4  524   2.193   0.180   0.524
  124SOL     OW  525   2.825   1.490   0.409
  124SOL    HW2  526   2.755   1.555   0.416
  124SOL    HW3  527   2.783   1.407   0.432
  124SOL    MW4  528   2.811   1.487   0.413
  125SOL     OW  529   2.973   0.574   0.295
  125SOL    HW2  530   2.906   0.642   0.307
  125SOL    HW3  531   3.053   0.623   0.273
  125SOL    MW4  532   2.975   0.590   0.293
  126SOL     OW  533   2.351   0.863   0.462
  126SOL    HW2  534   2.392   0.890   0.379
  126SOL    HW3  535   2.290   0.934   0.483
  126SOL    MW4  536   2.348   0.876   0.454
  127SOL     OW  537   2.725   1.243   0.489
  127SOL    HW2  538   2.763   1.178   0.430
  127SOL    HW3  539   2.782   1.242   0.566
  127SOL    MW4  540   2.738   1.235   0.492
  128SOL     OW  541   2.597   1.688   0.468
  128SOL    HW2  542   2.605   1.783   0.465
  128SOL    HW3  543   2.605   1.666   0.561
  128SOL    MW4  544   2.599   1.698   0.480
  129SOL     OW  545   3.074   1.888   0.441
  129SOL    HW2  546   3.102   1.950   0.509
  129SOL    HW3  547   3.154   1.868   0.392
  129SOL    MW4  548   3.088   1.893   0.444
  130SOL     OW  549   2.985   4.542   0.495
  130SOL    HW2  550   3.022   4.628   0.514
  130SOL    HW3  551   2.968   4.503   0.581
  130SOL    MW4  552   2.987   4.548   0.509
  131SOL     OW  553   2.114   1.921   0.529
  131SOL    HW2  554   2.073   1.956   0.609
  131SOL    HW3  555   2.193   1.975   0.518
  131SOL    MW4  556   2.119   1.933   0.538
  132SOL     OW  557   1.590   1.537   0.638
  132SOL    HW2  558   1.623   1.583   0.714
  132SOL    HW3  559   1.502   1.572   0.625
  132SOL    MW4  560   1.582   1.548   0.646
  133SOL     OW  561   2.346   2.071   0.497
  133SOL    HW2  562   2.338   2.164   0.479
  133SOL    HW3  563   2.414   2.040   0.437
  133SOL    MW4  564   2.354   2.079   0.487
  134SOL     OW  565   2.579   1.973   0.377
  134SOL    HW2  566   2.583   1.960   0.282
  134SOL    HW3  567   2.661   2.017   0.399
  134SOL    MW4  568   2.590   1.977   0.367
  135SOL     OW  569   2.636   2.813   0.482
  135SOL    HW2  570   2.651   2.906   0.464
  135SOL    HW3  571   2.575   2.813   0.556
  135SOL    MW4  572   2.630   2.825   0.489
  136SOL     OW  573   1.600   2.352   0.315
  136SOL    HW2  574   1.643   2.356   0.230
  136SOL    HW3  575   1.666   2.381   0.377
  136SOL    MW4  576   1.614   2.356   0.312
  137SOL     OW  577   1.895   2.721   0.427
  137SOL    HW2  578   1.910   2.780   0.501
  137SOL    HW3  579   1.818   2.758   0.383
  137SOL    MW4  580   1.887   2.734   0.430
  138SOL     OW  581   2.293   4.057   0.485
  138SOL    HW2  582   2.370   4.108   0.461
  138SOL    HW3  583   2.305   3.973   0.441
  138SOL    MW4  584   2.305   4.052   0.476
  139SOL     OW  585   2.631   4.209   0.219
  139SOL    HW2  586   2.611   4.115   0.217
  139SOL    HW3  587   2.650   4.231   0.127
  139SOL    MW4  588   2.630   4.199   0.206
  140SOL     OW  589   1.792   3.833   0.350
  140SOL    HW2  590   1.755   3.779   0.280
  140SOL    HW3  591   1.885   3.809   0.352
  140SOL    MW4  592   1.799   3.823   0.341
  141SOL     OW  593   2.042   3.505   0.449
  141SOL    HW2  594   2.107   3.436   0.445
  141SOL    HW3  595   2.055   3.546   0.534
  141SOL    MW4  596   2.052   3.502   0.460
  142SOL     OW  597   2.220   4.421   0.328
  142SOL    HW2  598   2.224   4.459   0.240
  142SOL    HW3  599   2.222   4.497   0.387
  142SOL    MW4  600   2.221   4.436   0.324
  143SOL     OW  601   2.050   4.225   0.441
  143SOL    HW2  602   2.119   4.159   0.442
  143SOL    HW3  603   2.082   4.293   0.382
  143SOL    MW4  604   2.063   4.226   0.434
  144SOL     OW  605   3.087   0.140   0.510
  144SOL    HW2  606   3.068   0.232   0.490
  144SOL    HW3  607   3.131   0.143   0.595
  144SOL    MW4  608   3.090   0.153   0.519
  145SOL     OW  609   2.532   3.919   0.209
  145SOL    HW2  610   2.599   3.852   0.225
  145SOL    HW3  611   2.460   3.894   0.267
  145SOL    MW4  612   2.531   3.907   0.219
  146SOL     OW  613   2.452   4.287   0.437
  146SOL    HW2  614   2.376   4.323   0.391
  146SOL    HW3  615   2.508   4.252   0.368
  146SOL    MW4  616   2.450   4.287   0.422
  147SOL     OW  617   2.441   0.332   0.454
  147SOL    HW2  618   2.407   0.415   0.421
  147SOL    HW3  619   2.363   0.278   0.468
  147SOL    MW4  620   2.426   0.336   0.452
  148SOL     OW  621   1.530   0.301   0.438
  148SOL    HW2  622   1.512   0.394   0.446
  148SOL    HW3  623   1.611   0.288   0.487
  148SOL    MW4  624   1.539   0.311   0.445
  149SOL     OW  625   3.221   0.733   0.303
  149SOL    HW2  626   3.212   0.821   0.338
  149SOL    HW3  627   3.289   0.741   0.235
  149SOL    MW4  628   3.229   0.745   0.298
  150SOL     OW  629   2.391   1.515   0.364
  150SOL    HW2  630   2.321   1.570   0.399
  150SOL    HW3  631   2.472   1.563   0.384
  150SOL    MW4  632   2.393   1.528   0.371
  151SOL     OW  633   2.780   0.780   0.344
  151SOL    HW2  634   2.826   0.863   0.353
  151SOL    HW3  635   2.701   0.790   0.396
  151SOL    MW4  636   2.776   0.792   0.352
  152SOL     OW  637   3.057   1.605   0.501
  152SOL    HW2  638   2.973   1.565   0.479
  152SOL    HW3  639   3.045   1.698   0.484
  152SOL    MW4  640   3.044   1.612   0.496
  153SOL     OW  641   3.485   1.381   0.309
  153SOL    HW2  642   3.482   1.298   0.355
  153SOL    HW3  643   3.396   1.415   0.314
  153SOL    MW4  644   3.473   1.375   0.316
  154SOL     OW  645   3.710   1.506   0.418
  154SOL    HW2  646   3.639   1.451   0.385
  154SOL    HW3  647   3.686   1.524   0.509
  154SOL    MW4  648   3.697   1.501   0.425
  155SOL     OW  649   2.687   0.133   0.733
  155SOL    HW2  650   2.684   0.225   0.758
  155SOL    HW3  651   2.718   0.135   0.642
  155SOL    MW4  652   2.691   0.146   0.724
  156SOL     OW  653   3.134   2.074   0.655
  156SOL    HW2  654   3.045   2.095   0.683
  156SOL    HW3  655   3.167   2.014   0.722
  156SOL    MW4  656   3.127   2.069   0.667
  157SOL     OW  657   2.769   2.361   0.398
  157SOL    HW2  658   2.853   2.407   0.391
  157SOL    HW3  659   2.792   2.269   0.410
  157SOL    MW4  660   2.783   2.355   0.399
  158SOL     OW  661   2.839   2.093   0.435
  158SOL    HW2  662   2.838   2.099   0.530
  158SOL    HW3  663   2.916   2.039   0.415
  158SOL    MW4  664   2.849   2.087   0.445
  159SOL     OW  665   2.534   2.535   0.448
  159SOL    HW2  666   2.558   2.622   0.415
  159SOL    HW3  667   2.608   2.479   0.426
  159SOL    MW4  668   2.547   2.539   0.441
  160SOL     OW  669   2.689   3.122   0.463
  160SOL    HW2  670   2.764   3.151   0.410
  160SOL    HW3  671   2.707   3.158   0.550
  160SOL    MW4  672   2.701   3.131   0.467
  161SOL     OW  673   2.930   3.250   0.359
  161SOL    HW2  674   3.021   3.219   0.357
  161SOL    HW3  675   2.935   3.335   0.402
  161SOL    MW4  676   2.943   3.257   0.364
  162SOL     OW  677   3.246   3.156   0.472
  162SOL    HW2  678   3.244   3.061   0.466
  162SOL    HW3  679   3.196   3.176   0.552
  162SOL    MW4  680   3.239   3.146   0.482
  163SOL     OW  681   2.509   3.335   0.417
  163SOL    HW2  682   2.560   3.255   0.430
  163SOL    HW3  683   2.418   3.306   0.418
  163SOL    MW4  684   2.504   3.321   0.419
  164SOL     OW  685   1.681   3.682   0.146
  164SOL    HW2  686   1.711   3.728   0.067
  164SOL    HW3  687   1.590   3.710   0.157
  164SOL    MW4  688   1.673   3.692   0.137
  165SOL     OW  689   3.565   3.783   0.303
  165SOL    HW2  690   3.610   3.791   0.387
  165SOL    HW3  691   3.624   3.823   0.240
  165SOL    MW4  692   3.579   3.789   0.306
  166SOL     OW  693   2.709   3.713   0.357
  166SOL    HW2  694   2.635   3.694   0.414
  166SOL    HW3  695   2.698   3.652   0.284
  166SOL    MW4  696   2.698   3.702   0.355
  167SOL     OW  697   2.456   3.609   0.467
  167SOL    HW2  698   2.435   3.630   0.558
  167SOL    HW3  699   2.485   3.518   0.469
  167SOL    MW4  700   2.457   3.600   0.479
  168SOL     OW  701   3.397   4.012   0.397
  168SOL    HW2  702   3.452   3.941   0.362
  168SOL    HW3  703   3.369   3.980   0.482
  168SOL    MW4  704   3.401   3.998   0.403
  169SOL     OW  705   3.194   4.353   0.475
  169SOL    HW2  706   3.154   4.266   0.468
  169SOL    HW3  707   3.121   4.414   0.467
  169SOL    MW4  708   3.179   4.349   0.473
  170SOL     OW  709   3.348   0.189   0.396
  170SOL    HW2  710   3.267   0.144   0.420
  170SOL    HW3  711   3.416   0.141   0.443
  170SOL    MW4  712   3.346   0.176   0.405
  171SOL     OW  713   3.436   4.457   0.422
  171SOL    HW2  714   3.344   4.431   0.420
  171SOL    HW3  715   3.438   4.542   0.378
  171SOL    MW4  716   3.424   4.465   0.416
  172SOL     OW  717   2.771   4.248   0.452
  172SOL    HW2  718   2.857   4.207   0.440
  172SOL    HW3  719   2.726   4.234   0.369
  172SOL    MW4  720   2.776   4.241   0.440
  173SOL     OW  721   2.678   0.182   0.422
  173SOL    HW2  722   2.594   0.228   0.430
  173SOL    HW3  723   2.726   0.232   0.356
  173SOL    MW4  724   2.673   0.195   0.415
  174SOL     OW  725   3.185   0.975   0.462
  174SOL    HW2  726   3.170   0.952   0.553
  174SOL    HW3  727   3.255   1.040   0.464
  174SOL    MW4  728   3.192   0.980   0.474
  175SOL     OW  729   3.290   0.544   0.494
  175SOL    HW2  730   3.355   0.493   0.445
  175SOL    HW3  731   3.271   0.619   0.439
  175SOL    MW4  732   3.296   0.547   0.481
  176SOL     OW  733   3.639   0.948   0.500
  176SOL    HW2  734   3.613   0.883   0.434
  176SOL    HW3  735   3.638   0.900   0.583
  176SOL    MW4  736   3.636   0.933   0.502
  177SOL     OW  737   3.031   0.421   0.519
  177SOL    HW2  738   3.124   0.445   0.522
  177SOL    HW3  739   2.996   0.467   0.443
  177SOL    MW4  740   3.039   0.430   0.510
  178SOL     OW  741   3.449   1.793   0.652
  178SOL    HW2  742   3.408   1.783   0.566
  178SOL    HW3  743   3.400   1.864   0.693
  178SOL    MW4  744   3.437   1.801   0.646
  179SOL     OW  745   3.357   1.770   0.376
  179SOL    HW2  746   3.316   1.690   0.344
  179SOL    HW3  747   3.445   1.769   0.338
  179SOL    MW4  748   3.363   1.760   0.367
  180SOL     OW  749   3.419   1.140   0.479
  180SOL    HW2  750   3.434   1.189   0.559
  180SOL    HW3  751   3.484   1.070   0.481
  180SOL    MW4  752   3.429   1.137   0.489
  181SOL     OW  753   3.918   1.850   0.349
  181SOL    HW2  754   3.863   1.850   0.270
  181SOL    HW3  755   3.858   1.825   0.419
  181SOL    MW4  756   3.903   1.847   0.348
  182SOL     OW  757   3.301   2.303   0.667
  182SOL    HW2  758   3.247   2.225   0.655
  182SOL    HW3  759   3.348   2.287   0.749
  182SOL    MW4  760   3.300   2.290   0.676
  183SOL     OW  761   3.499   2.718   0.636
  183SOL    HW2  762   3.532   2.667   0.709
  183SOL    HW3  763   3.457   2.654   0.579
  183SOL    MW4  764   3.498   2.703   0.638
  184SOL     OW  765   2.005   3.125   0.416
  184SOL    HW2  766   1.928   3.164   0.458
  184SOL    HW3  767   2.002   3.033   0.442
  184SOL    MW4  768   1.994   3.118   0.425
  185SOL     OW  769   3.282   2.644   0.347
  185SOL    HW2  770   3.324   2.665   0.264
  185SOL    HW3  771   3.338   2.577   0.386
  185SOL    MW4  772   3.295   2.638   0.341
  186SOL     OW  773   2.920   2.883   0.737
  186SOL    HW2  774   2.914   2.844   0.650
  186SOL    HW3  775   2.980   2.825   0.785
  186SOL    MW4  776   2.927   2.870   0.732
  187SOL     OW  777   3.521   0.398   0.356
  187SOL    HW2  778   3.464   0.323   0.339
  187SOL    HW3  779   3.608   0.360   0.369
  187SOL    MW4  780   3.525   0.383   0.355
  188SOL     OW  781   3.038   4.121   0.451
  188SOL    HW2  782   3.079   4.061   0.388
  188SOL    HW3  783   3.058   4.082   0.536
  188SOL    MW4  784   3.046   4.108   0.454
  189SOL     OW  785   3.327   3.603   0.617
  189SOL    HW2  786   3.360   3.520   0.584
  189SOL    HW3  787   3.263   3.579   0.684
  189SOL    MW4  788   3.323   3.589   0.622
  190SOL     OW  789   3.694   3.301   0.418
  190SOL    HW2  790   3.746   3.377   0.444
  190SOL    HW3  791   3.700   3.298   0.323
  190SOL    MW4  792   3.702   3.311   0.409
  191SOL     OW  793   3.440   3.362   0.522
  191SOL    HW2  794   3.395   3.279   0.508
  191SOL    HW3  795   3.531   3.344   0.495
  191SOL    MW4  796   3.446   3.348   0.516
  192SOL     OW  797   2.841   3.910   0.505
  192SOL    HW2  798   2.886   3.983   0.462
  192SOL    HW3  799   2.819   3.850   0.434
  192SOL    MW4  800   2.844   3.912   0.490
  193SOL     OW  801   2.690   3.444   0.213
  193SOL    HW2  802   2.622   3.410   0.272
  193SOL    HW3  803   2.768   3.394   0.236
  193SOL    MW4  804   2.691   3.433   0.224
  194SOL     OW  805   4.312   0.285   0.353
  194SOL    HW2  806   4.379   0.228   0.391
  194SOL    HW3  807   4.321   0.272   0.259
  194SOL    MW4  808   4.322   0.276   0.346
  195SOL     OW  809   3.794   0.297   0.438
  195SOL    HW2  810   3.794   0.391   0.458
  195SOL    HW3  811   3.883   0.268   0.458
  195SOL    MW4  812   3.806   0.306   0.443
  196SOL     OW  813   3.590   0.713   0.375
  196SOL    HW2  814   3.564   0.623   0.355
  196SOL    HW3  815   3.660   0.732   0.312
  196SOL    MW4  816   3.596   0.703   0.364
  197SOL     OW  817   3.805   0.772   0.226
  197SOL    HW2  818   3.848   0.853   0.252
  197SOL    HW3  819   3.875   0.706   0.228
  197SOL    MW4  820   3.820   0.774   0.229
  198SOL     OW  821   4.051   0.651   0.367
  198SOL    HW2  822   4.125   0.601   0.403
  198SOL    HW3  823   3.974   0.612   0.408
  198SOL    MW4  824   4.050   0.639   0.377
  199SOL     OW  825   4.384   0.941   0.496
  199SOL    HW2  826   4.288   0.941   0.490
  199SOL    HW3  827   4.408   0.849   0.491
  199SOL    MW4  828   4.374   0.929   0.495
  200SOL     OW  829   3.875   1.024   0.377
  200SOL    HW2  830   3.882   1.120   0.371
  200SOL    HW3  831   3.798   1.009   0.432
  200SOL    MW4  832   3.866   1.035   0.383
  201SOL     OW  833   4.147   1.712   0.428
  201SOL    HW2  834   4.082   1.773   0.394
  201SOL    HW3  835   4.231   1.751   0.404
  201SOL    MW4  836   4.149   1.725   0.421
  202SOL     OW  837   3.899   1.300   0.418
  202SOL    HW2  838   3.981   1.349   0.409
  202SOL    HW3  839   3.832   1.367   0.435
  202SOL    MW4  840   3.901   1.315   0.419
  203SOL     OW  841   3.249   1.514   0.298
  203SOL    HW2  842   3.197   1.470   0.231
  203SOL    HW3  843   3.192   1.514   0.375
  203SOL    MW4  844   3.235   1.508   0.300
  204SOL     OW  845   2.913   1.027   0.381
  204SOL    HW2  846   2.951   1.063   0.301
  204SOL    HW3  847   2.988   0.996   0.431
  204SOL    MW4  848   2.928   1.028   0.377
  205SOL     OW  849   3.762   2.458   0.470
  205SOL    HW2  850   3.804   2.395   0.412
  205SOL    HW3  851   3.767   2.418   0.557
  205SOL    MW4  852   3.768   2.444   0.474
  206SOL     OW  853   4.222   2.760   0.454
  206SOL    HW2  854   4.184   2.672   0.453
  206SOL    HW3  855   4.146   2.818   0.445
  206SOL    MW4  856   4.207   2.756   0.453
  207SOL     OW  857   3.020   2.531   0.455
  207SOL    HW2  858   3.071   2.500   0.531
  207SOL    HW3  859   3.084   2.578   0.401
  207SOL    MW4  860   3.036   2.533   0.458
  208SOL     OW  861   2.908   3.532   0.449
  208SOL    HW2  862   2.984   3.589   0.438
  208SOL    HW3  863   2.837   3.579   0.405
  208SOL    MW4  864   2.908   3.546   0.442
  209SOL     OW  865   3.195   2.872   0.471
  209SOL    HW2  866   3.250   2.803   0.433
  209SOL    HW3  867   3.108   2.835   0.475
  209SOL    MW4  868   3.191   2.858   0.467
  210SOL     OW  869   3.986   2.889   0.481
  210SOL    HW2  870   3.901   2.845   0.488
  210SOL    HW3  871   3.965   2.981   0.471
  210SOL    MW4  872   3.972   2.895   0.481
  211SOL     OW  873   3.745   2.750   0.521
  211SOL    HW2  874   3.754   2.656   0.506
  211SOL    HW3  875   3.658   2.760   0.560
  211SOL    MW4  876   3.735   2.739   0.524
  212SOL     OW  877   3.992   3.791   0.391
  212SOL    HW2  878   4.065   3.733   0.416
  212SOL    HW3  879   3.914   3.738   0.406
  212SOL    MW4  880   3.992   3.776   0.396
  213SOL     OW  881   3.464   2.481   0.486
  213SOL    HW2  882   3.426   2.412   0.540
  213SOL    HW3  883   3.559   2.465   0.491
  213SOL    MW4  884   3.472   2.470   0.494
  214SOL     OW  885   3.139   3.683   0.419
  214SOL    HW2  886   3.164   3.765   0.375
  214SOL    HW3  887   3.220   3.652   0.459
  214SOL    MW4  888   3.153   3.690   0.418
  215SOL     OW  889   4.370   3.771   0.580
  215SOL    HW2  890   4.417   3.842   0.625
  215SOL    HW3  891   4.396   3.692   0.628
  215SOL    MW4  892   4.380   3.770   0.593
  216SOL     OW  893   3.593   4.227   0.432
  216SOL    HW2  894   3.533   4.300   0.417
  216SOL    HW3  895   3.542   4.149   0.409
  216SOL    MW4  896   3.579   4.226   0.427
  217SOL     OW  897   3.760   4.469   0.526
  217SOL    HW2  898   3.705   4.396   0.500
  217SOL    HW3  899   3.787   4.450   0.616
  217SOL    MW4  900   3.756   4.457   0.534
  218SOL     OW  901   4.488   0.123   0.511
  218SOL    HW2  902   4.459   0.033   0.499
  218SOL    HW3  903   4.493   0.134   0.606
  218SOL    MW4  904   4.485   0.113   0.522
  219SOL     OW  905   4.101   0.895   0.471
  219SOL    HW2  906   4.026   0.945   0.437
  219SOL    HW3  907   4.106   0.818   0.414
  219SOL    MW4  908   4.092   0.892   0.459
  220SOL     OW  909   0.349   1.646   0.481
  220SOL    HW2  910   0.357   1.555   0.454
  220SOL    HW3  911   0.256   1.656   0.504
  220SOL    MW4  912   0.338   1.636   0.481
  221SOL     OW  913   4.312   0.555   0.485
  221SOL    HW2  914   4.313   0.464   0.456
  221SOL    HW3  915   4.402   0.586   0.472
  221SOL    MW4  916   4.324   0.547   0.479
  222SOL     OW  917   0.075   1.165   0.482
  222SOL    HW2  918   0.015   1.090   0.478
  222SOL    HW3  919   0.017   1.241   0.475
  222SOL    MW4  920   0.059   1.165   0.481
  223SOL     OW  921   3.619   0.041   0.476
  223SOL    HW2  922   3.663  -0.044   0.485
  223SOL    HW3  923   3.680   0.095   0.425
  223SOL    MW4  924   3.632   0.037   0.470
  224SOL     OW  925   4.123   1.436   0.379
  224SOL    HW2  926   4.124   1.531   0.393
  224SOL    HW3  927   4.152   1.425   0.288
  224SOL    MW4  928   4.127   1.447   0.369
  225SOL     OW  929   4.425   1.409   0.509
  225SOL    HW2  930   4.418   1.358   0.590
  225SOL    HW3  931   4.336   1.408   0.473
  225SOL    MW4  932   4.412   1.402   0.515
  226SOL     OW  933   4.194   2.256   0.211
  226SOL    HW2  934   4.110   2.283   0.247
  226SOL    HW3  935   4.191   2.283   0.119
  226SOL    MW4  936   4.183   2.263   0.203
  227SOL     OW  937   4.400   1.805   0.386
  227SOL    HW2  938   4.383   1.886   0.434
  227SOL    HW3  939   4.470   1.762   0.435
  227SOL    MW4  940   4.407   1.810   0.398
  228SOL     OW  941   4.444   2.222   0.342
  228SOL    HW2  942   4.436   2.308   0.383
  228SOL    HW3  943   4.367   2.216   0.285
  228SOL    MW4  944   4.433   2.233   0.340
  229SOL     OW  945   4.308   2.046   0.515
  229SOL    HW2  946   4.216   2.071   0.506
  229SOL    HW3  947   4.356   2.115   0.469
  229SOL    MW4  948   4.302   2.058   0.508
  230SOL     OW  949   4.426   2.464   0.485
  230SOL    HW2  950   4.475   2.546   0.477
  230SOL    HW3  951   4.443   2.436   0.576
  230SOL    MW4  952   4.435   2.471   0.496
  231SOL     OW  953   4.175   3.593   0.455
  231SOL    HW2  954   4.267   3.619   0.448
  231SOL    HW3  955   4.176   3.499   0.437
  231SOL    MW4  956   4.187   3.584   0.452
  232SOL     OW  957   4.129   2.486   0.496
  232SOL    HW2  958   4.100   2.503   0.585
  232SOL    HW3  959   4.223   2.472   0.503
  232SOL    MW4  960   4.137   2.486   0.509
  233SOL     OW  961   0.197   3.870   0.423
  233SOL    HW2  962   0.141   3.940   0.458
  233SOL    HW3  963   0.286   3.898   0.446
  233SOL    MW4  964   0.201   3.883   0.431
  234SOL     OW  965   4.448   3.569   0.355
  234SOL    HW2  966   4.437   3.652   0.309
  234SOL    HW3  967   4.533   3.576   0.398
  234SOL    MW4  968   4.458   3.581   0.355
  235SOL     OW  969   0.101   3.329   0.284
  235SOL    HW2  970   0.059   3.414   0.269
  235SOL    HW3  971   0.193   3.350   0.301
  235SOL    MW4  972   0.108   3.343   0.284
  236SOL     OW  973   3.711   3.855   0.537
  236SOL    HW2  974   3.734   3.941   0.572
  236SOL    HW3  975   3.737   3.794   0.606
  236SOL    MW4  976   3.717   3.858   0.551
  237SOL     OW  977   3.913   3.166   0.501
  237SOL    HW2  978   3.923   3.189   0.594
  237SOL    HW3  979   3.821   3.184   0.482
  237SOL    MW4  980   3.902   3.172   0.511
  238SOL     OW  981   0.035   4.097   0.513
  238SOL    HW2  982  -0.008   4.063   0.592
  238SOL    HW3  983  -0.037   4.121   0.455
  238SOL    MW4  984   0.020   4.096   0.516
  239SOL     OW  985   4.061   4.034   0.510
  239SOL    HW2  986   4.045   3.945   0.480
  239SOL    HW3  987   3.974   4.071   0.525
  239SOL    MW4  988   4.048   4.027   0.508
  240SOL     OW  989   3.794   4.136   0.597
  240SOL    HW2  990   3.786   4.201   0.668
  240SOL    HW3  991   3.728   4.163   0.533
  240SOL    MW4  992   3.784   4.148   0.598
  241SOL     OW  993   4.050   4.580   0.519
  241SOL    HW2  994   3.965   4.536   0.524
  241SOL    HW3  995   4.112   4.511   0.497
  241SOL    MW4  996   4.047   4.565   0.517
  242SOL     OW  997   0.242   4.647   0.860
  242SOL    HW2  998   0.231   4.556   0.832
  242SOL    HW3  999   0.158   4.688   0.840
  242SOL    MW4 1000   0.229   4.640   0.854
  243SOL     OW 1001   0.000   0.102   0.815
  243SOL    HW2 1002  -0.077   0.065   0.859
  243SOL    HW3 1003  -0.017   0.197   0.812
  243SOL    MW4 1004  -0.012   0.110   0.820
  244SOL     OW 1005   4.469   0.384   0.842
  244SOL    HW2 1006   4.468   0.374   0.938
  244SOL    HW3 1007   4.555   0.422   0.824
  244SOL    MW4 1008   4.480   0.388   0.852
  245SOL     OW 1009   0.224   0.501   0.790
  245SOL    HW2 1010   0.293   0.440   0.818
  245SOL    HW3 1011   0.261   0.588   0.803
  245SOL    MW4 1012   0.238   0.504   0.795
  246SOL     OW 1013   0.252   0.776   0.845
  246SOL    HW2 1014   0.242   0.777   0.940
  246SOL    HW3 1015   0.165   0.798   0.811
  246SOL    MW4 1016   0.239   0.779   0.853
  247SOL     OW 1017   4.480   0.870   0.780
  247SOL    HW2 1018   4.404   0.830   0.823
  247SOL    HW3 1019   4.448   0.896   0.694
  247SOL    MW4 1020   4.466   0.868   0.774
  248SOL     OW 1021   0.027   1.118   0.908
  248SOL    HW2 1022   0.019   1.116   1.003
  248SOL    HW3 1023   0.023   1.026   0.881
  248SOL    MW4 1024   0.026   1.106   0.917
  249SOL     OW 1025   0.232   1.243   0.719
  249SOL    HW2 1026   0.174   1.201   0.782
  249SOL    HW3 1027   0.193   1.223   0.634
  249SOL    MW4 1028   0.219   1.235   0.716
  250SOL     OW 1029   0.227   1.493   0.861
  250SOL    HW2 1030   0.292   1.555   0.828
  250SOL    HW3 1031   0.236   1.417   0.803
  250SOL    MW4 1032   0.237   1.491   0.849
  251SOL     OW 1033   0.019   1.668   0.804
  251SOL    HW2 1034  -0.061   1.615   0.808
  251SOL    HW3 1035   0.087   1.611   0.840
  251SOL    MW4 1036   0.018   1.654   0.809
  252SOL     OW 1037   4.482   1.930   0.873
  252SOL    HW2 1038   4.549   1.975   0.822
  252SOL    HW3 1039   4.491   1.838   0.848
  252SOL    MW4 1040   4.492   1.923   0.863
  253SOL     OW 1041   0.206   2.059   0.746
  253SOL    HW2 1042   0.190   2.151   0.770
  253SOL    HW3 1043   0.232   2.063   0.654
  253SOL    MW4 1044   0.207   2.072   0.737
  254SOL     OW 1045   0.192   2.321   0.853
  254SOL    HW2 1046   0.191   2.309   0.947
  254SOL    HW3 1047   0.263   2.383   0.837
  254SOL    MW4 1048   0.201   2.327   0.863
  255SOL     OW 1049   4.447   2.417   0.765
  255SOL    HW2 1050   4.378   2.363   0.803
  255SOL    HW3 1051   4.528   2.371   0.785
  255SOL    MW4 1052   4.448   2.404   0.772
  256SOL     OW 1053   4.452   2.659   0.888
  256SOL    HW2 1054   4.432   2.659   0.981
  256SOL    HW3 1055   4.432   2.570   0.858
  256SOL    MW4 1056   4.447   2.647   0.896
  257SOL     OW 1057   0.161   2.807   0.731
  257SOL    HW2 1058   0.097   2.769   0.792
  257SOL    HW3 1059   0.143   2.764   0.647
  257SOL    MW4 1060   0.150   2.796   0.728
  258SOL     OW 1061   0.206   3.101   0.803
  258SOL    HW2 1062   0.200   3.091   0.898
  258SOL    HW3 1063   0.186   3.014   0.769
  258SOL    MW4 1064   0.202   3.089   0.811
  259SOL     OW 1065   4.438   3.207   0.735
  259SOL    HW2 1066   4.521   3.162   0.751
  259SOL    HW3 1067   4.431   3.211   0.639
  259SOL    MW4 1068   4.448   3.202   0.724
  260SOL     OW 1069   4.430   3.463   0.873
  260SOL    HW2 1070   4.345   3.488   0.836
  260SOL    HW3 1071   4.447   3.376   0.835
  260SOL    MW4 1072   4.421   3.455   0.863
  261SOL     OW 1073   0.174   3.630   0.808
  261SOL    HW2 1074   0.091   3.587   0.827
  261SOL    HW3 1075   0.185   3.619   0.713
  261SOL    MW4 1076   0.164   3.623   0.798
  262SOL     OW 1077   0.182   3.896   0.875
  262SOL    HW2 1078   0.206   3.903   0.968
  262SOL    HW3 1079   0.180   3.801   0.859
  262SOL    MW4 1080   0.185   3.884   0.885
  263SOL     OW 1081   4.436   3.998   0.761
  263SOL    HW2 1082   4.362   3.950   0.799
  263SOL    HW3 1083   4.513   3.965   0.807
  263SOL    MW4 1084   4.436   3.987   0.772
  264SOL     OW 1085   4.460   4.255   0.857
  264SOL    HW2 1086   4.463   4.259   0.953
  264SOL    HW3 1087   4.458   4.161   0.837
  264SOL    MW4 1088   4.460   4.243   0.867
  265SOL     OW 1089   0.200   4.372   0.770
  265SOL    HW2 1090   0.117   4.328   0.789
  265SOL    HW3 1091   0.207   4.369   0.675
  265SOL    MW4 1092   0.190   4.366   0.760
  266SOL     OW 1093   0.714   4.642   0.880
  266SOL    HW2 1094   0.707   4.648   0.975
  266SOL    HW3 1095   0.640   4.693   0.847
  266SOL    MW4 1096   0.704   4.650   0.888
  267SOL     OW 1097   0.474   0.101   0.782
  267SOL    HW2 1098   0.393   0.063   0.816
  267SOL    HW3 1099   0.469   0.086   0.688
  267SOL    MW4 1100   0.462   0.094   0.774
  268SOL     OW 1101   0.460   0.361   0.852
  268SOL    HW2 1102   0.538   0.410   0.824
  268SOL    HW3 1103   0.472   0.274   0.814
  268SOL    MW4 1104   0.472   0.356   0.843
  269SOL     OW 1105   0.672   0.520   0.759
  269SOL    HW2 1106   0.744   0.466   0.793
  269SOL    HW3 1107   0.678   0.511   0.664
  269SOL    MW4 1108   0.683   0.511   0.751
  270SOL     OW 1109   0.714   0.767   0.855
  270SOL    HW2 1110   0.639   0.816   0.823
  270SOL    HW3 1111   0.692   0.675   0.839
  270SOL    MW4 1112   0.701   0.761   0.849
  271SOL     OW 1113   0.480   0.909   0.743
  271SOL    HW2 1114   0.473   0.998   0.777
  271SOL    HW3 1115   0.404   0.863   0.779
  271SOL    MW4 1116   0.469   0.914   0.752
  272SOL     OW 1117   0.467   1.164   0.870
  272SOL    HW2 1118   0.554   1.186   0.834
  272SOL    HW3 1119   0.406   1.209   0.811
  272SOL    MW4 1120   0.471   1.173   0.857
  273SOL     OW 1121   0.705   1.269   0.748
  273SOL    HW2 1122   0.689   1.357   0.782
  273SOL    HW3 1123   0.721   1.282   0.655
  273SOL    MW4 1124   0.705   1.283   0.740
  274SOL     OW 1125   0.685   1.537   0.840
  274SOL    HW2 1126   0.700   1.523   0.934
  274SOL    HW3 1127   0.607   1.592   0.836
  274SOL    MW4 1128   0.677   1.542   0.852
  275SOL     OW 1129   0.441   1.668   0.754
  275SOL    HW2 1130   0.449   1.762   0.769
  275SOL    HW3 1131   0.417   1.660   0.662
  275SOL    MW4 1132   0.439   1.679   0.744
  276SOL     OW 1133   0.444   1.940   0.830
  276SOL    HW2 1134   0.452   1.925   0.924
  276SOL    HW3 1135   0.365   1.993   0.820
  276SOL    MW4 1136   0.435   1.945   0.841
  277SOL     OW 1137   0.687   2.076   0.786
  277SOL    HW2 1138   0.606   2.030   0.805
  277SOL    HW3 1139   0.682   2.097   0.693
  277SOL    MW4 1140   0.676   2.073   0.776
  278SOL     OW 1141   0.680   2.350   0.853
  278SOL    HW2 1142   0.673   2.358   0.948
  278SOL    HW3 1143   0.682   2.256   0.836
  278SOL    MW4 1144   0.679   2.339   0.863
  279SOL     OW 1145   0.444   2.457   0.770
  279SOL    HW2 1146   0.512   2.406   0.814
  279SOL    HW3 1147   0.478   2.472   0.682
  279SOL    MW4 1148   0.457   2.452   0.764
  280SOL     OW 1149   0.391   2.722   0.860
  280SOL    HW2 1150   0.414   2.630   0.846
  280SOL    HW3 1151   0.311   2.734   0.809
  280SOL    MW4 1152   0.383   2.711   0.852
  281SOL     OW 1153   0.602   2.867   0.723
  281SOL    HW2 1154   0.680   2.815   0.743
  281SOL    HW3 1155   0.532   2.826   0.774
  281SOL    MW4 1156   0.603   2.854   0.733
  282SOL     OW 1157   0.667   3.132   0.813
  282SOL    HW2 1158   0.579   3.167   0.797
  282SOL    HW3 1159   0.663   3.042   0.782
  282SOL    MW4 1160   0.654   3.125   0.806
  283SOL     OW 1161   0.434   3.268   0.749
  283SOL    HW2 1162   0.425   3.353   0.793
  283SOL    HW3 1163   0.351   3.224   0.765
  283SOL    MW4 1164   0.422   3.274   0.757
  284SOL     OW 1165   0.446   3.526   0.833
  284SOL    HW2 1166   0.443   3.518   0.928
  284SOL    HW3 1167   0.364   3.568   0.810
  284SOL    MW4 1168   0.435   3.530   0.842
  285SOL     OW 1169   0.652   3.710   0.729
  285SOL    HW2 1170   0.567   3.673   0.753
  285SOL    HW3 1171   0.652   3.797   0.770
  285SOL    MW4 1172   0.641   3.717   0.737
  286SOL     OW 1173   0.684   3.955   0.846
  286SOL    HW2 1174   0.752   4.001   0.796
  286SOL    HW3 1175   0.602   3.979   0.803
  286SOL    MW4 1176   0.683   3.964   0.834
  287SOL     OW 1177   0.419   3.995   0.763
  287SOL    HW2 1178   0.423   4.084   0.798
  287SOL    HW3 1179   0.343   3.956   0.807
  287SOL    MW4 1180   0.410   4.001   0.774
  288SOL     OW 1181   0.446   4.256   0.858
  288SOL    HW2 1182   0.440   4.268   0.952
  288SOL    HW3 1183   0.367   4.298   0.824
  288SOL    MW4 1184   0.435   4.263   0.866
  289SOL     OW 1185   0.691   4.383   0.775
  289SOL    HW2 1186   0.620   4.343   0.825
  289SOL    HW3 1187   0.697   4.472   0.808
  289SOL    MW4 1188   0.683   4.389   0.786
  290SOL     OW 1189   1.137   4.656   0.881
  290SOL    HW2 1190   1.221   4.688   0.847
  290SOL    HW3 1191   1.071   4.711   0.839
  290SOL    MW4 1192   1.140   4.668   0.871
  291SOL     OW 1193   0.929   0.107   0.761
  291SOL    HW2 1194   0.927   0.197   0.793
  291SOL    HW3 1195   0.871   0.059   0.820
  291SOL    MW4 1196   0.921   0.112   0.773
  292SOL     OW 1197   0.879   0.351   0.879
  292SOL    HW2 1198   0.846   0.360   0.968
  292SOL    HW3 1199   0.965   0.393   0.880
  292SOL    MW4 1200   0.886   0.358   0.891
  293SOL     OW 1201   1.123   0.462   0.776
  293SOL    HW2 1202   1.204   0.420   0.803
  293SOL    HW3 1203   1.129   0.468   0.681
  293SOL    MW4 1204   1.134   0.457   0.767
  294SOL     OW 1205   1.154   0.722   0.856
  294SOL    HW2 1206   1.150   0.721   0.951
  294SOL    HW3 1207   1.146   0.631   0.830
  294SOL    MW4 1208   1.152   0.710   0.865
  295SOL     OW 1209   0.938   0.878   0.751
  295SOL    HW2 1210   1.008   0.837   0.802
  295SOL    HW3 1211   0.858   0.837   0.783
  295SOL    MW4 1212   0.937   0.867   0.762
  296SOL     OW 1213   0.933   1.131   0.884
  296SOL    HW2 1214   0.935   1.046   0.839
  296SOL    HW3 1215   0.857   1.175   0.846
  296SOL    MW4 1216   0.923   1.126   0.873
  297SOL     OW 1217   1.117   1.265   0.735
  297SOL    HW2 1218   1.056   1.215   0.789
  297SOL    HW3 1219   1.068   1.283   0.654
  297SOL    MW4 1220   1.102   1.261   0.731
  298SOL     OW 1221   1.161   1.516   0.852
  298SOL    HW2 1222   1.084   1.569   0.833
  298SOL    HW3 1223   1.145   1.433   0.807
  298SOL    MW4 1224   1.149   1.512   0.843
  299SOL     OW 1225   0.931   1.647   0.794
  299SOL    HW2 1226   0.912   1.739   0.812
  299SOL    HW3 1227   0.848   1.602   0.807
  299SOL    MW4 1228   0.917   1.653   0.798
  300SOL     OW 1229   0.901   1.928   0.858
  300SOL    HW2 1230   0.887   1.930   0.953
  300SOL    HW3 1231   0.829   1.980   0.822
  300SOL    MW4 1232   0.890   1.935   0.866
  301SOL     OW 1233   1.131   2.075   0.757
  301SOL    HW2 1234   1.133   2.162   0.797
  301SOL    HW3 1235   1.062   2.029   0.805
  301SOL    MW4 1236   1.122   2.081   0.769
  302SOL     OW 1237   1.128   2.351   0.808
  302SOL    HW2 1238   1.121   2.358   0.903
  302SOL    HW3 1239   1.208   2.398   0.787
  302SOL    MW4 1240   1.138   2.358   0.818
  303SOL     OW 1241   0.881   2.449   0.689
  303SOL    HW2 1242   0.956   2.398   0.720
  303SOL    HW3 1243   0.811   2.428   0.751
  303SOL    MW4 1244   0.882   2.440   0.701
  304SOL     OW 1245   0.840   2.716   0.805
  304SOL    HW2 1246   0.843   2.707   0.900
  304SOL    HW3 1247   0.865   2.630   0.771
  304SOL    MW4 1248   0.844   2.704   0.813
  305SOL     OW 1249   1.084   2.847   0.782
  305SOL    HW2 1250   1.001   2.801   0.798
  305SOL    HW3 1251   1.094   2.843   0.687
  305SOL    MW4 1252   1.074   2.840   0.771
  306SOL     OW 1253   1.093   3.130   0.847
  306SOL    HW2 1254   1.015   3.176   0.817
  306SOL    HW3 1255   1.076   3.038   0.825
  306SOL    MW4 1256   1.080   3.124   0.840
  307SOL     OW 1257   0.877   3.268   0.691
  307SOL    HW2 1258   0.871   3.353   0.734
  307SOL    HW3 1259   0.805   3.217   0.729
  307SOL    MW4 1260   0.867   3.272   0.702
  308SOL     OW 1261   0.867   3.532   0.815
  308SOL    HW2 1262   0.948   3.577   0.794
  308SOL    HW3 1263   0.798   3.594   0.791
  308SOL    MW4 1264   0.868   3.546   0.809
  309SOL     OW 1265   1.122   3.648   0.725
  309SOL    HW2 1266   1.195   3.599   0.763
  309SOL    HW3 1267   1.130   3.634   0.631
  309SOL    MW4 1268   1.133   3.640   0.718
  310SOL     OW 1269   1.098   3.914   0.776
  310SOL    HW2 1270   1.077   3.921   0.869
  310SOL    HW3 1271   1.111   3.820   0.761
  310SOL    MW4 1272   1.097   3.903   0.786
  311SOL     OW 1273   0.906   4.064   0.664
  311SOL    HW2 1274   0.907   4.126   0.737
  311SOL    HW3 1275   0.969   3.997   0.690
  311SOL    MW4 1276   0.914   4.063   0.677
  312SOL     OW 1277   0.920   4.262   0.868
  312SOL    HW2 1278   0.993   4.313   0.832
  312SOL    HW3 1279   0.842   4.312   0.845
  312SOL    MW4 1280   0.919   4.275   0.860
  313SOL     OW 1281   1.132   4.414   0.767
  313SOL    HW2 1282   1.214   4.371   0.791
  313SOL    HW3 1283   1.132   4.495   0.817
  313SOL    MW4 1284   1.142   4.419   0.777
  314SOL     OW 1285   1.614   4.595   0.826
  314SOL    HW2 1286   1.632   4.595   0.920
  314SOL    HW3 1287   1.545   4.659   0.814
  314SOL    MW4 1288   1.607   4.603   0.837
  315SOL     OW 1289   1.376   0.091   0.763
  315SOL    HW2 1290   1.372   0.182   0.793
  315SOL    HW3 1291   1.347   0.095   0.672
  315SOL    MW4 1292   1.371   0.104   0.755
  316SOL     OW 1293   1.400   0.358   0.837
  316SOL    HW2 1294   1.398   0.361   0.933
  316SOL    HW3 1295   1.478   0.408   0.814
  316SOL    MW4 1296   1.410   0.365   0.847
  317SOL     OW 1297   1.617   0.531   0.776
  317SOL    HW2 1298   1.620   0.623   0.802
  317SOL    HW3 1299   1.704   0.497   0.795
  317SOL    MW4 1300   1.629   0.538   0.782
  318SOL     OW 1301   1.603   0.782   0.871
  318SOL    HW2 1302   1.678   0.835   0.844
  318SOL    HW3 1303   1.529   0.818   0.822
  318SOL    MW4 1304   1.603   0.794   0.861
  319SOL     OW 1305   1.364   0.877   0.758
  319SOL    HW2 1306   1.344   0.957   0.807
  319SOL    HW3 1307   1.291   0.818   0.779
  319SOL    MW4 1308   1.352   0.880   0.767
  320SOL     OW 1309   1.362   1.144   0.845
  320SOL    HW2 1310   1.435   1.192   0.806
  320SOL    HW3 1311   1.284   1.185   0.808
  320SOL    MW4 1312   1.361   1.156   0.835
  321SOL     OW 1313   1.563   1.276   0.711
  321SOL    HW2 1314   1.568   1.367   0.682
  321SOL    HW3 1315   1.549   1.226   0.630
  321SOL    MW4 1316   1.562   1.281   0.696
  322SOL     OW 1317   1.710   1.668   0.838
  322SOL    HW2 1318   1.666   1.633   0.915
  322SOL    HW3 1319   1.801   1.639   0.846
  322SOL    MW4 1320   1.716   1.660   0.849
  323SOL     OW 1321   1.352   1.673   0.709
  323SOL    HW2 1322   1.341   1.763   0.739
  323SOL    HW3 1323   1.293   1.622   0.764
  323SOL    MW4 1324   1.343   1.678   0.720
  324SOL     OW 1325   1.340   1.931   0.814
  324SOL    HW2 1326   1.342   1.946   0.909
  324SOL    HW3 1327   1.264   1.980   0.784
  324SOL    MW4 1328   1.330   1.940   0.823
  325SOL     OW 1329   1.574   2.109   0.741
  325SOL    HW2 1330   1.493   2.066   0.768
  325SOL    HW3 1331   1.576   2.099   0.646
  325SOL    MW4 1332   1.563   2.102   0.732
  326SOL     OW 1333   1.594   2.383   0.826
  326SOL    HW2 1334   1.508   2.424   0.816
  326SOL    HW3 1335   1.578   2.291   0.807
  326SOL    MW4 1336   1.581   2.376   0.822
  327SOL     OW 1337   1.353   2.473   0.738
  327SOL    HW2 1338   1.337   2.560   0.774
  327SOL    HW3 1339   1.373   2.489   0.646
  327SOL    MW4 1340   1.353   2.487   0.730
  328SOL     OW 1341   1.326   2.715   0.856
  328SOL    HW2 1342   1.335   2.713   0.952
  328SOL    HW3 1343   1.235   2.741   0.841
  328SOL    MW4 1344   1.315   2.718   0.867
  329SOL     OW 1345   1.531   2.824   0.714
  329SOL    HW2 1346   1.548   2.918   0.723
  329SOL    HW3 1347   1.468   2.805   0.783
  329SOL    MW4 1348   1.525   2.834   0.724
  330SOL     OW 1349   1.583   3.098   0.821
  330SOL    HW2 1350   1.598   3.101   0.915
  330SOL    HW3 1351   1.510   3.158   0.806
  330SOL    MW4 1352   1.575   3.106   0.832
  331SOL     OW 1353   1.348   3.239   0.768
  331SOL    HW2 1354   1.280   3.186   0.811
  331SOL    HW3 1355   1.335   3.224   0.675
  331SOL    MW4 1356   1.338   3.230   0.762
  332SOL     OW 1357   1.348   3.514   0.802
  332SOL    HW2 1358   1.433   3.560   0.800
  332SOL    HW3 1359   1.368   3.426   0.771
  332SOL    MW4 1360   1.362   3.509   0.797
  333SOL     OW 1361   1.611   3.642   0.767
  333SOL    HW2 1362   1.695   3.597   0.778
  333SOL    HW3 1363   1.602   3.652   0.672
  333SOL    MW4 1364   1.621   3.638   0.756
  334SOL     OW 1365   1.594   3.928   0.839
  334SOL    HW2 1366   1.515   3.970   0.805
  334SOL    HW3 1367   1.588   3.838   0.809
  334SOL    MW4 1368   1.583   3.922   0.830
  335SOL     OW 1369   1.358   4.020   0.742
  335SOL    HW2 1370   1.273   3.979   0.756
  335SOL    HW3 1371   1.349   4.064   0.657
  335SOL    MW4 1372   1.345   4.020   0.732
  336SOL     OW 1373   1.390   4.286   0.865
  336SOL    HW2 1374   1.474   4.318   0.832
  336SOL    HW3 1375   1.388   4.194   0.839
  336SOL    MW4 1376   1.401   4.278   0.857
  337SOL     OW 1377   1.629   4.342   0.713
  337SOL    HW2 1378   1.708   4.313   0.758
  337SOL    HW3 1379   1.618   4.433   0.741
  337SOL    MW4 1380   1.638   4.350   0.723
  338SOL     OW 1381   1.962   0.139   0.890
  338SOL    HW2 1382   2.051   0.150   0.858
  338SOL    HW3 1383   1.918   0.089   0.822
  338SOL    MW4 1384   1.968   0.134   0.877
  339SOL     OW 1385   1.760   0.251   0.583
  339SOL    HW2 1386   1.762   0.165   0.625
  339SOL    HW3 1387   1.772   0.313   0.654
  339SOL    MW4 1388   1.762   0.248   0.598
  340SOL     OW 1389   1.841   0.378   0.829
  340SOL    HW2 1390   1.882   0.296   0.857
  340SOL    HW3 1391   1.911   0.428   0.789
  340SOL    MW4 1392   1.855   0.374   0.827
  341SOL     OW 1393   2.025   0.559   0.690
  341SOL    HW2 1394   2.041   0.550   0.596
  341SOL    HW3 1395   2.107   0.534   0.731
  341SOL    MW4 1396   2.038   0.555   0.683
  342SOL     OW 1397   1.972   0.774   0.853
  342SOL    HW2 1398   2.049   0.826   0.830
  342SOL    HW3 1399   1.978   0.697   0.797
  342SOL    MW4 1400   1.983   0.771   0.843
  343SOL     OW 1401   1.790   0.916   0.713
  343SOL    HW2 1402   1.770   0.994   0.763
  343SOL    HW3 1403   1.871   0.882   0.752
  343SOL    MW4 1404   1.798   0.922   0.724
  344SOL     OW 1405   1.743   1.136   0.866
  344SOL    HW2 1406   1.828   1.177   0.851
  344SOL    HW3 1407   1.680   1.194   0.823
  344SOL    MW4 1408   1.746   1.149   0.858
  345SOL     OW 1409   1.969   1.286   0.803
  345SOL    HW2 1410   2.057   1.262   0.830
  345SOL    HW3 1411   1.969   1.277   0.708
  345SOL    MW4 1412   1.980   1.281   0.794
  346SOL     OW 1413   1.962   1.570   0.827
  346SOL    HW2 1414   2.040   1.609   0.786
  346SOL    HW3 1415   1.964   1.479   0.800
  346SOL    MW4 1416   1.973   1.563   0.818
  347SOL     OW 1417   1.930   1.527   0.392
  347SOL    HW2 1418   1.888   1.499   0.310
  347SOL    HW3 1419   1.872   1.595   0.427
  347SOL    MW4 1420   1.917   1.532   0.386
  348SOL     OW 1421   1.763   1.931   0.861
  348SOL    HW2 1422   1.731   1.841   0.851
  348SOL    HW3 1423   1.693   1.985   0.824
  348SOL    MW4 1424   1.749   1.926   0.855
  349SOL     OW 1425   2.012   2.014   0.772
  349SOL    HW2 1426   2.012   2.110   0.775
  349SOL    HW3 1427   1.926   1.990   0.805
  349SOL    MW4 1428   2.001   2.024   0.776
  350SOL     OW 1429   2.012   2.293   0.807
  350SOL    HW2 1430   2.020   2.286   0.902
  350SOL    HW3 1431   1.948   2.363   0.793
  350SOL    MW4 1432   2.005   2.302   0.818
  351SOL     OW 1433   1.855   2.499   0.740
  351SOL    HW2 1434   1.771   2.468   0.774
  351SOL    HW3 1435   1.850   2.483   0.646
  351SOL    MW4 1436   1.844   2.493   0.732
  352SOL     OW 1437   1.800   2.760   0.805
  352SOL    HW2 1438   1.818   2.670   0.778
  352SOL    HW3 1439   1.707   2.773   0.788
  352SOL    MW4 1440   1.790   2.750   0.799
  353SOL     OW 1441   1.990   2.886   0.625
  353SOL    HW2 1442   2.075   2.843   0.632
  353SOL    HW3 1443   1.937   2.843   0.692
  353SOL    MW4 1444   1.994   2.875   0.635
  354SOL     OW 1445   2.017   3.092   0.815
  354SOL    HW2 1446   1.965   3.168   0.789
  354SOL    HW3 1447   1.999   3.027   0.747
  354SOL    MW4 1448   2.008   3.093   0.803
  355SOL     OW 1449   1.790   3.260   0.755
  355SOL    HW2 1450   1.717   3.204   0.781
  355SOL    HW3 1451   1.785   3.264   0.660
  355SOL    MW4 1452   1.780   3.253   0.746
  356SOL     OW 1453   1.862   3.518   0.837
  356SOL    HW2 1454   1.863   3.514   0.932
  356SOL    HW3 1455   1.849   3.427   0.809
  356SOL    MW4 1456   1.860   3.505   0.846
  357SOL     OW 1457   2.055   3.641   0.692
  357SOL    HW2 1458   2.061   3.732   0.720
  357SOL    HW3 1459   1.975   3.609   0.734
  357SOL    MW4 1460   2.045   3.649   0.701
  358SOL     OW 1461   2.061   3.906   0.791
  358SOL    HW2 1462   2.050   3.887   0.884
  358SOL    HW3 1463   1.979   3.947   0.765
  358SOL    MW4 1464   2.048   3.909   0.800
  359SOL     OW 1465   1.825   4.039   0.719
  359SOL    HW2 1466   1.750   3.991   0.753
  359SOL    HW3 1467   1.798   4.068   0.632
  359SOL    MW4 1468   1.812   4.037   0.712
  360SOL     OW 1469   1.859   4.271   0.854
  360SOL    HW2 1470   1.857   4.261   0.949
  360SOL    HW3 1471   1.857   4.182   0.820
  360SOL    MW4 1472   1.859   4.258   0.862
  361SOL     OW 1473   2.068   4.373   0.683
  361SOL    HW2 1474   1.997   4.347   0.741
  361SOL    HW3 1475   2.050   4.327   0.601
  361SOL    MW4 1476   2.056   4.364   0.680
  362SOL     OW 1477   2.447   0.055   0.837
  362SOL    HW2 1478   2.463   0.030   0.929
  362SOL    HW3 1479   2.530   0.091   0.808
  362SOL    MW4 1480   2.460   0.057   0.846
  363SOL     OW 1481   2.215   0.193   0.808
  363SOL    HW2 1482   2.296   0.144   0.826
  363SOL    HW3 1483   2.210   0.197   0.712
  363SOL    MW4 1484   2.225   0.187   0.798
  364SOL     OW 1485   2.251   0.469   0.819
  364SOL    HW2 1486   2.340   0.481   0.784
  364SOL    HW3 1487   2.237   0.375   0.817
  364SOL    MW4 1488   2.261   0.458   0.814
  365SOL     OW 1489   2.480   0.581   0.674
  365SOL    HW2 1490   2.435   0.569   0.590
  365SOL    HW3 1491   2.537   0.504   0.682
  365SOL    MW4 1492   2.481   0.569   0.664
  366SOL     OW 1493   2.412   0.800   0.825
  366SOL    HW2 1494   2.503   0.828   0.834
  366SOL    HW3 1495   2.418   0.712   0.786
  366SOL    MW4 1496   2.425   0.792   0.821
  367SOL     OW 1497   2.180   0.937   0.755
  367SOL    HW2 1498   2.264   0.894   0.769
  367SOL    HW3 1499   2.190   0.983   0.672
  367SOL    MW4 1500   2.192   0.937   0.746
  368SOL     OW 1501   2.214   1.167   0.895
  368SOL    HW2 1502   2.220   1.151   0.990
  368SOL    HW3 1503   2.204   1.080   0.856
  368SOL    MW4 1504   2.214   1.154   0.903
  369SOL     OW 1505   2.425   1.293   0.755
  369SOL    HW2 1506   2.349   1.250   0.795
  369SOL    HW3 1507   2.424   1.263   0.664
  369SOL    MW4 1508   2.415   1.283   0.748
  370SOL     OW 1509   2.406   1.554   0.864
  370SOL    HW2 1510   2.488   1.599   0.841
  370SOL    HW3 1511   2.422   1.463   0.840
  370SOL    MW4 1512   2.419   1.548   0.858
  371SOL     OW 1513   2.192   1.666   0.719
  371SOL    HW2 1514   2.274   1.626   0.748
  371SOL    HW3 1515   2.197   1.663   0.623
  371SOL    MW4 1516   2.203   1.660   0.710
  372SOL     OW 1517   2.235   1.893   0.886
  372SOL    HW2 1518   2.249   1.810   0.842
  372SOL    HW3 1519   2.165   1.936   0.836
  372SOL    MW4 1520   2.228   1.888   0.873
  373SOL     OW 1521   2.438   2.052   0.763
  373SOL    HW2 1522   2.371   2.000   0.808
  373SOL    HW3 1523   2.412   2.050   0.671
  373SOL    MW4 1524   2.425   2.045   0.757
  374SOL     OW 1525   2.442   2.327   0.873
  374SOL    HW2 1526   2.498   2.384   0.821
  374SOL    HW3 1527   2.446   2.242   0.830
  374SOL    MW4 1528   2.450   2.323   0.861
  375SOL     OW 1529   2.221   2.439   0.681
  375SOL    HW2 1530   2.297   2.406   0.730
  375SOL    HW3 1531   2.146   2.394   0.722
  375SOL    MW4 1532   2.221   2.428   0.693
  376SOL     OW 1533   2.221   2.728   0.747
  376SOL    HW2 1534   2.214   2.714   0.841
  376SOL    HW3 1535   2.211   2.640   0.709
  376SOL    MW4 1536   2.219   2.714   0.754
  377SOL     OW 1537   2.494   2.866   0.728
  377SOL    HW2 1538   2.558   2.816   0.779
  377SOL    HW3 1539   2.412   2.817   0.737
  377SOL    MW4 1540   2.492   2.853   0.736
  378SOL     OW 1541   2.479   3.114   0.848
  378SOL    HW2 1542   2.451   3.097   0.938
  378SOL    HW3 1543   2.488   3.027   0.809
  378SOL    MW4 1544   2.477   3.100   0.855
  379SOL     OW 1545   2.246   3.235   0.737
  379SOL    HW2 1546   2.185   3.170   0.771
  379SOL    HW3 1547   2.332   3.204   0.766
  379SOL    MW4 1548   2.250   3.222   0.745
  380SOL     OW 1549   2.227   3.491   0.861
  380SOL    HW2 1550   2.223   3.401   0.831
  380SOL    HW3 1551   2.165   3.538   0.805
  380SOL    MW4 1552   2.218   3.485   0.850
  381SOL     OW 1553   2.429   3.651   0.745
  381SOL    HW2 1554   2.510   3.605   0.766
  381SOL    HW3 1555   2.360   3.598   0.785
  381SOL    MW4 1556   2.431   3.638   0.753
  382SOL     OW 1557   2.529   3.878   0.854
  382SOL    HW2 1558   2.474   3.950   0.823
  382SOL    HW3 1559   2.489   3.800   0.816
  382SOL    MW4 1560   2.516   3.877   0.845
  383SOL     OW 1561   2.321   4.026   0.753
  383SOL    HW2 1562   2.237   3.984   0.772
  383SOL    HW3 1563   2.319   4.041   0.658
  383SOL    MW4 1564   2.309   4.022   0.743
  384SOL     OW 1565   2.293   4.298   0.824
  384SOL    HW2 1566   2.312   4.209   0.794
  384SOL    HW3 1567   2.212   4.322   0.780
  384SOL    MW4 1568   2.285   4.289   0.814
  385SOL     OW 1569   2.429   4.477   0.671
  385SOL    HW2 1570   2.448   4.552   0.727
  385SOL    HW3 1571   2.390   4.412   0.729
  385SOL    MW4 1572   2.427   4.479   0.686
  386SOL     OW 1573   2.912   0.027   0.860
  386SOL    HW2 1574   2.927  -0.065   0.836
  386SOL    HW3 1575   2.828   0.048   0.820
  386SOL    MW4 1576   2.903   0.017   0.851
  387SOL     OW 1577   2.710   4.567   0.472
  387SOL    HW2 1578   2.802   4.551   0.454
  387SOL    HW3 1579   2.696   4.659   0.447
  387SOL    MW4 1580   2.720   4.577   0.467
  388SOL     OW 1581   2.682   0.412   0.793
  388SOL    HW2 1582   2.678   0.402   0.888
  388SOL    HW3 1583   2.774   0.432   0.775
  388SOL    MW4 1584   2.693   0.414   0.803
  389SOL     OW 1585   2.951   0.479   0.774
  389SOL    HW2 1586   3.005   0.427   0.834
  389SOL    HW3 1587   2.984   0.456   0.687
  389SOL    MW4 1588   2.963   0.469   0.771
  390SOL     OW 1589   2.927   0.764   0.837
  390SOL    HW2 1590   2.911   0.756   0.931
  390SOL    HW3 1591   2.931   0.673   0.806
  390SOL    MW4 1592   2.925   0.751   0.845
  391SOL     OW 1593   2.685   0.923   0.783
  391SOL    HW2 1594   2.762   0.872   0.808
  391SOL    HW3 1595   2.673   0.904   0.690
  391SOL    MW4 1596   2.693   0.914   0.774
  392SOL     OW 1597   2.656   1.195   0.866
  392SOL    HW2 1598   2.659   1.104   0.836
  392SOL    HW3 1599   2.573   1.229   0.833
  392SOL    MW4 1600   2.645   1.188   0.858
  393SOL     OW 1601   2.887   1.297   0.741
  393SOL    HW2 1602   2.956   1.240   0.773
  393SOL    HW3 1603   2.809   1.270   0.789
  393SOL    MW4 1604   2.886   1.286   0.751
  394SOL     OW 1605   2.904   1.557   0.849
  394SOL    HW2 1606   2.987   1.596   0.824
  394SOL    HW3 1607   2.909   1.467   0.818
  394SOL    MW4 1608   2.915   1.550   0.842
  395SOL     OW 1609   2.625   1.661   0.749
  395SOL    HW2 1610   2.642   1.747   0.786
  395SOL    HW3 1611   2.702   1.609   0.773
  395SOL    MW4 1612   2.638   1.665   0.757
  396SOL     OW 1613   2.686   1.927   0.816
  396SOL    HW2 1614   2.706   1.942   0.909
  396SOL    HW3 1615   2.602   1.972   0.803
  396SOL    MW4 1616   2.678   1.935   0.827
  397SOL     OW 1617   2.851   2.130   0.707
  397SOL    HW2 1618   2.828   2.216   0.743
  397SOL    HW3 1619   2.792   2.069   0.751
  397SOL    MW4 1620   2.840   2.133   0.717
  398SOL     OW 1621   2.867   2.403   0.819
  398SOL    HW2 1622   2.841   2.384   0.909
  398SOL    HW3 1623   2.790   2.443   0.780
  398SOL    MW4 1624   2.853   2.406   0.826
  399SOL     OW 1625   2.606   2.473   0.720
  399SOL    HW2 1626   2.593   2.493   0.628
  399SOL    HW3 1627   2.614   2.558   0.762
  399SOL    MW4 1628   2.606   2.487   0.714
  400SOL     OW 1629   2.679   2.722   0.861
  400SOL    HW2 1630   2.679   2.717   0.956
  400SOL    HW3 1631   2.753   2.779   0.839
  400SOL    MW4 1632   2.688   2.729   0.870
  401SOL     OW 1633   2.916   2.792   0.476
  401SOL    HW2 1634   2.936   2.698   0.469
  401SOL    HW3 1635   2.821   2.796   0.463
  401SOL    MW4 1636   2.906   2.780   0.474
  402SOL     OW 1637   2.941   3.158   0.807
  402SOL    HW2 1638   2.857   3.198   0.785
  402SOL    HW3 1639   2.935   3.070   0.770
  402SOL    MW4 1640   2.929   3.152   0.799
  403SOL     OW 1641   2.681   3.244   0.716
  403SOL    HW2 1642   2.670   3.335   0.744
  403SOL    HW3 1643   2.616   3.196   0.767
  403SOL    MW4 1644   2.671   3.250   0.726
  404SOL     OW 1645   2.658   3.506   0.827
  404SOL    HW2 1646   2.663   3.500   0.923
  404SOL    HW3 1647   2.743   3.540   0.801
  404SOL    MW4 1648   2.670   3.509   0.837
  405SOL     OW 1649   2.929   3.575   0.732
  405SOL    HW2 1650   2.926   3.664   0.767
  405SOL    HW3 1651   2.919   3.586   0.637
  405SOL    MW4 1652   2.927   3.588   0.724
  406SOL     OW 1653   2.960   3.831   0.829
  406SOL    HW2 1654   2.959   3.844   0.924
  406SOL    HW3 1655   2.882   3.878   0.798
  406SOL    MW4 1656   2.949   3.839   0.838
  407SOL     OW 1657   2.759   3.997   0.769
  407SOL    HW2 1658   2.689   3.942   0.805
  407SOL    HW3 1659   2.763   3.971   0.677
  407SOL    MW4 1660   2.750   3.986   0.762
  408SOL     OW 1661   2.709   4.273   0.791
  408SOL    HW2 1662   2.696   4.278   0.886
  408SOL    HW3 1663   2.743   4.185   0.777
  408SOL    MW4 1664   2.712   4.262   0.802
  409SOL     OW 1665   2.953   4.436   0.761
  409SOL    HW2 1666   3.019   4.377   0.796
  409SOL    HW3 1667   2.870   4.389   0.773
  409SOL    MW4 1668   2.950   4.422   0.767
  410SOL     OW 1669   3.392   4.664   0.806
  410SOL    HW2 1670   3.414   4.673   0.899
  410SOL    HW3 1671   3.309   4.710   0.796
  410SOL    MW4 1672   3.384   4.671   0.817
  411SOL     OW 1673   3.146   0.139   0.776
  411SOL    HW2 1674   3.159   0.223   0.820
  411SOL    HW3 1675   3.069   0.101   0.819
  411SOL    MW4 1676   3.138   0.145   0.788
  412SOL     OW 1677   3.168   0.361   0.916
  412SOL    HW2 1678   3.162   0.368   1.011
  412SOL    HW3 1679   3.226   0.432   0.890
  412SOL    MW4 1680   3.175   0.371   0.925
  413SOL     OW 1681   3.352   0.532   0.764
  413SOL    HW2 1682   3.443   0.501   0.763
  413SOL    HW3 1683   3.331   0.547   0.672
  413SOL    MW4 1684   3.361   0.530   0.752
  414SOL     OW 1685   3.374   0.790   0.865
  414SOL    HW2 1686   3.291   0.821   0.828
  414SOL    HW3 1687   3.385   0.702   0.831
  414SOL    MW4 1688   3.365   0.783   0.855
  415SOL     OW 1689   3.125   0.929   0.729
  415SOL    HW2 1690   3.105   1.013   0.769
  415SOL    HW3 1691   3.062   0.868   0.768
  415SOL    MW4 1692   3.114   0.932   0.740
  416SOL     OW 1693   3.120   1.184   0.838
  416SOL    HW2 1694   3.132   1.144   0.925
  416SOL    HW3 1695   3.159   1.271   0.846
  416SOL    MW4 1696   3.127   1.190   0.851
  417SOL     OW 1697   3.480   1.304   0.704
  417SOL    HW2 1698   3.545   1.255   0.756
  417SOL    HW3 1699   3.522   1.387   0.685
  417SOL    MW4 1700   3.494   1.308   0.709
  418SOL     OW 1701   3.278   1.409   0.858
  418SOL    HW2 1702   3.316   1.449   0.936
  418SOL    HW3 1703   3.351   1.363   0.816
  418SOL    MW4 1704   3.292   1.408   0.863
  419SOL     OW 1705   3.147   1.625   0.768
  419SOL    HW2 1706   3.190   1.552   0.814
  419SOL    HW3 1707   3.124   1.589   0.682
  419SOL    MW4 1708   3.150   1.611   0.763
  420SOL     OW 1709   3.275   1.909   0.846
  420SOL    HW2 1710   3.249   1.915   0.938
  420SOL    HW3 1711   3.245   1.822   0.819
  420SOL    MW4 1712   3.267   1.898   0.855
  421SOL     OW 1713   3.585   1.984   0.874
  421SOL    HW2 1714   3.522   2.055   0.861
  421SOL    HW3 1715   3.533   1.904   0.868
  421SOL    MW4 1716   3.570   1.983   0.871
  422SOL     OW 1717   3.430   2.208   0.910
  422SOL    HW2 1718   3.373   2.239   0.981
  422SOL    HW3 1719   3.513   2.256   0.924
  422SOL    MW4 1720   3.434   2.218   0.921
  423SOL     OW 1721   3.125   2.481   0.752
  423SOL    HW2 1722   3.185   2.411   0.727
  423SOL    HW3 1723   3.042   2.436   0.768
  423SOL    MW4 1724   3.122   2.465   0.751
  424SOL     OW 1725   3.105   2.730   0.858
  424SOL    HW2 1726   3.118   2.646   0.814
  424SOL    HW3 1727   3.177   2.785   0.827
  424SOL    MW4 1728   3.116   2.726   0.848
  425SOL     OW 1729   3.304   2.891   0.734
  425SOL    HW2 1730   3.267   2.908   0.647
  425SOL    HW3 1731   3.381   2.836   0.717
  425SOL    MW4 1732   3.309   2.886   0.720
  426SOL     OW 1733   3.350   3.100   0.907
  426SOL    HW2 1734   3.347   3.080   1.001
  426SOL    HW3 1735   3.321   3.019   0.865
  426SOL    MW4 1736   3.346   3.086   0.914
  427SOL     OW 1737   3.191   3.252   0.742
  427SOL    HW2 1738   3.239   3.202   0.807
  427SOL    HW3 1739   3.099   3.236   0.762
  427SOL    MW4 1740   3.185   3.244   0.753
  428SOL     OW 1741   3.169   3.504   0.817
  428SOL    HW2 1742   3.169   3.409   0.800
  428SOL    HW3 1743   3.081   3.532   0.792
  428SOL    MW4 1744   3.157   3.495   0.811
  429SOL     OW 1745   3.357   3.893   0.640
  429SOL    HW2 1746   3.435   3.920   0.689
  429SOL    HW3 1747   3.370   3.800   0.624
  429SOL    MW4 1748   3.369   3.884   0.644
  430SOL     OW 1749   3.545   3.986   0.854
  430SOL    HW2 1750   3.537   4.081   0.864
  430SOL    HW3 1751   3.486   3.950   0.920
  430SOL    MW4 1752   3.536   3.994   0.864
  431SOL     OW 1753   3.110   4.024   0.697
  431SOL    HW2 1754   3.195   3.982   0.686
  431SOL    HW3 1755   3.059   3.962   0.749
  431SOL    MW4 1756   3.114   4.011   0.703
  432SOL     OW 1757   3.129   4.251   0.880
  432SOL    HW2 1758   3.207   4.296   0.848
  432SOL    HW3 1759   3.127   4.168   0.832
  432SOL    MW4 1760   3.139   4.246   0.869
  433SOL     OW 1761   3.316   4.401   0.758
  433SOL    HW2 1762   3.340   4.490   0.783
  433SOL    HW3 1763   3.318   4.402   0.662
  433SOL    MW4 1764   3.319   4.413   0.748
  434SOL     OW 1765   3.800   4.663   0.843
  434SOL    HW2 1766   3.876   4.714   0.817
  434SOL    HW3 1767   3.726   4.705   0.798
  434SOL    MW4 1768   3.800   4.676   0.834
  435SOL     OW 1769   3.596   0.146   0.741
  435SOL    HW2 1770   3.517   0.097   0.760
  435SOL    HW3 1771   3.612   0.131   0.647
  435SOL    MW4 1772   3.588   0.138   0.731
  436SOL     OW 1773   3.613   0.405   0.827
  436SOL    HW2 1774   3.615   0.395   0.923
  436SOL    HW3 1775   3.593   0.317   0.794
  436SOL    MW4 1776   3.611   0.392   0.836
  437SOL     OW 1777   3.855   0.525   0.778
  437SOL    HW2 1778   3.844   0.614   0.812
  437SOL    HW3 1779   3.774   0.480   0.803
  437SOL    MW4 1780   3.843   0.531   0.786
  438SOL     OW 1781   3.837   0.781   0.911
  438SOL    HW2 1782   3.872   0.770   1.000
  438SOL    HW3 1783   3.907   0.826   0.863
  438SOL    MW4 1784   3.851   0.785   0.917
  439SOL     OW 1785   3.621   0.846   0.753
  439SOL    HW2 1786   3.675   0.795   0.815
  439SOL    HW3 1787   3.531   0.833   0.784
  439SOL    MW4 1788   3.616   0.837   0.765
  440SOL     OW 1789   3.684   1.145   0.800
  440SOL    HW2 1790   3.665   1.159   0.893
  440SOL    HW3 1791   3.656   1.054   0.784
  440SOL    MW4 1792   3.678   1.135   0.811
  441SOL     OW 1793   3.896   1.289   0.716
  441SOL    HW2 1794   3.835   1.222   0.745
  441SOL    HW3 1795   3.894   1.283   0.620
  441SOL    MW4 1796   3.888   1.280   0.707
  442SOL     OW 1797   3.832   1.554   0.780
  442SOL    HW2 1798   3.915   1.595   0.757
  442SOL    HW3 1799   3.843   1.462   0.754
  442SOL    MW4 1800   3.844   1.547   0.774
  443SOL     OW 1801   3.583   1.547   0.654
  443SOL    HW2 1802   3.526   1.623   0.644
  443SOL    HW3 1803   3.658   1.580   0.704
  443SOL    MW4 1804   3.586   1.562   0.659
  444SOL     OW 1805   3.799   2.057   0.710
  444SOL    HW2 1806   3.870   2.013   0.756
  444SOL    HW3 1807   3.720   2.030   0.755
  444SOL    MW4 1808   3.798   2.048   0.722
  445SOL     OW 1809   3.808   2.337   0.710
  445SOL    HW2 1810   3.757   2.363   0.787
  445SOL    HW3 1811   3.805   2.241   0.711
  445SOL    MW4 1812   3.801   2.328   0.720
  446SOL     OW 1813   3.696   1.877   0.542
  446SOL    HW2 1814   3.736   1.950   0.590
  446SOL    HW3 1815   3.616   1.858   0.590
  446SOL    MW4 1816   3.691   1.884   0.555
  447SOL     OW 1817   3.663   2.395   0.942
  447SOL    HW2 1818   3.629   2.484   0.943
  447SOL    HW3 1819   3.717   2.389   1.021
  447SOL    MW4 1820   3.665   2.406   0.953
  448SOL     OW 1821   3.567   2.656   0.901
  448SOL    HW2 1822   3.548   2.688   0.989
  448SOL    HW3 1823   3.642   2.707   0.872
  448SOL    MW4 1824   3.574   2.667   0.908
  449SOL     OW 1825   3.775   2.830   0.820
  449SOL    HW2 1826   3.756   2.914   0.861
  449SOL    HW3 1827   3.776   2.849   0.726
  449SOL    MW4 1828   3.773   2.843   0.813
  450SOL     OW 1829   3.741   3.100   0.865
  450SOL    HW2 1830   3.828   3.129   0.836
  450SOL    HW3 1831   3.680   3.150   0.810
  450SOL    MW4 1832   3.744   3.111   0.854
  451SOL     OW 1833   3.543   3.276   0.767
  451SOL    HW2 1834   3.485   3.210   0.806
  451SOL    HW3 1835   3.504   3.294   0.681
  451SOL    MW4 1836   3.530   3.270   0.761
  452SOL     OW 1837   3.536   3.548   0.858
  452SOL    HW2 1838   3.534   3.453   0.845
  452SOL    HW3 1839   3.469   3.582   0.799
  452SOL    MW4 1840   3.527   3.540   0.848
  453SOL     OW 1841   3.751   3.609   0.720
  453SOL    HW2 1842   3.825   3.563   0.760
  453SOL    HW3 1843   3.676   3.586   0.775
  453SOL    MW4 1844   3.751   3.600   0.732
  454SOL     OW 1845   3.797   3.861   0.868
  454SOL    HW2 1846   3.711   3.902   0.878
  454SOL    HW3 1847   3.778   3.775   0.831
  454SOL    MW4 1848   3.783   3.855   0.864
  455SOL     OW 1849   3.158   3.923   0.282
  455SOL    HW2 1850   3.153   3.935   0.187
  455SOL    HW3 1851   3.242   3.961   0.307
  455SOL    MW4 1852   3.168   3.930   0.273
  456SOL     OW 1853   3.533   4.273   0.833
  456SOL    HW2 1854   3.615   4.313   0.804
  456SOL    HW3 1855   3.465   4.331   0.800
  456SOL    MW4 1856   3.535   4.286   0.825
  457SOL     OW 1857   3.789   4.382   0.797
  457SOL    HW2 1858   3.880   4.350   0.798
  457SOL    HW3 1859   3.797   4.476   0.815
  457SOL    MW4 1860   3.802   4.390   0.800
  458SOL     OW 1861   4.239   4.625   0.843
  458SOL    HW2 1862   4.239   4.633   0.939
  458SOL    HW3 1863   4.167   4.681   0.815
  458SOL    MW4 1864   4.230   4.634   0.852
  459SOL     OW 1865   4.035   0.121   0.757
  459SOL    HW2 1866   4.052   0.208   0.792
  459SOL    HW3 1867   4.069   0.124   0.667
  459SOL    MW4 1868   4.042   0.133   0.750
  460SOL     OW 1869   4.075   0.376   0.836
  460SOL    HW2 1870   4.151   0.426   0.807
  460SOL    HW3 1871   4.000   0.423   0.798
  460SOL    MW4 1872   4.075   0.389   0.827
  461SOL     OW 1873   4.278   0.550   0.766
  461SOL    HW2 1874   4.358   0.499   0.776
  461SOL    HW3 1875   4.266   0.558   0.671
  461SOL    MW4 1876   4.287   0.544   0.755
  462SOL     OW 1877   4.240   0.785   0.908
  462SOL    HW2 1878   4.172   0.823   0.853
  462SOL    HW3 1879   4.251   0.696   0.875
  462SOL    MW4 1880   4.233   0.778   0.896
  463SOL     OW 1881   4.050   0.905   0.756
  463SOL    HW2 1882   4.080   0.993   0.780
  463SOL    HW3 1883   4.061   0.901   0.661
  463SOL    MW4 1884   4.055   0.916   0.747
  464SOL     OW 1885   4.113   1.166   0.800
  464SOL    HW2 1886   4.083   1.151   0.890
  464SOL    HW3 1887   4.040   1.210   0.758
  464SOL    MW4 1888   4.099   1.170   0.807
  465SOL     OW 1889   4.364   1.279   0.744
  465SOL    HW2 1890   4.278   1.241   0.760
  465SOL    HW3 1891   4.424   1.224   0.793
  465SOL    MW4 1892   4.360   1.267   0.752
  466SOL     OW 1893   4.274   1.537   0.860
  466SOL    HW2 1894   4.284   1.540   0.955
  466SOL    HW3 1895   4.271   1.443   0.839
  466SOL    MW4 1896   4.275   1.525   0.870
  467SOL     OW 1897   4.062   1.655   0.682
  467SOL    HW2 1898   4.131   1.610   0.732
  467SOL    HW3 1899   4.102   1.670   0.596
  467SOL    MW4 1900   4.077   1.651   0.677
  468SOL     OW 1901   3.998   1.885   0.821
  468SOL    HW2 1902   4.002   1.798   0.783
  468SOL    HW3 1903   4.083   1.924   0.800
  468SOL    MW4 1904   4.010   1.879   0.813
  469SOL     OW 1905   4.246   2.029   0.779
  469SOL    HW2 1906   4.327   1.998   0.821
  469SOL    HW3 1907   4.267   2.033   0.686
  469SOL    MW4 1908   4.259   2.025   0.773
  470SOL     OW 1909   4.204   2.296   0.881
  470SOL    HW2 1910   4.136   2.353   0.846
  470SOL    HW3 1911   4.191   2.213   0.834
  470SOL    MW4 1912   4.193   2.292   0.870
  471SOL     OW 1913   4.039   2.491   0.763
  471SOL    HW2 1914   4.013   2.572   0.807
  471SOL    HW3 1915   3.956   2.446   0.747
  471SOL    MW4 1916   4.025   2.496   0.767
  472SOL     OW 1917   4.012   2.712   0.891
  472SOL    HW2 1918   4.090   2.752   0.850
  472SOL    HW3 1919   3.939   2.762   0.855
  472SOL    MW4 1920   4.013   2.724   0.881
  473SOL     OW 1921   4.258   2.819   0.768
  473SOL    HW2 1922   4.328   2.763   0.801
  473SOL    HW3 1923   4.262   2.810   0.672
  473SOL    MW4 1924   4.268   2.811   0.759
  474SOL     OW 1925   4.228   3.078   0.844
  474SOL    HW2 1926   4.234   2.985   0.820
  474SOL    HW3 1927   4.299   3.120   0.794
  474SOL    MW4 1928   4.238   3.071   0.834
  475SOL     OW 1929   3.971   3.200   0.782
  475SOL    HW2 1930   3.969   3.294   0.802
  475SOL    HW3 1931   4.055   3.170   0.816
  475SOL    MW4 1932   3.981   3.208   0.789
  476SOL     OW 1933   3.967   3.483   0.853
  476SOL    HW2 1934   3.979   3.480   0.948
  476SOL    HW3 1935   4.050   3.516   0.819
  476SOL    MW4 1936   3.979   3.487   0.861
  477SOL     OW 1937   4.193   3.594   0.732
  477SOL    HW2 1938   4.194   3.681   0.771
  477SOL    HW3 1939   4.182   3.610   0.638
  477SOL    MW4 1940   4.191   3.607   0.725
  478SOL     OW 1941   4.235   3.831   0.863
  478SOL    HW2 1942   4.264   3.843   0.953
  478SOL    HW3 1943   4.157   3.885   0.854
  478SOL    MW4 1944   4.229   3.840   0.874
  479SOL     OW 1945   4.030   4.000   0.784
  479SOL    HW2 1946   3.938   3.976   0.796
  479SOL    HW3 1947   4.042   4.003   0.689
  479SOL    MW4 1948   4.020   3.997   0.773
  480SOL     OW 1949   4.036   4.270   0.821
  480SOL    HW2 1950   4.115   4.298   0.775
  480SOL    HW3 1951   4.039   4.175   0.818
  480SOL    MW4 1952   4.047   4.261   0.814
  481SOL     OW 1953   4.273   4.386   0.706
  481SOL    HW2 1954   4.249   4.472   0.741
  481SOL    HW3 1955   4.331   4.348   0.772
  481SOL    MW4 1956   4.278   4.393   0.719
  482SOL     OW 1957   0.203   4.645   1.135
  482SOL    HW2 1958   0.277   4.686   1.180
  482SOL    HW3 1959   0.223   4.656   1.042
  482SOL    MW4 1960   0.216   4.652   1.129
  483SOL     OW 1961   4.468   0.098   1.260
  483SOL    HW2 1962   4.395   0.064   1.208
  483SOL    HW3 1963   4.547   0.068   1.213
  483SOL    MW4 1964   4.469   0.090   1.247
  484SOL     OW 1965   0.000   0.356   1.130
  484SOL    HW2 1966  -0.072   0.398   1.178
  484SOL    HW3 1967   0.009   0.270   1.170
  484SOL    MW4 1968  -0.008   0.351   1.142
  485SOL     OW 1969   0.234   0.519   1.248
  485SOL    HW2 1970   0.233   0.603   1.203
  485SOL    HW3 1971   0.157   0.473   1.214
  485SOL    MW4 1972   0.224   0.524   1.238
  486SOL     OW 1973   0.238   0.764   1.125
  486SOL    HW2 1974   0.312   0.802   1.173
  486SOL    HW3 1975   0.163   0.816   1.152
  486SOL    MW4 1976   0.238   0.776   1.135
  487SOL     OW 1977   0.019   0.901   1.232
  487SOL    HW2 1978   0.019   0.919   1.326
  487SOL    HW3 1979  -0.070   0.868   1.214
  487SOL    MW4 1980   0.007   0.899   1.242
  488SOL     OW 1981   0.008   1.157   1.171
  488SOL    HW2 1982  -0.084   1.183   1.183
  488SOL    HW3 1983   0.008   1.062   1.183
  488SOL    MW4 1984  -0.004   1.148   1.174
  489SOL     OW 1985   0.237   1.268   1.270
  489SOL    HW2 1986   0.302   1.211   1.230
  489SOL    HW3 1987   0.153   1.235   1.237
  489SOL    MW4 1988   0.234   1.257   1.260
  490SOL     OW 1989   0.257   1.519   1.134
  490SOL    HW2 1990   0.243   1.430   1.169
  490SOL    HW3 1991   0.245   1.510   1.040
  490SOL    MW4 1992   0.253   1.506   1.126
  491SOL     OW 1993   0.017   1.660   1.217
  491SOL    HW2 1994   0.023   1.750   1.183
  491SOL    HW3 1995   0.103   1.623   1.200
  491SOL    MW4 1996   0.029   1.667   1.210
  492SOL     OW 1997   4.487   1.930   1.150
  492SOL    HW2 1998   4.406   1.975   1.175
  492SOL    HW3 1999   4.483   1.927   1.054
  492SOL    MW4 2000   4.475   1.936   1.141
  493SOL     OW 2001   0.242   2.043   1.216
  493SOL    HW2 2002   0.234   2.134   1.190
  493SOL    HW3 2003   0.155   2.006   1.204
  493SOL    MW4 2004   0.230   2.050   1.211
  494SOL     OW 2005   0.196   2.314   1.142
  494SOL    HW2 2006   0.273   2.362   1.172
  494SOL    HW3 2007   0.123   2.357   1.186
  494SOL    MW4 2008   0.197   2.326   1.152
  495SOL     OW 2009   4.477   2.437   1.256
  495SOL    HW2 2010   4.469   2.446   1.351
  495SOL    HW3 2011   4.395   2.395   1.229
  495SOL    MW4 2012   4.465   2.433   1.265
  496SOL     OW 2013   4.441   2.693   1.156
  496SOL    HW2 2014   4.382   2.748   1.208
  496SOL    HW3 2015   4.462   2.619   1.213
  496SOL    MW4 2016   4.436   2.690   1.170
  497SOL     OW 2017   0.167   2.855   1.242
  497SOL    HW2 2018   0.180   2.837   1.335
  497SOL    HW3 2019   0.097   2.795   1.215
  497SOL    MW4 2020   0.160   2.844   1.251
  498SOL     OW 2021   0.227   3.083   1.097
  498SOL    HW2 2022   0.277   3.135   1.160
  498SOL    HW3 2023   0.203   3.004   1.145
  498SOL    MW4 2024   0.231   3.080   1.112
  499SOL     OW 2025   4.483   3.201   1.234
  499SOL    HW2 2026   4.394   3.166   1.223
  499SOL    HW3 2027   4.539   3.141   1.186
  499SOL    MW4 2028   4.478   3.188   1.226
  500SOL     OW 2029   4.478   3.482   1.135
  500SOL    HW2 2030   4.461   3.395   1.170
  500SOL    HW3 2031   4.482   3.470   1.040
  500SOL    MW4 2032   4.477   3.469   1.127
  501SOL     OW 2033   0.197   3.626   1.262
  501SOL    HW2 2034   0.217   3.603   1.352
  501SOL    HW3 2035   0.115   3.580   1.242
  501SOL    MW4 2036   0.189   3.617   1.271
  502SOL     OW 2037   0.246   3.870   1.135
  502SOL    HW2 2038   0.168   3.906   1.177
  502SOL    HW3 2039   0.252   3.781   1.168
  502SOL    MW4 2040   0.237   3.863   1.145
  503SOL     OW 2041   0.023   3.992   1.228
  503SOL    HW2 2042   0.024   3.985   1.323
  503SOL    HW3 2043  -0.057   3.946   1.201
  503SOL    MW4 2044   0.013   3.985   1.237
  504SOL     OW 2045   4.456   4.247   1.154
  504SOL    HW2 2046   4.538   4.293   1.176
  504SOL    HW3 2047   4.469   4.159   1.189
  504SOL    MW4 2048   4.469   4.242   1.162
  505SOL     OW 2049   0.196   4.384   1.219
  505SOL    HW2 2050   0.203   4.383   1.314
  505SOL    HW3 2051   0.196   4.477   1.196
  505SOL    MW4 2052   0.197   4.396   1.228
  506SOL     OW 2053   0.679   4.636   1.163
  506SOL    HW2 2054   0.760   4.657   1.208
  506SOL    HW3 2055   0.650   4.553   1.202
  506SOL    MW4 2056   0.686   4.628   1.174
  507SOL     OW 2057   0.438   0.130   1.224
  507SOL    HW2 2058   0.447   0.212   1.175
  507SOL    HW3 2059   0.521   0.085   1.211
  507SOL    MW4 2060   0.450   0.135   1.216
  508SOL     OW 2061   0.430   0.378   1.126
  508SOL    HW2 2062   0.355   0.423   1.165
  508SOL    HW3 2063   0.422   0.394   1.032
  508SOL    MW4 2064   0.419   0.386   1.118
  509SOL     OW 2065   0.676   0.503   1.256
  509SOL    HW2 2066   0.694   0.579   1.201
  509SOL    HW3 2067   0.593   0.468   1.223
  509SOL    MW4 2068   0.667   0.508   1.244
  510SOL     OW 2069   0.720   0.777   1.131
  510SOL    HW2 2070   0.647   0.818   1.176
  510SOL    HW3 2071   0.697   0.780   1.038
  510SOL    MW4 2072   0.707   0.783   1.125
  511SOL     OW 2073   0.470   0.887   1.231
  511SOL    HW2 2074   0.481   0.889   1.326
  511SOL    HW3 2075   0.472   0.979   1.204
  511SOL    MW4 2076   0.472   0.899   1.240
  512SOL     OW 2077   0.463   1.143   1.153
  512SOL    HW2 2078   0.538   1.199   1.176
  512SOL    HW3 2079   0.461   1.143   1.057
  512SOL    MW4 2080   0.472   1.151   1.143
  513SOL     OW 2081   0.668   1.292   1.253
  513SOL    HW2 2082   0.754   1.250   1.257
  513SOL    HW3 2083   0.687   1.383   1.228
  513SOL    MW4 2084   0.682   1.299   1.250
  514SOL     OW 2085   0.712   1.537   1.130
  514SOL    HW2 2086   0.781   1.587   1.174
  514SOL    HW3 2087   0.632   1.585   1.149
  514SOL    MW4 2088   0.711   1.550   1.138
  515SOL     OW 2089   0.471   1.670   1.217
  515SOL    HW2 2090   0.474   1.667   1.313
  515SOL    HW3 2091   0.396   1.616   1.194
  515SOL    MW4 2092   0.462   1.663   1.227
  516SOL     OW 2093   0.459   1.916   1.111
  516SOL    HW2 2094   0.462   1.826   1.144
  516SOL    HW3 2095   0.383   1.955   1.154
  516SOL    MW4 2096   0.449   1.910   1.121
  517SOL     OW 2097   0.677   2.079   1.199
  517SOL    HW2 2098   0.655   2.083   1.292
  517SOL    HW3 2099   0.604   2.033   1.159
  517SOL    MW4 2100   0.664   2.074   1.206
  518SOL     OW 2101   0.661   2.350   1.119
  518SOL    HW2 2102   0.582   2.377   1.166
  518SOL    HW3 2103   0.681   2.262   1.154
  518SOL    MW4 2104   0.653   2.342   1.130
  519SOL     OW 2105   0.426   2.463   1.209
  519SOL    HW2 2106   0.453   2.468   1.300
  519SOL    HW3 2107   0.411   2.554   1.183
  519SOL    MW4 2108   0.427   2.476   1.217
  520SOL     OW 2109   0.409   2.741   1.139
  520SOL    HW2 2110   0.323   2.775   1.164
  520SOL    HW3 2111   0.416   2.761   1.045
  520SOL    MW4 2112   0.398   2.748   1.130
  521SOL     OW 2113   0.655   2.863   1.213
  521SOL    HW2 2114   0.655   2.956   1.190
  521SOL    HW3 2115   0.564   2.836   1.202
  521SOL    MW4 2116   0.643   2.872   1.208
  522SOL     OW 2117   0.624   3.143   1.108
  522SOL    HW2 2118   0.706   3.184   1.135
  522SOL    HW3 2119   0.636   3.123   1.015
  522SOL    MW4 2120   0.636   3.146   1.100
  523SOL     OW 2121   0.410   3.251   1.239
  523SOL    HW2 2122   0.393   3.332   1.192
  523SOL    HW3 2123   0.492   3.218   1.203
  523SOL    MW4 2124   0.418   3.257   1.228
  524SOL     OW 2125   0.397   3.502   1.110
  524SOL    HW2 2126   0.476   3.544   1.145
  524SOL    HW3 2127   0.325   3.549   1.151
  524SOL    MW4 2128   0.398   3.514   1.120
  525SOL     OW 2129   0.641   3.626   1.210
  525SOL    HW2 2130   0.648   3.610   1.304
  525SOL    HW3 2131   0.657   3.720   1.201
  525SOL    MW4 2132   0.644   3.637   1.221
  526SOL     OW 2133   0.680   3.917   1.139
  526SOL    HW2 2134   0.597   3.955   1.168
  526SOL    HW3 2135   0.689   3.946   1.048
  526SOL    MW4 2136   0.670   3.926   1.130
  527SOL     OW 2137   0.441   4.031   1.243
  527SOL    HW2 2138   0.436   4.114   1.195
  527SOL    HW3 2139   0.362   3.983   1.216
  527SOL    MW4 2140   0.430   4.036   1.233
  528SOL     OW 2141   0.440   4.293   1.136
  528SOL    HW2 2142   0.509   4.333   1.189
  528SOL    HW3 2143   0.361   4.341   1.160
  528SOL    MW4 2144   0.439   4.304   1.146
  529SOL     OW 2145   0.646   4.366   1.285
  529SOL    HW2 2146   0.664   4.365   1.379
  529SOL    HW3 2147   0.727   4.334   1.244
  529SOL    MW4 2148   0.659   4.362   1.292
  530SOL     OW 2149   1.145   4.630   1.163
  530SOL    HW2 2150   1.118   4.542   1.189
  530SOL    HW3 2151   1.130   4.634   1.069
  530SOL    MW4 2152   1.140   4.619   1.154
  531SOL     OW 2153   0.899   0.075   1.269
  531SOL    HW2 2154   0.906   0.098   1.362
  531SOL    HW3 2155   0.980   0.029   1.249
  531SOL    MW4 2156   0.911   0.072   1.279
  532SOL     OW 2157   0.923   0.350   1.193
  532SOL    HW2 2158   0.910   0.258   1.216
  532SOL    HW3 2159   0.838   0.391   1.210
  532SOL    MW4 2160   0.910   0.343   1.198
  533SOL     OW 2161   1.169   0.499   1.287
  533SOL    HW2 2162   1.172   0.501   1.382
  533SOL    HW3 2163   1.088   0.454   1.265
  533SOL    MW4 2164   1.159   0.494   1.296
  534SOL     OW 2165   1.162   0.729   1.129
  534SOL    HW2 2166   1.083   0.773   1.159
  534SOL    HW3 2167   1.178   0.661   1.194
  534SOL    MW4 2168   1.153   0.726   1.141
  535SOL     OW 2169   0.950   0.880   1.224
  535SOL    HW2 2170   0.948   0.976   1.223
  535SOL    HW3 2171   0.874   0.855   1.172
  535SOL    MW4 2172   0.939   0.890   1.217
  536SOL     OW 2173   0.896   1.149   1.164
  536SOL    HW2 2174   0.978   1.192   1.188
  536SOL    HW3 2175   0.898   1.144   1.069
  536SOL    MW4 2176   0.907   1.154   1.155
  537SOL     OW 2177   1.139   1.273   1.234
  537SOL    HW2 2178   1.140   1.263   1.329
  537SOL    HW3 2179   1.206   1.213   1.202
  537SOL    MW4 2180   1.148   1.264   1.242
  538SOL     OW 2181   1.136   1.532   1.140
  538SOL    HW2 2182   1.141   1.441   1.167
  538SOL    HW3 2183   1.142   1.529   1.044
  538SOL    MW4 2184   1.138   1.520   1.131
  539SOL     OW 2185   0.905   1.660   1.260
  539SOL    HW2 2186   0.899   1.746   1.218
  539SOL    HW3 2187   0.988   1.624   1.228
  539SOL    MW4 2188   0.915   1.667   1.250
  540SOL     OW 2189   0.872   1.912   1.127
  540SOL    HW2 2190   0.950   1.960   1.154
  540SOL    HW3 2191   0.799   1.966   1.156
  540SOL    MW4 2192   0.873   1.925   1.134
  541SOL     OW 2193   1.120   2.077   1.184
  541SOL    HW2 2194   1.113   2.078   1.280
  541SOL    HW3 2195   1.120   2.169   1.159
  541SOL    MW4 2196   1.119   2.089   1.194
  542SOL     OW 2197   1.114   2.352   1.109
  542SOL    HW2 2198   1.188   2.383   1.160
  542SOL    HW3 2199   1.037   2.377   1.160
  542SOL    MW4 2200   1.113   2.359   1.122
  543SOL     OW 2201   0.885   2.479   1.239
  543SOL    HW2 2202   0.872   2.463   1.332
  543SOL    HW3 2203   0.813   2.432   1.196
  543SOL    MW4 2204   0.874   2.471   1.245
  544SOL     OW 2205   0.847   2.684   1.072
  544SOL    HW2 2206   0.857   2.607   1.128
  544SOL    HW3 2207   0.778   2.735   1.115
  544SOL    MW4 2208   0.839   2.680   1.085
  545SOL     OW 2209   1.063   2.851   1.211
  545SOL    HW2 2210   1.061   2.839   1.305
  545SOL    HW3 2211   0.993   2.795   1.177
  545SOL    MW4 2212   1.053   2.842   1.219
  546SOL     OW 2213   1.071   3.108   1.109
  546SOL    HW2 2214   1.090   3.019   1.139
  546SOL    HW3 2215   1.079   3.104   1.014
  546SOL    MW4 2216   1.075   3.096   1.101
  547SOL     OW 2217   0.855   3.262   1.211
  547SOL    HW2 2218   0.868   3.350   1.174
  547SOL    HW3 2219   0.928   3.210   1.176
  547SOL    MW4 2220   0.866   3.267   1.202
  548SOL     OW 2221   0.884   3.529   1.092
  548SOL    HW2 2222   0.797   3.552   1.125
  548SOL    HW3 2223   0.874   3.528   0.997
  548SOL    MW4 2224   0.871   3.532   1.084
  549SOL     OW 2225   1.133   3.681   1.180
  549SOL    HW2 2226   1.197   3.629   1.131
  549SOL    HW3 2227   1.048   3.645   1.154
  549SOL    MW4 2228   1.130   3.669   1.170
  550SOL     OW 2229   1.092   3.923   1.065
  550SOL    HW2 2230   1.039   3.958   1.136
  550SOL    HW3 2231   1.121   3.837   1.097
  550SOL    MW4 2232   1.089   3.916   1.078
  551SOL     OW 2233   0.912   4.005   1.242
  551SOL    HW2 2234   0.930   3.998   1.336
  551SOL    HW3 2235   0.832   3.954   1.229
  551SOL    MW4 2236   0.904   3.997   1.252
  552SOL     OW 2237   0.878   4.254   1.149
  552SOL    HW2 2238   0.890   4.166   1.184
  552SOL    HW3 2239   0.889   4.244   1.054
  552SOL    MW4 2240   0.881   4.241   1.141
  553SOL     OW 2241   1.109   4.384   1.254
  553SOL    HW2 2242   1.123   4.366   1.347
  553SOL    HW3 2243   1.031   4.332   1.231
  553SOL    MW4 2244   1.100   4.375   1.263
  554SOL     OW 2245   1.628   4.603   1.100
  554SOL    HW2 2246   1.678   4.672   1.145
  554SOL    HW3 2247   1.646   4.524   1.150
  554SOL    MW4 2248   1.637   4.602   1.112
  555SOL     OW 2249   1.373   0.090   1.227
  555SOL    HW2 2250   1.445   0.027   1.226
  555SOL    HW3 2251   1.297   0.040   1.197
  555SOL    MW4 2252   1.372   0.075   1.223
  556SOL     OW 2253   1.375   0.347   1.122
  556SOL    HW2 2254   1.370   0.259   1.158
  556SOL    HW3 2255   1.309   0.397   1.171
  556SOL    MW4 2256   1.366   0.342   1.134
  557SOL     OW 2257   1.612   0.467   1.239
  557SOL    HW2 2258   1.599   0.561   1.221
  557SOL    HW3 2259   1.542   0.424   1.189
  557SOL    MW4 2260   1.601   0.474   1.230
  558SOL     OW 2261   1.615   0.748   1.171
  558SOL    HW2 2262   1.684   0.807   1.203
  558SOL    HW3 2263   1.621   0.754   1.076
  558SOL    MW4 2264   1.625   0.757   1.163
  559SOL     OW 2265   1.378   0.872   1.250
  559SOL    HW2 2266   1.462   0.833   1.226
  559SOL    HW3 2267   1.315   0.834   1.188
  559SOL    MW4 2268   1.380   0.862   1.238
  560SOL     OW 2269   1.362   1.140   1.127
  560SOL    HW2 2270   1.375   1.047   1.148
  560SOL    HW3 2271   1.361   1.142   1.031
  560SOL    MW4 2272   1.363   1.128   1.117
  561SOL     OW 2273   1.552   1.327   1.196
  561SOL    HW2 2274   1.634   1.279   1.199
  561SOL    HW3 2275   1.484   1.258   1.199
  561SOL    MW4 2276   1.554   1.311   1.196
  562SOL     OW 2277   1.562   1.580   1.078
  562SOL    HW2 2278   1.630   1.612   1.137
  562SOL    HW3 2279   1.556   1.486   1.097
  562SOL    MW4 2280   1.570   1.572   1.088
  563SOL     OW 2281   1.349   1.692   1.236
  563SOL    HW2 2282   1.430   1.648   1.213
  563SOL    HW3 2283   1.280   1.628   1.215
  563SOL    MW4 2284   1.350   1.678   1.230
  564SOL     OW 2285   1.364   1.967   1.092
  564SOL    HW2 2286   1.358   1.876   1.121
  564SOL    HW3 2287   1.287   2.009   1.130
  564SOL    MW4 2288   1.353   1.960   1.101
  565SOL     OW 2289   1.585   2.066   1.222
  565SOL    HW2 2290   1.579   2.161   1.211
  565SOL    HW3 2291   1.505   2.032   1.181
  565SOL    MW4 2292   1.574   2.074   1.215
  566SOL     OW 2293   1.583   2.338   1.145
  566SOL    HW2 2294   1.500   2.376   1.172
  566SOL    HW3 2295   1.581   2.339   1.049
  566SOL    MW4 2296   1.572   2.343   1.136
  567SOL     OW 2297   1.334   2.448   1.222
  567SOL    HW2 2298   1.317   2.457   1.316
  567SOL    HW3 2299   1.333   2.537   1.188
  567SOL    MW4 2300   1.331   2.461   1.230
  568SOL     OW 2301   1.288   2.703   1.138
  568SOL    HW2 2302   1.358   2.747   1.185
  568SOL    HW3 2303   1.209   2.753   1.160
  568SOL    MW4 2304   1.287   2.716   1.147
  569SOL     OW 2305   1.537   2.820   1.220
  569SOL    HW2 2306   1.615   2.782   1.180
  569SOL    HW3 2307   1.526   2.903   1.175
  569SOL    MW4 2308   1.546   2.826   1.209
  570SOL     OW 2309   1.543   3.078   1.092
  570SOL    HW2 2310   1.609   3.117   1.150
  570SOL    HW3 2311   1.466   3.133   1.103
  570SOL    MW4 2312   1.542   3.090   1.101
  571SOL     OW 2313   1.314   3.256   1.161
  571SOL    HW2 2314   1.326   3.235   1.253
  571SOL    HW3 2315   1.228   3.221   1.139
  571SOL    MW4 2316   1.304   3.249   1.170
  572SOL     OW 2317   1.333   3.522   1.068
  572SOL    HW2 2318   1.321   3.430   1.094
  572SOL    HW3 2319   1.340   3.519   0.973
  572SOL    MW4 2320   1.332   3.509   1.059
  573SOL     OW 2321   1.572   3.629   1.187
  573SOL    HW2 2322   1.579   3.720   1.156
  573SOL    HW3 2323   1.492   3.596   1.146
  573SOL    MW4 2324   1.562   3.637   1.178
  574SOL     OW 2325   1.577   3.895   1.128
  574SOL    HW2 2326   1.495   3.939   1.153
  574SOL    HW3 2327   1.592   3.923   1.038
  574SOL    MW4 2328   1.568   3.904   1.119
  575SOL     OW 2329   1.334   4.013   1.219
  575SOL    HW2 2330   1.340   4.108   1.220
  575SOL    HW3 2331   1.253   3.994   1.172
  575SOL    MW4 2332   1.324   4.023   1.213
  576SOL     OW 2333   1.363   4.302   1.173
  576SOL    HW2 2334   1.299   4.373   1.179
  576SOL    HW3 2335   1.386   4.298   1.081
  576SOL    MW4 2336   1.357   4.311   1.162
  577SOL     OW 2337   1.627   4.385   1.261
  577SOL    HW2 2338   1.607   4.400   1.354
  577SOL    HW3 2339   1.551   4.338   1.227
  577SOL    MW4 2340   1.614   4.381   1.269
  578SOL     OW 2341   2.013   0.052   1.149
  578SOL    HW2 2342   2.004  -0.043   1.146
  578SOL    HW3 2343   2.001   0.080   1.058
  578SOL    MW4 2344   2.010   0.043   1.136
  579SOL     OW 2345   1.771   0.151   1.218
  579SOL    HW2 2346   1.783   0.230   1.167
  579SOL    HW3 2347   1.854   0.103   1.208
  579SOL    MW4 2348   1.784   0.155   1.210
  580SOL     OW 2349   1.847   0.398   1.116
  580SOL    HW2 2350   1.770   0.428   1.163
  580SOL    HW3 2351   1.820   0.396   1.024
  580SOL    MW4 2352   1.834   0.402   1.110
  581SOL     OW 2353   2.070   0.499   1.238
  581SOL    HW2 2354   2.059   0.501   1.333
  581SOL    HW3 2355   1.988   0.460   1.205
  581SOL    MW4 2356   2.058   0.494   1.246
  582SOL     OW 2357   2.034   0.755   1.126
  582SOL    HW2 2358   2.036   0.664   1.156
  582SOL    HW3 2359   2.001   0.749   1.036
  582SOL    MW4 2360   2.030   0.742   1.118
  583SOL     OW 2361   1.821   0.911   1.238
  583SOL    HW2 2362   1.824   0.907   1.333
  583SOL    HW3 2363   1.898   0.861   1.209
  583SOL    MW4 2364   1.832   0.904   1.247
  584SOL     OW 2365   1.777   1.163   1.139
  584SOL    HW2 2366   1.801   1.075   1.169
  584SOL    HW3 2367   1.758   1.153   1.046
  584SOL    MW4 2368   1.777   1.150   1.131
  585SOL     OW 2369   2.020   1.273   1.204
  585SOL    HW2 2370   2.099   1.222   1.188
  585SOL    HW3 2371   1.952   1.227   1.155
  585SOL    MW4 2372   2.022   1.260   1.195
  586SOL     OW 2373   2.066   1.516   1.094
  586SOL    HW2 2374   2.046   1.425   1.118
  586SOL    HW3 2375   2.029   1.526   1.006
  586SOL    MW4 2376   2.058   1.506   1.085
  587SOL     OW 2377   1.799   1.631   1.200
  587SOL    HW2 2378   1.810   1.718   1.162
  587SOL    HW3 2379   1.866   1.578   1.157
  587SOL    MW4 2380   1.810   1.636   1.189
  588SOL     OW 2381   1.801   1.916   1.124
  588SOL    HW2 2382   1.731   1.969   1.162
  588SOL    HW3 2383   1.789   1.924   1.029
  588SOL    MW4 2384   1.790   1.924   1.117
  589SOL     OW 2385   2.028   2.036   1.250
  589SOL    HW2 2386   2.011   2.040   1.344
  589SOL    HW3 2387   1.955   1.985   1.215
  589SOL    MW4 2388   2.017   2.030   1.258
  590SOL     OW 2389   2.024   2.279   1.085
  590SOL    HW2 2390   2.095   2.334   1.117
  590SOL    HW3 2391   2.035   2.196   1.131
  590SOL    MW4 2392   2.035   2.275   1.095
  591SOL     OW 2393   1.822   2.475   1.119
  591SOL    HW2 2394   1.885   2.404   1.108
  591SOL    HW3 2395   1.739   2.430   1.136
  591SOL    MW4 2396   1.819   2.460   1.120
  592SOL     OW 2397   1.780   2.745   1.078
  592SOL    HW2 2398   1.779   2.650   1.092
  592SOL    HW3 2399   1.806   2.755   0.986
  592SOL    MW4 2400   1.783   2.734   1.067
  593SOL     OW 2401   2.022   2.831   1.169
  593SOL    HW2 2402   2.025   2.923   1.144
  593SOL    HW3 2403   1.939   2.799   1.132
  593SOL    MW4 2404   2.011   2.839   1.161
  594SOL     OW 2405   1.999   3.098   1.101
  594SOL    HW2 2406   1.919   3.144   1.128
  594SOL    HW3 2407   1.984   3.079   1.008
  594SOL    MW4 2408   1.986   3.102   1.092
  595SOL     OW 2409   1.767   3.225   1.199
  595SOL    HW2 2410   1.776   3.230   1.294
  595SOL    HW3 2411   1.802   3.308   1.167
  595SOL    MW4 2412   1.773   3.236   1.208
  596SOL     OW 2413   1.829   3.496   1.115
  596SOL    HW2 2414   1.893   3.556   1.153
  596SOL    HW3 2415   1.744   3.528   1.147
  596SOL    MW4 2416   1.826   3.508   1.124
  597SOL     OW 2417   2.034   3.650   1.210
  597SOL    HW2 2418   2.033   3.647   1.306
  597SOL    HW3 2419   2.109   3.597   1.185
  597SOL    MW4 2420   2.043   3.643   1.219
  598SOL     OW 2421   2.051   3.880   1.070
  598SOL    HW2 2422   1.967   3.916   1.097
  598SOL    HW3 2423   2.061   3.800   1.120
  598SOL    MW4 2424   2.041   3.874   1.080
  599SOL     OW 2425   1.821   3.970   1.189
  599SOL    HW2 2426   1.832   3.975   1.284
  599SOL    HW3 2427   1.730   3.944   1.176
  599SOL    MW4 2428   1.810   3.967   1.199
  600SOL     OW 2429   1.830   4.235   1.142
  600SOL    HW2 2430   1.825   4.142   1.167
  600SOL    HW3 2431   1.765   4.278   1.198
  600SOL    MW4 2432   1.821   4.228   1.153
  601SOL     OW 2433   2.020   4.431   1.188
  601SOL    HW2 2434   2.037   4.422   1.282
  601SOL    HW3 2435   1.950   4.368   1.170
  601SOL    MW4 2436   2.013   4.421   1.198
  602SOL     OW 2437   2.483   4.657   1.097
  602SOL    HW2 2438   2.561   4.702   1.128
  602SOL    HW3 2439   2.410   4.703   1.137
  602SOL    MW4 2440   2.484   4.669   1.106
  603SOL     OW 2441   2.273   0.126   1.236
  603SOL    HW2 2442   2.280   0.214   1.198
  603SOL    HW3 2443   2.192   0.090   1.200
  603SOL    MW4 2444   2.263   0.133   1.226
  604SOL     OW 2445   2.281   0.381   1.105
  604SOL    HW2 2446   2.197   0.403   1.147
  604SOL    HW3 2447   2.270   0.409   1.014
  604SOL    MW4 2448   2.268   0.388   1.099
  605SOL     OW 2449   2.498   0.493   1.215
  605SOL    HW2 2450   2.513   0.484   1.309
  605SOL    HW3 2451   2.406   0.467   1.203
  605SOL    MW4 2452   2.488   0.488   1.226
  606SOL     OW 2453   2.466   0.760   1.097
  606SOL    HW2 2454   2.472   0.667   1.120
  606SOL    HW3 2455   2.448   0.761   1.003
  606SOL    MW4 2456   2.464   0.748   1.088
  607SOL     OW 2457   2.270   0.886   1.243
  607SOL    HW2 2458   2.340   0.838   1.199
  607SOL    HW3 2459   2.189   0.849   1.209
  607SOL    MW4 2460   2.269   0.875   1.233
  608SOL     OW 2461   2.262   1.145   1.157
  608SOL    HW2 2462   2.326   1.201   1.200
  608SOL    HW3 2463   2.281   1.057   1.190
  608SOL    MW4 2464   2.273   1.141   1.167
  609SOL     OW 2465   2.461   1.269   1.280
  609SOL    HW2 2466   2.533   1.212   1.254
  609SOL    HW3 2467   2.472   1.348   1.228
  609SOL    MW4 2468   2.472   1.272   1.270
  610SOL     OW 2469   2.457   1.514   1.140
  610SOL    HW2 2470   2.388   1.555   1.192
  610SOL    HW3 2471   2.423   1.514   1.051
  610SOL    MW4 2472   2.443   1.520   1.135
  611SOL     OW 2473   2.265   1.672   1.236
  611SOL    HW2 2474   2.262   1.763   1.208
  611SOL    HW3 2475   2.193   1.630   1.188
  611SOL    MW4 2476   2.255   1.678   1.226
  612SOL     OW 2477   2.277   1.938   1.154
  612SOL    HW2 2478   2.194   1.967   1.191
  612SOL    HW3 2479   2.264   1.942   1.059
  612SOL    MW4 2480   2.265   1.943   1.147
  613SOL     OW 2481   2.518   2.057   1.238
  613SOL    HW2 2482   2.585   2.010   1.189
  613SOL    HW3 2483   2.437   2.008   1.222
  613SOL    MW4 2484   2.516   2.044   1.229
  614SOL     OW 2485   2.492   2.330   1.162
  614SOL    HW2 2486   2.504   2.239   1.188
  614SOL    HW3 2487   2.480   2.327   1.067
  614SOL    MW4 2488   2.492   2.318   1.153
  615SOL     OW 2489   2.241   2.433   1.197
  615SOL    HW2 2490   2.233   2.439   1.292
  615SOL    HW3 2491   2.325   2.389   1.183
  615SOL    MW4 2492   2.251   2.428   1.207
  616SOL     OW 2493   2.230   2.672   1.045
  616SOL    HW2 2494   2.241   2.587   1.087
  616SOL    HW3 2495   2.154   2.711   1.089
  616SOL    MW4 2496   2.221   2.666   1.056
  617SOL     OW 2497   2.436   2.805   1.191
  617SOL    HW2 2498   2.409   2.805   1.283
  617SOL    HW3 2499   2.367   2.757   1.146
  617SOL    MW4 2500   2.423   2.799   1.198
  618SOL     OW 2501   2.479   3.082   1.139
  618SOL    HW2 2502   2.393   3.123   1.145
  618SOL    HW3 2503   2.463   2.990   1.159
  618SOL    MW4 2504   2.465   3.075   1.142
  619SOL     OW 2505   2.250   3.212   1.177
  619SOL    HW2 2506   2.229   3.303   1.154
  619SOL    HW3 2507   2.170   3.163   1.157
  619SOL    MW4 2508   2.236   3.218   1.171
  620SOL     OW 2509   2.241   3.498   1.139
  620SOL    HW2 2510   2.322   3.539   1.172
  620SOL    HW3 2511   2.251   3.499   1.044
  620SOL    MW4 2512   2.253   3.504   1.131
  621SOL     OW 2513   2.451   3.637   1.239
  621SOL    HW2 2514   2.454   3.645   1.334
  621SOL    HW3 2515   2.451   3.727   1.207
  621SOL    MW4 2516   2.451   3.650   1.247
  622SOL     OW 2517   2.505   3.909   1.135
  622SOL    HW2 2518   2.424   3.960   1.143
  622SOL    HW3 2519   2.513   3.892   1.041
  622SOL    MW4 2520   2.495   3.913   1.124
  623SOL     OW 2521   2.244   4.028   1.188
  623SOL    HW2 2522   2.244   4.116   1.149
  623SOL    HW3 2523   2.171   3.983   1.145
  623SOL    MW4 2524   2.234   4.034   1.177
  624SOL     OW 2525   2.227   4.283   1.094
  624SOL    HW2 2526   2.144   4.326   1.113
  624SOL    HW3 2527   2.235   4.287   0.999
  624SOL    MW4 2528   2.217   4.289   1.084
  625SOL     OW 2529   2.464   4.390   1.201
  625SOL    HW2 2530   2.384   4.348   1.171
  625SOL    HW3 2531   2.462   4.477   1.160
  625SOL    MW4 2532   2.454   4.396   1.191
  626SOL     OW 2533   2.911   4.665   1.136
  626SOL    HW2 2534   2.898   4.573   1.157
  626SOL    HW3 2535   2.891   4.672   1.043
  626SOL    MW4 2536   2.907   4.654   1.127
  627SOL     OW 2537   2.696   0.136   1.224
  627SOL    HW2 2538   2.687   0.132   1.319
  627SOL    HW3 2539   2.775   0.084   1.205
  627SOL    MW4 2540   2.706   0.129   1.234
  628SOL     OW 2541   2.672   0.354   1.060
  628SOL    HW2 2542   2.690   0.277   1.114
  628SOL    HW3 2543   2.609   0.405   1.110
  628SOL    MW4 2544   2.666   0.350   1.073
  629SOL     OW 2545   2.879   0.456   1.235
  629SOL    HW2 2546   2.898   0.542   1.197
  629SOL    HW3 2547   2.825   0.412   1.169
  629SOL    MW4 2548   2.874   0.461   1.221
  630SOL     OW 2549   2.915   0.707   1.100
  630SOL    HW2 2550   2.996   0.746   1.134
  630SOL    HW3 2551   2.845   0.758   1.140
  630SOL    MW4 2552   2.917   0.719   1.110
  631SOL     OW 2553   2.696   0.859   1.220
  631SOL    HW2 2554   2.705   0.950   1.193
  631SOL    HW3 2555   2.605   0.837   1.197
  631SOL    MW4 2556   2.685   0.868   1.213
  632SOL     OW 2557   2.703   1.139   1.154
  632SOL    HW2 2558   2.786   1.185   1.169
  632SOL    HW3 2559   2.675   1.168   1.067
  632SOL    MW4 2560   2.710   1.149   1.145
  633SOL     OW 2561   2.939   1.283   1.197
  633SOL    HW2 2562   2.933   1.300   1.291
  633SOL    HW3 2563   2.954   1.369   1.158
  633SOL    MW4 2564   2.940   1.296   1.205
  634SOL     OW 2565   2.966   1.536   1.125
  634SOL    HW2 2566   3.052   1.574   1.141
  634SOL    HW3 2567   2.955   1.539   1.030
  634SOL    MW4 2568   2.976   1.541   1.114
  635SOL     OW 2569   2.702   1.647   1.209
  635SOL    HW2 2570   2.782   1.600   1.184
  635SOL    HW3 2571   2.631   1.588   1.183
  635SOL    MW4 2572   2.703   1.633   1.202
  636SOL     OW 2573   2.736   1.912   1.120
  636SOL    HW2 2574   2.823   1.941   1.147
  636SOL    HW3 2575   2.734   1.818   1.140
  636SOL    MW4 2576   2.747   1.903   1.126
  637SOL     OW 2577   2.961   2.051   1.191
  637SOL    HW2 2578   2.949   2.046   1.286
  637SOL    HW3 2579   2.915   2.132   1.166
  637SOL    MW4 2580   2.953   2.061   1.201
  638SOL     OW 2581   2.862   2.308   1.134
  638SOL    HW2 2582   2.952   2.339   1.142
  638SOL    HW3 2583   2.811   2.367   1.190
  638SOL    MW4 2584   2.867   2.320   1.142
  639SOL     OW 2585   2.691   2.467   1.298
  639SOL    HW2 2586   2.696   2.458   1.393
  639SOL    HW3 2587   2.604   2.435   1.275
  639SOL    MW4 2588   2.680   2.461   1.308
  640SOL     OW 2589   2.696   2.699   1.143
  640SOL    HW2 2590   2.706   2.614   1.185
  640SOL    HW3 2591   2.611   2.732   1.174
  640SOL    MW4 2592   2.686   2.692   1.153
  641SOL     OW 2593   2.887   2.863   1.232
  641SOL    HW2 2594   2.883   2.846   1.326
  641SOL    HW3 2595   2.830   2.797   1.193
  641SOL    MW4 2596   2.879   2.852   1.239
  642SOL     OW 2597   2.934   3.127   1.094
  642SOL    HW2 2598   2.920   3.034   1.113
  642SOL    HW3 2599   2.947   3.130   0.999
  642SOL    MW4 2600   2.934   3.115   1.084
  643SOL     OW 2601   2.688   3.275   1.179
  643SOL    HW2 2602   2.771   3.232   1.156
  643SOL    HW3 2603   2.621   3.211   1.158
  643SOL    MW4 2604   2.690   3.261   1.173
  644SOL     OW 2605   2.666   3.522   1.099
  644SOL    HW2 2606   2.674   3.433   1.134
  644SOL    HW3 2607   2.586   3.556   1.138
  644SOL    MW4 2608   2.656   3.515   1.108
  645SOL     OW 2609   2.910   3.602   1.203
  645SOL    HW2 2610   2.977   3.550   1.158
  645SOL    HW3 2611   2.827   3.570   1.167
  645SOL    MW4 2612   2.908   3.591   1.192
  646SOL     OW 2613   2.944   3.878   1.110
  646SOL    HW2 2614   3.018   3.932   1.135
  646SOL    HW3 2615   2.958   3.795   1.156
  646SOL    MW4 2616   2.956   3.874   1.119
  647SOL     OW 2617   2.730   4.024   1.238
  647SOL    HW2 2618   2.803   3.971   1.206
  647SOL    HW3 2619   2.652   3.972   1.219
  647SOL    MW4 2620   2.730   4.010   1.231
  648SOL     OW 2621   2.684   4.270   1.072
  648SOL    HW2 2622   2.687   4.184   1.113
  648SOL    HW3 2623   2.599   4.307   1.098
  648SOL    MW4 2624   2.673   4.264   1.081
  649SOL     OW 2625   2.892   4.398   1.218
  649SOL    HW2 2626   2.970   4.347   1.200
  649SOL    HW3 2627   2.826   4.363   1.159
  649SOL    MW4 2628   2.893   4.387   1.208
  650SOL     OW 2629   3.409   4.645   1.091
  650SOL    HW2 2630   3.469   4.691   1.150
  650SOL    HW3 2631   3.322   4.673   1.120
  650SOL    MW4 2632   3.405   4.654   1.103
  651SOL     OW 2633   3.168   0.102   1.190
  651SOL    HW2 2634   3.166   0.104   1.285
  651SOL    HW3 2635   3.084   0.064   1.165
  651SOL    MW4 2636   3.157   0.097   1.199
  652SOL     OW 2637   3.121   0.371   1.175
  652SOL    HW2 2638   3.120   0.277   1.195
  652SOL    HW3 2639   3.035   0.402   1.203
  652SOL    MW4 2640   3.109   0.362   1.181
  653SOL     OW 2641   3.379   0.483   1.239
  653SOL    HW2 2642   3.373   0.570   1.201
  653SOL    HW3 2643   3.299   0.438   1.211
  653SOL    MW4 2644   3.367   0.488   1.231
  654SOL     OW 2645   3.376   0.737   1.141
  654SOL    HW2 2646   3.289   0.765   1.170
  654SOL    HW3 2647   3.373   0.746   1.046
  654SOL    MW4 2648   3.364   0.742   1.132
  655SOL     OW 2649   3.129   0.855   1.242
  655SOL    HW2 2650   3.113   0.870   1.335
  655SOL    HW3 2651   3.114   0.941   1.202
  655SOL    MW4 2652   3.125   0.868   1.249
  656SOL     OW 2653   3.142   1.105   1.093
  656SOL    HW2 2654   3.228   1.138   1.116
  656SOL    HW3 2655   3.081   1.153   1.149
  656SOL    MW4 2656   3.145   1.115   1.103
  657SOL     OW 2657   3.393   1.223   1.186
  657SOL    HW2 2658   3.394   1.214   1.281
  657SOL    HW3 2659   3.385   1.317   1.171
  657SOL    MW4 2660   3.392   1.234   1.197
  658SOL     OW 2661   3.385   1.495   1.136
  658SOL    HW2 2662   3.468   1.532   1.166
  658SOL    HW3 2663   3.318   1.556   1.168
  658SOL    MW4 2664   3.387   1.508   1.144
  659SOL     OW 2665   3.194   1.663   1.212
  659SOL    HW2 2666   3.171   1.665   1.305
  659SOL    HW3 2667   3.189   1.754   1.183
  659SOL    MW4 2668   3.191   1.675   1.220
  660SOL     OW 2669   3.184   1.916   1.129
  660SOL    HW2 2670   3.253   1.971   1.166
  660SOL    HW3 2671   3.104   1.969   1.139
  660SOL    MW4 2672   3.182   1.931   1.135
  661SOL     OW 2673   3.394   2.066   1.252
  661SOL    HW2 2674   3.476   2.038   1.213
  661SOL    HW3 2675   3.376   2.151   1.212
  661SOL    MW4 2676   3.402   2.074   1.242
  662SOL     OW 2677   3.344   2.329   1.139
  662SOL    HW2 2678   3.410   2.387   1.178
  662SOL    HW3 2679   3.260   2.366   1.167
  662SOL    MW4 2680   3.342   2.342   1.148
  663SOL     OW 2681   3.109   2.429   1.233
  663SOL    HW2 2682   3.092   2.424   1.328
  663SOL    HW3 2683   3.097   2.521   1.211
  663SOL    MW4 2684   3.105   2.440   1.243
  664SOL     OW 2685   3.102   2.693   1.125
  664SOL    HW2 2686   3.024   2.741   1.154
  664SOL    HW3 2687   3.100   2.700   1.030
  664SOL    MW4 2688   3.092   2.700   1.116
  665SOL     OW 2689   3.337   2.802   1.249
  665SOL    HW2 2690   3.326   2.893   1.220
  665SOL    HW3 2691   3.258   2.757   1.219
  665SOL    MW4 2692   3.325   2.808   1.242
  666SOL     OW 2693   3.369   3.063   1.175
  666SOL    HW2 2694   3.444   3.122   1.185
  666SOL    HW3 2695   3.293   3.117   1.194
  666SOL    MW4 2696   3.369   3.078   1.179
  667SOL     OW 2697   3.138   3.236   1.233
  667SOL    HW2 2698   3.147   3.322   1.192
  667SOL    HW3 2699   3.067   3.193   1.184
  667SOL    MW4 2700   3.129   3.242   1.221
  668SOL     OW 2701   3.123   3.476   1.082
  668SOL    HW2 2702   3.181   3.540   1.125
  668SOL    HW3 2703   3.129   3.497   0.989
  668SOL    MW4 2704   3.131   3.487   1.075
  669SOL     OW 2705   3.321   3.655   1.196
  669SOL    HW2 2706   3.327   3.657   1.292
  669SOL    HW3 2707   3.402   3.613   1.168
  669SOL    MW4 2708   3.333   3.650   1.205
  670SOL     OW 2709   3.366   3.904   1.097
  670SOL    HW2 2710   3.299   3.955   1.143
  670SOL    HW3 2711   3.358   3.816   1.133
  670SOL    MW4 2712   3.356   3.899   1.108
  671SOL     OW 2713   3.152   4.013   1.216
  671SOL    HW2 2714   3.141   4.007   1.311
  671SOL    HW3 2715   3.140   4.106   1.196
  671SOL    MW4 2716   3.149   4.024   1.226
  672SOL     OW 2717   3.151   4.286   1.164
  672SOL    HW2 2718   3.238   4.316   1.189
  672SOL    HW3 2719   3.160   4.262   1.072
  672SOL    MW4 2720   3.164   4.287   1.155
  673SOL     OW 2721   3.394   4.396   1.205
  673SOL    HW2 2722   3.479   4.354   1.195
  673SOL    HW3 2723   3.402   4.478   1.156
  673SOL    MW4 2724   3.406   4.401   1.197
  674SOL     OW 2725   3.824   0.050   1.143
  674SOL    HW2 2726   3.815  -0.039   1.177
  674SOL    HW3 2727   3.822   0.040   1.048
  674SOL    MW4 2728   3.823   0.037   1.135
  675SOL     OW 2729   3.608   0.122   1.289
  675SOL    HW2 2730   3.588   0.214   1.273
  675SOL    HW3 2731   3.684   0.104   1.233
  675SOL    MW4 2732   3.615   0.132   1.279
  676SOL     OW 2733   3.605   0.362   1.111
  676SOL    HW2 2734   3.685   0.374   1.163
  676SOL    HW3 2735   3.539   0.413   1.157
  676SOL    MW4 2736   3.607   0.371   1.124
  677SOL     OW 2737   3.830   0.483   1.230
  677SOL    HW2 2738   3.911   0.451   1.191
  677SOL    HW3 2739   3.840   0.578   1.233
  677SOL    MW4 2740   3.842   0.491   1.225
  678SOL     OW 2741   3.845   0.760   1.216
  678SOL    HW2 2742   3.916   0.821   1.240
  678SOL    HW3 2743   3.767   0.815   1.209
  678SOL    MW4 2744   3.844   0.775   1.218
  679SOL     OW 2745   3.625   0.905   1.234
  679SOL    HW2 2746   3.659   0.980   1.185
  679SOL    HW3 2747   3.545   0.879   1.188
  679SOL    MW4 2748   3.619   0.911   1.222
  680SOL     OW 2749   3.652   1.143   1.085
  680SOL    HW2 2750   3.720   1.196   1.128
  680SOL    HW3 2751   3.570   1.174   1.123
  680SOL    MW4 2752   3.650   1.154   1.096
  681SOL     OW 2753   3.840   1.329   1.188
  681SOL    HW2 2754   3.846   1.334   1.283
  681SOL    HW3 2755   3.836   1.420   1.159
  681SOL    MW4 2756   3.841   1.342   1.197
  682SOL     OW 2757   3.846   1.565   1.069
  682SOL    HW2 2758   3.924   1.614   1.097
  682SOL    HW3 2759   3.852   1.564   0.973
  682SOL    MW4 2760   3.857   1.571   1.060
  683SOL     OW 2761   3.634   1.674   1.216
  683SOL    HW2 2762   3.648   1.767   1.200
  683SOL    HW3 2763   3.706   1.631   1.170
  683SOL    MW4 2764   3.645   1.681   1.208
  684SOL     OW 2765   3.641   1.934   1.144
  684SOL    HW2 2766   3.713   1.990   1.173
  684SOL    HW3 2767   3.638   1.947   1.049
  684SOL    MW4 2768   3.650   1.943   1.135
  685SOL     OW 2769   3.849   2.079   1.233
  685SOL    HW2 2770   3.846   2.055   1.325
  685SOL    HW3 2771   3.924   2.032   1.198
  685SOL    MW4 2772   3.859   2.070   1.240
  686SOL     OW 2773   3.819   2.349   1.163
  686SOL    HW2 2774   3.899   2.379   1.207
  686SOL    HW3 2775   3.814   2.256   1.183
  686SOL    MW4 2776   3.829   2.341   1.171
  687SOL     OW 2777   3.569   2.460   1.255
  687SOL    HW2 2778   3.565   2.457   1.350
  687SOL    HW3 2779   3.650   2.414   1.233
  687SOL    MW4 2780   3.579   2.454   1.264
  688SOL     OW 2781   3.582   2.716   1.163
  688SOL    HW2 2782   3.585   2.622   1.180
  688SOL    HW3 2783   3.504   2.746   1.211
  688SOL    MW4 2784   3.572   2.707   1.172
  689SOL     OW 2785   3.811   2.844   1.229
  689SOL    HW2 2786   3.809   2.830   1.324
  689SOL    HW3 2787   3.729   2.806   1.197
  689SOL    MW4 2788   3.800   2.837   1.238
  690SOL     OW 2789   3.809   3.125   1.132
  690SOL    HW2 2790   3.811   3.030   1.148
  690SOL    HW3 2791   3.784   3.133   1.040
  690SOL    MW4 2792   3.806   3.113   1.122
  691SOL     OW 2793   3.575   3.234   1.221
  691SOL    HW2 2794   3.565   3.326   1.196
  691SOL    HW3 2795   3.660   3.209   1.185
  691SOL    MW4 2796   3.585   3.243   1.213
  692SOL     OW 2797   3.543   3.500   1.130
  692SOL    HW2 2798   3.618   3.540   1.174
  692SOL    HW3 2799   3.553   3.526   1.038
  692SOL    MW4 2800   3.554   3.509   1.123
  693SOL     OW 2801   3.765   3.642   1.242
  693SOL    HW2 2802   3.782   3.624   1.335
  693SOL    HW3 2803   3.790   3.734   1.232
  693SOL    MW4 2804   3.771   3.652   1.253
  694SOL     OW 2805   3.853   3.886   1.137
  694SOL    HW2 2806   3.777   3.928   1.176
  694SOL    HW3 2807   3.829   3.872   1.046
  694SOL    MW4 2808   3.840   3.890   1.130
  695SOL     OW 2809   3.604   4.017   1.208
  695SOL    HW2 2810   3.611   4.008   1.303
  695SOL    HW3 2811   3.521   3.975   1.185
  695SOL    MW4 2812   3.594   4.010   1.217
  696SOL     OW 2813   3.612   4.276   1.101
  696SOL    HW2 2814   3.615   4.185   1.130
  696SOL    HW3 2815   3.578   4.272   1.012
  696SOL    MW4 2816   3.608   4.264   1.093
  697SOL     OW 2817   3.814   4.443   1.217
  697SOL    HW2 2818   3.827   4.415   1.308
  697SOL    HW3 2819   3.737   4.394   1.187
  697SOL    MW4 2820   3.806   4.433   1.225
  698SOL     OW 2821   4.238   4.663   1.117
  698SOL    HW2 2822   4.263   4.581   1.159
  698SOL    HW3 2823   4.175   4.702   1.178
  698SOL    MW4 2824   4.233   4.658   1.131
  699SOL     OW 2825   4.062   0.163   1.246
  699SOL    HW2 2826   4.061   0.168   1.342
  699SOL    HW3 2827   3.982   0.115   1.224
  699SOL    MW4 2828   4.051   0.158   1.256
  700SOL     OW 2829   4.049   0.405   1.120
  700SOL    HW2 2830   4.048   0.315   1.152
  700SOL    HW3 2831   4.058   0.397   1.025
  700SOL    MW4 2832   4.050   0.392   1.111
  701SOL     OW 2833   4.282   0.501   1.238
  701SOL    HW2 2834   4.278   0.514   1.333
  701SOL    HW3 2835   4.193   0.474   1.214
  701SOL    MW4 2836   4.269   0.500   1.247
  702SOL     OW 2837   4.261   0.784   1.186
  702SOL    HW2 2838   4.269   0.691   1.206
  702SOL    HW3 2839   4.241   0.787   1.093
  702SOL    MW4 2840   4.260   0.772   1.176
  703SOL     OW 2841   4.045   0.941   1.268
  703SOL    HW2 2842   4.025   0.942   1.361
  703SOL    HW3 2843   4.129   0.896   1.262
  703SOL    MW4 2844   4.053   0.935   1.279
  704SOL     OW 2845   4.036   1.142   1.082
  704SOL    HW2 2846   4.047   1.065   1.136
  704SOL    HW3 2847   3.965   1.192   1.124
  704SOL    MW4 2848   4.028   1.139   1.094
  705SOL     OW 2849   4.253   1.262   1.202
  705SOL    HW2 2850   4.239   1.257   1.296
  705SOL    HW3 2851   4.172   1.228   1.164
  705SOL    MW4 2852   4.240   1.257   1.209
  706SOL     OW 2853   4.281   1.521   1.135
  706SOL    HW2 2854   4.290   1.429   1.160
  706SOL    HW3 2855   4.363   1.562   1.162
  706SOL    MW4 2856   4.293   1.514   1.142
  707SOL     OW 2857   4.080   1.659   1.221
  707SOL    HW2 2858   4.075   1.653   1.316
  707SOL    HW3 2859   4.158   1.608   1.198
  707SOL    MW4 2860   4.089   1.651   1.230
  708SOL     OW 2861   4.048   1.914   1.114
  708SOL    HW2 2862   4.069   1.825   1.144
  708SOL    HW3 2863   4.017   1.902   1.024
  708SOL    MW4 2864   4.046   1.901   1.106
  709SOL     OW 2865   4.267   2.051   1.249
  709SOL    HW2 2866   4.262   2.140   1.215
  709SOL    HW3 2867   4.190   2.007   1.212
  709SOL    MW4 2868   4.256   2.057   1.240
  710SOL     OW 2869   4.247   2.325   1.161
  710SOL    HW2 2870   4.172   2.376   1.188
  710SOL    HW3 2871   4.233   2.308   1.068
  710SOL    MW4 2872   4.235   2.329   1.152
  711SOL     OW 2873   4.039   2.456   1.273
  711SOL    HW2 2874   4.034   2.457   1.368
  711SOL    HW3 2875   4.043   2.548   1.248
  711SOL    MW4 2876   4.039   2.468   1.282
  712SOL     OW 2877   4.032   2.710   1.165
  712SOL    HW2 2878   3.955   2.760   1.191
  712SOL    HW3 2879   4.032   2.713   1.069
  712SOL    MW4 2880   4.022   2.717   1.156
  713SOL     OW 2881   4.255   2.839   1.280
  713SOL    HW2 2882   4.258   2.929   1.246
  713SOL    HW3 2883   4.179   2.800   1.238
  713SOL    MW4 2884   4.246   2.846   1.270
  714SOL     OW 2885   4.241   3.094   1.154
  714SOL    HW2 2886   4.174   3.159   1.177
  714SOL    HW3 2887   4.242   3.094   1.058
  714SOL    MW4 2888   4.232   3.103   1.144
  715SOL     OW 2889   4.035   3.252   1.237
  715SOL    HW2 2890   4.034   3.252   1.333
  715SOL    HW3 2891   3.951   3.213   1.212
  715SOL    MW4 2892   4.024   3.247   1.246
  716SOL     OW 2893   4.002   3.507   1.137
  716SOL    HW2 2894   4.005   3.422   1.180
  716SOL    HW3 2895   3.913   3.538   1.151
  716SOL    MW4 2896   3.991   3.500   1.145
  717SOL     OW 2897   4.234   3.609   1.264
  717SOL    HW2 2898   4.148   3.580   1.234
  717SOL    HW3 2899   4.296   3.554   1.216
  717SOL    MW4 2900   4.231   3.598   1.254
  718SOL     OW 2901   4.278   3.885   1.157
  718SOL    HW2 2902   4.204   3.940   1.183
  718SOL    HW3 2903   4.260   3.800   1.197
  718SOL    MW4 2904   4.266   3.881   1.166
  719SOL     OW 2905   4.077   4.054   1.227
  719SOL    HW2 2906   4.054   4.141   1.194
  719SOL    HW3 2907   4.002   3.999   1.203
  719SOL    MW4 2908   4.064   4.058   1.220
  720SOL     OW 2909   4.037   4.305   1.096
  720SOL    HW2 2910   3.953   4.339   1.124
  720SOL    HW3 2911   4.027   4.288   1.002
  720SOL    MW4 2912   4.025   4.307   1.087
  721SOL     OW 2913   4.248   4.418   1.243
  721SOL    HW2 2914   4.172   4.388   1.195
  721SOL    HW3 2915   4.319   4.360   1.215
  721SOL    MW4 2916   4.247   4.406   1.233
  722SOL     OW 2917   0.221   0.003   1.570
  722SOL    HW2 2918   0.306   0.038   1.546
  722SOL    HW3 2919   0.158   0.067   1.537
  722SOL    MW4 2920   0.224   0.016   1.562
  723SOL     OW 2921   0.001   0.166   1.518
  723SOL    HW2 2922  -0.064   0.117   1.569
  723SOL    HW3 2923  -0.019   0.145   1.427
  723SOL    MW4 2924  -0.010   0.157   1.512
  724SOL     OW 2925   0.008   0.416   1.625
  724SOL    HW2 2926   0.009   0.414   1.721
  724SOL    HW3 2927   0.001   0.324   1.600
  724SOL    MW4 2928   0.007   0.404   1.634
  725SOL     OW 2929   0.260   0.539   1.519
  725SOL    HW2 2930   0.176   0.503   1.549
  725SOL    HW3 2931   0.256   0.530   1.423
  725SOL    MW4 2932   0.248   0.533   1.510
  726SOL     OW 2933   0.278   0.807   1.620
  726SOL    HW2 2934   0.357   0.851   1.588
  726SOL    HW3 2935   0.282   0.720   1.581
  726SOL    MW4 2936   0.289   0.802   1.611
  727SOL     OW 2937   0.035   0.918   1.495
  727SOL    HW2 2938   0.023   1.005   1.533
  727SOL    HW3 2939   0.121   0.890   1.526
  727SOL    MW4 2940   0.045   0.926   1.504
  728SOL     OW 2941   4.457   1.171   1.603
  728SOL    HW2 2942   4.454   1.167   1.699
  728SOL    HW3 2943   4.534   1.226   1.584
  728SOL    MW4 2944   4.467   1.178   1.613
  729SOL     OW 2945   0.219   1.313   1.532
  729SOL    HW2 2946   0.229   1.403   1.562
  729SOL    HW3 2947   0.232   1.318   1.437
  729SOL    MW4 2948   0.222   1.325   1.524
  730SOL     OW 2949   0.230   1.563   1.604
  730SOL    HW2 2950   0.237   1.552   1.699
  730SOL    HW3 2951   0.141   1.598   1.591
  730SOL    MW4 2952   0.219   1.566   1.615
  731SOL     OW 2953   4.463   1.676   1.515
  731SOL    HW2 2954   4.458   1.771   1.531
  731SOL    HW3 2955   4.477   1.669   1.421
  731SOL    MW4 2956   4.464   1.688   1.505
  732SOL     OW 2957   0.018   1.977   1.583
  732SOL    HW2 2958  -0.001   1.962   1.675
  732SOL    HW3 2959  -0.051   2.036   1.553
  732SOL    MW4 2960   0.006   1.983   1.591
  733SOL     OW 2961   0.261   2.058   1.493
  733SOL    HW2 2962   0.179   2.021   1.526
  733SOL    HW3 2963   0.260   2.038   1.399
  733SOL    MW4 2964   0.250   2.050   1.485
  734SOL     OW 2965   0.168   2.317   1.565
  734SOL    HW2 2966   0.173   2.305   1.660
  734SOL    HW3 2967   0.183   2.229   1.530
  734SOL    MW4 2968   0.170   2.304   1.573
  735SOL     OW 2969   4.440   2.471   1.546
  735SOL    HW2 2970   4.356   2.437   1.577
  735SOL    HW3 2971   4.502   2.399   1.560
  735SOL    MW4 2972   4.437   2.457   1.552
  736SOL     OW 2973   4.478   2.727   1.627
  736SOL    HW2 2974   4.400   2.778   1.609
  736SOL    HW3 2975   4.453   2.636   1.608
  736SOL    MW4 2976   4.465   2.721   1.622
  737SOL     OW 2977   0.209   2.850   1.511
  737SOL    HW2 2978   0.286   2.805   1.545
  737SOL    HW3 2979   0.135   2.798   1.543
  737SOL    MW4 2980   0.209   2.837   1.520
  738SOL     OW 2981   0.176   3.126   1.574
  738SOL    HW2 2982   0.088   3.157   1.554
  738SOL    HW3 2983   0.181   3.040   1.533
  738SOL    MW4 2984   0.165   3.119   1.566
  739SOL     OW 2985   4.431   3.231   1.502
  739SOL    HW2 2986   4.459   3.320   1.525
  739SOL    HW3 2987   4.446   3.225   1.407
  739SOL    MW4 2988   4.437   3.242   1.492
  740SOL     OW 2989   0.001   3.472   1.630
  740SOL    HW2 2990  -0.006   3.457   1.724
  740SOL    HW3 2991  -0.082   3.514   1.607
  740SOL    MW4 2992  -0.011   3.476   1.639
  741SOL     OW 2993   0.246   3.603   1.540
  741SOL    HW2 2994   0.261   3.688   1.581
  741SOL    HW3 2995   0.164   3.572   1.578
  741SOL    MW4 2996   0.237   3.610   1.550
  742SOL     OW 2997   0.249   3.870   1.648
  742SOL    HW2 2998   0.255   3.873   1.744
  742SOL    HW3 2999   0.314   3.933   1.618
  742SOL    MW4 3000   0.258   3.879   1.657
  743SOL     OW 3001   0.013   3.988   1.505
  743SOL    HW2 3002   0.010   4.075   1.546
  743SOL    HW3 3003   0.092   3.948   1.543
  743SOL    MW4 3004   0.023   3.994   1.515
  744SOL     OW 3005   0.019   4.260   1.594
  744SOL    HW2 3006   0.027   4.265   1.689
  744SOL    HW3 3007  -0.053   4.320   1.572
  744SOL    MW4 3008   0.011   4.269   1.603
  745SOL     OW 3009   0.224   4.399   1.505
  745SOL    HW2 3010   0.152   4.345   1.539
  745SOL    HW3 3011   0.208   4.486   1.540
  745SOL    MW4 3012   0.212   4.403   1.514
  746SOL     OW 3013   0.683   4.629   1.561
  746SOL    HW2 3014   0.770   4.658   1.533
  746SOL    HW3 3015   0.623   4.694   1.524
  746SOL    MW4 3016   0.687   4.642   1.553
  747SOL     OW 3017   0.442   0.147   1.501
  747SOL    HW2 3018   0.428   0.234   1.538
  747SOL    HW3 3019   0.432   0.159   1.407
  747SOL    MW4 3020   0.439   0.160   1.493
  748SOL     OW 3021   0.461   0.377   1.630
  748SOL    HW2 3022   0.551   0.404   1.613
  748SOL    HW3 3023   0.407   0.438   1.579
  748SOL    MW4 3024   0.466   0.388   1.621
  749SOL     OW 3025   0.720   0.500   1.546
  749SOL    HW2 3026   0.690   0.580   1.590
  749SOL    HW3 3027   0.710   0.519   1.453
  749SOL    MW4 3028   0.715   0.513   1.540
  750SOL     OW 3029   0.681   0.768   1.618
  750SOL    HW2 3030   0.684   0.784   1.712
  750SOL    HW3 3031   0.763   0.803   1.584
  750SOL    MW4 3032   0.692   0.775   1.626
  751SOL     OW 3033   0.494   0.939   1.498
  751SOL    HW2 3034   0.481   1.018   1.550
  751SOL    HW3 3035   0.571   0.897   1.538
  751SOL    MW4 3036   0.503   0.944   1.510
  752SOL     OW 3037   0.436   1.176   1.631
  752SOL    HW2 3038   0.514   1.221   1.601
  752SOL    HW3 3039   0.363   1.219   1.586
  752SOL    MW4 3040   0.437   1.187   1.621
  753SOL     OW 3041   0.675   1.300   1.531
  753SOL    HW2 3042   0.675   1.390   1.564
  753SOL    HW3 3043   0.663   1.309   1.437
  753SOL    MW4 3044   0.674   1.313   1.523
  754SOL     OW 3045   0.656   1.569   1.617
  754SOL    HW2 3046   0.730   1.609   1.572
  754SOL    HW3 3047   0.579   1.608   1.577
  754SOL    MW4 3048   0.656   1.579   1.606
  755SOL     OW 3049   0.428   1.708   1.493
  755SOL    HW2 3050   0.448   1.784   1.547
  755SOL    HW3 3051   0.343   1.677   1.525
  755SOL    MW4 3052   0.419   1.714   1.505
  756SOL     OW 3053   0.486   1.946   1.618
  756SOL    HW2 3054   0.473   1.922   1.710
  756SOL    HW3 3055   0.403   1.987   1.592
  756SOL    MW4 3056   0.474   1.948   1.627
  757SOL     OW 3057   0.655   2.096   1.461
  757SOL    HW2 3058   0.740   2.066   1.494
  757SOL    HW3 3059   0.591   2.056   1.519
  757SOL    MW4 3060   0.658   2.086   1.473
  758SOL     OW 3061   0.627   2.328   1.603
  758SOL    HW2 3062   0.554   2.380   1.571
  758SOL    HW3 3063   0.624   2.247   1.553
  758SOL    MW4 3064   0.617   2.324   1.592
  759SOL     OW 3065   0.403   2.455   1.480
  759SOL    HW2 3066   0.390   2.544   1.513
  759SOL    HW3 3067   0.333   2.404   1.520
  759SOL    MW4 3068   0.392   2.460   1.490
  760SOL     OW 3069   0.428   2.702   1.579
  760SOL    HW2 3070   0.431   2.708   1.675
  760SOL    HW3 3071   0.513   2.736   1.551
  760SOL    MW4 3072   0.440   2.708   1.588
  761SOL     OW 3073   0.676   2.832   1.494
  761SOL    HW2 3074   0.669   2.922   1.524
  761SOL    HW3 3075   0.676   2.838   1.398
  761SOL    MW4 3076   0.675   2.844   1.485
  762SOL     OW 3077   0.660   3.101   1.571
  762SOL    HW2 3078   0.747   3.136   1.555
  762SOL    HW3 3079   0.601   3.172   1.547
  762SOL    MW4 3080   0.664   3.115   1.566
  763SOL     OW 3081   0.428   3.239   1.520
  763SOL    HW2 3082   0.345   3.196   1.539
  763SOL    HW3 3083   0.430   3.244   1.424
  763SOL    MW4 3084   0.417   3.234   1.510
  764SOL     OW 3085   0.471   3.481   1.648
  764SOL    HW2 3086   0.471   3.390   1.617
  764SOL    HW3 3087   0.390   3.518   1.614
  764SOL    MW4 3088   0.461   3.473   1.639
  765SOL     OW 3089   0.675   3.613   1.502
  765SOL    HW2 3090   0.756   3.577   1.537
  765SOL    HW3 3091   0.605   3.565   1.546
  765SOL    MW4 3092   0.677   3.602   1.512
  766SOL     OW 3093   0.647   3.866   1.609
  766SOL    HW2 3094   0.727   3.903   1.572
  766SOL    HW3 3095   0.648   3.775   1.580
  766SOL    MW4 3096   0.658   3.859   1.600
  767SOL     OW 3097   0.443   4.032   1.521
  767SOL    HW2 3098   0.508   3.970   1.554
  767SOL    HW3 3099   0.462   4.040   1.428
  767SOL    MW4 3100   0.454   4.025   1.513
  768SOL     OW 3101   0.437   4.301   1.647
  768SOL    HW2 3102   0.439   4.212   1.612
  768SOL    HW3 3103   0.359   4.341   1.609
  768SOL    MW4 3104   0.427   4.295   1.638
  769SOL     OW 3105   0.689   4.358   1.550
  769SOL    HW2 3106   0.600   4.341   1.579
  769SOL    HW3 3107   0.696   4.453   1.548
  769SOL    MW4 3108   0.678   4.368   1.553
  770SOL     OW 3109   1.121   4.598   1.614
  770SOL    HW2 3110   1.098   4.612   1.705
  770SOL    HW3 3111   1.204   4.644   1.602
  770SOL    MW4 3112   1.129   4.606   1.624
  771SOL     OW 3113   0.916   0.096   1.538
  771SOL    HW2 3114   0.931   0.184   1.574
  771SOL    HW3 3115   0.997   0.048   1.557
  771SOL    MW4 3116   0.929   0.101   1.546
  772SOL     OW 3117   0.936   0.358   1.639
  772SOL    HW2 3118   0.911   0.351   1.731
  772SOL    HW3 3119   0.860   0.397   1.596
  772SOL    MW4 3120   0.923   0.362   1.645
  773SOL     OW 3121   1.139   0.517   1.550
  773SOL    HW2 3122   1.120   0.603   1.588
  773SOL    HW3 3123   1.068   0.461   1.579
  773SOL    MW4 3124   1.127   0.521   1.558
  774SOL     OW 3125   1.102   0.792   1.630
  774SOL    HW2 3126   1.104   0.769   1.723
  774SOL    HW3 3127   1.187   0.834   1.614
  774SOL    MW4 3128   1.114   0.795   1.641
  775SOL     OW 3129   0.882   0.917   1.520
  775SOL    HW2 3130   0.952   0.890   1.580
  775SOL    HW3 3131   0.907   0.880   1.436
  775SOL    MW4 3132   0.895   0.909   1.517
  776SOL     OW 3133   0.900   1.173   1.619
  776SOL    HW2 3134   0.879   1.082   1.598
  776SOL    HW3 3135   0.825   1.223   1.587
  776SOL    MW4 3136   0.887   1.168   1.612
  777SOL     OW 3137   1.106   1.283   1.499
  777SOL    HW2 3138   1.180   1.245   1.546
  777SOL    HW3 3139   1.029   1.237   1.533
  777SOL    MW4 3140   1.106   1.272   1.509
  778SOL     OW 3141   1.111   1.543   1.610
  778SOL    HW2 3142   1.185   1.589   1.571
  778SOL    HW3 3143   1.120   1.453   1.581
  778SOL    MW4 3144   1.122   1.537   1.601
  779SOL     OW 3145   0.898   1.690   1.527
  779SOL    HW2 3146   0.982   1.652   1.552
  779SOL    HW3 3147   0.893   1.676   1.432
  779SOL    MW4 3148   0.909   1.684   1.518
  780SOL     OW 3149   0.882   1.973   1.583
  780SOL    HW2 3150   0.967   2.010   1.558
  780SOL    HW3 3151   0.890   1.880   1.562
  780SOL    MW4 3152   0.895   1.966   1.577
  781SOL     OW 3153   1.122   2.064   1.468
  781SOL    HW2 3154   1.189   2.013   1.514
  781SOL    HW3 3155   1.130   2.152   1.505
  781SOL    MW4 3156   1.132   2.069   1.479
  782SOL     OW 3157   1.113   2.291   1.593
  782SOL    HW2 3158   1.191   2.345   1.576
  782SOL    HW3 3159   1.041   2.339   1.552
  782SOL    MW4 3160   1.114   2.304   1.586
  783SOL     OW 3161   0.896   2.434   1.509
  783SOL    HW2 3162   0.880   2.520   1.546
  783SOL    HW3 3163   0.823   2.380   1.540
  783SOL    MW4 3164   0.884   2.438   1.518
  784SOL     OW 3165   0.887   2.700   1.594
  784SOL    HW2 3166   0.885   2.709   1.689
  784SOL    HW3 3167   0.805   2.742   1.565
  784SOL    MW4 3168   0.876   2.707   1.603
  785SOL     OW 3169   1.119   2.839   1.491
  785SOL    HW2 3170   1.121   2.932   1.513
  785SOL    HW3 3171   1.037   2.807   1.529
  785SOL    MW4 3172   1.109   2.847   1.499
  786SOL     OW 3173   1.151   3.113   1.583
  786SOL    HW2 3174   1.160   3.112   1.678
  786SOL    HW3 3175   1.230   3.156   1.551
  786SOL    MW4 3176   1.162   3.119   1.591
  787SOL     OW 3177   0.898   3.232   1.508
  787SOL    HW2 3178   0.988   3.205   1.526
  787SOL    HW3 3179   0.891   3.232   1.413
  787SOL    MW4 3180   0.909   3.229   1.498
  788SOL     OW 3181   0.897   3.504   1.626
  788SOL    HW2 3182   0.970   3.539   1.576
  788SOL    HW3 3183   0.886   3.415   1.594
  788SOL    MW4 3184   0.905   3.497   1.615
  789SOL     OW 3185   1.130   3.579   1.438
  789SOL    HW2 3186   1.213   3.540   1.463
  789SOL    HW3 3187   1.140   3.600   1.345
  789SOL    MW4 3188   1.142   3.577   1.429
  790SOL     OW 3189   1.111   3.816   1.592
  790SOL    HW2 3190   1.188   3.869   1.574
  790SOL    HW3 3191   1.126   3.734   1.543
  790SOL    MW4 3192   1.123   3.812   1.583
  791SOL     OW 3193   0.881   3.942   1.510
  791SOL    HW2 3194   0.896   4.027   1.552
  791SOL    HW3 3195   0.957   3.890   1.532
  791SOL    MW4 3196   0.893   3.946   1.518
  792SOL     OW 3197   0.894   4.196   1.616
  792SOL    HW2 3198   0.902   4.210   1.711
  792SOL    HW3 3199   0.823   4.253   1.589
  792SOL    MW4 3200   0.886   4.205   1.625
  793SOL     OW 3201   1.137   4.339   1.551
  793SOL    HW2 3202   1.056   4.296   1.579
  793SOL    HW3 3203   1.125   4.431   1.574
  793SOL    MW4 3204   1.124   4.345   1.558
  794SOL     OW 3205   1.573   4.659   1.606
  794SOL    HW2 3206   1.566   4.644   1.700
  794SOL    HW3 3207   1.487   4.695   1.581
  794SOL    MW4 3208   1.560   4.662   1.615
  795SOL     OW 3209   1.342   0.093   1.518
  795SOL    HW2 3210   1.340   0.184   1.547
  795SOL    HW3 3211   1.358   0.097   1.424
  795SOL    MW4 3212   1.344   0.105   1.510
  796SOL     OW 3213   1.352   0.357   1.616
  796SOL    HW2 3214   1.428   0.408   1.586
  796SOL    HW3 3215   1.276   0.408   1.588
  796SOL    MW4 3216   1.352   0.371   1.608
  797SOL     OW 3217   1.581   0.483   1.521
  797SOL    HW2 3218   1.670   0.459   1.548
  797SOL    HW3 3219   1.584   0.485   1.425
  797SOL    MW4 3220   1.593   0.480   1.512
  798SOL     OW 3221   1.584   0.748   1.622
  798SOL    HW2 3222   1.581   0.739   1.717
  798SOL    HW3 3223   1.584   0.658   1.590
  798SOL    MW4 3224   1.584   0.735   1.630
  799SOL     OW 3225   1.356   0.898   1.524
  799SOL    HW2 3226   1.435   0.852   1.552
  799SOL    HW3 3227   1.351   0.882   1.430
  799SOL    MW4 3228   1.365   0.890   1.515
  800SOL     OW 3229   1.343   1.172   1.594
  800SOL    HW2 3230   1.343   1.174   1.690
  800SOL    HW3 3231   1.342   1.078   1.573
  800SOL    MW4 3232   1.343   1.160   1.604
  801SOL     OW 3233   1.581   1.297   1.479
  801SOL    HW2 3234   1.510   1.247   1.520
  801SOL    HW3 3235   1.545   1.327   1.396
  801SOL    MW4 3236   1.567   1.294   1.474
  802SOL     OW 3237   1.564   1.545   1.599
  802SOL    HW2 3238   1.551   1.541   1.693
  802SOL    HW3 3239   1.586   1.455   1.573
  802SOL    MW4 3240   1.565   1.532   1.608
  803SOL     OW 3241   1.332   1.681   1.513
  803SOL    HW2 3242   1.411   1.630   1.532
  803SOL    HW3 3243   1.330   1.687   1.417
  803SOL    MW4 3244   1.342   1.675   1.503
  804SOL     OW 3245   1.329   1.942   1.593
  804SOL    HW2 3246   1.339   1.945   1.688
  804SOL    HW3 3247   1.331   1.849   1.572
  804SOL    MW4 3248   1.330   1.930   1.603
  805SOL     OW 3249   1.580   2.058   1.518
  805SOL    HW2 3250   1.498   2.020   1.550
  805SOL    HW3 3251   1.576   2.048   1.423
  805SOL    MW4 3252   1.569   2.051   1.510
  806SOL     OW 3253   1.552   2.347   1.546
  806SOL    HW2 3254   1.631   2.381   1.503
  806SOL    HW3 3255   1.556   2.253   1.531
  806SOL    MW4 3256   1.563   2.339   1.538
  807SOL     OW 3257   1.296   2.479   1.497
  807SOL    HW2 3258   1.296   2.565   1.539
  807SOL    HW3 3259   1.369   2.432   1.538
  807SOL    MW4 3260   1.305   2.484   1.508
  808SOL     OW 3261   1.328   2.716   1.637
  808SOL    HW2 3262   1.407   2.743   1.590
  808SOL    HW3 3263   1.257   2.757   1.588
  808SOL    MW4 3264   1.329   2.725   1.624
  809SOL     OW 3265   1.557   2.797   1.502
  809SOL    HW2 3266   1.636   2.744   1.511
  809SOL    HW3 3267   1.537   2.796   1.408
  809SOL    MW4 3268   1.564   2.790   1.491
  810SOL     OW 3269   1.558   3.073   1.592
  810SOL    HW2 3270   1.637   3.117   1.561
  810SOL    HW3 3271   1.557   2.989   1.546
  810SOL    MW4 3272   1.568   3.068   1.582
  811SOL     OW 3273   1.378   3.213   1.427
  811SOL    HW2 3274   1.384   3.307   1.446
  811SOL    HW3 3275   1.451   3.174   1.476
  811SOL    MW4 3276   1.389   3.221   1.436
  812SOL     OW 3277   1.352   3.461   1.538
  812SOL    HW2 3278   1.353   3.465   1.634
  812SOL    HW3 3279   1.429   3.510   1.511
  812SOL    MW4 3280   1.362   3.468   1.547
  813SOL     OW 3281   1.578   3.604   1.447
  813SOL    HW2 3282   1.578   3.691   1.488
  813SOL    HW3 3283   1.589   3.622   1.354
  813SOL    MW4 3284   1.579   3.618   1.440
  814SOL     OW 3285   1.573   3.870   1.539
  814SOL    HW2 3286   1.561   3.883   1.633
  814SOL    HW3 3287   1.486   3.883   1.502
  814SOL    MW4 3288   1.560   3.873   1.547
  815SOL     OW 3289   1.337   3.971   1.492
  815SOL    HW2 3290   1.360   4.054   1.534
  815SOL    HW3 3291   1.339   3.991   1.398
  815SOL    MW4 3292   1.341   3.985   1.485
  816SOL     OW 3293   1.391   4.237   1.620
  816SOL    HW2 3294   1.457   4.297   1.586
  816SOL    HW3 3295   1.307   4.277   1.597
  816SOL    MW4 3296   1.388   4.250   1.613
  817SOL     OW 3297   1.600   4.385   1.535
  817SOL    HW2 3298   1.671   4.340   1.581
  817SOL    HW3 3299   1.608   4.476   1.563
  817SOL    MW4 3300   1.610   4.391   1.545
  818SOL     OW 3301   2.010   4.642   1.606
  818SOL    HW2 3302   2.014   4.644   1.701
  818SOL    HW3 3303   1.934   4.696   1.584
  818SOL    MW4 3304   2.000   4.649   1.616
  819SOL     OW 3305   1.797   0.149   1.517
  819SOL    HW2 3306   1.715   0.110   1.546
  819SOL    HW3 3307   1.785   0.164   1.423
  819SOL    MW4 3308   1.785   0.146   1.508
  820SOL     OW 3309   1.829   0.391   1.634
  820SOL    HW2 3310   1.902   0.430   1.585
  820SOL    HW3 3311   1.820   0.303   1.597
  820SOL    MW4 3312   1.838   0.384   1.622
  821SOL     OW 3313   2.048   0.508   1.506
  821SOL    HW2 3314   2.116   0.470   1.562
  821SOL    HW3 3315   2.035   0.596   1.540
  821SOL    MW4 3316   2.055   0.515   1.518
  822SOL     OW 3317   2.017   0.756   1.621
  822SOL    HW2 3318   2.094   0.807   1.598
  822SOL    HW3 3319   1.944   0.800   1.578
  822SOL    MW4 3320   2.018   0.768   1.612
  823SOL     OW 3321   1.793   0.886   1.511
  823SOL    HW2 3322   1.782   0.972   1.551
  823SOL    HW3 3323   1.720   0.834   1.545
  823SOL    MW4 3324   1.782   0.891   1.520
  824SOL     OW 3325   1.781   1.149   1.601
  824SOL    HW2 3326   1.857   1.201   1.576
  824SOL    HW3 3327   1.706   1.193   1.559
  824SOL    MW4 3328   1.781   1.161   1.592
  825SOL     OW 3329   1.998   1.267   1.478
  825SOL    HW2 3330   2.030   1.351   1.510
  825SOL    HW3 3331   2.010   1.271   1.383
  825SOL    MW4 3332   2.004   1.278   1.470
  826SOL     OW 3333   2.011   1.532   1.595
  826SOL    HW2 3334   2.084   1.590   1.573
  826SOL    HW3 3335   1.933   1.585   1.577
  826SOL    MW4 3336   2.010   1.547   1.590
  827SOL     OW 3337   1.782   1.671   1.490
  827SOL    HW2 3338   1.699   1.631   1.519
  827SOL    HW3 3339   1.783   1.658   1.395
  827SOL    MW4 3340   1.771   1.664   1.482
  828SOL     OW 3341   1.769   1.911   1.644
  828SOL    HW2 3342   1.759   1.829   1.597
  828SOL    HW3 3343   1.711   1.973   1.599
  828SOL    MW4 3344   1.760   1.909   1.632
  829SOL     OW 3345   2.007   2.037   1.529
  829SOL    HW2 3346   2.082   1.999   1.574
  829SOL    HW3 3347   1.933   1.984   1.556
  829SOL    MW4 3348   2.007   2.025   1.538
  830SOL     OW 3349   1.970   2.329   1.586
  830SOL    HW2 3350   1.966   2.327   1.682
  830SOL    HW3 3351   1.990   2.239   1.561
  830SOL    MW4 3352   1.972   2.317   1.596
  831SOL     OW 3353   1.785   2.423   1.415
  831SOL    HW2 3354   1.854   2.394   1.475
  831SOL    HW3 3355   1.829   2.432   1.331
  831SOL    MW4 3356   1.800   2.421   1.412
  832SOL     OW 3357   1.786   2.659   1.557
  832SOL    HW2 3358   1.866   2.700   1.524
  832SOL    HW3 3359   1.781   2.575   1.511
  832SOL    MW4 3360   1.796   2.654   1.547
  833SOL     OW 3361   2.026   2.806   1.474
  833SOL    HW2 3362   2.012   2.896   1.504
  833SOL    HW3 3363   2.028   2.812   1.379
  833SOL    MW4 3364   2.025   2.819   1.466
  834SOL     OW 3365   1.988   3.083   1.539
  834SOL    HW2 3366   1.990   3.089   1.634
  834SOL    HW3 3367   2.066   3.131   1.510
  834SOL    MW4 3368   1.999   3.090   1.548
  835SOL     OW 3369   1.766   3.214   1.467
  835SOL    HW2 3370   1.778   3.302   1.503
  835SOL    HW3 3371   1.849   3.170   1.483
  835SOL    MW4 3372   1.778   3.220   1.474
  836SOL     OW 3373   1.799   3.475   1.553
  836SOL    HW2 3374   1.789   3.482   1.648
  836SOL    HW3 3375   1.723   3.522   1.518
  836SOL    MW4 3376   1.787   3.482   1.561
  837SOL     OW 3377   2.021   3.638   1.489
  837SOL    HW2 3378   2.094   3.596   1.535
  837SOL    HW3 3379   1.944   3.589   1.516
  837SOL    MW4 3380   2.021   3.626   1.498
  838SOL     OW 3381   2.016   3.886   1.607
  838SOL    HW2 3382   2.075   3.951   1.568
  838SOL    HW3 3383   2.030   3.807   1.555
  838SOL    MW4 3384   2.026   3.884   1.595
  839SOL     OW 3385   1.806   4.005   1.477
  839SOL    HW2 3386   1.871   3.939   1.502
  839SOL    HW3 3387   1.723   3.971   1.511
  839SOL    MW4 3388   1.804   3.991   1.485
  840SOL     OW 3389   1.840   4.249   1.612
  840SOL    HW2 3390   1.899   4.298   1.554
  840SOL    HW3 3391   1.839   4.160   1.575
  840SOL    MW4 3392   1.847   4.244   1.599
  841SOL     OW 3393   2.030   4.420   1.463
  841SOL    HW2 3394   2.100   4.370   1.506
  841SOL    HW3 3395   2.018   4.497   1.519
  841SOL    MW4 3396   2.038   4.423   1.476
  842SOL     OW 3397   2.439   4.620   1.600
  842SOL    HW2 3398   2.422   4.612   1.694
  842SOL    HW3 3399   2.360   4.662   1.565
  842SOL    MW4 3400   2.426   4.624   1.608
  843SOL     OW 3401   2.229   0.124   1.521
  843SOL    HW2 3402   2.145   0.080   1.534
  843SOL    HW3 3403   2.239   0.129   1.426
  843SOL    MW4 3404   2.219   0.119   1.510
  844SOL     OW 3405   2.257   0.392   1.628
  844SOL    HW2 3406   2.250   0.383   1.723
  844SOL    HW3 3407   2.257   0.302   1.595
  844SOL    MW4 3408   2.256   0.379   1.636
  845SOL     OW 3409   2.484   0.498   1.527
  845SOL    HW2 3410   2.555   0.448   1.567
  845SOL    HW3 3411   2.405   0.468   1.571
  845SOL    MW4 3412   2.483   0.487   1.538
  846SOL     OW 3413   2.460   0.740   1.614
  846SOL    HW2 3414   2.380   0.779   1.578
  846SOL    HW3 3415   2.456   0.648   1.588
  846SOL    MW4 3416   2.449   0.733   1.606
  847SOL     OW 3417   2.258   0.889   1.520
  847SOL    HW2 3418   2.264   0.976   1.559
  847SOL    HW3 3419   2.274   0.903   1.427
  847SOL    MW4 3420   2.261   0.902   1.513
  848SOL     OW 3421   2.225   1.148   1.628
  848SOL    HW2 3422   2.209   1.158   1.722
  848SOL    HW3 3423   2.147   1.184   1.586
  848SOL    MW4 3424   2.213   1.154   1.635
  849SOL     OW 3425   2.498   1.261   1.546
  849SOL    HW2 3426   2.413   1.233   1.580
  849SOL    HW3 3427   2.488   1.260   1.451
  849SOL    MW4 3428   2.485   1.257   1.538
  850SOL     OW 3429   2.476   1.529   1.594
  850SOL    HW2 3430   2.551   1.572   1.553
  850SOL    HW3 3431   2.484   1.437   1.567
  850SOL    MW4 3432   2.487   1.522   1.585
  851SOL     OW 3433   2.239   1.678   1.511
  851SOL    HW2 3434   2.319   1.636   1.543
  851SOL    HW3 3435   2.238   1.658   1.417
  851SOL    MW4 3436   2.250   1.670   1.503
  852SOL     OW 3437   2.226   1.928   1.632
  852SOL    HW2 3438   2.253   1.920   1.723
  852SOL    HW3 3439   2.223   1.838   1.600
  852SOL    MW4 3440   2.229   1.915   1.640
  853SOL     OW 3441   2.471   2.052   1.545
  853SOL    HW2 3442   2.392   2.002   1.565
  853SOL    HW3 3443   2.463   2.073   1.451
  853SOL    MW4 3444   2.459   2.049   1.535
  854SOL     OW 3445   2.424   2.316   1.626
  854SOL    HW2 3446   2.438   2.301   1.720
  854SOL    HW3 3447   2.430   2.230   1.587
  854SOL    MW4 3448   2.427   2.303   1.633
  855SOL     OW 3449   2.224   2.438   1.474
  855SOL    HW2 3450   2.297   2.405   1.526
  855SOL    HW3 3451   2.149   2.387   1.504
  855SOL    MW4 3452   2.224   2.427   1.485
  856SOL     OW 3453   2.216   2.677   1.628
  856SOL    HW2 3454   2.218   2.593   1.583
  856SOL    HW3 3455   2.143   2.725   1.588
  856SOL    MW4 3456   2.207   2.673   1.617
  857SOL     OW 3457   2.431   2.790   1.476
  857SOL    HW2 3458   2.437   2.881   1.505
  857SOL    HW3 3459   2.364   2.751   1.532
  857SOL    MW4 3460   2.423   2.797   1.487
  858SOL     OW 3461   2.463   3.057   1.557
  858SOL    HW2 3462   2.542   3.107   1.536
  858SOL    HW3 3463   2.390   3.114   1.531
  858SOL    MW4 3464   2.463   3.071   1.551
  859SOL     OW 3465   2.227   3.214   1.454
  859SOL    HW2 3466   2.223   3.306   1.480
  859SOL    HW3 3467   2.246   3.216   1.361
  859SOL    MW4 3468   2.229   3.226   1.445
  860SOL     OW 3469   2.231   3.457   1.572
  860SOL    HW2 3470   2.227   3.461   1.668
  860SOL    HW3 3471   2.311   3.503   1.549
  860SOL    MW4 3472   2.241   3.464   1.582
  861SOL     OW 3473   2.440   3.635   1.509
  861SOL    HW2 3474   2.530   3.608   1.524
  861SOL    HW3 3475   2.435   3.723   1.546
  861SOL    MW4 3476   2.451   3.643   1.516
  862SOL     OW 3477   2.441   3.881   1.616
  862SOL    HW2 3478   2.449   3.865   1.711
  862SOL    HW3 3479   2.509   3.945   1.597
  862SOL    MW4 3480   2.451   3.887   1.626
  863SOL     OW 3481   2.228   4.018   1.471
  863SOL    HW2 3482   2.299   3.970   1.513
  863SOL    HW3 3483   2.241   4.004   1.377
  863SOL    MW4 3484   2.239   4.010   1.464
  864SOL     OW 3485   2.236   4.261   1.598
  864SOL    HW2 3486   2.309   4.301   1.551
  864SOL    HW3 3487   2.221   4.178   1.553
  864SOL    MW4 3488   2.243   4.256   1.586
  865SOL     OW 3489   2.450   4.366   1.485
  865SOL    HW2 3490   2.445   4.453   1.525
  865SOL    HW3 3491   2.468   4.383   1.392
  865SOL    MW4 3492   2.451   4.379   1.478
  866SOL     OW 3493   2.921   4.614   1.591
  866SOL    HW2 3494   2.916   4.642   1.682
  866SOL    HW3 3495   2.855   4.666   1.545
  866SOL    MW4 3496   2.912   4.624   1.597
  867SOL     OW 3497   2.683   0.093   1.506
  867SOL    HW2 3498   2.685   0.176   1.553
  867SOL    HW3 3499   2.607   0.047   1.540
  867SOL    MW4 3500   2.673   0.098   1.517
  868SOL     OW 3501   2.709   0.339   1.620
  868SOL    HW2 3502   2.724   0.344   1.715
  868SOL    HW3 3503   2.783   0.387   1.582
  868SOL    MW4 3504   2.721   0.346   1.628
  869SOL     OW 3505   2.923   0.480   1.517
  869SOL    HW2 3506   2.911   0.575   1.526
  869SOL    HW3 3507   2.914   0.463   1.423
  869SOL    MW4 3508   2.920   0.490   1.506
  870SOL     OW 3509   2.881   0.739   1.612
  870SOL    HW2 3510   2.869   0.735   1.706
  870SOL    HW3 3511   2.809   0.792   1.580
  870SOL    MW4 3512   2.870   0.745   1.620
  871SOL     OW 3513   2.686   0.905   1.523
  871SOL    HW2 3514   2.604   0.862   1.547
  871SOL    HW3 3515   2.701   0.879   1.432
  871SOL    MW4 3516   2.677   0.896   1.514
  872SOL     OW 3517   2.747   1.164   1.597
  872SOL    HW2 3518   2.727   1.072   1.582
  872SOL    HW3 3519   2.664   1.209   1.585
  872SOL    MW4 3520   2.733   1.158   1.594
  873SOL     OW 3521   2.966   1.284   1.484
  873SOL    HW2 3522   3.043   1.237   1.517
  873SOL    HW3 3523   2.892   1.242   1.527
  873SOL    MW4 3524   2.967   1.272   1.494
  874SOL     OW 3525   2.919   1.524   1.604
  874SOL    HW2 3526   2.845   1.562   1.558
  874SOL    HW3 3527   2.946   1.450   1.550
  874SOL    MW4 3528   2.913   1.519   1.591
  875SOL     OW 3529   2.703   1.645   1.502
  875SOL    HW2 3530   2.682   1.734   1.530
  875SOL    HW3 3531   2.704   1.650   1.406
  875SOL    MW4 3532   2.700   1.657   1.493
  876SOL     OW 3533   2.707   1.904   1.595
  876SOL    HW2 3534   2.700   1.889   1.689
  876SOL    HW3 3535   2.632   1.959   1.574
  876SOL    MW4 3536   2.696   1.909   1.605
  877SOL     OW 3537   2.913   2.020   1.469
  877SOL    HW2 3538   2.910   2.107   1.507
  877SOL    HW3 3539   2.841   1.973   1.511
  877SOL    MW4 3540   2.903   2.025   1.480
  878SOL     OW 3541   2.905   2.257   1.600
  878SOL    HW2 3542   2.898   2.225   1.690
  878SOL    HW3 3543   2.830   2.315   1.589
  878SOL    MW4 3544   2.894   2.260   1.610
  879SOL     OW 3545   2.676   2.425   1.572
  879SOL    HW2 3546   2.663   2.513   1.608
  879SOL    HW3 3547   2.591   2.383   1.583
  879SOL    MW4 3548   2.663   2.431   1.578
  880SOL     OW 3549   2.660   2.685   1.616
  880SOL    HW2 3550   2.731   2.720   1.563
  880SOL    HW3 3551   2.580   2.718   1.574
  880SOL    MW4 3552   2.659   2.694   1.604
  881SOL     OW 3553   2.873   2.824   1.488
  881SOL    HW2 3554   2.955   2.785   1.517
  881SOL    HW3 3555   2.871   2.910   1.531
  881SOL    MW4 3556   2.884   2.830   1.497
  882SOL     OW 3557   2.871   3.093   1.556
  882SOL    HW2 3558   2.885   3.089   1.651
  882SOL    HW3 3559   2.953   3.128   1.522
  882SOL    MW4 3560   2.884   3.097   1.564
  883SOL     OW 3561   2.671   3.246   1.455
  883SOL    HW2 3562   2.748   3.196   1.482
  883SOL    HW3 3563   2.676   3.249   1.360
  883SOL    MW4 3564   2.681   3.240   1.446
  884SOL     OW 3565   2.696   3.484   1.597
  884SOL    HW2 3566   2.680   3.475   1.690
  884SOL    HW3 3567   2.684   3.396   1.561
  884SOL    MW4 3568   2.692   3.471   1.604
  885SOL     OW 3569   2.896   3.630   1.491
  885SOL    HW2 3570   2.836   3.563   1.522
  885SOL    HW3 3571   2.887   3.629   1.396
  885SOL    MW4 3572   2.887   3.621   1.483
  886SOL     OW 3573   2.896   3.874   1.625
  886SOL    HW2 3574   2.819   3.925   1.600
  886SOL    HW3 3575   2.893   3.796   1.570
  886SOL    MW4 3576   2.886   3.871   1.615
  887SOL     OW 3577   2.672   4.018   1.519
  887SOL    HW2 3578   2.671   4.098   1.572
  887SOL    HW3 3579   2.687   4.048   1.430
  887SOL    MW4 3580   2.674   4.032   1.515
  888SOL     OW 3581   2.661   4.262   1.652
  888SOL    HW2 3582   2.731   4.294   1.595
  888SOL    HW3 3583   2.582   4.303   1.617
  888SOL    MW4 3584   2.660   4.272   1.640
  889SOL     OW 3585   2.882   4.355   1.521
  889SOL    HW2 3586   2.897   4.445   1.551
  889SOL    HW3 3587   2.873   4.362   1.426
  889SOL    MW4 3588   2.883   4.368   1.512
  890SOL     OW 3589   3.347   4.634   1.600
  890SOL    HW2 3590   3.441   4.644   1.590
  890SOL    HW3 3591   3.327   4.551   1.557
  890SOL    MW4 3592   3.356   4.624   1.593
  891SOL     OW 3593   3.144   0.093   1.462
  891SOL    HW2 3594   3.217   0.055   1.511
  891SOL    HW3 3595   3.069   0.039   1.483
  891SOL    MW4 3596   3.144   0.081   1.471
  892SOL     OW 3597   3.160   0.354   1.622
  892SOL    HW2 3598   3.151   0.276   1.566
  892SOL    HW3 3599   3.088   0.411   1.596
  892SOL    MW4 3600   3.150   0.351   1.611
  893SOL     OW 3601   3.395   0.455   1.548
  893SOL    HW2 3602   3.309   0.418   1.570
  893SOL    HW3 3603   3.397   0.454   1.452
  893SOL    MW4 3604   3.384   0.450   1.538
  894SOL     OW 3605   3.364   0.729   1.605
  894SOL    HW2 3606   3.368   0.727   1.701
  894SOL    HW3 3607   3.378   0.638   1.579
  894SOL    MW4 3608   3.366   0.717   1.614
  895SOL     OW 3609   3.112   0.840   1.539
  895SOL    HW2 3610   3.184   0.780   1.556
  895SOL    HW3 3611   3.034   0.792   1.567
  895SOL    MW4 3612   3.111   0.826   1.545
  896SOL     OW 3613   3.167   1.105   1.562
  896SOL    HW2 3614   3.157   1.103   1.657
  896SOL    HW3 3615   3.151   1.015   1.534
  896SOL    MW4 3616   3.164   1.093   1.571
  897SOL     OW 3617   3.379   1.255   1.455
  897SOL    HW2 3618   3.444   1.206   1.504
  897SOL    HW3 3619   3.296   1.211   1.472
  897SOL    MW4 3620   3.377   1.243   1.464
  898SOL     OW 3621   3.344   1.497   1.575
  898SOL    HW2 3622   3.357   1.494   1.670
  898SOL    HW3 3623   3.362   1.408   1.545
  898SOL    MW4 3624   3.348   1.485   1.583
  899SOL     OW 3625   3.139   1.659   1.495
  899SOL    HW2 3626   3.212   1.599   1.507
  899SOL    HW3 3627   3.068   1.622   1.547
  899SOL    MW4 3628   3.139   1.646   1.503
  900SOL     OW 3629   3.115   1.913   1.607
  900SOL    HW2 3630   3.146   1.827   1.579
  900SOL    HW3 3631   3.042   1.932   1.548
  900SOL    MW4 3632   3.109   1.904   1.595
  901SOL     OW 3633   3.349   2.049   1.537
  901SOL    HW2 3634   3.266   2.006   1.556
  901SOL    HW3 3635   3.353   2.052   1.441
  901SOL    MW4 3636   3.339   2.044   1.527
  902SOL     OW 3637   3.328   2.321   1.628
  902SOL    HW2 3638   3.410   2.362   1.599
  902SOL    HW3 3639   3.336   2.230   1.601
  902SOL    MW4 3640   3.340   2.314   1.621
  903SOL     OW 3641   3.117   2.440   1.511
  903SOL    HW2 3642   3.200   2.413   1.552
  903SOL    HW3 3643   3.051   2.383   1.552
  903SOL    MW4 3644   3.119   2.429   1.522
  904SOL     OW 3645   3.095   2.706   1.592
  904SOL    HW2 3646   3.182   2.735   1.565
  904SOL    HW3 3647   3.085   2.619   1.554
  904SOL    MW4 3648   3.105   2.699   1.583
  905SOL     OW 3649   3.336   2.801   1.533
  905SOL    HW2 3650   3.334   2.893   1.558
  905SOL    HW3 3651   3.353   2.802   1.439
  905SOL    MW4 3652   3.338   2.813   1.524
  906SOL     OW 3653   3.338   3.076   1.562
  906SOL    HW2 3654   3.358   3.068   1.656
  906SOL    HW3 3655   3.416   3.117   1.525
  906SOL    MW4 3656   3.351   3.081   1.570
  907SOL     OW 3657   3.106   3.227   1.501
  907SOL    HW2 3658   3.175   3.176   1.544
  907SOL    HW3 3659   3.131   3.228   1.409
  907SOL    MW4 3660   3.118   3.220   1.494
  908SOL     OW 3661   3.136   3.503   1.580
  908SOL    HW2 3662   3.132   3.409   1.561
  908SOL    HW3 3663   3.060   3.539   1.534
  908SOL    MW4 3664   3.125   3.495   1.571
  909SOL     OW 3665   3.344   3.657   1.486
  909SOL    HW2 3666   3.417   3.599   1.511
  909SOL    HW3 3667   3.267   3.616   1.524
  909SOL    MW4 3668   3.344   3.644   1.494
  910SOL     OW 3669   3.361   3.914   1.598
  910SOL    HW2 3670   3.282   3.953   1.561
  910SOL    HW3 3671   3.358   3.822   1.568
  910SOL    MW4 3672   3.350   3.907   1.589
  911SOL     OW 3673   3.117   3.989   1.495
  911SOL    HW2 3674   3.132   4.080   1.521
  911SOL    HW3 3675   3.046   3.959   1.551
  911SOL    MW4 3676   3.110   3.997   1.506
  912SOL     OW 3677   3.141   4.254   1.568
  912SOL    HW2 3678   3.142   4.248   1.663
  912SOL    HW3 3679   3.060   4.301   1.547
  912SOL    MW4 3680   3.130   4.260   1.578
  913SOL     OW 3681   3.364   4.375   1.489
  913SOL    HW2 3682   3.284   4.327   1.511
  913SOL    HW3 3683   3.357   4.391   1.395
  913SOL    MW4 3684   3.352   4.371   1.479
  914SOL     OW 3685   3.869   4.619   1.631
  914SOL    HW2 3686   3.856   4.628   1.726
  914SOL    HW3 3687   3.929   4.690   1.608
  914SOL    MW4 3688   3.875   4.629   1.641
  915SOL     OW 3689   3.625   0.054   1.566
  915SOL    HW2 3690   3.710   0.016   1.591
  915SOL    HW3 3691   3.628   0.057   1.471
  915SOL    MW4 3692   3.637   0.049   1.557
  916SOL     OW 3693   3.622   0.332   1.632
  916SOL    HW2 3694   3.628   0.238   1.613
  916SOL    HW3 3695   3.530   0.354   1.616
  916SOL    MW4 3696   3.611   0.322   1.627
  917SOL     OW 3697   3.842   0.488   1.543
  917SOL    HW2 3698   3.762   0.442   1.566
  917SOL    HW3 3699   3.844   0.487   1.447
  917SOL    MW4 3700   3.832   0.482   1.533
  918SOL     OW 3701   3.821   0.754   1.651
  918SOL    HW2 3702   3.755   0.796   1.595
  918SOL    HW3 3703   3.841   0.671   1.606
  918SOL    MW4 3704   3.815   0.748   1.638
  919SOL     OW 3705   3.599   0.870   1.501
  919SOL    HW2 3706   3.522   0.818   1.524
  919SOL    HW3 3707   3.600   0.871   1.405
  919SOL    MW4 3708   3.589   0.863   1.491
  920SOL     OW 3709   3.598   1.146   1.601
  920SOL    HW2 3710   3.676   1.186   1.562
  920SOL    HW3 3711   3.592   1.060   1.561
  920SOL    MW4 3712   3.607   1.140   1.590
  921SOL     OW 3713   3.809   1.280   1.479
  921SOL    HW2 3714   3.879   1.260   1.541
  921SOL    HW3 3715   3.775   1.364   1.509
  921SOL    MW4 3716   3.814   1.288   1.491
  922SOL     OW 3717   3.811   1.552   1.566
  922SOL    HW2 3718   3.809   1.558   1.661
  922SOL    HW3 3719   3.728   1.591   1.538
  922SOL    MW4 3720   3.800   1.558   1.575
  923SOL     OW 3721   3.569   1.661   1.475
  923SOL    HW2 3722   3.499   1.600   1.498
  923SOL    HW3 3723   3.588   1.643   1.383
  923SOL    MW4 3724   3.562   1.651   1.466
  924SOL     OW 3725   3.586   1.915   1.600
  924SOL    HW2 3726   3.565   1.824   1.577
  924SOL    HW3 3727   3.506   1.964   1.578
  924SOL    MW4 3728   3.573   1.909   1.594
  925SOL     OW 3729   3.818   2.049   1.524
  925SOL    HW2 3730   3.796   2.123   1.581
  925SOL    HW3 3731   3.739   1.994   1.524
  925SOL    MW4 3732   3.805   2.052   1.532
  926SOL     OW 3733   3.774   2.316   1.634
  926SOL    HW2 3734   3.762   2.314   1.729
  926SOL    HW3 3735   3.848   2.375   1.620
  926SOL    MW4 3736   3.782   2.324   1.645
  927SOL     OW 3737   3.556   2.452   1.534
  927SOL    HW2 3738   3.571   2.540   1.570
  927SOL    HW3 3739   3.629   2.400   1.566
  927SOL    MW4 3740   3.567   2.457   1.543
  928SOL     OW 3741   3.580   2.709   1.632
  928SOL    HW2 3742   3.578   2.705   1.727
  928SOL    HW3 3743   3.489   2.725   1.606
  928SOL    MW4 3744   3.568   2.711   1.641
  929SOL     OW 3745   3.816   2.825   1.510
  929SOL    HW2 3746   3.890   2.805   1.567
  929SOL    HW3 3747   3.744   2.772   1.544
  929SOL    MW4 3748   3.817   2.815   1.522
  930SOL     OW 3749   3.792   3.073   1.618
  930SOL    HW2 3750   3.867   3.111   1.573
  930SOL    HW3 3751   3.786   2.984   1.585
  930SOL    MW4 3752   3.801   3.067   1.608
  931SOL     OW 3753   3.580   3.210   1.509
  931SOL    HW2 3754   3.656   3.164   1.544
  931SOL    HW3 3755   3.591   3.207   1.414
  931SOL    MW4 3756   3.591   3.204   1.501
  932SOL     OW 3757   3.546   3.490   1.567
  932SOL    HW2 3758   3.631   3.519   1.535
  932SOL    HW3 3759   3.555   3.396   1.576
  932SOL    MW4 3760   3.558   3.482   1.564
  933SOL     OW 3761   3.796   3.607   1.510
  933SOL    HW2 3762   3.876   3.570   1.547
  933SOL    HW3 3763   3.791   3.696   1.545
  933SOL    MW4 3764   3.806   3.614   1.519
  934SOL     OW 3765   3.825   3.868   1.598
  934SOL    HW2 3766   3.908   3.909   1.573
  934SOL    HW3 3767   3.758   3.922   1.556
  934SOL    MW4 3768   3.827   3.880   1.589
  935SOL     OW 3769   3.619   3.999   1.477
  935SOL    HW2 3770   3.610   4.091   1.504
  935SOL    HW3 3771   3.548   3.954   1.523
  935SOL    MW4 3772   3.609   4.005   1.487
  936SOL     OW 3773   3.614   4.278   1.565
  936SOL    HW2 3774   3.610   4.276   1.660
  936SOL    HW3 3775   3.528   4.312   1.538
  936SOL    MW4 3776   3.602   4.282   1.574
  937SOL     OW 3777   3.867   4.378   1.500
  937SOL    HW2 3778   3.779   4.341   1.512
  937SOL    HW3 3779   3.863   4.463   1.542
  937SOL    MW4 3780   3.855   4.384   1.507
  938SOL     OW 3781   4.266   0.029   1.639
  938SOL    HW2 3782   4.257   0.019   1.734
  938SOL    HW3 3783   4.278  -0.060   1.607
  938SOL    MW4 3784   4.266   0.016   1.648
  939SOL     OW 3785   4.045   0.148   1.522
  939SOL    HW2 3786   4.049   0.228   1.574
  939SOL    HW3 3787   4.116   0.094   1.555
  939SOL    MW4 3788   4.055   0.152   1.533
  940SOL     OW 3789   4.071   0.379   1.664
  940SOL    HW2 3790   4.079   0.379   1.759
  940SOL    HW3 3791   3.987   0.422   1.647
  940SOL    MW4 3792   4.061   0.385   1.674
  941SOL     OW 3793   4.278   0.531   1.520
  941SOL    HW2 3794   4.202   0.489   1.560
  941SOL    HW3 3795   4.353   0.489   1.561
  941SOL    MW4 3796   4.278   0.520   1.530
  942SOL     OW 3797   4.281   0.800   1.618
  942SOL    HW2 3798   4.270   0.707   1.599
  942SOL    HW3 3799   4.359   0.826   1.569
  942SOL    MW4 3800   4.290   0.791   1.609
  943SOL     OW 3801   4.022   0.921   1.555
  943SOL    HW2 3802   4.105   0.879   1.580
  943SOL    HW3 3803   3.955   0.869   1.600
  943SOL    MW4 3804   4.024   0.908   1.564
  944SOL     OW 3805   4.008   1.173   1.637
  944SOL    HW2 3806   4.004   1.175   1.733
  944SOL    HW3 3807   4.013   1.080   1.615
  944SOL    MW4 3808   4.009   1.161   1.647
  945SOL     OW 3809   4.236   1.282   1.490
  945SOL    HW2 3810   4.161   1.252   1.542
  945SOL    HW3 3811   4.311   1.234   1.526
  945SOL    MW4 3812   4.236   1.272   1.502
  946SOL     OW 3813   4.279   1.517   1.628
  946SOL    HW2 3814   4.279   1.431   1.586
  946SOL    HW3 3815   4.346   1.567   1.582
  946SOL    MW4 3816   4.288   1.512   1.616
  947SOL     OW 3817   4.082   1.676   1.523
  947SOL    HW2 3818   4.140   1.623   1.578
  947SOL    HW3 3819   3.995   1.640   1.539
  947SOL    MW4 3820   4.078   1.664   1.533
  948SOL     OW 3821   4.054   1.933   1.617
  948SOL    HW2 3822   4.061   1.845   1.581
  948SOL    HW3 3823   3.974   1.968   1.578
  948SOL    MW4 3824   4.044   1.926   1.607
  949SOL     OW 3825   4.259   2.099   1.521
  949SOL    HW2 3826   4.199   2.032   1.552
  949SOL    HW3 3827   4.251   2.096   1.425
  949SOL    MW4 3828   4.250   2.090   1.512
  950SOL     OW 3829   4.211   2.356   1.631
  950SOL    HW2 3830   4.210   2.352   1.726
  950SOL    HW3 3831   4.211   2.265   1.603
  950SOL    MW4 3832   4.210   2.344   1.640
  951SOL     OW 3833   3.992   2.498   1.539
  951SOL    HW2 3834   4.006   2.583   1.579
  951SOL    HW3 3835   4.057   2.441   1.579
  951SOL    MW4 3836   4.002   2.502   1.549
  952SOL     OW 3837   4.021   2.736   1.656
  952SOL    HW2 3838   4.030   2.725   1.751
  952SOL    HW3 3839   4.107   2.768   1.628
  952SOL    MW4 3840   4.034   2.739   1.665
  953SOL     OW 3841   4.241   2.848   1.548
  953SOL    HW2 3842   4.221   2.941   1.556
  953SOL    HW3 3843   4.231   2.829   1.455
  953SOL    MW4 3844   4.237   2.858   1.537
  954SOL     OW 3845   4.202   3.112   1.606
  954SOL    HW2 3846   4.206   3.105   1.701
  954SOL    HW3 3847   4.279   3.162   1.582
  954SOL    MW4 3848   4.212   3.118   1.616
  955SOL     OW 3849   3.981   3.243   1.506
  955SOL    HW2 3850   3.974   3.327   1.552
  955SOL    HW3 3851   4.060   3.203   1.542
  955SOL    MW4 3852   3.990   3.249   1.517
  956SOL     OW 3853   4.020   3.501   1.634
  956SOL    HW2 3854   4.030   3.490   1.729
  956SOL    HW3 3855   4.102   3.543   1.607
  956SOL    MW4 3856   4.032   3.505   1.643
  957SOL     OW 3857   4.262   3.592   1.538
  957SOL    HW2 3858   4.276   3.684   1.561
  957SOL    HW3 3859   4.232   3.594   1.447
  957SOL    MW4 3860   4.260   3.604   1.529
  958SOL     OW 3861   4.272   3.861   1.631
  958SOL    HW2 3862   4.200   3.923   1.617
  958SOL    HW3 3863   4.349   3.904   1.594
  958SOL    MW4 3864   4.273   3.875   1.624
  959SOL     OW 3865   4.055   4.007   1.524
  959SOL    HW2 3866   4.065   4.089   1.571
  959SOL    HW3 3867   4.067   4.031   1.432
  959SOL    MW4 3868   4.058   4.021   1.518
  960SOL     OW 3869   4.082   4.267   1.625
  960SOL    HW2 3870   4.062   4.268   1.718
  960SOL    HW3 3871   4.000   4.290   1.582
  960SOL    MW4 3872   4.068   4.270   1.632
  961SOL     OW 3873   4.285   4.409   1.536
  961SOL    HW2 3874   4.207   4.364   1.568
  961SOL    HW3 3875   4.278   4.405   1.441
  961SOL    MW4 3876   4.274   4.403   1.528
  962SOL     OW 3877   0.223   4.647   1.855
  962SOL    HW2 3878   0.296   4.693   1.898
  962SOL    HW3 3879   0.236   4.665   1.762
  962SOL    MW4 3880   0.234   4.656   1.849
  963SOL     OW 3881   0.018   0.138   1.966
  963SOL    HW2 3882   0.038   0.227   1.937
  963SOL    HW3 3883   0.080   0.083   1.919
  963SOL    MW4 3884   0.029   0.143   1.956
  964SOL     OW 3885   0.021   0.411   1.910
  964SOL    HW2 3886  -0.062   0.456   1.929
  964SOL    HW3 3887   0.088   0.472   1.941
  964SOL    MW4 3888   0.019   0.425   1.917
  965SOL     OW 3889   0.223   0.582   2.018
  965SOL    HW2 3890   0.285   0.525   1.974
  965SOL    HW3 3891   0.222   0.662   1.964
  965SOL    MW4 3892   0.231   0.585   2.005
  966SOL     OW 3893   0.204   0.812   1.889
  966SOL    HW2 3894   0.282   0.849   1.932
  966SOL    HW3 3895   0.224   0.817   1.796
  966SOL    MW4 3896   0.217   0.818   1.883
  967SOL     OW 3897   4.454   0.916   2.004
  967SOL    HW2 3898   4.377   0.876   1.964
  967SOL    HW3 3899   4.528   0.879   1.955
  967SOL    MW4 3900   4.454   0.906   1.992
  968SOL     OW 3901   4.455   1.166   1.876
  968SOL    HW2 3902   4.399   1.227   1.922
  968SOL    HW3 3903   4.450   1.085   1.926
  968SOL    MW4 3904   4.447   1.163   1.889
  969SOL     OW 3905   0.193   1.262   1.971
  969SOL    HW2 3906   0.188   1.356   1.957
  969SOL    HW3 3907   0.112   1.227   1.933
  969SOL    MW4 3908   0.182   1.269   1.964
  970SOL     OW 3909   0.236   1.540   1.872
  970SOL    HW2 3910   0.316   1.551   1.923
  970SOL    HW3 3911   0.171   1.592   1.919
  970SOL    MW4 3912   0.238   1.549   1.885
  971SOL     OW 3913   0.031   1.696   1.990
  971SOL    HW2 3914   0.016   1.684   2.084
  971SOL    HW3 3915  -0.047   1.657   1.949
  971SOL    MW4 3916   0.019   1.689   1.997
  972SOL     OW 3917   0.028   1.940   1.855
  972SOL    HW2 3918  -0.052   1.979   1.892
  972SOL    HW3 3919   0.025   1.849   1.884
  972SOL    MW4 3920   0.017   1.933   1.864
  973SOL     OW 3921   0.243   2.086   1.962
  973SOL    HW2 3922   0.240   2.164   1.906
  973SOL    HW3 3923   0.164   2.037   1.940
  973SOL    MW4 3924   0.232   2.090   1.952
  974SOL     OW 3925   0.189   2.338   1.838
  974SOL    HW2 3926   0.266   2.369   1.885
  974SOL    HW3 3927   0.115   2.384   1.878
  974SOL    MW4 3928   0.189   2.348   1.849
  975SOL     OW 3929   4.453   2.444   1.989
  975SOL    HW2 3930   4.435   2.425   2.082
  975SOL    HW3 3931   4.439   2.538   1.980
  975SOL    MW4 3932   4.449   2.454   2.000
  976SOL     OW 3933   4.421   2.712   1.911
  976SOL    HW2 3934   4.337   2.754   1.927
  976SOL    HW3 3935   4.438   2.727   1.818
  976SOL    MW4 3936   4.412   2.720   1.901
  977SOL     OW 3937   0.197   2.796   1.982
  977SOL    HW2 3938   0.201   2.885   1.947
  977SOL    HW3 3939   0.104   2.773   1.979
  977SOL    MW4 3940   0.186   2.805   1.977
  978SOL     OW 3941   0.204   3.057   1.844
  978SOL    HW2 3942   0.290   3.094   1.866
  978SOL    HW3 3943   0.201   3.061   1.748
  978SOL    MW4 3944   0.215   3.063   1.834
  979SOL     OW 3945   0.000   3.201   1.966
  979SOL    HW2 3946  -0.089   3.191   1.933
  979SOL    HW3 3947   0.050   3.133   1.922
  979SOL    MW4 3948  -0.005   3.191   1.956
  980SOL     OW 3949   4.486   3.456   1.906
  980SOL    HW2 3950   4.560   3.503   1.947
  980SOL    HW3 3951   4.495   3.367   1.938
  980SOL    MW4 3952   4.498   3.451   1.916
  981SOL     OW 3953   0.209   3.595   2.002
  981SOL    HW2 3954   0.239   3.610   2.092
  981SOL    HW3 3955   0.276   3.539   1.964
  981SOL    MW4 3956   0.222   3.590   2.009
  982SOL     OW 3957   0.243   3.854   1.910
  982SOL    HW2 3958   0.324   3.894   1.943
  982SOL    HW3 3959   0.247   3.764   1.940
  982SOL    MW4 3960   0.254   3.848   1.919
  983SOL     OW 3961   4.480   3.988   2.005
  983SOL    HW2 3962   4.474   4.075   1.965
  983SOL    HW3 3963   4.545   3.941   1.953
  983SOL    MW4 3964   4.487   3.993   1.993
  984SOL     OW 3965   0.007   4.248   1.882
  984SOL    HW2 3966  -0.068   4.294   1.921
  984SOL    HW3 3967   0.083   4.280   1.930
  984SOL    MW4 3968   0.007   4.258   1.893
  985SOL     OW 3969   0.214   4.402   2.022
  985SOL    HW2 3970   0.213   4.426   2.114
  985SOL    HW3 3971   0.216   4.486   1.975
  985SOL    MW4 3972   0.214   4.417   2.028
  986SOL     OW 3973   0.668   0.007   1.847
  986SOL    HW2 3974   0.674  -0.083   1.880
  986SOL    HW3 3975   0.667  -0.003   1.752
  986SOL    MW4 3976   0.669  -0.006   1.839
  987SOL     OW 3977   0.434   0.125   1.966
  987SOL    HW2 3978   0.432   0.221   1.963
  987SOL    HW3 3979   0.513   0.102   1.917
  987SOL    MW4 3980   0.444   0.135   1.959
  988SOL     OW 3981   0.386   0.390   1.910
  988SOL    HW2 3982   0.470   0.426   1.940
  988SOL    HW3 3983   0.391   0.393   1.814
  988SOL    MW4 3984   0.398   0.396   1.901
  989SOL     OW 3985   0.618   0.498   2.007
  989SOL    HW2 3986   0.635   0.500   2.101
  989SOL    HW3 3987   0.704   0.481   1.968
  989SOL    MW4 3988   0.631   0.496   2.014
  990SOL     OW 3989   0.654   0.766   1.917
  990SOL    HW2 3990   0.725   0.812   1.961
  990SOL    HW3 3991   0.641   0.686   1.968
  990SOL    MW4 3992   0.662   0.761   1.929
  991SOL     OW 3993   0.428   0.904   2.009
  991SOL    HW2 3994   0.434   0.990   1.968
  991SOL    HW3 3995   0.506   0.858   1.979
  991SOL    MW4 3996   0.439   0.910   2.000
  992SOL     OW 3997   0.441   1.164   1.896
  992SOL    HW2 3998   0.360   1.204   1.930
  992SOL    HW3 3999   0.427   1.160   1.802
  992SOL    MW4 4000   0.428   1.169   1.888
  993SOL     OW 4001   0.668   1.285   1.980
  993SOL    HW2 4002   0.654   1.280   2.074
  993SOL    HW3 4003   0.590   1.245   1.942
  993SOL    MW4 4004   0.656   1.279   1.987
  994SOL     OW 4005   0.691   1.540   1.886
  994SOL    HW2 4006   0.702   1.448   1.908
  994SOL    HW3 4007   0.677   1.540   1.791
  994SOL    MW4 4008   0.691   1.528   1.876
  995SOL     OW 4009   0.465   1.633   2.014
  995SOL    HW2 4010   0.465   1.634   2.110
  995SOL    HW3 4011   0.551   1.598   1.992
  995SOL    MW4 4012   0.477   1.628   2.024
  996SOL     OW 4013   0.442   1.891   1.920
  996SOL    HW2 4014   0.444   1.809   1.969
  996SOL    HW3 4015   0.367   1.939   1.955
  996SOL    MW4 4016   0.433   1.887   1.931
  997SOL     OW 4017   0.668   2.039   1.959
  997SOL    HW2 4018   0.656   2.069   2.049
  997SOL    HW3 4019   0.582   2.005   1.935
  997SOL    MW4 4020   0.655   2.038   1.968
  998SOL     OW 4021   0.640   2.319   1.882
  998SOL    HW2 4022   0.646   2.225   1.899
  998SOL    HW3 4023   0.631   2.325   1.787
  998SOL    MW4 4024   0.640   2.307   1.872
  999SOL     OW 4025   0.414   2.458   1.970
  999SOL    HW2 4026   0.398   2.461   2.064
  999SOL    HW3 4027   0.499   2.415   1.961
  999SOL    MW4 4028   0.423   2.453   1.981
 1000SOL     OW 4029   0.438   2.734   1.869
 1000SOL    HW2 4030   0.445   2.644   1.900
 1000SOL    HW3 4031   0.355   2.765   1.906
 1000SOL    MW4 4032   0.428   2.726   1.878
 1001SOL     OW 4033   0.662   2.884   1.977
 1001SOL    HW2 4034   0.653   2.874   2.072
 1001SOL    HW3 4035   0.583   2.844   1.942
 1001SOL    MW4 4036   0.650   2.878   1.985
 1002SOL     OW 4037   0.664   3.116   1.843
 1002SOL    HW2 4038   0.664   3.032   1.888
 1002SOL    HW3 4039   0.662   3.093   1.750
 1002SOL    MW4 4040   0.664   3.102   1.836
 1003SOL     OW 4041   0.428   3.178   1.948
 1003SOL    HW2 4042   0.426   3.273   1.946
 1003SOL    HW3 4043   0.504   3.154   1.894
 1003SOL    MW4 4044   0.438   3.187   1.940
 1004SOL     OW 4045   0.448   3.457   1.930
 1004SOL    HW2 4046   0.518   3.518   1.953
 1004SOL    HW3 4047   0.446   3.458   1.835
 1004SOL    MW4 4048   0.457   3.465   1.921
 1005SOL     OW 4049   0.663   3.594   2.031
 1005SOL    HW2 4050   0.742   3.543   2.011
 1005SOL    HW3 4051   0.678   3.678   1.989
 1005SOL    MW4 4052   0.675   3.598   2.023
 1006SOL     OW 4053   0.667   3.820   1.887
 1006SOL    HW2 4054   0.752   3.860   1.904
 1006SOL    HW3 4055   0.662   3.814   1.791
 1006SOL    MW4 4056   0.678   3.824   1.876
 1007SOL     OW 4057   0.473   3.984   2.008
 1007SOL    HW2 4058   0.491   4.075   1.983
 1007SOL    HW3 4059   0.540   3.933   1.962
 1007SOL    MW4 4060   0.485   3.989   1.999
 1008SOL     OW 4061   0.456   4.257   1.917
 1008SOL    HW2 4062   0.375   4.281   1.962
 1008SOL    HW3 4063   0.435   4.269   1.824
 1008SOL    MW4 4064   0.442   4.262   1.911
 1009SOL     OW 4065   0.695   4.422   1.947
 1009SOL    HW2 4066   0.755   4.351   1.924
 1009SOL    HW3 4067   0.609   4.380   1.951
 1009SOL    MW4 4068   0.691   4.407   1.944
 1010SOL     OW 4069   1.099   4.622   1.894
 1010SOL    HW2 4070   1.176   4.673   1.919
 1010SOL    HW3 4071   1.110   4.538   1.938
 1010SOL    MW4 4072   1.111   4.617   1.903
 1011SOL     OW 4073   0.876   0.106   1.983
 1011SOL    HW2 4074   0.947   0.047   1.956
 1011SOL    HW3 4075   0.800   0.075   1.933
 1011SOL    MW4 4076   0.875   0.094   1.972
 1012SOL     OW 4077   0.852   0.383   1.899
 1012SOL    HW2 4078   0.929   0.429   1.933
 1012SOL    HW3 4079   0.855   0.297   1.941
 1012SOL    MW4 4080   0.862   0.377   1.909
 1013SOL     OW 4081   1.093   0.487   2.007
 1013SOL    HW2 4082   1.168   0.437   1.975
 1013SOL    HW3 4083   1.094   0.568   1.956
 1013SOL    MW4 4084   1.103   0.491   1.996
 1014SOL     OW 4085   1.112   0.750   1.911
 1014SOL    HW2 4086   1.192   0.798   1.932
 1014SOL    HW3 4087   1.042   0.807   1.945
 1014SOL    MW4 4088   1.113   0.764   1.919
 1015SOL     OW 4089   0.884   0.900   1.985
 1015SOL    HW2 4090   0.879   0.901   2.080
 1015SOL    HW3 4091   0.878   0.992   1.959
 1015SOL    MW4 4092   0.883   0.912   1.994
 1016SOL     OW 4093   0.911   1.162   1.898
 1016SOL    HW2 4094   0.837   1.208   1.937
 1016SOL    HW3 4095   0.898   1.170   1.803
 1016SOL    MW4 4096   0.900   1.169   1.891
 1017SOL     OW 4097   1.141   1.263   2.003
 1017SOL    HW2 4098   1.146   1.353   1.970
 1017SOL    HW3 4099   1.062   1.227   1.963
 1017SOL    MW4 4100   1.131   1.270   1.993
 1018SOL     OW 4101   1.131   1.509   1.887
 1018SOL    HW2 4102   1.056   1.566   1.906
 1018SOL    HW3 4103   1.140   1.513   1.792
 1018SOL    MW4 4104   1.122   1.517   1.877
 1019SOL     OW 4105   0.924   1.680   1.958
 1019SOL    HW2 4106   0.920   1.770   1.925
 1019SOL    HW3 4107   0.842   1.640   1.929
 1019SOL    MW4 4108   0.913   1.687   1.950
 1020SOL     OW 4109   0.913   1.930   1.857
 1020SOL    HW2 4110   0.837   1.967   1.903
 1020SOL    HW3 4111   0.902   1.959   1.767
 1020SOL    MW4 4112   0.901   1.939   1.851
 1021SOL     OW 4113   1.106   2.082   1.979
 1021SOL    HW2 4114   1.096   2.171   1.944
 1021SOL    HW3 4115   1.039   2.031   1.934
 1021SOL    MW4 4116   1.095   2.087   1.969
 1022SOL     OW 4117   1.074   2.336   1.868
 1022SOL    HW2 4118   1.153   2.382   1.898
 1022SOL    HW3 4119   1.086   2.328   1.773
 1022SOL    MW4 4120   1.086   2.341   1.859
 1023SOL     OW 4121   0.840   2.445   1.997
 1023SOL    HW2 4122   0.916   2.405   1.954
 1023SOL    HW3 4123   0.764   2.408   1.951
 1023SOL    MW4 4124   0.840   2.435   1.985
 1024SOL     OW 4125   0.877   2.716   1.891
 1024SOL    HW2 4126   0.866   2.626   1.922
 1024SOL    HW3 4127   0.805   2.764   1.931
 1024SOL    MW4 4128   0.866   2.711   1.901
 1025SOL     OW 4129   1.104   2.821   1.974
 1025SOL    HW2 4130   1.081   2.838   2.066
 1025SOL    HW3 4131   1.025   2.782   1.937
 1025SOL    MW4 4132   1.091   2.818   1.981
 1026SOL     OW 4133   1.146   3.075   1.886
 1026SOL    HW2 4134   1.069   3.122   1.917
 1026SOL    HW3 4135   1.130   2.984   1.910
 1026SOL    MW4 4136   1.134   3.069   1.893
 1027SOL     OW 4137   0.908   3.212   1.980
 1027SOL    HW2 4138   0.894   3.202   2.075
 1027SOL    HW3 4139   0.831   3.171   1.940
 1027SOL    MW4 4140   0.896   3.205   1.987
 1028SOL     OW 4141   0.902   3.489   1.915
 1028SOL    HW2 4142   0.902   3.393   1.921
 1028SOL    HW3 4143   0.902   3.507   1.821
 1028SOL    MW4 4144   0.902   3.479   1.903
 1029SOL     OW 4145   1.158   3.587   1.975
 1029SOL    HW2 4146   1.171   3.592   2.070
 1029SOL    HW3 4147   1.066   3.564   1.964
 1029SOL    MW4 4148   1.148   3.584   1.986
 1030SOL     OW 4149   1.165   3.851   1.862
 1030SOL    HW2 4150   1.156   3.768   1.909
 1030SOL    HW3 4151   1.150   3.829   1.770
 1030SOL    MW4 4152   1.162   3.837   1.856
 1031SOL     OW 4153   0.898   3.954   1.945
 1031SOL    HW2 4154   0.900   3.976   2.038
 1031SOL    HW3 4155   0.986   3.922   1.926
 1031SOL    MW4 4156   0.910   3.952   1.955
 1032SOL     OW 4157   0.893   4.235   1.891
 1032SOL    HW2 4158   0.966   4.274   1.939
 1032SOL    HW3 4159   0.901   4.141   1.907
 1032SOL    MW4 4160   0.903   4.228   1.899
 1033SOL     OW 4161   1.126   4.358   1.998
 1033SOL    HW2 4162   1.139   4.382   2.090
 1033SOL    HW3 4163   1.210   4.321   1.971
 1033SOL    MW4 4164   1.139   4.357   2.007
 1034SOL     OW 4165   1.557   4.613   1.872
 1034SOL    HW2 4166   1.625   4.665   1.915
 1034SOL    HW3 4167   1.580   4.522   1.892
 1034SOL    MW4 4168   1.569   4.608   1.880
 1035SOL     OW 4169   1.326   0.095   1.955
 1035SOL    HW2 4170   1.328   0.093   2.050
 1035SOL    HW3 4171   1.404   0.046   1.928
 1035SOL    MW4 4172   1.337   0.088   1.964
 1036SOL     OW 4173   1.333   0.374   1.899
 1036SOL    HW2 4174   1.327   0.281   1.918
 1036SOL    HW3 4175   1.351   0.378   1.805
 1036SOL    MW4 4176   1.334   0.362   1.889
 1037SOL     OW 4177   1.541   0.523   2.008
 1037SOL    HW2 4178   1.613   0.476   1.966
 1037SOL    HW3 4179   1.462   0.475   1.982
 1037SOL    MW4 4180   1.540   0.511   1.999
 1038SOL     OW 4181   1.557   0.767   1.902
 1038SOL    HW2 4182   1.642   0.793   1.938
 1038SOL    HW3 4183   1.544   0.677   1.933
 1038SOL    MW4 4184   1.566   0.758   1.911
 1039SOL     OW 4185   1.331   0.893   2.000
 1039SOL    HW2 4186   1.338   0.891   2.096
 1039SOL    HW3 4187   1.407   0.844   1.970
 1039SOL    MW4 4188   1.342   0.886   2.009
 1040SOL     OW 4189   1.339   1.134   1.878
 1040SOL    HW2 4190   1.348   1.047   1.918
 1040SOL    HW3 4191   1.266   1.174   1.926
 1040SOL    MW4 4192   1.330   1.128   1.890
 1041SOL     OW 4193   1.574   1.262   1.966
 1041SOL    HW2 4194   1.561   1.349   1.928
 1041SOL    HW3 4195   1.491   1.217   1.950
 1041SOL    MW4 4196   1.561   1.268   1.959
 1042SOL     OW 4197   1.554   1.528   1.876
 1042SOL    HW2 4198   1.635   1.572   1.901
 1042SOL    HW3 4199   1.485   1.581   1.916
 1042SOL    MW4 4200   1.555   1.541   1.885
 1043SOL     OW 4201   1.331   1.684   1.983
 1043SOL    HW2 4202   1.336   1.694   2.078
 1043SOL    HW3 4203   1.262   1.619   1.969
 1043SOL    MW4 4204   1.323   1.676   1.993
 1044SOL     OW 4205   1.321   1.956   1.879
 1044SOL    HW2 4206   1.312   1.864   1.904
 1044SOL    HW3 4207   1.247   1.999   1.921
 1044SOL    MW4 4208   1.310   1.949   1.888
 1045SOL     OW 4209   1.568   2.058   1.983
 1045SOL    HW2 4210   1.572   2.140   1.933
 1045SOL    HW3 4211   1.495   2.010   1.944
 1045SOL    MW4 4212   1.559   2.062   1.971
 1046SOL     OW 4213   1.552   2.312   1.829
 1046SOL    HW2 4214   1.623   2.363   1.866
 1046SOL    HW3 4215   1.570   2.310   1.735
 1046SOL    MW4 4216   1.563   2.318   1.822
 1047SOL     OW 4217   1.311   2.461   1.932
 1047SOL    HW2 4218   1.318   2.556   1.924
 1047SOL    HW3 4219   1.387   2.427   1.886
 1047SOL    MW4 4220   1.322   2.469   1.925
 1048SOL     OW 4221   1.358   2.728   1.914
 1048SOL    HW2 4222   1.281   2.768   1.955
 1048SOL    HW3 4223   1.346   2.744   1.820
 1048SOL    MW4 4224   1.346   2.736   1.907
 1049SOL     OW 4225   1.603   2.838   2.000
 1049SOL    HW2 4226   1.661   2.787   1.944
 1049SOL    HW3 4227   1.515   2.815   1.970
 1049SOL    MW4 4228   1.599   2.828   1.988
 1050SOL     OW 4229   1.565   3.091   1.854
 1050SOL    HW2 4230   1.595   3.005   1.884
 1050SOL    HW3 4231   1.556   3.082   1.759
 1050SOL    MW4 4232   1.568   3.079   1.845
 1051SOL     OW 4233   1.354   3.233   1.977
 1051SOL    HW2 4234   1.428   3.179   1.950
 1051SOL    HW3 4235   1.277   3.176   1.968
 1051SOL    MW4 4236   1.353   3.219   1.972
 1052SOL     OW 4237   1.357   3.472   1.818
 1052SOL    HW2 4238   1.358   3.388   1.863
 1052SOL    HW3 4239   1.292   3.524   1.865
 1052SOL    MW4 4240   1.348   3.468   1.830
 1053SOL     OW 4241   1.568   3.637   1.923
 1053SOL    HW2 4242   1.545   3.641   2.016
 1053SOL    HW3 4243   1.497   3.588   1.883
 1053SOL    MW4 4244   1.556   3.631   1.930
 1054SOL     OW 4245   1.597   3.903   1.839
 1054SOL    HW2 4246   1.673   3.928   1.890
 1054SOL    HW3 4247   1.572   3.817   1.873
 1054SOL    MW4 4248   1.604   3.895   1.850
 1055SOL     OW 4249   1.374   3.978   2.008
 1055SOL    HW2 4250   1.455   3.970   1.958
 1055SOL    HW3 4251   1.311   3.922   1.963
 1055SOL    MW4 4252   1.376   3.970   1.996
 1056SOL     OW 4253   1.358   4.247   1.896
 1056SOL    HW2 4254   1.363   4.158   1.929
 1056SOL    HW3 4255   1.373   4.239   1.802
 1056SOL    MW4 4256   1.361   4.234   1.888
 1057SOL     OW 4257   1.625   4.367   1.973
 1057SOL    HW2 4258   1.610   4.381   2.067
 1057SOL    HW3 4259   1.541   4.334   1.940
 1057SOL    MW4 4260   1.612   4.364   1.981
 1058SOL     OW 4261   2.009   4.647   1.877
 1058SOL    HW2 4262   2.085   4.690   1.915
 1058SOL    HW3 4263   2.008   4.560   1.918
 1058SOL    MW4 4264   2.019   4.641   1.888
 1059SOL     OW 4265   1.780   0.105   1.994
 1059SOL    HW2 4266   1.784   0.112   2.090
 1059SOL    HW3 4267   1.865   0.071   1.969
 1059SOL    MW4 4268   1.792   0.101   2.003
 1060SOL     OW 4269   1.760   0.379   1.916
 1060SOL    HW2 4270   1.760   0.286   1.939
 1060SOL    HW3 4271   1.773   0.381   1.822
 1060SOL    MW4 4272   1.762   0.367   1.907
 1061SOL     OW 4273   2.017   0.486   2.009
 1061SOL    HW2 4274   2.021   0.573   1.971
 1061SOL    HW3 4275   1.943   0.444   1.966
 1061SOL    MW4 4276   2.008   0.492   1.999
 1062SOL     OW 4277   2.015   0.731   1.889
 1062SOL    HW2 4278   2.092   0.779   1.920
 1062SOL    HW3 4279   2.011   0.749   1.795
 1062SOL    MW4 4280   2.024   0.740   1.881
 1063SOL     OW 4281   1.795   0.880   1.979
 1063SOL    HW2 4282   1.799   0.969   1.944
 1063SOL    HW3 4283   1.868   0.834   1.936
 1063SOL    MW4 4284   1.805   0.886   1.968
 1064SOL     OW 4285   1.805   1.128   1.879
 1064SOL    HW2 4286   1.734   1.179   1.917
 1064SOL    HW3 4287   1.783   1.123   1.786
 1064SOL    MW4 4288   1.793   1.134   1.872
 1065SOL     OW 4289   2.032   1.276   1.995
 1065SOL    HW2 4290   2.103   1.219   1.967
 1065SOL    HW3 4291   1.952   1.235   1.961
 1065SOL    MW4 4292   2.031   1.263   1.987
 1066SOL     OW 4293   1.985   1.528   1.885
 1066SOL    HW2 4294   2.012   1.441   1.914
 1066SOL    HW3 4295   2.011   1.531   1.793
 1066SOL    MW4 4296   1.992   1.517   1.876
 1067SOL     OW 4297   1.763   1.662   1.998
 1067SOL    HW2 4298   1.762   1.754   1.969
 1067SOL    HW3 4299   1.846   1.628   1.965
 1067SOL    MW4 4300   1.774   1.670   1.990
 1068SOL     OW 4301   1.776   1.918   1.912
 1068SOL    HW2 4302   1.700   1.972   1.931
 1068SOL    HW3 4303   1.783   1.919   1.816
 1068SOL    MW4 4304   1.767   1.925   1.902
 1069SOL     OW 4305   2.017   2.062   2.008
 1069SOL    HW2 4306   2.092   2.020   1.964
 1069SOL    HW3 4307   1.944   2.002   1.991
 1069SOL    MW4 4308   2.017   2.048   2.000
 1070SOL     OW 4309   2.011   2.308   1.871
 1070SOL    HW2 4310   2.096   2.348   1.886
 1070SOL    HW3 4311   2.014   2.225   1.918
 1070SOL    MW4 4312   2.022   2.302   1.879
 1071SOL     OW 4313   1.761   2.429   1.955
 1071SOL    HW2 4314   1.752   2.421   2.050
 1071SOL    HW3 4315   1.851   2.402   1.937
 1071SOL    MW4 4316   1.772   2.424   1.965
 1072SOL     OW 4317   1.778   2.683   1.843
 1072SOL    HW2 4318   1.781   2.602   1.894
 1072SOL    HW3 4319   1.749   2.656   1.756
 1072SOL    MW4 4320   1.775   2.669   1.838
 1073SOL     OW 4321   2.027   2.826   1.946
 1073SOL    HW2 4322   2.016   2.810   2.040
 1073SOL    HW3 4323   1.947   2.794   1.906
 1073SOL    MW4 4324   2.015   2.820   1.953
 1074SOL     OW 4325   1.984   3.075   1.821
 1074SOL    HW2 4326   1.913   3.116   1.871
 1074SOL    HW3 4327   2.009   2.999   1.874
 1074SOL    MW4 4328   1.978   3.070   1.835
 1075SOL     OW 4329   1.800   3.222   1.967
 1075SOL    HW2 4330   1.794   3.217   2.063
 1075SOL    HW3 4331   1.714   3.193   1.937
 1075SOL    MW4 4332   1.788   3.218   1.976
 1076SOL     OW 4333   1.780   3.475   1.836
 1076SOL    HW2 4334   1.770   3.390   1.879
 1076SOL    HW3 4335   1.702   3.524   1.862
 1076SOL    MW4 4336   1.769   3.470   1.845
 1077SOL     OW 4337   1.997   3.598   1.965
 1077SOL    HW2 4338   2.022   3.689   1.950
 1077SOL    HW3 4339   1.909   3.591   1.927
 1077SOL    MW4 4340   1.989   3.609   1.958
 1078SOL     OW 4341   2.029   3.856   1.889
 1078SOL    HW2 4342   2.102   3.905   1.927
 1078SOL    HW3 4343   2.029   3.880   1.797
 1078SOL    MW4 4344   2.039   3.866   1.882
 1079SOL     OW 4345   1.807   3.963   2.020
 1079SOL    HW2 4346   1.828   4.049   1.984
 1079SOL    HW3 4347   1.885   3.910   2.003
 1079SOL    MW4 4348   1.820   3.968   2.013
 1080SOL     OW 4349   1.829   4.210   1.901
 1080SOL    HW2 4350   1.749   4.263   1.911
 1080SOL    HW3 4351   1.851   4.217   1.808
 1080SOL    MW4 4352   1.821   4.218   1.890
 1081SOL     OW 4353   2.021   4.377   1.991
 1081SOL    HW2 4354   2.091   4.325   1.953
 1081SOL    HW3 4355   1.942   4.325   1.978
 1081SOL    MW4 4356   2.019   4.363   1.984
 1082SOL     OW 4357   2.430   4.588   1.879
 1082SOL    HW2 4358   2.505   4.641   1.907
 1082SOL    HW3 4359   2.446   4.502   1.918
 1082SOL    MW4 4360   2.442   4.583   1.888
 1083SOL     OW 4361   2.230   0.100   1.960
 1083SOL    HW2 4362   2.237   0.075   2.052
 1083SOL    HW3 4363   2.302   0.055   1.917
 1083SOL    MW4 4364   2.240   0.091   1.967
 1084SOL     OW 4365   2.248   0.374   1.900
 1084SOL    HW2 4366   2.251   0.286   1.937
 1084SOL    HW3 4367   2.166   0.411   1.933
 1084SOL    MW4 4368   2.237   0.367   1.909
 1085SOL     OW 4369   2.480   0.511   1.958
 1085SOL    HW2 4370   2.555   0.459   1.929
 1085SOL    HW3 4371   2.404   0.455   1.943
 1085SOL    MW4 4372   2.480   0.497   1.952
 1086SOL     OW 4373   2.486   0.778   1.899
 1086SOL    HW2 4374   2.487   0.683   1.906
 1086SOL    HW3 4375   2.486   0.795   1.804
 1086SOL    MW4 4376   2.486   0.768   1.887
 1087SOL     OW 4377   2.240   0.872   1.971
 1087SOL    HW2 4378   2.245   0.872   2.066
 1087SOL    HW3 4379   2.326   0.843   1.942
 1087SOL    MW4 4380   2.252   0.868   1.980
 1088SOL     OW 4381   2.245   1.142   1.899
 1088SOL    HW2 4382   2.337   1.165   1.905
 1088SOL    HW3 4383   2.242   1.048   1.916
 1088SOL    MW4 4384   2.257   1.133   1.902
 1089SOL     OW 4385   2.478   1.269   1.989
 1089SOL    HW2 4386   2.481   1.286   2.083
 1089SOL    HW3 4387   2.442   1.349   1.951
 1089SOL    MW4 4388   2.474   1.281   1.996
 1090SOL     OW 4389   2.409   1.517   1.870
 1090SOL    HW2 4390   2.334   1.575   1.878
 1090SOL    HW3 4391   2.423   1.509   1.775
 1090SOL    MW4 4392   2.401   1.523   1.858
 1091SOL     OW 4393   2.213   1.668   1.976
 1091SOL    HW2 4394   2.215   1.671   2.071
 1091SOL    HW3 4395   2.136   1.615   1.955
 1091SOL    MW4 4396   2.203   1.662   1.985
 1092SOL     OW 4397   2.239   1.933   1.901
 1092SOL    HW2 4398   2.306   1.973   1.956
 1092SOL    HW3 4399   2.236   1.841   1.929
 1092SOL    MW4 4400   2.247   1.926   1.912
 1093SOL     OW 4401   2.483   2.029   2.031
 1093SOL    HW2 4402   2.550   1.979   1.985
 1093SOL    HW3 4403   2.478   2.112   1.985
 1093SOL    MW4 4404   2.491   2.033   2.019
 1094SOL     OW 4405   2.460   2.281   1.912
 1094SOL    HW2 4406   2.531   2.339   1.941
 1094SOL    HW3 4407   2.381   2.320   1.949
 1094SOL    MW4 4408   2.459   2.293   1.921
 1095SOL     OW 4409   2.237   2.442   1.947
 1095SOL    HW2 4410   2.229   2.451   2.042
 1095SOL    HW3 4411   2.254   2.531   1.916
 1095SOL    MW4 4412   2.238   2.455   1.955
 1096SOL     OW 4413   2.286   2.724   1.884
 1096SOL    HW2 4414   2.213   2.766   1.929
 1096SOL    HW3 4415   2.255   2.711   1.794
 1096SOL    MW4 4416   2.272   2.728   1.878
 1097SOL     OW 4417   2.493   2.868   1.979
 1097SOL    HW2 4418   2.471   2.957   1.950
 1097SOL    HW3 4419   2.423   2.813   1.943
 1097SOL    MW4 4420   2.481   2.873   1.970
 1098SOL     OW 4421   2.456   3.129   1.833
 1098SOL    HW2 4422   2.373   3.173   1.848
 1098SOL    HW3 4423   2.456   3.109   1.739
 1098SOL    MW4 4424   2.445   3.132   1.822
 1099SOL     OW 4425   2.203   3.209   1.904
 1099SOL    HW2 4426   2.205   3.176   1.993
 1099SOL    HW3 4427   2.127   3.168   1.864
 1099SOL    MW4 4428   2.194   3.199   1.910
 1100SOL     OW 4429   2.219   3.473   1.854
 1100SOL    HW2 4430   2.214   3.381   1.879
 1100SOL    HW3 4431   2.136   3.510   1.884
 1100SOL    MW4 4432   2.207   3.466   1.861
 1101SOL     OW 4433   2.450   3.573   1.964
 1101SOL    HW2 4434   2.453   3.548   2.057
 1101SOL    HW3 4435   2.367   3.538   1.933
 1101SOL    MW4 4436   2.439   3.565   1.972
 1102SOL     OW 4437   2.468   3.837   1.881
 1102SOL    HW2 4438   2.403   3.890   1.927
 1102SOL    HW3 4439   2.458   3.749   1.918
 1102SOL    MW4 4440   2.458   3.832   1.892
 1103SOL     OW 4441   2.242   3.991   1.985
 1103SOL    HW2 4442   2.256   4.009   2.078
 1103SOL    HW3 4443   2.237   4.077   1.944
 1103SOL    MW4 4444   2.243   4.005   1.992
 1104SOL     OW 4445   2.252   4.257   1.883
 1104SOL    HW2 4446   2.323   4.316   1.910
 1104SOL    HW3 4447   2.252   4.261   1.788
 1104SOL    MW4 4448   2.262   4.265   1.874
 1105SOL     OW 4449   2.498   4.344   1.984
 1105SOL    HW2 4450   2.512   4.352   2.079
 1105SOL    HW3 4451   2.569   4.287   1.954
 1105SOL    MW4 4452   2.509   4.337   1.993
 1106SOL     OW 4453   2.908   0.004   1.862
 1106SOL    HW2 4454   2.977   0.048   1.913
 1106SOL    HW3 4455   2.910  -0.087   1.893
 1106SOL    MW4 4456   2.917  -0.002   1.873
 1107SOL     OW 4457   2.651   0.090   1.941
 1107SOL    HW2 4458   2.650   0.075   2.035
 1107SOL    HW3 4459   2.733   0.050   1.911
 1107SOL    MW4 4460   2.662   0.083   1.949
 1108SOL     OW 4461   2.717   0.352   1.887
 1108SOL    HW2 4462   2.797   0.371   1.935
 1108SOL    HW3 4463   2.689   0.266   1.919
 1108SOL    MW4 4464   2.724   0.343   1.897
 1109SOL     OW 4465   2.956   0.468   2.003
 1109SOL    HW2 4466   3.040   0.439   1.968
 1109SOL    HW3 4467   2.940   0.552   1.960
 1109SOL    MW4 4468   2.965   0.476   1.993
 1110SOL     OW 4469   2.947   0.720   1.895
 1110SOL    HW2 4470   3.026   0.770   1.876
 1110SOL    HW3 4471   2.894   0.777   1.951
 1110SOL    MW4 4472   2.950   0.734   1.900
 1111SOL     OW 4473   2.732   0.856   2.006
 1111SOL    HW2 4474   2.735   0.944   1.968
 1111SOL    HW3 4475   2.653   0.817   1.971
 1111SOL    MW4 4476   2.722   0.863   1.996
 1112SOL     OW 4477   2.690   1.126   1.880
 1112SOL    HW2 4478   2.616   1.184   1.899
 1112SOL    HW3 4479   2.707   1.140   1.787
 1112SOL    MW4 4480   2.682   1.136   1.870
 1113SOL     OW 4481   2.924   1.265   1.937
 1113SOL    HW2 4482   2.886   1.350   1.915
 1113SOL    HW3 4483   2.854   1.201   1.919
 1113SOL    MW4 4484   2.909   1.268   1.932
 1114SOL     OW 4485   2.854   1.522   1.873
 1114SOL    HW2 4486   2.940   1.544   1.910
 1114SOL    HW3 4487   2.866   1.532   1.778
 1114SOL    MW4 4488   2.867   1.526   1.865
 1115SOL     OW 4489   2.630   1.640   1.993
 1115SOL    HW2 4490   2.694   1.592   1.940
 1115SOL    HW3 4491   2.546   1.623   1.950
 1115SOL    MW4 4492   2.627   1.632   1.980
 1116SOL     OW 4493   2.661   1.895   1.881
 1116SOL    HW2 4494   2.748   1.917   1.916
 1116SOL    HW3 4495   2.643   1.808   1.916
 1116SOL    MW4 4496   2.670   1.886   1.890
 1117SOL     OW 4497   2.913   2.002   1.974
 1117SOL    HW2 4498   2.912   2.020   2.068
 1117SOL    HW3 4499   2.990   1.948   1.960
 1117SOL    MW4 4500   2.923   1.997   1.984
 1118SOL     OW 4501   2.878   2.246   1.887
 1118SOL    HW2 4502   2.961   2.292   1.900
 1118SOL    HW3 4503   2.896   2.156   1.916
 1118SOL    MW4 4504   2.891   2.240   1.893
 1119SOL     OW 4505   2.698   2.424   2.011
 1119SOL    HW2 4506   2.701   2.504   1.958
 1119SOL    HW3 4507   2.767   2.369   1.973
 1119SOL    MW4 4508   2.708   2.427   1.999
 1120SOL     OW 4509   2.691   2.679   1.894
 1120SOL    HW2 4510   2.621   2.735   1.928
 1120SOL    HW3 4511   2.687   2.689   1.799
 1120SOL    MW4 4512   2.682   2.688   1.886
 1121SOL     OW 4513   2.903   2.845   1.984
 1121SOL    HW2 4514   2.904   2.919   1.923
 1121SOL    HW3 4515   2.822   2.799   1.964
 1121SOL    MW4 4516   2.893   2.849   1.974
 1122SOL     OW 4517   2.893   3.068   1.838
 1122SOL    HW2 4518   2.977   3.096   1.874
 1122SOL    HW3 4519   2.828   3.107   1.896
 1122SOL    MW4 4520   2.896   3.077   1.851
 1123SOL     OW 4521   2.698   3.193   1.967
 1123SOL    HW2 4522   2.717   3.278   1.926
 1123SOL    HW3 4523   2.611   3.170   1.936
 1123SOL    MW4 4524   2.689   3.201   1.957
 1124SOL     OW 4525   2.686   3.450   1.877
 1124SOL    HW2 4526   2.759   3.481   1.930
 1124SOL    HW3 4527   2.609   3.488   1.918
 1124SOL    MW4 4528   2.686   3.459   1.889
 1125SOL     OW 4529   2.897   3.563   2.005
 1125SOL    HW2 4530   2.884   3.572   2.100
 1125SOL    HW3 4531   2.983   3.521   1.997
 1125SOL    MW4 4532   2.906   3.559   2.017
 1126SOL     OW 4533   2.936   3.843   1.902
 1126SOL    HW2 4534   2.910   3.754   1.924
 1126SOL    HW3 4535   2.920   3.850   1.808
 1126SOL    MW4 4536   2.930   3.832   1.892
 1127SOL     OW 4537   2.701   3.937   1.996
 1127SOL    HW2 4538   2.783   3.902   1.964
 1127SOL    HW3 4539   2.633   3.885   1.953
 1127SOL    MW4 4540   2.703   3.925   1.986
 1128SOL     OW 4541   2.723   4.206   1.912
 1128SOL    HW2 4542   2.725   4.114   1.939
 1128SOL    HW3 4543   2.707   4.202   1.818
 1128SOL    MW4 4544   2.721   4.193   1.903
 1129SOL     OW 4545   2.930   4.400   1.948
 1129SOL    HW2 4546   2.937   4.410   2.043
 1129SOL    HW3 4547   2.849   4.351   1.935
 1129SOL    MW4 4548   2.921   4.395   1.959
 1130SOL     OW 4549   3.333   4.665   1.888
 1130SOL    HW2 4550   3.351   4.571   1.888
 1130SOL    HW3 4551   3.324   4.688   1.795
 1130SOL    MW4 4552   3.334   4.655   1.876
 1131SOL     OW 4553   3.113   0.137   2.010
 1131SOL    HW2 4554   3.119   0.126   2.104
 1131SOL    HW3 4555   3.191   0.094   1.975
 1131SOL    MW4 4556   3.124   0.130   2.018
 1132SOL     OW 4557   3.191   0.389   1.911
 1132SOL    HW2 4558   3.182   0.303   1.952
 1132SOL    HW3 4559   3.182   0.372   1.817
 1132SOL    MW4 4560   3.188   0.376   1.904
 1133SOL     OW 4561   3.416   0.486   2.016
 1133SOL    HW2 4562   3.491   0.431   1.994
 1133SOL    HW3 4563   3.342   0.445   1.970
 1133SOL    MW4 4564   3.416   0.473   2.007
 1134SOL     OW 4565   3.381   0.717   1.867
 1134SOL    HW2 4566   3.302   0.766   1.891
 1134SOL    HW3 4567   3.377   0.638   1.921
 1134SOL    MW4 4568   3.370   0.713   1.878
 1135SOL     OW 4569   3.166   0.870   1.934
 1135SOL    HW2 4570   3.138   0.879   2.025
 1135SOL    HW3 4571   3.157   0.958   1.898
 1135SOL    MW4 4572   3.161   0.883   1.941
 1136SOL     OW 4573   3.157   1.133   1.839
 1136SOL    HW2 4574   3.235   1.173   1.877
 1136SOL    HW3 4575   3.084   1.174   1.885
 1136SOL    MW4 4576   3.158   1.143   1.850
 1137SOL     OW 4577   3.366   1.253   1.978
 1137SOL    HW2 4578   3.379   1.263   2.072
 1137SOL    HW3 4579   3.364   1.343   1.944
 1137SOL    MW4 4580   3.367   1.266   1.986
 1138SOL     OW 4581   3.368   1.515   1.871
 1138SOL    HW2 4582   3.432   1.585   1.888
 1138SOL    HW3 4583   3.285   1.551   1.900
 1138SOL    MW4 4584   3.366   1.529   1.877
 1139SOL     OW 4585   3.108   1.596   1.981
 1139SOL    HW2 4586   3.121   1.610   2.075
 1139SOL    HW3 4587   3.103   1.684   1.944
 1139SOL    MW4 4588   3.109   1.609   1.989
 1140SOL     OW 4589   3.133   1.867   1.898
 1140SOL    HW2 4590   3.203   1.924   1.930
 1140SOL    HW3 4591   3.123   1.891   1.806
 1140SOL    MW4 4592   3.141   1.878   1.890
 1141SOL     OW 4593   3.344   2.037   2.009
 1141SOL    HW2 4594   3.419   2.014   1.954
 1141SOL    HW3 4595   3.336   2.132   2.000
 1141SOL    MW4 4596   3.353   2.046   2.000
 1142SOL     OW 4597   3.337   2.299   1.914
 1142SOL    HW2 4598   3.254   2.335   1.946
 1142SOL    HW3 4599   3.337   2.319   1.820
 1142SOL    MW4 4600   3.326   2.306   1.906
 1143SOL     OW 4601   3.093   2.400   1.962
 1143SOL    HW2 4602   3.106   2.425   2.053
 1143SOL    HW3 4603   3.087   2.483   1.914
 1143SOL    MW4 4604   3.094   2.414   1.968
 1144SOL     OW 4605   3.118   2.669   1.876
 1144SOL    HW2 4606   3.039   2.716   1.901
 1144SOL    HW3 4607   3.128   2.688   1.782
 1144SOL    MW4 4608   3.109   2.678   1.867
 1145SOL     OW 4609   3.322   2.833   1.980
 1145SOL    HW2 4610   3.331   2.825   2.075
 1145SOL    HW3 4611   3.253   2.771   1.957
 1145SOL    MW4 4612   3.314   2.824   1.989
 1146SOL     OW 4613   3.386   3.076   1.841
 1146SOL    HW2 4614   3.457   3.124   1.884
 1146SOL    HW3 4615   3.379   2.994   1.889
 1146SOL    MW4 4616   3.394   3.072   1.853
 1147SOL     OW 4617   3.140   3.174   1.935
 1147SOL    HW2 4618   3.133   3.260   1.894
 1147SOL    HW3 4619   3.219   3.135   1.897
 1147SOL    MW4 4620   3.149   3.180   1.925
 1148SOL     OW 4621   3.129   3.445   1.878
 1148SOL    HW2 4622   3.206   3.488   1.916
 1148SOL    HW3 4623   3.124   3.480   1.789
 1148SOL    MW4 4624   3.139   3.455   1.871
 1149SOL     OW 4625   3.340   3.590   1.972
 1149SOL    HW2 4626   3.426   3.554   1.953
 1149SOL    HW3 4627   3.342   3.679   1.937
 1149SOL    MW4 4628   3.351   3.597   1.965
 1150SOL     OW 4629   3.346   3.840   1.874
 1150SOL    HW2 4630   3.273   3.886   1.916
 1150SOL    HW3 4631   3.336   3.860   1.781
 1150SOL    MW4 4632   3.335   3.849   1.868
 1151SOL     OW 4633   3.152   4.010   1.990
 1151SOL    HW2 4634   3.137   4.017   2.084
 1151SOL    HW3 4635   3.079   3.957   1.958
 1151SOL    MW4 4636   3.140   4.004   1.998
 1152SOL     OW 4637   3.156   4.235   1.845
 1152SOL    HW2 4638   3.150   4.155   1.898
 1152SOL    HW3 4639   3.089   4.292   1.882
 1152SOL    MW4 4640   3.146   4.232   1.857
 1153SOL     OW 4641   3.359   4.406   1.941
 1153SOL    HW2 4642   3.442   4.360   1.926
 1153SOL    HW3 4643   3.292   4.344   1.911
 1153SOL    MW4 4644   3.361   4.392   1.935
 1154SOL     OW 4645   3.827   4.638   1.902
 1154SOL    HW2 4646   3.836   4.545   1.922
 1154SOL    HW3 4647   3.742   4.662   1.939
 1154SOL    MW4 4648   3.817   4.629   1.910
 1155SOL     OW 4649   3.600   0.096   2.002
 1155SOL    HW2 4650   3.583   0.123   2.092
 1155SOL    HW3 4651   3.513   0.078   1.965
 1155SOL    MW4 4652   3.586   0.097   2.009
 1156SOL     OW 4653   3.653   0.360   1.900
 1156SOL    HW2 4654   3.655   0.272   1.936
 1156SOL    HW3 4655   3.639   0.348   1.806
 1156SOL    MW4 4656   3.652   0.347   1.892
 1157SOL     OW 4657   3.835   0.483   2.062
 1157SOL    HW2 4658   3.830   0.571   2.024
 1157SOL    HW3 4659   3.768   0.433   2.016
 1157SOL    MW4 4660   3.826   0.488   2.051
 1158SOL     OW 4661   3.812   0.740   1.938
 1158SOL    HW2 4662   3.730   0.777   1.971
 1158SOL    HW3 4663   3.806   0.749   1.843
 1158SOL    MW4 4664   3.800   0.746   1.930
 1159SOL     OW 4665   3.575   0.862   1.992
 1159SOL    HW2 4666   3.586   0.946   1.949
 1159SOL    HW3 4667   3.499   0.823   1.949
 1159SOL    MW4 4668   3.566   0.868   1.981
 1160SOL     OW 4669   3.597   1.115   1.881
 1160SOL    HW2 4670   3.519   1.164   1.906
 1160SOL    HW3 4671   3.610   1.136   1.788
 1160SOL    MW4 4672   3.588   1.124   1.872
 1161SOL     OW 4673   3.785   1.306   1.967
 1161SOL    HW2 4674   3.783   1.303   2.063
 1161SOL    HW3 4675   3.738   1.227   1.940
 1161SOL    MW4 4676   3.778   1.295   1.976
 1162SOL     OW 4677   3.818   1.566   1.851
 1162SOL    HW2 4678   3.905   1.592   1.881
 1162SOL    HW3 4679   3.803   1.480   1.891
 1162SOL    MW4 4680   3.828   1.558   1.860
 1163SOL     OW 4681   3.582   1.671   1.956
 1163SOL    HW2 4682   3.577   1.764   1.936
 1163SOL    HW3 4683   3.673   1.647   1.939
 1163SOL    MW4 4684   3.593   1.680   1.951
 1164SOL     OW 4685   3.559   1.934   1.874
 1164SOL    HW2 4686   3.642   1.966   1.910
 1164SOL    HW3 4687   3.576   1.927   1.780
 1164SOL    MW4 4688   3.572   1.937   1.866
 1165SOL     OW 4689   3.788   2.038   1.998
 1165SOL    HW2 4690   3.867   1.999   1.960
 1165SOL    HW3 4691   3.788   2.128   1.965
 1165SOL    MW4 4692   3.798   2.045   1.989
 1166SOL     OW 4693   3.768   2.298   1.907
 1166SOL    HW2 4694   3.837   2.355   1.939
 1166SOL    HW3 4695   3.687   2.343   1.929
 1166SOL    MW4 4696   3.766   2.311   1.914
 1167SOL     OW 4697   3.529   2.453   2.014
 1167SOL    HW2 4698   3.533   2.538   1.970
 1167SOL    HW3 4699   3.451   2.411   1.980
 1167SOL    MW4 4700   3.520   2.459   2.004
 1168SOL     OW 4701   3.546   2.696   1.901
 1168SOL    HW2 4702   3.614   2.744   1.947
 1168SOL    HW3 4703   3.464   2.735   1.930
 1168SOL    MW4 4704   3.544   2.707   1.911
 1169SOL     OW 4705   3.747   2.846   2.024
 1169SOL    HW2 4706   3.783   2.858   2.112
 1169SOL    HW3 4707   3.779   2.920   1.974
 1169SOL    MW4 4708   3.756   2.857   2.029
 1170SOL     OW 4709   3.843   3.082   1.910
 1170SOL    HW2 4710   3.765   3.133   1.933
 1170SOL    HW3 4711   3.833   3.066   1.816
 1170SOL    MW4 4712   3.831   3.087   1.900
 1171SOL     OW 4713   3.605   3.228   1.968
 1171SOL    HW2 4714   3.603   3.242   2.062
 1171SOL    HW3 4715   3.606   3.315   1.930
 1171SOL    MW4 4716   3.605   3.241   1.975
 1172SOL     OW 4717   3.588   3.513   1.873
 1172SOL    HW2 4718   3.675   3.540   1.903
 1172SOL    HW3 4719   3.590   3.528   1.778
 1172SOL    MW4 4720   3.600   3.519   1.864
 1173SOL     OW 4721   3.825   3.600   1.985
 1173SOL    HW2 4722   3.907   3.569   1.946
 1173SOL    HW3 4723   3.814   3.688   1.949
 1173SOL    MW4 4724   3.835   3.607   1.975
 1174SOL     OW 4725   3.785   3.838   1.871
 1174SOL    HW2 4726   3.715   3.894   1.905
 1174SOL    HW3 4727   3.793   3.863   1.779
 1174SOL    MW4 4728   3.776   3.849   1.863
 1175SOL     OW 4729   3.566   3.997   1.950
 1175SOL    HW2 4730   3.585   3.999   2.044
 1175SOL    HW3 4731   3.487   3.944   1.943
 1175SOL    MW4 4732   3.558   3.991   1.961
 1176SOL     OW 4733   3.593   4.256   1.849
 1176SOL    HW2 4734   3.663   4.298   1.900
 1176SOL    HW3 4735   3.585   4.169   1.887
 1176SOL    MW4 4736   3.601   4.250   1.861
 1177SOL     OW 4737   3.832   4.381   1.971
 1177SOL    HW2 4738   3.817   4.381   2.066
 1177SOL    HW3 4739   3.912   4.330   1.959
 1177SOL    MW4 4740   3.840   4.374   1.982
 1178SOL     OW 4741   4.271   4.640   1.935
 1178SOL    HW2 4742   4.198   4.675   1.987
 1178SOL    HW3 4743   4.346   4.692   1.963
 1178SOL    MW4 4744   4.271   4.651   1.946
 1179SOL     OW 4745   4.047   0.110   2.035
 1179SOL    HW2 4746   4.039   0.095   2.129
 1179SOL    HW3 4747   3.968   0.071   1.998
 1179SOL    MW4 4748   4.036   0.103   2.042
 1180SOL     OW 4749   4.080   0.381   1.944
 1180SOL    HW2 4750   4.096   0.294   1.982
 1180SOL    HW3 4751   4.000   0.411   1.986
 1180SOL    MW4 4752   4.072   0.373   1.955
 1181SOL     OW 4753   4.282   0.559   1.995
 1181SOL    HW2 4754   4.284   0.564   2.091
 1181SOL    HW3 4755   4.212   0.497   1.975
 1181SOL    MW4 4756   4.273   0.552   2.005
 1182SOL     OW 4757   4.232   0.804   1.884
 1182SOL    HW2 4758   4.257   0.716   1.914
 1182SOL    HW3 4759   4.261   0.807   1.793
 1182SOL    MW4 4760   4.239   0.793   1.876
 1183SOL     OW 4761   4.011   0.913   2.018
 1183SOL    HW2 4762   4.084   0.877   1.969
 1183SOL    HW3 4763   3.936   0.859   1.993
 1183SOL    MW4 4764   4.011   0.901   2.008
 1184SOL     OW 4765   4.030   1.200   1.927
 1184SOL    HW2 4766   4.014   1.112   1.959
 1184SOL    HW3 4767   3.959   1.253   1.964
 1184SOL    MW4 4768   4.018   1.196   1.936
 1185SOL     OW 4769   4.280   1.314   2.022
 1185SOL    HW2 4770   4.277   1.311   2.118
 1185SOL    HW3 4771   4.191   1.288   1.995
 1185SOL    MW4 4772   4.268   1.310   2.031
 1186SOL     OW 4773   4.306   1.557   1.895
 1186SOL    HW2 4774   4.303   1.471   1.937
 1186SOL    HW3 4775   4.303   1.538   1.802
 1186SOL    MW4 4776   4.305   1.543   1.889
 1187SOL     OW 4777   4.049   1.662   1.967
 1187SOL    HW2 4778   4.046   1.655   2.063
 1187SOL    HW3 4779   4.136   1.630   1.944
 1187SOL    MW4 4780   4.060   1.656   1.977
 1188SOL     OW 4781   4.024   1.930   1.892
 1188SOL    HW2 4782   4.033   1.835   1.898
 1188SOL    HW3 4783   4.038   1.950   1.799
 1188SOL    MW4 4784   4.027   1.920   1.880
 1189SOL     OW 4785   4.268   2.035   1.960
 1189SOL    HW2 4786   4.258   2.042   2.055
 1189SOL    HW3 4787   4.185   1.999   1.929
 1189SOL    MW4 4788   4.256   2.031   1.968
 1190SOL     OW 4789   4.226   2.302   1.906
 1190SOL    HW2 4790   4.245   2.210   1.924
 1190SOL    HW3 4791   4.302   2.349   1.942
 1190SOL    MW4 4792   4.239   2.296   1.913
 1191SOL     OW 4793   3.989   2.445   1.963
 1191SOL    HW2 4794   3.977   2.454   2.058
 1191SOL    HW3 4795   4.073   2.400   1.954
 1191SOL    MW4 4796   3.998   2.440   1.974
 1192SOL     OW 4797   3.980   2.727   1.936
 1192SOL    HW2 4798   3.969   2.632   1.933
 1192SOL    HW3 4799   3.896   2.760   1.971
 1192SOL    MW4 4800   3.967   2.719   1.940
 1193SOL     OW 4801   4.201   2.869   1.999
 1193SOL    HW2 4802   4.221   2.862   2.092
 1193SOL    HW3 4803   4.112   2.833   1.991
 1193SOL    MW4 4804   4.192   2.863   2.010
 1194SOL     OW 4805   4.228   3.115   1.886
 1194SOL    HW2 4806   4.155   3.160   1.928
 1194SOL    HW3 4807   4.239   3.035   1.936
 1194SOL    MW4 4808   4.220   3.110   1.898
 1195SOL     OW 4809   4.026   3.237   2.025
 1195SOL    HW2 4810   4.017   3.237   2.121
 1195SOL    HW3 4811   3.950   3.187   1.994
 1195SOL    MW4 4812   4.015   3.231   2.034
 1196SOL     OW 4813   4.056   3.464   1.896
 1196SOL    HW2 4814   4.131   3.506   1.938
 1196SOL    HW3 4815   4.050   3.378   1.939
 1196SOL    MW4 4816   4.065   3.458   1.907
 1197SOL     OW 4817   4.259   3.577   2.032
 1197SOL    HW2 4818   4.256   3.667   2.000
 1197SOL    HW3 4819   4.344   3.544   2.003
 1197SOL    MW4 4820   4.270   3.585   2.024
 1198SOL     OW 4821   4.260   3.834   1.923
 1198SOL    HW2 4822   4.322   3.902   1.951
 1198SOL    HW3 4823   4.261   3.840   1.827
 1198SOL    MW4 4824   4.268   3.844   1.914
 1199SOL     OW 4825   4.033   3.980   2.007
 1199SOL    HW2 4826   4.098   3.927   1.961
 1199SOL    HW3 4827   3.949   3.947   1.975
 1199SOL    MW4 4828   4.030   3.969   1.996
 1200SOL     OW 4829   4.066   4.241   1.895
 1200SOL    HW2 4830   4.142   4.291   1.926
 1200SOL    HW3 4831   4.069   4.159   1.944
 1200SOL    MW4 4832   4.077   4.237   1.906
 1201SOL     OW 4833   4.280   4.374   2.002
 1201SOL    HW2 4834   4.271   4.382   2.097
 1201SOL    HW3 4835   4.282   4.464   1.970
 1201SOL    MW4 4836   4.279   4.387   2.010
 1202SOL     OW 4837   0.259   0.012   2.349
 1202SOL    HW2 4838   0.247   0.033   2.441
 1202SOL    HW3 4839   0.346   0.047   2.328
 1202SOL    MW4 4840   0.269   0.019   2.358
 1203SOL     OW 4841   0.032   0.149   2.257
 1203SOL    HW2 4842   0.116   0.108   2.277
 1203SOL    HW3 4843   0.031   0.157   2.161
 1203SOL    MW4 4844   0.043   0.145   2.247
 1204SOL     OW 4845   0.009   0.376   2.416
 1204SOL    HW2 4846   0.081   0.432   2.386
 1204SOL    HW3 4847   0.015   0.297   2.362
 1204SOL    MW4 4848   0.019   0.373   2.405
 1205SOL     OW 4849   0.205   0.526   2.295
 1205SOL    HW2 4850   0.289   0.485   2.314
 1205SOL    HW3 4851   0.204   0.535   2.199
 1205SOL    MW4 4852   0.216   0.522   2.285
 1206SOL     OW 4853   0.244   0.775   2.388
 1206SOL    HW2 4854   0.235   0.769   2.483
 1206SOL    HW3 4855   0.223   0.687   2.356
 1206SOL    MW4 4856   0.240   0.762   2.396
 1207SOL     OW 4857   4.460   0.851   2.326
 1207SOL    HW2 4858   4.547   0.824   2.356
 1207SOL    HW3 4859   4.469   0.860   2.231
 1207SOL    MW4 4860   4.473   0.849   2.317
 1208SOL     OW 4861   0.012   1.132   2.382
 1208SOL    HW2 4862  -0.002   1.137   2.477
 1208SOL    HW3 4863   0.001   1.040   2.361
 1208SOL    MW4 4864   0.009   1.121   2.392
 1209SOL     OW 4865   0.235   1.248   2.270
 1209SOL    HW2 4866   0.170   1.188   2.307
 1209SOL    HW3 4867   0.218   1.246   2.176
 1209SOL    MW4 4868   0.224   1.240   2.262
 1210SOL     OW 4869   0.237   1.497   2.390
 1210SOL    HW2 4870   0.250   1.481   2.483
 1210SOL    HW3 4871   0.226   1.409   2.352
 1210SOL    MW4 4872   0.237   1.483   2.397
 1211SOL     OW 4873   0.034   1.678   2.276
 1211SOL    HW2 4874   0.021   1.768   2.305
 1211SOL    HW3 4875   0.097   1.642   2.339
 1211SOL    MW4 4876   0.041   1.685   2.288
 1212SOL     OW 4877   4.467   1.953   2.335
 1212SOL    HW2 4878   4.384   1.996   2.316
 1212SOL    HW3 4879   4.534   2.013   2.302
 1212SOL    MW4 4880   4.465   1.966   2.328
 1213SOL     OW 4881   0.206   2.084   2.240
 1213SOL    HW2 4882   0.282   2.029   2.257
 1213SOL    HW3 4883   0.212   2.104   2.146
 1213SOL    MW4 4884   0.217   2.080   2.230
 1214SOL     OW 4885   0.179   2.326   2.398
 1214SOL    HW2 4886   0.207   2.320   2.490
 1214SOL    HW3 4887   0.202   2.242   2.360
 1214SOL    MW4 4888   0.185   2.314   2.405
 1215SOL     OW 4889   4.432   2.390   2.278
 1215SOL    HW2 4890   4.452   2.479   2.307
 1215SOL    HW3 4891   4.498   2.336   2.322
 1215SOL    MW4 4892   4.444   2.395   2.287
 1216SOL     OW 4893   4.472   2.651   2.355
 1216SOL    HW2 4894   4.474   2.678   2.447
 1216SOL    HW3 4895   4.554   2.684   2.319
 1216SOL    MW4 4896   4.483   2.659   2.363
 1217SOL     OW 4897   0.192   2.801   2.255
 1217SOL    HW2 4898   0.282   2.778   2.278
 1217SOL    HW3 4899   0.189   2.791   2.159
 1217SOL    MW4 4900   0.204   2.797   2.245
 1218SOL     OW 4901   0.226   3.076   2.352
 1218SOL    HW2 4902   0.145   3.122   2.334
 1218SOL    HW3 4903   0.211   2.987   2.318
 1218SOL    MW4 4904   0.214   3.070   2.345
 1219SOL     OW 4905   4.479   3.198   2.256
 1219SOL    HW2 4906   4.487   3.289   2.283
 1219SOL    HW3 4907   4.512   3.196   2.166
 1219SOL    MW4 4908   4.485   3.210   2.248
 1220SOL     OW 4909   0.010   3.453   2.363
 1220SOL    HW2 4910   0.000   3.447   2.459
 1220SOL    HW3 4911  -0.068   3.501   2.334
 1220SOL    MW4 4912  -0.002   3.459   2.372
 1221SOL     OW 4913   0.254   3.602   2.298
 1221SOL    HW2 4914   0.329   3.548   2.322
 1221SOL    HW3 4915   0.178   3.552   2.326
 1221SOL    MW4 4916   0.254   3.588   2.305
 1222SOL     OW 4917   0.207   3.867   2.351
 1222SOL    HW2 4918   0.117   3.881   2.322
 1222SOL    HW3 4919   0.223   3.774   2.333
 1222SOL    MW4 4920   0.197   3.856   2.345
 1223SOL     OW 4921   4.462   3.982   2.290
 1223SOL    HW2 4922   4.484   4.070   2.323
 1223SOL    HW3 4923   4.467   3.991   2.195
 1223SOL    MW4 4924   4.466   3.995   2.282
 1224SOL     OW 4925   4.480   4.258   2.370
 1224SOL    HW2 4926   4.465   4.248   2.463
 1224SOL    HW3 4927   4.560   4.311   2.364
 1224SOL    MW4 4928   4.488   4.264   2.381
 1225SOL     OW 4929   0.229   4.420   2.312
 1225SOL    HW2 4930   0.311   4.380   2.342
 1225SOL    HW3 4931   0.242   4.514   2.326
 1225SOL    MW4 4932   0.242   4.427   2.318
 1226SOL     OW 4933   0.713   0.020   2.332
 1226SOL    HW2 4934   0.703   0.011   2.427
 1226SOL    HW3 4935   0.803   0.049   2.320
 1226SOL    MW4 4936   0.723   0.023   2.343
 1227SOL     OW 4937   0.480   0.152   2.259
 1227SOL    HW2 4938   0.566   0.124   2.290
 1227SOL    HW3 4939   0.481   0.136   2.165
 1227SOL    MW4 4940   0.491   0.146   2.251
 1228SOL     OW 4941   0.431   0.395   2.397
 1228SOL    HW2 4942   0.428   0.381   2.491
 1228SOL    HW3 4943   0.444   0.308   2.360
 1228SOL    MW4 4944   0.432   0.382   2.404
 1229SOL     OW 4945   0.663   0.497   2.273
 1229SOL    HW2 4946   0.658   0.586   2.308
 1229SOL    HW3 4947   0.600   0.448   2.325
 1229SOL    MW4 4948   0.654   0.502   2.285
 1230SOL     OW 4949   0.634   0.755   2.377
 1230SOL    HW2 4950   0.624   0.749   2.472
 1230SOL    HW3 4951   0.557   0.803   2.348
 1230SOL    MW4 4952   0.623   0.760   2.386
 1231SOL     OW 4953   0.445   0.915   2.281
 1231SOL    HW2 4954   0.369   0.865   2.309
 1231SOL    HW3 4955   0.439   0.915   2.185
 1231SOL    MW4 4956   0.434   0.908   2.272
 1232SOL     OW 4957   0.481   1.162   2.348
 1232SOL    HW2 4958   0.467   1.068   2.331
 1232SOL    HW3 4959   0.400   1.204   2.319
 1232SOL    MW4 4960   0.468   1.155   2.342
 1233SOL     OW 4961   0.701   1.293   2.257
 1233SOL    HW2 4962   0.693   1.382   2.293
 1233SOL    HW3 4963   0.623   1.248   2.288
 1233SOL    MW4 4964   0.689   1.299   2.266
 1234SOL     OW 4965   0.662   1.549   2.376
 1234SOL    HW2 4966   0.680   1.558   2.470
 1234SOL    HW3 4967   0.732   1.597   2.333
 1234SOL    MW4 4968   0.673   1.556   2.383
 1235SOL     OW 4969   0.428   1.667   2.294
 1235SOL    HW2 4970   0.501   1.621   2.335
 1235SOL    HW3 4971   0.351   1.614   2.315
 1235SOL    MW4 4972   0.427   1.654   2.302
 1236SOL     OW 4973   0.420   1.938   2.341
 1236SOL    HW2 4974   0.491   1.984   2.296
 1236SOL    HW3 4975   0.430   1.846   2.315
 1236SOL    MW4 4976   0.431   1.932   2.332
 1237SOL     OW 4977   0.653   2.082   2.238
 1237SOL    HW2 4978   0.729   2.036   2.273
 1237SOL    HW3 4979   0.661   2.171   2.271
 1237SOL    MW4 4980   0.664   2.088   2.247
 1238SOL     OW 4981   0.644   2.333   2.350
 1238SOL    HW2 4982   0.653   2.326   2.445
 1238SOL    HW3 4983   0.725   2.373   2.320
 1238SOL    MW4 4984   0.656   2.337   2.358
 1239SOL     OW 4985   0.384   2.445   2.263
 1239SOL    HW2 4986   0.449   2.376   2.274
 1239SOL    HW3 4987   0.309   2.416   2.313
 1239SOL    MW4 4988   0.383   2.432   2.271
 1240SOL     OW 4989   0.439   2.703   2.340
 1240SOL    HW2 4990   0.423   2.697   2.434
 1240SOL    HW3 4991   0.438   2.613   2.309
 1240SOL    MW4 4992   0.437   2.691   2.348
 1241SOL     OW 4993   0.648   2.873   2.257
 1241SOL    HW2 4994   0.725   2.821   2.281
 1241SOL    HW3 4995   0.574   2.819   2.283
 1241SOL    MW4 4996   0.649   2.859   2.264
 1242SOL     OW 4997   0.644   3.139   2.345
 1242SOL    HW2 4998   0.567   3.178   2.305
 1242SOL    HW3 4999   0.647   3.050   2.309
 1242SOL    MW4 5000   0.634   3.133   2.335
 1243SOL     OW 5001   0.416   3.238   2.230
 1243SOL    HW2 5002   0.355   3.180   2.276
 1243SOL    HW3 5003   0.423   3.200   2.142
 1243SOL    MW4 5004   0.409   3.225   2.224
 1244SOL     OW 5005   0.475   3.453   2.400
 1244SOL    HW2 5006   0.543   3.514   2.371
 1244SOL    HW3 5007   0.472   3.387   2.330
 1244SOL    MW4 5008   0.484   3.452   2.387
 1245SOL     OW 5009   0.691   3.643   2.310
 1245SOL    HW2 5010   0.678   3.734   2.338
 1245SOL    HW3 5011   0.678   3.645   2.215
 1245SOL    MW4 5012   0.687   3.656   2.301
 1246SOL     OW 5013   0.660   3.911   2.380
 1246SOL    HW2 5014   0.645   3.909   2.475
 1246SOL    HW3 5015   0.579   3.947   2.344
 1246SOL    MW4 5016   0.647   3.915   2.388
 1247SOL     OW 5017   0.425   4.025   2.268
 1247SOL    HW2 5018   0.346   3.980   2.298
 1247SOL    HW3 5019   0.425   4.012   2.173
 1247SOL    MW4 5020   0.414   4.017   2.259
 1248SOL     OW 5021   0.459   4.291   2.361
 1248SOL    HW2 5022   0.527   4.328   2.305
 1248SOL    HW3 5023   0.436   4.208   2.319
 1248SOL    MW4 5024   0.465   4.285   2.348
 1249SOL     OW 5025   0.680   4.427   2.221
 1249SOL    HW2 5026   0.689   4.516   2.255
 1249SOL    HW3 5027   0.701   4.434   2.128
 1249SOL    MW4 5028   0.684   4.439   2.213
 1250SOL     OW 5029   1.173   4.639   2.348
 1250SOL    HW2 5030   1.164   4.640   2.443
 1250SOL    HW3 5031   1.108   4.702   2.316
 1250SOL    MW4 5032   1.164   4.647   2.356
 1251SOL     OW 5033   0.956   0.131   2.259
 1251SOL    HW2 5034   0.936   0.215   2.299
 1251SOL    HW3 5035   0.927   0.140   2.168
 1251SOL    MW4 5036   0.949   0.143   2.252
 1252SOL     OW 5037   0.900   0.398   2.406
 1252SOL    HW2 5038   0.970   0.447   2.363
 1252SOL    HW3 5039   0.820   0.426   2.362
 1252SOL    MW4 5040   0.898   0.408   2.395
 1253SOL     OW 5041   1.096   0.527   2.281
 1253SOL    HW2 5042   1.162   0.466   2.315
 1253SOL    HW3 5043   1.104   0.519   2.186
 1253SOL    MW4 5044   1.106   0.518   2.273
 1254SOL     OW 5045   1.087   0.787   2.376
 1254SOL    HW2 5046   1.009   0.835   2.350
 1254SOL    HW3 5047   1.080   0.703   2.330
 1254SOL    MW4 5048   1.076   0.782   2.366
 1255SOL     OW 5049   0.866   0.900   2.270
 1255SOL    HW2 5050   0.877   0.986   2.313
 1255SOL    HW3 5051   0.787   0.864   2.310
 1255SOL    MW4 5052   0.857   0.907   2.281
 1256SOL     OW 5053   0.906   1.154   2.372
 1256SOL    HW2 5054   0.980   1.201   2.333
 1256SOL    HW3 5055   0.828   1.197   2.336
 1256SOL    MW4 5056   0.906   1.166   2.362
 1257SOL     OW 5057   1.124   1.291   2.274
 1257SOL    HW2 5058   1.199   1.242   2.307
 1257SOL    HW3 5059   1.129   1.280   2.179
 1257SOL    MW4 5060   1.135   1.283   2.266
 1258SOL     OW 5061   1.104   1.546   2.401
 1258SOL    HW2 5062   1.029   1.585   2.355
 1258SOL    HW3 5063   1.108   1.456   2.369
 1258SOL    MW4 5064   1.095   1.539   2.390
 1259SOL     OW 5065   0.887   1.683   2.265
 1259SOL    HW2 5066   0.890   1.777   2.285
 1259SOL    HW3 5067   0.905   1.678   2.171
 1259SOL    MW4 5068   0.890   1.695   2.255
 1260SOL     OW 5069   0.884   1.963   2.334
 1260SOL    HW2 5070   0.864   1.967   2.427
 1260SOL    HW3 5071   0.961   2.019   2.323
 1260SOL    MW4 5072   0.891   1.971   2.345
 1261SOL     OW 5073   1.114   2.106   2.273
 1261SOL    HW2 5074   1.174   2.055   2.328
 1261SOL    HW3 5075   1.126   2.070   2.186
 1261SOL    MW4 5076   1.123   2.094   2.269
 1262SOL     OW 5077   1.128   2.371   2.369
 1262SOL    HW2 5078   1.205   2.423   2.344
 1262SOL    HW3 5079   1.144   2.285   2.329
 1262SOL    MW4 5080   1.141   2.367   2.360
 1263SOL     OW 5081   0.896   2.468   2.287
 1263SOL    HW2 5082   0.983   2.438   2.314
 1263SOL    HW3 5083   0.891   2.446   2.194
 1263SOL    MW4 5084   0.907   2.461   2.279
 1264SOL     OW 5085   0.863   2.737   2.347
 1264SOL    HW2 5086   0.843   2.742   2.440
 1264SOL    HW3 5087   0.857   2.644   2.326
 1264SOL    MW4 5088   0.859   2.725   2.356
 1265SOL     OW 5089   1.075   2.870   2.236
 1265SOL    HW2 5090   1.150   2.814   2.256
 1265SOL    HW3 5091   1.000   2.825   2.274
 1265SOL    MW4 5092   1.075   2.857   2.244
 1266SOL     OW 5093   1.081   3.095   2.384
 1266SOL    HW2 5094   1.006   3.152   2.363
 1266SOL    HW3 5095   1.069   3.019   2.327
 1266SOL    MW4 5096   1.069   3.093   2.373
 1267SOL     OW 5097   0.890   3.230   2.253
 1267SOL    HW2 5098   0.904   3.321   2.278
 1267SOL    HW3 5099   0.798   3.213   2.276
 1267SOL    MW4 5100   0.879   3.240   2.259
 1268SOL     OW 5101   0.930   3.490   2.343
 1268SOL    HW2 5102   0.931   3.488   2.439
 1268SOL    HW3 5103   0.847   3.532   2.321
 1268SOL    MW4 5104   0.919   3.495   2.353
 1269SOL     OW 5105   1.143   3.631   2.245
 1269SOL    HW2 5106   1.218   3.593   2.290
 1269SOL    HW3 5107   1.067   3.586   2.283
 1269SOL    MW4 5108   1.143   3.620   2.256
 1270SOL     OW 5109   1.096   3.900   2.316
 1270SOL    HW2 5110   1.180   3.946   2.308
 1270SOL    HW3 5111   1.118   3.808   2.299
 1270SOL    MW4 5112   1.110   3.894   2.312
 1271SOL     OW 5113   0.859   4.006   2.226
 1271SOL    HW2 5114   0.935   3.972   2.272
 1271SOL    HW3 5115   0.784   3.978   2.279
 1271SOL    MW4 5116   0.859   3.998   2.239
 1272SOL     OW 5117   0.894   4.278   2.336
 1272SOL    HW2 5118   0.869   4.193   2.299
 1272SOL    HW3 5119   0.818   4.334   2.319
 1272SOL    MW4 5120   0.881   4.274   2.329
 1273SOL     OW 5121   1.140   4.380   2.269
 1273SOL    HW2 5122   1.057   4.344   2.301
 1273SOL    HW3 5123   1.138   4.472   2.297
 1273SOL    MW4 5124   1.129   4.387   2.277
 1274SOL     OW 5125   1.583   4.639   2.338
 1274SOL    HW2 5126   1.666   4.681   2.313
 1274SOL    HW3 5127   1.516   4.691   2.295
 1274SOL    MW4 5128   1.585   4.651   2.329
 1275SOL     OW 5129   1.356   0.124   2.236
 1275SOL    HW2 5130   1.338   0.203   2.287
 1275SOL    HW3 5131   1.305   0.056   2.280
 1275SOL    MW4 5132   1.347   0.125   2.249
 1276SOL     OW 5133   1.297   0.358   2.362
 1276SOL    HW2 5134   1.301   0.377   2.455
 1276SOL    HW3 5135   1.372   0.403   2.324
 1276SOL    MW4 5136   1.307   0.366   2.369
 1277SOL     OW 5137   1.529   0.482   2.290
 1277SOL    HW2 5138   1.598   0.422   2.317
 1277SOL    HW3 5139   1.529   0.477   2.194
 1277SOL    MW4 5140   1.538   0.474   2.281
 1278SOL     OW 5141   1.547   0.747   2.380
 1278SOL    HW2 5142   1.621   0.791   2.336
 1278SOL    HW3 5143   1.544   0.660   2.340
 1278SOL    MW4 5144   1.556   0.742   2.369
 1279SOL     OW 5145   1.330   0.900   2.278
 1279SOL    HW2 5146   1.404   0.850   2.314
 1279SOL    HW3 5147   1.253   0.865   2.323
 1279SOL    MW4 5148   1.330   0.889   2.289
 1280SOL     OW 5149   1.365   1.162   2.335
 1280SOL    HW2 5150   1.371   1.167   2.430
 1280SOL    HW3 5151   1.361   1.069   2.315
 1280SOL    MW4 5152   1.365   1.150   2.345
 1281SOL     OW 5153   1.604   1.268   2.248
 1281SOL    HW2 5154   1.520   1.235   2.278
 1281SOL    HW3 5155   1.601   1.259   2.153
 1281SOL    MW4 5156   1.593   1.263   2.240
 1282SOL     OW 5157   1.538   1.550   2.316
 1282SOL    HW2 5158   1.621   1.597   2.321
 1282SOL    HW3 5159   1.561   1.462   2.286
 1282SOL    MW4 5160   1.552   1.545   2.313
 1283SOL     OW 5161   1.314   1.695   2.264
 1283SOL    HW2 5162   1.394   1.653   2.292
 1283SOL    HW3 5163   1.244   1.639   2.296
 1283SOL    MW4 5164   1.315   1.682   2.272
 1284SOL     OW 5165   1.318   1.954   2.397
 1284SOL    HW2 5166   1.403   1.976   2.359
 1284SOL    HW3 5167   1.298   1.867   2.361
 1284SOL    MW4 5168   1.327   1.945   2.387
 1285SOL     OW 5169   1.569   2.081   2.265
 1285SOL    HW2 5170   1.657   2.047   2.280
 1285SOL    HW3 5171   1.560   2.084   2.170
 1285SOL    MW4 5172   1.579   2.077   2.255
 1286SOL     OW 5173   1.525   2.340   2.357
 1286SOL    HW2 5174   1.530   2.336   2.452
 1286SOL    HW3 5175   1.548   2.251   2.328
 1286SOL    MW4 5176   1.529   2.327   2.366
 1287SOL     OW 5177   1.345   2.467   2.214
 1287SOL    HW2 5178   1.406   2.408   2.258
 1287SOL    HW3 5179   1.341   2.434   2.124
 1287SOL    MW4 5180   1.353   2.455   2.208
 1288SOL     OW 5181   1.317   2.736   2.317
 1288SOL    HW2 5182   1.407   2.764   2.304
 1288SOL    HW3 5183   1.310   2.653   2.270
 1288SOL    MW4 5184   1.328   2.729   2.309
 1289SOL     OW 5185   1.559   2.829   2.271
 1289SOL    HW2 5186   1.568   2.923   2.290
 1289SOL    HW3 5187   1.584   2.821   2.179
 1289SOL    MW4 5188   1.563   2.840   2.261
 1290SOL     OW 5189   1.576   3.114   2.321
 1290SOL    HW2 5190   1.573   3.113   2.417
 1290SOL    HW3 5191   1.487   3.139   2.294
 1290SOL    MW4 5192   1.564   3.117   2.330
 1291SOL     OW 5193   1.281   3.253   2.287
 1291SOL    HW2 5194   1.214   3.194   2.322
 1291SOL    HW3 5195   1.266   3.254   2.193
 1291SOL    MW4 5196   1.270   3.245   2.279
 1292SOL     OW 5197   1.373   3.526   2.371
 1292SOL    HW2 5198   1.359   3.529   2.465
 1292SOL    HW3 5199   1.341   3.439   2.345
 1292SOL    MW4 5200   1.367   3.515   2.380
 1293SOL     OW 5201   1.558   3.657   2.214
 1293SOL    HW2 5202   1.571   3.732   2.271
 1293SOL    HW3 5203   1.494   3.602   2.260
 1293SOL    MW4 5204   1.551   3.660   2.228
 1294SOL     OW 5205   1.588   3.857   2.392
 1294SOL    HW2 5206   1.589   3.869   2.487
 1294SOL    HW3 5207   1.675   3.887   2.364
 1294SOL    MW4 5208   1.600   3.862   2.401
 1295SOL     OW 5209   1.353   3.984   2.285
 1295SOL    HW2 5210   1.427   3.940   2.326
 1295SOL    HW3 5211   1.372   3.982   2.192
 1295SOL    MW4 5212   1.365   3.978   2.278
 1296SOL     OW 5213   1.363   4.264   2.367
 1296SOL    HW2 5214   1.343   4.175   2.337
 1296SOL    HW3 5215   1.292   4.318   2.332
 1296SOL    MW4 5216   1.351   4.260   2.359
 1297SOL     OW 5217   1.570   4.378   2.244
 1297SOL    HW2 5218   1.497   4.330   2.283
 1297SOL    HW3 5219   1.564   4.466   2.281
 1297SOL    MW4 5220   1.560   4.383   2.254
 1298SOL     OW 5221   2.038   4.663   2.369
 1298SOL    HW2 5222   2.116   4.708   2.334
 1298SOL    HW3 5223   2.047   4.573   2.337
 1298SOL    MW4 5224   2.050   4.657   2.360
 1299SOL     OW 5225   1.808   0.124   2.278
 1299SOL    HW2 5226   1.796   0.204   2.329
 1299SOL    HW3 5227   1.890   0.087   2.311
 1299SOL    MW4 5228   1.817   0.130   2.289
 1300SOL     OW 5229   1.759   0.365   2.408
 1300SOL    HW2 5230   1.760   0.359   2.503
 1300SOL    HW3 5231   1.832   0.423   2.387
 1300SOL    MW4 5232   1.769   0.372   2.418
 1301SOL     OW 5233   2.005   0.470   2.274
 1301SOL    HW2 5234   2.016   0.559   2.308
 1301SOL    HW3 5235   2.012   0.480   2.179
 1301SOL    MW4 5236   2.007   0.483   2.266
 1302SOL     OW 5237   2.023   0.734   2.360
 1302SOL    HW2 5238   2.092   0.786   2.319
 1302SOL    HW3 5239   1.942   0.779   2.337
 1302SOL    MW4 5240   2.022   0.747   2.352
 1303SOL     OW 5241   1.770   0.862   2.246
 1303SOL    HW2 5242   1.754   0.950   2.279
 1303SOL    HW3 5243   1.772   0.872   2.150
 1303SOL    MW4 5244   1.768   0.875   2.237
 1304SOL     OW 5245   1.813   1.129   2.331
 1304SOL    HW2 5246   1.880   1.184   2.290
 1304SOL    HW3 5247   1.731   1.176   2.315
 1304SOL    MW4 5248   1.811   1.143   2.324
 1305SOL     OW 5249   2.036   1.289   2.260
 1305SOL    HW2 5250   2.029   1.382   2.281
 1305SOL    HW3 5251   2.042   1.286   2.164
 1305SOL    MW4 5252   2.036   1.301   2.250
 1306SOL     OW 5253   2.011   1.532   2.381
 1306SOL    HW2 5254   2.024   1.547   2.474
 1306SOL    HW3 5255   1.937   1.588   2.357
 1306SOL    MW4 5256   2.003   1.541   2.390
 1307SOL     OW 5257   1.791   1.659   2.269
 1307SOL    HW2 5258   1.819   1.748   2.290
 1307SOL    HW3 5259   1.785   1.657   2.174
 1307SOL    MW4 5260   1.794   1.671   2.260
 1308SOL     OW 5261   1.790   1.936   2.367
 1308SOL    HW2 5262   1.785   1.958   2.460
 1308SOL    HW3 5263   1.869   1.982   2.337
 1308SOL    MW4 5264   1.800   1.945   2.376
 1309SOL     OW 5265   2.028   2.043   2.274
 1309SOL    HW2 5266   2.099   1.998   2.319
 1309SOL    HW3 5267   2.044   2.026   2.181
 1309SOL    MW4 5268   2.039   2.035   2.267
 1310SOL     OW 5269   1.999   2.309   2.327
 1310SOL    HW2 5270   2.063   2.350   2.269
 1310SOL    HW3 5271   2.010   2.215   2.314
 1310SOL    MW4 5272   2.009   2.302   2.318
 1311SOL     OW 5273   1.755   2.428   2.225
 1311SOL    HW2 5274   1.826   2.380   2.268
 1311SOL    HW3 5275   1.676   2.399   2.271
 1311SOL    MW4 5276   1.754   2.418   2.237
 1312SOL     OW 5277   1.805   2.674   2.358
 1312SOL    HW2 5278   1.787   2.585   2.329
 1312SOL    HW3 5279   1.720   2.718   2.356
 1312SOL    MW4 5280   1.792   2.668   2.354
 1313SOL     OW 5281   1.997   2.821   2.212
 1313SOL    HW2 5282   2.074   2.789   2.257
 1313SOL    HW3 5283   1.924   2.772   2.252
 1313SOL    MW4 5284   1.997   2.810   2.223
 1314SOL     OW 5285   2.035   3.083   2.336
 1314SOL    HW2 5286   2.120   3.102   2.296
 1314SOL    HW3 5287   2.009   2.998   2.299
 1314SOL    MW4 5288   2.043   3.074   2.326
 1315SOL     OW 5289   1.836   3.242   2.233
 1315SOL    HW2 5290   1.907   3.191   2.272
 1315SOL    HW3 5291   1.756   3.207   2.273
 1315SOL    MW4 5292   1.835   3.231   2.244
 1316SOL     OW 5293   1.789   3.511   2.342
 1316SOL    HW2 5294   1.788   3.426   2.298
 1316SOL    HW3 5295   1.707   3.553   2.316
 1316SOL    MW4 5296   1.778   3.506   2.333
 1317SOL     OW 5297   2.015   3.643   2.225
 1317SOL    HW2 5298   1.948   3.591   2.269
 1317SOL    HW3 5299   2.013   3.613   2.134
 1317SOL    MW4 5300   2.006   3.632   2.219
 1318SOL     OW 5301   2.063   3.878   2.350
 1318SOL    HW2 5302   2.063   3.850   2.441
 1318SOL    HW3 5303   2.051   3.798   2.299
 1318SOL    MW4 5304   2.061   3.864   2.355
 1319SOL     OW 5305   1.820   3.992   2.300
 1319SOL    HW2 5306   1.903   3.951   2.324
 1319SOL    HW3 5307   1.811   3.975   2.207
 1319SOL    MW4 5308   1.830   3.984   2.291
 1320SOL     OW 5309   1.803   4.262   2.377
 1320SOL    HW2 5310   1.800   4.172   2.345
 1320SOL    HW3 5311   1.721   4.301   2.347
 1320SOL    MW4 5312   1.792   4.255   2.369
 1321SOL     OW 5313   2.017   4.404   2.276
 1321SOL    HW2 5314   1.941   4.351   2.299
 1321SOL    HW3 5315   2.020   4.401   2.180
 1321SOL    MW4 5316   2.007   4.397   2.266
 1322SOL     OW 5317   2.470   4.649   2.356
 1322SOL    HW2 5318   2.554   4.681   2.322
 1322SOL    HW3 5319   2.469   4.556   2.335
 1322SOL    MW4 5320   2.481   4.641   2.348
 1323SOL     OW 5321   2.257   0.095   2.248
 1323SOL    HW2 5322   2.268   0.188   2.268
 1323SOL    HW3 5323   2.329   0.052   2.294
 1323SOL    MW4 5324   2.268   0.101   2.256
 1324SOL     OW 5325   2.251   0.354   2.333
 1324SOL    HW2 5326   2.316   0.413   2.295
 1324SOL    HW3 5327   2.167   0.394   2.312
 1324SOL    MW4 5328   2.248   0.367   2.325
 1325SOL     OW 5329   2.466   0.488   2.232
 1325SOL    HW2 5330   2.536   0.428   2.256
 1325SOL    HW3 5331   2.467   0.490   2.136
 1325SOL    MW4 5332   2.475   0.481   2.222
 1326SOL     OW 5333   2.431   0.728   2.379
 1326SOL    HW2 5334   2.495   0.786   2.338
 1326SOL    HW3 5335   2.444   0.644   2.336
 1326SOL    MW4 5336   2.442   0.725   2.368
 1327SOL     OW 5337   2.247   0.885   2.251
 1327SOL    HW2 5338   2.256   0.977   2.277
 1327SOL    HW3 5339   2.309   0.839   2.308
 1327SOL    MW4 5340   2.256   0.891   2.262
 1328SOL     OW 5341   2.273   1.134   2.357
 1328SOL    HW2 5342   2.356   1.172   2.329
 1328SOL    HW3 5343   2.206   1.195   2.325
 1328SOL    MW4 5344   2.275   1.147   2.350
 1329SOL     OW 5345   2.490   1.277   2.267
 1329SOL    HW2 5346   2.571   1.236   2.299
 1329SOL    HW3 5347   2.495   1.367   2.296
 1329SOL    MW4 5348   2.501   1.283   2.275
 1330SOL     OW 5349   2.455   1.537   2.360
 1330SOL    HW2 5350   2.456   1.551   2.455
 1330SOL    HW3 5351   2.527   1.589   2.327
 1330SOL    MW4 5352   2.464   1.546   2.368
 1331SOL     OW 5353   2.230   1.626   2.257
 1331SOL    HW2 5354   2.304   1.588   2.302
 1331SOL    HW3 5355   2.153   1.587   2.299
 1331SOL    MW4 5356   2.229   1.616   2.269
 1332SOL     OW 5357   2.220   1.889   2.386
 1332SOL    HW2 5358   2.305   1.931   2.381
 1332SOL    HW3 5359   2.235   1.799   2.358
 1332SOL    MW4 5360   2.233   1.883   2.382
 1333SOL     OW 5361   2.441   2.007   2.300
 1333SOL    HW2 5362   2.527   1.988   2.337
 1333SOL    HW3 5363   2.453   1.999   2.205
 1333SOL    MW4 5364   2.454   2.003   2.292
 1334SOL     OW 5365   2.421   2.297   2.333
 1334SOL    HW2 5366   2.508   2.319   2.300
 1334SOL    HW3 5367   2.412   2.203   2.316
 1334SOL    MW4 5368   2.431   2.288   2.326
 1335SOL     OW 5369   2.214   2.445   2.228
 1335SOL    HW2 5370   2.212   2.534   2.263
 1335SOL    HW3 5371   2.276   2.398   2.284
 1335SOL    MW4 5372   2.222   2.450   2.240
 1336SOL     OW 5373   2.222   2.709   2.308
 1336SOL    HW2 5374   2.233   2.713   2.403
 1336SOL    HW3 5375   2.302   2.751   2.273
 1336SOL    MW4 5376   2.234   2.715   2.316
 1337SOL     OW 5377   2.467   2.824   2.250
 1337SOL    HW2 5378   2.533   2.765   2.288
 1337SOL    HW3 5379   2.492   2.830   2.158
 1337SOL    MW4 5380   2.479   2.817   2.243
 1338SOL     OW 5381   2.470   3.076   2.352
 1338SOL    HW2 5382   2.557   3.097   2.319
 1338SOL    HW3 5383   2.459   2.983   2.334
 1338SOL    MW4 5384   2.480   3.067   2.345
 1339SOL     OW 5385   2.266   3.163   2.179
 1339SOL    HW2 5386   2.245   3.242   2.229
 1339SOL    HW3 5387   2.331   3.117   2.232
 1339SOL    MW4 5388   2.272   3.167   2.192
 1340SOL     OW 5389   2.202   3.401   2.330
 1340SOL    HW2 5390   2.202   3.427   2.422
 1340SOL    HW3 5391   2.128   3.448   2.292
 1340SOL    MW4 5392   2.192   3.411   2.337
 1341SOL     OW 5393   2.447   3.534   2.235
 1341SOL    HW2 5394   2.432   3.623   2.265
 1341SOL    HW3 5395   2.373   3.484   2.269
 1341SOL    MW4 5396   2.435   3.539   2.243
 1342SOL     OW 5397   2.444   3.829   2.339
 1342SOL    HW2 5398   2.464   3.837   2.432
 1342SOL    HW3 5399   2.382   3.900   2.321
 1342SOL    MW4 5400   2.439   3.840   2.349
 1343SOL     OW 5401   2.274   4.024   2.256
 1343SOL    HW2 5402   2.268   4.112   2.293
 1343SOL    HW3 5403   2.186   3.988   2.267
 1343SOL    MW4 5404   2.261   4.031   2.263
 1344SOL     OW 5405   2.264   4.292   2.339
 1344SOL    HW2 5406   2.258   4.285   2.434
 1344SOL    HW3 5407   2.177   4.321   2.312
 1344SOL    MW4 5408   2.251   4.295   2.348
 1345SOL     OW 5409   2.504   4.387   2.258
 1345SOL    HW2 5410   2.575   4.339   2.301
 1345SOL    HW3 5411   2.426   4.334   2.275
 1345SOL    MW4 5412   2.503   4.374   2.266
 1346SOL     OW 5413   2.916   4.623   2.384
 1346SOL    HW2 5414   2.998   4.669   2.366
 1346SOL    HW3 5415   2.926   4.538   2.342
 1346SOL    MW4 5416   2.928   4.618   2.376
 1347SOL     OW 5417   2.686   0.085   2.227
 1347SOL    HW2 5418   2.694   0.176   2.255
 1347SOL    HW3 5419   2.760   0.041   2.268
 1347SOL    MW4 5420   2.697   0.091   2.236
 1348SOL     OW 5421   2.701   0.348   2.327
 1348SOL    HW2 5422   2.710   0.335   2.422
 1348SOL    HW3 5423   2.780   0.394   2.301
 1348SOL    MW4 5424   2.713   0.352   2.336
 1349SOL     OW 5425   2.949   0.472   2.287
 1349SOL    HW2 5426   2.954   0.565   2.310
 1349SOL    HW3 5427   2.949   0.471   2.192
 1349SOL    MW4 5428   2.950   0.484   2.278
 1350SOL     OW 5429   2.918   0.742   2.373
 1350SOL    HW2 5430   2.916   0.732   2.468
 1350SOL    HW3 5431   2.833   0.780   2.350
 1350SOL    MW4 5432   2.907   0.746   2.382
 1351SOL     OW 5433   2.668   0.849   2.281
 1351SOL    HW2 5434   2.692   0.933   2.319
 1351SOL    HW3 5435   2.677   0.862   2.186
 1351SOL    MW4 5436   2.673   0.862   2.273
 1352SOL     OW 5437   2.708   1.102   2.350
 1352SOL    HW2 5438   2.715   1.136   2.439
 1352SOL    HW3 5439   2.779   1.146   2.302
 1352SOL    MW4 5440   2.718   1.112   2.355
 1353SOL     OW 5441   2.894   1.284   2.211
 1353SOL    HW2 5442   2.976   1.269   2.258
 1353SOL    HW3 5443   2.917   1.276   2.119
 1353SOL    MW4 5444   2.908   1.281   2.205
 1354SOL     OW 5445   2.903   1.538   2.311
 1354SOL    HW2 5446   2.906   1.534   2.406
 1354SOL    HW3 5447   2.875   1.450   2.284
 1354SOL    MW4 5448   2.899   1.525   2.320
 1355SOL     OW 5449   2.675   1.680   2.261
 1355SOL    HW2 5450   2.750   1.624   2.279
 1355SOL    HW3 5451   2.657   1.670   2.168
 1355SOL    MW4 5452   2.682   1.672   2.251
 1356SOL     OW 5453   2.706   1.938   2.380
 1356SOL    HW2 5454   2.722   1.928   2.473
 1356SOL    HW3 5455   2.706   1.849   2.345
 1356SOL    MW4 5456   2.708   1.925   2.387
 1357SOL     OW 5457   2.919   2.050   2.259
 1357SOL    HW2 5458   2.989   1.993   2.291
 1357SOL    HW3 5459   2.842   2.025   2.310
 1357SOL    MW4 5460   2.918   2.039   2.270
 1358SOL     OW 5461   2.946   2.309   2.351
 1358SOL    HW2 5462   2.939   2.325   2.446
 1358SOL    HW3 5463   2.944   2.214   2.343
 1358SOL    MW4 5464   2.945   2.299   2.363
 1359SOL     OW 5465   2.684   2.379   2.281
 1359SOL    HW2 5466   2.772   2.350   2.306
 1359SOL    HW3 5467   2.686   2.383   2.185
 1359SOL    MW4 5468   2.696   2.376   2.272
 1360SOL     OW 5469   2.685   2.649   2.366
 1360SOL    HW2 5470   2.765   2.690   2.333
 1360SOL    HW3 5471   2.688   2.559   2.333
 1360SOL    MW4 5472   2.696   2.642   2.357
 1361SOL     OW 5473   2.883   2.816   2.258
 1361SOL    HW2 5474   2.898   2.905   2.288
 1361SOL    HW3 5475   2.896   2.820   2.163
 1361SOL    MW4 5476   2.887   2.828   2.249
 1362SOL     OW 5477   2.927   3.062   2.367
 1362SOL    HW2 5478   3.004   3.111   2.336
 1362SOL    HW3 5479   2.852   3.106   2.327
 1362SOL    MW4 5480   2.928   3.074   2.358
 1363SOL     OW 5481   2.715   3.185   2.246
 1363SOL    HW2 5482   2.692   3.269   2.286
 1363SOL    HW3 5483   2.707   3.200   2.152
 1363SOL    MW4 5484   2.711   3.198   2.239
 1364SOL     OW 5485   2.676   3.434   2.358
 1364SOL    HW2 5486   2.747   3.492   2.329
 1364SOL    HW3 5487   2.597   3.475   2.324
 1364SOL    MW4 5488   2.675   3.447   2.350
 1365SOL     OW 5489   2.871   3.588   2.271
 1365SOL    HW2 5490   2.951   3.540   2.294
 1365SOL    HW3 5491   2.892   3.679   2.290
 1365SOL    MW4 5492   2.884   3.594   2.276
 1366SOL     OW 5493   2.903   3.840   2.357
 1366SOL    HW2 5494   2.906   3.835   2.453
 1366SOL    HW3 5495   2.824   3.890   2.338
 1366SOL    MW4 5496   2.893   3.846   2.367
 1367SOL     OW 5497   2.670   3.990   2.279
 1367SOL    HW2 5498   2.596   3.930   2.287
 1367SOL    HW3 5499   2.681   4.002   2.185
 1367SOL    MW4 5500   2.661   3.983   2.268
 1368SOL     OW 5501   2.727   4.232   2.367
 1368SOL    HW2 5502   2.739   4.236   2.462
 1368SOL    HW3 5503   2.714   4.139   2.348
 1368SOL    MW4 5504   2.727   4.220   2.377
 1369SOL     OW 5505   2.934   4.364   2.232
 1369SOL    HW2 5506   3.012   4.323   2.271
 1369SOL    HW3 5507   2.860   4.320   2.275
 1369SOL    MW4 5508   2.935   4.353   2.243
 1370SOL     OW 5509   3.380   4.646   2.330
 1370SOL    HW2 5510   3.367   4.634   2.424
 1370SOL    HW3 5511   3.451   4.710   2.324
 1370SOL    MW4 5512   3.388   4.653   2.342
 1371SOL     OW 5513   3.152   0.126   2.283
 1371SOL    HW2 5514   3.152   0.212   2.326
 1371SOL    HW3 5515   3.237   0.088   2.304
 1371SOL    MW4 5516   3.163   0.133   2.291
 1372SOL     OW 5517   3.147   0.368   2.410
 1372SOL    HW2 5518   3.216   0.419   2.367
 1372SOL    HW3 5519   3.066   0.395   2.366
 1372SOL    MW4 5520   3.145   0.379   2.399
 1373SOL     OW 5521   3.338   0.522   2.277
 1373SOL    HW2 5522   3.414   0.488   2.325
 1373SOL    HW3 5523   3.357   0.503   2.185
 1373SOL    MW4 5524   3.351   0.515   2.271
 1374SOL     OW 5525   3.334   0.791   2.355
 1374SOL    HW2 5526   3.417   0.825   2.321
 1374SOL    HW3 5527   3.338   0.697   2.339
 1374SOL    MW4 5528   3.346   0.783   2.348
 1375SOL     OW 5529   3.107   0.884   2.216
 1375SOL    HW2 5530   3.189   0.857   2.258
 1375SOL    HW3 5531   3.039   0.836   2.263
 1375SOL    MW4 5532   3.109   0.874   2.228
 1376SOL     OW 5533   3.132   1.139   2.345
 1376SOL    HW2 5534   3.214   1.184   2.323
 1376SOL    HW3 5535   3.135   1.057   2.295
 1376SOL    MW4 5536   3.143   1.134   2.335
 1377SOL     OW 5537   3.380   1.247   2.271
 1377SOL    HW2 5538   3.454   1.205   2.314
 1377SOL    HW3 5539   3.389   1.340   2.293
 1377SOL    MW4 5540   3.391   1.254   2.280
 1378SOL     OW 5541   3.384   1.528   2.349
 1378SOL    HW2 5542   3.366   1.533   2.443
 1378SOL    HW3 5543   3.305   1.563   2.308
 1378SOL    MW4 5544   3.371   1.534   2.356
 1379SOL     OW 5545   3.152   1.633   2.249
 1379SOL    HW2 5546   3.143   1.720   2.287
 1379SOL    HW3 5547   3.070   1.589   2.271
 1379SOL    MW4 5548   3.140   1.638   2.257
 1380SOL     OW 5549   3.120   1.877   2.340
 1380SOL    HW2 5550   3.119   1.880   2.436
 1380SOL    HW3 5551   3.194   1.933   2.316
 1380SOL    MW4 5552   3.130   1.885   2.350
 1381SOL     OW 5553   3.346   2.010   2.287
 1381SOL    HW2 5554   3.428   1.970   2.317
 1381SOL    HW3 5555   3.359   2.022   2.193
 1381SOL    MW4 5556   3.359   2.006   2.278
 1382SOL     OW 5557   3.374   2.266   2.385
 1382SOL    HW2 5558   3.315   2.325   2.338
 1382SOL    HW3 5559   3.350   2.179   2.354
 1382SOL    MW4 5560   3.363   2.263   2.375
 1383SOL     OW 5561   3.178   2.411   2.237
 1383SOL    HW2 5562   3.170   2.503   2.262
 1383SOL    HW3 5563   3.093   2.373   2.258
 1383SOL    MW4 5564   3.166   2.418   2.243
 1384SOL     OW 5565   3.133   2.681   2.348
 1384SOL    HW2 5566   3.141   2.684   2.443
 1384SOL    HW3 5567   3.045   2.714   2.330
 1384SOL    MW4 5568   3.122   2.686   2.358
 1385SOL     OW 5569   3.356   2.811   2.262
 1385SOL    HW2 5570   3.358   2.901   2.295
 1385SOL    HW3 5571   3.273   2.775   2.295
 1385SOL    MW4 5572   3.345   2.818   2.271
 1386SOL     OW 5573   3.389   3.074   2.329
 1386SOL    HW2 5574   3.470   3.112   2.294
 1386SOL    HW3 5575   3.319   3.121   2.283
 1386SOL    MW4 5576   3.391   3.085   2.318
 1387SOL     OW 5577   3.149   3.177   2.219
 1387SOL    HW2 5578   3.149   3.271   2.235
 1387SOL    HW3 5579   3.131   3.168   2.125
 1387SOL    MW4 5580   3.147   3.188   2.209
 1388SOL     OW 5581   3.102   3.446   2.297
 1388SOL    HW2 5582   3.100   3.443   2.393
 1388SOL    HW3 5583   3.179   3.498   2.276
 1388SOL    MW4 5584   3.112   3.452   2.307
 1389SOL     OW 5585   3.329   3.586   2.246
 1389SOL    HW2 5586   3.413   3.547   2.270
 1389SOL    HW3 5587   3.328   3.585   2.150
 1389SOL    MW4 5588   3.340   3.581   2.236
 1390SOL     OW 5589   3.337   3.855   2.299
 1390SOL    HW2 5590   3.417   3.892   2.261
 1390SOL    HW3 5591   3.343   3.762   2.279
 1390SOL    MW4 5592   3.349   3.848   2.291
 1391SOL     OW 5593   3.121   4.011   2.276
 1391SOL    HW2 5594   3.194   3.950   2.282
 1391SOL    HW3 5595   3.046   3.962   2.307
 1391SOL    MW4 5596   3.121   3.997   2.281
 1392SOL     OW 5597   3.169   4.265   2.358
 1392SOL    HW2 5598   3.234   4.312   2.305
 1392SOL    HW3 5599   3.167   4.177   2.321
 1392SOL    MW4 5600   3.177   4.259   2.346
 1393SOL     OW 5601   3.364   4.385   2.211
 1393SOL    HW2 5602   3.375   4.474   2.243
 1393SOL    HW3 5603   3.341   4.396   2.118
 1393SOL    MW4 5604   3.362   4.398   2.203
 1394SOL     OW 5605   3.756   4.659   2.351
 1394SOL    HW2 5606   3.749   4.659   2.447
 1394SOL    HW3 5607   3.845   4.689   2.334
 1394SOL    MW4 5608   3.767   4.663   2.362
 1395SOL     OW 5609   3.566   0.181   2.244
 1395SOL    HW2 5610   3.569   0.271   2.276
 1395SOL    HW3 5611   3.642   0.138   2.283
 1395SOL    MW4 5612   3.576   0.188   2.253
 1396SOL     OW 5613   3.581   0.430   2.383
 1396SOL    HW2 5614   3.569   0.401   2.473
 1396SOL    HW3 5615   3.672   0.459   2.379
 1396SOL    MW4 5616   3.592   0.430   2.394
 1397SOL     OW 5617   3.833   0.500   2.340
 1397SOL    HW2 5618   3.826   0.591   2.367
 1397SOL    HW3 5619   3.812   0.502   2.246
 1397SOL    MW4 5620   3.829   0.512   2.331
 1398SOL     OW 5621   3.823   0.779   2.371
 1398SOL    HW2 5622   3.826   0.779   2.467
 1398SOL    HW3 5623   3.902   0.827   2.345
 1398SOL    MW4 5624   3.834   0.785   2.380
 1399SOL     OW 5625   3.587   0.883   2.268
 1399SOL    HW2 5626   3.663   0.833   2.298
 1399SOL    HW3 5627   3.595   0.884   2.172
 1399SOL    MW4 5628   3.598   0.877   2.259
 1400SOL     OW 5629   3.596   1.122   2.393
 1400SOL    HW2 5630   3.592   1.106   2.488
 1400SOL    HW3 5631   3.613   1.037   2.355
 1400SOL    MW4 5632   3.597   1.109   2.401
 1401SOL     OW 5633   3.781   1.274   2.245
 1401SOL    HW2 5634   3.785   1.365   2.274
 1401SOL    HW3 5635   3.729   1.229   2.312
 1401SOL    MW4 5636   3.775   1.280   2.258
 1402SOL     OW 5637   3.808   1.539   2.312
 1402SOL    HW2 5638   3.833   1.549   2.404
 1402SOL    HW3 5639   3.745   1.609   2.296
 1402SOL    MW4 5640   3.803   1.549   2.322
 1403SOL     OW 5641   3.571   1.693   2.226
 1403SOL    HW2 5642   3.507   1.630   2.261
 1403SOL    HW3 5643   3.574   1.674   2.132
 1403SOL    MW4 5644   3.563   1.682   2.218
 1404SOL     OW 5645   3.577   1.920   2.379
 1404SOL    HW2 5646   3.637   1.980   2.335
 1404SOL    HW3 5647   3.585   1.838   2.331
 1404SOL    MW4 5648   3.586   1.917   2.367
 1405SOL     OW 5649   3.779   2.063   2.271
 1405SOL    HW2 5650   3.853   2.008   2.297
 1405SOL    HW3 5651   3.780   2.059   2.175
 1405SOL    MW4 5652   3.789   2.055   2.262
 1406SOL     OW 5653   3.813   2.321   2.376
 1406SOL    HW2 5654   3.734   2.368   2.350
 1406SOL    HW3 5655   3.804   2.235   2.335
 1406SOL    MW4 5656   3.801   2.316   2.367
 1407SOL     OW 5657   3.579   2.432   2.275
 1407SOL    HW2 5658   3.515   2.375   2.317
 1407SOL    HW3 5659   3.540   2.454   2.190
 1407SOL    MW4 5660   3.565   2.427   2.269
 1408SOL     OW 5661   3.588   2.693   2.356
 1408SOL    HW2 5662   3.585   2.602   2.327
 1408SOL    HW3 5663   3.510   2.733   2.316
 1408SOL    MW4 5664   3.577   2.686   2.347
 1409SOL     OW 5665   3.810   2.848   2.288
 1409SOL    HW2 5666   3.797   2.929   2.337
 1409SOL    HW3 5667   3.738   2.792   2.315
 1409SOL    MW4 5668   3.799   2.851   2.298
 1410SOL     OW 5669   3.810   3.112   2.378
 1410SOL    HW2 5670   3.808   3.120   2.474
 1410SOL    HW3 5671   3.903   3.124   2.356
 1410SOL    MW4 5672   3.822   3.114   2.388
 1411SOL     OW 5673   3.616   3.237   2.233
 1411SOL    HW2 5674   3.622   3.325   2.272
 1411SOL    HW3 5675   3.690   3.189   2.269
 1411SOL    MW4 5676   3.626   3.242   2.243
 1412SOL     OW 5677   3.590   3.499   2.337
 1412SOL    HW2 5678   3.601   3.478   2.430
 1412SOL    HW3 5679   3.672   3.542   2.313
 1412SOL    MW4 5680   3.602   3.502   2.346
 1413SOL     OW 5681   3.835   3.611   2.271
 1413SOL    HW2 5682   3.795   3.693   2.300
 1413SOL    HW3 5683   3.838   3.618   2.176
 1413SOL    MW4 5684   3.830   3.623   2.263
 1414SOL     OW 5685   3.795   3.870   2.357
 1414SOL    HW2 5686   3.787   3.848   2.450
 1414SOL    HW3 5687   3.882   3.908   2.349
 1414SOL    MW4 5688   3.805   3.872   2.368
 1415SOL     OW 5689   3.578   3.974   2.228
 1415SOL    HW2 5690   3.592   4.063   2.261
 1415SOL    HW3 5691   3.642   3.921   2.275
 1415SOL    MW4 5692   3.588   3.979   2.238
 1416SOL     OW 5693   3.572   4.251   2.329
 1416SOL    HW2 5694   3.657   4.293   2.319
 1416SOL    HW3 5695   3.510   4.311   2.288
 1416SOL    MW4 5696   3.575   4.264   2.322
 1417SOL     OW 5697   3.816   4.367   2.249
 1417SOL    HW2 5698   3.891   4.329   2.295
 1417SOL    HW3 5699   3.803   4.452   2.292
 1417SOL    MW4 5700   3.825   4.373   2.261
 1418SOL     OW 5701   4.314   4.648   2.330
 1418SOL    HW2 5702   4.300   4.660   2.424
 1418SOL    HW3 5703   4.394   4.697   2.311
 1418SOL    MW4 5704   4.323   4.656   2.340
 1419SOL     OW 5705   4.026   0.076   2.306
 1419SOL    HW2 5706   4.043   0.165   2.337
 1419SOL    HW3 5707   4.108   0.029   2.323
 1419SOL    MW4 5708   4.039   0.082   2.312
 1420SOL     OW 5709   4.087   0.355   2.374
 1420SOL    HW2 5710   4.156   0.405   2.330
 1420SOL    HW3 5711   4.006   0.397   2.345
 1420SOL    MW4 5712   4.085   0.367   2.364
 1421SOL     OW 5713   4.302   0.506   2.288
 1421SOL    HW2 5714   4.287   0.572   2.356
 1421SOL    HW3 5715   4.372   0.451   2.323
 1421SOL    MW4 5716   4.309   0.508   2.302
 1422SOL     OW 5717   4.243   0.735   2.434
 1422SOL    HW2 5718   4.175   0.780   2.384
 1422SOL    HW3 5719   4.325   0.762   2.394
 1422SOL    MW4 5720   4.245   0.744   2.422
 1423SOL     OW 5721   4.051   0.901   2.283
 1423SOL    HW2 5722   4.052   0.997   2.288
 1423SOL    HW3 5723   4.045   0.882   2.190
 1423SOL    MW4 5724   4.050   0.911   2.272
 1424SOL     OW 5725   4.048   1.172   2.338
 1424SOL    HW2 5726   4.030   1.130   2.422
 1424SOL    HW3 5727   3.967   1.216   2.315
 1424SOL    MW4 5728   4.035   1.172   2.346
 1425SOL     OW 5729   4.297   1.296   2.299
 1425SOL    HW2 5730   4.214   1.252   2.318
 1425SOL    HW3 5731   4.363   1.247   2.348
 1425SOL    MW4 5732   4.295   1.284   2.308
 1426SOL     OW 5733   4.300   1.558   2.383
 1426SOL    HW2 5734   4.310   1.467   2.355
 1426SOL    HW3 5735   4.367   1.606   2.335
 1426SOL    MW4 5736   4.310   1.552   2.373
 1427SOL     OW 5737   4.075   1.637   2.246
 1427SOL    HW2 5738   4.151   1.602   2.293
 1427SOL    HW3 5739   4.001   1.592   2.287
 1427SOL    MW4 5740   4.075   1.626   2.258
 1428SOL     OW 5741   3.999   1.895   2.332
 1428SOL    HW2 5742   4.018   1.908   2.425
 1428SOL    HW3 5743   4.029   1.806   2.313
 1428SOL    MW4 5744   4.006   1.885   2.342
 1429SOL     OW 5745   4.224   2.060   2.247
 1429SOL    HW2 5746   4.214   2.146   2.288
 1429SOL    HW3 5747   4.149   2.010   2.276
 1429SOL    MW4 5748   4.213   2.065   2.256
 1430SOL     OW 5749   4.178   2.314   2.356
 1430SOL    HW2 5750   4.110   2.347   2.297
 1430SOL    HW3 5751   4.257   2.360   2.327
 1430SOL    MW4 5752   4.179   2.325   2.344
 1431SOL     OW 5753   3.976   2.464   2.226
 1431SOL    HW2 5754   3.985   2.545   2.275
 1431SOL    HW3 5755   3.915   2.412   2.278
 1431SOL    MW4 5756   3.969   2.468   2.239
 1432SOL     OW 5757   4.022   2.707   2.375
 1432SOL    HW2 5758   4.020   2.689   2.469
 1432SOL    HW3 5759   3.942   2.758   2.359
 1432SOL    MW4 5760   4.011   2.711   2.385
 1433SOL     OW 5761   4.253   2.843   2.268
 1433SOL    HW2 5762   4.181   2.794   2.307
 1433SOL    HW3 5763   4.330   2.789   2.283
 1433SOL    MW4 5764   4.254   2.830   2.275
 1434SOL     OW 5765   4.284   3.088   2.398
 1434SOL    HW2 5766   4.274   3.001   2.359
 1434SOL    HW3 5767   4.342   3.135   2.337
 1434SOL    MW4 5768   4.290   3.083   2.385
 1435SOL     OW 5769   4.047   3.221   2.303
 1435SOL    HW2 5770   4.035   3.298   2.358
 1435SOL    HW3 5771   4.124   3.177   2.339
 1435SOL    MW4 5772   4.055   3.225   2.315
 1436SOL     OW 5773   4.033   3.495   2.407
 1436SOL    HW2 5774   4.113   3.511   2.356
 1436SOL    HW3 5775   3.963   3.536   2.356
 1436SOL    MW4 5776   4.034   3.502   2.393
 1437SOL     OW 5777   4.266   3.571   2.301
 1437SOL    HW2 5778   4.267   3.661   2.333
 1437SOL    HW3 5779   4.267   3.579   2.206
 1437SOL    MW4 5780   4.266   3.584   2.293
 1438SOL     OW 5781   4.266   3.824   2.405
 1438SOL    HW2 5782   4.260   3.830   2.500
 1438SOL    HW3 5783   4.332   3.888   2.380
 1438SOL    MW4 5784   4.274   3.833   2.414
 1439SOL     OW 5785   4.054   3.976   2.302
 1439SOL    HW2 5786   4.125   3.920   2.331
 1439SOL    HW3 5787   4.073   3.993   2.210
 1439SOL    MW4 5788   4.066   3.971   2.294
 1440SOL     OW 5789   4.027   4.258   2.390
 1440SOL    HW2 5790   4.097   4.308   2.348
 1440SOL    HW3 5791   4.041   4.168   2.359
 1440SOL    MW4 5792   4.038   4.252   2.380
 1441SOL     OW 5793   4.256   4.386   2.276
 1441SOL    HW2 5794   4.271   4.478   2.301
 1441SOL    HW3 5795   4.337   4.342   2.299
 1441SOL    MW4 5796   4.269   4.393   2.282
 1442SOL     OW 5797   0.219   0.004   2.657
 1442SOL    HW2 5798   0.194  -0.089   2.665
 1442SOL    HW3 5799   0.141   0.051   2.684
 1442SOL    MW4 5800   0.205  -0.002   2.662
 1443SOL     OW 5801   4.480   0.118   2.721
 1443SOL    HW2 5802   4.483   0.110   2.817
 1443SOL    HW3 5803   4.496   0.211   2.704
 1443SOL    MW4 5804   4.483   0.129   2.732
 1444SOL     OW 5805   4.475   0.390   2.689
 1444SOL    HW2 5806   4.545   0.444   2.727
 1444SOL    HW3 5807   4.493   0.390   2.595
 1444SOL    MW4 5808   4.487   0.397   2.682
 1445SOL     OW 5809   0.209   0.515   2.804
 1445SOL    HW2 5810   0.218   0.508   2.899
 1445SOL    HW3 5811   0.273   0.453   2.769
 1445SOL    MW4 5812   0.219   0.506   2.812
 1446SOL     OW 5813   0.189   0.787   2.664
 1446SOL    HW2 5814   0.265   0.842   2.682
 1446SOL    HW3 5815   0.187   0.725   2.737
 1446SOL    MW4 5816   0.199   0.786   2.676
 1447SOL     OW 5817   4.487   0.875   2.819
 1447SOL    HW2 5818   4.402   0.849   2.785
 1447SOL    HW3 5819   4.550   0.849   2.752
 1447SOL    MW4 5820   4.484   0.868   2.806
 1448SOL     OW 5821   4.460   1.111   2.653
 1448SOL    HW2 5822   4.532   1.163   2.691
 1448SOL    HW3 5823   4.454   1.034   2.710
 1448SOL    MW4 5824   4.469   1.108   2.665
 1449SOL     OW 5825   0.202   1.252   2.747
 1449SOL    HW2 5826   0.274   1.210   2.700
 1449SOL    HW3 5827   0.216   1.346   2.733
 1449SOL    MW4 5828   0.214   1.259   2.739
 1450SOL     OW 5829   0.270   1.517   2.660
 1450SOL    HW2 5830   0.343   1.575   2.681
 1450SOL    HW3 5831   0.193   1.564   2.690
 1450SOL    MW4 5832   0.270   1.530   2.667
 1451SOL     OW 5833   0.040   1.641   2.763
 1451SOL    HW2 5834   0.036   1.674   2.853
 1451SOL    HW3 5835   0.022   1.718   2.709
 1451SOL    MW4 5836   0.037   1.656   2.768
 1452SOL     OW 5837   0.005   1.899   2.623
 1452SOL    HW2 5838   0.089   1.942   2.641
 1452SOL    HW3 5839  -0.011   1.916   2.530
 1452SOL    MW4 5840   0.014   1.907   2.613
 1453SOL     OW 5841   0.196   2.052   2.743
 1453SOL    HW2 5842   0.272   2.000   2.716
 1453SOL    HW3 5843   0.223   2.143   2.726
 1453SOL    MW4 5844   0.210   2.057   2.737
 1454SOL     OW 5845   0.238   2.311   2.667
 1454SOL    HW2 5846   0.311   2.353   2.712
 1454SOL    HW3 5847   0.161   2.360   2.695
 1454SOL    MW4 5848   0.237   2.323   2.677
 1455SOL     OW 5849   0.009   2.444   2.745
 1455SOL    HW2 5850   0.002   2.446   2.841
 1455SOL    HW3 5851  -0.068   2.394   2.717
 1455SOL    MW4 5852  -0.002   2.438   2.754
 1456SOL     OW 5853   0.031   2.696   2.619
 1456SOL    HW2 5854  -0.046   2.738   2.660
 1456SOL    HW3 5855   0.032   2.608   2.655
 1456SOL    MW4 5856   0.021   2.690   2.629
 1457SOL     OW 5857   0.205   2.820   2.778
 1457SOL    HW2 5858   0.232   2.893   2.722
 1457SOL    HW3 5859   0.135   2.777   2.730
 1457SOL    MW4 5860   0.199   2.824   2.764
 1458SOL     OW 5861   0.265   3.078   2.634
 1458SOL    HW2 5862   0.342   3.128   2.664
 1458SOL    HW3 5863   0.269   3.083   2.539
 1458SOL    MW4 5864   0.276   3.085   2.626
 1459SOL     OW 5865   0.037   3.195   2.763
 1459SOL    HW2 5866  -0.041   3.146   2.736
 1459SOL    HW3 5867   0.111   3.148   2.723
 1459SOL    MW4 5868   0.037   3.182   2.754
 1460SOL     OW 5869   4.464   3.447   2.642
 1460SOL    HW2 5870   4.529   3.503   2.684
 1460SOL    HW3 5871   4.483   3.359   2.675
 1460SOL    MW4 5872   4.475   3.443   2.652
 1461SOL     OW 5873   0.177   3.602   2.753
 1461SOL    HW2 5874   0.183   3.623   2.846
 1461SOL    HW3 5875   0.247   3.538   2.738
 1461SOL    MW4 5876   0.187   3.596   2.763
 1462SOL     OW 5877   0.225   3.834   2.620
 1462SOL    HW2 5878   0.200   3.745   2.642
 1462SOL    HW3 5879   0.214   3.840   2.525
 1462SOL    MW4 5880   0.221   3.823   2.610
 1463SOL     OW 5881   4.474   3.962   2.750
 1463SOL    HW2 5882   4.471   4.055   2.727
 1463SOL    HW3 5883   4.546   3.927   2.698
 1463SOL    MW4 5884   4.483   3.970   2.740
 1464SOL     OW 5885   0.005   4.221   2.650
 1464SOL    HW2 5886  -0.061   4.282   2.685
 1464SOL    HW3 5887   0.089   4.256   2.682
 1464SOL    MW4 5888   0.007   4.234   2.659
 1465SOL     OW 5889   0.200   4.384   2.723
 1465SOL    HW2 5890   0.204   4.396   2.818
 1465SOL    HW3 5891   0.290   4.364   2.697
 1465SOL    MW4 5892   0.212   4.383   2.732
 1466SOL     OW 5893   0.693   4.641   2.618
 1466SOL    HW2 5894   0.768   4.681   2.662
 1466SOL    HW3 5895   0.618   4.691   2.651
 1466SOL    MW4 5896   0.693   4.653   2.628
 1467SOL     OW 5897   0.465   0.095   2.746
 1467SOL    HW2 5898   0.461   0.088   2.841
 1467SOL    HW3 5899   0.382   0.059   2.716
 1467SOL    MW4 5900   0.454   0.089   2.754
 1468SOL     OW 5901   0.423   0.366   2.669
 1468SOL    HW2 5902   0.496   0.415   2.709
 1468SOL    HW3 5903   0.435   0.276   2.700
 1468SOL    MW4 5904   0.434   0.361   2.679
 1469SOL     OW 5905   0.655   0.491   2.758
 1469SOL    HW2 5906   0.663   0.492   2.853
 1469SOL    HW3 5907   0.732   0.442   2.728
 1469SOL    MW4 5908   0.666   0.484   2.767
 1470SOL     OW 5909   0.635   0.747   2.655
 1470SOL    HW2 5910   0.715   0.783   2.692
 1470SOL    HW3 5911   0.629   0.659   2.692
 1470SOL    MW4 5912   0.645   0.740   2.664
 1471SOL     OW 5913   0.414   0.912   2.753
 1471SOL    HW2 5914   0.434   0.992   2.703
 1471SOL    HW3 5915   0.486   0.853   2.733
 1471SOL    MW4 5916   0.426   0.915   2.743
 1472SOL     OW 5917   0.447   1.157   2.616
 1472SOL    HW2 5918   0.522   1.201   2.657
 1472SOL    HW3 5919   0.467   1.158   2.523
 1472SOL    MW4 5920   0.460   1.163   2.609
 1473SOL     OW 5921   0.686   1.261   2.732
 1473SOL    HW2 5922   0.679   1.259   2.828
 1473SOL    HW3 5923   0.774   1.228   2.713
 1473SOL    MW4 5924   0.697   1.257   2.742
 1474SOL     OW 5925   0.708   1.528   2.655
 1474SOL    HW2 5926   0.623   1.564   2.678
 1474SOL    HW3 5927   0.706   1.439   2.689
 1474SOL    MW4 5928   0.697   1.521   2.662
 1475SOL     OW 5929   0.499   1.684   2.704
 1475SOL    HW2 5930   0.485   1.675   2.799
 1475SOL    HW3 5931   0.456   1.766   2.681
 1475SOL    MW4 5932   0.491   1.693   2.714
 1476SOL     OW 5933   0.411   1.927   2.631
 1476SOL    HW2 5934   0.473   1.987   2.673
 1476SOL    HW3 5935   0.428   1.937   2.537
 1476SOL    MW4 5936   0.422   1.936   2.624
 1477SOL     OW 5937   0.600   2.089   2.731
 1477SOL    HW2 5938   0.620   2.097   2.825
 1477SOL    HW3 5939   0.674   2.040   2.695
 1477SOL    MW4 5940   0.612   2.084   2.739
 1478SOL     OW 5941   0.639   2.324   2.617
 1478SOL    HW2 5942   0.720   2.364   2.647
 1478SOL    HW3 5943   0.637   2.238   2.660
 1478SOL    MW4 5944   0.649   2.318   2.627
 1479SOL     OW 5945   0.455   2.455   2.773
 1479SOL    HW2 5946   0.436   2.534   2.723
 1479SOL    HW3 5947   0.516   2.406   2.717
 1479SOL    MW4 5948   0.461   2.459   2.759
 1480SOL     OW 5949   0.404   2.686   2.632
 1480SOL    HW2 5950   0.478   2.736   2.667
 1480SOL    HW3 5951   0.328   2.720   2.678
 1480SOL    MW4 5952   0.404   2.697   2.643
 1481SOL     OW 5953   0.618   2.819   2.744
 1481SOL    HW2 5954   0.625   2.813   2.839
 1481SOL    HW3 5955   0.632   2.911   2.724
 1481SOL    MW4 5956   0.621   2.830   2.754
 1482SOL     OW 5957   0.683   3.064   2.644
 1482SOL    HW2 5958   0.761   3.107   2.677
 1482SOL    HW3 5959   0.681   3.087   2.551
 1482SOL    MW4 5960   0.693   3.072   2.636
 1483SOL     OW 5961   0.473   3.221   2.740
 1483SOL    HW2 5962   0.476   3.220   2.836
 1483SOL    HW3 5963   0.554   3.177   2.714
 1483SOL    MW4 5964   0.484   3.215   2.749
 1484SOL     OW 5965   0.427   3.481   2.693
 1484SOL    HW2 5966   0.435   3.391   2.726
 1484SOL    HW3 5967   0.442   3.474   2.599
 1484SOL    MW4 5968   0.430   3.468   2.685
 1485SOL     OW 5969   0.662   3.617   2.760
 1485SOL    HW2 5970   0.688   3.634   2.850
 1485SOL    HW3 5971   0.572   3.585   2.767
 1485SOL    MW4 5972   0.654   3.615   2.772
 1486SOL     OW 5973   0.652   3.906   2.672
 1486SOL    HW2 5974   0.569   3.936   2.709
 1486SOL    HW3 5975   0.666   3.819   2.711
 1486SOL    MW4 5976   0.643   3.899   2.682
 1487SOL     OW 5977   0.410   4.014   2.744
 1487SOL    HW2 5978   0.401   4.099   2.702
 1487SOL    HW3 5979   0.335   3.963   2.712
 1487SOL    MW4 5980   0.399   4.018   2.734
 1488SOL     OW 5981   0.452   4.304   2.643
 1488SOL    HW2 5982   0.540   4.316   2.680
 1488SOL    HW3 5983   0.467   4.291   2.549
 1488SOL    MW4 5984   0.466   4.304   2.636
 1489SOL     OW 5985   0.687   4.414   2.763
 1489SOL    HW2 5986   0.762   4.370   2.724
 1489SOL    HW3 5987   0.683   4.499   2.719
 1489SOL    MW4 5988   0.696   4.420   2.752
 1490SOL     OW 5989   1.130   4.615   2.624
 1490SOL    HW2 5990   1.205   4.665   2.656
 1490SOL    HW3 5991   1.142   4.528   2.663
 1490SOL    MW4 5992   1.142   4.610   2.633
 1491SOL     OW 5993   0.911   0.098   2.725
 1491SOL    HW2 5994   0.912   0.082   2.819
 1491SOL    HW3 5995   0.986   0.049   2.692
 1491SOL    MW4 5996   0.921   0.089   2.733
 1492SOL     OW 5997   0.888   0.363   2.685
 1492SOL    HW2 5998   0.907   0.269   2.687
 1492SOL    HW3 5999   0.881   0.385   2.592
 1492SOL    MW4 6000   0.890   0.354   2.673
 1493SOL     OW 6001   1.111   0.496   2.769
 1493SOL    HW2 6002   1.101   0.581   2.727
 1493SOL    HW3 6003   1.026   0.453   2.757
 1493SOL    MW4 6004   1.098   0.501   2.762
 1494SOL     OW 6005   1.081   0.739   2.657
 1494SOL    HW2 6006   1.147   0.798   2.695
 1494SOL    HW3 6007   1.090   0.751   2.563
 1494SOL    MW4 6008   1.091   0.748   2.650
 1495SOL     OW 6009   0.856   0.873   2.751
 1495SOL    HW2 6010   0.868   0.876   2.846
 1495SOL    HW3 6011   0.931   0.824   2.718
 1495SOL    MW4 6012   0.867   0.867   2.759
 1496SOL     OW 6013   0.923   1.139   2.650
 1496SOL    HW2 6014   0.885   1.053   2.668
 1496SOL    HW3 6015   0.917   1.148   2.555
 1496SOL    MW4 6016   0.917   1.129   2.640
 1497SOL     OW 6017   1.145   1.266   2.750
 1497SOL    HW2 6018   1.111   1.356   2.754
 1497SOL    HW3 6019   1.071   1.214   2.720
 1497SOL    MW4 6020   1.131   1.271   2.747
 1498SOL     OW 6021   1.066   1.530   2.685
 1498SOL    HW2 6022   1.003   1.598   2.710
 1498SOL    HW3 6023   1.078   1.542   2.591
 1498SOL    MW4 6024   1.059   1.540   2.676
 1499SOL     OW 6025   0.892   1.745   2.728
 1499SOL    HW2 6026   0.876   1.743   2.822
 1499SOL    HW3 6027   0.841   1.672   2.693
 1499SOL    MW4 6028   0.883   1.735   2.736
 1500SOL     OW 6029   0.837   1.994   2.620
 1500SOL    HW2 6030   0.910   2.048   2.652
 1500SOL    HW3 6031   0.847   1.910   2.664
 1500SOL    MW4 6032   0.848   1.990   2.630
 1501SOL     OW 6033   1.074   2.103   2.735
 1501SOL    HW2 6034   1.145   2.046   2.705
 1501SOL    HW3 6035   1.102   2.191   2.708
 1501SOL    MW4 6036   1.087   2.107   2.727
 1502SOL     OW 6037   1.114   2.357   2.642
 1502SOL    HW2 6038   1.202   2.389   2.662
 1502SOL    HW3 6039   1.108   2.363   2.547
 1502SOL    MW4 6040   1.124   2.362   2.632
 1503SOL     OW 6041   0.874   2.440   2.741
 1503SOL    HW2 6042   0.865   2.530   2.708
 1503SOL    HW3 6043   0.964   2.415   2.718
 1503SOL    MW4 6044   0.885   2.449   2.734
 1504SOL     OW 6045   0.846   2.715   2.628
 1504SOL    HW2 6046   0.922   2.761   2.664
 1504SOL    HW3 6047   0.771   2.759   2.667
 1504SOL    MW4 6048   0.846   2.727   2.638
 1505SOL     OW 6049   1.083   2.832   2.734
 1505SOL    HW2 6050   1.106   2.825   2.827
 1505SOL    HW3 6051   1.159   2.795   2.688
 1505SOL    MW4 6052   1.096   2.826   2.740
 1506SOL     OW 6053   1.148   3.096   2.653
 1506SOL    HW2 6054   1.122   3.007   2.676
 1506SOL    HW3 6055   1.136   3.101   2.558
 1506SOL    MW4 6056   1.143   3.085   2.644
 1507SOL     OW 6057   0.919   3.208   2.728
 1507SOL    HW2 6058   0.903   3.286   2.675
 1507SOL    HW3 6059   1.006   3.179   2.700
 1507SOL    MW4 6060   0.928   3.215   2.717
 1508SOL     OW 6061   0.887   3.462   2.611
 1508SOL    HW2 6062   0.961   3.508   2.653
 1508SOL    HW3 6063   0.810   3.512   2.639
 1508SOL    MW4 6064   0.887   3.475   2.620
 1509SOL     OW 6065   1.102   3.599   2.716
 1509SOL    HW2 6066   1.101   3.626   2.807
 1509SOL    HW3 6067   1.100   3.681   2.667
 1509SOL    MW4 6068   1.102   3.613   2.721
 1510SOL     OW 6069   1.098   3.851   2.582
 1510SOL    HW2 6070   1.178   3.889   2.620
 1510SOL    HW3 6071   1.110   3.859   2.487
 1510SOL    MW4 6072   1.110   3.857   2.574
 1511SOL     OW 6073   0.893   4.008   2.725
 1511SOL    HW2 6074   0.958   3.963   2.670
 1511SOL    HW3 6075   0.809   3.970   2.699
 1511SOL    MW4 6076   0.890   3.997   2.715
 1512SOL     OW 6077   0.888   4.266   2.620
 1512SOL    HW2 6078   0.892   4.174   2.645
 1512SOL    HW3 6079   0.884   4.265   2.524
 1512SOL    MW4 6080   0.888   4.254   2.611
 1513SOL     OW 6081   1.144   4.351   2.736
 1513SOL    HW2 6082   1.137   4.378   2.828
 1513SOL    HW3 6083   1.055   4.327   2.711
 1513SOL    MW4 6084   1.131   4.351   2.745
 1514SOL     OW 6085   1.552   0.008   2.625
 1514SOL    HW2 6086   1.564  -0.075   2.671
 1514SOL    HW3 6087   1.558  -0.015   2.532
 1514SOL    MW4 6088   1.555  -0.006   2.619
 1515SOL     OW 6089   1.319   0.129   2.738
 1515SOL    HW2 6090   1.311   0.215   2.698
 1515SOL    HW3 6091   1.400   0.094   2.703
 1515SOL    MW4 6092   1.328   0.136   2.728
 1516SOL     OW 6093   1.335   0.377   2.630
 1516SOL    HW2 6094   1.411   0.421   2.666
 1516SOL    HW3 6095   1.260   0.422   2.669
 1516SOL    MW4 6096   1.335   0.389   2.640
 1517SOL     OW 6097   1.552   0.521   2.721
 1517SOL    HW2 6098   1.637   0.480   2.708
 1517SOL    HW3 6099   1.569   0.615   2.712
 1517SOL    MW4 6100   1.565   0.528   2.718
 1518SOL     OW 6101   1.547   0.785   2.658
 1518SOL    HW2 6102   1.463   0.827   2.675
 1518SOL    HW3 6103   1.537   0.743   2.573
 1518SOL    MW4 6104   1.535   0.785   2.649
 1519SOL     OW 6105   1.299   0.916   2.732
 1519SOL    HW2 6106   1.297   0.932   2.827
 1519SOL    HW3 6107   1.318   1.002   2.694
 1519SOL    MW4 6108   1.302   0.929   2.740
 1520SOL     OW 6109   1.360   1.168   2.617
 1520SOL    HW2 6110   1.428   1.203   2.674
 1520SOL    HW3 6111   1.278   1.197   2.657
 1520SOL    MW4 6112   1.358   1.176   2.630
 1521SOL     OW 6113   1.600   1.314   2.770
 1521SOL    HW2 6114   1.612   1.291   2.862
 1521SOL    HW3 6115   1.657   1.254   2.722
 1521SOL    MW4 6116   1.609   1.303   2.776
 1522SOL     OW 6117   1.553   1.551   2.624
 1522SOL    HW2 6118   1.577   1.476   2.679
 1522SOL    HW3 6119   1.539   1.513   2.537
 1522SOL    MW4 6120   1.554   1.536   2.620
 1523SOL     OW 6121   1.302   1.675   2.720
 1523SOL    HW2 6122   1.364   1.617   2.675
 1523SOL    HW3 6123   1.218   1.630   2.711
 1523SOL    MW4 6124   1.299   1.661   2.713
 1524SOL     OW 6125   1.319   1.971   2.677
 1524SOL    HW2 6126   1.318   1.878   2.699
 1524SOL    HW3 6127   1.310   1.972   2.581
 1524SOL    MW4 6128   1.318   1.959   2.667
 1525SOL     OW 6129   1.572   2.055   2.765
 1525SOL    HW2 6130   1.645   2.004   2.729
 1525SOL    HW3 6131   1.495   2.024   2.717
 1525SOL    MW4 6132   1.571   2.044   2.754
 1526SOL     OW 6133   1.561   2.329   2.662
 1526SOL    HW2 6134   1.650   2.358   2.683
 1526SOL    HW3 6135   1.557   2.239   2.694
 1526SOL    MW4 6136   1.572   2.321   2.669
 1527SOL     OW 6137   1.346   2.465   2.740
 1527SOL    HW2 6138   1.338   2.544   2.686
 1527SOL    HW3 6139   1.429   2.426   2.713
 1527SOL    MW4 6140   1.356   2.471   2.729
 1528SOL     OW 6141   1.313   2.711   2.614
 1528SOL    HW2 6142   1.400   2.744   2.637
 1528SOL    HW3 6143   1.308   2.720   2.519
 1528SOL    MW4 6144   1.324   2.716   2.605
 1529SOL     OW 6145   1.564   2.799   2.706
 1529SOL    HW2 6146   1.560   2.802   2.802
 1529SOL    HW3 6147   1.652   2.766   2.687
 1529SOL    MW4 6148   1.575   2.795   2.716
 1530SOL     OW 6149   1.574   3.077   2.598
 1530SOL    HW2 6150   1.654   3.122   2.625
 1530SOL    HW3 6151   1.578   2.992   2.642
 1530SOL    MW4 6152   1.585   3.072   2.607
 1531SOL     OW 6153   1.390   3.233   2.738
 1531SOL    HW2 6154   1.447   3.176   2.686
 1531SOL    HW3 6155   1.307   3.186   2.742
 1531SOL    MW4 6156   1.387   3.219   2.731
 1532SOL     OW 6157   1.355   3.503   2.638
 1532SOL    HW2 6158   1.344   3.411   2.660
 1532SOL    HW3 6159   1.278   3.546   2.677
 1532SOL    MW4 6160   1.343   3.497   2.646
 1533SOL     OW 6161   1.577   3.625   2.762
 1533SOL    HW2 6162   1.653   3.575   2.733
 1533SOL    HW3 6163   1.505   3.590   2.709
 1533SOL    MW4 6164   1.577   3.614   2.751
 1534SOL     OW 6165   1.588   3.873   2.668
 1534SOL    HW2 6166   1.500   3.905   2.686
 1534SOL    HW3 6167   1.585   3.780   2.693
 1534SOL    MW4 6168   1.576   3.865   2.674
 1535SOL     OW 6169   1.323   3.974   2.680
 1535SOL    HW2 6170   1.319   3.978   2.776
 1535SOL    HW3 6171   1.350   4.062   2.653
 1535SOL    MW4 6172   1.326   3.986   2.689
 1536SOL     OW 6173   1.383   4.239   2.640
 1536SOL    HW2 6174   1.299   4.268   2.675
 1536SOL    HW3 6175   1.380   4.260   2.547
 1536SOL    MW4 6176   1.372   4.245   2.632
 1537SOL     OW 6177   1.601   4.418   2.719
 1537SOL    HW2 6178   1.613   4.409   2.814
 1537SOL    HW3 6179   1.527   4.361   2.699
 1537SOL    MW4 6180   1.593   4.409   2.729
 1538SOL     OW 6181   2.013   0.017   2.643
 1538SOL    HW2 6182   2.094   0.057   2.675
 1538SOL    HW3 6183   2.028   0.005   2.549
 1538SOL    MW4 6184   2.026   0.020   2.635
 1539SOL     OW 6185   1.777   0.137   2.757
 1539SOL    HW2 6186   1.855   0.097   2.719
 1539SOL    HW3 6187   1.703   0.095   2.712
 1539SOL    MW4 6188   1.777   0.126   2.746
 1540SOL     OW 6189   1.784   0.395   2.676
 1540SOL    HW2 6190   1.867   0.443   2.682
 1540SOL    HW3 6191   1.803   0.309   2.712
 1540SOL    MW4 6192   1.798   0.390   2.681
 1541SOL     OW 6193   2.041   0.523   2.730
 1541SOL    HW2 6194   2.106   0.481   2.673
 1541SOL    HW3 6195   2.043   0.615   2.705
 1541SOL    MW4 6196   2.050   0.529   2.719
 1542SOL     OW 6197   2.042   0.785   2.669
 1542SOL    HW2 6198   1.956   0.818   2.695
 1542SOL    HW3 6199   2.033   0.765   2.576
 1542SOL    MW4 6200   2.029   0.787   2.661
 1543SOL     OW 6201   1.786   0.913   2.741
 1543SOL    HW2 6202   1.785   0.993   2.688
 1543SOL    HW3 6203   1.703   0.870   2.721
 1543SOL    MW4 6204   1.775   0.918   2.732
 1544SOL     OW 6205   1.786   1.162   2.613
 1544SOL    HW2 6206   1.865   1.197   2.653
 1544SOL    HW3 6207   1.807   1.158   2.519
 1544SOL    MW4 6208   1.799   1.166   2.606
 1545SOL     OW 6209   2.043   1.241   2.727
 1545SOL    HW2 6210   2.041   1.218   2.820
 1545SOL    HW3 6211   2.114   1.189   2.691
 1545SOL    MW4 6212   2.052   1.231   2.735
 1546SOL     OW 6213   2.040   1.528   2.656
 1546SOL    HW2 6214   1.955   1.570   2.671
 1546SOL    HW3 6215   2.023   1.435   2.670
 1546SOL    MW4 6216   2.027   1.521   2.660
 1547SOL     OW 6217   1.808   1.674   2.685
 1547SOL    HW2 6218   1.798   1.659   2.779
 1547SOL    HW3 6219   1.722   1.656   2.648
 1547SOL    MW4 6220   1.796   1.670   2.693
 1548SOL     OW 6221   1.784   1.946   2.644
 1548SOL    HW2 6222   1.864   1.986   2.679
 1548SOL    HW3 6223   1.797   1.852   2.655
 1548SOL    MW4 6224   1.796   1.939   2.650
 1549SOL     OW 6225   2.018   2.064   2.754
 1549SOL    HW2 6226   2.023   2.065   2.849
 1549SOL    HW3 6227   2.014   2.156   2.728
 1549SOL    MW4 6228   2.018   2.076   2.763
 1550SOL     OW 6229   2.029   2.321   2.623
 1550SOL    HW2 6230   2.098   2.383   2.647
 1550SOL    HW3 6231   2.027   2.323   2.528
 1550SOL    MW4 6232   2.038   2.329   2.614
 1551SOL     OW 6233   1.810   2.436   2.730
 1551SOL    HW2 6234   1.819   2.431   2.825
 1551SOL    HW3 6235   1.887   2.391   2.696
 1551SOL    MW4 6236   1.821   2.429   2.738
 1552SOL     OW 6237   1.803   2.692   2.631
 1552SOL    HW2 6238   1.790   2.605   2.668
 1552SOL    HW3 6239   1.818   2.677   2.538
 1552SOL    MW4 6240   1.803   2.679   2.624
 1553SOL     OW 6241   2.009   2.850   2.697
 1553SOL    HW2 6242   2.080   2.799   2.658
 1553SOL    HW3 6243   1.932   2.794   2.689
 1553SOL    MW4 6244   2.008   2.836   2.691
 1554SOL     OW 6245   2.019   3.124   2.657
 1554SOL    HW2 6246   2.000   3.034   2.686
 1554SOL    HW3 6247   2.015   3.119   2.562
 1554SOL    MW4 6248   2.016   3.111   2.648
 1555SOL     OW 6249   1.770   3.204   2.717
 1555SOL    HW2 6250   1.761   3.299   2.707
 1555SOL    HW3 6251   1.863   3.187   2.703
 1555SOL    MW4 6252   1.781   3.214   2.714
 1556SOL     OW 6253   1.789   3.494   2.625
 1556SOL    HW2 6254   1.872   3.529   2.657
 1556SOL    HW3 6255   1.795   3.500   2.530
 1556SOL    MW4 6256   1.801   3.499   2.617
 1557SOL     OW 6257   2.024   3.584   2.722
 1557SOL    HW2 6258   2.033   3.587   2.817
 1557SOL    HW3 6259   2.106   3.544   2.691
 1557SOL    MW4 6260   2.036   3.579   2.730
 1558SOL     OW 6261   2.059   3.857   2.647
 1558SOL    HW2 6262   1.979   3.901   2.676
 1558SOL    HW3 6263   2.045   3.765   2.668
 1558SOL    MW4 6264   2.046   3.851   2.653
 1559SOL     OW 6265   1.839   3.964   2.762
 1559SOL    HW2 6266   1.826   4.056   2.739
 1559SOL    HW3 6267   1.757   3.921   2.737
 1559SOL    MW4 6268   1.826   3.970   2.756
 1560SOL     OW 6269   1.826   4.230   2.682
 1560SOL    HW2 6270   1.738   4.265   2.697
 1560SOL    HW3 6271   1.839   4.238   2.587
 1560SOL    MW4 6272   1.816   4.235   2.671
 1561SOL     OW 6273   2.068   4.418   2.729
 1561SOL    HW2 6274   1.990   4.367   2.708
 1561SOL    HW3 6275   2.043   4.509   2.709
 1561SOL    MW4 6276   2.054   4.424   2.724
 1562SOL     OW 6277   2.462   4.626   2.634
 1562SOL    HW2 6278   2.538   4.668   2.674
 1562SOL    HW3 6279   2.480   4.631   2.539
 1562SOL    MW4 6280   2.475   4.632   2.626
 1563SOL     OW 6281   2.277   0.141   2.735
 1563SOL    HW2 6282   2.276   0.113   2.827
 1563SOL    HW3 6283   2.340   0.083   2.693
 1563SOL    MW4 6284   2.285   0.130   2.742
 1564SOL     OW 6285   2.251   0.385   2.612
 1564SOL    HW2 6286   2.268   0.299   2.651
 1564SOL    HW3 6287   2.231   0.366   2.520
 1564SOL    MW4 6288   2.251   0.371   2.605
 1565SOL     OW 6289   2.491   0.482   2.740
 1565SOL    HW2 6290   2.489   0.576   2.720
 1565SOL    HW3 6291   2.419   0.446   2.688
 1565SOL    MW4 6292   2.481   0.490   2.730
 1566SOL     OW 6293   2.504   0.736   2.643
 1566SOL    HW2 6294   2.435   0.796   2.673
 1566SOL    HW3 6295   2.484   0.723   2.550
 1566SOL    MW4 6296   2.492   0.742   2.635
 1567SOL     OW 6297   2.278   0.898   2.745
 1567SOL    HW2 6298   2.285   0.882   2.839
 1567SOL    HW3 6299   2.192   0.863   2.722
 1567SOL    MW4 6300   2.267   0.891   2.755
 1568SOL     OW 6301   2.295   1.161   2.636
 1568SOL    HW2 6302   2.280   1.071   2.665
 1568SOL    HW3 6303   2.302   1.155   2.541
 1568SOL    MW4 6304   2.294   1.148   2.627
 1569SOL     OW 6305   2.514   1.302   2.728
 1569SOL    HW2 6306   2.589   1.256   2.691
 1569SOL    HW3 6307   2.438   1.251   2.701
 1569SOL    MW4 6308   2.514   1.289   2.720
 1570SOL     OW 6309   2.463   1.568   2.639
 1570SOL    HW2 6310   2.383   1.602   2.678
 1570SOL    HW3 6311   2.469   1.479   2.673
 1570SOL    MW4 6312   2.453   1.561   2.649
 1571SOL     OW 6313   2.254   1.689   2.761
 1571SOL    HW2 6314   2.232   1.781   2.746
 1571SOL    HW3 6315   2.171   1.643   2.754
 1571SOL    MW4 6316   2.240   1.696   2.758
 1572SOL     OW 6317   2.251   1.939   2.662
 1572SOL    HW2 6318   2.173   1.987   2.689
 1572SOL    HW3 6319   2.236   1.916   2.570
 1572SOL    MW4 6320   2.239   1.942   2.653
 1573SOL     OW 6321   2.488   2.048   2.751
 1573SOL    HW2 6322   2.496   2.121   2.690
 1573SOL    HW3 6323   2.403   2.009   2.730
 1573SOL    MW4 6324   2.478   2.053   2.740
 1574SOL     OW 6325   2.512   2.285   2.596
 1574SOL    HW2 6326   2.573   2.356   2.613
 1574SOL    HW3 6327   2.488   2.295   2.504
 1574SOL    MW4 6328   2.517   2.295   2.586
 1575SOL     OW 6329   2.269   2.437   2.689
 1575SOL    HW2 6330   2.287   2.452   2.781
 1575SOL    HW3 6331   2.347   2.394   2.655
 1575SOL    MW4 6332   2.281   2.433   2.696
 1576SOL     OW 6333   2.246   2.702   2.586
 1576SOL    HW2 6334   2.303   2.766   2.629
 1576SOL    HW3 6335   2.266   2.619   2.629
 1576SOL    MW4 6336   2.256   2.700   2.597
 1577SOL     OW 6337   2.432   2.841   2.749
 1577SOL    HW2 6338   2.501   2.798   2.697
 1577SOL    HW3 6339   2.433   2.932   2.719
 1577SOL    MW4 6340   2.441   2.847   2.738
 1578SOL     OW 6341   2.483   3.096   2.622
 1578SOL    HW2 6342   2.412   3.157   2.639
 1578SOL    HW3 6343   2.481   3.082   2.527
 1578SOL    MW4 6344   2.474   3.102   2.612
 1579SOL     OW 6345   2.258   3.225   2.742
 1579SOL    HW2 6346   2.273   3.207   2.834
 1579SOL    HW3 6347   2.171   3.188   2.725
 1579SOL    MW4 6348   2.248   3.218   2.752
 1580SOL     OW 6349   2.236   3.467   2.600
 1580SOL    HW2 6350   2.308   3.521   2.633
 1580SOL    HW3 6351   2.244   3.385   2.648
 1580SOL    MW4 6352   2.247   3.464   2.611
 1581SOL     OW 6353   2.433   3.613   2.712
 1581SOL    HW2 6354   2.423   3.617   2.807
 1581SOL    HW3 6355   2.438   3.705   2.685
 1581SOL    MW4 6356   2.433   3.626   2.721
 1582SOL     OW 6357   2.466   3.877   2.611
 1582SOL    HW2 6358   2.544   3.926   2.634
 1582SOL    HW3 6359   2.394   3.924   2.652
 1582SOL    MW4 6360   2.467   3.889   2.619
 1583SOL     OW 6361   2.273   4.014   2.742
 1583SOL    HW2 6362   2.270   3.981   2.832
 1583SOL    HW3 6363   2.208   3.961   2.695
 1583SOL    MW4 6364   2.264   4.002   2.747
 1584SOL     OW 6365   2.257   4.245   2.610
 1584SOL    HW2 6366   2.263   4.171   2.670
 1584SOL    HW3 6367   2.199   4.308   2.653
 1584SOL    MW4 6368   2.250   4.244   2.624
 1585SOL     OW 6369   2.489   4.345   2.751
 1585SOL    HW2 6370   2.419   4.301   2.703
 1585SOL    HW3 6371   2.488   4.435   2.717
 1585SOL    MW4 6372   2.480   4.351   2.740
 1586SOL     OW 6373   2.885   4.601   2.674
 1586SOL    HW2 6374   2.961   4.656   2.691
 1586SOL    HW3 6375   2.886   4.586   2.580
 1586SOL    MW4 6376   2.895   4.607   2.664
 1587SOL     OW 6377   2.668   0.091   2.752
 1587SOL    HW2 6378   2.663   0.091   2.847
 1587SOL    HW3 6379   2.751   0.047   2.732
 1587SOL    MW4 6380   2.679   0.085   2.762
 1588SOL     OW 6381   2.693   0.324   2.599
 1588SOL    HW2 6382   2.684   0.241   2.647
 1588SOL    HW3 6383   2.631   0.383   2.641
 1588SOL    MW4 6384   2.684   0.321   2.611
 1589SOL     OW 6385   2.890   0.453   2.767
 1589SOL    HW2 6386   2.884   0.543   2.735
 1589SOL    HW3 6387   2.834   0.403   2.708
 1589SOL    MW4 6388   2.882   0.458   2.755
 1590SOL     OW 6389   2.898   0.701   2.647
 1590SOL    HW2 6390   2.979   0.735   2.684
 1590SOL    HW3 6391   2.832   0.767   2.670
 1590SOL    MW4 6392   2.900   0.714   2.655
 1591SOL     OW 6393   2.723   0.898   2.734
 1591SOL    HW2 6394   2.724   0.912   2.829
 1591SOL    HW3 6395   2.646   0.843   2.718
 1591SOL    MW4 6396   2.713   0.893   2.744
 1592SOL     OW 6397   2.724   1.167   2.623
 1592SOL    HW2 6398   2.791   1.219   2.666
 1592SOL    HW3 6399   2.743   1.077   2.648
 1592SOL    MW4 6400   2.735   1.162   2.632
 1593SOL     OW 6401   2.961   1.285   2.733
 1593SOL    HW2 6402   2.954   1.269   2.828
 1593SOL    HW3 6403   3.022   1.218   2.703
 1593SOL    MW4 6404   2.968   1.274   2.742
 1594SOL     OW 6405   2.932   1.521   2.581
 1594SOL    HW2 6406   2.859   1.562   2.628
 1594SOL    HW3 6407   2.939   1.434   2.619
 1594SOL    MW4 6408   2.923   1.515   2.592
 1595SOL     OW 6409   2.726   1.639   2.733
 1595SOL    HW2 6410   2.726   1.648   2.828
 1595SOL    HW3 6411   2.633   1.632   2.710
 1595SOL    MW4 6412   2.713   1.640   2.742
 1596SOL     OW 6413   2.704   1.908   2.657
 1596SOL    HW2 6414   2.711   1.822   2.699
 1596SOL    HW3 6415   2.634   1.952   2.705
 1596SOL    MW4 6416   2.696   1.902   2.669
 1597SOL     OW 6417   2.931   2.058   2.747
 1597SOL    HW2 6418   2.921   2.142   2.703
 1597SOL    HW3 6419   2.867   2.001   2.705
 1597SOL    MW4 6420   2.921   2.062   2.736
 1598SOL     OW 6421   2.919   2.314   2.626
 1598SOL    HW2 6422   2.993   2.365   2.660
 1598SOL    HW3 6423   2.843   2.353   2.668
 1598SOL    MW4 6424   2.919   2.326   2.636
 1599SOL     OW 6425   2.700   2.459   2.735
 1599SOL    HW2 6426   2.717   2.447   2.828
 1599SOL    HW3 6427   2.686   2.554   2.725
 1599SOL    MW4 6428   2.700   2.470   2.746
 1600SOL     OW 6429   2.640   2.714   2.635
 1600SOL    HW2 6430   2.731   2.732   2.658
 1600SOL    HW3 6431   2.643   2.694   2.541
 1600SOL    MW4 6432   2.653   2.714   2.625
 1601SOL     OW 6433   2.886   2.804   2.700
 1601SOL    HW2 6434   2.902   2.811   2.794
 1601SOL    HW3 6435   2.908   2.891   2.666
 1601SOL    MW4 6436   2.891   2.817   2.708
 1602SOL     OW 6437   2.952   3.063   2.632
 1602SOL    HW2 6438   2.882   3.115   2.671
 1602SOL    HW3 6439   2.936   3.069   2.537
 1602SOL    MW4 6440   2.941   3.071   2.624
 1603SOL     OW 6441   2.723   3.205   2.710
 1603SOL    HW2 6442   2.714   3.296   2.682
 1603SOL    HW3 6443   2.645   3.162   2.677
 1603SOL    MW4 6444   2.711   3.211   2.702
 1604SOL     OW 6445   2.687   3.474   2.630
 1604SOL    HW2 6446   2.602   3.507   2.659
 1604SOL    HW3 6447   2.677   3.463   2.535
 1604SOL    MW4 6448   2.674   3.477   2.621
 1605SOL     OW 6449   2.924   3.570   2.738
 1605SOL    HW2 6450   2.912   3.568   2.833
 1605SOL    HW3 6451   2.845   3.529   2.703
 1605SOL    MW4 6452   2.912   3.565   2.746
 1606SOL     OW 6453   2.924   3.841   2.624
 1606SOL    HW2 6454   3.013   3.867   2.649
 1606SOL    HW3 6455   2.917   3.751   2.656
 1606SOL    MW4 6456   2.935   3.833   2.632
 1607SOL     OW 6457   2.707   3.977   2.743
 1607SOL    HW2 6458   2.715   4.066   2.709
 1607SOL    HW3 6459   2.784   3.931   2.710
 1607SOL    MW4 6460   2.718   3.982   2.734
 1608SOL     OW 6461   2.737   4.237   2.644
 1608SOL    HW2 6462   2.807   4.285   2.689
 1608SOL    HW3 6463   2.657   4.286   2.665
 1608SOL    MW4 6464   2.735   4.250   2.652
 1609SOL     OW 6465   2.981   4.349   2.775
 1609SOL    HW2 6466   2.958   4.345   2.868
 1609SOL    HW3 6467   2.970   4.441   2.752
 1609SOL    MW4 6468   2.977   4.361   2.784
 1610SOL     OW 6469   3.331   4.627   2.599
 1610SOL    HW2 6470   3.337   4.535   2.625
 1610SOL    HW3 6471   3.256   4.662   2.647
 1610SOL    MW4 6472   3.322   4.620   2.609
 1611SOL     OW 6473   3.117   0.084   2.740
 1611SOL    HW2 6474   3.116   0.078   2.836
 1611SOL    HW3 6475   3.139   0.175   2.722
 1611SOL    MW4 6476   3.120   0.095   2.750
 1612SOL     OW 6477   3.142   0.375   2.718
 1612SOL    HW2 6478   3.053   0.407   2.733
 1612SOL    HW3 6479   3.156   0.387   2.624
 1612SOL    MW4 6480   3.132   0.381   2.707
 1613SOL     OW 6481   3.366   0.506   2.766
 1613SOL    HW2 6482   3.361   0.590   2.720
 1613SOL    HW3 6483   3.280   0.466   2.752
 1613SOL    MW4 6484   3.354   0.512   2.758
 1614SOL     OW 6485   3.365   0.753   2.632
 1614SOL    HW2 6486   3.445   0.785   2.674
 1614SOL    HW3 6487   3.369   0.789   2.544
 1614SOL    MW4 6488   3.376   0.762   2.626
 1615SOL     OW 6489   3.126   0.824   2.752
 1615SOL    HW2 6490   3.137   0.837   2.846
 1615SOL    HW3 6491   3.215   0.806   2.720
 1615SOL    MW4 6492   3.139   0.823   2.760
 1616SOL     OW 6493   3.143   1.089   2.644
 1616SOL    HW2 6494   3.144   1.004   2.688
 1616SOL    HW3 6495   3.162   1.069   2.552
 1616SOL    MW4 6496   3.145   1.075   2.638
 1617SOL     OW 6497   3.352   1.259   2.709
 1617SOL    HW2 6498   3.360   1.257   2.804
 1617SOL    HW3 6499   3.285   1.194   2.689
 1617SOL    MW4 6500   3.344   1.250   2.719
 1618SOL     OW 6501   3.349   1.522   2.619
 1618SOL    HW2 6502   3.277   1.573   2.658
 1618SOL    HW3 6503   3.334   1.433   2.651
 1618SOL    MW4 6504   3.337   1.517   2.629
 1619SOL     OW 6505   3.143   1.654   2.732
 1619SOL    HW2 6506   3.111   1.729   2.682
 1619SOL    HW3 6507   3.076   1.586   2.720
 1619SOL    MW4 6508   3.130   1.655   2.724
 1620SOL     OW 6509   3.131   1.907   2.618
 1620SOL    HW2 6510   3.206   1.918   2.676
 1620SOL    HW3 6511   3.068   1.973   2.647
 1620SOL    MW4 6512   3.132   1.917   2.629
 1621SOL     OW 6513   3.355   2.021   2.746
 1621SOL    HW2 6514   3.363   2.025   2.841
 1621SOL    HW3 6515   3.362   2.113   2.718
 1621SOL    MW4 6516   3.357   2.034   2.754
 1622SOL     OW 6517   3.366   2.282   2.667
 1622SOL    HW2 6518   3.451   2.322   2.687
 1622SOL    HW3 6519   3.365   2.275   2.572
 1622SOL    MW4 6520   3.377   2.286   2.657
 1623SOL     OW 6521   3.152   2.430   2.743
 1623SOL    HW2 6522   3.152   2.517   2.704
 1623SOL    HW3 6523   3.231   2.388   2.709
 1623SOL    MW4 6524   3.162   2.436   2.734
 1624SOL     OW 6525   3.139   2.675   2.646
 1624SOL    HW2 6526   3.215   2.728   2.674
 1624SOL    HW3 6527   3.063   2.726   2.674
 1624SOL    MW4 6528   3.139   2.689   2.654
 1625SOL     OW 6529   3.349   2.839   2.731
 1625SOL    HW2 6530   3.364   2.855   2.824
 1625SOL    HW3 6531   3.422   2.783   2.704
 1625SOL    MW4 6532   3.360   2.834   2.740
 1626SOL     OW 6533   3.389   3.099   2.612
 1626SOL    HW2 6534   3.365   3.015   2.651
 1626SOL    HW3 6535   3.379   3.086   2.518
 1626SOL    MW4 6536   3.385   3.086   2.605
 1627SOL     OW 6537   3.158   3.209   2.731
 1627SOL    HW2 6538   3.238   3.175   2.690
 1627SOL    HW3 6539   3.088   3.154   2.695
 1627SOL    MW4 6540   3.160   3.197   2.721
 1628SOL     OW 6541   3.118   3.443   2.576
 1628SOL    HW2 6542   3.152   3.372   2.630
 1628SOL    HW3 6543   3.063   3.494   2.634
 1628SOL    MW4 6544   3.116   3.441   2.590
 1629SOL     OW 6545   3.384   3.552   2.658
 1629SOL    HW2 6546   3.366   3.558   2.752
 1629SOL    HW3 6547   3.304   3.516   2.620
 1629SOL    MW4 6548   3.371   3.548   2.665
 1630SOL     OW 6549   3.395   3.827   2.573
 1630SOL    HW2 6550   3.386   3.733   2.584
 1630SOL    HW3 6551   3.364   3.844   2.484
 1630SOL    MW4 6552   3.390   3.817   2.563
 1631SOL     OW 6553   3.160   3.931   2.726
 1631SOL    HW2 6554   3.153   4.018   2.686
 1631SOL    HW3 6555   3.241   3.895   2.691
 1631SOL    MW4 6556   3.170   3.938   2.717
 1632SOL     OW 6557   3.155   4.183   2.627
 1632SOL    HW2 6558   3.084   4.239   2.657
 1632SOL    HW3 6559   3.166   4.206   2.535
 1632SOL    MW4 6560   3.147   4.193   2.619
 1633SOL     OW 6561   3.358   4.375   2.702
 1633SOL    HW2 6562   3.357   4.394   2.796
 1633SOL    HW3 6563   3.287   4.312   2.689
 1633SOL    MW4 6564   3.349   4.369   2.713
 1634SOL     OW 6565   3.752   4.640   2.624
 1634SOL    HW2 6566   3.775   4.562   2.674
 1634SOL    HW3 6567   3.689   4.686   2.680
 1634SOL    MW4 6568   3.747   4.636   2.638
 1635SOL     OW 6569   3.540   0.083   2.756
 1635SOL    HW2 6570   3.549   0.171   2.722
 1635SOL    HW3 6571   3.467   0.046   2.707
 1635SOL    MW4 6572   3.531   0.090   2.745
 1636SOL     OW 6573   3.552   0.339   2.645
 1636SOL    HW2 6574   3.631   0.382   2.679
 1636SOL    HW3 6575   3.480   0.389   2.683
 1636SOL    MW4 6576   3.553   0.351   2.654
 1637SOL     OW 6577   3.808   0.479   2.723
 1637SOL    HW2 6578   3.798   0.483   2.819
 1637SOL    HW3 6579   3.901   0.461   2.710
 1637SOL    MW4 6580   3.819   0.477   2.734
 1638SOL     OW 6581   3.798   0.762   2.643
 1638SOL    HW2 6582   3.719   0.803   2.680
 1638SOL    HW3 6583   3.793   0.671   2.672
 1638SOL    MW4 6584   3.787   0.755   2.652
 1639SOL     OW 6585   3.578   0.864   2.771
 1639SOL    HW2 6586   3.583   0.861   2.867
 1639SOL    HW3 6587   3.554   0.954   2.751
 1639SOL    MW4 6588   3.576   0.876   2.781
 1640SOL     OW 6589   3.586   1.111   2.678
 1640SOL    HW2 6590   3.659   1.165   2.710
 1640SOL    HW3 6591   3.508   1.166   2.690
 1640SOL    MW4 6592   3.585   1.125   2.683
 1641SOL     OW 6593   3.816   1.272   2.714
 1641SOL    HW2 6594   3.897   1.226   2.694
 1641SOL    HW3 6595   3.836   1.364   2.699
 1641SOL    MW4 6596   3.829   1.278   2.710
 1642SOL     OW 6597   3.838   1.523   2.601
 1642SOL    HW2 6598   3.900   1.574   2.653
 1642SOL    HW3 6599   3.752   1.561   2.620
 1642SOL    MW4 6600   3.835   1.535   2.611
 1643SOL     OW 6601   3.583   1.597   2.720
 1643SOL    HW2 6602   3.581   1.692   2.707
 1643SOL    HW3 6603   3.500   1.567   2.683
 1643SOL    MW4 6604   3.571   1.605   2.713
 1644SOL     OW 6605   3.587   1.883   2.660
 1644SOL    HW2 6606   3.512   1.919   2.707
 1644SOL    HW3 6607   3.578   1.916   2.571
 1644SOL    MW4 6608   3.576   1.892   2.655
 1645SOL     OW 6609   3.817   1.996   2.748
 1645SOL    HW2 6610   3.889   1.939   2.720
 1645SOL    HW3 6611   3.738   1.952   2.716
 1645SOL    MW4 6612   3.816   1.982   2.740
 1646SOL     OW 6613   3.805   2.280   2.671
 1646SOL    HW2 6614   3.814   2.188   2.693
 1646SOL    HW3 6615   3.812   2.283   2.575
 1646SOL    MW4 6616   3.807   2.268   2.661
 1647SOL     OW 6617   3.587   2.445   2.735
 1647SOL    HW2 6618   3.581   2.445   2.831
 1647SOL    HW3 6619   3.671   2.403   2.716
 1647SOL    MW4 6620   3.597   2.440   2.745
 1648SOL     OW 6621   3.560   2.694   2.631
 1648SOL    HW2 6622   3.579   2.609   2.670
 1648SOL    HW3 6623   3.586   2.686   2.539
 1648SOL    MW4 6624   3.566   2.682   2.624
 1649SOL     OW 6625   3.794   2.832   2.733
 1649SOL    HW2 6626   3.867   2.779   2.701
 1649SOL    HW3 6627   3.716   2.786   2.703
 1649SOL    MW4 6628   3.794   2.819   2.725
 1650SOL     OW 6629   3.821   3.098   2.669
 1650SOL    HW2 6630   3.738   3.132   2.702
 1650SOL    HW3 6631   3.812   3.003   2.678
 1650SOL    MW4 6632   3.809   3.090   2.675
 1651SOL     OW 6633   3.586   3.234   2.756
 1651SOL    HW2 6634   3.605   3.306   2.696
 1651SOL    HW3 6635   3.503   3.199   2.725
 1651SOL    MW4 6636   3.577   3.239   2.744
 1652SOL     OW 6637   3.638   3.450   2.604
 1652SOL    HW2 6638   3.698   3.487   2.670
 1652SOL    HW3 6639   3.552   3.485   2.627
 1652SOL    MW4 6640   3.635   3.459   2.616
 1653SOL     OW 6641   3.762   3.598   2.795
 1653SOL    HW2 6642   3.846   3.559   2.771
 1653SOL    HW3 6643   3.762   3.684   2.752
 1653SOL    MW4 6644   3.773   3.604   2.786
 1654SOL     OW 6645   3.809   3.844   2.647
 1654SOL    HW2 6646   3.866   3.908   2.688
 1654SOL    HW3 6647   3.720   3.875   2.664
 1654SOL    MW4 6648   3.805   3.856   2.655
 1655SOL     OW 6649   3.587   3.990   2.732
 1655SOL    HW2 6650   3.573   4.078   2.697
 1655SOL    HW3 6651   3.518   3.937   2.692
 1655SOL    MW4 6652   3.576   3.995   2.722
 1656SOL     OW 6653   3.584   4.253   2.629
 1656SOL    HW2 6654   3.499   4.293   2.646
 1656SOL    HW3 6655   3.583   4.233   2.536
 1656SOL    MW4 6656   3.573   4.256   2.619
 1657SOL     OW 6657   3.802   4.399   2.754
 1657SOL    HW2 6658   3.884   4.356   2.732
 1657SOL    HW3 6659   3.734   4.343   2.715
 1657SOL    MW4 6660   3.804   4.386   2.746
 1658SOL     OW 6661   4.247   4.644   2.611
 1658SOL    HW2 6662   4.162   4.676   2.640
 1658SOL    HW3 6663   4.308   4.715   2.633
 1658SOL    MW4 6664   4.244   4.658   2.618
 1659SOL     OW 6665   4.006   0.097   2.713
 1659SOL    HW2 6666   3.997   0.076   2.805
 1659SOL    HW3 6667   3.924   0.068   2.673
 1659SOL    MW4 6668   3.994   0.090   2.720
 1660SOL     OW 6669   4.071   0.380   2.665
 1660SOL    HW2 6670   4.056   0.292   2.700
 1660SOL    HW3 6671   4.072   0.368   2.570
 1660SOL    MW4 6672   4.069   0.367   2.657
 1661SOL     OW 6673   4.264   0.530   2.791
 1661SOL    HW2 6674   4.206   0.481   2.733
 1661SOL    HW3 6675   4.352   0.501   2.767
 1661SOL    MW4 6676   4.268   0.520   2.780
 1662SOL     OW 6677   4.239   0.801   2.725
 1662SOL    HW2 6678   4.257   0.711   2.754
 1662SOL    HW3 6679   4.228   0.794   2.630
 1662SOL    MW4 6680   4.240   0.788   2.716
 1663SOL     OW 6681   3.972   0.895   2.786
 1663SOL    HW2 6682   4.057   0.855   2.766
 1663SOL    HW3 6683   3.909   0.843   2.737
 1663SOL    MW4 6684   3.975   0.883   2.777
 1664SOL     OW 6685   4.034   1.119   2.629
 1664SOL    HW2 6686   4.099   1.171   2.676
 1664SOL    HW3 6687   4.011   1.049   2.690
 1664SOL    MW4 6688   4.039   1.117   2.643
 1665SOL     OW 6689   4.237   1.253   2.763
 1665SOL    HW2 6690   4.270   1.335   2.727
 1665SOL    HW3 6691   4.293   1.186   2.724
 1665SOL    MW4 6692   4.249   1.255   2.753
 1666SOL     OW 6693   4.290   1.508   2.678
 1666SOL    HW2 6694   4.370   1.537   2.723
 1666SOL    HW3 6695   4.305   1.532   2.586
 1666SOL    MW4 6696   4.303   1.515   2.672
 1667SOL     OW 6697   4.052   1.652   2.740
 1667SOL    HW2 6698   4.065   1.655   2.835
 1667SOL    HW3 6699   4.118   1.590   2.709
 1667SOL    MW4 6700   4.063   1.644   2.748
 1668SOL     OW 6701   4.044   1.892   2.608
 1668SOL    HW2 6702   4.121   1.938   2.643
 1668SOL    HW3 6703   4.055   1.802   2.638
 1668SOL    MW4 6704   4.056   1.886   2.616
 1669SOL     OW 6705   4.275   2.043   2.713
 1669SOL    HW2 6706   4.286   2.138   2.704
 1669SOL    HW3 6707   4.359   2.006   2.686
 1669SOL    MW4 6708   4.287   2.051   2.708
 1670SOL     OW 6709   4.256   2.328   2.639
 1670SOL    HW2 6710   4.178   2.367   2.677
 1670SOL    HW3 6711   4.237   2.321   2.546
 1670SOL    MW4 6712   4.244   2.332   2.632
 1671SOL     OW 6713   4.032   2.444   2.768
 1671SOL    HW2 6714   4.027   2.450   2.864
 1671SOL    HW3 6715   3.968   2.378   2.745
 1671SOL    MW4 6716   4.023   2.436   2.778
 1672SOL     OW 6717   4.020   2.691   2.666
 1672SOL    HW2 6718   4.103   2.725   2.699
 1672SOL    HW3 6719   4.019   2.599   2.693
 1672SOL    MW4 6720   4.031   2.683   2.674
 1673SOL     OW 6721   4.281   2.787   2.736
 1673SOL    HW2 6722   4.268   2.786   2.831
 1673SOL    HW3 6723   4.280   2.880   2.713
 1673SOL    MW4 6724   4.279   2.800   2.746
 1674SOL     OW 6725   4.283   3.093   2.677
 1674SOL    HW2 6726   4.210   3.148   2.704
 1674SOL    HW3 6727   4.285   3.102   2.581
 1674SOL    MW4 6728   4.274   3.101   2.668
 1675SOL     OW 6729   4.052   3.228   2.732
 1675SOL    HW2 6730   4.030   3.318   2.708
 1675SOL    HW3 6731   3.968   3.181   2.727
 1675SOL    MW4 6732   4.038   3.233   2.728
 1676SOL     OW 6733   3.992   3.479   2.688
 1676SOL    HW2 6734   4.069   3.531   2.711
 1676SOL    HW3 6735   3.997   3.469   2.593
 1676SOL    MW4 6736   4.003   3.485   2.679
 1677SOL     OW 6737   4.242   3.599   2.728
 1677SOL    HW2 6738   4.272   3.589   2.819
 1677SOL    HW3 6739   4.311   3.556   2.676
 1677SOL    MW4 6740   4.255   3.592   2.733
 1678SOL     OW 6741   4.222   3.872   2.686
 1678SOL    HW2 6742   4.226   3.783   2.720
 1678SOL    HW3 6743   4.307   3.911   2.707
 1678SOL    MW4 6744   4.233   3.866   2.693
 1679SOL     OW 6745   3.989   4.027   2.731
 1679SOL    HW2 6746   4.002   4.034   2.826
 1679SOL    HW3 6747   4.064   3.975   2.701
 1679SOL    MW4 6748   4.001   4.021   2.739
 1680SOL     OW 6749   4.049   4.277   2.658
 1680SOL    HW2 6750   4.030   4.186   2.682
 1680SOL    HW3 6751   4.038   4.280   2.563
 1680SOL    MW4 6752   4.045   4.265   2.649
 1681SOL     OW 6753   4.292   4.390   2.728
 1681SOL    HW2 6754   4.214   4.343   2.698
 1681SOL    HW3 6755   4.284   4.477   2.689
 1681SOL    MW4 6756   4.280   4.395   2.719
 1682SOL     OW 6757   0.197   4.655   3.132
 1682SOL    HW2 6758   0.186   4.676   3.225
 1682SOL    HW3 6759   0.119   4.691   3.090
 1682SOL    MW4 6760   0.185   4.663   3.139
 1683SOL     OW 6761   4.484   0.114   3.000
 1683SOL    HW2 6762   4.391   0.095   3.012
 1683SOL    HW3 6763   4.497   0.200   3.040
 1683SOL    MW4 6764   4.474   0.122   3.007
 1684SOL     OW 6765   0.001   0.375   3.097
 1684SOL    HW2 6766  -0.002   0.371   3.193
 1684SOL    HW3 6767  -0.081   0.419   3.073
 1684SOL    MW4 6768  -0.011   0.380   3.107
 1685SOL     OW 6769   0.232   0.514   3.078
 1685SOL    HW2 6770   0.285   0.442   3.109
 1685SOL    HW3 6771   0.142   0.488   3.098
 1685SOL    MW4 6772   0.227   0.501   3.085
 1686SOL     OW 6773   0.285   0.769   3.173
 1686SOL    HW2 6774   0.269   0.777   3.267
 1686SOL    HW3 6775   0.265   0.677   3.153
 1686SOL    MW4 6776   0.280   0.758   3.183
 1687SOL     OW 6777   0.031   0.892   3.102
 1687SOL    HW2 6778   0.112   0.846   3.123
 1687SOL    HW3 6779   0.019   0.879   3.008
 1687SOL    MW4 6780   0.040   0.884   3.093
 1688SOL     OW 6781   0.020   1.155   3.164
 1688SOL    HW2 6782  -0.066   1.189   3.136
 1688SOL    HW3 6783   0.020   1.064   3.134
 1688SOL    MW4 6784   0.009   1.147   3.156
 1689SOL     OW 6785   0.225   1.262   3.027
 1689SOL    HW2 6786   0.154   1.218   3.073
 1689SOL    HW3 6787   0.212   1.241   2.935
 1689SOL    MW4 6788   0.214   1.254   3.021
 1690SOL     OW 6789   0.229   1.519   3.115
 1690SOL    HW2 6790   0.155   1.565   3.076
 1690SOL    HW3 6791   0.227   1.432   3.074
 1690SOL    MW4 6792   0.219   1.513   3.104
 1691SOL     OW 6793   0.017   1.694   3.041
 1691SOL    HW2 6794  -0.061   1.651   3.078
 1691SOL    HW3 6795   0.021   1.779   3.084
 1691SOL    MW4 6796   0.007   1.699   3.052
 1692SOL     OW 6797   4.484   1.936   3.159
 1692SOL    HW2 6798   4.423   1.990   3.108
 1692SOL    HW3 6799   4.571   1.960   3.125
 1692SOL    MW4 6800   4.488   1.946   3.148
 1693SOL     OW 6801   0.209   2.023   3.017
 1693SOL    HW2 6802   0.221   2.116   3.039
 1693SOL    HW3 6803   0.199   2.022   2.922
 1693SOL    MW4 6804   0.209   2.035   3.008
 1694SOL     OW 6805   0.238   2.279   3.092
 1694SOL    HW2 6806   0.224   2.291   3.186
 1694SOL    HW3 6807   0.321   2.324   3.073
 1694SOL    MW4 6808   0.247   2.286   3.102
 1695SOL     OW 6809   0.024   2.443   3.025
 1695SOL    HW2 6810   0.029   2.532   3.059
 1695SOL    HW3 6811   0.104   2.401   3.056
 1695SOL    MW4 6812   0.035   2.449   3.033
 1696SOL     OW 6813   0.036   2.696   3.147
 1696SOL    HW2 6814   0.030   2.711   3.242
 1696SOL    HW3 6815   0.111   2.747   3.119
 1696SOL    MW4 6816   0.045   2.705   3.156
 1697SOL     OW 6817   0.258   2.846   3.061
 1697SOL    HW2 6818   0.335   2.795   3.084
 1697SOL    HW3 6819   0.248   2.833   2.966
 1697SOL    MW4 6820   0.267   2.838   3.051
 1698SOL     OW 6821   0.260   3.104   3.150
 1698SOL    HW2 6822   0.181   3.145   3.116
 1698SOL    HW3 6823   0.256   3.014   3.120
 1698SOL    MW4 6824   0.249   3.098   3.142
 1699SOL     OW 6825   0.039   3.200   3.027
 1699SOL    HW2 6826  -0.044   3.153   3.042
 1699SOL    HW3 6827   0.044   3.207   2.931
 1699SOL    MW4 6828   0.029   3.195   3.016
 1700SOL     OW 6829   0.000   3.441   3.142
 1700SOL    HW2 6830  -0.073   3.482   3.096
 1700SOL    HW3 6831   0.014   3.358   3.097
 1700SOL    MW4 6832  -0.008   3.436   3.130
 1701SOL     OW 6833   0.199   3.620   3.039
 1701SOL    HW2 6834   0.177   3.708   3.070
 1701SOL    HW3 6835   0.137   3.562   3.082
 1701SOL    MW4 6836   0.188   3.624   3.049
 1702SOL     OW 6837   0.199   3.875   3.150
 1702SOL    HW2 6838   0.236   3.865   3.238
 1702SOL    HW3 6839   0.271   3.912   3.098
 1702SOL    MW4 6840   0.214   3.878   3.155
 1703SOL     OW 6841   4.465   3.986   3.044
 1703SOL    HW2 6842   4.540   3.941   3.084
 1703SOL    HW3 6843   4.485   3.987   2.951
 1703SOL    MW4 6844   4.478   3.980   3.037
 1704SOL     OW 6845   4.486   4.266   3.110
 1704SOL    HW2 6846   4.506   4.264   3.204
 1704SOL    HW3 6847   4.482   4.174   3.084
 1704SOL    MW4 6848   4.488   4.254   3.119
 1705SOL     OW 6849   0.188   4.413   2.997
 1705SOL    HW2 6850   0.122   4.363   3.044
 1705SOL    HW3 6851   0.198   4.494   3.048
 1705SOL    MW4 6852   0.181   4.417   3.010
 1706SOL     OW 6853   0.710   4.663   3.133
 1706SOL    HW2 6854   0.711   4.572   3.106
 1706SOL    HW3 6855   0.626   4.697   3.102
 1706SOL    MW4 6856   0.699   4.656   3.126
 1707SOL     OW 6857   0.466   0.073   3.045
 1707SOL    HW2 6858   0.470   0.169   3.055
 1707SOL    HW3 6859   0.373   0.052   3.052
 1707SOL    MW4 6860   0.455   0.083   3.047
 1708SOL     OW 6861   0.432   0.344   3.144
 1708SOL    HW2 6862   0.456   0.340   3.237
 1708SOL    HW3 6863   0.511   0.376   3.101
 1708SOL    MW4 6864   0.446   0.348   3.151
 1709SOL     OW 6865   0.670   0.493   3.020
 1709SOL    HW2 6866   0.740   0.444   3.063
 1709SOL    HW3 6867   0.671   0.580   3.061
 1709SOL    MW4 6868   0.679   0.498   3.031
 1710SOL     OW 6869   0.685   0.763   3.114
 1710SOL    HW2 6870   0.697   0.778   3.208
 1710SOL    HW3 6871   0.606   0.811   3.091
 1710SOL    MW4 6872   0.677   0.771   3.123
 1711SOL     OW 6873   0.457   0.915   3.037
 1711SOL    HW2 6874   0.391   0.863   3.082
 1711SOL    HW3 6875   0.431   0.913   2.945
 1711SOL    MW4 6876   0.445   0.908   3.031
 1712SOL     OW 6877   0.456   1.173   3.122
 1712SOL    HW2 6878   0.449   1.078   3.115
 1712SOL    HW3 6879   0.370   1.205   3.094
 1712SOL    MW4 6880   0.443   1.165   3.117
 1713SOL     OW 6881   0.671   1.283   3.000
 1713SOL    HW2 6882   0.728   1.221   3.045
 1713SOL    HW3 6883   0.583   1.260   3.031
 1713SOL    MW4 6884   0.667   1.272   3.010
 1714SOL     OW 6885   0.675   1.546   3.117
 1714SOL    HW2 6886   0.698   1.529   3.209
 1714SOL    HW3 6887   0.683   1.460   3.075
 1714SOL    MW4 6888   0.679   1.532   3.124
 1715SOL     OW 6889   0.454   1.676   2.976
 1715SOL    HW2 6890   0.515   1.623   3.026
 1715SOL    HW3 6891   0.367   1.646   3.005
 1715SOL    MW4 6892   0.450   1.665   2.986
 1716SOL     OW 6893   0.457   1.930   3.099
 1716SOL    HW2 6894   0.444   1.845   3.057
 1716SOL    HW3 6895   0.386   1.984   3.065
 1716SOL    MW4 6896   0.446   1.926   3.089
 1717SOL     OW 6897   0.693   2.076   3.019
 1717SOL    HW2 6898   0.780   2.041   3.040
 1717SOL    HW3 6899   0.632   2.015   3.059
 1717SOL    MW4 6900   0.697   2.064   3.027
 1718SOL     OW 6901   0.714   2.335   3.114
 1718SOL    HW2 6902   0.708   2.320   3.208
 1718SOL    HW3 6903   0.704   2.248   3.075
 1718SOL    MW4 6904   0.712   2.321   3.121
 1719SOL     OW 6905   0.469   2.430   3.066
 1719SOL    HW2 6906   0.557   2.403   3.093
 1719SOL    HW3 6907   0.474   2.432   2.970
 1719SOL    MW4 6908   0.482   2.426   3.057
 1720SOL     OW 6909   0.451   2.685   3.140
 1720SOL    HW2 6910   0.521   2.724   3.088
 1720SOL    HW3 6911   0.449   2.593   3.112
 1720SOL    MW4 6912   0.460   2.678   3.129
 1721SOL     OW 6913   0.673   2.823   3.014
 1721SOL    HW2 6914   0.749   2.771   3.039
 1721SOL    HW3 6915   0.690   2.910   3.050
 1721SOL    MW4 6916   0.685   2.828   3.022
 1722SOL     OW 6917   0.691   3.089   3.120
 1722SOL    HW2 6918   0.689   3.102   3.215
 1722SOL    HW3 6919   0.619   3.143   3.087
 1722SOL    MW4 6920   0.681   3.098   3.128
 1723SOL     OW 6921   0.479   3.240   3.006
 1723SOL    HW2 6922   0.483   3.334   3.022
 1723SOL    HW3 6923   0.407   3.209   3.061
 1723SOL    MW4 6924   0.470   3.248   3.016
 1724SOL     OW 6925   0.462   3.517   3.102
 1724SOL    HW2 6926   0.445   3.505   3.196
 1724SOL    HW3 6927   0.379   3.550   3.067
 1724SOL    MW4 6928   0.449   3.520   3.110
 1725SOL     OW 6929   0.703   3.637   3.030
 1725SOL    HW2 6930   0.778   3.586   3.062
 1725SOL    HW3 6931   0.627   3.596   3.070
 1725SOL    MW4 6932   0.703   3.625   3.039
 1726SOL     OW 6933   0.678   3.904   3.117
 1726SOL    HW2 6934   0.678   3.890   3.212
 1726SOL    HW3 6935   0.680   3.815   3.080
 1726SOL    MW4 6936   0.678   3.890   3.125
 1727SOL     OW 6937   0.422   3.994   3.037
 1727SOL    HW2 6938   0.508   3.962   3.065
 1727SOL    HW3 6939   0.430   4.004   2.942
 1727SOL    MW4 6940   0.435   3.991   3.028
 1728SOL     OW 6941   0.412   4.279   3.102
 1728SOL    HW2 6942   0.406   4.184   3.088
 1728SOL    HW3 6943   0.327   4.312   3.073
 1728SOL    MW4 6944   0.400   4.271   3.097
 1729SOL     OW 6945   0.663   4.390   3.042
 1729SOL    HW2 6946   0.575   4.367   3.072
 1729SOL    HW3 6947   0.657   4.387   2.947
 1729SOL    MW4 6948   0.650   4.386   3.034
 1730SOL     OW 6949   1.143   4.659   3.131
 1730SOL    HW2 6950   1.219   4.711   3.103
 1730SOL    HW3 6951   1.072   4.689   3.075
 1730SOL    MW4 6952   1.144   4.670   3.120
 1731SOL     OW 6953   0.931   0.119   2.999
 1731SOL    HW2 6954   0.938   0.207   3.035
 1731SOL    HW3 6955   0.845   0.089   3.027
 1731SOL    MW4 6956   0.921   0.127   3.008
 1732SOL     OW 6957   0.917   0.371   3.132
 1732SOL    HW2 6958   0.909   0.384   3.227
 1732SOL    HW3 6959   0.980   0.437   3.104
 1732SOL    MW4 6960   0.924   0.381   3.141
 1733SOL     OW 6961   1.113   0.543   3.041
 1733SOL    HW2 6962   1.161   0.464   3.065
 1733SOL    HW3 6963   1.099   0.535   2.947
 1733SOL    MW4 6964   1.118   0.532   3.032
 1734SOL     OW 6965   1.147   0.787   3.136
 1734SOL    HW2 6966   1.150   0.771   3.230
 1734SOL    HW3 6967   1.140   0.700   3.097
 1734SOL    MW4 6968   1.147   0.773   3.143
 1735SOL     OW 6969   0.910   0.892   3.027
 1735SOL    HW2 6970   0.986   0.860   3.076
 1735SOL    HW3 6971   0.835   0.847   3.066
 1735SOL    MW4 6972   0.910   0.881   3.038
 1736SOL     OW 6973   0.887   1.144   3.117
 1736SOL    HW2 6974   0.965   1.183   3.079
 1736SOL    HW3 6975   0.895   1.050   3.097
 1736SOL    MW4 6976   0.898   1.137   3.109
 1737SOL     OW 6977   1.131   1.249   3.021
 1737SOL    HW2 6978   1.209   1.229   3.072
 1737SOL    HW3 6979   1.163   1.263   2.932
 1737SOL    MW4 6980   1.145   1.248   3.016
 1738SOL     OW 6981   1.108   1.509   3.095
 1738SOL    HW2 6982   1.192   1.541   3.061
 1738SOL    HW3 6983   1.115   1.414   3.089
 1738SOL    MW4 6984   1.120   1.501   3.090
 1739SOL     OW 6985   0.888   1.679   3.006
 1739SOL    HW2 6986   0.962   1.623   3.030
 1739SOL    HW3 6987   0.813   1.640   3.051
 1739SOL    MW4 6988   0.888   1.666   3.015
 1740SOL     OW 6989   0.920   1.940   3.107
 1740SOL    HW2 6990   0.932   1.934   3.202
 1740SOL    HW3 6991   0.899   1.850   3.080
 1740SOL    MW4 6992   0.919   1.927   3.116
 1741SOL     OW 6993   1.159   2.053   3.001
 1741SOL    HW2 6994   1.083   2.020   3.050
 1741SOL    HW3 6995   1.123   2.074   2.915
 1741SOL    MW4 6996   1.144   2.052   2.996
 1742SOL     OW 6997   1.189   2.294   3.135
 1742SOL    HW2 6998   1.108   2.338   3.109
 1742SOL    HW3 6999   1.185   2.209   3.093
 1742SOL    MW4 7000   1.178   2.289   3.126
 1743SOL     OW 7001   0.958   2.416   3.012
 1743SOL    HW2 7002   0.880   2.378   3.052
 1743SOL    HW3 7003   0.937   2.422   2.919
 1743SOL    MW4 7004   0.945   2.411   3.005
 1744SOL     OW 7005   0.906   2.690   3.077
 1744SOL    HW2 7006   0.900   2.671   3.170
 1744SOL    HW3 7007   0.918   2.604   3.036
 1744SOL    MW4 7008   0.907   2.676   3.084
 1745SOL     OW 7009   1.136   2.831   3.017
 1745SOL    HW2 7010   1.123   2.917   3.058
 1745SOL    HW3 7011   1.054   2.785   3.031
 1745SOL    MW4 7012   1.124   2.836   3.024
 1746SOL     OW 7013   1.148   3.098   3.111
 1746SOL    HW2 7014   1.219   3.152   3.078
 1746SOL    HW3 7015   1.068   3.139   3.077
 1746SOL    MW4 7016   1.147   3.110   3.102
 1747SOL     OW 7017   0.919   3.208   3.007
 1747SOL    HW2 7018   0.836   3.168   3.034
 1747SOL    HW3 7019   0.913   3.213   2.911
 1747SOL    MW4 7020   0.907   3.203   2.998
 1748SOL     OW 7021   0.929   3.487   3.087
 1748SOL    HW2 7022   0.993   3.546   3.045
 1748SOL    HW3 7023   0.965   3.400   3.072
 1748SOL    MW4 7024   0.942   3.484   3.079
 1749SOL     OW 7025   1.119   3.654   2.986
 1749SOL    HW2 7026   1.188   3.598   3.022
 1749SOL    HW3 7027   1.129   3.738   3.031
 1749SOL    MW4 7028   1.129   3.657   2.997
 1750SOL     OW 7029   1.142   3.896   3.108
 1750SOL    HW2 7030   1.130   3.872   3.200
 1750SOL    HW3 7031   1.058   3.934   3.082
 1750SOL    MW4 7032   1.129   3.898   3.117
 1751SOL     OW 7033   0.914   4.015   3.017
 1751SOL    HW2 7034   0.841   3.966   3.055
 1751SOL    HW3 7035   0.893   4.020   2.924
 1751SOL    MW4 7036   0.901   4.009   3.010
 1752SOL     OW 7037   0.905   4.280   3.127
 1752SOL    HW2 7038   0.917   4.192   3.094
 1752SOL    HW3 7039   0.812   4.299   3.114
 1752SOL    MW4 7040   0.894   4.271   3.121
 1753SOL     OW 7041   1.121   4.410   3.002
 1753SOL    HW2 7042   1.037   4.380   3.037
 1753SOL    HW3 7043   1.138   4.492   3.048
 1753SOL    MW4 7044   1.112   4.417   3.013
 1754SOL     OW 7045   1.577   4.649   3.126
 1754SOL    HW2 7046   1.581   4.652   3.222
 1754SOL    HW3 7047   1.495   4.694   3.105
 1754SOL    MW4 7048   1.566   4.655   3.136
 1755SOL     OW 7049   1.363   0.119   3.030
 1755SOL    HW2 7050   1.349   0.206   3.068
 1755SOL    HW3 7051   1.353   0.132   2.936
 1755SOL    MW4 7052   1.360   0.132   3.023
 1756SOL     OW 7053   1.294   0.365   3.101
 1756SOL    HW2 7054   1.301   0.385   3.195
 1756SOL    HW3 7055   1.361   0.419   3.060
 1756SOL    MW4 7056   1.304   0.374   3.108
 1757SOL     OW 7057   1.498   0.494   2.997
 1757SOL    HW2 7058   1.509   0.583   3.030
 1757SOL    HW3 7059   1.513   0.501   2.902
 1757SOL    MW4 7060   1.501   0.507   2.989
 1758SOL     OW 7061   1.558   0.756   3.084
 1758SOL    HW2 7062   1.555   0.749   3.179
 1758SOL    HW3 7063   1.487   0.817   3.063
 1758SOL    MW4 7064   1.548   0.763   3.094
 1759SOL     OW 7065   1.355   0.928   3.019
 1759SOL    HW2 7066   1.353   1.020   3.047
 1759SOL    HW3 7067   1.285   0.886   3.070
 1759SOL    MW4 7068   1.345   0.935   3.030
 1760SOL     OW 7069   1.359   1.169   3.129
 1760SOL    HW2 7070   1.378   1.162   3.223
 1760SOL    HW3 7071   1.438   1.209   3.092
 1760SOL    MW4 7072   1.372   1.173   3.137
 1761SOL     OW 7073   1.608   1.274   3.045
 1761SOL    HW2 7074   1.690   1.240   3.081
 1761SOL    HW3 7075   1.612   1.368   3.062
 1761SOL    MW4 7076   1.619   1.282   3.052
 1762SOL     OW 7077   1.607   1.524   3.143
 1762SOL    HW2 7078   1.679   1.570   3.100
 1762SOL    HW3 7079   1.529   1.552   3.096
 1762SOL    MW4 7080   1.606   1.533   3.131
 1763SOL     OW 7081   1.379   1.601   3.028
 1763SOL    HW2 7082   1.371   1.694   3.050
 1763SOL    HW3 7083   1.366   1.597   2.933
 1763SOL    MW4 7084   1.376   1.613   3.019
 1764SOL     OW 7085   1.345   1.873   3.083
 1764SOL    HW2 7086   1.355   1.897   3.175
 1764SOL    HW3 7087   1.274   1.929   3.051
 1764SOL    MW4 7088   1.337   1.884   3.091
 1765SOL     OW 7089   1.580   2.060   3.035
 1765SOL    HW2 7090   1.509   1.998   3.053
 1765SOL    HW3 7091   1.578   2.071   2.940
 1765SOL    MW4 7092   1.570   2.053   3.024
 1766SOL     OW 7093   1.609   2.311   3.125
 1766SOL    HW2 7094   1.533   2.356   3.087
 1766SOL    HW3 7095   1.602   2.221   3.092
 1766SOL    MW4 7096   1.598   2.305   3.116
 1767SOL     OW 7097   1.369   2.449   3.030
 1767SOL    HW2 7098   1.299   2.388   3.056
 1767SOL    HW3 7099   1.358   2.459   2.935
 1767SOL    MW4 7100   1.358   2.442   3.021
 1768SOL     OW 7101   1.347   2.713   3.135
 1768SOL    HW2 7102   1.354   2.624   3.099
 1768SOL    HW3 7103   1.273   2.752   3.089
 1768SOL    MW4 7104   1.338   2.706   3.124
 1769SOL     OW 7105   1.563   2.813   2.977
 1769SOL    HW2 7106   1.639   2.766   3.010
 1769SOL    HW3 7107   1.489   2.779   3.028
 1769SOL    MW4 7108   1.563   2.802   2.988
 1770SOL     OW 7109   1.550   3.070   3.088
 1770SOL    HW2 7110   1.541   3.071   3.183
 1770SOL    HW3 7111   1.541   2.977   3.064
 1770SOL    MW4 7112   1.548   3.058   3.097
 1771SOL     OW 7113   1.373   3.265   3.018
 1771SOL    HW2 7114   1.423   3.186   3.037
 1771SOL    HW3 7115   1.388   3.281   2.925
 1771SOL    MW4 7116   1.382   3.257   3.008
 1772SOL     OW 7117   1.328   3.508   3.106
 1772SOL    HW2 7118   1.345   3.509   3.200
 1772SOL    HW3 7119   1.351   3.419   3.079
 1772SOL    MW4 7120   1.334   3.496   3.115
 1773SOL     OW 7121   1.557   3.615   3.032
 1773SOL    HW2 7122   1.472   3.580   3.060
 1773SOL    HW3 7123   1.550   3.622   2.937
 1773SOL    MW4 7124   1.545   3.611   3.023
 1774SOL     OW 7125   1.579   3.888   3.097
 1774SOL    HW2 7126   1.671   3.898   3.073
 1774SOL    HW3 7127   1.560   3.796   3.079
 1774SOL    MW4 7128   1.589   3.877   3.092
 1775SOL     OW 7129   1.361   3.996   2.966
 1775SOL    HW2 7130   1.440   3.981   3.018
 1775SOL    HW3 7131   1.292   3.949   3.013
 1775SOL    MW4 7132   1.362   3.988   2.979
 1776SOL     OW 7133   1.347   4.259   3.076
 1776SOL    HW2 7134   1.348   4.175   3.031
 1776SOL    HW3 7135   1.264   4.300   3.050
 1776SOL    MW4 7136   1.336   4.254   3.067
 1777SOL     OW 7137   1.579   4.402   3.001
 1777SOL    HW2 7138   1.504   4.353   3.033
 1777SOL    HW3 7139   1.563   4.492   3.029
 1777SOL    MW4 7140   1.567   4.408   3.009
 1778SOL     OW 7141   2.029   4.650   3.072
 1778SOL    HW2 7142   2.025   4.656   3.168
 1778SOL    HW3 7143   1.945   4.684   3.043
 1778SOL    MW4 7144   2.018   4.655   3.081
 1779SOL     OW 7145   1.782   0.126   3.033
 1779SOL    HW2 7146   1.716   0.063   3.062
 1779SOL    HW3 7147   1.765   0.137   2.939
 1779SOL    MW4 7148   1.771   0.119   3.024
 1780SOL     OW 7149   1.747   0.393   3.102
 1780SOL    HW2 7150   1.769   0.303   3.078
 1780SOL    HW3 7151   1.664   0.411   3.058
 1780SOL    MW4 7152   1.739   0.384   3.093
 1781SOL     OW 7153   1.991   0.501   2.989
 1781SOL    HW2 7154   1.900   0.473   3.001
 1781SOL    HW3 7155   2.003   0.508   2.895
 1781SOL    MW4 7156   1.981   0.498   2.978
 1782SOL     OW 7157   2.048   0.778   3.099
 1782SOL    HW2 7158   1.965   0.821   3.079
 1782SOL    HW3 7159   2.038   0.690   3.063
 1782SOL    MW4 7160   2.036   0.772   3.091
 1783SOL     OW 7161   1.797   0.865   3.014
 1783SOL    HW2 7162   1.719   0.818   3.044
 1783SOL    HW3 7163   1.785   0.873   2.919
 1783SOL    MW4 7164   1.785   0.860   3.005
 1784SOL     OW 7165   1.822   1.120   3.118
 1784SOL    HW2 7166   1.821   1.119   3.214
 1784SOL    HW3 7167   1.809   1.029   3.093
 1784SOL    MW4 7168   1.821   1.108   3.127
 1785SOL     OW 7169   2.059   1.261   3.000
 1785SOL    HW2 7170   2.130   1.211   3.041
 1785SOL    HW3 7171   1.980   1.231   3.046
 1785SOL    MW4 7172   2.058   1.250   3.011
 1786SOL     OW 7173   2.065   1.543   3.085
 1786SOL    HW2 7174   2.056   1.544   3.181
 1786SOL    HW3 7175   2.059   1.451   3.061
 1786SOL    MW4 7176   2.063   1.531   3.095
 1787SOL     OW 7177   1.816   1.642   2.997
 1787SOL    HW2 7178   1.817   1.725   3.045
 1787SOL    HW3 7179   1.898   1.600   3.019
 1787SOL    MW4 7180   1.827   1.647   3.006
 1788SOL     OW 7181   1.808   1.900   3.108
 1788SOL    HW2 7182   1.883   1.952   3.077
 1788SOL    HW3 7183   1.731   1.946   3.074
 1788SOL    MW4 7184   1.808   1.913   3.099
 1789SOL     OW 7185   2.029   2.059   3.043
 1789SOL    HW2 7186   2.096   2.002   3.082
 1789SOL    HW3 7187   2.063   2.148   3.056
 1789SOL    MW4 7188   2.042   2.063   3.050
 1790SOL     OW 7189   2.115   2.330   3.100
 1790SOL    HW2 7190   2.189   2.380   3.066
 1790SOL    HW3 7191   2.038   2.383   3.080
 1790SOL    MW4 7192   2.115   2.343   3.093
 1791SOL     OW 7193   1.866   2.422   3.028
 1791SOL    HW2 7194   1.830   2.509   3.040
 1791SOL    HW3 7195   1.803   2.363   3.069
 1791SOL    MW4 7196   1.853   2.425   3.035
 1792SOL     OW 7197   1.799   2.692   3.070
 1792SOL    HW2 7198   1.816   2.687   3.163
 1792SOL    HW3 7199   1.873   2.740   3.034
 1792SOL    MW4 7200   1.811   2.697   3.077
 1793SOL     OW 7201   2.012   2.845   2.990
 1793SOL    HW2 7202   2.009   2.936   3.019
 1793SOL    HW3 7203   2.000   2.849   2.895
 1793SOL    MW4 7204   2.010   2.857   2.982
 1794SOL     OW 7205   2.019   3.104   3.048
 1794SOL    HW2 7206   2.020   3.091   3.143
 1794SOL    HW3 7207   1.934   3.144   3.031
 1794SOL    MW4 7208   2.008   3.108   3.058
 1795SOL     OW 7209   1.780   3.224   3.007
 1795SOL    HW2 7210   1.721   3.160   3.047
 1795SOL    HW3 7211   1.763   3.218   2.913
 1795SOL    MW4 7212   1.770   3.215   3.000
 1796SOL     OW 7213   1.790   3.484   3.096
 1796SOL    HW2 7214   1.783   3.390   3.080
 1796SOL    HW3 7215   1.706   3.519   3.066
 1796SOL    MW4 7216   1.778   3.476   3.090
 1797SOL     OW 7217   2.048   3.564   3.000
 1797SOL    HW2 7218   2.064   3.647   3.045
 1797SOL    HW3 7219   1.961   3.538   3.031
 1797SOL    MW4 7220   2.038   3.572   3.010
 1798SOL     OW 7221   2.056   3.807   3.118
 1798SOL    HW2 7222   2.051   3.819   3.213
 1798SOL    HW3 7223   1.994   3.871   3.083
 1798SOL    MW4 7224   2.047   3.817   3.126
 1799SOL     OW 7225   1.870   3.975   3.037
 1799SOL    HW2 7226   1.855   4.067   3.059
 1799SOL    HW3 7227   1.874   3.973   2.942
 1799SOL    MW4 7228   1.868   3.987   3.028
 1800SOL     OW 7229   1.800   4.246   3.053
 1800SOL    HW2 7230   1.875   4.305   3.043
 1800SOL    HW3 7231   1.723   4.303   3.043
 1800SOL    MW4 7232   1.799   4.262   3.050
 1801SOL     OW 7233   2.063   4.389   2.997
 1801SOL    HW2 7234   2.044   4.477   3.030
 1801SOL    HW3 7235   2.088   4.402   2.906
 1801SOL    MW4 7236   2.064   4.402   2.990
 1802SOL     OW 7237   2.462   4.624   3.126
 1802SOL    HW2 7238   2.442   4.534   3.100
 1802SOL    HW3 7239   2.398   4.678   3.079
 1802SOL    MW4 7240   2.451   4.620   3.116
 1803SOL     OW 7241   2.280   0.109   3.019
 1803SOL    HW2 7242   2.273   0.203   3.035
 1803SOL    HW3 7243   2.194   0.074   3.040
 1803SOL    MW4 7244   2.268   0.117   3.024
 1804SOL     OW 7245   2.228   0.371   3.080
 1804SOL    HW2 7246   2.229   0.382   3.175
 1804SOL    HW3 7247   2.145   0.412   3.053
 1804SOL    MW4 7248   2.217   0.378   3.089
 1805SOL     OW 7249   2.482   0.464   3.006
 1805SOL    HW2 7250   2.390   0.441   3.021
 1805SOL    HW3 7251   2.490   0.472   2.911
 1805SOL    MW4 7252   2.471   0.462   2.995
 1806SOL     OW 7253   2.523   0.704   3.128
 1806SOL    HW2 7254   2.596   0.759   3.098
 1806SOL    HW3 7255   2.530   0.624   3.076
 1806SOL    MW4 7256   2.534   0.701   3.117
 1807SOL     OW 7257   2.301   0.854   3.024
 1807SOL    HW2 7258   2.368   0.809   3.076
 1807SOL    HW3 7259   2.218   0.824   3.061
 1807SOL    MW4 7260   2.299   0.844   3.036
 1808SOL     OW 7261   2.262   1.111   3.102
 1808SOL    HW2 7262   2.249   1.105   3.197
 1808SOL    HW3 7263   2.300   1.027   3.077
 1808SOL    MW4 7264   2.265   1.099   3.112
 1809SOL     OW 7265   2.452   1.286   3.002
 1809SOL    HW2 7266   2.383   1.221   3.017
 1809SOL    HW3 7267   2.465   1.285   2.907
 1809SOL    MW4 7268   2.445   1.277   2.991
 1810SOL     OW 7269   2.560   1.508   3.147
 1810SOL    HW2 7270   2.503   1.579   3.115
 1810SOL    HW3 7271   2.513   1.428   3.123
 1810SOL    MW4 7272   2.546   1.507   3.139
 1811SOL     OW 7273   2.320   1.654   3.034
 1811SOL    HW2 7274   2.239   1.608   3.056
 1811SOL    HW3 7275   2.312   1.673   2.940
 1811SOL    MW4 7276   2.308   1.650   3.024
 1812SOL     OW 7277   2.251   1.907   3.130
 1812SOL    HW2 7278   2.325   1.959   3.096
 1812SOL    HW3 7279   2.275   1.817   3.111
 1812SOL    MW4 7280   2.264   1.902   3.123
 1813SOL     OW 7281   2.463   2.092   3.040
 1813SOL    HW2 7282   2.533   2.046   3.085
 1813SOL    HW3 7283   2.488   2.088   2.947
 1813SOL    MW4 7284   2.476   2.086   3.033
 1814SOL     OW 7285   2.491   2.355   3.134
 1814SOL    HW2 7286   2.475   2.353   3.228
 1814SOL    HW3 7287   2.466   2.268   3.103
 1814SOL    MW4 7288   2.486   2.343   3.142
 1815SOL     OW 7289   2.324   2.473   2.951
 1815SOL    HW2 7290   2.317   2.565   2.978
 1815SOL    HW3 7291   2.393   2.437   3.008
 1815SOL    MW4 7292   2.332   2.481   2.962
 1816SOL     OW 7293   2.246   2.707   3.067
 1816SOL    HW2 7294   2.320   2.767   3.061
 1816SOL    HW3 7295   2.171   2.757   3.033
 1816SOL    MW4 7296   2.246   2.722   3.062
 1817SOL     OW 7297   2.488   2.821   3.016
 1817SOL    HW2 7298   2.502   2.908   3.052
 1817SOL    HW3 7299   2.473   2.835   2.923
 1817SOL    MW4 7300   2.488   2.834   3.008
 1818SOL     OW 7301   2.500   3.065   3.140
 1818SOL    HW2 7302   2.577   3.102   3.098
 1818SOL    HW3 7303   2.426   3.102   3.091
 1818SOL    MW4 7304   2.500   3.075   3.128
 1819SOL     OW 7305   2.295   3.170   3.007
 1819SOL    HW2 7306   2.288   3.258   3.043
 1819SOL    HW3 7307   2.211   3.129   3.027
 1819SOL    MW4 7308   2.283   3.176   3.014
 1820SOL     OW 7309   2.264   3.429   3.108
 1820SOL    HW2 7310   2.332   3.491   3.081
 1820SOL    HW3 7311   2.188   3.452   3.054
 1820SOL    MW4 7312   2.263   3.440   3.097
 1821SOL     OW 7313   2.449   3.600   2.998
 1821SOL    HW2 7314   2.528   3.553   3.025
 1821SOL    HW3 7315   2.456   3.685   3.041
 1821SOL    MW4 7316   2.460   3.605   3.007
 1822SOL     OW 7317   2.486   3.821   3.168
 1822SOL    HW2 7318   2.506   3.809   3.261
 1822SOL    HW3 7319   2.563   3.868   3.134
 1822SOL    MW4 7320   2.499   3.825   3.176
 1823SOL     OW 7321   2.272   3.939   3.016
 1823SOL    HW2 7322   2.344   3.904   3.069
 1823SOL    HW3 7323   2.198   3.881   3.036
 1823SOL    MW4 7324   2.272   3.927   3.025
 1824SOL     OW 7325   2.250   4.203   3.118
 1824SOL    HW2 7326   2.241   4.112   3.089
 1824SOL    HW3 7327   2.184   4.251   3.067
 1824SOL    MW4 7328   2.240   4.197   3.108
 1825SOL     OW 7329   2.461   4.365   3.026
 1825SOL    HW2 7330   2.405   4.293   3.056
 1825SOL    HW3 7331   2.464   4.354   2.931
 1825SOL    MW4 7332   2.454   4.354   3.017
 1826SOL     OW 7333   2.885   4.619   3.129
 1826SOL    HW2 7334   2.963   4.658   3.088
 1826SOL    HW3 7335   2.885   4.528   3.099
 1826SOL    MW4 7336   2.895   4.612   3.119
 1827SOL     OW 7337   2.679   0.078   3.024
 1827SOL    HW2 7338   2.751   0.031   3.065
 1827SOL    HW3 7339   2.600   0.038   3.061
 1827SOL    MW4 7340   2.678   0.067   3.035
 1828SOL     OW 7341   2.686   0.322   3.169
 1828SOL    HW2 7342   2.673   0.237   3.127
 1828SOL    HW3 7343   2.614   0.377   3.136
 1828SOL    MW4 7344   2.675   0.318   3.159
 1829SOL     OW 7345   2.880   0.480   3.050
 1829SOL    HW2 7346   2.819   0.421   3.094
 1829SOL    HW3 7347   2.864   0.466   2.957
 1829SOL    MW4 7348   2.870   0.470   3.044
 1830SOL     OW 7349   2.918   0.736   3.142
 1830SOL    HW2 7350   2.917   0.738   3.238
 1830SOL    HW3 7351   2.909   0.644   3.120
 1830SOL    MW4 7352   2.917   0.725   3.152
 1831SOL     OW 7353   2.710   0.894   3.022
 1831SOL    HW2 7354   2.697   0.984   3.051
 1831SOL    HW3 7355   2.784   0.862   3.074
 1831SOL    MW4 7356   2.718   0.902   3.032
 1832SOL     OW 7357   2.691   1.148   3.102
 1832SOL    HW2 7358   2.759   1.193   3.052
 1832SOL    HW3 7359   2.612   1.199   3.086
 1832SOL    MW4 7360   2.690   1.161   3.093
 1833SOL     OW 7361   2.908   1.257   2.984
 1833SOL    HW2 7362   2.978   1.208   3.029
 1833SOL    HW3 7363   2.917   1.347   3.017
 1833SOL    MW4 7364   2.919   1.262   2.994
 1834SOL     OW 7365   2.953   1.527   3.063
 1834SOL    HW2 7366   2.934   1.529   3.157
 1834SOL    HW3 7367   3.030   1.583   3.054
 1834SOL    MW4 7368   2.961   1.535   3.074
 1835SOL     OW 7369   2.735   1.674   3.003
 1835SOL    HW2 7370   2.822   1.638   3.018
 1835SOL    HW3 7371   2.675   1.605   3.032
 1835SOL    MW4 7372   2.739   1.660   3.008
 1836SOL     OW 7373   2.690   1.934   3.134
 1836SOL    HW2 7374   2.766   1.980   3.099
 1836SOL    HW3 7375   2.702   1.843   3.106
 1836SOL    MW4 7376   2.701   1.928   3.126
 1837SOL     OW 7377   2.896   2.073   3.020
 1837SOL    HW2 7378   2.929   2.161   3.039
 1837SOL    HW3 7379   2.906   2.065   2.925
 1837SOL    MW4 7380   2.902   2.084   3.010
 1838SOL     OW 7381   2.967   2.322   3.127
 1838SOL    HW2 7382   3.047   2.358   3.087
 1838SOL    HW3 7383   2.896   2.357   3.074
 1838SOL    MW4 7384   2.968   2.331   3.115
 1839SOL     OW 7385   2.734   2.407   3.012
 1839SOL    HW2 7386   2.744   2.496   3.046
 1839SOL    HW3 7387   2.656   2.373   3.055
 1839SOL    MW4 7388   2.725   2.414   3.022
 1840SOL     OW 7389   2.713   2.665   3.104
 1840SOL    HW2 7390   2.713   2.696   3.194
 1840SOL    HW3 7391   2.635   2.704   3.065
 1840SOL    MW4 7392   2.702   2.674   3.110
 1841SOL     OW 7393   2.920   2.776   2.974
 1841SOL    HW2 7394   3.004   2.746   3.010
 1841SOL    HW3 7395   2.855   2.752   3.039
 1841SOL    MW4 7396   2.923   2.769   2.987
 1842SOL     OW 7397   2.932   3.049   3.094
 1842SOL    HW2 7398   2.848   3.088   3.070
 1842SOL    HW3 7399   2.930   2.962   3.054
 1842SOL    MW4 7400   2.920   3.043   3.085
 1843SOL     OW 7401   2.713   3.193   2.995
 1843SOL    HW2 7402   2.697   3.283   3.021
 1843SOL    HW3 7403   2.704   3.194   2.900
 1843SOL    MW4 7404   2.710   3.205   2.986
 1844SOL     OW 7405   2.666   3.454   3.074
 1844SOL    HW2 7406   2.664   3.453   3.170
 1844SOL    HW3 7407   2.756   3.477   3.052
 1844SOL    MW4 7408   2.677   3.457   3.084
 1845SOL     OW 7409   2.902   3.551   3.023
 1845SOL    HW2 7410   2.991   3.523   3.043
 1845SOL    HW3 7411   2.891   3.632   3.073
 1845SOL    MW4 7412   2.912   3.558   3.033
 1846SOL     OW 7413   2.904   3.820   3.112
 1846SOL    HW2 7414   2.904   3.837   3.206
 1846SOL    HW3 7415   2.832   3.874   3.078
 1846SOL    MW4 7416   2.895   3.830   3.120
 1847SOL     OW 7417   2.694   3.979   3.022
 1847SOL    HW2 7418   2.713   4.061   3.069
 1847SOL    HW3 7419   2.703   4.002   2.930
 1847SOL    MW4 7420   2.698   3.993   3.016
 1848SOL     OW 7421   2.690   4.222   3.147
 1848SOL    HW2 7422   2.677   4.245   3.239
 1848SOL    HW3 7423   2.614   4.257   3.102
 1848SOL    MW4 7424   2.679   4.229   3.153
 1849SOL     OW 7425   2.937   4.358   3.061
 1849SOL    HW2 7426   3.021   4.319   3.084
 1849SOL    HW3 7427   2.872   4.296   3.095
 1849SOL    MW4 7428   2.939   4.345   3.069
 1850SOL     OW 7429   3.345   4.637   3.139
 1850SOL    HW2 7430   3.420   4.689   3.111
 1850SOL    HW3 7431   3.340   4.565   3.076
 1850SOL    MW4 7432   3.354   4.634   3.127
 1851SOL     OW 7433   3.115   0.084   3.019
 1851SOL    HW2 7434   3.108   0.179   3.026
 1851SOL    HW3 7435   3.197   0.062   3.064
 1851SOL    MW4 7436   3.125   0.093   3.026
 1852SOL     OW 7437   3.117   0.350   3.107
 1852SOL    HW2 7438   3.189   0.398   3.068
 1852SOL    HW3 7439   3.039   0.403   3.087
 1852SOL    MW4 7440   3.116   0.363   3.099
 1853SOL     OW 7441   3.360   0.503   3.027
 1853SOL    HW2 7442   3.428   0.446   3.063
 1853SOL    HW3 7443   3.381   0.509   2.933
 1853SOL    MW4 7444   3.372   0.496   3.019
 1854SOL     OW 7445   3.351   0.748   3.163
 1854SOL    HW2 7446   3.349   0.733   3.257
 1854SOL    HW3 7447   3.363   0.661   3.125
 1854SOL    MW4 7448   3.352   0.735   3.170
 1855SOL     OW 7449   3.151   0.864   3.029
 1855SOL    HW2 7450   3.231   0.823   3.061
 1855SOL    HW3 7451   3.080   0.816   3.072
 1855SOL    MW4 7452   3.152   0.852   3.039
 1856SOL     OW 7453   3.136   1.145   3.097
 1856SOL    HW2 7454   3.214   1.194   3.071
 1856SOL    HW3 7455   3.157   1.054   3.075
 1856SOL    MW4 7456   3.149   1.140   3.091
 1857SOL     OW 7457   3.369   1.274   2.995
 1857SOL    HW2 7458   3.437   1.226   3.041
 1857SOL    HW3 7459   3.363   1.358   3.041
 1857SOL    MW4 7460   3.377   1.279   3.007
 1858SOL     OW 7461   3.380   1.524   3.118
 1858SOL    HW2 7462   3.397   1.542   3.210
 1858SOL    HW3 7463   3.462   1.548   3.074
 1858SOL    MW4 7464   3.393   1.530   3.124
 1859SOL     OW 7465   3.179   1.682   3.015
 1859SOL    HW2 7466   3.249   1.630   3.054
 1859SOL    HW3 7467   3.186   1.663   2.921
 1859SOL    MW4 7468   3.189   1.672   3.007
 1860SOL     OW 7469   3.141   1.949   3.132
 1860SOL    HW2 7470   3.150   1.863   3.091
 1860SOL    HW3 7471   3.056   1.982   3.101
 1860SOL    MW4 7472   3.131   1.942   3.123
 1861SOL     OW 7473   3.382   2.070   3.020
 1861SOL    HW2 7474   3.452   2.017   3.058
 1861SOL    HW3 7475   3.305   2.050   3.073
 1861SOL    MW4 7476   3.381   2.060   3.032
 1862SOL     OW 7477   3.422   2.326   3.102
 1862SOL    HW2 7478   3.406   2.313   3.196
 1862SOL    HW3 7479   3.417   2.239   3.064
 1862SOL    MW4 7480   3.419   2.313   3.110
 1863SOL     OW 7481   3.191   2.439   3.017
 1863SOL    HW2 7482   3.254   2.369   3.036
 1863SOL    HW3 7483   3.178   2.434   2.922
 1863SOL    MW4 7484   3.198   2.429   3.007
 1864SOL     OW 7485   3.158   2.703   3.092
 1864SOL    HW2 7486   3.141   2.698   3.186
 1864SOL    HW3 7487   3.183   2.614   3.068
 1864SOL    MW4 7488   3.159   2.690   3.101
 1865SOL     OW 7489   3.391   2.842   3.002
 1865SOL    HW2 7490   3.388   2.930   3.039
 1865SOL    HW3 7491   3.305   2.805   3.019
 1865SOL    MW4 7492   3.379   2.849   3.009
 1866SOL     OW 7493   3.369   3.105   3.110
 1866SOL    HW2 7494   3.387   3.077   3.200
 1866SOL    HW3 7495   3.275   3.126   3.110
 1866SOL    MW4 7496   3.359   3.104   3.122
 1867SOL     OW 7497   3.124   3.235   3.027
 1867SOL    HW2 7498   3.047   3.183   3.051
 1867SOL    HW3 7499   3.134   3.222   2.933
 1867SOL    MW4 7500   3.115   3.227   3.018
 1868SOL     OW 7501   3.161   3.502   3.105
 1868SOL    HW2 7502   3.224   3.547   3.048
 1868SOL    HW3 7503   3.159   3.413   3.072
 1868SOL    MW4 7504   3.169   3.497   3.093
 1869SOL     OW 7505   3.395   3.604   2.949
 1869SOL    HW2 7506   3.465   3.551   2.986
 1869SOL    HW3 7507   3.399   3.687   2.997
 1869SOL    MW4 7508   3.404   3.608   2.960
 1870SOL     OW 7509   3.380   3.842   3.105
 1870SOL    HW2 7510   3.352   3.819   3.193
 1870SOL    HW3 7511   3.300   3.874   3.063
 1870SOL    MW4 7512   3.365   3.843   3.111
 1871SOL     OW 7513   3.140   3.950   3.014
 1871SOL    HW2 7514   3.067   3.897   3.044
 1871SOL    HW3 7515   3.138   3.942   2.919
 1871SOL    MW4 7516   3.130   3.942   3.006
 1872SOL     OW 7517   3.195   4.201   3.107
 1872SOL    HW2 7518   3.183   4.202   3.202
 1872SOL    HW3 7519   3.164   4.114   3.080
 1872SOL    MW4 7520   3.189   4.189   3.116
 1873SOL     OW 7521   3.365   4.363   2.977
 1873SOL    HW2 7522   3.447   4.336   3.017
 1873SOL    HW3 7523   3.298   4.310   3.020
 1873SOL    MW4 7524   3.367   4.353   2.988
 1874SOL     OW 7525   3.779   0.004   3.146
 1874SOL    HW2 7526   3.778  -0.087   3.118
 1874SOL    HW3 7527   3.702   0.043   3.105
 1874SOL    MW4 7528   3.769  -0.003   3.137
 1875SOL     OW 7529   3.555   0.121   3.035
 1875SOL    HW2 7530   3.560   0.213   3.061
 1875SOL    HW3 7531   3.559   0.123   2.939
 1875SOL    MW4 7532   3.556   0.134   3.026
 1876SOL     OW 7533   3.569   0.377   3.116
 1876SOL    HW2 7534   3.578   0.358   3.209
 1876SOL    HW3 7535   3.657   0.405   3.088
 1876SOL    MW4 7536   3.582   0.378   3.125
 1877SOL     OW 7537   3.796   0.518   3.010
 1877SOL    HW2 7538   3.870   0.466   3.042
 1877SOL    HW3 7539   3.792   0.593   3.069
 1877SOL    MW4 7540   3.806   0.521   3.022
 1878SOL     OW 7541   3.789   0.750   3.172
 1878SOL    HW2 7542   3.792   0.753   3.268
 1878SOL    HW3 7543   3.869   0.796   3.146
 1878SOL    MW4 7544   3.800   0.757   3.182
 1879SOL     OW 7545   3.580   0.864   3.049
 1879SOL    HW2 7546   3.658   0.827   3.090
 1879SOL    HW3 7547   3.507   0.815   3.087
 1879SOL    MW4 7548   3.580   0.853   3.060
 1880SOL     OW 7549   3.577   1.134   3.100
 1880SOL    HW2 7550   3.659   1.173   3.070
 1880SOL    HW3 7551   3.591   1.039   3.090
 1880SOL    MW4 7552   3.590   1.126   3.094
 1881SOL     OW 7553   3.810   1.261   3.003
 1881SOL    HW2 7554   3.819   1.351   3.036
 1881SOL    HW3 7555   3.808   1.270   2.908
 1881SOL    MW4 7556   3.811   1.274   2.995
 1882SOL     OW 7557   3.860   1.516   3.103
 1882SOL    HW2 7558   3.850   1.511   3.198
 1882SOL    HW3 7559   3.777   1.554   3.073
 1882SOL    MW4 7560   3.848   1.520   3.111
 1883SOL     OW 7561   3.606   1.621   3.003
 1883SOL    HW2 7562   3.616   1.716   3.005
 1883SOL    HW3 7563   3.584   1.602   2.911
 1883SOL    MW4 7564   3.604   1.631   2.991
 1884SOL     OW 7565   3.602   1.892   3.070
 1884SOL    HW2 7566   3.584   1.903   3.163
 1884SOL    HW3 7567   3.681   1.944   3.054
 1884SOL    MW4 7568   3.610   1.900   3.080
 1885SOL     OW 7569   3.848   2.025   3.015
 1885SOL    HW2 7570   3.836   2.120   3.025
 1885SOL    HW3 7571   3.837   2.010   2.921
 1885SOL    MW4 7572   3.845   2.036   3.004
 1886SOL     OW 7573   3.848   2.315   3.088
 1886SOL    HW2 7574   3.847   2.306   3.183
 1886SOL    HW3 7575   3.768   2.365   3.069
 1886SOL    MW4 7576   3.837   2.321   3.098
 1887SOL     OW 7577   3.633   2.464   3.008
 1887SOL    HW2 7578   3.621   2.556   3.031
 1887SOL    HW3 7579   3.551   2.422   3.035
 1887SOL    MW4 7580   3.620   2.470   3.014
 1888SOL     OW 7581   3.629   2.710   3.124
 1888SOL    HW2 7582   3.710   2.757   3.110
 1888SOL    HW3 7583   3.564   2.756   3.071
 1888SOL    MW4 7584   3.631   2.722   3.115
 1889SOL     OW 7585   3.847   2.838   3.015
 1889SOL    HW2 7586   3.836   2.923   3.056
 1889SOL    HW3 7587   3.840   2.855   2.921
 1889SOL    MW4 7588   3.845   2.851   3.008
 1890SOL     OW 7589   3.836   3.096   3.136
 1890SOL    HW2 7590   3.916   3.125   3.092
 1890SOL    HW3 7591   3.766   3.147   3.095
 1890SOL    MW4 7592   3.837   3.107   3.125
 1891SOL     OW 7593   3.615   3.232   3.033
 1891SOL    HW2 7594   3.536   3.196   3.074
 1891SOL    HW3 7595   3.601   3.222   2.939
 1891SOL    MW4 7596   3.603   3.226   3.026
 1892SOL     OW 7597   3.547   3.481   3.153
 1892SOL    HW2 7598   3.625   3.535   3.142
 1892SOL    HW3 7599   3.569   3.398   3.110
 1892SOL    MW4 7600   3.561   3.477   3.146
 1893SOL     OW 7601   3.812   3.596   3.082
 1893SOL    HW2 7602   3.824   3.688   3.104
 1893SOL    HW3 7603   3.804   3.595   2.986
 1893SOL    MW4 7604   3.812   3.608   3.072
 1894SOL     OW 7605   3.821   3.863   3.131
 1894SOL    HW2 7606   3.819   3.855   3.226
 1894SOL    HW3 7607   3.752   3.927   3.111
 1894SOL    MW4 7608   3.811   3.870   3.141
 1895SOL     OW 7609   3.604   4.006   3.017
 1895SOL    HW2 7610   3.533   3.946   3.040
 1895SOL    HW3 7611   3.603   4.008   2.921
 1895SOL    MW4 7612   3.594   3.998   3.007
 1896SOL     OW 7613   3.600   4.261   3.123
 1896SOL    HW2 7614   3.685   4.300   3.104
 1896SOL    HW3 7615   3.608   4.170   3.095
 1896SOL    MW4 7616   3.612   4.254   3.117
 1897SOL     OW 7617   3.847   4.391   3.046
 1897SOL    HW2 7618   3.928   4.341   3.063
 1897SOL    HW3 7619   3.850   4.408   2.951
 1897SOL    MW4 7620   3.858   4.386   3.036
 1898SOL     OW 7621   4.238   0.026   3.078
 1898SOL    HW2 7622   4.263   0.031   3.171
 1898SOL    HW3 7623   4.252  -0.066   3.055
 1898SOL    MW4 7624   4.243   0.014   3.088
 1899SOL     OW 7625   3.992   0.105   2.991
 1899SOL    HW2 7626   4.078   0.075   3.022
 1899SOL    HW3 7627   3.930   0.058   3.047
 1899SOL    MW4 7628   3.995   0.095   3.003
 1900SOL     OW 7629   4.005   0.351   3.144
 1900SOL    HW2 7630   4.083   0.401   3.121
 1900SOL    HW3 7631   4.018   0.265   3.105
 1900SOL    MW4 7632   4.017   0.347   3.136
 1901SOL     OW 7633   4.251   0.506   3.076
 1901SOL    HW2 7634   4.249   0.597   3.108
 1901SOL    HW3 7635   4.244   0.514   2.981
 1901SOL    MW4 7636   4.249   0.519   3.068
 1902SOL     OW 7637   4.268   0.788   3.162
 1902SOL    HW2 7638   4.184   0.828   3.141
 1902SOL    HW3 7639   4.334   0.852   3.135
 1902SOL    MW4 7640   4.266   0.802   3.155
 1903SOL     OW 7641   3.996   0.886   3.063
 1903SOL    HW2 7642   4.008   0.978   3.085
 1903SOL    HW3 7643   3.984   0.886   2.968
 1903SOL    MW4 7644   3.996   0.898   3.053
 1904SOL     OW 7645   4.051   1.160   3.140
 1904SOL    HW2 7646   4.048   1.179   3.233
 1904SOL    HW3 7647   3.975   1.205   3.103
 1904SOL    MW4 7648   4.041   1.169   3.147
 1905SOL     OW 7649   4.285   1.273   3.036
 1905SOL    HW2 7650   4.203   1.239   3.073
 1905SOL    HW3 7651   4.269   1.276   2.942
 1905SOL    MW4 7652   4.272   1.269   3.029
 1906SOL     OW 7653   4.296   1.555   3.139
 1906SOL    HW2 7654   4.222   1.602   3.101
 1906SOL    HW3 7655   4.289   1.466   3.105
 1906SOL    MW4 7656   4.285   1.549   3.129
 1907SOL     OW 7657   4.081   1.655   3.007
 1907SOL    HW2 7658   4.059   1.736   3.053
 1907SOL    HW3 7659   4.009   1.595   3.027
 1907SOL    MW4 7660   4.069   1.658   3.016
 1908SOL     OW 7661   4.055   1.888   3.133
 1908SOL    HW2 7662   4.128   1.937   3.095
 1908SOL    HW3 7663   3.978   1.941   3.113
 1908SOL    MW4 7664   4.054   1.901   3.126
 1909SOL     OW 7665   4.306   2.034   3.003
 1909SOL    HW2 7666   4.289   2.124   3.030
 1909SOL    HW3 7667   4.286   2.033   2.910
 1909SOL    MW4 7668   4.301   2.046   2.995
 1910SOL     OW 7669   4.282   2.296   3.094
 1910SOL    HW2 7670   4.206   2.350   3.072
 1910SOL    HW3 7671   4.357   2.352   3.076
 1910SOL    MW4 7672   4.282   2.310   3.089
 1911SOL     OW 7673   4.071   2.471   3.044
 1911SOL    HW2 7674   4.080   2.562   3.073
 1911SOL    HW3 7675   3.982   2.446   3.070
 1911SOL    MW4 7676   4.060   2.479   3.052
 1912SOL     OW 7677   4.057   2.740   3.139
 1912SOL    HW2 7678   4.034   2.732   3.232
 1912SOL    HW3 7679   3.983   2.785   3.099
 1912SOL    MW4 7680   4.044   2.745   3.146
 1913SOL     OW 7681   4.285   2.812   3.011
 1913SOL    HW2 7682   4.208   2.787   3.063
 1913SOL    HW3 7683   4.356   2.758   3.046
 1913SOL    MW4 7684   4.284   2.801   3.022
 1914SOL     OW 7685   4.291   3.069   3.100
 1914SOL    HW2 7686   4.207   3.095   3.062
 1914SOL    HW3 7687   4.304   2.979   3.072
 1914SOL    MW4 7688   4.282   3.061   3.091
 1915SOL     OW 7689   4.060   3.196   3.003
 1915SOL    HW2 7690   4.070   3.284   3.041
 1915SOL    HW3 7691   4.048   3.212   2.909
 1915SOL    MW4 7692   4.060   3.210   2.996
 1916SOL     OW 7693   4.060   3.446   3.122
 1916SOL    HW2 7694   4.051   3.431   3.216
 1916SOL    HW3 7695   3.973   3.474   3.094
 1916SOL    MW4 7696   4.047   3.448   3.131
 1917SOL     OW 7697   4.280   3.572   3.017
 1917SOL    HW2 7698   4.270   3.663   3.044
 1917SOL    HW3 7699   4.208   3.526   3.062
 1917SOL    MW4 7700   4.269   3.578   3.027
 1918SOL     OW 7701   4.237   3.837   3.102
 1918SOL    HW2 7702   4.164   3.878   3.056
 1918SOL    HW3 7703   4.312   3.893   3.082
 1918SOL    MW4 7704   4.237   3.850   3.093
 1919SOL     OW 7705   4.039   3.992   2.994
 1919SOL    HW2 7706   4.043   4.074   3.044
 1919SOL    HW3 7707   3.955   3.953   3.019
 1919SOL    MW4 7708   4.029   3.998   3.004
 1920SOL     OW 7709   4.080   4.237   3.108
 1920SOL    HW2 7710   4.069   4.244   3.203
 1920SOL    HW3 7711   4.139   4.308   3.085
 1920SOL    MW4 7712   4.086   4.247   3.117
 1921SOL     OW 7713   4.288   4.425   3.010
 1921SOL    HW2 7714   4.358   4.371   3.047
 1921SOL    HW3 7715   4.295   4.411   2.915
 1921SOL    MW4 7716   4.298   4.416   3.002
 1922SOL     OW 7717   0.209   0.007   3.425
 1922SOL    HW2 7718   0.284   0.046   3.471
 1922SOL    HW3 7719   0.217  -0.087   3.443
 1922SOL    MW4 7720   0.220  -0.001   3.434
 1923SOL     OW 7721   4.443   0.141   3.506
 1923SOL    HW2 7722   4.480   0.218   3.463
 1923SOL    HW3 7723   4.514   0.076   3.504
 1923SOL    MW4 7724   4.457   0.143   3.500
 1924SOL     OW 7725   0.018   0.380   3.391
 1924SOL    HW2 7726  -0.059   0.414   3.437
 1924SOL    HW3 7727   0.092   0.427   3.429
 1924SOL    MW4 7728   0.017   0.391   3.402
 1925SOL     OW 7729   0.236   0.500   3.520
 1925SOL    HW2 7730   0.307   0.459   3.472
 1925SOL    HW3 7731   0.234   0.591   3.489
 1925SOL    MW4 7732   0.245   0.507   3.510
 1926SOL     OW 7733   0.231   0.755   3.433
 1926SOL    HW2 7734   0.293   0.808   3.483
 1926SOL    HW3 7735   0.145   0.787   3.460
 1926SOL    MW4 7736   0.228   0.766   3.443
 1927SOL     OW 7737   4.481   0.860   3.521
 1927SOL    HW2 7738   4.473   0.859   3.617
 1927SOL    HW3 7739   4.498   0.951   3.499
 1927SOL    MW4 7740   4.482   0.872   3.531
 1928SOL     OW 7741   4.483   1.125   3.438
 1928SOL    HW2 7742   4.561   1.170   3.471
 1928SOL    HW3 7743   4.494   1.125   3.343
 1928SOL    MW4 7744   4.495   1.131   3.430
 1929SOL     OW 7745   0.201   1.284   3.521
 1929SOL    HW2 7746   0.282   1.235   3.507
 1929SOL    HW3 7747   0.210   1.362   3.467
 1929SOL    MW4 7748   0.213   1.288   3.512
 1930SOL     OW 7749   0.249   1.518   3.391
 1930SOL    HW2 7750   0.327   1.567   3.419
 1930SOL    HW3 7751   0.247   1.530   3.296
 1930SOL    MW4 7752   0.259   1.526   3.382
 1931SOL     OW 7753   0.040   1.673   3.534
 1931SOL    HW2 7754  -0.035   1.629   3.494
 1931SOL    HW3 7755   0.117   1.627   3.499
 1931SOL    MW4 7756   0.040   1.661   3.524
 1932SOL     OW 7757   4.469   1.927   3.427
 1932SOL    HW2 7758   4.514   1.848   3.458
 1932SOL    HW3 7759   4.474   1.921   3.332
 1932SOL    MW4 7760   4.475   1.916   3.419
 1933SOL     OW 7761   0.202   2.065   3.471
 1933SOL    HW2 7762   0.231   2.058   3.562
 1933SOL    HW3 7763   0.118   2.020   3.469
 1933SOL    MW4 7764   0.195   2.058   3.483
 1934SOL     OW 7765   0.243   2.319   3.379
 1934SOL    HW2 7766   0.173   2.361   3.429
 1934SOL    HW3 7767   0.234   2.226   3.399
 1934SOL    MW4 7768   0.233   2.312   3.388
 1935SOL     OW 7769   0.020   2.434   3.486
 1935SOL    HW2 7770   0.019   2.438   3.581
 1935SOL    HW3 7771  -0.066   2.396   3.464
 1935SOL    MW4 7772   0.008   2.429   3.496
 1936SOL     OW 7773   0.015   2.716   3.440
 1936SOL    HW2 7774   0.100   2.746   3.472
 1936SOL    HW3 7775   0.017   2.621   3.452
 1936SOL    MW4 7776   0.027   2.707   3.446
 1937SOL     OW 7777   0.275   2.802   3.529
 1937SOL    HW2 7778   0.341   2.747   3.487
 1937SOL    HW3 7779   0.277   2.884   3.479
 1937SOL    MW4 7780   0.284   2.806   3.517
 1938SOL     OW 7781   0.229   3.040   3.403
 1938SOL    HW2 7782   0.153   3.082   3.443
 1938SOL    HW3 7783   0.218   3.056   3.309
 1938SOL    MW4 7784   0.217   3.047   3.396
 1939SOL     OW 7785   0.000   3.172   3.512
 1939SOL    HW2 7786  -0.080   3.131   3.477
 1939SOL    HW3 7787  -0.003   3.262   3.479
 1939SOL    MW4 7788  -0.011   3.178   3.503
 1940SOL     OW 7789   4.478   3.425   3.408
 1940SOL    HW2 7790   4.401   3.478   3.428
 1940SOL    HW3 7791   4.482   3.422   3.313
 1940SOL    MW4 7792   4.469   3.431   3.398
 1941SOL     OW 7793   0.199   3.584   3.524
 1941SOL    HW2 7794   0.210   3.557   3.616
 1941SOL    HW3 7795   0.128   3.529   3.492
 1941SOL    MW4 7796   0.191   3.573   3.532
 1942SOL     OW 7797   0.256   3.835   3.421
 1942SOL    HW2 7798   0.181   3.893   3.423
 1942SOL    HW3 7799   0.230   3.760   3.475
 1942SOL    MW4 7800   0.243   3.833   3.428
 1943SOL     OW 7801   4.472   3.982   3.452
 1943SOL    HW2 7802   4.471   3.984   3.547
 1943SOL    HW3 7803   4.488   4.073   3.427
 1943SOL    MW4 7804   4.474   3.995   3.461
 1944SOL     OW 7805   0.023   4.246   3.395
 1944SOL    HW2 7806  -0.054   4.300   3.410
 1944SOL    HW3 7807   0.097   4.306   3.408
 1944SOL    MW4 7808   0.023   4.261   3.399
 1945SOL     OW 7809   0.223   4.411   3.490
 1945SOL    HW2 7810   0.210   4.414   3.584
 1945SOL    HW3 7811   0.297   4.352   3.478
 1945SOL    MW4 7812   0.231   4.404   3.501
 1946SOL     OW 7813   0.691   0.025   3.431
 1946SOL    HW2 7814   0.782   0.044   3.450
 1946SOL    HW3 7815   0.684   0.029   3.336
 1946SOL    MW4 7816   0.702   0.028   3.421
 1947SOL     OW 7817   0.449   0.125   3.534
 1947SOL    HW2 7818   0.463   0.128   3.629
 1947SOL    HW3 7819   0.526   0.078   3.500
 1947SOL    MW4 7820   0.461   0.119   3.542
 1948SOL     OW 7821   0.462   0.372   3.422
 1948SOL    HW2 7822   0.520   0.431   3.470
 1948SOL    HW3 7823   0.471   0.287   3.465
 1948SOL    MW4 7824   0.471   0.369   3.434
 1949SOL     OW 7825   0.697   0.536   3.492
 1949SOL    HW2 7826   0.692   0.522   3.587
 1949SOL    HW3 7827   0.774   0.486   3.465
 1949SOL    MW4 7828   0.706   0.527   3.501
 1950SOL     OW 7829   0.693   0.788   3.389
 1950SOL    HW2 7830   0.620   0.830   3.434
 1950SOL    HW3 7831   0.711   0.709   3.441
 1950SOL    MW4 7832   0.685   0.783   3.402
 1951SOL     OW 7833   0.469   0.890   3.535
 1951SOL    HW2 7834   0.455   0.878   3.629
 1951SOL    HW3 7835   0.449   0.982   3.519
 1951SOL    MW4 7836   0.465   0.901   3.545
 1952SOL     OW 7837   0.447   1.158   3.443
 1952SOL    HW2 7838   0.514   1.220   3.473
 1952SOL    HW3 7839   0.448   1.165   3.348
 1952SOL    MW4 7840   0.456   1.167   3.434
 1953SOL     OW 7841   0.665   1.305   3.532
 1953SOL    HW2 7842   0.743   1.265   3.495
 1953SOL    HW3 7843   0.670   1.397   3.504
 1953SOL    MW4 7844   0.676   1.312   3.523
 1954SOL     OW 7845   0.701   1.551   3.398
 1954SOL    HW2 7846   0.774   1.590   3.447
 1954SOL    HW3 7847   0.632   1.617   3.402
 1954SOL    MW4 7848   0.701   1.565   3.405
 1955SOL     OW 7849   0.482   1.700   3.456
 1955SOL    HW2 7850   0.504   1.674   3.545
 1955SOL    HW3 7851   0.468   1.795   3.461
 1955SOL    MW4 7852   0.483   1.710   3.468
 1956SOL     OW 7853   0.448   1.964   3.391
 1956SOL    HW2 7854   0.357   1.990   3.410
 1956SOL    HW3 7855   0.451   1.960   3.295
 1956SOL    MW4 7856   0.436   1.967   3.381
 1957SOL     OW 7857   0.703   2.036   3.500
 1957SOL    HW2 7858   0.704   2.029   3.596
 1957SOL    HW3 7859   0.610   2.030   3.477
 1957SOL    MW4 7860   0.691   2.034   3.510
 1958SOL     OW 7861   0.698   2.306   3.385
 1958SOL    HW2 7862   0.752   2.376   3.420
 1958SOL    HW3 7863   0.726   2.227   3.432
 1958SOL    MW4 7864   0.709   2.305   3.396
 1959SOL     OW 7865   0.473   2.407   3.506
 1959SOL    HW2 7866   0.549   2.359   3.473
 1959SOL    HW3 7867   0.398   2.372   3.459
 1959SOL    MW4 7868   0.473   2.396   3.496
 1960SOL     OW 7869   0.476   2.670   3.417
 1960SOL    HW2 7870   0.489   2.575   3.417
 1960SOL    HW3 7871   0.474   2.694   3.325
 1960SOL    MW4 7872   0.477   2.661   3.405
 1961SOL     OW 7873   0.692   2.822   3.520
 1961SOL    HW2 7874   0.752   2.773   3.464
 1961SOL    HW3 7875   0.607   2.780   3.507
 1961SOL    MW4 7876   0.689   2.810   3.511
 1962SOL     OW 7877   0.671   3.070   3.411
 1962SOL    HW2 7878   0.598   3.121   3.446
 1962SOL    HW3 7879   0.674   2.991   3.465
 1962SOL    MW4 7880   0.662   3.066   3.423
 1963SOL     OW 7881   0.432   3.207   3.469
 1963SOL    HW2 7882   0.411   3.207   3.563
 1963SOL    HW3 7883   0.363   3.153   3.429
 1963SOL    MW4 7884   0.420   3.199   3.476
 1964SOL     OW 7885   0.407   3.466   3.362
 1964SOL    HW2 7886   0.413   3.379   3.400
 1964SOL    HW3 7887   0.345   3.512   3.418
 1964SOL    MW4 7888   0.400   3.461   3.375
 1965SOL     OW 7889   0.646   3.594   3.438
 1965SOL    HW2 7890   0.727   3.545   3.426
 1965SOL    HW3 7891   0.577   3.533   3.415
 1965SOL    MW4 7892   0.648   3.580   3.434
 1966SOL     OW 7893   0.671   3.853   3.375
 1966SOL    HW2 7894   0.604   3.908   3.414
 1966SOL    HW3 7895   0.643   3.764   3.395
 1966SOL    MW4 7896   0.658   3.848   3.383
 1967SOL     OW 7897   0.468   4.024   3.509
 1967SOL    HW2 7898   0.458   4.109   3.467
 1967SOL    HW3 7899   0.403   3.968   3.466
 1967SOL    MW4 7900   0.458   4.028   3.498
 1968SOL     OW 7901   0.416   4.251   3.376
 1968SOL    HW2 7902   0.489   4.309   3.399
 1968SOL    HW3 7903   0.407   4.261   3.282
 1968SOL    MW4 7904   0.425   4.260   3.367
 1969SOL     OW 7905   0.620   4.414   3.476
 1969SOL    HW2 7906   0.706   4.376   3.456
 1969SOL    HW3 7907   0.632   4.508   3.462
 1969SOL    MW4 7908   0.633   4.422   3.472
 1970SOL     OW 7909   1.171   4.629   3.390
 1970SOL    HW2 7910   1.248   4.676   3.424
 1970SOL    HW3 7911   1.163   4.660   3.300
 1970SOL    MW4 7912   1.180   4.639   3.383
 1971SOL     OW 7913   0.941   0.134   3.457
 1971SOL    HW2 7914   0.940   0.147   3.551
 1971SOL    HW3 7915   1.009   0.068   3.442
 1971SOL    MW4 7916   0.950   0.127   3.467
 1972SOL     OW 7917   0.928   0.407   3.397
 1972SOL    HW2 7918   1.012   0.442   3.426
 1972SOL    HW3 7919   0.932   0.314   3.422
 1972SOL    MW4 7920   0.940   0.399   3.404
 1973SOL     OW 7921   1.147   0.493   3.526
 1973SOL    HW2 7922   1.128   0.499   3.619
 1973SOL    HW3 7923   1.132   0.582   3.493
 1973SOL    MW4 7924   1.142   0.506   3.534
 1974SOL     OW 7925   1.123   0.742   3.406
 1974SOL    HW2 7926   1.205   0.779   3.439
 1974SOL    HW3 7927   1.055   0.801   3.438
 1974SOL    MW4 7928   1.125   0.755   3.415
 1975SOL     OW 7929   0.913   0.906   3.541
 1975SOL    HW2 7930   0.927   0.987   3.492
 1975SOL    HW3 7931   0.825   0.877   3.514
 1975SOL    MW4 7932   0.903   0.913   3.531
 1976SOL     OW 7933   0.885   1.184   3.403
 1976SOL    HW2 7934   0.964   1.232   3.427
 1976SOL    HW3 7935   0.892   1.171   3.308
 1976SOL    MW4 7936   0.896   1.189   3.394
 1977SOL     OW 7937   1.122   1.290   3.451
 1977SOL    HW2 7938   1.135   1.294   3.546
 1977SOL    HW3 7939   1.119   1.382   3.424
 1977SOL    MW4 7940   1.124   1.303   3.460
 1978SOL     OW 7941   1.131   1.552   3.359
 1978SOL    HW2 7942   1.203   1.613   3.377
 1978SOL    HW3 7943   1.124   1.551   3.264
 1978SOL    MW4 7944   1.140   1.560   3.349
 1979SOL     OW 7945   0.925   1.645   3.507
 1979SOL    HW2 7946   0.915   1.732   3.469
 1979SOL    HW3 7947   0.994   1.604   3.454
 1979SOL    MW4 7948   0.933   1.651   3.495
 1980SOL     OW 7949   0.914   1.903   3.402
 1980SOL    HW2 7950   0.986   1.941   3.453
 1980SOL    HW3 7951   0.840   1.960   3.420
 1980SOL    MW4 7952   0.914   1.916   3.411
 1981SOL     OW 7953   1.146   2.047   3.517
 1981SOL    HW2 7954   1.206   2.007   3.453
 1981SOL    HW3 7955   1.148   2.140   3.497
 1981SOL    MW4 7956   1.154   2.054   3.506
 1982SOL     OW 7957   1.155   2.335   3.412
 1982SOL    HW2 7958   1.231   2.382   3.445
 1982SOL    HW3 7959   1.172   2.324   3.319
 1982SOL    MW4 7960   1.167   2.340   3.404
 1983SOL     OW 7961   0.915   2.461   3.514
 1983SOL    HW2 7962   0.912   2.463   3.609
 1983SOL    HW3 7963   1.005   2.434   3.494
 1983SOL    MW4 7964   0.926   2.458   3.524
 1984SOL     OW 7965   0.887   2.699   3.367
 1984SOL    HW2 7966   0.955   2.753   3.406
 1984SOL    HW3 7967   0.894   2.615   3.412
 1984SOL    MW4 7968   0.897   2.695   3.378
 1985SOL     OW 7969   1.101   2.870   3.492
 1985SOL    HW2 7970   1.114   2.874   3.586
 1985SOL    HW3 7971   1.182   2.833   3.457
 1985SOL    MW4 7972   1.113   2.866   3.499
 1986SOL     OW 7973   1.138   3.116   3.385
 1986SOL    HW2 7974   1.123   3.025   3.413
 1986SOL    HW3 7975   1.132   3.112   3.290
 1986SOL    MW4 7976   1.135   3.103   3.376
 1987SOL     OW 7977   0.878   3.222   3.498
 1987SOL    HW2 7978   0.964   3.189   3.473
 1987SOL    HW3 7979   0.816   3.161   3.458
 1987SOL    MW4 7980   0.881   3.209   3.490
 1988SOL     OW 7981   0.893   3.472   3.387
 1988SOL    HW2 7982   0.895   3.382   3.421
 1988SOL    HW3 7983   0.900   3.462   3.293
 1988SOL    MW4 7984   0.894   3.459   3.379
 1989SOL     OW 7985   1.124   3.607   3.482
 1989SOL    HW2 7986   1.120   3.598   3.577
 1989SOL    HW3 7987   1.045   3.564   3.450
 1989SOL    MW4 7988   1.113   3.600   3.490
 1990SOL     OW 7989   1.144   3.868   3.382
 1990SOL    HW2 7990   1.202   3.922   3.435
 1990SOL    HW3 7991   1.145   3.782   3.425
 1990SOL    MW4 7992   1.152   3.864   3.394
 1991SOL     OW 7993   0.908   3.985   3.485
 1991SOL    HW2 7994   0.979   3.936   3.443
 1991SOL    HW3 7995   0.830   3.931   3.470
 1991SOL    MW4 7996   0.907   3.971   3.477
 1992SOL     OW 7997   0.864   4.277   3.408
 1992SOL    HW2 7998   0.892   4.187   3.423
 1992SOL    HW3 7999   0.867   4.288   3.313
 1992SOL    MW4 8000   0.868   4.267   3.397
 1993SOL     OW 8001   1.105   4.376   3.496
 1993SOL    HW2 8002   1.027   4.352   3.446
 1993SOL    HW3 8003   1.126   4.464   3.465
 1993SOL    MW4 8004   1.098   4.385   3.485
 1994SOL     OW 8005   1.583   0.007   3.390
 1994SOL    HW2 8006   1.567  -0.083   3.418
 1994SOL    HW3 8007   1.500   0.053   3.404
 1994SOL    MW4 8008   1.570   0.001   3.396
 1995SOL     OW 8009   1.344   0.150   3.477
 1995SOL    HW2 8010   1.302   0.150   3.563
 1995SOL    HW3 8011   1.344   0.242   3.451
 1995SOL    MW4 8012   1.338   0.162   3.485
 1996SOL     OW 8013   1.374   0.430   3.367
 1996SOL    HW2 8014   1.454   0.464   3.407
 1996SOL    HW3 8015   1.306   0.448   3.432
 1996SOL    MW4 8016   1.376   0.437   3.381
 1997SOL     OW 8017   1.597   0.549   3.478
 1997SOL    HW2 8018   1.595   0.538   3.573
 1997SOL    HW3 8019   1.677   0.505   3.450
 1997SOL    MW4 8020   1.607   0.542   3.487
 1998SOL     OW 8021   1.576   0.788   3.350
 1998SOL    HW2 8022   1.490   0.824   3.369
 1998SOL    HW3 8023   1.578   0.705   3.398
 1998SOL    MW4 8024   1.565   0.782   3.359
 1999SOL     OW 8025   1.348   0.862   3.507
 1999SOL    HW2 8026   1.372   0.860   3.600
 1999SOL    HW3 8027   1.344   0.955   3.486
 1999SOL    MW4 8028   1.351   0.874   3.517
 2000SOL     OW 8029   1.354   1.142   3.404
 2000SOL    HW2 8030   1.417   1.202   3.444
 2000SOL    HW3 8031   1.268   1.179   3.426
 2000SOL    MW4 8032   1.351   1.155   3.412
 2001SOL     OW 8033   1.563   1.299   3.479
 2001SOL    HW2 8034   1.571   1.297   3.574
 2001SOL    HW3 8035   1.630   1.238   3.447
 2001SOL    MW4 8036   1.573   1.291   3.487
 2002SOL     OW 8037   1.545   1.564   3.418
 2002SOL    HW2 8038   1.557   1.473   3.446
 2002SOL    HW3 8039   1.543   1.559   3.322
 2002SOL    MW4 8040   1.546   1.551   3.409
 2003SOL     OW 8041   1.323   1.700   3.484
 2003SOL    HW2 8042   1.315   1.695   3.579
 2003SOL    HW3 8043   1.406   1.656   3.465
 2003SOL    MW4 8044   1.333   1.694   3.494
 2004SOL     OW 8045   1.340   1.950   3.347
 2004SOL    HW2 8046   1.415   1.983   3.395
 2004SOL    HW3 8047   1.324   1.863   3.383
 2004SOL    MW4 8048   1.348   1.943   3.358
 2005SOL     OW 8049   1.571   2.078   3.496
 2005SOL    HW2 8050   1.640   2.020   3.464
 2005SOL    HW3 8051   1.597   2.165   3.464
 2005SOL    MW4 8052   1.584   2.082   3.487
 2006SOL     OW 8053   1.619   2.330   3.404
 2006SOL    HW2 8054   1.534   2.369   3.423
 2006SOL    HW3 8055   1.624   2.329   3.308
 2006SOL    MW4 8056   1.609   2.335   3.394
 2007SOL     OW 8057   1.373   2.468   3.487
 2007SOL    HW2 8058   1.366   2.473   3.583
 2007SOL    HW3 8059   1.384   2.559   3.460
 2007SOL    MW4 8060   1.373   2.481   3.496
 2008SOL     OW 8061   1.348   2.750   3.417
 2008SOL    HW2 8062   1.429   2.799   3.431
 2008SOL    HW3 8063   1.340   2.743   3.322
 2008SOL    MW4 8064   1.358   2.756   3.407
 2009SOL     OW 8065   1.592   2.843   3.484
 2009SOL    HW2 8066   1.668   2.790   3.461
 2009SOL    HW3 8067   1.600   2.922   3.430
 2009SOL    MW4 8068   1.603   2.847   3.474
 2010SOL     OW 8069   1.553   3.086   3.367
 2010SOL    HW2 8070   1.633   3.135   3.386
 2010SOL    HW3 8071   1.484   3.134   3.413
 2010SOL    MW4 8072   1.555   3.099   3.376
 2011SOL     OW 8073   1.364   3.245   3.494
 2011SOL    HW2 8074   1.356   3.222   3.586
 2011SOL    HW3 8075   1.280   3.221   3.455
 2011SOL    MW4 8076   1.352   3.239   3.501
 2012SOL     OW 8077   1.349   3.483   3.379
 2012SOL    HW2 8078   1.362   3.401   3.426
 2012SOL    HW3 8079   1.262   3.512   3.405
 2012SOL    MW4 8080   1.339   3.476   3.388
 2013SOL     OW 8081   1.527   3.647   3.498
 2013SOL    HW2 8082   1.516   3.647   3.594
 2013SOL    HW3 8083   1.452   3.597   3.466
 2013SOL    MW4 8084   1.516   3.640   3.507
 2014SOL     OW 8085   1.577   3.893   3.372
 2014SOL    HW2 8086   1.565   3.808   3.413
 2014SOL    HW3 8087   1.572   3.875   3.278
 2014SOL    MW4 8088   1.575   3.879   3.365
 2015SOL     OW 8089   1.351   4.001   3.504
 2015SOL    HW2 8090   1.366   4.084   3.460
 2015SOL    HW3 8091   1.430   3.950   3.489
 2015SOL    MW4 8092   1.363   4.005   3.497
 2016SOL     OW 8093   1.330   4.252   3.366
 2016SOL    HW2 8094   1.243   4.274   3.400
 2016SOL    HW3 8095   1.324   4.267   3.272
 2016SOL    MW4 8096   1.317   4.257   3.358
 2017SOL     OW 8097   1.556   4.405   3.443
 2017SOL    HW2 8098   1.634   4.354   3.420
 2017SOL    HW3 8099   1.482   4.349   3.415
 2017SOL    MW4 8100   1.556   4.391   3.436
 2018SOL     OW 8101   1.999   0.009   3.355
 2018SOL    HW2 8102   2.077   0.032   3.405
 2018SOL    HW3 8103   1.929   0.062   3.393
 2018SOL    MW4 8104   2.000   0.019   3.366
 2019SOL     OW 8105   1.801   0.169   3.462
 2019SOL    HW2 8106   1.803   0.161   3.558
 2019SOL    HW3 8107   1.725   0.116   3.436
 2019SOL    MW4 8108   1.791   0.161   3.471
 2020SOL     OW 8109   1.822   0.415   3.364
 2020SOL    HW2 8110   1.817   0.324   3.393
 2020SOL    HW3 8111   1.810   0.412   3.269
 2020SOL    MW4 8112   1.820   0.403   3.356
 2021SOL     OW 8113   2.056   0.514   3.510
 2021SOL    HW2 8114   2.050   0.600   3.469
 2021SOL    HW3 8115   1.981   0.466   3.476
 2021SOL    MW4 8116   2.045   0.519   3.500
 2022SOL     OW 8117   2.010   0.753   3.387
 2022SOL    HW2 8118   2.080   0.805   3.427
 2022SOL    HW3 8119   2.021   0.769   3.293
 2022SOL    MW4 8120   2.021   0.762   3.380
 2023SOL     OW 8121   1.779   0.894   3.527
 2023SOL    HW2 8122   1.847   0.839   3.488
 2023SOL    HW3 8123   1.697   0.861   3.489
 2023SOL    MW4 8124   1.777   0.882   3.517
 2024SOL     OW 8125   1.791   1.151   3.396
 2024SOL    HW2 8126   1.870   1.200   3.421
 2024SOL    HW3 8127   1.796   1.071   3.448
 2024SOL    MW4 8128   1.802   1.147   3.406
 2025SOL     OW 8129   2.028   1.285   3.443
 2025SOL    HW2 8130   2.056   1.260   3.531
 2025SOL    HW3 8131   2.041   1.379   3.439
 2025SOL    MW4 8132   2.034   1.294   3.454
 2026SOL     OW 8133   2.025   1.546   3.372
 2026SOL    HW2 8134   2.085   1.598   3.425
 2026SOL    HW3 8135   1.937   1.575   3.399
 2026SOL    MW4 8136   2.021   1.557   3.382
 2027SOL     OW 8137   1.800   1.675   3.454
 2027SOL    HW2 8138   1.799   1.767   3.426
 2027SOL    HW3 8139   1.712   1.643   3.434
 2027SOL    MW4 8140   1.788   1.683   3.448
 2028SOL     OW 8141   1.780   1.943   3.386
 2028SOL    HW2 8142   1.860   1.985   3.416
 2028SOL    HW3 8143   1.792   1.934   3.291
 2028SOL    MW4 8144   1.792   1.947   3.377
 2029SOL     OW 8145   2.011   2.065   3.459
 2029SOL    HW2 8146   2.095   2.019   3.454
 2029SOL    HW3 8147   2.029   2.152   3.424
 2029SOL    MW4 8148   2.025   2.070   3.454
 2030SOL     OW 8149   2.069   2.334   3.384
 2030SOL    HW2 8150   2.141   2.373   3.433
 2030SOL    HW3 8151   2.099   2.335   3.293
 2030SOL    MW4 8152   2.082   2.339   3.379
 2031SOL     OW 8153   1.828   2.465   3.508
 2031SOL    HW2 8154   1.903   2.416   3.475
 2031SOL    HW3 8155   1.752   2.416   3.476
 2031SOL    MW4 8156   1.828   2.452   3.499
 2032SOL     OW 8157   1.782   2.692   3.358
 2032SOL    HW2 8158   1.866   2.727   3.387
 2032SOL    HW3 8159   1.782   2.602   3.390
 2032SOL    MW4 8160   1.793   2.685   3.366
 2033SOL     OW 8161   2.017   2.819   3.405
 2033SOL    HW2 8162   2.028   2.833   3.499
 2033SOL    HW3 8163   1.989   2.904   3.371
 2033SOL    MW4 8164   2.014   2.832   3.413
 2034SOL     OW 8165   1.968   3.082   3.328
 2034SOL    HW2 8166   2.047   3.115   3.371
 2034SOL    HW3 8167   1.899   3.144   3.352
 2034SOL    MW4 8168   1.969   3.094   3.337
 2035SOL     OW 8169   1.775   3.270   3.428
 2035SOL    HW2 8170   1.770   3.269   3.524
 2035SOL    HW3 8171   1.766   3.362   3.405
 2035SOL    MW4 8172   1.773   3.282   3.438
 2036SOL     OW 8173   1.755   3.533   3.365
 2036SOL    HW2 8174   1.675   3.580   3.389
 2036SOL    HW3 8175   1.752   3.527   3.270
 2036SOL    MW4 8176   1.744   3.539   3.356
 2037SOL     OW 8177   2.013   3.571   3.522
 2037SOL    HW2 8178   2.070   3.525   3.461
 2037SOL    HW3 8179   1.928   3.575   3.477
 2037SOL    MW4 8180   2.009   3.565   3.508
 2038SOL     OW 8181   2.045   3.838   3.409
 2038SOL    HW2 8182   1.972   3.899   3.419
 2038SOL    HW3 8183   2.016   3.759   3.454
 2038SOL    MW4 8184   2.032   3.836   3.416
 2039SOL     OW 8185   1.830   4.006   3.435
 2039SOL    HW2 8186   1.822   4.025   3.528
 2039SOL    HW3 8187   1.743   3.976   3.409
 2039SOL    MW4 8188   1.817   4.004   3.444
 2040SOL     OW 8189   1.803   4.255   3.337
 2040SOL    HW2 8190   1.819   4.165   3.364
 2040SOL    HW3 8191   1.789   4.250   3.242
 2040SOL    MW4 8192   1.803   4.243   3.328
 2041SOL     OW 8193   2.022   4.403   3.434
 2041SOL    HW2 8194   1.944   4.355   3.405
 2041SOL    HW3 8195   2.010   4.492   3.399
 2041SOL    MW4 8196   2.010   4.409   3.426
 2042SOL     OW 8197   2.462   4.649   3.395
 2042SOL    HW2 8198   2.449   4.557   3.418
 2042SOL    HW3 8199   2.483   4.647   3.301
 2042SOL    MW4 8200   2.463   4.636   3.385
 2043SOL     OW 8201   2.230   0.123   3.481
 2043SOL    HW2 8202   2.230   0.193   3.415
 2043SOL    HW3 8203   2.313   0.077   3.467
 2043SOL    MW4 8204   2.241   0.126   3.471
 2044SOL     OW 8205   2.263   0.386   3.358
 2044SOL    HW2 8206   2.343   0.397   3.410
 2044SOL    HW3 8207   2.197   0.434   3.407
 2044SOL    MW4 8208   2.265   0.393   3.371
 2045SOL     OW 8209   2.470   0.473   3.523
 2045SOL    HW2 8210   2.549   0.437   3.482
 2045SOL    HW3 8211   2.462   0.561   3.486
 2045SOL    MW4 8212   2.480   0.480   3.513
 2046SOL     OW 8213   2.473   0.741   3.418
 2046SOL    HW2 8214   2.534   0.807   3.450
 2046SOL    HW3 8215   2.493   0.733   3.325
 2046SOL    MW4 8216   2.483   0.748   3.410
 2047SOL     OW 8217   2.249   0.869   3.515
 2047SOL    HW2 8218   2.240   0.943   3.455
 2047SOL    HW3 8219   2.337   0.835   3.498
 2047SOL    MW4 8220   2.259   0.874   3.505
 2048SOL     OW 8221   2.244   1.111   3.365
 2048SOL    HW2 8222   2.318   1.154   3.409
 2048SOL    HW3 8223   2.171   1.172   3.376
 2048SOL    MW4 8224   2.244   1.125   3.372
 2049SOL     OW 8225   2.448   1.263   3.495
 2049SOL    HW2 8226   2.448   1.249   3.590
 2049SOL    HW3 8227   2.529   1.223   3.465
 2049SOL    MW4 8228   2.458   1.256   3.504
 2050SOL     OW 8229   2.465   1.561   3.412
 2050SOL    HW2 8230   2.441   1.476   3.450
 2050SOL    HW3 8231   2.509   1.539   3.330
 2050SOL    MW4 8232   2.467   1.547   3.406
 2051SOL     OW 8233   2.227   1.696   3.506
 2051SOL    HW2 8234   2.215   1.691   3.601
 2051SOL    HW3 8235   2.306   1.645   3.489
 2051SOL    MW4 8236   2.235   1.689   3.516
 2052SOL     OW 8237   2.267   1.946   3.424
 2052SOL    HW2 8238   2.238   1.860   3.451
 2052SOL    HW3 8239   2.254   1.948   3.329
 2052SOL    MW4 8240   2.262   1.935   3.415
 2053SOL     OW 8241   2.492   2.077   3.529
 2053SOL    HW2 8242   2.500   2.066   3.623
 2053SOL    HW3 8243   2.413   2.026   3.506
 2053SOL    MW4 8244   2.482   2.069   3.538
 2054SOL     OW 8245   2.488   2.324   3.409
 2054SOL    HW2 8246   2.561   2.374   3.447
 2054SOL    HW3 8247   2.487   2.242   3.458
 2054SOL    MW4 8248   2.497   2.320   3.421
 2055SOL     OW 8249   2.272   2.467   3.520
 2055SOL    HW2 8250   2.259   2.541   3.461
 2055SOL    HW3 8251   2.351   2.424   3.487
 2055SOL    MW4 8252   2.281   2.471   3.508
 2056SOL     OW 8253   2.257   2.675   3.341
 2056SOL    HW2 8254   2.176   2.722   3.365
 2056SOL    HW3 8255   2.256   2.674   3.245
 2056SOL    MW4 8256   2.246   2.681   3.331
 2057SOL     OW 8257   2.465   2.818   3.476
 2057SOL    HW2 8258   2.450   2.909   3.451
 2057SOL    HW3 8259   2.405   2.768   3.420
 2057SOL    MW4 8260   2.455   2.824   3.466
 2058SOL     OW 8261   2.463   3.095   3.401
 2058SOL    HW2 8262   2.546   3.111   3.446
 2058SOL    HW3 8263   2.487   3.082   3.309
 2058SOL    MW4 8264   2.477   3.096   3.395
 2059SOL     OW 8265   2.200   3.175   3.460
 2059SOL    HW2 8266   2.192   3.183   3.555
 2059SOL    HW3 8267   2.291   3.151   3.445
 2059SOL    MW4 8268   2.211   3.173   3.471
 2060SOL     OW 8269   2.218   3.436   3.379
 2060SOL    HW2 8270   2.219   3.346   3.410
 2060SOL    HW3 8271   2.223   3.430   3.284
 2060SOL    MW4 8272   2.219   3.424   3.371
 2061SOL     OW 8273   2.458   3.546   3.462
 2061SOL    HW2 8274   2.450   3.641   3.453
 2061SOL    HW3 8275   2.377   3.512   3.423
 2061SOL    MW4 8276   2.446   3.554   3.456
 2062SOL     OW 8277   2.468   3.814   3.456
 2062SOL    HW2 8278   2.546   3.863   3.479
 2062SOL    HW3 8279   2.396   3.876   3.469
 2062SOL    MW4 8280   2.469   3.828   3.460
 2063SOL     OW 8281   2.261   3.983   3.490
 2063SOL    HW2 8282   2.263   4.070   3.449
 2063SOL    HW3 8283   2.191   3.936   3.445
 2063SOL    MW4 8284   2.252   3.988   3.479
 2064SOL     OW 8285   2.270   4.244   3.389
 2064SOL    HW2 8286   2.196   4.302   3.407
 2064SOL    HW3 8287   2.276   4.244   3.293
 2064SOL    MW4 8288   2.261   4.252   3.378
 2065SOL     OW 8289   2.486   4.388   3.480
 2065SOL    HW2 8290   2.487   4.389   3.576
 2065SOL    HW3 8291   2.416   4.327   3.458
 2065SOL    MW4 8292   2.477   4.380   3.490
 2066SOL     OW 8293   2.944   4.661   3.383
 2066SOL    HW2 8294   2.857   4.660   3.422
 2066SOL    HW3 8295   2.928   4.647   3.289
 2066SOL    MW4 8296   2.930   4.659   3.375
 2067SOL     OW 8297   2.703   0.067   3.495
 2067SOL    HW2 8298   2.700   0.160   3.473
 2067SOL    HW3 8299   2.614   0.035   3.480
 2067SOL    MW4 8300   2.691   0.075   3.490
 2068SOL     OW 8301   2.695   0.333   3.439
 2068SOL    HW2 8302   2.779   0.374   3.458
 2068SOL    HW3 8303   2.688   0.334   3.343
 2068SOL    MW4 8304   2.705   0.338   3.429
 2069SOL     OW 8305   2.910   0.498   3.489
 2069SOL    HW2 8306   2.901   0.504   3.585
 2069SOL    HW3 8307   2.884   0.584   3.458
 2069SOL    MW4 8308   2.905   0.510   3.498
 2070SOL     OW 8309   2.879   0.757   3.400
 2070SOL    HW2 8310   2.950   0.815   3.428
 2070SOL    HW3 8311   2.799   0.801   3.428
 2070SOL    MW4 8312   2.878   0.771   3.407
 2071SOL     OW 8313   2.672   0.903   3.514
 2071SOL    HW2 8314   2.684   0.905   3.609
 2071SOL    HW3 8315   2.694   0.991   3.485
 2071SOL    MW4 8316   2.676   0.915   3.523
 2072SOL     OW 8317   2.687   1.140   3.389
 2072SOL    HW2 8318   2.759   1.189   3.429
 2072SOL    HW3 8319   2.699   1.153   3.295
 2072SOL    MW4 8320   2.698   1.148   3.382
 2073SOL     OW 8321   2.911   1.275   3.489
 2073SOL    HW2 8322   2.938   1.266   3.581
 2073SOL    HW3 8323   2.984   1.237   3.440
 2073SOL    MW4 8324   2.924   1.269   3.495
 2074SOL     OW 8325   2.867   1.508   3.361
 2074SOL    HW2 8326   2.808   1.562   3.413
 2074SOL    HW3 8327   2.864   1.422   3.404
 2074SOL    MW4 8328   2.859   1.504   3.373
 2075SOL     OW 8329   2.689   1.645   3.532
 2075SOL    HW2 8330   2.699   1.731   3.493
 2075SOL    HW3 8331   2.603   1.614   3.500
 2075SOL    MW4 8332   2.679   1.652   3.523
 2076SOL     OW 8333   2.686   1.904   3.430
 2076SOL    HW2 8334   2.615   1.956   3.467
 2076SOL    HW3 8335   2.672   1.910   3.335
 2076SOL    MW4 8336   2.675   1.912   3.422
 2077SOL     OW 8337   2.886   2.083   3.508
 2077SOL    HW2 8338   2.893   2.074   3.603
 2077SOL    HW3 8339   2.810   2.031   3.484
 2077SOL    MW4 8340   2.877   2.075   3.518
 2078SOL     OW 8341   2.898   2.332   3.402
 2078SOL    HW2 8342   2.889   2.245   3.441
 2078SOL    HW3 8343   2.897   2.316   3.308
 2078SOL    MW4 8344   2.896   2.318   3.395
 2079SOL     OW 8345   2.701   2.469   3.512
 2079SOL    HW2 8346   2.706   2.452   3.606
 2079SOL    HW3 8347   2.768   2.412   3.474
 2079SOL    MW4 8348   2.711   2.459   3.520
 2080SOL     OW 8349   2.690   2.700   3.368
 2080SOL    HW2 8350   2.700   2.622   3.423
 2080SOL    HW3 8351   2.612   2.744   3.401
 2080SOL    MW4 8352   2.681   2.696   3.379
 2081SOL     OW 8353   2.911   2.850   3.480
 2081SOL    HW2 8354   2.935   2.813   3.565
 2081SOL    HW3 8355   2.845   2.789   3.446
 2081SOL    MW4 8356   2.905   2.837   3.487
 2082SOL     OW 8357   2.967   3.097   3.380
 2082SOL    HW2 8358   2.946   3.012   3.417
 2082SOL    HW3 8359   2.965   3.084   3.285
 2082SOL    MW4 8360   2.964   3.084   3.372
 2083SOL     OW 8361   2.711   3.184   3.472
 2083SOL    HW2 8362   2.714   3.190   3.567
 2083SOL    HW3 8363   2.800   3.160   3.446
 2083SOL    MW4 8364   2.724   3.181   3.481
 2084SOL     OW 8365   2.682   3.423   3.355
 2084SOL    HW2 8366   2.680   3.339   3.400
 2084SOL    HW3 8367   2.600   3.466   3.381
 2084SOL    MW4 8368   2.671   3.417   3.364
 2085SOL     OW 8369   2.888   3.561   3.491
 2085SOL    HW2 8370   2.863   3.650   3.468
 2085SOL    HW3 8371   2.824   3.505   3.447
 2085SOL    MW4 8372   2.877   3.565   3.482
 2086SOL     OW 8373   2.894   3.847   3.386
 2086SOL    HW2 8374   2.977   3.883   3.419
 2086SOL    HW3 8375   2.828   3.879   3.448
 2086SOL    MW4 8376   2.896   3.856   3.399
 2087SOL     OW 8377   2.684   3.967   3.526
 2087SOL    HW2 8378   2.684   3.988   3.619
 2087SOL    HW3 8379   2.711   4.048   3.482
 2087SOL    MW4 8380   2.688   3.980   3.532
 2088SOL     OW 8381   2.717   4.249   3.421
 2088SOL    HW2 8382   2.799   4.297   3.435
 2088SOL    HW3 8383   2.649   4.310   3.451
 2088SOL    MW4 8384   2.719   4.264   3.427
 2089SOL     OW 8385   2.953   4.385   3.493
 2089SOL    HW2 8386   2.943   4.382   3.588
 2089SOL    HW3 8387   2.944   4.478   3.471
 2089SOL    MW4 8388   2.951   4.397   3.503
 2090SOL     OW 8389   3.381   4.653   3.409
 2090SOL    HW2 8390   3.305   4.703   3.439
 2090SOL    HW3 8391   3.369   4.646   3.314
 2090SOL    MW4 8392   3.369   4.659   3.401
 2091SOL     OW 8393   3.147   0.133   3.520
 2091SOL    HW2 8394   3.165   0.219   3.481
 2091SOL    HW3 8395   3.083   0.093   3.461
 2091SOL    MW4 8396   3.141   0.139   3.507
 2092SOL     OW 8397   3.150   0.378   3.392
 2092SOL    HW2 8398   3.067   0.413   3.425
 2092SOL    HW3 8399   3.134   0.360   3.300
 2092SOL    MW4 8400   3.137   0.380   3.384
 2093SOL     OW 8401   3.387   0.484   3.528
 2093SOL    HW2 8402   3.368   0.490   3.622
 2093SOL    HW3 8403   3.306   0.452   3.489
 2093SOL    MW4 8404   3.374   0.480   3.535
 2094SOL     OW 8405   3.334   0.754   3.444
 2094SOL    HW2 8406   3.406   0.809   3.475
 2094SOL    HW3 8407   3.361   0.665   3.466
 2094SOL    MW4 8408   3.347   0.750   3.451
 2095SOL     OW 8409   3.098   0.894   3.479
 2095SOL    HW2 8410   3.118   0.981   3.446
 2095SOL    HW3 8411   3.183   0.850   3.485
 2095SOL    MW4 8412   3.112   0.899   3.475
 2096SOL     OW 8413   3.131   1.144   3.381
 2096SOL    HW2 8414   3.207   1.201   3.397
 2096SOL    HW3 8415   3.125   1.139   3.285
 2096SOL    MW4 8416   3.140   1.151   3.370
 2097SOL     OW 8417   3.327   1.293   3.479
 2097SOL    HW2 8418   3.407   1.240   3.475
 2097SOL    HW3 8419   3.356   1.382   3.459
 2097SOL    MW4 8420   3.341   1.297   3.475
 2098SOL     OW 8421   3.374   1.571   3.395
 2098SOL    HW2 8422   3.448   1.620   3.433
 2098SOL    HW3 8423   3.299   1.595   3.449
 2098SOL    MW4 8424   3.374   1.581   3.407
 2099SOL     OW 8425   3.094   1.644   3.509
 2099SOL    HW2 8426   3.087   1.732   3.472
 2099SOL    HW3 8427   3.026   1.594   3.465
 2099SOL    MW4 8428   3.084   1.649   3.499
 2100SOL     OW 8429   3.083   1.901   3.409
 2100SOL    HW2 8430   3.017   1.969   3.423
 2100SOL    HW3 8431   3.114   1.916   3.320
 2100SOL    MW4 8432   3.078   1.912   3.399
 2101SOL     OW 8433   3.319   2.015   3.505
 2101SOL    HW2 8434   3.329   2.105   3.473
 2101SOL    HW3 8435   3.229   1.991   3.484
 2101SOL    MW4 8436   3.309   2.024   3.498
 2102SOL     OW 8437   3.371   2.266   3.387
 2102SOL    HW2 8438   3.448   2.289   3.439
 2102SOL    HW3 8439   3.308   2.336   3.407
 2102SOL    MW4 8440   3.373   2.278   3.397
 2103SOL     OW 8441   3.154   2.440   3.446
 2103SOL    HW2 8442   3.151   2.534   3.431
 2103SOL    HW3 8443   3.063   2.411   3.440
 2103SOL    MW4 8444   3.141   2.448   3.444
 2104SOL     OW 8445   3.125   2.697   3.370
 2104SOL    HW2 8446   3.207   2.740   3.392
 2104SOL    HW3 8447   3.057   2.754   3.406
 2104SOL    MW4 8448   3.127   2.710   3.378
 2105SOL     OW 8449   3.352   2.810   3.483
 2105SOL    HW2 8450   3.425   2.759   3.449
 2105SOL    HW3 8451   3.371   2.900   3.458
 2105SOL    MW4 8452   3.364   2.815   3.475
 2106SOL     OW 8453   3.374   3.080   3.423
 2106SOL    HW2 8454   3.446   3.125   3.466
 2106SOL    HW3 8455   3.294   3.115   3.463
 2106SOL    MW4 8456   3.373   3.090   3.434
 2107SOL     OW 8457   3.163   3.225   3.526
 2107SOL    HW2 8458   3.167   3.318   3.507
 2107SOL    HW3 8459   3.094   3.191   3.469
 2107SOL    MW4 8460   3.154   3.233   3.516
 2108SOL     OW 8461   3.157   3.498   3.404
 2108SOL    HW2 8462   3.068   3.520   3.430
 2108SOL    HW3 8463   3.155   3.500   3.308
 2108SOL    MW4 8464   3.145   3.501   3.394
 2109SOL     OW 8465   3.399   3.600   3.507
 2109SOL    HW2 8466   3.405   3.692   3.483
 2109SOL    HW3 8467   3.320   3.569   3.463
 2109SOL    MW4 8468   3.389   3.608   3.498
 2110SOL     OW 8469   3.382   3.856   3.383
 2110SOL    HW2 8470   3.455   3.906   3.421
 2110SOL    HW3 8471   3.303   3.899   3.418
 2110SOL    MW4 8472   3.381   3.868   3.393
 2111SOL     OW 8473   3.129   3.966   3.450
 2111SOL    HW2 8474   3.154   3.963   3.542
 2111SOL    HW3 8475   3.146   4.057   3.424
 2111SOL    MW4 8476   3.135   3.978   3.458
 2112SOL     OW 8477   3.173   4.230   3.385
 2112SOL    HW2 8478   3.252   4.273   3.417
 2112SOL    HW3 8479   3.102   4.269   3.436
 2112SOL    MW4 8480   3.174   4.241   3.396
 2113SOL     OW 8481   3.396   4.366   3.493
 2113SOL    HW2 8482   3.399   4.356   3.589
 2113SOL    HW3 8483   3.381   4.460   3.480
 2113SOL    MW4 8484   3.394   4.377   3.504
 2114SOL     OW 8485   3.811   4.639   3.438
 2114SOL    HW2 8486   3.739   4.686   3.481
 2114SOL    HW3 8487   3.797   4.654   3.344
 2114SOL    MW4 8488   3.800   4.647   3.431
 2115SOL     OW 8489   3.593   0.123   3.527
 2115SOL    HW2 8490   3.595   0.205   3.477
 2115SOL    HW3 8491   3.517   0.077   3.494
 2115SOL    MW4 8492   3.584   0.128   3.516
 2116SOL     OW 8493   3.590   0.342   3.386
 2116SOL    HW2 8494   3.674   0.377   3.417
 2116SOL    HW3 8495   3.525   0.390   3.437
 2116SOL    MW4 8496   3.593   0.353   3.397
 2117SOL     OW 8497   3.787   0.485   3.513
 2117SOL    HW2 8498   3.782   0.506   3.607
 2117SOL    HW3 8499   3.870   0.438   3.504
 2117SOL    MW4 8500   3.798   0.481   3.524
 2118SOL     OW 8501   3.760   0.748   3.447
 2118SOL    HW2 8502   3.849   0.768   3.474
 2118SOL    HW3 8503   3.750   0.654   3.462
 2118SOL    MW4 8504   3.770   0.738   3.453
 2119SOL     OW 8505   3.570   0.933   3.520
 2119SOL    HW2 8506   3.567   0.923   3.615
 2119SOL    HW3 8507   3.644   0.878   3.493
 2119SOL    MW4 8508   3.580   0.924   3.529
 2120SOL     OW 8509   3.569   1.162   3.380
 2120SOL    HW2 8510   3.579   1.077   3.423
 2120SOL    HW3 8511   3.578   1.144   3.287
 2120SOL    MW4 8512   3.571   1.148   3.374
 2121SOL     OW 8513   3.801   1.274   3.492
 2121SOL    HW2 8514   3.784   1.292   3.585
 2121SOL    HW3 8515   3.721   1.231   3.461
 2121SOL    MW4 8516   3.788   1.271   3.500
 2122SOL     OW 8517   3.818   1.549   3.383
 2122SOL    HW2 8518   3.883   1.595   3.436
 2122SOL    HW3 8519   3.815   1.461   3.420
 2122SOL    MW4 8520   3.826   1.543   3.395
 2123SOL     OW 8521   3.591   1.703   3.489
 2123SOL    HW2 8522   3.574   1.780   3.434
 2123SOL    HW3 8523   3.661   1.656   3.444
 2123SOL    MW4 8524   3.598   1.707   3.476
 2124SOL     OW 8525   3.552   1.927   3.332
 2124SOL    HW2 8526   3.627   1.961   3.381
 2124SOL    HW3 8527   3.476   1.968   3.375
 2124SOL    MW4 8528   3.552   1.937   3.344
 2125SOL     OW 8529   3.760   2.024   3.490
 2125SOL    HW2 8530   3.785   2.029   3.582
 2125SOL    HW3 8531   3.836   1.986   3.447
 2125SOL    MW4 8532   3.773   2.020   3.497
 2126SOL     OW 8533   3.835   2.281   3.356
 2126SOL    HW2 8534   3.903   2.333   3.398
 2126SOL    HW3 8535   3.817   2.210   3.418
 2126SOL    MW4 8536   3.841   2.279   3.370
 2127SOL     OW 8537   3.611   2.403   3.483
 2127SOL    HW2 8538   3.595   2.481   3.430
 2127SOL    HW3 8539   3.689   2.364   3.445
 2127SOL    MW4 8540   3.619   2.408   3.471
 2128SOL     OW 8541   3.565   2.657   3.389
 2128SOL    HW2 8542   3.627   2.703   3.446
 2128SOL    HW3 8543   3.602   2.665   3.302
 2128SOL    MW4 8544   3.578   2.664   3.385
 2129SOL     OW 8545   3.789   2.793   3.513
 2129SOL    HW2 8546   3.794   2.808   3.607
 2129SOL    HW3 8547   3.818   2.875   3.474
 2129SOL    MW4 8548   3.794   2.806   3.520
 2130SOL     OW 8549   3.839   3.047   3.413
 2130SOL    HW2 8550   3.896   3.104   3.464
 2130SOL    HW3 8551   3.856   3.073   3.322
 2130SOL    MW4 8552   3.849   3.058   3.408
 2131SOL     OW 8553   3.616   3.177   3.501
 2131SOL    HW2 8554   3.619   3.266   3.465
 2131SOL    HW3 8555   3.694   3.135   3.466
 2131SOL    MW4 8556   3.626   3.183   3.492
 2132SOL     OW 8557   3.592   3.442   3.406
 2132SOL    HW2 8558   3.522   3.500   3.436
 2132SOL    HW3 8559   3.582   3.439   3.311
 2132SOL    MW4 8560   3.581   3.449   3.397
 2133SOL     OW 8561   3.831   3.564   3.476
 2133SOL    HW2 8562   3.842   3.566   3.571
 2133SOL    HW3 8563   3.746   3.523   3.462
 2133SOL    MW4 8564   3.821   3.559   3.486
 2134SOL     OW 8565   3.843   3.835   3.401
 2134SOL    HW2 8566   3.755   3.867   3.419
 2134SOL    HW3 8567   3.841   3.742   3.426
 2134SOL    MW4 8568   3.831   3.827   3.407
 2135SOL     OW 8569   3.601   3.983   3.477
 2135SOL    HW2 8570   3.620   3.991   3.571
 2135SOL    HW3 8571   3.603   4.073   3.445
 2135SOL    MW4 8572   3.604   3.996   3.486
 2136SOL     OW 8573   3.631   4.235   3.382
 2136SOL    HW2 8574   3.559   4.272   3.433
 2136SOL    HW3 8575   3.605   4.250   3.291
 2136SOL    MW4 8576   3.618   4.242   3.377
 2137SOL     OW 8577   3.846   4.379   3.484
 2137SOL    HW2 8578   3.777   4.317   3.465
 2137SOL    HW3 8579   3.815   4.463   3.449
 2137SOL    MW4 8580   3.833   4.382   3.477
 2138SOL     OW 8581   4.267   4.658   3.353
 2138SOL    HW2 8582   4.300   4.576   3.391
 2138SOL    HW3 8583   4.320   4.726   3.396
 2138SOL    MW4 8584   4.278   4.656   3.364
 2139SOL     OW 8585   4.043   0.086   3.516
 2139SOL    HW2 8586   4.113   0.043   3.467
 2139SOL    HW3 8587   3.964   0.036   3.493
 2139SOL    MW4 8588   4.041   0.073   3.507
 2140SOL     OW 8589   4.037   0.360   3.427
 2140SOL    HW2 8590   4.024   0.273   3.465
 2140SOL    HW3 8591   4.015   0.349   3.334
 2140SOL    MW4 8592   4.032   0.347   3.420
 2141SOL     OW 8593   4.287   0.477   3.524
 2141SOL    HW2 8594   4.276   0.565   3.488
 2141SOL    HW3 8595   4.202   0.434   3.511
 2141SOL    MW4 8596   4.274   0.483   3.517
 2142SOL     OW 8597   4.249   0.739   3.443
 2142SOL    HW2 8598   4.325   0.780   3.485
 2142SOL    HW3 8599   4.254   0.766   3.352
 2142SOL    MW4 8600   4.260   0.748   3.437
 2143SOL     OW 8601   4.001   0.879   3.490
 2143SOL    HW2 8602   4.022   0.963   3.449
 2143SOL    HW3 8603   4.083   0.829   3.484
 2143SOL    MW4 8604   4.015   0.883   3.484
 2144SOL     OW 8605   4.026   1.158   3.422
 2144SOL    HW2 8606   4.093   1.204   3.472
 2144SOL    HW3 8607   3.943   1.191   3.456
 2144SOL    MW4 8608   4.024   1.168   3.433
 2145SOL     OW 8609   4.261   1.272   3.535
 2145SOL    HW2 8610   4.266   1.365   3.513
 2145SOL    HW3 8611   4.332   1.231   3.485
 2145SOL    MW4 8612   4.271   1.279   3.525
 2146SOL     OW 8613   4.322   1.537   3.423
 2146SOL    HW2 8614   4.235   1.566   3.451
 2146SOL    HW3 8615   4.323   1.553   3.329
 2146SOL    MW4 8616   4.310   1.543   3.415
 2147SOL     OW 8617   4.055   1.643   3.507
 2147SOL    HW2 8618   4.057   1.637   3.602
 2147SOL    HW3 8619   4.036   1.735   3.488
 2147SOL    MW4 8620   4.053   1.654   3.517
 2148SOL     OW 8621   3.988   1.887   3.407
 2148SOL    HW2 8622   4.057   1.941   3.446
 2148SOL    HW3 8623   4.020   1.867   3.319
 2148SOL    MW4 8624   4.001   1.891   3.401
 2149SOL     OW 8625   4.224   2.038   3.454
 2149SOL    HW2 8626   4.246   2.123   3.416
 2149SOL    HW3 8627   4.300   1.983   3.436
 2149SOL    MW4 8628   4.237   2.042   3.447
 2150SOL     OW 8629   4.262   2.340   3.383
 2150SOL    HW2 8630   4.178   2.361   3.423
 2150SOL    HW3 8631   4.243   2.336   3.289
 2150SOL    MW4 8632   4.248   2.342   3.375
 2151SOL     OW 8633   4.021   2.425   3.482
 2151SOL    HW2 8634   4.021   2.425   3.578
 2151SOL    HW3 8635   4.016   2.517   3.458
 2151SOL    MW4 8636   4.020   2.437   3.492
 2152SOL     OW 8637   4.042   2.707   3.414
 2152SOL    HW2 8638   4.119   2.744   3.456
 2152SOL    HW3 8639   3.968   2.738   3.467
 2152SOL    MW4 8640   4.042   2.716   3.427
 2153SOL     OW 8641   4.265   2.831   3.503
 2153SOL    HW2 8642   4.270   2.834   3.599
 2153SOL    HW3 8643   4.347   2.790   3.477
 2153SOL    MW4 8644   4.277   2.826   3.512
 2154SOL     OW 8645   4.262   3.084   3.396
 2154SOL    HW2 8646   4.261   2.988   3.405
 2154SOL    HW3 8647   4.272   3.099   3.302
 2154SOL    MW4 8648   4.263   3.073   3.384
 2155SOL     OW 8649   4.054   3.190   3.535
 2155SOL    HW2 8650   4.057   3.272   3.486
 2155SOL    HW3 8651   4.127   3.139   3.500
 2155SOL    MW4 8652   4.064   3.194   3.524
 2156SOL     OW 8653   4.056   3.423   3.395
 2156SOL    HW2 8654   4.125   3.474   3.438
 2156SOL    HW3 8655   3.975   3.470   3.416
 2156SOL    MW4 8656   4.054   3.436   3.404
 2157SOL     OW 8657   4.254   3.579   3.504
 2157SOL    HW2 8658   4.242   3.603   3.596
 2157SOL    HW3 8659   4.253   3.663   3.457
 2157SOL    MW4 8660   4.252   3.593   3.510
 2158SOL     OW 8661   4.220   3.826   3.381
 2158SOL    HW2 8662   4.297   3.880   3.401
 2158SOL    HW3 8663   4.211   3.830   3.286
 2158SOL    MW4 8664   4.229   3.834   3.371
 2159SOL     OW 8665   4.053   3.998   3.494
 2159SOL    HW2 8666   4.125   3.944   3.463
 2159SOL    HW3 8667   3.974   3.952   3.467
 2159SOL    MW4 8668   4.052   3.985   3.486
 2160SOL     OW 8669   4.060   4.250   3.379
 2160SOL    HW2 8670   4.056   4.166   3.424
 2160SOL    HW3 8671   3.985   4.299   3.413
 2160SOL    MW4 8672   4.050   4.245   3.389
 2161SOL     OW 8673   4.283   4.383   3.460
 2161SOL    HW2 8674   4.276   4.377   3.555
 2161SOL    HW3 8675   4.210   4.331   3.426
 2161SOL    MW4 8676   4.273   4.376   3.468
 2162SOL     OW 8677   0.226   0.005   3.867
 2162SOL    HW2 8678   0.224   0.024   3.961
 2162SOL    HW3 8679   0.147   0.047   3.833
 2162SOL    MW4 8680   0.215   0.013   3.875
 2163SOL     OW 8681   4.483   0.116   3.770
 2163SOL    HW2 8682   4.479   0.207   3.798
 2163SOL    HW3 8683   4.463   0.119   3.676
 2163SOL    MW4 8684   4.479   0.128   3.761
 2164SOL     OW 8685   0.033   0.375   3.857
 2164SOL    HW2 8686  -0.042   0.431   3.836
 2164SOL    HW3 8687   0.109   0.425   3.828
 2164SOL    MW4 8688   0.033   0.389   3.850
 2165SOL     OW 8689   0.272   0.517   3.816
 2165SOL    HW2 8690   0.244   0.604   3.843
 2165SOL    HW3 8691   0.284   0.523   3.721
 2165SOL    MW4 8692   0.270   0.529   3.807
 2166SOL     OW 8693   0.216   0.770   3.884
 2166SOL    HW2 8694   0.212   0.774   3.980
 2166SOL    HW3 8695   0.132   0.806   3.856
 2166SOL    MW4 8696   0.204   0.775   3.893
 2167SOL     OW 8697   4.451   0.861   3.826
 2167SOL    HW2 8698   4.387   0.819   3.885
 2167SOL    HW3 8699   4.458   0.951   3.859
 2167SOL    MW4 8700   4.443   0.867   3.838
 2168SOL     OW 8701   0.022   1.113   3.920
 2168SOL    HW2 8702  -0.051   1.161   3.879
 2168SOL    HW3 8703   0.100   1.151   3.881
 2168SOL    MW4 8704   0.022   1.125   3.910
 2169SOL     OW 8705   0.242   1.240   3.786
 2169SOL    HW2 8706   0.242   1.328   3.825
 2169SOL    HW3 8707   0.219   1.255   3.694
 2169SOL    MW4 8708   0.239   1.254   3.779
 2170SOL     OW 8709   0.295   1.526   3.871
 2170SOL    HW2 8710   0.289   1.527   3.966
 2170SOL    HW3 8711   0.214   1.569   3.842
 2170SOL    MW4 8712   0.284   1.532   3.879
 2171SOL     OW 8713   0.045   1.643   3.802
 2171SOL    HW2 8714   0.053   1.731   3.838
 2171SOL    HW3 8715   0.033   1.657   3.708
 2171SOL    MW4 8716   0.044   1.656   3.794
 2172SOL     OW 8717   0.049   1.922   3.809
 2172SOL    HW2 8718   0.047   1.930   3.905
 2172SOL    HW3 8719  -0.041   1.940   3.782
 2172SOL    MW4 8720   0.037   1.925   3.818
 2173SOL     OW 8721   0.270   2.053   3.740
 2173SOL    HW2 8722   0.262   2.143   3.774
 2173SOL    HW3 8723   0.187   2.011   3.764
 2173SOL    MW4 8724   0.258   2.060   3.748
 2174SOL     OW 8725   0.234   2.316   3.829
 2174SOL    HW2 8726   0.232   2.301   3.924
 2174SOL    HW3 8727   0.154   2.365   3.811
 2174SOL    MW4 8728   0.223   2.320   3.839
 2175SOL     OW 8729   0.001   2.450   3.766
 2175SOL    HW2 8730  -0.075   2.396   3.788
 2175SOL    HW3 8731  -0.017   2.535   3.806
 2175SOL    MW4 8732  -0.011   2.454   3.774
 2176SOL     OW 8733   4.482   2.706   3.891
 2176SOL    HW2 8734   4.503   2.694   3.984
 2176SOL    HW3 8735   4.566   2.734   3.852
 2176SOL    MW4 8736   4.496   2.708   3.898
 2177SOL     OW 8737   0.225   2.810   3.799
 2177SOL    HW2 8738   0.309   2.786   3.839
 2177SOL    HW3 8739   0.239   2.798   3.705
 2177SOL    MW4 8740   0.238   2.805   3.792
 2178SOL     OW 8741   0.211   3.078   3.860
 2178SOL    HW2 8742   0.230   3.087   3.954
 2178SOL    HW3 8743   0.216   2.985   3.843
 2178SOL    MW4 8744   0.214   3.067   3.870
 2179SOL     OW 8745   4.463   3.216   3.789
 2179SOL    HW2 8746   4.546   3.176   3.819
 2179SOL    HW3 8747   4.455   3.186   3.699
 2179SOL    MW4 8748   4.473   3.207   3.781
 2180SOL     OW 8749   4.446   3.494   3.840
 2180SOL    HW2 8750   4.536   3.529   3.842
 2180SOL    HW3 8751   4.457   3.401   3.821
 2180SOL    MW4 8752   4.459   3.487   3.838
 2181SOL     OW 8753   0.202   3.581   3.810
 2181SOL    HW2 8754   0.285   3.553   3.847
 2181SOL    HW3 8755   0.203   3.676   3.818
 2181SOL    MW4 8756   0.213   3.590   3.816
 2182SOL     OW 8757   0.197   3.863   3.848
 2182SOL    HW2 8758   0.199   3.862   3.944
 2182SOL    HW3 8759   0.280   3.904   3.823
 2182SOL    MW4 8760   0.208   3.868   3.857
 2183SOL     OW 8761   4.486   3.989   3.725
 2183SOL    HW2 8762   4.400   3.960   3.757
 2183SOL    HW3 8763   4.549   3.930   3.766
 2183SOL    MW4 8764   4.483   3.977   3.734
 2184SOL     OW 8765   0.010   4.231   3.876
 2184SOL    HW2 8766   0.092   4.278   3.861
 2184SOL    HW3 8767   0.018   4.151   3.824
 2184SOL    MW4 8768   0.022   4.227   3.867
 2185SOL     OW 8769   0.213   4.402   3.762
 2185SOL    HW2 8770   0.293   4.358   3.789
 2185SOL    HW3 8771   0.214   4.485   3.809
 2185SOL    MW4 8772   0.224   4.407   3.772
 2186SOL     OW 8773   0.672   4.666   3.886
 2186SOL    HW2 8774   0.638   4.582   3.855
 2186SOL    HW3 8775   0.600   4.728   3.872
 2186SOL    MW4 8776   0.658   4.663   3.880
 2187SOL     OW 8777   0.443   0.145   3.809
 2187SOL    HW2 8778   0.446   0.221   3.867
 2187SOL    HW3 8779   0.365   0.096   3.836
 2187SOL    MW4 8780   0.434   0.148   3.820
 2188SOL     OW 8781   0.472   0.397   3.951
 2188SOL    HW2 8782   0.542   0.433   3.898
 2188SOL    HW3 8783   0.392   0.434   3.913
 2188SOL    MW4 8784   0.470   0.407   3.939
 2189SOL     OW 8785   0.648   0.483   3.759
 2189SOL    HW2 8786   0.734   0.446   3.780
 2189SOL    HW3 8787   0.652   0.573   3.791
 2189SOL    MW4 8788   0.660   0.490   3.766
 2190SOL     OW 8789   0.683   0.741   3.889
 2190SOL    HW2 8790   0.755   0.803   3.878
 2190SOL    HW3 8791   0.606   0.789   3.858
 2190SOL    MW4 8792   0.682   0.756   3.883
 2191SOL     OW 8793   0.453   0.874   3.802
 2191SOL    HW2 8794   0.460   0.964   3.834
 2191SOL    HW3 8795   0.369   0.843   3.837
 2191SOL    MW4 8796   0.443   0.882   3.811
 2192SOL     OW 8797   0.469   1.132   3.887
 2192SOL    HW2 8798   0.544   1.189   3.872
 2192SOL    HW3 8799   0.393   1.185   3.860
 2192SOL    MW4 8800   0.469   1.147   3.882
 2193SOL     OW 8801   0.668   1.318   3.813
 2193SOL    HW2 8802   0.746   1.270   3.839
 2193SOL    HW3 8803   0.660   1.303   3.718
 2193SOL    MW4 8804   0.677   1.310   3.804
 2194SOL     OW 8805   0.727   1.566   3.902
 2194SOL    HW2 8806   0.799   1.604   3.851
 2194SOL    HW3 8807   0.714   1.479   3.865
 2194SOL    MW4 8808   0.735   1.560   3.891
 2195SOL     OW 8809   0.499   1.676   3.753
 2195SOL    HW2 8810   0.571   1.634   3.799
 2195SOL    HW3 8811   0.420   1.638   3.792
 2195SOL    MW4 8812   0.498   1.665   3.764
 2196SOL     OW 8813   0.471   1.919   3.879
 2196SOL    HW2 8814   0.478   1.836   3.831
 2196SOL    HW3 8815   0.400   1.966   3.837
 2196SOL    MW4 8816   0.463   1.914   3.867
 2197SOL     OW 8817   0.714   2.037   3.776
 2197SOL    HW2 8818   0.707   2.129   3.804
 2197SOL    HW3 8819   0.635   1.996   3.811
 2197SOL    MW4 8820   0.703   2.044   3.785
 2198SOL     OW 8821   0.680   2.305   3.851
 2198SOL    HW2 8822   0.755   2.365   3.857
 2198SOL    HW3 8823   0.608   2.360   3.821
 2198SOL    MW4 8824   0.681   2.320   3.848
 2199SOL     OW 8825   0.453   2.478   3.800
 2199SOL    HW2 8826   0.375   2.427   3.822
 2199SOL    HW3 8827   0.467   2.462   3.707
 2199SOL    MW4 8828   0.445   2.469   3.791
 2200SOL     OW 8829   0.469   2.718   3.914
 2200SOL    HW2 8830   0.554   2.749   3.882
 2200SOL    HW3 8831   0.463   2.627   3.883
 2200SOL    MW4 8832   0.479   2.710   3.906
 2201SOL     OW 8833   0.688   2.852   3.792
 2201SOL    HW2 8834   0.763   2.803   3.826
 2201SOL    HW3 8835   0.690   2.836   3.697
 2201SOL    MW4 8836   0.698   2.843   3.784
 2202SOL     OW 8837   0.661   3.100   3.865
 2202SOL    HW2 8838   0.671   3.086   3.959
 2202SOL    HW3 8839   0.664   3.012   3.827
 2202SOL    MW4 8840   0.663   3.087   3.873
 2203SOL     OW 8841   0.413   3.229   3.757
 2203SOL    HW2 8842   0.487   3.193   3.805
 2203SOL    HW3 8843   0.337   3.180   3.789
 2203SOL    MW4 8844   0.413   3.218   3.767
 2204SOL     OW 8845   0.463   3.476   3.855
 2204SOL    HW2 8846   0.533   3.520   3.805
 2204SOL    HW3 8847   0.439   3.401   3.801
 2204SOL    MW4 8848   0.469   3.472   3.841
 2205SOL     OW 8849   0.657   3.613   3.718
 2205SOL    HW2 8850   0.674   3.705   3.736
 2205SOL    HW3 8851   0.657   3.607   3.622
 2205SOL    MW4 8852   0.659   3.624   3.708
 2206SOL     OW 8853   0.668   3.873   3.842
 2206SOL    HW2 8854   0.660   3.870   3.937
 2206SOL    HW3 8855   0.746   3.927   3.826
 2206SOL    MW4 8856   0.677   3.880   3.852
 2207SOL     OW 8857   0.436   4.003   3.778
 2207SOL    HW2 8858   0.516   3.956   3.799
 2207SOL    HW3 8859   0.438   4.015   3.683
 2207SOL    MW4 8860   0.447   3.999   3.769
 2208SOL     OW 8861   0.435   4.272   3.866
 2208SOL    HW2 8862   0.510   4.325   3.842
 2208SOL    HW3 8863   0.456   4.184   3.833
 2208SOL    MW4 8864   0.448   4.267   3.858
 2209SOL     OW 8865   0.641   4.422   3.763
 2209SOL    HW2 8866   0.724   4.386   3.793
 2209SOL    HW3 8867   0.646   4.420   3.668
 2209SOL    MW4 8868   0.652   4.417   3.755
 2210SOL     OW 8869   1.095   0.019   3.849
 2210SOL    HW2 8870   1.175   0.067   3.825
 2210SOL    HW3 8871   1.108  -0.068   3.810
 2210SOL    MW4 8872   1.107   0.014   3.840
 2211SOL     OW 8873   0.875   0.140   3.735
 2211SOL    HW2 8874   0.953   0.087   3.756
 2211SOL    HW3 8875   0.801   0.084   3.757
 2211SOL    MW4 8876   0.876   0.126   3.740
 2212SOL     OW 8877   0.899   0.396   3.825
 2212SOL    HW2 8878   0.875   0.377   3.916
 2212SOL    HW3 8879   0.905   0.310   3.783
 2212SOL    MW4 8880   0.897   0.382   3.831
 2213SOL     OW 8881   1.115   0.561   3.797
 2213SOL    HW2 8882   1.188   0.502   3.815
 2213SOL    HW3 8883   1.036   0.509   3.813
 2213SOL    MW4 8884   1.114   0.547   3.802
 2214SOL     OW 8885   1.171   0.812   3.890
 2214SOL    HW2 8886   1.176   0.815   3.985
 2214SOL    HW3 8887   1.146   0.722   3.870
 2214SOL    MW4 8888   1.168   0.801   3.900
 2215SOL     OW 8889   0.921   0.888   3.818
 2215SOL    HW2 8890   1.004   0.854   3.852
 2215SOL    HW3 8891   0.926   0.872   3.723
 2215SOL    MW4 8892   0.933   0.881   3.810
 2216SOL     OW 8893   0.912   1.178   3.856
 2216SOL    HW2 8894   0.895   1.191   3.950
 2216SOL    HW3 8895   0.928   1.084   3.847
 2216SOL    MW4 8896   0.912   1.168   3.867
 2217SOL     OW 8897   1.134   1.288   3.734
 2217SOL    HW2 8898   1.148   1.374   3.775
 2217SOL    HW3 8899   1.052   1.257   3.772
 2217SOL    MW4 8900   1.125   1.295   3.745
 2218SOL     OW 8901   1.173   1.525   3.883
 2218SOL    HW2 8902   1.164   1.509   3.977
 2218SOL    HW3 8903   1.228   1.603   3.877
 2218SOL    MW4 8904   1.179   1.533   3.894
 2219SOL     OW 8905   0.951   1.689   3.777
 2219SOL    HW2 8906   1.020   1.633   3.812
 2219SOL    HW3 8907   0.934   1.654   3.689
 2219SOL    MW4 8908   0.958   1.677   3.770
 2220SOL     OW 8909   0.961   1.936   3.936
 2220SOL    HW2 8910   0.956   1.849   3.896
 2220SOL    HW3 8911   0.882   1.981   3.907
 2220SOL    MW4 8912   0.950   1.931   3.927
 2221SOL     OW 8913   1.157   2.071   3.795
 2221SOL    HW2 8914   1.088   2.016   3.831
 2221SOL    HW3 8915   1.157   2.051   3.701
 2221SOL    MW4 8916   1.148   2.061   3.787
 2222SOL     OW 8917   1.150   2.334   3.861
 2222SOL    HW2 8918   1.157   2.326   3.957
 2222SOL    HW3 8919   1.151   2.244   3.829
 2222SOL    MW4 8920   1.151   2.321   3.870
 2223SOL     OW 8921   0.911   2.452   3.789
 2223SOL    HW2 8922   0.926   2.534   3.836
 2223SOL    HW3 8923   0.994   2.405   3.797
 2223SOL    MW4 8924   0.924   2.456   3.796
 2224SOL     OW 8925   0.898   2.711   3.913
 2224SOL    HW2 8926   0.898   2.713   4.008
 2224SOL    HW3 8927   0.969   2.770   3.887
 2224SOL    MW4 8928   0.907   2.719   3.922
 2225SOL     OW 8929   1.104   2.882   3.777
 2225SOL    HW2 8930   1.175   2.820   3.794
 2225SOL    HW3 8931   1.124   2.958   3.832
 2225SOL    MW4 8932   1.116   2.884   3.786
 2226SOL     OW 8933   1.112   3.126   3.913
 2226SOL    HW2 8934   1.188   3.155   3.863
 2226SOL    HW3 8935   1.039   3.178   3.880
 2226SOL    MW4 8936   1.112   3.137   3.902
 2227SOL     OW 8937   0.892   3.246   3.794
 2227SOL    HW2 8938   0.826   3.180   3.818
 2227SOL    HW3 8939   0.888   3.251   3.699
 2227SOL    MW4 8940   0.883   3.238   3.785
 2228SOL     OW 8941   0.861   3.517   3.872
 2228SOL    HW2 8942   0.865   3.432   3.829
 2228SOL    HW3 8943   0.793   3.565   3.825
 2228SOL    MW4 8944   0.853   3.512   3.860
 2229SOL     OW 8945   1.110   3.611   3.759
 2229SOL    HW2 8946   1.129   3.701   3.787
 2229SOL    HW3 8947   1.020   3.596   3.786
 2229SOL    MW4 8948   1.101   3.621   3.766
 2230SOL     OW 8949   1.088   3.869   3.864
 2230SOL    HW2 8950   1.094   3.858   3.959
 2230SOL    HW3 8951   1.165   3.920   3.840
 2230SOL    MW4 8952   1.099   3.875   3.873
 2231SOL     OW 8953   0.884   4.041   3.764
 2231SOL    HW2 8954   0.947   4.004   3.826
 2231SOL    HW3 8955   0.910   4.005   3.679
 2231SOL    MW4 8956   0.896   4.031   3.761
 2232SOL     OW 8957   0.884   4.299   3.869
 2232SOL    HW2 8958   0.868   4.287   3.962
 2232SOL    HW3 8959   0.886   4.210   3.833
 2232SOL    MW4 8960   0.882   4.286   3.876
 2233SOL     OW 8961   1.120   4.402   3.779
 2233SOL    HW2 8962   1.035   4.376   3.817
 2233SOL    HW3 8963   1.117   4.370   3.689
 2233SOL    MW4 8964   1.108   4.394   3.772
 2234SOL     OW 8965   1.571   0.015   3.794
 2234SOL    HW2 8966   1.558   0.026   3.888
 2234SOL    HW3 8967   1.564  -0.080   3.780
 2234SOL    MW4 8968   1.569   0.004   3.804
 2235SOL     OW 8969   1.321   0.148   3.750
 2235SOL    HW2 8970   1.335   0.239   3.775
 2235SOL    HW3 8971   1.408   0.109   3.751
 2235SOL    MW4 8972   1.334   0.155   3.754
 2236SOL     OW 8973   1.335   0.411   3.847
 2236SOL    HW2 8974   1.348   0.400   3.941
 2236SOL    HW3 8975   1.413   0.458   3.818
 2236SOL    MW4 8976   1.347   0.416   3.856
 2237SOL     OW 8977   1.574   0.521   3.746
 2237SOL    HW2 8978   1.635   0.465   3.794
 2237SOL    HW3 8979   1.592   0.610   3.779
 2237SOL    MW4 8980   1.584   0.526   3.757
 2238SOL     OW 8981   1.637   0.776   3.849
 2238SOL    HW2 8982   1.709   0.836   3.827
 2238SOL    HW3 8983   1.558   0.826   3.829
 2238SOL    MW4 8984   1.636   0.791   3.844
 2239SOL     OW 8985   1.407   0.895   3.797
 2239SOL    HW2 8986   1.392   0.982   3.835
 2239SOL    HW3 8987   1.333   0.843   3.828
 2239SOL    MW4 8988   1.395   0.900   3.806
 2240SOL     OW 8989   1.343   1.171   3.886
 2240SOL    HW2 8990   1.414   1.207   3.833
 2240SOL    HW3 8991   1.263   1.203   3.844
 2240SOL    MW4 8992   1.342   1.180   3.874
 2241SOL     OW 8993   1.553   1.279   3.764
 2241SOL    HW2 8994   1.628   1.243   3.812
 2241SOL    HW3 8995   1.544   1.369   3.795
 2241SOL    MW4 8996   1.562   1.286   3.774
 2242SOL     OW 8997   1.574   1.539   3.860
 2242SOL    HW2 8998   1.592   1.534   3.954
 2242SOL    HW3 8999   1.648   1.590   3.825
 2242SOL    MW4 9000   1.586   1.545   3.868
 2243SOL     OW 9001   1.382   1.718   3.776
 2243SOL    HW2 9002   1.403   1.796   3.827
 2243SOL    HW3 9003   1.446   1.652   3.804
 2243SOL    MW4 9004   1.393   1.720   3.786
 2244SOL     OW 9005   1.387   1.958   3.924
 2244SOL    HW2 9006   1.386   1.948   4.019
 2244SOL    HW3 9007   1.300   1.993   3.903
 2244SOL    MW4 9008   1.375   1.961   3.934
 2245SOL     OW 9009   1.585   2.104   3.830
 2245SOL    HW2 9010   1.513   2.052   3.864
 2245SOL    HW3 9011   1.578   2.098   3.735
 2245SOL    MW4 9012   1.575   2.097   3.822
 2246SOL     OW 9013   1.603   2.382   3.898
 2246SOL    HW2 9014   1.684   2.411   3.856
 2246SOL    HW3 9015   1.601   2.287   3.886
 2246SOL    MW4 9016   1.613   2.373   3.891
 2247SOL     OW 9017   1.363   2.490   3.790
 2247SOL    HW2 9018   1.446   2.455   3.825
 2247SOL    HW3 9019   1.296   2.429   3.822
 2247SOL    MW4 9020   1.365   2.477   3.799
 2248SOL     OW 9021   1.330   2.746   3.879
 2248SOL    HW2 9022   1.341   2.753   3.973
 2248SOL    HW3 9023   1.343   2.653   3.860
 2248SOL    MW4 9024   1.334   2.735   3.889
 2249SOL     OW 9025   1.572   2.870   3.765
 2249SOL    HW2 9026   1.488   2.825   3.777
 2249SOL    HW3 9027   1.590   2.861   3.671
 2249SOL    MW4 9028   1.563   2.863   3.754
 2250SOL     OW 9029   1.560   3.133   3.869
 2250SOL    HW2 9030   1.572   3.124   3.964
 2250SOL    HW3 9031   1.578   3.045   3.835
 2250SOL    MW4 9032   1.564   3.120   3.877
 2251SOL     OW 9033   1.325   3.223   3.761
 2251SOL    HW2 9034   1.336   3.318   3.767
 2251SOL    HW3 9035   1.404   3.188   3.802
 2251SOL    MW4 9036   1.337   3.231   3.767
 2252SOL     OW 9037   1.349   3.486   3.842
 2252SOL    HW2 9038   1.430   3.527   3.812
 2252SOL    HW3 9039   1.281   3.550   3.823
 2252SOL    MW4 9040   1.351   3.500   3.836
 2253SOL     OW 9041   1.577   3.629   3.778
 2253SOL    HW2 9042   1.661   3.593   3.806
 2253SOL    HW3 9043   1.580   3.721   3.805
 2253SOL    MW4 9044   1.588   3.636   3.786
 2254SOL     OW 9045   1.571   3.912   3.818
 2254SOL    HW2 9046   1.564   3.913   3.914
 2254SOL    HW3 9047   1.480   3.915   3.788
 2254SOL    MW4 9048   1.558   3.912   3.827
 2255SOL     OW 9049   1.306   3.986   3.769
 2255SOL    HW2 9050   1.325   4.072   3.807
 2255SOL    HW3 9051   1.322   3.997   3.676
 2255SOL    MW4 9052   1.311   3.999   3.762
 2256SOL     OW 9053   1.340   4.247   3.855
 2256SOL    HW2 9054   1.409   4.301   3.816
 2256SOL    HW3 9055   1.260   4.299   3.847
 2256SOL    MW4 9056   1.338   4.261   3.849
 2257SOL     OW 9057   1.528   4.403   3.732
 2257SOL    HW2 9058   1.604   4.373   3.782
 2257SOL    HW3 9059   1.559   4.406   3.641
 2257SOL    MW4 9060   1.542   4.399   3.726
 2258SOL     OW 9061   2.017   4.632   3.898
 2258SOL    HW2 9062   2.094   4.679   3.866
 2258SOL    HW3 9063   2.028   4.543   3.863
 2258SOL    MW4 9064   2.029   4.626   3.889
 2259SOL     OW 9065   1.835   0.096   3.742
 2259SOL    HW2 9066   1.892   0.037   3.790
 2259SOL    HW3 9067   1.747   0.060   3.753
 2259SOL    MW4 9068   1.831   0.084   3.750
 2260SOL     OW 9069   1.778   0.387   3.879
 2260SOL    HW2 9070   1.795   0.395   3.973
 2260SOL    HW3 9071   1.804   0.298   3.856
 2260SOL    MW4 9072   1.783   0.377   3.888
 2261SOL     OW 9073   2.016   0.497   3.782
 2261SOL    HW2 9074   1.933   0.453   3.798
 2261SOL    HW3 9075   2.025   0.499   3.687
 2261SOL    MW4 9076   2.007   0.491   3.772
 2262SOL     OW 9077   2.015   0.746   3.887
 2262SOL    HW2 9078   2.042   0.741   3.979
 2262SOL    HW3 9079   2.016   0.655   3.857
 2262SOL    MW4 9080   2.019   0.733   3.895
 2263SOL     OW 9081   1.842   0.940   3.794
 2263SOL    HW2 9082   1.908   0.875   3.816
 2263SOL    HW3 9083   1.830   0.931   3.699
 2263SOL    MW4 9084   1.849   0.930   3.784
 2264SOL     OW 9085   1.804   1.222   3.879
 2264SOL    HW2 9086   1.786   1.220   3.973
 2264SOL    HW3 9087   1.828   1.132   3.857
 2264SOL    MW4 9088   1.805   1.210   3.888
 2265SOL     OW 9089   2.021   1.318   3.753
 2265SOL    HW2 9090   2.094   1.279   3.801
 2265SOL    HW3 9091   1.943   1.281   3.794
 2265SOL    MW4 9092   2.020   1.308   3.765
 2266SOL     OW 9093   2.009   1.567   3.890
 2266SOL    HW2 9094   1.937   1.605   3.840
 2266SOL    HW3 9095   2.021   1.480   3.853
 2266SOL    MW4 9096   2.001   1.561   3.879
 2267SOL     OW 9097   1.791   1.680   3.758
 2267SOL    HW2 9098   1.795   1.775   3.770
 2267SOL    HW3 9099   1.783   1.668   3.664
 2267SOL    MW4 9100   1.791   1.691   3.747
 2268SOL     OW 9101   1.831   1.953   3.819
 2268SOL    HW2 9102   1.852   1.941   3.911
 2268SOL    HW3 9103   1.745   1.995   3.818
 2268SOL    MW4 9104   1.822   1.957   3.831
 2269SOL     OW 9105   2.058   2.079   3.745
 2269SOL    HW2 9106   1.975   2.031   3.754
 2269SOL    HW3 9107   2.060   2.105   3.653
 2269SOL    MW4 9108   2.047   2.076   3.734
 2270SOL     OW 9109   2.008   2.309   3.887
 2270SOL    HW2 9110   1.935   2.355   3.846
 2270SOL    HW3 9111   2.010   2.224   3.843
 2270SOL    MW4 9112   1.999   2.304   3.875
 2271SOL     OW 9113   1.829   2.498   3.784
 2271SOL    HW2 9114   1.837   2.593   3.799
 2271SOL    HW3 9115   1.823   2.490   3.689
 2271SOL    MW4 9116   1.829   2.510   3.773
 2272SOL     OW 9117   1.819   2.770   3.839
 2272SOL    HW2 9118   1.829   2.767   3.934
 2272SOL    HW3 9119   1.733   2.809   3.825
 2272SOL    MW4 9120   1.809   2.775   3.849
 2273SOL     OW 9121   2.058   2.840   3.676
 2273SOL    HW2 9122   2.134   2.821   3.731
 2273SOL    HW3 9123   1.984   2.803   3.724
 2273SOL    MW4 9124   2.058   2.833   3.690
 2274SOL     OW 9125   1.995   3.089   3.776
 2274SOL    HW2 9126   2.000   3.000   3.741
 2274SOL    HW3 9127   2.085   3.122   3.770
 2274SOL    MW4 9128   2.007   3.081   3.770
 2275SOL     OW 9129   1.772   3.243   3.704
 2275SOL    HW2 9130   1.842   3.189   3.740
 2275SOL    HW3 9131   1.701   3.237   3.767
 2275SOL    MW4 9132   1.772   3.235   3.717
 2276SOL     OW 9133   1.814   3.498   3.842
 2276SOL    HW2 9134   1.898   3.537   3.818
 2276SOL    HW3 9135   1.821   3.407   3.815
 2276SOL    MW4 9136   1.826   3.491   3.835
 2277SOL     OW 9137   2.068   3.610   3.795
 2277SOL    HW2 9138   2.138   3.565   3.843
 2277SOL    HW3 9139   2.079   3.583   3.704
 2277SOL    MW4 9140   2.079   3.601   3.790
 2278SOL     OW 9141   2.015   3.878   3.825
 2278SOL    HW2 9142   2.093   3.931   3.808
 2278SOL    HW3 9143   2.047   3.787   3.823
 2278SOL    MW4 9144   2.030   3.873   3.823
 2279SOL     OW 9145   1.805   4.029   3.713
 2279SOL    HW2 9146   1.878   3.972   3.736
 2279SOL    HW3 9147   1.727   3.980   3.741
 2279SOL    MW4 9148   1.804   4.015   3.720
 2280SOL     OW 9149   1.760   4.295   3.840
 2280SOL    HW2 9150   1.841   4.333   3.806
 2280SOL    HW3 9151   1.764   4.203   3.814
 2280SOL    MW4 9152   1.772   4.288   3.832
 2281SOL     OW 9153   2.010   4.397   3.719
 2281SOL    HW2 9154   2.084   4.344   3.749
 2281SOL    HW3 9155   2.030   4.416   3.627
 2281SOL    MW4 9156   2.022   4.393   3.711
 2282SOL     OW 9157   2.442   4.645   3.839
 2282SOL    HW2 9158   2.432   4.656   3.934
 2282SOL    HW3 9159   2.528   4.683   3.820
 2282SOL    MW4 9160   2.452   4.652   3.849
 2283SOL     OW 9161   2.216   0.115   3.758
 2283SOL    HW2 9162   2.301   0.078   3.782
 2283SOL    HW3 9163   2.224   0.135   3.665
 2283SOL    MW4 9164   2.229   0.113   3.749
 2284SOL     OW 9165   2.219   0.363   3.908
 2284SOL    HW2 9166   2.218   0.288   3.848
 2284SOL    HW3 9167   2.150   0.421   3.876
 2284SOL    MW4 9168   2.210   0.361   3.895
 2285SOL     OW 9169   2.483   0.509   3.826
 2285SOL    HW2 9170   2.413   0.449   3.849
 2285SOL    HW3 9171   2.495   0.498   3.732
 2285SOL    MW4 9172   2.475   0.500   3.816
 2286SOL     OW 9173   2.485   0.773   3.916
 2286SOL    HW2 9174   2.399   0.810   3.899
 2286SOL    HW3 9175   2.476   0.679   3.898
 2286SOL    MW4 9176   2.473   0.765   3.911
 2287SOL     OW 9177   2.232   0.898   3.799
 2287SOL    HW2 9178   2.153   0.850   3.828
 2287SOL    HW3 9179   2.228   0.895   3.704
 2287SOL    MW4 9180   2.221   0.891   3.791
 2288SOL     OW 9181   2.228   1.170   3.881
 2288SOL    HW2 9182   2.216   1.174   3.976
 2288SOL    HW3 9183   2.231   1.077   3.861
 2288SOL    MW4 9184   2.227   1.158   3.891
 2289SOL     OW 9185   2.477   1.256   3.774
 2289SOL    HW2 9186   2.473   1.351   3.790
 2289SOL    HW3 9187   2.395   1.223   3.810
 2289SOL    MW4 9188   2.466   1.264   3.781
 2290SOL     OW 9189   2.446   1.530   3.857
 2290SOL    HW2 9190   2.524   1.582   3.835
 2290SOL    HW3 9191   2.373   1.583   3.826
 2290SOL    MW4 9192   2.447   1.544   3.850
 2291SOL     OW 9193   2.228   1.681   3.775
 2291SOL    HW2 9194   2.225   1.773   3.803
 2291SOL    HW3 9195   2.147   1.643   3.809
 2291SOL    MW4 9196   2.217   1.688   3.783
 2292SOL     OW 9197   2.253   1.942   3.853
 2292SOL    HW2 9198   2.233   1.953   3.946
 2292SOL    HW3 9199   2.187   1.995   3.808
 2292SOL    MW4 9200   2.242   1.951   3.860
 2293SOL     OW 9201   2.509   2.054   3.791
 2293SOL    HW2 9202   2.524   2.136   3.838
 2293SOL    HW3 9203   2.436   2.013   3.836
 2293SOL    MW4 9204   2.502   2.060   3.803
 2294SOL     OW 9205   2.458   2.295   3.950
 2294SOL    HW2 9206   2.530   2.357   3.937
 2294SOL    HW3 9207   2.390   2.323   3.888
 2294SOL    MW4 9208   2.458   2.307   3.940
 2295SOL     OW 9209   2.256   2.443   3.811
 2295SOL    HW2 9210   2.174   2.398   3.828
 2295SOL    HW3 9211   2.265   2.444   3.716
 2295SOL    MW4 9212   2.247   2.437   3.801
 2296SOL     OW 9213   2.239   2.731   3.866
 2296SOL    HW2 9214   2.226   2.762   3.956
 2296SOL    HW3 9215   2.219   2.637   3.870
 2296SOL    MW4 9216   2.235   2.722   3.878
 2297SOL     OW 9217   2.498   2.796   3.752
 2297SOL    HW2 9218   2.420   2.763   3.795
 2297SOL    HW3 9219   2.483   2.780   3.659
 2297SOL    MW4 9220   2.486   2.790   3.745
 2298SOL     OW 9221   2.497   3.058   3.815
 2298SOL    HW2 9222   2.469   3.059   3.906
 2298SOL    HW3 9223   2.498   2.965   3.791
 2298SOL    MW4 9224   2.494   3.046   3.824
 2299SOL     OW 9225   2.256   3.179   3.733
 2299SOL    HW2 9226   2.260   3.259   3.785
 2299SOL    HW3 9227   2.324   3.122   3.771
 2299SOL    MW4 9228   2.266   3.182   3.745
 2300SOL     OW 9229   2.267   3.428   3.885
 2300SOL    HW2 9230   2.282   3.453   3.976
 2300SOL    HW3 9231   2.327   3.483   3.834
 2300SOL    MW4 9232   2.277   3.438   3.890
 2301SOL     OW 9233   2.446   3.575   3.736
 2301SOL    HW2 9234   2.515   3.524   3.778
 2301SOL    HW3 9235   2.447   3.548   3.645
 2301SOL    MW4 9236   2.455   3.565   3.730
 2302SOL     OW 9237   2.456   3.829   3.867
 2302SOL    HW2 9238   2.528   3.886   3.840
 2302SOL    HW3 9239   2.462   3.753   3.809
 2302SOL    MW4 9240   2.466   3.826   3.856
 2303SOL     OW 9241   2.259   3.987   3.762
 2303SOL    HW2 9242   2.329   3.928   3.790
 2303SOL    HW3 9243   2.268   3.991   3.667
 2303SOL    MW4 9244   2.270   3.980   3.753
 2304SOL     OW 9245   2.227   4.264   3.847
 2304SOL    HW2 9246   2.230   4.284   3.941
 2304SOL    HW3 9247   2.236   4.169   3.842
 2304SOL    MW4 9248   2.229   4.254   3.859
 2305SOL     OW 9249   2.463   4.377   3.751
 2305SOL    HW2 9250   2.388   4.327   3.784
 2305SOL    HW3 9251   2.450   4.465   3.786
 2305SOL    MW4 9252   2.451   4.382   3.760
 2306SOL     OW 9253   2.878   4.628   3.892
 2306SOL    HW2 9254   2.878   4.620   3.987
 2306SOL    HW3 9255   2.963   4.668   3.871
 2306SOL    MW4 9256   2.889   4.632   3.902
 2307SOL     OW 9257   2.682   0.114   3.782
 2307SOL    HW2 9258   2.757   0.061   3.811
 2307SOL    HW3 9259   2.687   0.111   3.686
 2307SOL    MW4 9260   2.693   0.107   3.773
 2308SOL     OW 9261   2.704   0.357   3.907
 2308SOL    HW2 9262   2.689   0.265   3.885
 2308SOL    HW3 9263   2.623   0.402   3.884
 2308SOL    MW4 9264   2.692   0.351   3.901
 2309SOL     OW 9265   2.905   0.516   3.764
 2309SOL    HW2 9266   2.973   0.450   3.779
 2309SOL    HW3 9267   2.827   0.478   3.804
 2309SOL    MW4 9268   2.904   0.502   3.771
 2310SOL     OW 9269   2.906   0.771   3.892
 2310SOL    HW2 9270   2.976   0.819   3.848
 2310SOL    HW3 9271   2.913   0.682   3.858
 2310SOL    MW4 9272   2.916   0.766   3.882
 2311SOL     OW 9273   2.689   0.908   3.790
 2311SOL    HW2 9274   2.758   0.867   3.842
 2311SOL    HW3 9275   2.608   0.872   3.827
 2311SOL    MW4 9276   2.687   0.898   3.802
 2312SOL     OW 9277   2.710   1.148   3.900
 2312SOL    HW2 9278   2.720   1.061   3.862
 2312SOL    HW3 9279   2.638   1.187   3.852
 2312SOL    MW4 9280   2.702   1.142   3.889
 2313SOL     OW 9281   2.937   1.254   3.771
 2313SOL    HW2 9282   2.940   1.344   3.804
 2313SOL    HW3 9283   2.857   1.217   3.810
 2313SOL    MW4 9284   2.927   1.261   3.781
 2314SOL     OW 9285   2.934   1.509   3.891
 2314SOL    HW2 9286   2.949   1.512   3.985
 2314SOL    HW3 9287   3.012   1.550   3.853
 2314SOL    MW4 9288   2.947   1.515   3.898
 2315SOL     OW 9289   2.687   1.631   3.807
 2315SOL    HW2 9290   2.767   1.582   3.828
 2315SOL    HW3 9291   2.689   1.640   3.712
 2315SOL    MW4 9292   2.698   1.626   3.797
 2316SOL     OW 9293   2.707   1.902   3.921
 2316SOL    HW2 9294   2.687   1.813   3.892
 2316SOL    HW3 9295   2.639   1.957   3.882
 2316SOL    MW4 9296   2.695   1.898   3.912
 2317SOL     OW 9297   2.939   2.049   3.772
 2317SOL    HW2 9298   2.946   2.133   3.816
 2317SOL    HW3 9299   2.863   2.006   3.812
 2317SOL    MW4 9300   2.930   2.054   3.783
 2318SOL     OW 9301   2.926   2.283   3.899
 2318SOL    HW2 9302   2.930   2.291   3.994
 2318SOL    HW3 9303   3.011   2.315   3.869
 2318SOL    MW4 9304   2.937   2.288   3.907
 2319SOL     OW 9305   2.708   2.436   3.797
 2319SOL    HW2 9306   2.714   2.523   3.837
 2319SOL    HW3 9307   2.792   2.394   3.819
 2319SOL    MW4 9308   2.720   2.442   3.805
 2320SOL     OW 9309   2.706   2.686   3.903
 2320SOL    HW2 9310   2.674   2.683   3.993
 2320SOL    HW3 9311   2.633   2.722   3.853
 2320SOL    MW4 9312   2.692   2.690   3.908
 2321SOL     OW 9313   2.948   2.789   3.751
 2321SOL    HW2 9314   2.941   2.883   3.768
 2321SOL    HW3 9315   2.869   2.751   3.789
 2321SOL    MW4 9316   2.937   2.796   3.758
 2322SOL     OW 9317   2.920   3.057   3.843
 2322SOL    HW2 9318   2.999   3.109   3.832
 2322SOL    HW3 9319   2.849   3.113   3.811
 2322SOL    MW4 9320   2.921   3.071   3.838
 2323SOL     OW 9321   2.708   3.210   3.738
 2323SOL    HW2 9322   2.704   3.301   3.766
 2323SOL    HW3 9323   2.636   3.167   3.784
 2323SOL    MW4 9324   2.698   3.216   3.748
 2324SOL     OW 9325   2.670   3.457   3.837
 2324SOL    HW2 9326   2.683   3.464   3.931
 2324SOL    HW3 9327   2.728   3.522   3.799
 2324SOL    MW4 9328   2.679   3.466   3.844
 2325SOL     OW 9329   2.878   3.609   3.756
 2325SOL    HW2 9330   2.959   3.574   3.794
 2325SOL    HW3 9331   2.877   3.574   3.666
 2325SOL    MW4 9332   2.889   3.600   3.749
 2326SOL     OW 9333   2.945   3.876   3.819
 2326SOL    HW2 9334   2.937   3.882   3.914
 2326SOL    HW3 9335   2.919   3.786   3.798
 2326SOL    MW4 9336   2.941   3.865   3.828
 2327SOL     OW 9337   2.689   3.971   3.799
 2327SOL    HW2 9338   2.697   4.064   3.821
 2327SOL    HW3 9339   2.777   3.936   3.809
 2327SOL    MW4 9340   2.701   3.978   3.803
 2328SOL     OW 9341   2.679   4.244   3.854
 2328SOL    HW2 9342   2.760   4.282   3.819
 2328SOL    HW3 9343   2.609   4.294   3.812
 2328SOL    MW4 9344   2.680   4.256   3.844
 2329SOL     OW 9345   2.895   4.369   3.773
 2329SOL    HW2 9346   2.976   4.328   3.805
 2329SOL    HW3 9347   2.894   4.455   3.814
 2329SOL    MW4 9348   2.906   4.375   3.783
 2330SOL     OW 9349   3.370   4.602   3.868
 2330SOL    HW2 9350   3.355   4.611   3.962
 2330SOL    HW3 9351   3.443   4.662   3.850
 2330SOL    MW4 9352   3.378   4.611   3.878
 2331SOL     OW 9353   3.115   0.079   3.813
 2331SOL    HW2 9354   3.195   0.027   3.820
 2331SOL    HW3 9355   3.104   0.094   3.719
 2331SOL    MW4 9356   3.124   0.074   3.802
 2332SOL     OW 9357   3.124   0.361   3.877
 2332SOL    HW2 9358   3.117   0.382   3.970
 2332SOL    HW3 9359   3.122   0.266   3.874
 2332SOL    MW4 9360   3.123   0.351   3.889
 2333SOL     OW 9361   3.355   0.493   3.807
 2333SOL    HW2 9362   3.424   0.457   3.862
 2333SOL    HW3 9363   3.275   0.449   3.836
 2333SOL    MW4 9364   3.354   0.483   3.818
 2334SOL     OW 9365   3.334   0.760   3.892
 2334SOL    HW2 9366   3.344   0.763   3.987
 2334SOL    HW3 9367   3.344   0.668   3.869
 2334SOL    MW4 9368   3.336   0.748   3.902
 2335SOL     OW 9369   3.111   0.896   3.758
 2335SOL    HW2 9370   3.177   0.836   3.793
 2335SOL    HW3 9371   3.107   0.876   3.664
 2335SOL    MW4 9372   3.119   0.886   3.750
 2336SOL     OW 9373   3.161   1.137   3.866
 2336SOL    HW2 9374   3.156   1.051   3.824
 2336SOL    HW3 9375   3.081   1.182   3.837
 2336SOL    MW4 9376   3.149   1.132   3.857
 2337SOL     OW 9377   3.359   1.300   3.760
 2337SOL    HW2 9378   3.294   1.239   3.795
 2337SOL    HW3 9379   3.342   1.301   3.666
 2337SOL    MW4 9380   3.348   1.292   3.752
 2338SOL     OW 9381   3.401   1.560   3.851
 2338SOL    HW2 9382   3.311   1.584   3.830
 2338SOL    HW3 9383   3.406   1.467   3.831
 2338SOL    MW4 9384   3.390   1.551   3.845
 2339SOL     OW 9385   3.151   1.648   3.784
 2339SOL    HW2 9386   3.126   1.738   3.804
 2339SOL    HW3 9387   3.133   1.638   3.691
 2339SOL    MW4 9388   3.145   1.659   3.774
 2340SOL     OW 9389   3.132   1.892   3.879
 2340SOL    HW2 9390   3.106   1.895   3.971
 2340SOL    HW3 9391   3.062   1.937   3.833
 2340SOL    MW4 9392   3.119   1.898   3.885
 2341SOL     OW 9393   3.368   2.014   3.801
 2341SOL    HW2 9394   3.292   1.963   3.827
 2341SOL    HW3 9395   3.364   2.017   3.705
 2341SOL    MW4 9396   3.358   2.008   3.792
 2342SOL     OW 9397   3.407   2.295   3.871
 2342SOL    HW2 9398   3.330   2.323   3.821
 2342SOL    HW3 9399   3.411   2.200   3.858
 2342SOL    MW4 9400   3.397   2.286   3.863
 2343SOL     OW 9401   3.171   2.385   3.747
 2343SOL    HW2 9402   3.177   2.472   3.786
 2343SOL    HW3 9403   3.173   2.402   3.652
 2343SOL    MW4 9404   3.172   2.399   3.739
 2344SOL     OW 9405   3.158   2.633   3.846
 2344SOL    HW2 9406   3.161   2.654   3.939
 2344SOL    HW3 9407   3.089   2.689   3.810
 2344SOL    MW4 9408   3.149   2.643   3.853
 2345SOL     OW 9409   3.396   2.809   3.800
 2345SOL    HW2 9410   3.322   2.749   3.798
 2345SOL    HW3 9411   3.426   2.814   3.709
 2345SOL    MW4 9412   3.390   2.802   3.788
 2346SOL     OW 9413   3.334   3.062   3.892
 2346SOL    HW2 9414   3.414   3.097   3.852
 2346SOL    HW3 9415   3.330   2.971   3.863
 2346SOL    MW4 9416   3.344   3.055   3.883
 2347SOL     OW 9417   3.127   3.230   3.791
 2347SOL    HW2 9418   3.183   3.162   3.827
 2347SOL    HW3 9419   3.136   3.221   3.696
 2347SOL    MW4 9420   3.136   3.220   3.783
 2348SOL     OW 9421   3.119   3.489   3.857
 2348SOL    HW2 9422   3.207   3.511   3.826
 2348SOL    HW3 9423   3.108   3.397   3.836
 2348SOL    MW4 9424   3.129   3.480   3.850
 2349SOL     OW 9425   3.376   3.584   3.805
 2349SOL    HW2 9426   3.392   3.677   3.817
 2349SOL    HW3 9427   3.379   3.571   3.710
 2349SOL    MW4 9428   3.379   3.595   3.794
 2350SOL     OW 9429   3.408   3.862   3.835
 2350SOL    HW2 9430   3.488   3.907   3.807
 2350SOL    HW3 9431   3.339   3.899   3.781
 2350SOL    MW4 9432   3.410   3.873   3.824
 2351SOL     OW 9433   3.177   3.988   3.739
 2351SOL    HW2 9434   3.175   4.081   3.764
 2351SOL    HW3 9435   3.096   3.952   3.775
 2351SOL    MW4 9436   3.166   3.996   3.747
 2352SOL     OW 9437   3.146   4.245   3.825
 2352SOL    HW2 9438   3.145   4.223   3.918
 2352SOL    HW3 9439   3.228   4.293   3.812
 2352SOL    MW4 9440   3.157   4.249   3.835
 2353SOL     OW 9441   3.405   4.355   3.768
 2353SOL    HW2 9442   3.478   4.316   3.816
 2353SOL    HW3 9443   3.392   4.440   3.809
 2353SOL    MW4 9444   3.413   4.361   3.780
 2354SOL     OW 9445   3.835   0.006   3.893
 2354SOL    HW2 9446   3.921   0.041   3.867
 2354SOL    HW3 9447   3.840  -0.087   3.870
 2354SOL    MW4 9448   3.847  -0.002   3.886
 2355SOL     OW 9449   3.581   0.121   3.805
 2355SOL    HW2 9450   3.661   0.072   3.823
 2355SOL    HW3 9451   3.581   0.134   3.710
 2355SOL    MW4 9452   3.591   0.117   3.794
 2356SOL     OW 9453   3.592   0.396   3.938
 2356SOL    HW2 9454   3.657   0.452   3.897
 2356SOL    HW3 9455   3.597   0.313   3.890
 2356SOL    MW4 9456   3.601   0.392   3.926
 2357SOL     OW 9457   3.783   0.528   3.791
 2357SOL    HW2 9458   3.859   0.486   3.833
 2357SOL    HW3 9459   3.786   0.618   3.823
 2357SOL    MW4 9460   3.794   0.534   3.801
 2358SOL     OW 9461   3.813   0.779   3.899
 2358SOL    HW2 9462   3.884   0.830   3.861
 2358SOL    HW3 9463   3.733   0.821   3.867
 2358SOL    MW4 9464   3.812   0.791   3.890
 2359SOL     OW 9465   3.565   0.883   3.783
 2359SOL    HW2 9466   3.545   0.969   3.820
 2359SOL    HW3 9467   3.488   0.831   3.802
 2359SOL    MW4 9468   3.553   0.888   3.791
 2360SOL     OW 9469   3.568   1.137   3.877
 2360SOL    HW2 9470   3.651   1.174   3.850
 2360SOL    HW3 9471   3.502   1.195   3.840
 2360SOL    MW4 9472   3.570   1.149   3.869
 2361SOL     OW 9473   3.807   1.253   3.791
 2361SOL    HW2 9474   3.886   1.215   3.830
 2361SOL    HW3 9475   3.817   1.347   3.804
 2361SOL    MW4 9476   3.818   1.261   3.798
 2362SOL     OW 9477   3.864   1.503   3.895
 2362SOL    HW2 9478   3.846   1.500   3.989
 2362SOL    HW3 9479   3.797   1.561   3.860
 2362SOL    MW4 9480   3.853   1.510   3.903
 2363SOL     OW 9481   3.637   1.665   3.764
 2363SOL    HW2 9482   3.548   1.638   3.785
 2363SOL    HW3 9483   3.635   1.684   3.670
 2363SOL    MW4 9484   3.625   1.664   3.754
 2364SOL     OW 9485   3.619   1.926   3.841
 2364SOL    HW2 9486   3.635   1.832   3.836
 2364SOL    HW3 9487   3.524   1.935   3.835
 2364SOL    MW4 9488   3.608   1.915   3.839
 2365SOL     OW 9489   3.844   2.052   3.767
 2365SOL    HW2 9490   3.919   2.002   3.798
 2365SOL    HW3 9491   3.768   2.005   3.801
 2365SOL    MW4 9492   3.844   2.039   3.775
 2366SOL     OW 9493   3.827   2.321   3.864
 2366SOL    HW2 9494   3.750   2.361   3.825
 2366SOL    HW3 9495   3.831   2.233   3.825
 2366SOL    MW4 9496   3.817   2.315   3.854
 2367SOL     OW 9497   3.611   2.429   3.755
 2367SOL    HW2 9498   3.537   2.374   3.780
 2367SOL    HW3 9499   3.618   2.420   3.660
 2367SOL    MW4 9500   3.602   2.421   3.746
 2368SOL     OW 9501   3.601   2.668   3.902
 2368SOL    HW2 9502   3.617   2.590   3.849
 2368SOL    HW3 9503   3.523   2.708   3.863
 2368SOL    MW4 9504   3.593   2.663   3.890
 2369SOL     OW 9505   3.788   2.845   3.804
 2369SOL    HW2 9506   3.869   2.816   3.845
 2369SOL    HW3 9507   3.719   2.799   3.851
 2369SOL    MW4 9508   3.789   2.835   3.815
 2370SOL     OW 9509   3.785   3.103   3.885
 2370SOL    HW2 9510   3.714   3.132   3.828
 2370SOL    HW3 9511   3.790   3.009   3.870
 2370SOL    MW4 9512   3.776   3.094   3.876
 2371SOL     OW 9513   3.551   3.177   3.769
 2371SOL    HW2 9514   3.557   3.271   3.788
 2371SOL    HW3 9515   3.582   3.170   3.679
 2371SOL    MW4 9516   3.556   3.189   3.760
 2372SOL     OW 9517   3.605   3.436   3.843
 2372SOL    HW2 9518   3.633   3.450   3.934
 2372SOL    HW3 9519   3.527   3.491   3.833
 2372SOL    MW4 9520   3.599   3.445   3.854
 2373SOL     OW 9521   3.832   3.572   3.750
 2373SOL    HW2 9522   3.821   3.659   3.788
 2373SOL    HW3 9523   3.752   3.525   3.774
 2373SOL    MW4 9524   3.820   3.577   3.758
 2374SOL     OW 9525   3.811   3.830   3.857
 2374SOL    HW2 9526   3.811   3.832   3.953
 2374SOL    HW3 9527   3.881   3.890   3.832
 2374SOL    MW4 9528   3.820   3.838   3.866
 2375SOL     OW 9529   3.635   4.000   3.735
 2375SOL    HW2 9530   3.632   4.084   3.780
 2375SOL    HW3 9531   3.707   3.952   3.777
 2375SOL    MW4 9532   3.644   4.004   3.746
 2376SOL     OW 9533   3.630   4.242   3.887
 2376SOL    HW2 9534   3.636   4.260   3.981
 2376SOL    HW3 9535   3.702   4.292   3.849
 2376SOL    MW4 9536   3.641   4.251   3.895
 2377SOL     OW 9537   3.843   4.381   3.793
 2377SOL    HW2 9538   3.931   4.356   3.822
 2377SOL    HW3 9539   3.849   4.381   3.697
 2377SOL    MW4 9540   3.856   4.378   3.784
 2378SOL     OW 9541   4.294   4.628   3.877
 2378SOL    HW2 9542   4.296   4.627   3.973
 2378SOL    HW3 9543   4.364   4.688   3.853
 2378SOL    MW4 9544   4.304   4.636   3.887
 2379SOL     OW 9545   4.063   0.108   3.805
 2379SOL    HW2 9546   4.141   0.058   3.827
 2379SOL    HW3 9547   4.054   0.098   3.710
 2379SOL    MW4 9548   4.072   0.100   3.795
 2380SOL     OW 9549   4.032   0.391   3.888
 2380SOL    HW2 9550   4.022   0.399   3.983
 2380SOL    HW3 9551   4.023   0.297   3.871
 2380SOL    MW4 9552   4.029   0.380   3.899
 2381SOL     OW 9553   4.281   0.517   3.800
 2381SOL    HW2 9554   4.198   0.481   3.832
 2381SOL    HW3 9555   4.275   0.508   3.705
 2381SOL    MW4 9556   4.269   0.511   3.792
 2382SOL     OW 9557   4.225   0.748   3.942
 2382SOL    HW2 9558   4.187   0.802   3.873
 2382SOL    HW3 9559   4.243   0.663   3.900
 2382SOL    MW4 9560   4.223   0.744   3.928
 2383SOL     OW 9561   4.043   0.891   3.784
 2383SOL    HW2 9562   4.042   0.984   3.810
 2383SOL    HW3 9563   4.040   0.893   3.689
 2383SOL    MW4 9564   4.042   0.904   3.775
 2384SOL     OW 9565   4.046   1.143   3.910
 2384SOL    HW2 9566   4.050   1.138   4.006
 2384SOL    HW3 9567   4.130   1.182   3.884
 2384SOL    MW4 9568   4.058   1.148   3.919
 2385SOL     OW 9569   4.298   1.239   3.823
 2385SOL    HW2 9570   4.303   1.327   3.859
 2385SOL    HW3 9571   4.290   1.252   3.728
 2385SOL    MW4 9572   4.297   1.252   3.815
 2386SOL     OW 9573   4.306   1.512   3.910
 2386SOL    HW2 9574   4.232   1.559   3.871
 2386SOL    HW3 9575   4.383   1.561   3.881
 2386SOL    MW4 9576   4.306   1.525   3.901
 2387SOL     OW 9577   4.097   1.634   3.785
 2387SOL    HW2 9578   4.103   1.727   3.806
 2387SOL    HW3 9579   4.018   1.604   3.830
 2387SOL    MW4 9580   4.087   1.643   3.793
 2388SOL     OW 9581   4.082   1.903   3.884
 2388SOL    HW2 9582   4.086   1.917   3.979
 2388SOL    HW3 9583   4.160   1.946   3.850
 2388SOL    MW4 9584   4.093   1.911   3.892
 2389SOL     OW 9585   4.276   2.051   3.729
 2389SOL    HW2 9586   4.284   2.143   3.756
 2389SOL    HW3 9587   4.255   2.056   3.635
 2389SOL    MW4 9588   4.274   2.064   3.720
 2390SOL     OW 9589   4.275   2.303   3.829
 2390SOL    HW2 9590   4.275   2.298   3.925
 2390SOL    HW3 9591   4.195   2.353   3.808
 2390SOL    MW4 9592   4.264   2.309   3.839
 2391SOL     OW 9593   4.038   2.454   3.771
 2391SOL    HW2 9594   4.023   2.545   3.797
 2391SOL    HW3 9595   3.966   2.405   3.811
 2391SOL    MW4 9596   4.027   2.459   3.780
 2392SOL     OW 9597   4.013   2.729   3.882
 2392SOL    HW2 9598   4.030   2.704   3.973
 2392SOL    HW3 9599   4.097   2.763   3.851
 2392SOL    MW4 9600   4.026   2.731   3.890
 2393SOL     OW 9601   4.260   2.830   3.777
 2393SOL    HW2 9602   4.260   2.909   3.830
 2393SOL    HW3 9603   4.336   2.780   3.807
 2393SOL    MW4 9604   4.270   2.834   3.788
 2394SOL     OW 9605   4.254   3.067   3.923
 2394SOL    HW2 9606   4.173   3.110   3.893
 2394SOL    HW3 9607   4.324   3.118   3.883
 2394SOL    MW4 9608   4.252   3.080   3.914
 2395SOL     OW 9609   4.035   3.216   3.822
 2395SOL    HW2 9610   3.949   3.183   3.848
 2395SOL    HW3 9611   4.034   3.212   3.726
 2395SOL    MW4 9612   4.023   3.211   3.812
 2396SOL     OW 9613   4.019   3.487   3.900
 2396SOL    HW2 9614   4.008   3.394   3.880
 2396SOL    HW3 9615   3.953   3.531   3.847
 2396SOL    MW4 9616   4.009   3.480   3.891
 2397SOL     OW 9617   4.218   3.631   3.773
 2397SOL    HW2 9618   4.144   3.585   3.811
 2397SOL    HW3 9619   4.295   3.589   3.813
 2397SOL    MW4 9620   4.219   3.619   3.783
 2398SOL     OW 9621   4.249   3.888   3.845
 2398SOL    HW2 9622   4.169   3.930   3.814
 2398SOL    HW3 9623   4.244   3.798   3.813
 2398SOL    MW4 9624   4.238   3.881   3.837
 2399SOL     OW 9625   4.006   4.002   3.781
 2399SOL    HW2 9626   4.039   4.084   3.816
 2399SOL    HW3 9627   4.018   4.010   3.686
 2399SOL    MW4 9628   4.012   4.014   3.773
 2400SOL     OW 9629   4.076   4.240   3.862
 2400SOL    HW2 9630   4.068   4.277   3.950
 2400SOL    HW3 9631   4.141   4.295   3.819
 2400SOL    MW4 9632   4.083   4.252   3.868
 2401SOL     OW 9633   4.278   4.392   3.746
 2401SOL    HW2 9634   4.279   4.475   3.794
 2401SOL    HW3 9635   4.361   4.350   3.770
 2401SOL    MW4 9636   4.289   4.398   3.755
 2402SOL     OW 9637   0.213   0.040   4.144
 2402SOL    HW2 9638   0.301   0.050   4.180
 2402SOL    HW3 9639   0.191  -0.052   4.159
 2402SOL    MW4 9640   0.222   0.029   4.151
 2403SOL     OW 9641   4.479   0.137   4.259
 2403SOL    HW2 9642   4.498   0.114   4.350
 2403SOL    HW3 9643   4.562   0.125   4.213
 2403SOL    MW4 9644   4.492   0.132   4.265
 2404SOL     OW 9645   0.032   0.378   4.151
 2404SOL    HW2 9646   0.001   0.303   4.202
 2404SOL    HW3 9647   0.018   0.354   4.060
 2404SOL    MW4 9648   0.026   0.365   4.146
 2405SOL     OW 9649   0.256   0.517   4.250
 2405SOL    HW2 9650   0.337   0.466   4.243
 2405SOL    HW3 9651   0.190   0.464   4.206
 2405SOL    MW4 9652   0.258   0.503   4.244
 2406SOL     OW 9653   0.213   0.786   4.157
 2406SOL    HW2 9654   0.152   0.832   4.215
 2406SOL    HW3 9655   0.226   0.701   4.198
 2406SOL    MW4 9656   0.207   0.781   4.170
 2407SOL     OW 9657   0.038   0.887   4.342
 2407SOL    HW2 9658  -0.044   0.847   4.312
 2407SOL    HW3 9659   0.028   0.980   4.322
 2407SOL    MW4 9660   0.026   0.894   4.335
 2408SOL     OW 9661   0.006   1.144   4.208
 2408SOL    HW2 9662   0.075   1.202   4.238
 2408SOL    HW3 9663   0.013   1.146   4.112
 2408SOL    MW4 9664   0.016   1.152   4.199
 2409SOL     OW 9665   0.223   1.308   4.279
 2409SOL    HW2 9666   0.244   1.319   4.372
 2409SOL    HW3 9667   0.300   1.264   4.242
 2409SOL    MW4 9668   0.236   1.304   4.287
 2410SOL     OW 9669   4.473   1.706   4.682
 2410SOL    HW2 9670   4.539   1.725   4.615
 2410SOL    HW3 9671   4.515   1.730   4.764
 2410SOL    MW4 9672   4.487   1.711   4.684
 2411SOL     OW 9673   0.034   1.692   4.223
 2411SOL    HW2 9674  -0.052   1.651   4.213
 2411SOL    HW3 9675   0.025   1.778   4.183
 2411SOL    MW4 9676   0.022   1.698   4.217
 2412SOL     OW 9677   0.251   2.058   4.191
 2412SOL    HW2 9678   0.246   2.068   4.286
 2412SOL    HW3 9679   0.335   2.014   4.176
 2412SOL    MW4 9680   0.261   2.054   4.201
 2413SOL     OW 9681   0.699   1.622   4.684
 2413SOL    HW2 9682   0.615   1.661   4.661
 2413SOL    HW3 9683   0.731   1.677   4.756
 2413SOL    MW4 9684   0.692   1.635   4.691
 2414SOL     OW 9685   0.197   2.317   4.115
 2414SOL    HW2 9686   0.275   2.355   4.154
 2414SOL    HW3 9687   0.200   2.225   4.139
 2414SOL    MW4 9688   0.208   2.310   4.123
 2415SOL     OW 9689   4.482   2.426   4.262
 2415SOL    HW2 9690   4.407   2.390   4.216
 2415SOL    HW3 9691   4.558   2.384   4.221
 2415SOL    MW4 9692   4.482   2.416   4.251
 2416SOL     OW 9693   0.077   2.694   4.164
 2416SOL    HW2 9694   0.120   2.750   4.229
 2416SOL    HW3 9695   0.097   2.605   4.192
 2416SOL    MW4 9696   0.085   2.690   4.177
 2417SOL     OW 9697   0.242   2.864   4.327
 2417SOL    HW2 9698   0.323   2.824   4.296
 2417SOL    HW3 9699   0.221   2.930   4.261
 2417SOL    MW4 9700   0.250   2.868   4.314
 2418SOL     OW 9701   0.233   3.083   4.164
 2418SOL    HW2 9702   0.321   3.113   4.186
 2418SOL    HW3 9703   0.175   3.142   4.212
 2418SOL    MW4 9704   0.237   3.095   4.173
 2419SOL     OW 9705   0.020   3.221   4.266
 2419SOL    HW2 9706  -0.047   3.159   4.236
 2419SOL    HW3 9707   0.007   3.299   4.212
 2419SOL    MW4 9708   0.010   3.223   4.255
 2420SOL     OW 9709   0.002   3.463   4.133
 2420SOL    HW2 9710  -0.063   3.527   4.163
 2420SOL    HW3 9711  -0.015   3.454   4.039
 2420SOL    MW4 9712  -0.009   3.470   4.125
 2421SOL     OW 9713   0.230   3.611   4.229
 2421SOL    HW2 9714   0.301   3.564   4.186
 2421SOL    HW3 9715   0.151   3.563   4.204
 2421SOL    MW4 9716   0.229   3.599   4.220
 2422SOL     OW 9717   0.189   3.876   4.148
 2422SOL    HW2 9718   0.116   3.908   4.200
 2422SOL    HW3 9719   0.209   3.790   4.184
 2422SOL    MW4 9720   0.182   3.869   4.159
 2423SOL     OW 9721   4.456   3.972   4.267
 2423SOL    HW2 9722   4.448   3.948   4.359
 2423SOL    HW3 9723   4.372   3.949   4.228
 2423SOL    MW4 9724   4.444   3.966   4.274
 2424SOL     OW 9725   4.481   4.224   4.156
 2424SOL    HW2 9726   4.491   4.134   4.187
 2424SOL    HW3 9727   4.482   4.217   4.060
 2424SOL    MW4 9728   4.483   4.211   4.147
 2425SOL     OW 9729   0.179   4.414   4.222
 2425SOL    HW2 9730   0.193   4.407   4.317
 2425SOL    HW3 9731   0.101   4.361   4.206
 2425SOL    MW4 9732   0.170   4.406   4.233
 2426SOL     OW 9733   0.695   0.001   4.176
 2426SOL    HW2 9734   0.610   0.030   4.208
 2426SOL    HW3 9735   0.685  -0.002   4.081
 2426SOL    MW4 9736   0.682   0.004   4.167
 2427SOL     OW 9737   0.456   0.096   4.274
 2427SOL    HW2 9738   0.461   0.082   4.369
 2427SOL    HW3 9739   0.467   0.191   4.263
 2427SOL    MW4 9740   0.458   0.107   4.285
 2428SOL     OW 9741   0.483   0.365   4.222
 2428SOL    HW2 9742   0.543   0.426   4.265
 2428SOL    HW3 9743   0.493   0.384   4.128
 2428SOL    MW4 9744   0.493   0.376   4.215
 2429SOL     OW 9745   0.698   0.527   4.307
 2429SOL    HW2 9746   0.746   0.459   4.260
 2429SOL    HW3 9747   0.711   0.606   4.255
 2429SOL    MW4 9748   0.706   0.528   4.294
 2430SOL     OW 9749   0.692   0.780   4.152
 2430SOL    HW2 9750   0.609   0.821   4.176
 2430SOL    HW3 9751   0.683   0.759   4.059
 2430SOL    MW4 9752   0.680   0.783   4.143
 2431SOL     OW 9753   0.443   0.930   4.256
 2431SOL    HW2 9754   0.434   1.021   4.227
 2431SOL    HW3 9755   0.363   0.887   4.225
 2431SOL    MW4 9756   0.431   0.936   4.248
 2432SOL     OW 9757   0.439   1.188   4.164
 2432SOL    HW2 9758   0.518   1.231   4.195
 2432SOL    HW3 9759   0.460   1.161   4.074
 2432SOL    MW4 9760   0.452   1.190   4.156
 2433SOL     OW 9761   0.653   1.302   4.287
 2433SOL    HW2 9762   0.673   1.300   4.380
 2433SOL    HW3 9763   0.663   1.394   4.262
 2433SOL    MW4 9764   0.657   1.314   4.296
 2434SOL     OW 9765   0.701   1.563   4.190
 2434SOL    HW2 9766   0.791   1.562   4.222
 2434SOL    HW3 9767   0.709   1.569   4.095
 2434SOL    MW4 9768   0.714   1.564   4.182
 2435SOL     OW 9769   0.258   1.560   4.143
 2435SOL    HW2 9770   0.244   1.478   4.190
 2435SOL    HW3 9771   0.182   1.614   4.167
 2435SOL    MW4 9772   0.246   1.557   4.152
 2436SOL     OW 9773   0.496   1.922   4.153
 2436SOL    HW2 9774   0.484   1.836   4.194
 2436SOL    HW3 9775   0.480   1.907   4.060
 2436SOL    MW4 9776   0.493   1.909   4.146
 2437SOL     OW 9777   0.678   2.067   4.279
 2437SOL    HW2 9778   0.653   2.071   4.371
 2437SOL    HW3 9779   0.620   2.000   4.241
 2437SOL    MW4 9780   0.667   2.059   4.286
 2438SOL     OW 9781   0.643   2.303   4.130
 2438SOL    HW2 9782   0.658   2.215   4.163
 2438SOL    HW3 9783   0.645   2.294   4.035
 2438SOL    MW4 9784   0.645   2.290   4.122
 2439SOL     OW 9785   0.418   2.417   4.249
 2439SOL    HW2 9786   0.424   2.512   4.248
 2439SOL    HW3 9787   0.505   2.387   4.225
 2439SOL    MW4 9788   0.430   2.425   4.245
 2440SOL     OW 9789   0.468   2.714   4.231
 2440SOL    HW2 9790   0.550   2.734   4.275
 2440SOL    HW3 9791   0.486   2.729   4.138
 2440SOL    MW4 9792   0.481   2.719   4.224
 2441SOL     OW 9793   0.700   2.823   4.314
 2441SOL    HW2 9794   0.716   2.849   4.405
 2441SOL    HW3 9795   0.696   2.905   4.265
 2441SOL    MW4 9796   0.701   2.837   4.320
 2442SOL     OW 9797   0.703   3.072   4.185
 2442SOL    HW2 9798   0.774   3.116   4.232
 2442SOL    HW3 9799   0.623   3.114   4.217
 2442SOL    MW4 9800   0.701   3.084   4.195
 2443SOL     OW 9801   0.470   3.197   4.261
 2443SOL    HW2 9802   0.442   3.215   4.350
 2443SOL    HW3 9803   0.480   3.283   4.221
 2443SOL    MW4 9804   0.468   3.211   4.267
 2444SOL     OW 9805   0.462   3.459   4.151
 2444SOL    HW2 9806   0.527   3.521   4.184
 2444SOL    HW3 9807   0.475   3.458   4.056
 2444SOL    MW4 9808   0.472   3.467   4.143
 2445SOL     OW 9809   0.655   3.629   4.240
 2445SOL    HW2 9810   0.661   3.640   4.335
 2445SOL    HW3 9811   0.737   3.586   4.215
 2445SOL    MW4 9812   0.667   3.625   4.249
 2446SOL     OW 9813   0.652   3.881   4.141
 2446SOL    HW2 9814   0.567   3.921   4.163
 2446SOL    HW3 9815   0.648   3.794   4.180
 2446SOL    MW4 9816   0.640   3.875   4.149
 2447SOL     OW 9817   0.419   4.019   4.209
 2447SOL    HW2 9818   0.417   4.103   4.163
 2447SOL    HW3 9819   0.333   3.981   4.194
 2447SOL    MW4 9820   0.408   4.025   4.201
 2448SOL     OW 9821   0.426   4.306   4.138
 2448SOL    HW2 9822   0.339   4.341   4.158
 2448SOL    HW3 9823   0.426   4.296   4.043
 2448SOL    MW4 9824   0.414   4.309   4.128
 2449SOL     OW 9825   0.676   4.394   4.216
 2449SOL    HW2 9826   0.589   4.363   4.191
 2449SOL    HW3 9827   0.670   4.489   4.210
 2449SOL    MW4 9828   0.664   4.402   4.212
 2450SOL     OW 9829   1.090   4.662   4.124
 2450SOL    HW2 9830   1.095   4.567   4.136
 2450SOL    HW3 9831   1.084   4.674   4.029
 2450SOL    MW4 9832   1.090   4.651   4.113
 2451SOL     OW 9833   0.906   0.152   4.245
 2451SOL    HW2 9834   0.982   0.102   4.215
 2451SOL    HW3 9835   0.830   0.098   4.221
 2451SOL    MW4 9836   0.906   0.138   4.238
 2452SOL     OW 9837   0.853   0.392   4.117
 2452SOL    HW2 9838   0.926   0.439   4.158
 2452SOL    HW3 9839   0.860   0.303   4.151
 2452SOL    MW4 9840   0.863   0.386   4.127
 2453SOL     OW 9841   1.122   0.499   4.198
 2453SOL    HW2 9842   1.127   0.478   4.291
 2453SOL    HW3 9843   1.204   0.466   4.162
 2453SOL    MW4 9844   1.133   0.492   4.205
 2454SOL     OW 9845   1.140   0.784   4.167
 2454SOL    HW2 9846   1.210   0.823   4.218
 2454SOL    HW3 9847   1.154   0.690   4.173
 2454SOL    MW4 9848   1.151   0.777   4.175
 2455SOL     OW 9849   0.909   0.955   4.155
 2455SOL    HW2 9850   0.983   0.898   4.138
 2455SOL    HW3 9851   0.833   0.897   4.160
 2455SOL    MW4 9852   0.908   0.940   4.154
 2456SOL     OW 9853   0.875   1.224   4.144
 2456SOL    HW2 9854   0.879   1.128   4.151
 2456SOL    HW3 9855   0.797   1.248   4.194
 2456SOL    MW4 9856   0.866   1.214   4.152
 2457SOL     OW 9857   1.162   1.255   4.290
 2457SOL    HW2 9858   1.188   1.254   4.382
 2457SOL    HW3 9859   1.066   1.252   4.291
 2457SOL    MW4 9860   1.153   1.254   4.302
 2458SOL     OW 9861   1.162   1.501   4.162
 2458SOL    HW2 9862   1.093   1.544   4.213
 2458SOL    HW3 9863   1.165   1.412   4.195
 2458SOL    MW4 9864   1.153   1.495   4.173
 2459SOL     OW 9865   0.950   1.636   4.303
 2459SOL    HW2 9866   0.942   1.624   4.397
 2459SOL    HW3 9867   0.942   1.730   4.289
 2459SOL    MW4 9868   0.948   1.647   4.313
 2460SOL     OW 9869   0.910   1.915   4.220
 2460SOL    HW2 9870   0.845   1.978   4.251
 2460SOL    HW3 9871   0.909   1.924   4.125
 2460SOL    MW4 9872   0.902   1.925   4.211
 2461SOL     OW 9873   1.172   2.028   4.267
 2461SOL    HW2 9874   1.180   2.008   4.360
 2461SOL    HW3 9875   1.079   2.015   4.247
 2461SOL    MW4 9876   1.161   2.024   4.276
 2462SOL     OW 9877   1.155   2.306   4.138
 2462SOL    HW2 9878   1.219   2.366   4.177
 2462SOL    HW3 9879   1.176   2.221   4.177
 2462SOL    MW4 9880   1.166   2.303   4.148
 2463SOL     OW 9881   0.875   2.432   4.219
 2463SOL    HW2 9882   0.943   2.368   4.197
 2463SOL    HW3 9883   0.795   2.394   4.184
 2463SOL    MW4 9884   0.874   2.418   4.212
 2464SOL     OW 9885   0.911   2.714   4.180
 2464SOL    HW2 9886   0.905   2.621   4.198
 2464SOL    HW3 9887   0.846   2.754   4.238
 2464SOL    MW4 9888   0.901   2.707   4.190
 2465SOL     OW 9889   1.145   2.864   4.284
 2465SOL    HW2 9890   1.146   2.944   4.232
 2465SOL    HW3 9891   1.076   2.810   4.244
 2465SOL    MW4 9892   1.136   2.867   4.272
 2466SOL     OW 9893   1.126   3.117   4.183
 2466SOL    HW2 9894   1.212   3.153   4.206
 2466SOL    HW3 9895   1.117   3.134   4.089
 2466SOL    MW4 9896   1.136   3.124   4.173
 2467SOL     OW 9897   0.905   3.267   4.264
 2467SOL    HW2 9898   0.931   3.301   4.350
 2467SOL    HW3 9899   0.979   3.213   4.236
 2467SOL    MW4 9900   0.918   3.264   4.272
 2468SOL     OW 9901   0.886   3.502   4.149
 2468SOL    HW2 9902   0.886   3.412   4.183
 2468SOL    HW3 9903   0.865   3.492   4.056
 2468SOL    MW4 9904   0.883   3.489   4.142
 2469SOL     OW 9905   1.162   3.601   4.208
 2469SOL    HW2 9906   1.142   3.691   4.180
 2469SOL    HW3 9907   1.081   3.552   4.191
 2469SOL    MW4 9908   1.149   3.607   4.202
 2470SOL     OW 9909   1.127   3.875   4.152
 2470SOL    HW2 9910   1.210   3.913   4.182
 2470SOL    HW3 9911   1.061   3.918   4.206
 2470SOL    MW4 9912   1.130   3.886   4.163
 2471SOL     OW 9913   0.877   4.003   4.256
 2471SOL    HW2 9914   0.870   4.091   4.219
 2471SOL    HW3 9915   0.804   3.955   4.218
 2471SOL    MW4 9916   0.867   4.008   4.246
 2472SOL     OW 9917   0.883   4.250   4.131
 2472SOL    HW2 9918   0.967   4.288   4.157
 2472SOL    HW3 9919   0.817   4.308   4.170
 2472SOL    MW4 9920   0.885   4.263   4.140
 2473SOL     OW 9921   1.103   4.384   4.207
 2473SOL    HW2 9922   1.103   4.390   4.302
 2473SOL    HW3 9923   1.186   4.342   4.185
 2473SOL    MW4 9924   1.114   4.380   4.216
 2474SOL     OW 9925   1.542   0.058   4.061
 2474SOL    HW2 9926   1.613   0.101   4.107
 2474SOL    HW3 9927   1.465   0.071   4.117
 2474SOL    MW4 9928   1.541   0.065   4.074
 2475SOL     OW 9929   1.320   0.106   4.239
 2475SOL    HW2 9930   1.321   0.064   4.325
 2475SOL    HW3 9931   1.240   0.074   4.198
 2475SOL    MW4 9932   1.310   0.096   4.245
 2476SOL     OW 9933   1.361   0.374   4.125
 2476SOL    HW2 9934   1.445   0.404   4.160
 2476SOL    HW3 9935   1.339   0.298   4.179
 2476SOL    MW4 9936   1.369   0.368   4.137
 2477SOL     OW 9937   1.594   0.504   4.243
 2477SOL    HW2 9938   1.564   0.510   4.333
 2477SOL    HW3 9939   1.605   0.595   4.215
 2477SOL    MW4 9940   1.591   0.517   4.251
 2478SOL     OW 9941   1.633   0.768   4.135
 2478SOL    HW2 9942   1.706   0.819   4.171
 2478SOL    HW3 9943   1.641   0.777   4.040
 2478SOL    MW4 9944   1.644   0.776   4.127
 2479SOL     OW 9945   1.391   0.903   4.228
 2479SOL    HW2 9946   1.389   0.995   4.199
 2479SOL    HW3 9947   1.470   0.867   4.186
 2479SOL    MW4 9948   1.401   0.911   4.218
 2480SOL     OW 9949   1.389   1.159   4.149
 2480SOL    HW2 9950   1.305   1.178   4.191
 2480SOL    HW3 9951   1.373   1.174   4.056
 2480SOL    MW4 9952   1.376   1.163   4.142
 2481SOL     OW 9953   1.591   1.303   4.250
 2481SOL    HW2 9954   1.591   1.299   4.346
 2481SOL    HW3 9955   1.507   1.264   4.225
 2481SOL    MW4 9956   1.580   1.298   4.259
 2482SOL     OW 9957   1.576   1.561   4.147
 2482SOL    HW2 9958   1.511   1.600   4.206
 2482SOL    HW3 9959   1.594   1.476   4.185
 2482SOL    MW4 9960   1.570   1.555   4.160
 2483SOL     OW 9961   1.367   1.626   4.313
 2483SOL    HW2 9962   1.367   1.715   4.277
 2483SOL    HW3 9963   1.302   1.579   4.260
 2483SOL    MW4 9964   1.358   1.631   4.301
 2484SOL     OW 9965   1.403   1.901   4.216
 2484SOL    HW2 9966   1.466   1.964   4.250
 2484SOL    HW3 9967   1.317   1.939   4.238
 2484SOL    MW4 9968   1.400   1.914   4.224
 2485SOL     OW 9969   1.586   2.108   4.314
 2485SOL    HW2 9970   1.676   2.076   4.319
 2485SOL    HW3 9971   1.592   2.186   4.259
 2485SOL    MW4 9972   1.599   2.114   4.308
 2486SOL     OW 9973   1.570   2.350   4.185
 2486SOL    HW2 9974   1.636   2.417   4.202
 2486SOL    HW3 9975   1.556   2.353   4.090
 2486SOL    MW4 9976   1.577   2.359   4.174
 2487SOL     OW 9977   1.578   2.880   4.330
 2487SOL    HW2 9978   1.529   2.869   4.412
 2487SOL    HW3 9979   1.662   2.837   4.347
 2487SOL    MW4 9980   1.583   2.873   4.343
 2488SOL     OW 9981   1.377   2.754   4.172
 2488SOL    HW2 9982   1.450   2.803   4.211
 2488SOL    HW3 9983   1.299   2.788   4.215
 2488SOL    MW4 9984   1.376   2.765   4.182
 2489SOL     OW 9985   1.545   2.318   4.581
 2489SOL    HW2 9986   1.624   2.369   4.598
 2489SOL    HW3 9987   1.569   2.260   4.509
 2489SOL    MW4 9988   1.559   2.317   4.574
 2490SOL     OW 9989   1.594   3.095   4.144
 2490SOL    HW2 9990   1.648   3.149   4.201
 2490SOL    HW3 9991   1.571   3.019   4.199
 2490SOL    MW4 9992   1.598   3.092   4.159
 2491SOL     OW 9993   1.377   3.247   4.258
 2491SOL    HW2 9994   1.447   3.197   4.216
 2491SOL    HW3 9995   1.375   3.330   4.210
 2491SOL    MW4 9996   1.386   3.251   4.246
 2492SOL     OW 9997   1.400   3.502   4.123
 2492SOL    HW2 9998   1.313   3.540   4.140
 2492SOL    HW3 9999   1.398   3.480   4.030
 2492SOL    MW410000   1.388   3.505   4.113
 2493SOL     OW10001   1.633   3.654   4.207
 2493SOL    HW210002   1.621   3.690   4.294
 2493SOL    HW310003   1.559   3.595   4.194
 2493SOL    MW410004   1.622   3.651   4.217
 2494SOL     OW10005   1.561   3.898   4.103
 2494SOL    HW210006   1.489   3.926   4.159
 2494SOL    HW310007   1.578   3.807   4.130
 2494SOL    MW410008   1.554   3.889   4.114
 2495SOL     OW10009   1.355   4.005   4.269
 2495SOL    HW210010   1.313   4.005   4.355
 2495SOL    HW310011   1.352   4.096   4.241
 2495SOL    MW410012   1.349   4.017   4.277
 2496SOL     OW10013   1.334   4.271   4.128
 2496SOL    HW210014   1.409   4.321   4.160
 2496SOL    HW310015   1.348   4.265   4.034
 2496SOL    MW410016   1.346   4.277   4.120
 2497SOL     OW10017   1.550   4.480   4.264
 2497SOL    HW210018   1.546   4.553   4.203
 2497SOL    HW310019   1.609   4.417   4.224
 2497SOL    MW410020   1.557   4.481   4.251
 2498SOL     OW10021   1.984   4.653   4.174
 2498SOL    HW210022   1.898   4.688   4.197
 2498SOL    HW310023   1.992   4.669   4.079
 2498SOL    MW410024   1.974   4.659   4.164
 2499SOL     OW10025   1.745   0.118   4.250
 2499SOL    HW210026   1.762   0.116   4.344
 2499SOL    HW310027   1.789   0.198   4.219
 2499SOL    MW410028   1.753   0.128   4.258
 2500SOL     OW10029   1.830   0.375   4.151
 2500SOL    HW210030   1.905   0.429   4.176
 2500SOL    HW310031   1.757   0.412   4.202
 2500SOL    MW410032   1.830   0.387   4.161
 2501SOL     OW10033   2.011   0.548   4.286
 2501SOL    HW210034   1.942   0.562   4.351
 2501SOL    HW310035   2.077   0.495   4.332
 2501SOL    MW410036   2.011   0.543   4.301
 2502SOL     OW10037   2.096   0.763   4.144
 2502SOL    HW210038   2.136   0.813   4.215
 2502SOL    HW310039   2.082   0.676   4.181
 2502SOL    MW410040   2.099   0.758   4.158
 2503SOL     OW10041   1.864   0.894   4.252
 2503SOL    HW210042   1.846   0.975   4.204
 2503SOL    HW310043   1.930   0.849   4.200
 2503SOL    MW410044   1.871   0.899   4.239
 2504SOL     OW10045   1.782   1.154   4.145
 2504SOL    HW210046   1.850   1.214   4.175
 2504SOL    HW310047   1.701   1.191   4.178
 2504SOL    MW410048   1.781   1.166   4.154
 2505SOL     OW10049   1.993   1.304   4.253
 2505SOL    HW210050   2.059   1.245   4.218
 2505SOL    HW310051   1.993   1.378   4.193
 2505SOL    MW410052   2.001   1.306   4.240
 2506SOL     OW10053   2.008   1.587   4.174
 2506SOL    HW210054   2.086   1.625   4.215
 2506SOL    HW310055   2.022   1.600   4.080
 2506SOL    MW410056   2.020   1.594   4.167
 2507SOL     OW10057   1.778   1.720   4.227
 2507SOL    HW210058   1.860   1.671   4.227
 2507SOL    HW310059   1.713   1.657   4.196
 2507SOL    MW410060   1.780   1.705   4.223
 2508SOL     OW10061   1.865   1.935   4.096
 2508SOL    HW210062   1.832   1.861   4.146
 2508SOL    HW310063   1.889   2.000   4.163
 2508SOL    MW410064   1.864   1.934   4.112
 2509SOL     OW10065   1.761   2.551   4.264
 2509SOL    HW210066   1.775   2.610   4.190
 2509SOL    HW310067   1.844   2.504   4.272
 2509SOL    MW410068   1.774   2.552   4.255
 2510SOL     OW10069   2.267   2.386   4.170
 2510SOL    HW210070   2.217   2.307   4.152
 2510SOL    HW310071   2.315   2.404   4.089
 2510SOL    MW410072   2.267   2.378   4.157
 2511SOL     OW10073   1.824   2.766   4.451
 2511SOL    HW210074   1.817   2.698   4.384
 2511SOL    HW310075   1.908   2.808   4.435
 2511SOL    MW410076   1.834   2.762   4.440
 2512SOL     OW10077   1.854   2.784   4.110
 2512SOL    HW210078   1.929   2.739   4.149
 2512SOL    HW310079   1.882   2.875   4.103
 2512SOL    MW410080   1.868   2.790   4.115
 2513SOL     OW10081   1.997   3.142   4.288
 2513SOL    HW210082   2.024   3.061   4.331
 2513SOL    HW310083   1.994   3.120   4.195
 2513SOL    MW410084   2.000   3.129   4.281
 2514SOL     OW10085   2.194   2.856   4.104
 2514SOL    HW210086   2.270   2.915   4.105
 2514SOL    HW310087   2.199   2.811   4.188
 2514SOL    MW410088   2.205   2.858   4.115
 2515SOL     OW10089   1.762   3.279   4.278
 2515SOL    HW210090   1.787   3.358   4.231
 2515SOL    HW310091   1.840   3.223   4.274
 2515SOL    MW410092   1.775   3.282   4.271
 2516SOL     OW10093   1.852   3.499   4.129
 2516SOL    HW210094   1.800   3.573   4.160
 2516SOL    HW310095   1.859   3.511   4.035
 2516SOL    MW410096   1.846   3.510   4.121
 2517SOL     OW10097   2.082   3.627   4.218
 2517SOL    HW210098   2.050   3.715   4.197
 2517SOL    HW310099   2.009   3.569   4.197
 2517SOL    MW410100   2.068   3.631   4.213
 2518SOL     OW10101   2.016   3.896   4.159
 2518SOL    HW210102   1.937   3.934   4.198
 2518SOL    HW310103   2.000   3.901   4.064
 2518SOL    MW410104   2.004   3.902   4.151
 2519SOL     OW10105   1.772   4.030   4.254
 2519SOL    HW210106   1.758   4.122   4.231
 2519SOL    HW310107   1.705   3.983   4.205
 2519SOL    MW410108   1.762   4.036   4.244
 2520SOL     OW10109   1.725   4.300   4.122
 2520SOL    HW210110   1.812   4.314   4.160
 2520SOL    HW310111   1.742   4.294   4.028
 2520SOL    MW410112   1.739   4.301   4.114
 2521SOL     OW10113   1.981   4.383   4.204
 2521SOL    HW210114   1.981   4.364   4.298
 2521SOL    HW310115   1.969   4.477   4.198
 2521SOL    MW410116   1.980   4.393   4.216
 2522SOL     OW10117   2.414   0.042   4.099
 2522SOL    HW210118   2.505   0.052   4.128
 2522SOL    HW310119   2.386  -0.041   4.139
 2522SOL    MW410120   2.423   0.032   4.108
 2523SOL     OW10121   2.159   0.059   4.381
 2523SOL    HW210122   2.120   0.055   4.293
 2523SOL    HW310123   2.178   0.152   4.394
 2523SOL    MW410124   2.156   0.071   4.371
 2524SOL     OW10125   2.347   0.308   4.144
 2524SOL    HW210126   2.361   0.214   4.132
 2524SOL    HW310127   2.307   0.337   4.062
 2524SOL    MW410128   2.343   0.300   4.132
 2525SOL     OW10129   2.489   0.502   4.292
 2525SOL    HW210130   2.478   0.487   4.386
 2525SOL    HW310131   2.431   0.438   4.251
 2525SOL    MW410132   2.480   0.491   4.299
 2526SOL     OW10133   2.475   0.778   4.206
 2526SOL    HW210134   2.498   0.686   4.220
 2526SOL    HW310135   2.482   0.790   4.111
 2526SOL    MW410136   2.479   0.767   4.195
 2527SOL     OW10137   2.246   0.933   4.323
 2527SOL    HW210138   2.228   0.935   4.417
 2527SOL    HW310139   2.335   0.898   4.316
 2527SOL    MW410140   2.255   0.929   4.334
 2528SOL     OW10141   2.202   1.155   4.156
 2528SOL    HW210142   2.277   1.206   4.185
 2528SOL    HW310143   2.206   1.075   4.209
 2528SOL    MW410144   2.212   1.151   4.167
 2529SOL     OW10145   2.430   1.281   4.232
 2529SOL    HW210146   2.430   1.293   4.327
 2529SOL    HW310147   2.508   1.227   4.215
 2529SOL    MW410148   2.440   1.275   4.242
 2530SOL     OW10149   2.452   1.529   4.150
 2530SOL    HW210150   2.435   1.445   4.195
 2530SOL    HW310151   2.463   1.505   4.058
 2530SOL    MW410152   2.451   1.514   4.144
 2531SOL     OW10153   2.238   1.714   4.267
 2531SOL    HW210154   2.298   1.666   4.211
 2531SOL    HW310155   2.212   1.791   4.216
 2531SOL    MW410156   2.242   1.718   4.253
 2532SOL     OW10157   2.202   1.955   4.141
 2532SOL    HW210158   2.285   1.984   4.178
 2532SOL    HW310159   2.149   2.035   4.135
 2532SOL    MW410160   2.206   1.969   4.145
 2533SOL     OW10161   2.423   2.043   4.271
 2533SOL    HW210162   2.426   2.007   4.359
 2533SOL    HW310163   2.501   2.008   4.228
 2533SOL    MW410164   2.433   2.034   4.277
 2534SOL     OW10165   2.608   2.321   4.194
 2534SOL    HW210166   2.591   2.302   4.286
 2534SOL    HW310167   2.537   2.278   4.147
 2534SOL    MW410168   2.597   2.313   4.200
 2535SOL     OW10169   2.505   2.496   4.584
 2535SOL    HW210170   2.428   2.523   4.534
 2535SOL    HW310171   2.559   2.575   4.590
 2535SOL    MW410172   2.502   2.510   4.579
 2536SOL     OW10173   2.050   2.579   4.200
 2536SOL    HW210174   2.096   2.638   4.259
 2536SOL    HW310175   2.112   2.508   4.184
 2536SOL    MW410176   2.064   2.578   4.206
 2537SOL     OW10177   2.488   2.779   4.300
 2537SOL    HW210178   2.504   2.690   4.268
 2537SOL    HW310179   2.397   2.777   4.330
 2537SOL    MW410180   2.478   2.767   4.300
 2538SOL     OW10181   2.383   3.068   4.064
 2538SOL    HW210182   2.463   3.047   4.113
 2538SOL    HW310183   2.341   3.137   4.114
 2538SOL    MW410184   2.388   3.074   4.077
 2539SOL     OW10185   1.986   3.031   4.045
 2539SOL    HW210186   1.989   3.044   3.950
 2539SOL    HW310187   2.063   2.977   4.064
 2539SOL    MW410188   1.996   3.025   4.035
 2540SOL     OW10189   2.312   3.468   4.156
 2540SOL    HW210190   2.291   3.382   4.193
 2540SOL    HW310191   2.241   3.525   4.186
 2540SOL    MW410192   2.300   3.464   4.165
 2541SOL     OW10193   2.525   3.602   4.269
 2541SOL    HW210194   2.459   3.548   4.226
 2541SOL    HW310195   2.496   3.692   4.256
 2541SOL    MW410196   2.513   3.607   4.261
 2542SOL     OW10197   2.428   3.855   4.163
 2542SOL    HW210198   2.502   3.909   4.192
 2542SOL    HW310199   2.447   3.837   4.071
 2542SOL    MW410200   2.440   3.860   4.155
 2543SOL     OW10201   2.248   4.051   4.205
 2543SOL    HW210202   2.315   3.983   4.194
 2543SOL    HW310203   2.166   4.003   4.206
 2543SOL    MW410204   2.246   4.036   4.203
 2544SOL     OW10205   2.233   4.311   4.114
 2544SOL    HW210206   2.234   4.220   4.141
 2544SOL    HW310207   2.148   4.345   4.142
 2544SOL    MW410208   2.222   4.304   4.121
 2545SOL     OW10209   2.426   4.473   4.224
 2545SOL    HW210210   2.501   4.432   4.180
 2545SOL    HW310211   2.350   4.428   4.187
 2545SOL    MW410212   2.426   4.461   4.213
 2546SOL     OW10213   2.908   4.599   4.167
 2546SOL    HW210214   2.991   4.646   4.167
 2546SOL    HW310215   2.926   4.519   4.218
 2546SOL    MW410216   2.921   4.594   4.174
 2547SOL     OW10217   2.664   0.099   4.214
 2547SOL    HW210218   2.688   0.190   4.196
 2547SOL    HW310219   2.736   0.047   4.179
 2547SOL    MW410220   2.677   0.104   4.207
 2548SOL     OW10221   2.710   0.370   4.192
 2548SOL    HW210222   2.636   0.419   4.228
 2548SOL    HW310223   2.703   0.381   4.098
 2548SOL    MW410224   2.699   0.378   4.185
 2549SOL     OW10225   2.916   0.499   4.326
 2549SOL    HW210226   2.923   0.577   4.270
 2549SOL    HW310227   2.839   0.453   4.293
 2549SOL    MW410228   2.907   0.503   4.314
 2550SOL     OW10229   2.898   0.732   4.167
 2550SOL    HW210230   2.970   0.791   4.191
 2550SOL    HW310231   2.886   0.745   4.073
 2550SOL    MW410232   2.906   0.742   4.158
 2551SOL     OW10233   2.703   0.893   4.266
 2551SOL    HW210234   2.771   0.830   4.240
 2551SOL    HW310235   2.621   0.846   4.254
 2551SOL    MW410236   2.701   0.879   4.261
 2552SOL     OW10237   2.669   1.153   4.179
 2552SOL    HW210238   2.698   1.067   4.207
 2552SOL    HW310239   2.682   1.153   4.084
 2552SOL    MW410240   2.674   1.142   4.170
 2553SOL     OW10241   2.924   1.258   4.258
 2553SOL    HW210242   2.992   1.198   4.226
 2553SOL    HW310243   2.842   1.214   4.237
 2553SOL    MW410244   2.922   1.244   4.251
 2554SOL     OW10245   2.926   1.514   4.160
 2554SOL    HW210246   2.994   1.563   4.205
 2554SOL    HW310247   2.932   1.425   4.194
 2554SOL    MW410248   2.936   1.509   4.170
 2555SOL     OW10249   2.680   1.644   4.255
 2555SOL    HW210250   2.743   1.610   4.192
 2555SOL    HW310251   2.597   1.603   4.231
 2555SOL    MW410252   2.677   1.634   4.244
 2556SOL     OW10253   2.651   1.903   4.187
 2556SOL    HW210254   2.662   1.812   4.214
 2556SOL    HW310255   2.674   1.903   4.094
 2556SOL    MW410256   2.655   1.891   4.178
 2557SOL     OW10257   2.871   2.013   4.295
 2557SOL    HW210258   2.867   2.105   4.266
 2557SOL    HW310259   2.791   1.974   4.261
 2557SOL    MW410260   2.860   2.020   4.286
 2558SOL     OW10261   2.877   2.263   4.186
 2558SOL    HW210262   2.902   2.320   4.260
 2558SOL    HW310263   2.783   2.275   4.178
 2558SOL    MW410264   2.868   2.272   4.195
 2559SOL     OW10265   2.652   2.588   4.171
 2559SOL    HW210266   2.721   2.589   4.237
 2559SOL    HW310267   2.623   2.497   4.168
 2559SOL    MW410268   2.657   2.576   4.179
 2560SOL     OW10269   2.640   2.964   4.135
 2560SOL    HW210270   2.589   2.910   4.195
 2560SOL    HW310271   2.654   3.046   4.182
 2560SOL    MW410272   2.635   2.968   4.149
 2561SOL     OW10273   2.913   2.917   4.112
 2561SOL    HW210274   2.822   2.899   4.137
 2561SOL    HW310275   2.907   2.948   4.021
 2561SOL    MW410276   2.900   2.919   4.103
 2562SOL     OW10277   3.011   3.068   4.294
 2562SOL    HW210278   3.009   3.009   4.370
 2562SOL    HW310279   2.989   3.012   4.220
 2562SOL    MW410280   3.008   3.053   4.295
 2563SOL     OW10281   2.747   3.217   4.248
 2563SOL    HW210282   2.739   3.248   4.338
 2563SOL    HW310283   2.838   3.186   4.242
 2563SOL    MW410284   2.758   3.217   4.259
 2564SOL     OW10285   2.695   3.450   4.101
 2564SOL    HW210286   2.706   3.363   4.141
 2564SOL    HW310287   2.639   3.497   4.163
 2564SOL    MW410288   2.689   3.444   4.115
 2565SOL     OW10289   2.890   3.616   4.196
 2565SOL    HW210290   2.881   3.608   4.291
 2565SOL    HW310291   2.825   3.555   4.161
 2565SOL    MW410292   2.880   3.607   4.204
 2566SOL     OW10293   2.879   3.876   4.109
 2566SOL    HW210294   2.965   3.905   4.141
 2566SOL    HW310295   2.871   3.786   4.140
 2566SOL    MW410296   2.890   3.868   4.117
 2567SOL     OW10297   2.645   4.024   4.202
 2567SOL    HW210298   2.642   4.117   4.180
 2567SOL    HW310299   2.733   3.996   4.176
 2567SOL    MW410300   2.657   4.033   4.196
 2568SOL     OW10301   2.657   4.303   4.119
 2568SOL    HW210302   2.744   4.333   4.146
 2568SOL    HW310303   2.664   4.291   4.025
 2568SOL    MW410304   2.669   4.305   4.110
 2569SOL     OW10305   2.890   4.339   4.260
 2569SOL    HW210306   2.913   4.338   4.353
 2569SOL    HW310307   2.967   4.302   4.216
 2569SOL    MW410308   2.903   4.334   4.266
 2570SOL     OW10309   3.349   4.578   4.142
 2570SOL    HW210310   3.422   4.624   4.185
 2570SOL    HW310311   3.359   4.487   4.170
 2570SOL    MW410312   3.360   4.572   4.152
 2571SOL     OW10313   3.145   0.097   4.199
 2571SOL    HW210314   3.144   0.115   4.293
 2571SOL    HW310315   3.219   0.036   4.187
 2571SOL    MW410316   3.155   0.091   4.209
 2572SOL     OW10317   3.120   0.387   4.169
 2572SOL    HW210318   3.113   0.294   4.187
 2572SOL    HW310319   3.055   0.428   4.227
 2572SOL    MW410320   3.110   0.380   4.179
 2573SOL     OW10321   3.344   0.511   4.254
 2573SOL    HW210322   3.401   0.437   4.232
 2573SOL    HW310323   3.256   0.482   4.228
 2573SOL    MW410324   3.340   0.497   4.248
 2574SOL     OW10325   3.349   0.780   4.165
 2574SOL    HW210326   3.261   0.807   4.188
 2574SOL    HW310327   3.362   0.697   4.211
 2574SOL    MW410328   3.339   0.772   4.174
 2575SOL     OW10329   3.120   0.894   4.258
 2575SOL    HW210330   3.076   0.912   4.341
 2575SOL    HW310331   3.132   0.981   4.219
 2575SOL    MW410332   3.116   0.908   4.264
 2576SOL     OW10333   3.150   1.141   4.143
 2576SOL    HW210334   3.223   1.179   4.192
 2576SOL    HW310335   3.177   1.147   4.051
 2576SOL    MW410336   3.163   1.147   4.137
 2577SOL     OW10337   3.341   1.214   4.313
 2577SOL    HW210338   3.340   1.197   4.408
 2577SOL    HW310339   3.355   1.308   4.306
 2577SOL    MW410340   3.343   1.224   4.325
 2578SOL     OW10341   3.381   1.528   4.342
 2578SOL    HW210342   3.299   1.572   4.321
 2578SOL    HW310343   3.428   1.523   4.259
 2578SOL    MW410344   3.376   1.533   4.329
 2579SOL     OW10345   3.135   1.629   4.294
 2579SOL    HW210346   3.112   1.635   4.387
 2579SOL    HW310347   3.144   1.720   4.266
 2579SOL    MW410348   3.133   1.642   4.302
 2580SOL     OW10349   3.142   1.897   4.193
 2580SOL    HW210350   3.220   1.953   4.195
 2580SOL    HW310351   3.073   1.950   4.233
 2580SOL    MW410352   3.143   1.911   4.199
 2581SOL     OW10353   3.354   2.084   4.230
 2581SOL    HW210354   3.440   2.064   4.194
 2581SOL    HW310355   3.333   2.171   4.196
 2581SOL    MW410356   3.362   2.093   4.221
 2582SOL     OW10357   3.329   2.339   4.137
 2582SOL    HW210358   3.409   2.351   4.189
 2582SOL    HW310359   3.359   2.345   4.046
 2582SOL    MW410360   3.344   2.341   4.132
 2583SOL     OW10361   3.194   2.524   4.292
 2583SOL    HW210362   3.157   2.586   4.230
 2583SOL    HW310363   3.238   2.459   4.238
 2583SOL    MW410364   3.195   2.524   4.277
 2584SOL     OW10365   3.124   2.715   4.107
 2584SOL    HW210366   3.173   2.767   4.171
 2584SOL    HW310367   3.039   2.758   4.102
 2584SOL    MW410368   3.119   2.727   4.115
 2585SOL     OW10369   3.314   2.843   4.259
 2585SOL    HW210370   3.378   2.778   4.229
 2585SOL    HW310371   3.351   2.927   4.233
 2585SOL    MW410372   3.327   2.845   4.251
 2586SOL     OW10373   3.389   3.091   4.172
 2586SOL    HW210374   3.337   3.167   4.195
 2586SOL    HW310375   3.374   3.078   4.079
 2586SOL    MW410376   3.380   3.099   4.163
 2587SOL     OW10377   3.199   3.266   4.253
 2587SOL    HW210378   3.159   3.333   4.198
 2587SOL    HW310379   3.128   3.205   4.271
 2587SOL    MW410380   3.184   3.267   4.248
 2588SOL     OW10381   3.124   3.491   4.137
 2588SOL    HW210382   3.043   3.537   4.158
 2588SOL    HW310383   3.127   3.489   4.041
 2588SOL    MW410384   3.114   3.497   4.127
 2589SOL     OW10385   3.382   3.599   4.216
 2589SOL    HW210386   3.385   3.631   4.306
 2589SOL    HW310387   3.290   3.575   4.202
 2589SOL    MW410388   3.370   3.600   4.226
 2590SOL     OW10389   3.361   3.853   4.110
 2590SOL    HW210390   3.374   3.761   4.132
 2590SOL    HW310391   3.364   3.855   4.014
 2590SOL    MW410392   3.363   3.841   4.100
 2591SOL     OW10393   3.117   3.985   4.195
 2591SOL    HW210394   3.126   3.980   4.290
 2591SOL    HW310395   3.202   3.957   4.161
 2591SOL    MW410396   3.130   3.981   4.203
 2592SOL     OW10397   3.114   4.230   4.097
 2592SOL    HW210398   3.189   4.271   4.141
 2592SOL    HW310399   3.123   4.137   4.119
 2592SOL    MW410400   3.125   4.223   4.106
 2593SOL     OW10401   3.341   4.325   4.236
 2593SOL    HW210402   3.345   4.315   4.331
 2593SOL    HW310403   3.425   4.293   4.205
 2593SOL    MW410404   3.352   4.319   4.245
 2594SOL     OW10405   3.773   0.002   4.152
 2594SOL    HW210406   3.858   0.023   4.191
 2594SOL    HW310407   3.792  -0.007   4.059
 2594SOL    MW410408   3.787   0.003   4.145
 2595SOL     OW10409   3.542   0.080   4.281
 2595SOL    HW210410   3.560   0.174   4.274
 2595SOL    HW310411   3.616   0.038   4.237
 2595SOL    MW410412   3.554   0.087   4.274
 2596SOL     OW10413   3.599   0.327   4.209
 2596SOL    HW210414   3.671   0.385   4.232
 2596SOL    HW310415   3.594   0.330   4.113
 2596SOL    MW410416   3.608   0.335   4.199
 2597SOL     OW10417   3.807   0.506   4.290
 2597SOL    HW210418   3.841   0.525   4.377
 2597SOL    HW310419   3.804   0.592   4.246
 2597SOL    MW410420   3.811   0.520   4.295
 2598SOL     OW10421   3.806   0.744   4.175
 2598SOL    HW210422   3.717   0.775   4.189
 2598SOL    HW310423   3.816   0.745   4.080
 2598SOL    MW410424   3.795   0.748   4.164
 2599SOL     OW10425   3.579   0.896   4.253
 2599SOL    HW210426   3.588   0.985   4.218
 2599SOL    HW310427   3.490   0.870   4.230
 2599SOL    MW410428   3.569   0.904   4.245
 2600SOL     OW10429   3.590   1.144   4.160
 2600SOL    HW210430   3.510   1.157   4.211
 2600SOL    HW310431   3.560   1.137   4.069
 2600SOL    MW410432   3.576   1.145   4.155
 2601SOL     OW10433   3.819   1.248   4.262
 2601SOL    HW210434   3.734   1.229   4.221
 2601SOL    HW310435   3.805   1.230   4.355
 2601SOL    MW410436   3.806   1.243   4.268
 2602SOL     OW10437   3.803   1.510   4.159
 2602SOL    HW210438   3.816   1.421   4.192
 2602SOL    HW310439   3.799   1.565   4.237
 2602SOL    MW410440   3.804   1.505   4.174
 2603SOL     OW10441   3.579   1.970   4.118
 2603SOL    HW210442   3.595   1.941   4.029
 2603SOL    HW310443   3.552   1.891   4.165
 2603SOL    MW410444   3.577   1.956   4.113
 2604SOL     OW10445   3.523   1.490   4.114
 2604SOL    HW210446   3.616   1.513   4.120
 2604SOL    HW310447   3.504   1.494   4.020
 2604SOL    MW410448   3.533   1.494   4.102
 2605SOL     OW10449   3.827   2.025   4.222
 2605SOL    HW210450   3.814   2.008   4.315
 2605SOL    HW310451   3.743   2.002   4.181
 2605SOL    MW410452   3.814   2.020   4.229
 2606SOL     OW10453   3.790   2.296   4.143
 2606SOL    HW210454   3.804   2.207   4.175
 2606SOL    HW310455   3.806   2.290   4.049
 2606SOL    MW410456   3.794   2.283   4.135
 2607SOL     OW10457   3.559   2.424   4.268
 2607SOL    HW210458   3.563   2.427   4.363
 2607SOL    HW310459   3.644   2.389   4.241
 2607SOL    MW410460   3.571   2.420   4.277
 2608SOL     OW10461   3.550   2.682   4.170
 2608SOL    HW210462   3.556   2.594   4.208
 2608SOL    HW310463   3.560   2.668   4.075
 2608SOL    MW410464   3.552   2.669   4.162
 2609SOL     OW10465   3.780   2.815   4.257
 2609SOL    HW210466   3.757   2.832   4.348
 2609SOL    HW310467   3.709   2.760   4.223
 2609SOL    MW410468   3.768   2.810   4.264
 2610SOL     OW10469   3.881   3.050   4.135
 2610SOL    HW210470   3.842   2.974   4.177
 2610SOL    HW310471   3.841   3.053   4.048
 2610SOL    MW410472   3.871   3.040   4.129
 2611SOL     OW10473   3.630   3.209   4.221
 2611SOL    HW210474   3.695   3.157   4.172
 2611SOL    HW310475   3.547   3.165   4.204
 2611SOL    MW410476   3.628   3.196   4.212
 2612SOL     OW10477   3.597   3.463   4.124
 2612SOL    HW210478   3.595   3.382   4.175
 2612SOL    HW310479   3.517   3.509   4.150
 2612SOL    MW410480   3.586   3.459   4.134
 2613SOL     OW10481   3.798   3.609   4.229
 2613SOL    HW210482   3.876   3.556   4.208
 2613SOL    HW310483   3.726   3.545   4.229
 2613SOL    MW410484   3.799   3.593   4.226
 2614SOL     OW10485   3.813   3.858   4.113
 2614SOL    HW210486   3.732   3.905   4.134
 2614SOL    HW310487   3.798   3.768   4.142
 2614SOL    MW410488   3.801   3.852   4.119
 2615SOL     OW10489   3.568   3.964   4.245
 2615SOL    HW210490   3.554   3.936   4.335
 2615SOL    HW310491   3.487   3.941   4.199
 2615SOL    MW410492   3.556   3.957   4.251
 2616SOL     OW10493   3.610   4.240   4.182
 2616SOL    HW210494   3.679   4.277   4.236
 2616SOL    HW310495   3.604   4.149   4.210
 2616SOL    MW410496   3.618   4.233   4.193
 2617SOL     OW10497   3.837   4.399   4.267
 2617SOL    HW210498   3.917   4.364   4.228
 2617SOL    HW310499   3.810   4.469   4.209
 2617SOL    MW410500   3.844   4.404   4.254
 2618SOL     OW10501   4.269   4.643   4.156
 2618SOL    HW210502   4.303   4.558   4.183
 2618SOL    HW310503   4.335   4.706   4.187
 2618SOL    MW410504   4.282   4.640   4.164
 2619SOL     OW10505   4.026   0.072   4.256
 2619SOL    HW210506   4.033   0.160   4.220
 2619SOL    HW310507   4.105   0.027   4.226
 2619SOL    MW410508   4.037   0.078   4.247
 2620SOL     OW10509   4.033   0.357   4.189
 2620SOL    HW210510   4.115   0.403   4.209
 2620SOL    HW310511   3.964   0.417   4.218
 2620SOL    MW410512   4.035   0.371   4.195
 2621SOL     OW10513   4.284   0.498   4.258
 2621SOL    HW210514   4.270   0.592   4.252
 2621SOL    HW310515   4.356   0.480   4.197
 2621SOL    MW410516   4.291   0.508   4.249
 2622SOL     OW10517   4.274   0.780   4.214
 2622SOL    HW210518   4.196   0.811   4.260
 2622SOL    HW310519   4.250   0.784   4.122
 2622SOL    MW410520   4.261   0.784   4.208
 2623SOL     OW10521   4.041   0.873   4.315
 2623SOL    HW210522   4.058   0.958   4.274
 2623SOL    HW310523   3.963   0.840   4.270
 2623SOL    MW410524   4.033   0.880   4.304
 2624SOL     OW10525   4.071   1.130   4.196
 2624SOL    HW210526   4.130   1.200   4.223
 2624SOL    HW310527   3.984   1.162   4.219
 2624SOL    MW410528   4.068   1.143   4.202
 2625SOL     OW10529   4.274   1.318   4.299
 2625SOL    HW210530   4.266   1.311   4.394
 2625SOL    HW310531   4.334   1.247   4.275
 2625SOL    MW410532   4.281   1.307   4.308
 2626SOL     OW10533   4.274   1.560   4.184
 2626SOL    HW210534   4.258   1.472   4.220
 2626SOL    HW310535   4.290   1.545   4.091
 2626SOL    MW410536   4.274   1.546   4.177
 2627SOL     OW10537   4.099   1.710   4.355
 2627SOL    HW210538   4.138   1.715   4.442
 2627SOL    HW310539   4.159   1.656   4.304
 2627SOL    MW410540   4.112   1.704   4.359
 2628SOL     OW10541   4.067   1.914   4.153
 2628SOL    HW210542   4.083   1.844   4.216
 2628SOL    HW310543   3.982   1.950   4.178
 2628SOL    MW410544   4.058   1.910   4.164
 2629SOL     OW10545   0.020   1.943   4.082
 2629SOL    HW210546   0.095   1.985   4.123
 2629SOL    HW310547  -0.057   1.989   4.117
 2629SOL    MW410548   0.019   1.955   4.092
 2630SOL     OW10549   4.284   2.318   4.112
 2630SOL    HW210550   4.204   2.361   4.144
 2630SOL    HW310551   4.286   2.234   4.159
 2630SOL    MW410552   4.274   2.312   4.123
 2631SOL     OW10553   4.038   2.438   4.199
 2631SOL    HW210554   4.066   2.410   4.286
 2631SOL    HW310555   3.949   2.404   4.191
 2631SOL    MW410556   4.030   2.430   4.210
 2632SOL     OW10557   4.055   2.716   4.182
 2632SOL    HW210558   4.052   2.621   4.196
 2632SOL    HW310559   3.974   2.748   4.223
 2632SOL    MW410560   4.044   2.707   4.189
 2633SOL     OW10561   4.323   2.798   4.270
 2633SOL    HW210562   4.241   2.754   4.246
 2633SOL    HW310563   4.392   2.736   4.245
 2633SOL    MW410564   4.321   2.784   4.264
 2634SOL     OW10565   4.323   3.054   4.186
 2634SOL    HW210566   4.320   2.964   4.220
 2634SOL    HW310567   4.305   3.044   4.093
 2634SOL    MW410568   4.320   3.041   4.178
 2635SOL     OW10569   4.090   3.209   4.261
 2635SOL    HW210570   4.176   3.170   4.248
 2635SOL    HW310571   4.031   3.156   4.207
 2635SOL    MW410572   4.094   3.197   4.252
 2636SOL     OW10573   4.046   3.483   4.179
 2636SOL    HW210574   4.067   3.393   4.202
 2636SOL    HW310575   4.025   3.480   4.086
 2636SOL    MW410576   4.046   3.471   4.170
 2637SOL     OW10577   4.287   3.630   4.195
 2637SOL    HW210578   4.280   3.724   4.179
 2637SOL    HW310579   4.198   3.597   4.184
 2637SOL    MW410580   4.275   3.638   4.191
 2638SOL     OW10581   4.228   3.901   4.132
 2638SOL    HW210582   4.155   3.960   4.148
 2638SOL    HW310583   4.236   3.897   4.037
 2638SOL    MW410584   4.220   3.908   4.122
 2639SOL     OW10585   4.009   4.052   4.219
 2639SOL    HW210586   4.032   4.026   4.308
 2639SOL    HW310587   3.946   3.986   4.191
 2639SOL    MW410588   4.004   4.040   4.227
 2640SOL     OW10589   4.068   4.302   4.141
 2640SOL    HW210590   4.140   4.334   4.195
 2640SOL    HW310591   4.044   4.218   4.179
 2640SOL    MW410592   4.074   4.295   4.153
 2641SOL     OW10593   4.072   4.171   4.666
 2641SOL    HW210594   4.019   4.127   4.732
 2641SOL    HW310595   4.020   4.248   4.641
 2641SOL    MW410596   4.058   4.176   4.671
 2642SOL     OW10597   4.292   0.201   4.787
 2642SOL    HW210598   4.376   0.246   4.775
 2642SOL    HW310599   4.229   0.254   4.737
 2642SOL    MW410600   4.295   0.214   4.779
 2643SOL     OW10601   4.284   4.332   4.542
 2643SOL    HW210602   4.306   4.419   4.574
 2643SOL    HW310603   4.229   4.294   4.610
 2643SOL    MW410604   4.280   4.338   4.555
 2644SOL     OW10605   3.996   0.066   4.539
 2644SOL    HW210606   3.992   0.087   4.446
 2644SOL    HW310607   3.906   0.051   4.565
 2644SOL    MW410608   3.984   0.067   4.530
 2645SOL     OW10609   4.207   1.713   4.610
 2645SOL    HW210610   4.298   1.707   4.639
 2645SOL    HW310611   4.166   1.632   4.640
 2645SOL    MW410612   4.213   1.702   4.618
 2646SOL     OW10613   0.506   4.626   4.536
 2646SOL    HW210614   0.413   4.623   4.559
 2646SOL    HW310615   0.534   4.535   4.535
 2646SOL    MW410616   0.497   4.614   4.539
 2647SOL     OW10617   0.224   0.493   4.530
 2647SOL    HW210618   0.217   0.476   4.436
 2647SOL    HW310619   0.316   0.474   4.550
 2647SOL    MW410620   0.235   0.488   4.520
 2648SOL     OW10621   4.410   0.767   4.668
 2648SOL    HW210622   4.376   0.688   4.625
 2648SOL    HW310623   4.503   0.769   4.645
 2648SOL    MW410624   4.418   0.757   4.659
 2649SOL     OW10625   0.697   1.321   4.558
 2649SOL    HW210626   0.716   1.405   4.600
 2649SOL    HW310627   0.611   1.296   4.592
 2649SOL    MW410628   0.688   1.329   4.568
 2650SOL     OW10629   1.223   1.961   4.524
 2650SOL    HW210630   1.318   1.965   4.530
 2650SOL    HW310631   1.193   2.038   4.574
 2650SOL    MW410632   1.231   1.972   4.532
 2651SOL     OW10633   4.262   1.277   4.562
 2651SOL    HW210634   4.252   1.190   4.601
 2651SOL    HW310635   4.345   1.309   4.598
 2651SOL    MW410636   4.272   1.270   4.572
 2652SOL     OW10637   0.161   1.754   4.476
 2652SOL    HW210638   0.128   1.717   4.394
 2652SOL    HW310639   0.169   1.848   4.458
 2652SOL    MW410640   0.158   1.762   4.463
 2653SOL     OW10641   0.466   1.669   4.289
 2653SOL    HW210642   0.395   1.631   4.237
 2653SOL    HW310643   0.546   1.638   4.248
 2653SOL    MW410644   0.467   1.660   4.277
 2654SOL     OW10645   0.120   2.026   4.450
 2654SOL    HW210646   0.031   2.024   4.485
 2654SOL    HW310647   0.159   2.105   4.488
 2654SOL    MW410648   0.113   2.036   4.460
 2655SOL     OW10649   4.130   2.308   4.417
 2655SOL    HW210650   4.157   2.370   4.485
 2655SOL    HW310651   4.054   2.263   4.454
 2655SOL    MW410652   4.124   2.310   4.431
 2656SOL     OW10653   0.298   2.932   4.630
 2656SOL    HW210654   0.283   2.950   4.537
 2656SOL    HW310655   0.344   2.847   4.630
 2656SOL    MW410656   0.302   2.923   4.617
 2657SOL     OW10657   0.359   3.251   4.502
 2657SOL    HW210658   0.437   3.223   4.549
 2657SOL    HW310659   0.365   3.346   4.500
 2657SOL    MW410660   0.370   3.260   4.508
 2658SOL     OW10661   0.020   2.444   4.547
 2658SOL    HW210662  -0.001   2.434   4.454
 2658SOL    HW310663   0.061   2.530   4.554
 2658SOL    MW410664   0.023   2.454   4.536
 2659SOL     OW10665   4.042   3.412   4.478
 2659SOL    HW210666   4.013   3.425   4.387
 2659SOL    HW310667   4.020   3.321   4.497
 2659SOL    MW410668   4.035   3.402   4.468
 2660SOL     OW10669   0.579   3.684   4.534
 2660SOL    HW210670   0.549   3.774   4.541
 2660SOL    HW310671   0.500   3.631   4.546
 2660SOL    MW410672   0.565   3.689   4.536
 2661SOL     OW10673   4.226   3.788   4.624
 2661SOL    HW210674   4.173   3.834   4.558
 2661SOL    HW310675   4.238   3.700   4.588
 2661SOL    MW410676   4.221   3.782   4.610
 2662SOL     OW10677   0.014   0.056   4.524
 2662SOL    HW210678  -0.064   0.012   4.557
 2662SOL    HW310679   0.008   0.145   4.559
 2662SOL    MW410680   0.003   0.062   4.533
 2663SOL     OW10681   3.866   0.491   4.578
 2663SOL    HW210682   3.795   0.438   4.614
 2663SOL    HW310683   3.848   0.579   4.609
 2663SOL    MW410684   3.854   0.495   4.587
 2664SOL     OW10685   4.012   3.756   4.803
 2664SOL    HW210686   4.058   3.706   4.871
 2664SOL    HW310687   4.080   3.775   4.738
 2664SOL    MW410688   4.027   3.752   4.803
 2665SOL     OW10689   3.877   4.017   4.791
 2665SOL    HW210690   3.922   3.933   4.799
 2665SOL    HW310691   3.791   3.995   4.755
 2665SOL    MW410692   3.872   4.003   4.788
 2666SOL     OW10693   0.609   4.372   4.486
 2666SOL    HW210694   0.640   4.379   4.396
 2666SOL    HW310695   0.537   4.309   4.482
 2666SOL    MW410696   0.604   4.365   4.474
 2667SOL     OW10697   4.261   1.023   4.688
 2667SOL    HW210698   4.313   0.945   4.671
 2667SOL    HW310699   4.279   1.045   4.779
 2667SOL    MW410700   4.270   1.015   4.698
 2668SOL     OW10701   1.221   0.939   4.600
 2668SOL    HW210702   1.169   0.955   4.521
 2668SOL    HW310703   1.177   0.865   4.642
 2668SOL    MW410704   1.208   0.931   4.595
 2669SOL     OW10705   0.862   0.337   4.628
 2669SOL    HW210706   0.939   0.302   4.583
 2669SOL    HW310707   0.790   0.279   4.602
 2669SOL    MW410708   0.863   0.325   4.619
 2670SOL     OW10709   1.028   0.987   4.410
 2670SOL    HW210710   0.983   0.979   4.327
 2670SOL    HW310711   0.963   1.024   4.470
 2670SOL    MW410712   1.014   0.990   4.407
 2671SOL     OW10713   0.446   0.904   4.528
 2671SOL    HW210714   0.370   0.846   4.536
 2671SOL    HW310715   0.457   0.916   4.434
 2671SOL    MW410716   0.437   0.898   4.517
 2672SOL     OW10717   1.958   1.386   4.524
 2672SOL    HW210718   1.970   1.361   4.432
 2672SOL    HW310719   2.042   1.425   4.550
 2672SOL    MW410720   1.971   1.388   4.515
 2673SOL     OW10721   0.405   1.625   4.572
 2673SOL    HW210722   0.317   1.663   4.566
 2673SOL    HW310723   0.435   1.620   4.482
 2673SOL    MW410724   0.397   1.629   4.560
 2674SOL     OW10725   1.305   1.224   4.539
 2674SOL    HW210726   1.297   1.134   4.570
 2674SOL    HW310727   1.233   1.270   4.580
 2674SOL    MW410728   1.295   1.218   4.548
 2675SOL     OW10729   0.952   1.576   4.573
 2675SOL    HW210730   0.870   1.601   4.616
 2675SOL    HW310731   1.017   1.636   4.609
 2675SOL    MW410732   0.950   1.587   4.583
 2676SOL     OW10733   0.640   2.169   4.531
 2676SOL    HW210734   0.704   2.238   4.516
 2676SOL    HW310735   0.682   2.111   4.595
 2676SOL    MW410736   0.654   2.171   4.537
 2677SOL     OW10737   1.156   1.723   4.678
 2677SOL    HW210738   1.240   1.677   4.684
 2677SOL    HW310739   1.177   1.805   4.633
 2677SOL    MW410740   1.170   1.728   4.673
 2678SOL     OW10741   0.478   2.403   4.520
 2678SOL    HW210742   0.527   2.321   4.523
 2678SOL    HW310743   0.445   2.409   4.431
 2678SOL    MW410744   0.480   2.393   4.509
 2679SOL     OW10745   1.029   2.705   4.742
 2679SOL    HW210746   1.025   2.780   4.682
 2679SOL    HW310747   1.119   2.706   4.775
 2679SOL    MW410748   1.041   2.715   4.738
 2680SOL     OW10749   0.762   2.617   4.690
 2680SOL    HW210750   0.852   2.621   4.723
 2680SOL    HW310751   0.760   2.538   4.637
 2680SOL    MW410752   0.774   2.607   4.688
 2681SOL     OW10753   1.025   3.378   4.526
 2681SOL    HW210754   0.949   3.415   4.570
 2681SOL    HW310755   1.048   3.301   4.578
 2681SOL    MW410756   1.018   3.373   4.538
 2682SOL     OW10757   0.811   3.542   4.638
 2682SOL    HW210758   0.726   3.576   4.612
 2682SOL    HW310759   0.873   3.612   4.618
 2682SOL    MW410760   0.808   3.555   4.632
 2683SOL     OW10761   1.273   0.000   4.493
 2683SOL    HW210762   1.231  -0.086   4.502
 2683SOL    HW310763   1.362  -0.013   4.526
 2683SOL    MW410764   1.279  -0.013   4.499
 2684SOL     OW10765   0.169   2.676   4.560
 2684SOL    HW210766   0.261   2.673   4.588
 2684SOL    HW310767   0.170   2.727   4.479
 2684SOL    MW410768   0.181   2.683   4.553
 2685SOL     OW10769   0.061   3.502   4.557
 2685SOL    HW210770   0.056   3.406   4.562
 2685SOL    HW310771  -0.023   3.528   4.518
 2685SOL    MW410772   0.050   3.492   4.552
 2686SOL     OW10773   1.168   3.645   4.825
 2686SOL    HW210774   1.116   3.654   4.745
 2686SOL    HW310775   1.123   3.700   4.889
 2686SOL    MW410776   1.155   3.653   4.823
 2687SOL     OW10777   0.047   4.198   4.637
 2687SOL    HW210778   0.057   4.106   4.614
 2687SOL    HW310779  -0.032   4.227   4.591
 2687SOL    MW410780   0.038   4.190   4.628
 2688SOL     OW10781   4.462   3.946   4.536
 2688SOL    HW210782   4.526   3.876   4.548
 2688SOL    HW310783   4.386   3.919   4.587
 2688SOL    MW410784   4.461   3.933   4.544
 2689SOL     OW10785   0.239   4.593   4.630
 2689SOL    HW210786   0.164   4.635   4.589
 2689SOL    HW310787   0.202   4.547   4.705
 2689SOL    MW410788   0.224   4.592   4.634
 2690SOL     OW10789   0.630   0.199   4.599
 2690SOL    HW210790   0.636   0.197   4.694
 2690SOL    HW310791   0.602   0.111   4.575
 2690SOL    MW410792   0.627   0.187   4.608
 2691SOL     OW10793   1.149   4.364   4.484
 2691SOL    HW210794   1.220   4.309   4.516
 2691SOL    HW310795   1.070   4.323   4.518
 2691SOL    MW410796   1.148   4.351   4.493
 2692SOL     OW10797   0.776   0.595   4.568
 2692SOL    HW210798   0.762   0.585   4.474
 2692SOL    HW310799   0.787   0.505   4.600
 2692SOL    MW410800   0.775   0.582   4.560
 2693SOL     OW10801   1.477   0.880   4.482
 2693SOL    HW210802   1.444   0.896   4.394
 2693SOL    HW310803   1.400   0.890   4.538
 2693SOL    MW410804   1.462   0.883   4.478
 2694SOL     OW10805   1.679   1.015   4.602
 2694SOL    HW210806   1.757   0.966   4.575
 2694SOL    HW310807   1.610   0.987   4.542
 2694SOL    MW410808   1.680   1.005   4.591
 2695SOL     OW10809   0.468   1.160   4.638
 2695SOL    HW210810   0.460   1.075   4.596
 2695SOL    HW310811   0.447   1.145   4.730
 2695SOL    MW410812   0.464   1.147   4.645
 2696SOL     OW10813   0.835   2.090   4.758
 2696SOL    HW210814   0.802   2.154   4.822
 2696SOL    HW310815   0.928   2.112   4.749
 2696SOL    MW410816   0.843   2.102   4.766
 2697SOL     OW10817   0.867   1.094   4.618
 2697SOL    HW210818   0.792   1.153   4.611
 2697SOL    HW310819   0.830   1.006   4.609
 2697SOL    MW410820   0.852   1.090   4.616
 2698SOL     OW10821   1.845   1.230   4.730
 2698SOL    HW210822   1.802   1.154   4.692
 2698SOL    HW310823   1.868   1.285   4.655
 2698SOL    MW410824   1.843   1.228   4.715
 2699SOL     OW10825   1.046   1.299   4.614
 2699SOL    HW210826   0.980   1.231   4.629
 2699SOL    HW310827   0.996   1.376   4.587
 2699SOL    MW410828   1.031   1.300   4.613
 2700SOL     OW10829   1.089   2.444   4.603
 2700SOL    HW210830   1.062   2.515   4.662
 2700SOL    HW310831   1.175   2.470   4.571
 2700SOL    MW410832   1.096   2.457   4.607
 2701SOL     OW10833   1.569   2.717   4.819
 2701SOL    HW210834   1.617   2.796   4.793
 2701SOL    HW310835   1.631   2.646   4.803
 2701SOL    MW410836   1.584   2.718   4.814
 2702SOL     OW10837   1.414   2.873   4.573
 2702SOL    HW210838   1.390   2.801   4.631
 2702SOL    HW310839   1.492   2.912   4.614
 2702SOL    MW410840   1.421   2.869   4.586
 2703SOL     OW10841   1.389   3.318   4.547
 2703SOL    HW210842   1.347   3.403   4.532
 2703SOL    HW310843   1.396   3.279   4.460
 2703SOL    MW410844   1.384   3.324   4.534
 2704SOL     OW10845   0.738   2.853   4.592
 2704SOL    HW210846   0.824   2.895   4.590
 2704SOL    HW310847   0.755   2.767   4.631
 2704SOL    MW410848   0.752   2.847   4.597
 2705SOL     OW10849   0.418   4.177   4.463
 2705SOL    HW210850   0.342   4.236   4.459
 2705SOL    HW310851   0.424   4.140   4.375
 2705SOL    MW410852   0.409   4.180   4.451
 2706SOL     OW10853   1.021   2.945   4.563
 2706SOL    HW210854   1.078   2.928   4.488
 2706SOL    HW310855   1.075   2.997   4.622
 2706SOL    MW410856   1.036   2.949   4.561
 2707SOL     OW10857   0.548   3.068   4.658
 2707SOL    HW210858   0.463   3.026   4.665
 2707SOL    HW310859   0.610   2.995   4.649
 2707SOL    MW410860   0.545   3.052   4.657
 2708SOL     OW10861   1.525   3.733   4.474
 2708SOL    HW210862   1.584   3.807   4.487
 2708SOL    HW310863   1.572   3.657   4.508
 2708SOL    MW410864   1.539   3.732   4.480
 2709SOL     OW10865   0.444   3.925   4.617
 2709SOL    HW210866   0.441   3.995   4.552
 2709SOL    HW310867   0.467   3.968   4.699
 2709SOL    MW410868   0.446   3.940   4.619
 2710SOL     OW10869   0.197   3.806   4.579
 2710SOL    HW210870   0.217   3.713   4.582
 2710SOL    HW310871   0.283   3.849   4.582
 2710SOL    MW410872   0.211   3.800   4.580
 2711SOL     OW10873   0.891   4.257   4.518
 2711SOL    HW210874   0.887   4.163   4.538
 2711SOL    HW310875   0.800   4.286   4.525
 2711SOL    MW410876   0.878   4.249   4.522
 2712SOL     OW10877   0.224   4.353   4.492
 2712SOL    HW210878   0.244   4.431   4.543
 2712SOL    HW310879   0.169   4.300   4.549
 2712SOL    MW410880   0.219   4.356   4.506
 2713SOL     OW10881   2.263   3.886   4.622
 2713SOL    HW210882   2.264   3.865   4.715
 2713SOL    HW310883   2.225   3.808   4.580
 2713SOL    MW410884   2.258   3.873   4.629
 2714SOL     OW10885   1.557   4.602   4.533
 2714SOL    HW210886   1.598   4.532   4.584
 2714SOL    HW310887   1.564   4.573   4.442
 2714SOL    MW410888   1.563   4.589   4.528
 2715SOL     OW10889   1.389   4.208   4.474
 2715SOL    HW210890   1.440   4.275   4.428
 2715SOL    HW310891   1.453   4.164   4.531
 2715SOL    MW410892   1.404   4.211   4.476
 2716SOL     OW10893   1.028   0.706   4.556
 2716SOL    HW210894   1.013   0.784   4.502
 2716SOL    HW310895   0.943   0.662   4.558
 2716SOL    MW410896   1.015   0.710   4.549
 2717SOL     OW10897   1.799   0.129   4.529
 2717SOL    HW210898   1.713   0.096   4.553
 2717SOL    HW310899   1.859   0.059   4.552
 2717SOL    MW410900   1.796   0.116   4.535
 2718SOL     OW10901   1.216   0.508   4.498
 2718SOL    HW210902   1.152   0.578   4.510
 2718SOL    HW310903   1.172   0.429   4.528
 2718SOL    MW410904   1.202   0.507   4.504
 2719SOL     OW10905   1.807   1.753   4.511
 2719SOL    HW210906   1.753   1.679   4.542
 2719SOL    HW310907   1.790   1.756   4.417
 2719SOL    MW410908   1.797   1.743   4.502
 2720SOL     OW10909   0.719   0.885   4.545
 2720SOL    HW210910   0.624   0.895   4.548
 2720SOL    HW310911   0.735   0.797   4.580
 2720SOL    MW410912   0.709   0.874   4.550
 2721SOL     OW10913   1.820   0.585   4.529
 2721SOL    HW210914   1.729   0.580   4.559
 2721SOL    HW310915   1.864   0.513   4.575
 2721SOL    MW410916   1.814   0.575   4.539
 2722SOL     OW10917   1.577   1.267   4.532
 2722SOL    HW210918   1.484   1.253   4.546
 2722SOL    HW310919   1.618   1.185   4.560
 2722SOL    MW410920   1.570   1.254   4.538
 2723SOL     OW10921   1.418   1.662   4.575
 2723SOL    HW210922   1.499   1.611   4.577
 2723SOL    HW310923   1.380   1.643   4.488
 2723SOL    MW410924   1.423   1.653   4.564
 2724SOL     OW10925   1.322   2.681   4.754
 2724SOL    HW210926   1.331   2.613   4.687
 2724SOL    HW310927   1.412   2.696   4.785
 2724SOL    MW410928   1.335   2.674   4.749
 2725SOL     OW10929   2.330   2.527   4.391
 2725SOL    HW210930   2.317   2.482   4.307
 2725SOL    HW310931   2.280   2.608   4.383
 2725SOL    MW410932   2.322   2.532   4.379
 2726SOL     OW10933   0.841   2.396   4.499
 2726SOL    HW210934   0.927   2.400   4.541
 2726SOL    HW310935   0.858   2.419   4.408
 2726SOL    MW410936   0.855   2.400   4.493
 2727SOL     OW10937   1.345   3.825   4.666
 2727SOL    HW210938   1.311   3.747   4.710
 2727SOL    HW310939   1.403   3.790   4.598
 2727SOL    MW410940   1.348   3.810   4.663
 2728SOL     OW10941   1.339   2.491   4.246
 2728SOL    HW210942   1.361   2.579   4.214
 2728SOL    HW310943   1.420   2.442   4.242
 2728SOL    MW410944   1.352   2.496   4.241
 2729SOL     OW10945   1.356   2.505   4.533
 2729SOL    HW210946   1.347   2.517   4.439
 2729SOL    HW310947   1.427   2.443   4.543
 2729SOL    MW410948   1.364   2.498   4.522
 2730SOL     OW10949   1.170   3.171   4.677
 2730SOL    HW210950   1.199   3.176   4.768
 2730SOL    HW310951   1.246   3.201   4.627
 2730SOL    MW410952   1.184   3.176   4.682
 2731SOL     OW10953   1.236   3.565   4.472
 2731SOL    HW210954   1.162   3.513   4.502
 2731SOL    HW310955   1.223   3.574   4.378
 2731SOL    MW410956   1.225   3.559   4.464
 2732SOL     OW10957   1.027   3.721   4.614
 2732SOL    HW210958   1.097   3.712   4.549
 2732SOL    HW310959   0.981   3.800   4.589
 2732SOL    MW410960   1.030   3.730   4.603
 2733SOL     OW10961   2.129   3.668   4.493
 2733SOL    HW210962   2.117   3.656   4.399
 2733SOL    HW310963   2.161   3.583   4.524
 2733SOL    MW410964   2.132   3.656   4.485
 2734SOL     OW10965   1.656   3.425   4.501
 2734SOL    HW210966   1.576   3.392   4.541
 2734SOL    HW310967   1.672   3.368   4.427
 2734SOL    MW410968   1.648   3.413   4.497
 2735SOL     OW10969   2.248   3.237   4.279
 2735SOL    HW210970   2.158   3.204   4.284
 2735SOL    HW310971   2.303   3.164   4.307
 2735SOL    MW410972   2.243   3.223   4.283
 2736SOL     OW10973   0.926   3.985   4.533
 2736SOL    HW210974   0.903   3.983   4.441
 2736SOL    HW310975   1.021   3.997   4.534
 2736SOL    MW410976   0.936   3.987   4.521
 2737SOL     OW10977   1.735   3.923   4.507
 2737SOL    HW210978   1.750   3.966   4.422
 2737SOL    HW310979   1.786   3.842   4.501
 2737SOL    MW410980   1.744   3.918   4.495
 2738SOL     OW10981   2.198   0.342   4.389
 2738SOL    HW210982   2.246   0.338   4.306
 2738SOL    HW310983   2.254   0.396   4.445
 2738SOL    MW410984   2.212   0.349   4.385
 2739SOL     OW10985   1.077   0.240   4.474
 2739SOL    HW210986   1.023   0.204   4.403
 2739SOL    HW310987   1.135   0.168   4.498
 2739SOL    MW410988   1.078   0.226   4.468
 2740SOL     OW10989   1.941   0.365   4.654
 2740SOL    HW210990   2.025   0.328   4.680
 2740SOL    HW310991   1.894   0.291   4.615
 2740SOL    MW410992   1.946   0.350   4.652
 2741SOL     OW10993   2.409   4.615   4.518
 2741SOL    HW210994   2.419   4.520   4.517
 2741SOL    HW310995   2.340   4.633   4.454
 2741SOL    MW410996   2.401   4.605   4.509
 2742SOL     OW10997   1.924   0.882   4.530
 2742SOL    HW210998   1.903   0.788   4.538
 2742SOL    HW310999   1.913   0.900   4.437
 2742SOL    MW411000   1.920   0.872   4.519
 2743SOL     OW11001   1.518   0.602   4.508
 2743SOL    HW211002   1.505   0.696   4.517
 2743SOL    HW311003   1.433   0.563   4.529
 2743SOL    MW411004   1.505   0.609   4.512
 2744SOL     OW11005   2.005   1.684   4.684
 2744SOL    HW211006   1.966   1.612   4.733
 2744SOL    HW311007   1.944   1.698   4.611
 2744SOL    MW411008   1.992   1.676   4.681
 2745SOL     OW11009   0.895   1.820   4.813
 2745SOL    HW211010   0.888   1.915   4.802
 2745SOL    HW311011   0.989   1.802   4.805
 2745SOL    MW411012   0.906   1.830   4.810
 2746SOL     OW11013   1.660   1.540   4.594
 2746SOL    HW211014   1.633   1.455   4.559
 2746SOL    HW311015   1.717   1.519   4.668
 2746SOL    MW411016   1.664   1.526   4.599
 2747SOL     OW11017   1.098   2.156   4.683
 2747SOL    HW211018   1.178   2.165   4.734
 2747SOL    HW311019   1.079   2.245   4.652
 2747SOL    MW411020   1.106   2.169   4.686
 2748SOL     OW11021   1.502   1.952   4.567
 2748SOL    HW211022   1.555   1.957   4.488
 2748SOL    HW311023   1.488   1.858   4.580
 2748SOL    MW411024   1.507   1.940   4.558
 2749SOL     OW11025   2.070   2.218   4.157
 2749SOL    HW211026   2.033   2.250   4.240
 2749SOL    HW311027   2.016   2.258   4.089
 2749SOL    MW411028   2.058   2.227   4.159
 2750SOL     OW11029   1.380   2.165   4.772
 2750SOL    HW211030   1.445   2.096   4.776
 2750SOL    HW311031   1.423   2.236   4.724
 2750SOL    MW411032   1.394   2.166   4.766
 2751SOL     OW11033   2.456   3.075   4.352
 2751SOL    HW211034   2.538   3.075   4.401
 2751SOL    HW311035   2.400   3.015   4.400
 2751SOL    MW411036   2.460   3.067   4.365
 2752SOL     OW11037   1.683   2.912   4.658
 2752SOL    HW211038   1.725   2.847   4.601
 2752SOL    HW311039   1.731   2.993   4.642
 2752SOL    MW411040   1.695   2.914   4.648
 2753SOL     OW11041   1.685   4.355   4.575
 2753SOL    HW211042   1.659   4.271   4.613
 2753SOL    HW311043   1.765   4.335   4.527
 2753SOL    MW411044   1.692   4.341   4.573
 2754SOL     OW11045   2.687   3.065   4.559
 2754SOL    HW211046   2.770   3.028   4.590
 2754SOL    HW311047   2.621   3.028   4.617
 2754SOL    MW411048   2.689   3.055   4.570
 2755SOL     OW11049   2.231   3.395   4.519
 2755SOL    HW211050   2.230   3.362   4.429
 2755SOL    HW311051   2.207   3.319   4.573
 2755SOL    MW411052   2.228   3.381   4.514
 2756SOL     OW11053   2.742   3.989   4.471
 2756SOL    HW211054   2.683   3.934   4.522
 2756SOL    HW311055   2.696   4.002   4.388
 2756SOL    MW411056   2.728   3.984   4.467
 2757SOL     OW11057   2.530   3.824   4.602
 2757SOL    HW211058   2.546   3.730   4.597
 2757SOL    HW311059   2.439   3.835   4.575
 2757SOL    MW411060   2.520   3.813   4.598
 2758SOL     OW11061   2.498   3.529   4.535
 2758SOL    HW211062   2.413   3.485   4.539
 2758SOL    HW311063   2.508   3.552   4.443
 2758SOL    MW411064   2.488   3.526   4.524
 2759SOL     OW11065   1.841   3.637   4.513
 2759SOL    HW211066   1.931   3.648   4.545
 2759SOL    HW311067   1.819   3.546   4.535
 2759SOL    MW411068   1.850   3.626   4.520
 2760SOL     OW11069   1.978   4.321   4.479
 2760SOL    HW211070   2.052   4.273   4.517
 2760SOL    HW311071   1.978   4.405   4.526
 2760SOL    MW411072   1.988   4.326   4.490
 2761SOL     OW11073   1.199   3.995   4.501
 2761SOL    HW211074   1.245   4.079   4.511
 2761SOL    HW311075   1.247   3.935   4.557
 2761SOL    MW411076   1.211   3.998   4.510
 2762SOL     OW11077   1.982   4.595   4.560
 2762SOL    HW211078   2.031   4.619   4.639
 2762SOL    HW311079   2.029   4.637   4.488
 2762SOL    MW411080   1.995   4.604   4.561
 2763SOL     OW11081   2.190   0.069   4.708
 2763SOL    HW211082   2.209   0.047   4.800
 2763SOL    HW311083   2.263   0.031   4.659
 2763SOL    MW411084   2.202   0.061   4.714
 2764SOL     OW11085   1.809   1.515   4.816
 2764SOL    HW211086   1.813   1.420   4.805
 2764SOL    HW311087   1.745   1.528   4.886
 2764SOL    MW411088   1.801   1.504   4.824
 2765SOL     OW11089   2.663   0.072   4.482
 2765SOL    HW211090   2.587   0.014   4.492
 2765SOL    HW311091   2.671   0.085   4.388
 2765SOL    MW411092   2.654   0.066   4.471
 2766SOL     OW11093   2.372   0.733   4.645
 2766SOL    HW211094   2.312   0.807   4.652
 2766SOL    HW311095   2.459   0.772   4.656
 2766SOL    MW411096   2.376   0.748   4.648
 2767SOL     OW11097   2.858   0.795   4.667
 2767SOL    HW211098   2.924   0.829   4.607
 2767SOL    HW311099   2.854   0.701   4.649
 2767SOL    MW411100   2.867   0.787   4.657
 2768SOL     OW11101   2.248   1.430   4.618
 2768SOL    HW211102   2.325   1.377   4.595
 2768SOL    HW311103   2.271   1.519   4.592
 2768SOL    MW411104   2.261   1.434   4.612
 2769SOL     OW11105   2.466   1.312   4.516
 2769SOL    HW211106   2.476   1.233   4.569
 2769SOL    HW311107   2.536   1.370   4.547
 2769SOL    MW411108   2.477   1.309   4.527
 2770SOL     OW11109   2.701   1.418   4.612
 2770SOL    HW211110   2.754   1.485   4.570
 2770SOL    HW311111   2.707   1.438   4.706
 2770SOL    MW411112   2.709   1.429   4.619
 2771SOL     OW11113   2.249   1.704   4.563
 2771SOL    HW211114   2.222   1.697   4.471
 2771SOL    HW311115   2.170   1.683   4.613
 2771SOL    MW411116   2.235   1.700   4.557
 2772SOL     OW11117   2.337   2.104   4.713
 2772SOL    HW211118   2.349   2.180   4.770
 2772SOL    HW311119   2.244   2.083   4.720
 2772SOL    MW411120   2.326   2.111   4.721
 2773SOL     OW11121   2.410   1.928   4.521
 2773SOL    HW211122   2.363   1.847   4.540
 2773SOL    HW311123   2.378   1.991   4.585
 2773SOL    MW411124   2.400   1.926   4.532
 2774SOL     OW11125   2.575   2.252   4.454
 2774SOL    HW211126   2.528   2.321   4.499
 2774SOL    HW311127   2.508   2.186   4.434
 2774SOL    MW411128   2.560   2.252   4.457
 2775SOL     OW11129   1.740   2.517   4.628
 2775SOL    HW211130   1.769   2.561   4.548
 2775SOL    HW311131   1.814   2.525   4.688
 2775SOL    MW411132   1.754   2.524   4.626
 2776SOL     OW11133   2.167   3.145   4.645
 2776SOL    HW211134   2.073   3.140   4.631
 2776SOL    HW311135   2.202   3.066   4.602
 2776SOL    MW411136   2.159   3.134   4.637
 2777SOL     OW11137   2.728   3.331   4.501
 2777SOL    HW211138   2.714   3.246   4.544
 2777SOL    HW311139   2.663   3.389   4.540
 2777SOL    MW411140   2.718   3.327   4.512
 2778SOL     OW11141   2.285   3.041   4.906
 2778SOL    HW211142   2.208   3.027   4.961
 2778SOL    HW311143   2.253   3.093   4.832
 2778SOL    MW411144   2.271   3.046   4.903
 2779SOL     OW11145   1.589   4.109   4.639
 2779SOL    HW211146   1.567   4.076   4.726
 2779SOL    HW311147   1.643   4.040   4.601
 2779SOL    MW411148   1.593   4.095   4.646
 2780SOL     OW11149   2.736   4.259   4.513
 2780SOL    HW211150   2.650   4.293   4.538
 2780SOL    HW311151   2.723   4.165   4.507
 2780SOL    MW411152   2.723   4.251   4.515
 2781SOL     OW11153   1.893   3.070   4.558
 2781SOL    HW211154   1.947   3.016   4.501
 2781SOL    HW311155   1.853   3.134   4.499
 2781SOL    MW411156   1.895   3.072   4.543
 2782SOL     OW11157   3.398   3.900   4.485
 2782SOL    HW211158   3.309   3.936   4.489
 2782SOL    HW311159   3.388   3.808   4.506
 2782SOL    MW411160   3.385   3.893   4.488
 2783SOL     OW11161   3.153   4.005   4.453
 2783SOL    HW211162   3.095   3.945   4.499
 2783SOL    HW311163   3.157   4.082   4.510
 2783SOL    MW411164   3.146   4.008   4.466
 2784SOL     OW11165   2.254   4.165   4.475
 2784SOL    HW211166   2.259   4.092   4.536
 2784SOL    HW311167   2.260   4.124   4.388
 2784SOL    MW411168   2.256   4.150   4.472
 2785SOL     OW11169   2.470   4.351   4.476
 2785SOL    HW211170   2.393   4.294   4.481
 2785SOL    HW311171   2.467   4.388   4.388
 2785SOL    MW411172   2.459   4.348   4.465
 2786SOL     OW11173   2.857   0.510   4.591
 2786SOL    HW211174   2.884   0.508   4.499
 2786SOL    HW311175   2.784   0.448   4.596
 2786SOL    MW411176   2.851   0.501   4.579
 2787SOL     OW11177   2.668   0.315   4.640
 2787SOL    HW211178   2.658   0.238   4.583
 2787SOL    HW311179   2.718   0.283   4.715
 2787SOL    MW411180   2.673   0.300   4.642
 2788SOL     OW11181   3.241   0.278   4.666
 2788SOL    HW211182   3.171   0.332   4.704
 2788SOL    HW311183   3.291   0.338   4.612
 2788SOL    MW411184   3.238   0.293   4.664
 2789SOL     OW11185   2.630   0.874   4.542
 2789SOL    HW211186   2.704   0.837   4.589
 2789SOL    HW311187   2.661   0.884   4.452
 2789SOL    MW411188   2.644   0.871   4.536
 2790SOL     OW11189   3.583   0.621   4.821
 2790SOL    HW211190   3.590   0.537   4.777
 2790SOL    HW311191   3.663   0.667   4.797
 2790SOL    MW411192   3.595   0.616   4.812
 2791SOL     OW11193   2.199   0.959   4.615
 2791SOL    HW211194   2.177   1.041   4.658
 2791SOL    HW311195   2.115   0.917   4.597
 2791SOL    MW411196   2.185   0.964   4.618
 2792SOL     OW11197   2.469   1.078   4.673
 2792SOL    HW211198   2.522   1.012   4.629
 2792SOL    HW311199   2.379   1.056   4.650
 2792SOL    MW411200   2.464   1.066   4.664
 2793SOL     OW11201   3.056   1.297   4.570
 2793SOL    HW211202   2.976   1.249   4.592
 2793SOL    HW311203   3.056   1.302   4.475
 2793SOL    MW411204   3.046   1.291   4.561
 2794SOL     OW11205   3.075   1.594   4.566
 2794SOL    HW211206   2.981   1.609   4.558
 2794SOL    HW311207   3.083   1.504   4.596
 2794SOL    MW411208   3.064   1.584   4.569
 2795SOL     OW11209   2.818   1.646   4.484
 2795SOL    HW211210   2.758   1.705   4.530
 2795SOL    HW311211   2.789   1.650   4.393
 2795SOL    MW411212   2.806   1.654   4.478
 2796SOL     OW11213   2.655   1.830   4.626
 2796SOL    HW211214   2.701   1.914   4.625
 2796SOL    HW311215   2.570   1.849   4.585
 2796SOL    MW411216   2.650   1.844   4.620
 2797SOL     OW11217   2.792   2.077   4.554
 2797SOL    HW211218   2.730   2.144   4.526
 2797SOL    HW311219   2.834   2.047   4.474
 2797SOL    MW411220   2.790   2.082   4.540
 2798SOL     OW11221   3.016   2.232   4.648
 2798SOL    HW211222   2.979   2.272   4.727
 2798SOL    HW311223   2.952   2.166   4.622
 2798SOL    MW411224   3.002   2.228   4.655
 2799SOL     OW11225   2.468   2.951   4.694
 2799SOL    HW211226   2.422   2.983   4.771
 2799SOL    HW311227   2.400   2.940   4.627
 2799SOL    MW411228   2.453   2.954   4.695
 2800SOL     OW11229   3.673   3.232   4.487
 2800SOL    HW211230   3.664   3.245   4.392
 2800SOL    HW311231   3.762   3.198   4.498
 2800SOL    MW411232   3.684   3.229   4.476
 2801SOL     OW11233   2.620   2.734   4.549
 2801SOL    HW211234   2.602   2.791   4.623
 2801SOL    HW311235   2.566   2.767   4.478
 2801SOL    MW411236   2.611   2.746   4.550
 2802SOL     OW11237   2.911   3.541   4.475
 2802SOL    HW211238   2.991   3.488   4.473
 2802SOL    HW311239   2.841   3.478   4.487
 2802SOL    MW411240   2.912   3.526   4.477
 2803SOL     OW11241   2.962   2.885   4.526
 2803SOL    HW211242   3.050   2.865   4.557
 2803SOL    HW311243   2.943   2.818   4.461
 2803SOL    MW411244   2.971   2.874   4.521
 2804SOL     OW11245   2.902   4.626   4.623
 2804SOL    HW211246   2.927   4.538   4.593
 2804SOL    HW311247   2.832   4.653   4.564
 2804SOL    MW411248   2.896   4.618   4.611
 2805SOL     OW11249   3.874   3.576   4.638
 2805SOL    HW211250   3.951   3.532   4.602
 2805SOL    HW311251   3.906   3.622   4.715
 2805SOL    MW411252   3.888   3.576   4.643
 2806SOL     OW11253   3.835   3.787   4.452
 2806SOL    HW211254   3.854   3.716   4.513
 2806SOL    HW311255   3.800   3.743   4.374
 2806SOL    MW411256   3.833   3.772   4.449
 2807SOL     OW11257   2.960   3.817   4.560
 2807SOL    HW211258   2.890   3.858   4.510
 2807SOL    HW311259   2.940   3.724   4.559
 2807SOL    MW411260   2.948   3.810   4.553
 2808SOL     OW11261   2.970   4.382   4.535
 2808SOL    HW211262   2.894   4.324   4.536
 2808SOL    HW311263   3.040   4.331   4.576
 2808SOL    MW411264   2.969   4.367   4.540
 2809SOL     OW11265   3.013   0.375   4.782
 2809SOL    HW211266   2.979   0.423   4.706
 2809SOL    HW311267   2.949   0.304   4.795
 2809SOL    MW411268   3.000   0.372   4.773
 2810SOL     OW11269   3.373   0.495   4.529
 2810SOL    HW211270   3.366   0.511   4.435
 2810SOL    HW311271   3.365   0.582   4.569
 2810SOL    MW411272   3.371   0.509   4.522
 2811SOL     OW11273   2.386   0.476   4.555
 2811SOL    HW211274   2.451   0.440   4.615
 2811SOL    HW311275   2.377   0.568   4.580
 2811SOL    MW411276   2.393   0.483   4.566
 2812SOL     OW11277   2.126   1.194   4.736
 2812SOL    HW211278   2.032   1.199   4.753
 2812SOL    HW311279   2.156   1.285   4.740
 2812SOL    MW411280   2.118   1.207   4.739
 2813SOL     OW11281   2.851   0.166   4.824
 2813SOL    HW211282   2.865   0.096   4.761
 2813SOL    HW311283   2.843   0.122   4.908
 2813SOL    MW411284   2.852   0.151   4.827
 2814SOL     OW11285   3.413   0.759   4.652
 2814SOL    HW211286   3.468   0.827   4.614
 2814SOL    HW311287   3.471   0.712   4.712
 2814SOL    MW411288   3.428   0.761   4.655
 2815SOL     OW11289   3.311   1.195   4.597
 2815SOL    HW211290   3.224   1.234   4.601
 2815SOL    HW311291   3.298   1.105   4.626
 2815SOL    MW411292   3.298   1.189   4.602
 2816SOL     OW11293   2.843   1.147   4.629
 2816SOL    HW211294   2.794   1.083   4.681
 2816SOL    HW311295   2.777   1.203   4.589
 2816SOL    MW411296   2.828   1.146   4.631
 2817SOL     OW11297   3.997   1.000   4.558
 2817SOL    HW211298   4.024   0.955   4.478
 2817SOL    HW311299   4.075   1.000   4.613
 2817SOL    MW411300   4.011   0.994   4.555
 2818SOL     OW11301   3.511   1.420   4.617
 2818SOL    HW211302   3.470   1.472   4.548
 2818SOL    HW311303   3.450   1.347   4.631
 2818SOL    MW411304   3.497   1.417   4.609
 2819SOL     OW11305   3.287   1.812   4.546
 2819SOL    HW211306   3.261   1.883   4.604
 2819SOL    HW311307   3.222   1.743   4.563
 2819SOL    MW411308   3.275   1.812   4.556
 2820SOL     OW11309   3.235   2.065   4.653
 2820SOL    HW211310   3.253   2.080   4.746
 2820SOL    HW311311   3.154   2.114   4.637
 2820SOL    MW411312   3.227   2.074   4.663
 2821SOL     OW11313   3.505   1.717   4.689
 2821SOL    HW211314   3.498   1.622   4.688
 2821SOL    HW311315   3.426   1.748   4.646
 2821SOL    MW411316   3.493   1.709   4.683
 2822SOL     OW11317   2.834   2.669   4.378
 2822SOL    HW211318   2.771   2.697   4.445
 2822SOL    HW311319   2.863   2.583   4.408
 2822SOL    MW411320   2.829   2.661   4.391
 2823SOL     OW11321   3.305   2.579   4.563
 2823SOL    HW211322   3.271   2.554   4.477
 2823SOL    HW311323   3.293   2.674   4.567
 2823SOL    MW411324   3.299   2.589   4.552
 2824SOL     OW11325   2.973   2.403   4.426
 2824SOL    HW211326   3.050   2.443   4.385
 2824SOL    HW311327   3.007   2.364   4.507
 2824SOL    MW411328   2.988   2.403   4.431
 2825SOL     OW11329   3.748   2.847   4.530
 2825SOL    HW211330   3.755   2.754   4.552
 2825SOL    HW311331   3.836   2.882   4.544
 2825SOL    MW411332   3.761   2.839   4.534
 2826SOL     OW11333   3.301   3.256   4.648
 2826SOL    HW211334   3.385   3.282   4.686
 2826SOL    HW311335   3.305   3.161   4.644
 2826SOL    MW411336   3.312   3.247   4.652
 2827SOL     OW11337   3.488   3.003   4.581
 2827SOL    HW211338   3.564   2.946   4.588
 2827SOL    HW311339   3.520   3.080   4.534
 2827SOL    MW411340   3.502   3.006   4.576
 2828SOL     OW11341   4.219   2.486   4.612
 2828SOL    HW211342   4.309   2.456   4.598
 2828SOL    HW311343   4.226   2.580   4.623
 2828SOL    MW411344   4.232   2.494   4.612
 2829SOL     OW11345   3.600   3.468   4.596
 2829SOL    HW211346   3.682   3.508   4.625
 2829SOL    HW311347   3.625   3.381   4.567
 2829SOL    MW411348   3.614   3.462   4.596
 2830SOL     OW11349   3.629   4.226   4.517
 2830SOL    HW211350   3.715   4.265   4.526
 2830SOL    HW311351   3.638   4.138   4.554
 2830SOL    MW411352   3.641   4.219   4.523
 2831SOL     OW11353   3.163   4.222   4.668
 2831SOL    HW211354   3.197   4.209   4.757
 2831SOL    HW311355   3.241   4.235   4.614
 2831SOL    MW411356   3.178   4.222   4.673
 2832SOL     OW11357   3.166   0.062   4.507
 2832SOL    HW211358   3.088   0.022   4.545
 2832SOL    HW311359   3.189   0.132   4.569
 2832SOL    MW411360   3.159   0.066   4.520
 2833SOL     OW11361   3.382   4.321   4.515
 2833SOL    HW211362   3.470   4.283   4.514
 2833SOL    HW311363   3.396   4.415   4.524
 2833SOL    MW411364   3.395   4.328   4.516
 2834SOL     OW11365   3.645   3.960   4.607
 2834SOL    HW211366   3.703   3.906   4.552
 2834SOL    HW311367   3.558   3.948   4.570
 2834SOL    MW411368   3.641   3.951   4.595
 2835SOL     OW11369   3.478   0.150   4.731
 2835SOL    HW211370   3.456   0.068   4.686
 2835SOL    HW311371   3.399   0.203   4.725
 2835SOL    MW411372   3.465   0.146   4.724
 2836SOL     OW11373   3.002   0.955   4.501
 2836SOL    HW211374   2.949   1.027   4.538
 2836SOL    HW311375   3.078   0.950   4.558
 2836SOL    MW411376   3.005   0.964   4.514
 2837SOL     OW11377   3.199   0.922   4.705
 2837SOL    HW211378   3.269   0.856   4.714
 2837SOL    HW311379   3.127   0.887   4.759
 2837SOL    MW411380   3.199   0.908   4.714
 2838SOL     OW11381   4.089   1.473   4.679
 2838SOL    HW211382   4.141   1.400   4.645
 2838SOL    HW311383   3.998   1.448   4.661
 2838SOL    MW411384   4.084   1.460   4.672
 2839SOL     OW11385   3.765   1.175   4.525
 2839SOL    HW211386   3.787   1.264   4.553
 2839SOL    HW311387   3.842   1.123   4.547
 2839SOL    MW411388   3.778   1.180   4.532
 2840SOL     OW11389   0.189   0.782   4.550
 2840SOL    HW211390   0.128   0.812   4.483
 2840SOL    HW311391   0.193   0.687   4.537
 2840SOL    MW411392   0.181   0.773   4.539
 2841SOL     OW11393   4.311   0.517   4.549
 2841SOL    HW211394   4.316   0.516   4.454
 2841SOL    HW311395   4.230   0.470   4.569
 2841SOL    MW411396   4.301   0.510   4.539
 2842SOL     OW11397   3.483   1.803   4.317
 2842SOL    HW211398   3.424   1.855   4.371
 2842SOL    HW311399   3.466   1.712   4.343
 2842SOL    MW411400   3.473   1.798   4.327
 2843SOL     OW11401   3.744   1.824   4.621
 2843SOL    HW211402   3.671   1.785   4.669
 2843SOL    HW311403   3.705   1.898   4.575
 2843SOL    MW411404   3.729   1.828   4.621
 2844SOL     OW11405   3.442   2.180   4.490
 2844SOL    HW211406   3.377   2.140   4.548
 2844SOL    HW311407   3.420   2.146   4.403
 2844SOL    MW411408   3.430   2.170   4.486
 2845SOL     OW11409   3.931   2.189   4.574
 2845SOL    HW211410   3.963   2.107   4.609
 2845SOL    HW311411   3.926   2.248   4.649
 2845SOL    MW411412   3.934   2.186   4.588
 2846SOL     OW11413   4.014   1.929   4.620
 2846SOL    HW211414   3.926   1.891   4.614
 2846SOL    HW311415   4.072   1.854   4.628
 2846SOL    MW411416   4.010   1.914   4.620
 2847SOL     OW11417   3.681   2.049   4.471
 2847SOL    HW211418   3.750   2.105   4.506
 2847SOL    HW311419   3.601   2.101   4.481
 2847SOL    MW411420   3.680   2.063   4.477
 2848SOL     OW11421   3.793   2.561   4.591
 2848SOL    HW211422   3.722   2.500   4.573
 2848SOL    HW311423   3.842   2.520   4.663
 2848SOL    MW411424   3.790   2.547   4.598
 2849SOL     OW11425   3.971   2.398   4.775
 2849SOL    HW211426   4.006   2.373   4.860
 2849SOL    HW311427   4.047   2.430   4.727
 2849SOL    MW411428   3.986   2.399   4.780
 2850SOL     OW11429   4.009   2.901   4.622
 2850SOL    HW211430   4.006   2.867   4.711
 2850SOL    HW311431   4.098   2.883   4.592
 2850SOL    MW411432   4.020   2.894   4.630
 2851SOL     OW11433   3.167   3.413   4.471
 2851SOL    HW211434   3.193   3.356   4.543
 2851SOL    HW311435   3.171   3.356   4.394
 2851SOL    MW411436   3.171   3.398   4.470
 2852SOL     OW11437   3.941   3.146   4.487
 2852SOL    HW211438   3.958   3.069   4.540
 2852SOL    HW311439   3.997   3.136   4.410
 2852SOL    MW411440   3.951   3.135   4.483
 2853SOL     OW11441   3.370   3.605   4.496
 2853SOL    HW211442   3.302   3.539   4.490
 2853SOL    HW311443   3.445   3.559   4.534
 2853SOL    MW411444   3.371   3.590   4.500
 2854SOL     OW11445   4.290   3.548   4.475
 2854SOL    HW211446   4.290   3.584   4.386
 2854SOL    HW311447   4.211   3.494   4.479
 2854SOL    MW411448   4.280   3.546   4.464
 2855SOL     OW11449   4.464   2.961   4.670
 2855SOL    HW211450   4.552   2.924   4.678
 2855SOL    HW311451   4.479   3.052   4.644
 2855SOL    MW411452   4.478   2.968   4.667
 2856SOL     OW11453   4.059   3.953   4.483
 2856SOL    HW211454   4.037   4.022   4.545
 2856SOL    HW311455   3.978   3.903   4.473
 2856SOL    MW411456   4.045   3.956   4.490
 2857SOL     OW11457   3.880   4.370   4.576
 2857SOL    HW211458   3.867   4.391   4.483
 2857SOL    HW311459   3.848   4.448   4.622
 2857SOL    MW411460   3.874   4.383   4.569
 2858SOL     OW11461   3.428   4.620   4.514
 2858SOL    HW211462   3.464   4.654   4.433
 2858SOL    HW311463   3.337   4.649   4.514
 2858SOL    MW411464   3.421   4.628   4.503
 2859SOL     OW11465   3.610   0.929   4.547
 2859SOL    HW211466   3.656   1.009   4.572
 2859SOL    HW311467   3.600   0.935   4.452
 2859SOL    MW411468   3.614   0.940   4.538
 2860SOL     OW11469   3.785   0.751   4.665
 2860SOL    HW211470   3.848   0.822   4.673
 2860SOL    HW311471   3.712   0.789   4.615
 2860SOL    MW411472   3.783   0.766   4.659
 2861SOL     OW11473   0.018   0.321   4.612
 2861SOL    HW211474   0.103   0.364   4.601
 2861SOL    HW311475  -0.046   0.391   4.598
 2861SOL    MW411476   0.021   0.336   4.609
 2862SOL     OW11477   0.505   0.439   4.567
 2862SOL    HW211478   0.574   0.496   4.533
 2862SOL    HW311479   0.545   0.352   4.571
 2862SOL    MW411480   0.520   0.435   4.563
 2863SOL     OW11481   4.095   0.333   4.631
 2863SOL    HW211482   4.022   0.393   4.637
 2863SOL    HW311483   4.058   0.253   4.594
 2863SOL    MW411484   4.081   0.330   4.627
 2864SOL     OW11485   3.818   1.441   4.589
 2864SOL    HW211486   3.728   1.446   4.618
 2864SOL    HW311487   3.824   1.502   4.516
 2864SOL    MW411488   3.807   1.449   4.583
 2865SOL     OW11489   4.484   1.419   4.665
 2865SOL    HW211490   4.485   1.515   4.661
 2865SOL    HW311491   4.572   1.393   4.639
 2865SOL    MW411492   4.496   1.429   4.661
 2866SOL     OW11493   0.263   1.374   4.558
 2866SOL    HW211494   0.315   1.303   4.595
 2866SOL    HW311495   0.316   1.453   4.572
 2866SOL    MW411496   0.277   1.375   4.565
 2867SOL     OW11497   3.811   1.660   4.399
 2867SOL    HW211498   3.906   1.665   4.408
 2867SOL    HW311499   3.777   1.718   4.467
 2867SOL    MW411500   3.819   1.668   4.409
 2868SOL     OW11501   3.257   2.878   4.539
 2868SOL    HW211502   3.262   2.872   4.443
 2868SOL    HW311503   3.336   2.924   4.565
 2868SOL    MW411504   3.268   2.883   4.530
 2869SOL     OW11505   4.301   2.061   4.214
 2869SOL    HW211506   4.215   2.023   4.193
 2869SOL    HW311507   4.299   2.075   4.308
 2869SOL    MW411508   4.289   2.058   4.223
 2870SOL     OW11509   0.222   2.252   4.543
 2870SOL    HW211510   0.297   2.308   4.564
 2870SOL    HW311511   0.150   2.314   4.529
 2870SOL    MW411512   0.223   2.268   4.544
 2871SOL     OW11513   4.274   2.084   4.488
 2871SOL    HW211514   4.236   2.059   4.572
 2871SOL    HW311515   4.220   2.157   4.458
 2871SOL    MW411516   4.262   2.090   4.495
 2872SOL     OW11517   3.543   2.425   4.538
 2872SOL    HW211518   3.469   2.483   4.555
 2872SOL    HW311519   3.505   2.338   4.529
 2872SOL    MW411520   3.528   2.421   4.539
 2873SOL     OW11521   0.438   2.645   4.651
 2873SOL    HW211522   0.443   2.576   4.585
 2873SOL    HW311523   0.522   2.641   4.697
 2873SOL    MW411524   0.450   2.636   4.648
 2874SOL     OW11525   4.279   2.782   4.554
 2874SOL    HW211526   4.341   2.838   4.601
 2874SOL    HW311527   4.301   2.795   4.461
 2874SOL    MW411528   4.290   2.791   4.548
 2875SOL     OW11529   0.060   3.214   4.544
 2875SOL    HW211530   0.034   3.197   4.453
 2875SOL    HW311531   0.153   3.233   4.539
 2875SOL    MW411532   0.069   3.214   4.531
 2876SOL     OW11533   0.319   3.538   4.487
 2876SOL    HW211534   0.301   3.564   4.396
 2876SOL    HW311535   0.234   3.515   4.523
 2876SOL    MW411536   0.306   3.538   4.480
 2877SOL     OW11537   4.258   4.635   4.615
 2877SOL    HW211538   4.171   4.645   4.577
 2877SOL    HW311539   4.265   4.706   4.679
 2877SOL    MW411540   4.247   4.645   4.618
 2878SOL     OW11541   3.736   4.637   4.614
 2878SOL    HW211542   3.711   4.674   4.699
 2878SOL    HW311543   3.654   4.607   4.575
 2878SOL    MW411544   3.722   4.638   4.620
 2879SOL     OW11545   0.129   4.422   4.818
 2879SOL    HW211546   0.101   4.333   4.799
 2879SOL    HW311547   0.120   4.430   4.913
 2879SOL    MW411548   0.124   4.411   4.828
 2880SOL     OW11549   3.611   0.385   4.669
 2880SOL    HW211550   3.577   0.301   4.700
 2880SOL    HW311551   3.574   0.395   4.581
 2880SOL    MW411552   3.602   0.375   4.661
 2881SOL     OW11553   4.304   4.382   4.275
 2881SOL    HW211554   4.360   4.320   4.228
 2881SOL    HW311555   4.315   4.359   4.367
 2881SOL    MW411556   4.313   4.371   4.281
 2882NA      NA11557   2.618   4.381   0.576
 2883NA      NA11558   0.560   2.354   0.372
   4.49070   4.66690  10.00000
