Gromacs Runs On Most of All Computer Systems in water t= 300.00000 step= 300000
11558
    1RG35     P    1   2.159   2.816   4.518
    1RG35   O1P    2   2.150   2.745   4.392
    1RG35   O2P    3   2.070   2.932   4.513
    1RG35   O5'    4   2.083   2.706   4.616
    1RG35   C5'    5   1.992   2.742   4.722
    1RG35  H5'1    6   1.907   2.789   4.674
    1RG35  H5'2    7   2.049   2.811   4.785
    1RG35   C4'    8   1.948   2.625   4.812
    1RG35   H4'    9   1.883   2.656   4.894
    1RG35   O4'   10   1.887   2.524   4.727
    1RG35   C1'   11   1.951   2.403   4.738
    1RG35   H1'   12   1.893   2.337   4.802
    1RG35    N9   13   1.960   2.337   4.604
    1RG35    C8   14   2.030   2.377   4.491
    1RG35    H8   15   2.081   2.472   4.485
    1RG35    N7   16   2.048   2.278   4.408
    1RG35    C5   17   1.979   2.174   4.465
    1RG35    C6   18   1.961   2.037   4.422
    1RG35    O6   19   2.000   1.988   4.312
    1RG35    N1   20   1.887   1.964   4.501
    1RG35    H1   21   1.890   1.864   4.487
    1RG35    C2   22   1.842   2.009   4.619
    1RG35    N2   23   1.756   1.932   4.678
    1RG35   H21   24   1.726   1.846   4.635
    1RG35   H22   25   1.706   1.978   4.753
    1RG35    N3   26   1.851   2.132   4.667
    1RG35    C4   27   1.920   2.208   4.582
    1RG35   C3'   28   2.069   2.558   4.882
    1RG35   H3'   29   2.160   2.619   4.880
    1RG35   C2'   30   2.093   2.428   4.800
    1RG35  H2'1   31   2.161   2.443   4.716
    1RG35   O2'   32   2.137   2.318   4.881
    1RG35  HO'2   33   2.166   2.258   4.812
    1RG35   O3'   34   2.026   2.520   5.015
    1RG35   H3T   35   2.047   2.426   5.021
    1RG35   O3P   36   2.296   2.833   4.571
    2SOL     OW   37   0.467   0.098   0.397
    2SOL    HW2   38   0.465   0.004   0.379
    2SOL    HW3   39   0.559   0.123   0.387
    2SOL    MW4   40   0.479   0.089   0.394
    3SOL     OW   41   4.013   0.010   0.484
    3SOL    HW2   42   4.091   0.002   0.429
    3SOL    HW3   43   3.972  -0.077   0.479
    3SOL    MW4   44   4.018  -0.003   0.476
    4SOL     OW   45   3.841   0.451   0.471
    4SOL    HW2   46   3.770   0.502   0.433
    4SOL    HW3   47   3.822   0.451   0.565
    4SOL    MW4   48   3.829   0.458   0.479
    5SOL     OW   49   0.427   1.332   0.412
    5SOL    HW2   50   0.360   1.264   0.413
    5SOL    HW3   51   0.418   1.373   0.326
    5SOL    MW4   52   0.417   1.328   0.401
    6SOL     OW   53   1.505   0.784   0.443
    6SOL    HW2   54   1.448   0.811   0.515
    6SOL    HW3   55   1.495   0.853   0.377
    6SOL    MW4   56   1.496   0.797   0.443
    7SOL     OW   57   0.260   0.508   0.488
    7SOL    HW2   58   0.247   0.510   0.583
    7SOL    HW3   59   0.251   0.416   0.464
    7SOL    MW4   60   0.257   0.496   0.497
    8SOL     OW   61   0.458   0.927   0.443
    8SOL    HW2   62   0.466   0.909   0.537
    8SOL    HW3   63   0.454   0.841   0.402
    8SOL    MW4   64   0.459   0.913   0.450
    9SOL     OW   65   0.894   0.886   0.425
    9SOL    HW2   66   0.889   0.889   0.520
    9SOL    HW3   67   0.822   0.941   0.395
    9SOL    MW4   68   0.884   0.894   0.434
   10SOL     OW   69   0.635   1.133   0.424
   10SOL    HW2   70   0.566   1.199   0.412
   10SOL    HW3   71   0.588   1.051   0.439
   10SOL    MW4   72   0.620   1.131   0.424
   11SOL     OW   73   0.587   1.811   0.347
   11SOL    HW2   74   0.509   1.774   0.389
   11SOL    HW3   75   0.642   1.735   0.329
   11SOL    MW4   76   0.584   1.796   0.350
   12SOL     OW   77   4.008   2.069   0.498
   12SOL    HW2   78   4.003   1.989   0.445
   12SOL    HW3   79   3.926   2.070   0.547
   12SOL    MW4   80   3.996   2.058   0.497
   13SOL     OW   81   0.157   1.644   0.422
   13SOL    HW2   82   0.075   1.691   0.439
   13SOL    HW3   83   0.133   1.577   0.359
   13SOL    MW4   84   0.143   1.642   0.416
   14SOL     OW   85   0.377   2.243   0.263
   14SOL    HW2   86   0.416   2.174   0.209
   14SOL    HW3   87   0.380   2.321   0.208
   14SOL    MW4   88   0.382   2.244   0.248
   15SOL     OW   89   0.129   2.716   0.460
   15SOL    HW2   90   0.192   2.696   0.390
   15SOL    HW3   91   0.058   2.762   0.415
   15SOL    MW4   92   0.128   2.719   0.445
   16SOL     OW   93   4.166   3.326   0.420
   16SOL    HW2   94   4.158   3.298   0.510
   16SOL    HW3   95   4.241   3.277   0.386
   16SOL    MW4   96   4.175   3.316   0.427
   17SOL     OW   97   4.396   2.868   0.385
   17SOL    HW2   98   4.364   2.872   0.295
   17SOL    HW3   99   4.319   2.847   0.437
   17SOL    MW4  100   4.382   2.866   0.380
   18SOL     OW  101   0.411   3.399   0.379
   18SOL    HW2  102   0.439   3.322   0.429
   18SOL    HW3  103   0.473   3.468   0.403
   18SOL    MW4  104   0.423   3.398   0.389
   19SOL     OW  105   0.605   3.824   0.354
   19SOL    HW2  106   0.683   3.800   0.303
   19SOL    HW3  107   0.624   3.912   0.386
   19SOL    MW4  108   0.618   3.833   0.352
   20SOL     OW  109   4.255   3.862   0.468
   20SOL    HW2  110   4.279   3.908   0.549
   20SOL    HW3  111   4.282   3.772   0.483
   20SOL    MW4  112   4.262   3.856   0.480
   21SOL     OW  113   0.085   3.753   0.214
   21SOL    HW2  114   0.163   3.788   0.256
   21SOL    HW3  115   0.112   3.735   0.124
   21SOL    MW4  116   0.099   3.755   0.208
   22SOL     OW  117   4.488   4.440   0.404
   22SOL    HW2  118   4.446   4.370   0.354
   22SOL    HW3  119   4.444   4.438   0.489
   22SOL    MW4  120   4.476   4.431   0.408
   23SOL     OW  121   4.331   4.232   0.267
   23SOL    HW2  122   4.376   4.148   0.275
   23SOL    HW3  123   4.240   4.213   0.289
   23SOL    MW4  124   4.325   4.219   0.271
   24SOL     OW  125   4.456   3.988   0.310
   24SOL    HW2  126   4.502   3.919   0.261
   24SOL    HW3  127   4.394   3.941   0.365
   24SOL    MW4  128   4.454   3.972   0.311
   25SOL     OW  129   0.499   3.171   0.509
   25SOL    HW2  130   0.495   3.198   0.600
   25SOL    HW3  131   0.592   3.172   0.488
   25SOL    MW4  132   0.511   3.174   0.518
   26SOL     OW  133   0.501   4.478   0.357
   26SOL    HW2  134   0.425   4.440   0.400
   26SOL    HW3  135   0.488   4.459   0.264
   26SOL    MW4  136   0.490   4.471   0.350
   27SOL     OW  137   0.217   0.237   0.414
   27SOL    HW2  138   0.140   0.191   0.446
   27SOL    HW3  139   0.284   0.169   0.406
   27SOL    MW4  140   0.216   0.222   0.417
   28SOL     OW  141   0.037   0.642   0.366
   28SOL    HW2  142   0.046   0.619   0.273
   28SOL    HW3  143   0.111   0.599   0.409
   28SOL    MW4  144   0.048   0.633   0.359
   29SOL     OW  145   0.991   4.431   0.523
   29SOL    HW2  146   1.031   4.422   0.609
   29SOL    HW3  147   0.905   4.390   0.532
   29SOL    MW4  148   0.985   4.424   0.535
   30SOL     OW  149   1.167   0.999   0.480
   30SOL    HW2  150   1.076   0.976   0.458
   30SOL    HW3  151   1.158   1.060   0.554
   30SOL    MW4  152   1.153   1.004   0.487
   31SOL     OW  153   0.670   0.515   0.472
   31SOL    HW2  154   0.756   0.558   0.471
   31SOL    HW3  155   0.686   0.428   0.437
   31SOL    MW4  156   0.683   0.510   0.467
   32SOL     OW  157   0.239   1.134   0.459
   32SOL    HW2  158   0.148   1.119   0.436
   32SOL    HW3  159   0.286   1.060   0.420
   32SOL    MW4  160   0.233   1.122   0.451
   33SOL     OW  161   0.286   1.937   0.521
   33SOL    HW2  162   0.233   1.857   0.516
   33SOL    HW3  163   0.231   2.004   0.481
   33SOL    MW4  164   0.272   1.935   0.515
   34SOL     OW  165   0.645   2.089   0.271
   34SOL    HW2  166   0.611   2.002   0.290
   34SOL    HW3  167   0.738   2.084   0.294
   34SOL    MW4  168   0.653   2.077   0.276
   35SOL     OW  169   0.731   2.623   0.442
   35SOL    HW2  170   0.820   2.591   0.453
   35SOL    HW3  171   0.740   2.717   0.433
   35SOL    MW4  172   0.744   2.631   0.442
   36SOL     OW  173   0.427   2.481   0.109
   36SOL    HW2  174   0.497   2.459   0.170
   36SOL    HW3  175   0.452   2.441   0.026
   36SOL    MW4  176   0.439   2.473   0.106
   37SOL     OW  177   3.899   2.170   0.165
   37SOL    HW2  178   3.969   2.212   0.216
   37SOL    HW3  179   3.931   2.171   0.075
   37SOL    MW4  180   3.912   2.175   0.160
   38SOL     OW  181   1.357   2.391   0.459
   38SOL    HW2  182   1.435   2.342   0.433
   38SOL    HW3  183   1.380   2.483   0.443
   38SOL    MW4  184   1.371   2.397   0.453
   39SOL     OW  185   0.498   2.467   0.506
   39SOL    HW2  186   0.437   2.524   0.460
   39SOL    HW3  187   0.579   2.518   0.513
   39SOL    MW4  188   0.501   2.481   0.501
   40SOL     OW  189   4.395   3.158   0.458
   40SOL    HW2  190   4.473   3.198   0.419
   40SOL    HW3  191   4.411   3.064   0.452
   40SOL    MW4  192   4.408   3.151   0.452
   41SOL     OW  193   0.362   2.637   0.336
   41SOL    HW2  194   0.374   2.613   0.244
   41SOL    HW3  195   0.412   2.718   0.346
   41SOL    MW4  196   0.371   2.645   0.325
   42SOL     OW  197   0.895   0.406   0.215
   42SOL    HW2  198   0.821   0.428   0.159
   42SOL    HW3  199   0.908   0.484   0.268
   42SOL    MW4  200   0.887   0.419   0.214
   43SOL     OW  201   0.291   3.597   0.523
   43SOL    HW2  202   0.342   3.665   0.478
   43SOL    HW3  203   0.317   3.515   0.480
   43SOL    MW4  204   0.301   3.595   0.511
   44SOL     OW  205   0.603   3.567   0.482
   44SOL    HW2  206   0.602   3.656   0.447
   44SOL    HW3  207   0.608   3.579   0.577
   44SOL    MW4  208   0.604   3.581   0.490
   45SOL     OW  209   1.066   3.546   0.508
   45SOL    HW2  210   0.978   3.520   0.483
   45SOL    HW3  211   1.122   3.476   0.475
   45SOL    MW4  212   1.062   3.533   0.500
   46SOL     OW  213   0.265   4.359   0.451
   46SOL    HW2  214   0.178   4.393   0.431
   46SOL    HW3  215   0.255   4.264   0.449
   46SOL    MW4  216   0.252   4.351   0.448
   47SOL     OW  217   0.834   3.453   0.394
   47SOL    HW2  218   0.851   3.488   0.307
   47SOL    HW3  219   0.751   3.494   0.420
   47SOL    MW4  220   0.825   3.463   0.386
   48SOL     OW  221   0.720   4.334   0.492
   48SOL    HW2  222   0.665   4.373   0.424
   48SOL    HW3  223   0.693   4.377   0.573
   48SOL    MW4  224   0.710   4.345   0.493
   49SOL     OW  225   0.743   0.223   0.360
   49SOL    HW2  226   0.793   0.149   0.394
   49SOL    HW3  227   0.804   0.268   0.301
   49SOL    MW4  228   0.758   0.219   0.357
   50SOL     OW  229   0.935   0.606   0.412
   50SOL    HW2  230   0.931   0.701   0.414
   50SOL    HW3  231   1.027   0.585   0.432
   50SOL    MW4  232   0.947   0.616   0.415
   51SOL     OW  233   0.445   0.676   0.385
   51SOL    HW2  234   0.375   0.632   0.435
   51SOL    HW3  235   0.525   0.632   0.413
   51SOL    MW4  236   0.446   0.664   0.395
   52SOL     OW  237   1.486   0.505   0.458
   52SOL    HW2  238   1.475   0.597   0.437
   52SOL    HW3  239   1.513   0.504   0.550
   52SOL    MW4  240   1.488   0.517   0.467
   53SOL     OW  241   1.997   0.852   0.337
   53SOL    HW2  242   1.981   0.894   0.253
   53SOL    HW3  243   1.928   0.886   0.394
   53SOL    MW4  244   1.986   0.862   0.334
   54SOL     OW  245   1.776   0.913   0.522
   54SOL    HW2  246   1.708   0.846   0.520
   54SOL    HW3  247   1.793   0.927   0.616
   54SOL    MW4  248   1.769   0.906   0.534
   55SOL     OW  249   0.793   1.601   0.388
   55SOL    HW2  250   0.794   1.511   0.421
   55SOL    HW3  251   0.884   1.631   0.398
   55SOL    MW4  252   0.805   1.593   0.394
   56SOL     OW  253   0.817   1.322   0.504
   56SOL    HW2  254   0.767   1.262   0.449
   56SOL    HW3  255   0.909   1.300   0.486
   56SOL    MW4  256   0.823   1.311   0.495
   57SOL     OW  257   1.302   1.320   0.252
   57SOL    HW2  258   1.391   1.355   0.246
   57SOL    HW3  259   1.264   1.335   0.166
   57SOL    MW4  260   1.308   1.327   0.240
   58SOL     OW  261   1.101   1.366   0.447
   58SOL    HW2  262   1.165   1.344   0.379
   58SOL    HW3  263   1.079   1.458   0.430
   58SOL    MW4  264   1.107   1.375   0.436
   59SOL     OW  265   1.056   1.656   0.464
   59SOL    HW2  266   1.132   1.712   0.452
   59SOL    HW3  267   1.043   1.652   0.559
   59SOL    MW4  268   1.064   1.663   0.475
   60SOL     OW  269   0.143   2.138   0.407
   60SOL    HW2  270   0.061   2.167   0.368
   60SOL    HW3  271   0.210   2.171   0.347
   60SOL    MW4  272   0.141   2.146   0.394
   61SOL     OW  273   0.731   1.868   0.598
   61SOL    HW2  274   0.697   1.836   0.514
   61SOL    HW3  275   0.765   1.789   0.641
   61SOL    MW4  276   0.731   1.853   0.592
   62SOL     OW  277   0.793   2.266   0.537
   62SOL    HW2  278   0.841   2.313   0.605
   62SOL    HW3  279   0.852   2.194   0.512
   62SOL    MW4  280   0.807   2.263   0.543
   63SOL     OW  281   0.472   2.146   0.587
   63SOL    HW2  282   0.524   2.097   0.651
   63SOL    HW3  283   0.412   2.081   0.550
   63SOL    MW4  284   0.471   2.131   0.591
   64SOL     OW  285   0.976   2.522   0.507
   64SOL    HW2  286   1.010   2.441   0.469
   64SOL    HW3  287   0.943   2.496   0.593
   64SOL    MW4  288   0.976   2.508   0.514
   65SOL     OW  289   0.678   2.424   0.254
   65SOL    HW2  290   0.694   2.499   0.311
   65SOL    HW3  291   0.765   2.394   0.228
   65SOL    MW4  292   0.692   2.430   0.258
   66SOL     OW  293   0.486   2.885   0.388
   66SOL    HW2  294   0.434   2.965   0.379
   66SOL    HW3  295   0.565   2.912   0.433
   66SOL    MW4  296   0.489   2.899   0.393
   67SOL     OW  297   0.772   3.204   0.516
   67SOL    HW2  298   0.822   3.197   0.597
   67SOL    HW3  299   0.799   3.289   0.479
   67SOL    MW4  300   0.782   3.214   0.522
   68SOL     OW  301   1.905   3.693   0.446
   68SOL    HW2  302   1.910   3.662   0.537
   68SOL    HW3  303   1.924   3.616   0.393
   68SOL    MW4  304   1.908   3.679   0.451
   69SOL     OW  305   0.888   3.982   0.524
   69SOL    HW2  306   0.799   4.011   0.503
   69SOL    HW3  307   0.897   4.001   0.618
   69SOL    MW4  308   0.878   3.989   0.534
   70SOL     OW  309   0.619   4.080   0.487
   70SOL    HW2  310   0.558   4.077   0.560
   70SOL    HW3  311   0.658   4.168   0.491
   70SOL    MW4  312   0.616   4.092   0.497
   71SOL     OW  313   1.093   4.173   0.411
   71SOL    HW2  314   1.020   4.114   0.428
   71SOL    HW3  315   1.061   4.260   0.436
   71SOL    MW4  316   1.079   4.177   0.417
   72SOL     OW  317   1.191   0.500   0.468
   72SOL    HW2  318   1.168   0.408   0.452
   72SOL    HW3  319   1.282   0.508   0.441
   72SOL    MW4  320   1.200   0.489   0.462
   73SOL     OW  321   0.925   0.031   0.453
   73SOL    HW2  322   0.961  -0.057   0.456
   73SOL    HW3  323   0.912   0.055   0.545
   73SOL    MW4  324   0.928   0.023   0.465
   74SOL     OW  325   1.414   0.225   0.430
   74SOL    HW2  326   1.341   0.221   0.369
   74SOL    HW3  327   1.450   0.313   0.419
   74SOL    MW4  328   1.409   0.236   0.420
   75SOL     OW  329   2.055   4.644   0.369
   75SOL    HW2  330   2.087   4.725   0.330
   75SOL    HW3  331   1.975   4.623   0.320
   75SOL    MW4  332   2.048   4.652   0.357
   76SOL     OW  333   1.106   0.243   0.365
   76SOL    HW2  334   1.071   0.156   0.384
   76SOL    HW3  335   1.036   0.285   0.314
   76SOL    MW4  336   1.092   0.237   0.361
   77SOL     OW  337   2.299   0.537   0.438
   77SOL    HW2  338   2.207   0.561   0.427
   77SOL    HW3  339   2.297   0.442   0.449
   77SOL    MW4  340   2.286   0.528   0.438
   78SOL     OW  341   2.462   1.032   0.408
   78SOL    HW2  342   2.442   1.067   0.322
   78SOL    HW3  343   2.377   1.022   0.451
   78SOL    MW4  344   2.448   1.035   0.402
   79SOL     OW  345   1.837   1.340   0.342
   79SOL    HW2  346   1.783   1.278   0.390
   79SOL    HW3  347   1.805   1.426   0.369
   79SOL    MW4  348   1.826   1.343   0.352
   80SOL     OW  349   1.654   1.171   0.450
   80SOL    HW2  350   1.708   1.097   0.478
   80SOL    HW3  351   1.583   1.131   0.399
   80SOL    MW4  352   1.651   1.156   0.447
   81SOL     OW  353   1.400   1.049   0.331
   81SOL    HW2  354   1.332   1.024   0.393
   81SOL    HW3  355   1.367   1.128   0.289
   81SOL    MW4  356   1.387   1.056   0.334
   82SOL     OW  357   1.563   1.414   0.225
   82SOL    HW2  358   1.648   1.383   0.193
   82SOL    HW3  359   1.585   1.481   0.290
   82SOL    MW4  360   1.577   1.419   0.230
   83SOL     OW  361   0.930   2.319   0.189
   83SOL    HW2  362   0.960   2.385   0.126
   83SOL    HW3  363   1.001   2.314   0.253
   83SOL    MW4  364   0.943   2.327   0.189
   84SOL     OW  365   1.398   2.659   0.498
   84SOL    HW2  366   1.330   2.726   0.508
   84SOL    HW3  367   1.476   2.709   0.476
   84SOL    MW4  368   1.399   2.675   0.496
   85SOL     OW  369   1.764   2.142   0.221
   85SOL    HW2  370   1.838   2.162   0.277
   85SOL    HW3  371   1.787   2.178   0.136
   85SOL    MW4  372   1.777   2.149   0.217
   86SOL     OW  373   1.514   1.997   0.504
   86SOL    HW2  374   1.535   2.076   0.454
   86SOL    HW3  375   1.596   1.947   0.506
   86SOL    MW4  376   1.527   2.001   0.497
   87SOL     OW  377   0.893   2.036   0.453
   87SOL    HW2  378   0.986   2.018   0.464
   87SOL    HW3  379   0.849   1.970   0.508
   87SOL    MW4  380   0.899   2.025   0.462
   88SOL     OW  381   0.782   2.913   0.457
   88SOL    HW2  382   0.794   3.008   0.462
   88SOL    HW3  383   0.757   2.887   0.546
   88SOL    MW4  384   0.780   2.922   0.470
   89SOL     OW  385   1.971   2.222   0.358
   89SOL    HW2  386   1.982   2.140   0.405
   89SOL    HW3  387   2.059   2.257   0.351
   89SOL    MW4  388   1.984   2.216   0.363
   90SOL     OW  389   2.015   0.581   0.426
   90SOL    HW2  390   2.010   0.671   0.394
   90SOL    HW3  391   1.931   0.542   0.403
   90SOL    MW4  392   2.004   0.587   0.418
   91SOL     OW  393   1.069   3.811   0.412
   91SOL    HW2  394   1.080   3.719   0.435
   91SOL    HW3  395   1.009   3.845   0.478
   91SOL    MW4  396   1.062   3.803   0.424
   92SOL     OW  397   1.938   2.682   0.486
   92SOL    HW2  398   1.971   2.706   0.572
   92SOL    HW3  399   2.015   2.680   0.430
   92SOL    MW4  400   1.952   2.685   0.490
   93SOL     OW  401   1.328   3.895   0.463
   93SOL    HW2  402   1.241   3.858   0.446
   93SOL    HW3  403   1.332   3.972   0.406
   93SOL    MW4  404   1.317   3.900   0.453
   94SOL     OW  405   1.805   3.039   0.434
   94SOL    HW2  406   1.893   3.002   0.441
   94SOL    HW3  407   1.747   2.963   0.438
   94SOL    MW4  408   1.809   3.024   0.435
   95SOL     OW  409   2.177   3.751   0.474
   95SOL    HW2  410   2.082   3.739   0.466
   95SOL    HW3  411   2.202   3.690   0.543
   95SOL    MW4  412   2.168   3.741   0.482
   96SOL     OW  413   0.872   3.745   0.229
   96SOL    HW2  414   0.905   3.760   0.140
   96SOL    HW3  415   0.945   3.766   0.286
   96SOL    MW4  416   0.886   3.750   0.224
   97SOL     OW  417   1.827   4.552   0.261
   97SOL    HW2  418   1.748   4.604   0.242
   97SOL    HW3  419   1.797   4.461   0.260
   97SOL    MW4  420   1.812   4.547   0.258
   98SOL     OW  421   2.041   4.645   0.652
   98SOL    HW2  422   2.041   4.555   0.685
   98SOL    HW3  423   2.036   4.635   0.556
   98SOL    MW4  424   2.040   4.632   0.643
   99SOL     OW  425   2.050   0.280   0.292
   99SOL    HW2  426   1.968   0.239   0.322
   99SOL    HW3  427   2.021   0.349   0.232
   99SOL    MW4  428   2.035   0.284   0.288
  100SOL     OW  429   1.385   4.175   0.359
  100SOL    HW2  430   1.291   4.191   0.369
  100SOL    HW3  431   1.426   4.255   0.390
  100SOL    MW4  432   1.378   4.188   0.364
  101SOL     OW  433   2.568   0.581   0.460
  101SOL    HW2  434   2.474   0.575   0.447
  101SOL    HW3  435   2.586   0.675   0.464
  101SOL    MW4  436   2.558   0.593   0.459
  102SOL     OW  437   1.753   1.868   0.462
  102SOL    HW2  438   1.834   1.893   0.507
  102SOL    HW3  439   1.759   1.913   0.377
  102SOL    MW4  440   1.765   1.877   0.457
  103SOL     OW  441   2.067   1.228   0.435
  103SOL    HW2  442   2.146   1.276   0.411
  103SOL    HW3  443   1.996   1.277   0.394
  103SOL    MW4  444   2.068   1.241   0.426
  104SOL     OW  445   2.567   1.255   0.538
  104SOL    HW2  446   2.646   1.304   0.512
  104SOL    HW3  447   2.577   1.169   0.498
  104SOL    MW4  448   2.579   1.250   0.530
  105SOL     OW  449   2.258   1.838   0.483
  105SOL    HW2  450   2.308   1.919   0.474
  105SOL    HW3  451   2.293   1.780   0.415
  105SOL    MW4  452   2.269   1.841   0.473
  106SOL     OW  453   1.675   1.579   0.429
  106SOL    HW2  454   1.715   1.664   0.447
  106SOL    HW3  455   1.623   1.560   0.507
  106SOL    MW4  456   1.673   1.587   0.442
  107SOL     OW  457   1.304   1.798   0.487
  107SOL    HW2  458   1.385   1.849   0.480
  107SOL    HW3  459   1.309   1.758   0.574
  107SOL    MW4  460   1.315   1.800   0.498
  108SOL     OW  461   2.241   2.340   0.451
  108SOL    HW2  462   2.271   2.417   0.402
  108SOL    HW3  463   2.246   2.367   0.543
  108SOL    MW4  464   2.246   2.354   0.457
  109SOL     OW  465   1.758   3.297   0.498
  109SOL    HW2  466   1.775   3.205   0.477
  109SOL    HW3  467   1.830   3.344   0.457
  109SOL    MW4  468   1.770   3.291   0.489
  110SOL     OW  469   1.128   2.796   0.469
  110SOL    HW2  470   1.066   2.860   0.434
  110SOL    HW3  471   1.082   2.712   0.462
  110SOL    MW4  472   1.114   2.794   0.463
  111SOL     OW  473   1.511   3.449   0.514
  111SOL    HW2  474   1.589   3.393   0.515
  111SOL    HW3  475   1.539   3.529   0.470
  111SOL    MW4  476   1.525   3.452   0.509
  112SOL     OW  477   1.160   2.030   0.505
  112SOL    HW2  478   1.170   2.046   0.599
  112SOL    HW3  479   1.220   1.958   0.486
  112SOL    MW4  480   1.169   2.023   0.515
  113SOL     OW  481   4.051   1.625   0.357
  113SOL    HW2  482   4.011   1.711   0.345
  113SOL    HW3  483   3.979   1.563   0.347
  113SOL    MW4  484   4.037   1.628   0.354
  114SOL     OW  485   1.830   2.427   0.502
  114SOL    HW2  486   1.893   2.362   0.473
  114SOL    HW3  487   1.871   2.511   0.481
  114SOL    MW4  488   1.843   2.430   0.495
  115SOL     OW  489   1.118   2.289   0.386
  115SOL    HW2  490   1.203   2.331   0.403
  115SOL    HW3  491   1.128   2.199   0.417
  115SOL    MW4  492   1.130   2.283   0.392
  116SOL     OW  493   1.265   3.365   0.459
  116SOL    HW2  494   1.353   3.400   0.470
  116SOL    HW3  495   1.277   3.288   0.403
  116SOL    MW4  496   1.278   3.359   0.453
  117SOL     OW  497   2.240   3.382   0.365
  117SOL    HW2  498   2.322   3.431   0.363
  117SOL    HW3  499   2.264   3.294   0.392
  117SOL    MW4  500   2.254   3.377   0.368
  118SOL     OW  501   1.788   4.281   0.319
  118SOL    HW2  502   1.760   4.191   0.302
  118SOL    HW3  503   1.873   4.272   0.361
  118SOL    MW4  504   1.795   4.268   0.322
  119SOL     OW  505   1.545   3.709   0.414
  119SOL    HW2  506   1.465   3.760   0.400
  119SOL    HW3  507   1.609   3.773   0.447
  119SOL    MW4  508   1.543   3.725   0.417
  120SOL     OW  509   1.553   4.401   0.420
  120SOL    HW2  510   1.552   4.392   0.515
  120SOL    HW3  511   1.634   4.357   0.393
  120SOL    MW4  512   1.564   4.394   0.429
  121SOL     OW  513   1.577   0.002   0.348
  121SOL    HW2  514   1.498   0.051   0.371
  121SOL    HW3  515   1.562  -0.086   0.382
  121SOL    MW4  516   1.564  -0.003   0.355
  122SOL     OW  517   2.440   4.445   0.637
  122SOL    HW2  518   2.432   4.515   0.702
  122SOL    HW3  519   2.379   4.470   0.567
  122SOL    MW4  520   2.431   4.458   0.636
  123SOL     OW  521   2.286   0.249   0.449
  123SOL    HW2  522   2.257   0.197   0.524
  123SOL    HW3  523   2.208   0.257   0.394
  123SOL    MW4  524   2.272   0.243   0.452
  124SOL     OW  525   2.899   1.484   0.356
  124SOL    HW2  526   2.817   1.531   0.371
  124SOL    HW3  527   2.885   1.397   0.394
  124SOL    MW4  528   2.886   1.478   0.363
  125SOL     OW  529   2.907   0.564   0.457
  125SOL    HW2  530   2.826   0.612   0.443
  125SOL    HW3  531   2.976   0.630   0.453
  125SOL    MW4  532   2.906   0.579   0.455
  126SOL     OW  533   2.200   0.987   0.497
  126SOL    HW2  534   2.157   1.072   0.494
  126SOL    HW3  535   2.144   0.930   0.445
  126SOL    MW4  536   2.187   0.991   0.489
  127SOL     OW  537   2.866   1.235   0.492
  127SOL    HW2  538   2.901   1.157   0.448
  127SOL    HW3  539   2.905   1.233   0.580
  127SOL    MW4  540   2.876   1.224   0.498
  128SOL     OW  541   2.663   1.620   0.418
  128SOL    HW2  542   2.692   1.707   0.391
  128SOL    HW3  543   2.668   1.621   0.514
  128SOL    MW4  544   2.668   1.632   0.427
  129SOL     OW  545   3.148   1.859   0.402
  129SOL    HW2  546   3.145   1.927   0.468
  129SOL    HW3  547   3.235   1.866   0.364
  129SOL    MW4  548   3.159   1.869   0.405
  130SOL     OW  549   3.105   4.512   0.454
  130SOL    HW2  550   3.130   4.603   0.468
  130SOL    HW3  551   3.079   4.480   0.540
  130SOL    MW4  552   3.105   4.520   0.467
  131SOL     OW  553   2.022   1.992   0.520
  131SOL    HW2  554   2.024   1.995   0.616
  131SOL    HW3  555   2.104   1.947   0.496
  131SOL    MW4  556   2.033   1.987   0.530
  132SOL     OW  557   1.559   1.559   0.681
  132SOL    HW2  558   1.612   1.607   0.745
  132SOL    HW3  559   1.471   1.596   0.690
  132SOL    MW4  560   1.554   1.571   0.691
  133SOL     OW  561   2.409   2.071   0.477
  133SOL    HW2  562   2.369   2.158   0.480
  133SOL    HW3  563   2.498   2.087   0.447
  133SOL    MW4  564   2.415   2.085   0.473
  134SOL     OW  565   2.675   2.097   0.381
  134SOL    HW2  566   2.716   2.026   0.331
  134SOL    HW3  567   2.711   2.088   0.470
  134SOL    MW4  568   2.685   2.086   0.386
  135SOL     OW  569   2.160   2.700   0.329
  135SOL    HW2  570   2.149   2.789   0.362
  135SOL    HW3  571   2.236   2.666   0.376
  135SOL    MW4  572   2.168   2.707   0.340
  136SOL     OW  573   1.604   2.275   0.405
  136SOL    HW2  574   1.656   2.233   0.337
  136SOL    HW3  575   1.663   2.339   0.445
  136SOL    MW4  576   1.619   2.278   0.402
  137SOL     OW  577   1.668   2.790   0.461
  137SOL    HW2  578   1.638   2.792   0.552
  137SOL    HW3  579   1.751   2.741   0.464
  137SOL    MW4  580   1.675   2.784   0.474
  138SOL     OW  581   2.198   4.029   0.465
  138SOL    HW2  582   2.290   4.056   0.467
  138SOL    HW3  583   2.202   3.933   0.457
  138SOL    MW4  584   2.210   4.020   0.464
  139SOL     OW  585   2.516   4.348   0.266
  139SOL    HW2  586   2.515   4.375   0.175
  139SOL    HW3  587   2.603   4.310   0.280
  139SOL    MW4  588   2.527   4.346   0.256
  140SOL     OW  589   1.723   3.927   0.472
  140SOL    HW2  590   1.681   3.968   0.396
  140SOL    HW3  591   1.786   3.865   0.434
  140SOL    MW4  592   1.726   3.924   0.457
  141SOL     OW  593   1.947   3.433   0.341
  141SOL    HW2  594   1.934   3.409   0.249
  141SOL    HW3  595   2.037   3.409   0.359
  141SOL    MW4  596   1.957   3.427   0.331
  142SOL     OW  597   2.252   4.455   0.396
  142SOL    HW2  598   2.325   4.488   0.344
  142SOL    HW3  599   2.181   4.517   0.381
  142SOL    MW4  600   2.253   4.468   0.387
  143SOL     OW  601   2.052   4.252   0.441
  143SOL    HW2  602   2.097   4.170   0.458
  143SOL    HW3  603   2.119   4.309   0.403
  143SOL    MW4  604   2.067   4.249   0.438
  144SOL     OW  605   3.185   0.115   0.480
  144SOL    HW2  606   3.116   0.175   0.448
  144SOL    HW3  607   3.180   0.121   0.575
  144SOL    MW4  608   3.175   0.124   0.488
  145SOL     OW  609   2.421   3.755   0.337
  145SOL    HW2  610   2.399   3.767   0.245
  145SOL    HW3  611   2.338   3.731   0.379
  145SOL    MW4  612   2.407   3.754   0.331
  146SOL     OW  613   2.424   4.199   0.491
  146SOL    HW2  614   2.409   4.270   0.552
  146SOL    HW3  615   2.438   4.241   0.406
  146SOL    MW4  616   2.424   4.214   0.488
  147SOL     OW  617   2.581   0.253   0.448
  147SOL    HW2  618   2.595   0.346   0.433
  147SOL    HW3  619   2.486   0.243   0.453
  147SOL    MW4  620   2.570   0.264   0.447
  148SOL     OW  621   1.771   0.478   0.365
  148SOL    HW2  622   1.773   0.382   0.369
  148SOL    HW3  623   1.680   0.500   0.384
  148SOL    MW4  624   1.759   0.468   0.368
  149SOL     OW  625   3.157   0.705   0.411
  149SOL    HW2  626   3.190   0.793   0.426
  149SOL    HW3  627   3.225   0.647   0.445
  149SOL    MW4  628   3.170   0.709   0.417
  150SOL     OW  629   2.398   1.604   0.345
  150SOL    HW2  630   2.492   1.605   0.364
  150SOL    HW3  631   2.392   1.582   0.252
  150SOL    MW4  632   2.410   1.601   0.336
  151SOL     OW  633   2.681   0.838   0.468
  151SOL    HW2  634   2.755   0.888   0.433
  151SOL    HW3  635   2.604   0.888   0.441
  151SOL    MW4  636   2.680   0.851   0.460
  152SOL     OW  637   3.153   1.595   0.458
  152SOL    HW2  638   3.076   1.563   0.410
  152SOL    HW3  639   3.147   1.690   0.451
  152SOL    MW4  640   3.142   1.603   0.450
  153SOL     OW  641   3.572   1.339   0.321
  153SOL    HW2  642   3.523   1.277   0.374
  153SOL    HW3  643   3.549   1.317   0.231
  153SOL    MW4  644   3.562   1.328   0.316
  154SOL     OW  645   3.826   1.453   0.376
  154SOL    HW2  646   3.740   1.427   0.344
  154SOL    HW3  647   3.807   1.520   0.442
  154SOL    MW4  648   3.812   1.458   0.380
  155SOL     OW  649   2.673   0.091   0.697
  155SOL    HW2  650   2.697   0.175   0.736
  155SOL    HW3  651   2.664   0.110   0.604
  155SOL    MW4  652   2.675   0.105   0.690
  156SOL     OW  653   3.100   2.014   0.649
  156SOL    HW2  654   3.005   2.017   0.659
  156SOL    HW3  655   3.131   1.970   0.728
  156SOL    MW4  656   3.091   2.008   0.660
  157SOL     OW  657   2.607   2.392   0.439
  157SOL    HW2  658   2.694   2.428   0.427
  157SOL    HW3  659   2.610   2.306   0.397
  157SOL    MW4  660   2.619   2.385   0.432
  158SOL     OW  661   2.845   1.843   0.386
  158SOL    HW2  662   2.841   1.896   0.465
  158SOL    HW3  663   2.938   1.824   0.374
  158SOL    MW4  664   2.857   1.847   0.395
  159SOL     OW  665   2.402   2.596   0.447
  159SOL    HW2  666   2.451   2.678   0.458
  159SOL    HW3  667   2.470   2.529   0.440
  159SOL    MW4  668   2.417   2.598   0.448
  160SOL     OW  669   2.563   2.841   0.490
  160SOL    HW2  670   2.577   2.936   0.486
  160SOL    HW3  671   2.521   2.826   0.575
  160SOL    MW4  672   2.559   2.851   0.501
  161SOL     OW  673   2.875   3.158   0.365
  161SOL    HW2  674   2.856   3.103   0.289
  161SOL    HW3  675   2.970   3.162   0.368
  161SOL    MW4  676   2.885   3.151   0.355
  162SOL     OW  677   3.169   3.123   0.418
  162SOL    HW2  678   3.151   3.030   0.432
  162SOL    HW3  679   3.168   3.161   0.506
  162SOL    MW4  680   3.166   3.116   0.431
  163SOL     OW  681   2.328   3.140   0.476
  163SOL    HW2  682   2.298   3.181   0.557
  163SOL    HW3  683   2.421   3.124   0.491
  163SOL    MW4  684   2.336   3.143   0.489
  164SOL     OW  685   1.634   4.081   0.242
  164SOL    HW2  686   1.620   4.043   0.156
  164SOL    HW3  687   1.549   4.116   0.268
  164SOL    MW4  688   1.621   4.081   0.234
  165SOL     OW  689   3.073   3.823   0.304
  165SOL    HW2  690   3.076   3.909   0.346
  165SOL    HW3  691   3.075   3.842   0.210
  165SOL    MW4  692   3.074   3.837   0.297
  166SOL     OW  693   2.790   3.412   0.426
  166SOL    HW2  694   2.695   3.419   0.414
  166SOL    HW3  695   2.812   3.324   0.396
  166SOL    MW4  696   2.780   3.402   0.421
  167SOL     OW  697   2.499   3.491   0.387
  167SOL    HW2  698   2.512   3.579   0.351
  167SOL    HW3  699   2.475   3.505   0.478
  167SOL    MW4  700   2.498   3.504   0.394
  168SOL     OW  701   3.050   4.271   0.110
  168SOL    HW2  702   3.108   4.240   0.180
  168SOL    HW3  703   3.102   4.335   0.063
  168SOL    MW4  704   3.064   4.275   0.113
  169SOL     OW  705   3.249   4.300   0.345
  169SOL    HW2  706   3.202   4.232   0.393
  169SOL    HW3  707   3.208   4.382   0.375
  169SOL    MW4  708   3.237   4.302   0.355
  170SOL     OW  709   3.419   0.281   0.419
  170SOL    HW2  710   3.344   0.225   0.441
  170SOL    HW3  711   3.495   0.228   0.441
  170SOL    MW4  712   3.419   0.267   0.425
  171SOL     OW  713   2.836   4.523   0.388
  171SOL    HW2  714   2.821   4.605   0.341
  171SOL    HW3  715   2.930   4.524   0.408
  171SOL    MW4  716   2.847   4.534   0.384
  172SOL     OW  717   2.781   4.103   0.462
  172SOL    HW2  718   2.747   4.021   0.425
  172SOL    HW3  719   2.796   4.159   0.386
  172SOL    MW4  720   2.778   4.100   0.447
  173SOL     OW  721   2.799   0.157   0.301
  173SOL    HW2  722   2.732   0.201   0.354
  173SOL    HW3  723   2.876   0.213   0.308
  173SOL    MW4  724   2.800   0.170   0.309
  174SOL     OW  725   3.190   0.979   0.457
  174SOL    HW2  726   3.209   0.933   0.539
  174SOL    HW3  727   3.263   1.040   0.446
  174SOL    MW4  728   3.202   0.981   0.466
  175SOL     OW  729   3.417   0.570   0.480
  175SOL    HW2  730   3.394   0.480   0.456
  175SOL    HW3  731   3.498   0.589   0.433
  175SOL    MW4  732   3.424   0.561   0.471
  176SOL     OW  733   3.583   0.908   0.464
  176SOL    HW2  734   3.582   0.820   0.425
  176SOL    HW3  735   3.582   0.892   0.558
  176SOL    MW4  736   3.583   0.894   0.471
  177SOL     OW  737   3.017   0.322   0.342
  177SOL    HW2  738   3.082   0.341   0.274
  177SOL    HW3  739   2.984   0.408   0.367
  177SOL    MW4  740   3.021   0.336   0.336
  178SOL     OW  741   3.441   1.810   0.725
  178SOL    HW2  742   3.426   1.831   0.632
  178SOL    HW3  743   3.355   1.823   0.766
  178SOL    MW4  744   3.428   1.814   0.718
  179SOL     OW  745   3.433   1.874   0.459
  179SOL    HW2  746   3.435   1.779   0.450
  179SOL    HW3  747   3.524   1.901   0.448
  179SOL    MW4  748   3.445   1.865   0.456
  180SOL     OW  749   3.423   1.150   0.444
  180SOL    HW2  750   3.420   1.176   0.536
  180SOL    HW3  751   3.475   1.069   0.444
  180SOL    MW4  752   3.430   1.142   0.456
  181SOL     OW  753   3.916   1.886   0.305
  181SOL    HW2  754   3.837   1.879   0.358
  181SOL    HW3  755   3.903   1.967   0.255
  181SOL    MW4  756   3.904   1.896   0.305
  182SOL     OW  757   3.246   2.252   0.634
  182SOL    HW2  758   3.197   2.171   0.615
  182SOL    HW3  759   3.293   2.233   0.715
  182SOL    MW4  760   3.246   2.239   0.642
  183SOL     OW  761   3.475   2.672   0.602
  183SOL    HW2  762   3.524   2.637   0.676
  183SOL    HW3  763   3.442   2.595   0.556
  183SOL    MW4  764   3.477   2.658   0.606
  184SOL     OW  765   2.083   2.952   0.470
  184SOL    HW2  766   2.064   2.935   0.562
  184SOL    HW3  767   2.163   3.005   0.472
  184SOL    MW4  768   2.091   2.956   0.483
  185SOL     OW  769   3.135   2.580   0.315
  185SOL    HW2  770   3.189   2.519   0.364
  185SOL    HW3  771   3.156   2.563   0.223
  185SOL    MW4  772   3.145   2.570   0.309
  186SOL     OW  773   2.906   2.855   0.769
  186SOL    HW2  774   2.879   2.824   0.682
  186SOL    HW3  775   2.979   2.798   0.792
  186SOL    MW4  776   2.912   2.843   0.760
  187SOL     OW  777   3.600   0.357   0.215
  187SOL    HW2  778   3.676   0.298   0.223
  187SOL    HW3  779   3.535   0.320   0.275
  187SOL    MW4  780   3.602   0.344   0.224
  188SOL     OW  781   3.101   4.064   0.443
  188SOL    HW2  782   3.005   4.071   0.443
  188SOL    HW3  783   3.124   4.052   0.535
  188SOL    MW4  784   3.091   4.064   0.455
  189SOL     OW  785   3.365   3.590   0.668
  189SOL    HW2  786   3.382   3.535   0.592
  189SOL    HW3  787   3.283   3.557   0.704
  189SOL    MW4  788   3.357   3.579   0.662
  190SOL     OW  789   3.709   3.337   0.500
  190SOL    HW2  790   3.746   3.421   0.528
  190SOL    HW3  791   3.785   3.284   0.474
  190SOL    MW4  792   3.724   3.341   0.500
  191SOL     OW  793   3.425   3.424   0.442
  191SOL    HW2  794   3.516   3.398   0.431
  191SOL    HW3  795   3.375   3.351   0.405
  191SOL    MW4  796   3.430   3.411   0.435
  192SOL     OW  797   2.666   3.839   0.441
  192SOL    HW2  798   2.733   3.771   0.432
  192SOL    HW3  799   2.585   3.797   0.413
  192SOL    MW4  800   2.664   3.824   0.436
  193SOL     OW  801   2.596   3.107   0.498
  193SOL    HW2  802   2.676   3.122   0.448
  193SOL    HW3  803   2.613   3.150   0.582
  193SOL    MW4  804   2.609   3.115   0.503
  194SOL     OW  805   4.277   4.631   0.333
  194SOL    HW2  806   4.260   4.639   0.239
  194SOL    HW3  807   4.344   4.562   0.339
  194SOL    MW4  808   4.284   4.623   0.321
  195SOL     OW  809   3.835   0.226   0.312
  195SOL    HW2  810   3.832   0.303   0.369
  195SOL    HW3  811   3.914   0.179   0.340
  195SOL    MW4  812   3.845   0.230   0.323
  196SOL     OW  813   3.648   0.600   0.333
  196SOL    HW2  814   3.630   0.524   0.279
  196SOL    HW3  815   3.720   0.645   0.289
  196SOL    MW4  816   3.655   0.596   0.320
  197SOL     OW  817   3.888   0.728   0.267
  197SOL    HW2  818   3.900   0.818   0.298
  197SOL    HW3  819   3.971   0.685   0.285
  197SOL    MW4  820   3.900   0.735   0.274
  198SOL     OW  821   4.086   0.584   0.436
  198SOL    HW2  822   4.153   0.523   0.468
  198SOL    HW3  823   4.004   0.537   0.448
  198SOL    MW4  824   4.084   0.569   0.442
  199SOL     OW  825   4.418   0.861   0.487
  199SOL    HW2  826   4.324   0.846   0.478
  199SOL    HW3  827   4.459   0.782   0.453
  199SOL    MW4  828   4.411   0.849   0.481
  200SOL     OW  829   3.868   0.986   0.377
  200SOL    HW2  830   3.882   1.076   0.407
  200SOL    HW3  831   3.774   0.971   0.388
  200SOL    MW4  832   3.858   0.996   0.382
  201SOL     OW  833   4.302   1.548   0.424
  201SOL    HW2  834   4.224   1.582   0.382
  201SOL    HW3  835   4.346   1.625   0.460
  201SOL    MW4  836   4.298   1.563   0.423
  202SOL     OW  837   3.961   1.238   0.521
  202SOL    HW2  838   4.052   1.260   0.500
  202SOL    HW3  839   3.909   1.298   0.468
  202SOL    MW4  840   3.966   1.249   0.512
  203SOL     OW  841   3.453   1.570   0.451
  203SOL    HW2  842   3.362   1.548   0.473
  203SOL    HW3  843   3.483   1.498   0.396
  203SOL    MW4  844   3.445   1.558   0.447
  204SOL     OW  845   2.919   0.971   0.385
  204SOL    HW2  846   2.930   0.978   0.290
  204SOL    HW3  847   3.008   0.959   0.419
  204SOL    MW4  848   2.932   0.971   0.377
  205SOL     OW  849   3.666   2.375   0.407
  205SOL    HW2  850   3.704   2.328   0.333
  205SOL    HW3  851   3.719   2.348   0.482
  205SOL    MW4  852   3.678   2.365   0.407
  206SOL     OW  853   4.145   2.791   0.514
  206SOL    HW2  854   4.129   2.697   0.502
  206SOL    HW3  855   4.064   2.833   0.488
  206SOL    MW4  856   4.133   2.784   0.509
  207SOL     OW  857   2.872   2.475   0.446
  207SOL    HW2  858   2.924   2.473   0.527
  207SOL    HW3  859   2.934   2.501   0.379
  207SOL    MW4  860   2.887   2.478   0.448
  208SOL     OW  861   2.890   3.662   0.449
  208SOL    HW2  862   2.963   3.688   0.393
  208SOL    HW3  863   2.866   3.575   0.418
  208SOL    MW4  864   2.897   3.654   0.438
  209SOL     OW  865   3.106   2.833   0.413
  209SOL    HW2  866   3.130   2.759   0.357
  209SOL    HW3  867   3.017   2.813   0.441
  209SOL    MW4  868   3.098   2.821   0.409
  210SOL     OW  869   3.876   2.894   0.492
  210SOL    HW2  870   3.804   2.851   0.445
  210SOL    HW3  871   3.868   2.986   0.468
  210SOL    MW4  872   3.865   2.900   0.483
  211SOL     OW  873   3.685   2.696   0.397
  211SOL    HW2  874   3.688   2.603   0.372
  211SOL    HW3  875   3.628   2.698   0.474
  211SOL    MW4  876   3.678   2.684   0.404
  212SOL     OW  877   3.993   3.974   0.528
  212SOL    HW2  878   3.911   3.925   0.517
  212SOL    HW3  879   4.059   3.918   0.487
  212SOL    MW4  880   3.991   3.960   0.521
  213SOL     OW  881   3.365   2.450   0.464
  213SOL    HW2  882   3.317   2.374   0.499
  213SOL    HW3  883   3.446   2.413   0.429
  213SOL    MW4  884   3.369   2.435   0.464
  214SOL     OW  885   3.320   3.822   0.504
  214SOL    HW2  886   3.334   3.749   0.564
  214SOL    HW3  887   3.266   3.786   0.434
  214SOL    MW4  888   3.315   3.808   0.503
  215SOL     OW  889   4.361   3.999   0.665
  215SOL    HW2  890   4.315   3.964   0.741
  215SOL    HW3  891   4.331   4.089   0.657
  215SOL    MW4  892   4.351   4.006   0.674
  216SOL     OW  893   3.496   4.265   0.451
  216SOL    HW2  894   3.405   4.272   0.420
  216SOL    HW3  895   3.505   4.173   0.476
  216SOL    MW4  896   3.485   4.253   0.450
  217SOL     OW  897   3.636   4.492   0.363
  217SOL    HW2  898   3.595   4.407   0.381
  217SOL    HW3  899   3.635   4.499   0.267
  217SOL    MW4  900   3.630   4.482   0.353
  218SOL     OW  901   4.429   0.151   0.481
  218SOL    HW2  902   4.393   0.074   0.438
  218SOL    HW3  903   4.452   0.122   0.569
  218SOL    MW4  904   4.427   0.137   0.487
  219SOL     OW  905   4.136   0.857   0.504
  219SOL    HW2  906   4.075   0.915   0.460
  219SOL    HW3  907   4.101   0.769   0.490
  219SOL    MW4  908   4.124   0.853   0.496
  220SOL     OW  909   0.428   1.596   0.499
  220SOL    HW2  910   0.451   1.505   0.480
  220SOL    HW3  911   0.335   1.603   0.475
  220SOL    MW4  912   0.419   1.585   0.493
  221SOL     OW  913   4.330   0.421   0.483
  221SOL    HW2  914   4.363   0.332   0.471
  221SOL    HW3  915   4.399   0.477   0.447
  221SOL    MW4  916   4.344   0.417   0.477
  222SOL     OW  917   4.456   1.122   0.379
  222SOL    HW2  918   4.444   1.032   0.407
  222SOL    HW3  919   4.374   1.166   0.402
  222SOL    MW4  920   4.444   1.116   0.386
  223SOL     OW  921   3.628   0.081   0.444
  223SOL    HW2  922   3.636  -0.010   0.416
  223SOL    HW3  923   3.699   0.126   0.399
  223SOL    MW4  924   3.638   0.075   0.434
  224SOL     OW  925   4.239   1.281   0.473
  224SOL    HW2  926   4.266   1.372   0.465
  224SOL    HW3  927   4.272   1.253   0.558
  224SOL    MW4  928   4.247   1.289   0.483
  225SOL     OW  929   0.046   1.420   0.285
  225SOL    HW2  930  -0.042   1.439   0.318
  225SOL    HW3  931   0.059   1.327   0.303
  225SOL    MW4  932   0.036   1.410   0.292
  226SOL     OW  933   4.118   2.285   0.313
  226SOL    HW2  934   4.074   2.232   0.380
  226SOL    HW3  935   4.132   2.370   0.354
  226SOL    MW4  936   4.114   2.289   0.327
  227SOL     OW  937   4.429   1.774   0.545
  227SOL    HW2  938   4.389   1.859   0.560
  227SOL    HW3  939   4.455   1.743   0.632
  227SOL    MW4  940   4.427   1.781   0.558
  228SOL     OW  941   4.385   2.229   0.357
  228SOL    HW2  942   4.413   2.317   0.382
  228SOL    HW3  943   4.299   2.241   0.316
  228SOL    MW4  944   4.377   2.242   0.355
  229SOL     OW  945   4.293   2.014   0.555
  229SOL    HW2  946   4.198   2.028   0.554
  229SOL    HW3  947   4.329   2.089   0.508
  229SOL    MW4  948   4.285   2.026   0.549
  230SOL     OW  949   4.430   2.491   0.499
  230SOL    HW2  950   4.479   2.572   0.487
  230SOL    HW3  951   4.456   2.460   0.587
  230SOL    MW4  952   4.440   2.497   0.509
  231SOL     OW  953   4.292   3.576   0.522
  231SOL    HW2  954   4.382   3.570   0.489
  231SOL    HW3  955   4.245   3.507   0.475
  231SOL    MW4  956   4.298   3.566   0.511
  232SOL     OW  957   4.147   2.516   0.483
  232SOL    HW2  958   4.120   2.495   0.572
  232SOL    HW3  959   4.241   2.495   0.482
  232SOL    MW4  960   4.156   2.510   0.495
  233SOL     OW  961   0.322   3.821   0.366
  233SOL    HW2  962   0.297   3.906   0.403
  233SOL    HW3  963   0.417   3.822   0.365
  233SOL    MW4  964   0.331   3.833   0.371
  234SOL     OW  965   0.046   3.566   0.395
  234SOL    HW2  966   0.048   3.629   0.324
  234SOL    HW3  967   0.132   3.575   0.437
  234SOL    MW4  968   0.058   3.576   0.391
  235SOL     OW  969   0.129   3.296   0.346
  235SOL    HW2  970   0.224   3.312   0.340
  235SOL    HW3  971   0.092   3.383   0.365
  235SOL    MW4  972   0.137   3.310   0.348
  236SOL     OW  973   3.750   3.842   0.479
  236SOL    HW2  974   3.692   3.917   0.469
  236SOL    HW3  975   3.703   3.782   0.536
  236SOL    MW4  976   3.736   3.844   0.485
  237SOL     OW  977   3.921   3.173   0.443
  237SOL    HW2  978   3.938   3.169   0.537
  237SOL    HW3  979   3.998   3.216   0.406
  237SOL    MW4  980   3.933   3.178   0.450
  238SOL     OW  981   0.201   4.074   0.438
  238SOL    HW2  982   0.169   4.058   0.526
  238SOL    HW3  983   0.125   4.060   0.382
  238SOL    MW4  984   0.187   4.070   0.442
  239SOL     OW  985   4.082   4.207   0.405
  239SOL    HW2  986   4.049   4.119   0.423
  239SOL    HW3  987   4.006   4.264   0.420
  239SOL    MW4  988   4.068   4.203   0.410
  240SOL     OW  989   4.254   4.251   0.639
  240SOL    HW2  990   4.298   4.336   0.631
  240SOL    HW3  991   4.205   4.241   0.558
  240SOL    MW4  992   4.253   4.261   0.628
  241SOL     OW  993   3.901   4.437   0.458
  241SOL    HW2  994   3.892   4.418   0.551
  241SOL    HW3  995   3.812   4.433   0.424
  241SOL    MW4  996   3.888   4.434   0.466
  242SOL     OW  997   0.265   0.011   0.782
  242SOL    HW2  998   0.269  -0.083   0.764
  242SOL    HW3  999   0.173   0.034   0.771
  242SOL    MW4 1000   0.254   0.001   0.778
  243SOL     OW 1001   0.012   0.118   0.751
  243SOL    HW2 1002  -0.072   0.082   0.779
  243SOL    HW3 1003   0.023   0.198   0.803
  243SOL    MW4 1004   0.003   0.124   0.761
  244SOL     OW 1005   0.003   0.360   0.898
  244SOL    HW2 1006   0.011   0.364   0.993
  244SOL    HW3 1007   0.089   0.389   0.866
  244SOL    MW4 1008   0.016   0.364   0.906
  245SOL     OW 1009   0.234   0.461   0.788
  245SOL    HW2 1010   0.317   0.419   0.810
  245SOL    HW3 1011   0.246   0.552   0.817
  245SOL    MW4 1012   0.247   0.468   0.794
  246SOL     OW 1013   0.252   0.759   0.830
  246SOL    HW2 1014   0.257   0.761   0.926
  246SOL    HW3 1015   0.163   0.787   0.810
  246SOL    MW4 1016   0.241   0.763   0.840
  247SOL     OW 1017   4.481   0.840   0.757
  247SOL    HW2 1018   4.394   0.809   0.783
  247SOL    HW3 1019   4.472   0.865   0.665
  247SOL    MW4 1020   4.469   0.839   0.749
  248SOL     OW 1021   0.015   1.098   0.866
  248SOL    HW2 1022   0.022   1.084   0.960
  248SOL    HW3 1023  -0.001   1.011   0.829
  248SOL    MW4 1024   0.014   1.085   0.873
  249SOL     OW 1025   0.251   1.205   0.745
  249SOL    HW2 1026   0.165   1.181   0.781
  249SOL    HW3 1027   0.247   1.178   0.653
  249SOL    MW4 1028   0.239   1.199   0.738
  250SOL     OW 1029   0.179   1.464   0.822
  250SOL    HW2 1030   0.247   1.523   0.788
  250SOL    HW3 1031   0.218   1.377   0.817
  250SOL    MW4 1032   0.193   1.461   0.817
  251SOL     OW 1033   4.450   1.648   0.781
  251SOL    HW2 1034   4.373   1.593   0.789
  251SOL    HW3 1035   4.524   1.588   0.787
  251SOL    MW4 1036   4.450   1.633   0.783
  252SOL     OW 1037   4.472   1.877   0.949
  252SOL    HW2 1038   4.541   1.907   0.889
  252SOL    HW3 1039   4.456   1.786   0.924
  252SOL    MW4 1040   4.479   1.869   0.938
  253SOL     OW 1041   0.205   1.979   0.802
  253SOL    HW2 1042   0.194   2.070   0.830
  253SOL    HW3 1043   0.227   1.984   0.709
  253SOL    MW4 1044   0.206   1.991   0.794
  254SOL     OW 1045   0.209   2.278   0.846
  254SOL    HW2 1046   0.218   2.292   0.940
  254SOL    HW3 1047   0.284   2.324   0.808
  254SOL    MW4 1048   0.220   2.286   0.853
  255SOL     OW 1049   4.489   2.428   0.758
  255SOL    HW2 1050   4.418   2.375   0.792
  255SOL    HW3 1051   4.567   2.373   0.768
  255SOL    MW4 1052   4.490   2.414   0.763
  256SOL     OW 1053   0.027   2.697   0.826
  256SOL    HW2 1054   0.048   2.722   0.916
  256SOL    HW3 1055   0.032   2.601   0.825
  256SOL    MW4 1056   0.030   2.688   0.837
  257SOL     OW 1057   0.230   2.842   0.693
  257SOL    HW2 1058   0.169   2.778   0.730
  257SOL    HW3 1059   0.219   2.835   0.598
  257SOL    MW4 1060   0.221   2.833   0.685
  258SOL     OW 1061   0.211   3.103   0.825
  258SOL    HW2 1062   0.207   3.092   0.920
  258SOL    HW3 1063   0.197   3.015   0.791
  258SOL    MW4 1064   0.209   3.090   0.833
  259SOL     OW 1065   4.445   3.189   0.763
  259SOL    HW2 1066   4.530   3.161   0.797
  259SOL    HW3 1067   4.454   3.182   0.668
  259SOL    MW4 1068   4.457   3.184   0.755
  260SOL     OW 1069   4.469   3.447   0.880
  260SOL    HW2 1070   4.386   3.490   0.856
  260SOL    HW3 1071   4.466   3.364   0.833
  260SOL    MW4 1072   4.457   3.442   0.870
  261SOL     OW 1073   0.211   3.606   0.793
  261SOL    HW2 1074   0.135   3.559   0.827
  261SOL    HW3 1075   0.212   3.585   0.700
  261SOL    MW4 1076   0.201   3.597   0.785
  262SOL     OW 1077   0.208   3.875   0.850
  262SOL    HW2 1078   0.202   3.881   0.946
  262SOL    HW3 1079   0.211   3.781   0.832
  262SOL    MW4 1080   0.207   3.863   0.860
  263SOL     OW 1081   0.120   4.072   0.706
  263SOL    HW2 1082   0.028   4.050   0.689
  263SOL    HW3 1083   0.153   3.998   0.756
  263SOL    MW4 1084   0.112   4.059   0.710
  264SOL     OW 1085   0.060   4.315   0.798
  264SOL    HW2 1086   0.034   4.311   0.890
  264SOL    HW3 1087   0.086   4.225   0.776
  264SOL    MW4 1088   0.060   4.302   0.807
  265SOL     OW 1089   0.318   4.412   0.740
  265SOL    HW2 1090   0.231   4.382   0.770
  265SOL    HW3 1091   0.316   4.402   0.645
  265SOL    MW4 1092   0.306   4.407   0.732
  266SOL     OW 1093   0.675   0.034   0.823
  266SOL    HW2 1094   0.654   0.012   0.914
  266SOL    HW3 1095   0.600   0.086   0.793
  266SOL    MW4 1096   0.662   0.038   0.831
  267SOL     OW 1097   0.463   0.172   0.694
  267SOL    HW2 1098   0.387   0.128   0.732
  267SOL    HW3 1099   0.448   0.171   0.600
  267SOL    MW4 1100   0.451   0.166   0.687
  268SOL     OW 1101   0.490   0.374   0.860
  268SOL    HW2 1102   0.544   0.439   0.816
  268SOL    HW3 1103   0.500   0.294   0.807
  268SOL    MW4 1104   0.498   0.372   0.847
  269SOL     OW 1105   0.664   0.549   0.745
  269SOL    HW2 1106   0.750   0.510   0.761
  269SOL    HW3 1107   0.648   0.535   0.652
  269SOL    MW4 1108   0.673   0.542   0.735
  270SOL     OW 1109   0.688   0.793   0.858
  270SOL    HW2 1110   0.617   0.841   0.816
  270SOL    HW3 1111   0.676   0.703   0.830
  270SOL    MW4 1112   0.677   0.788   0.849
  271SOL     OW 1113   0.469   0.909   0.733
  271SOL    HW2 1114   0.457   0.992   0.779
  271SOL    HW3 1115   0.396   0.854   0.762
  271SOL    MW4 1116   0.458   0.913   0.743
  272SOL     OW 1117   0.485   1.151   0.871
  272SOL    HW2 1118   0.544   1.216   0.831
  272SOL    HW3 1119   0.398   1.177   0.842
  272SOL    MW4 1120   0.482   1.163   0.862
  273SOL     OW 1121   0.690   1.315   0.760
  273SOL    HW2 1122   0.690   1.411   0.763
  273SOL    HW3 1123   0.724   1.294   0.673
  273SOL    MW4 1124   0.694   1.325   0.749
  274SOL     OW 1125   0.702   1.586   0.771
  274SOL    HW2 1126   0.705   1.599   0.866
  274SOL    HW3 1127   0.611   1.608   0.747
  274SOL    MW4 1128   0.690   1.591   0.781
  275SOL     OW 1129   0.435   1.620   0.763
  275SOL    HW2 1130   0.425   1.710   0.794
  275SOL    HW3 1131   0.436   1.627   0.668
  275SOL    MW4 1132   0.434   1.633   0.755
  276SOL     OW 1133   0.449   1.884   0.874
  276SOL    HW2 1134   0.460   1.906   0.967
  276SOL    HW3 1135   0.359   1.910   0.853
  276SOL    MW4 1136   0.439   1.890   0.884
  277SOL     OW 1137   0.653   2.039   0.788
  277SOL    HW2 1138   0.587   1.989   0.837
  277SOL    HW3 1139   0.677   1.982   0.715
  277SOL    MW4 1140   0.647   2.025   0.785
  278SOL     OW 1141   0.640   2.317   0.852
  278SOL    HW2 1142   0.652   2.310   0.947
  278SOL    HW3 1143   0.647   2.227   0.820
  278SOL    MW4 1144   0.642   2.304   0.860
  279SOL     OW 1145   0.405   2.454   0.785
  279SOL    HW2 1146   0.485   2.413   0.817
  279SOL    HW3 1147   0.421   2.471   0.692
  279SOL    MW4 1148   0.418   2.451   0.777
  280SOL     OW 1149   0.458   2.732   0.849
  280SOL    HW2 1150   0.432   2.640   0.847
  280SOL    HW3 1151   0.390   2.777   0.798
  280SOL    MW4 1152   0.445   2.726   0.842
  281SOL     OW 1153   0.693   2.847   0.710
  281SOL    HW2 1154   0.750   2.786   0.756
  281SOL    HW3 1155   0.604   2.821   0.734
  281SOL    MW4 1156   0.689   2.836   0.719
  282SOL     OW 1157   0.676   3.089   0.844
  282SOL    HW2 1158   0.591   3.124   0.817
  282SOL    HW3 1159   0.679   3.001   0.807
  282SOL    MW4 1160   0.665   3.082   0.836
  283SOL     OW 1161   0.447   3.250   0.775
  283SOL    HW2 1162   0.453   3.339   0.810
  283SOL    HW3 1163   0.361   3.219   0.805
  283SOL    MW4 1164   0.436   3.258   0.784
  284SOL     OW 1165   0.448   3.489   0.887
  284SOL    HW2 1166   0.431   3.473   0.979
  284SOL    HW3 1167   0.366   3.526   0.853
  284SOL    MW4 1168   0.435   3.492   0.894
  285SOL     OW 1169   0.617   3.658   0.747
  285SOL    HW2 1170   0.559   3.600   0.797
  285SOL    HW3 1171   0.615   3.741   0.795
  285SOL    MW4 1172   0.609   3.662   0.760
  286SOL     OW 1173   0.628   3.905   0.878
  286SOL    HW2 1174   0.713   3.943   0.860
  286SOL    HW3 1175   0.565   3.962   0.834
  286SOL    MW4 1176   0.631   3.917   0.870
  287SOL     OW 1177   0.450   4.062   0.740
  287SOL    HW2 1178   0.457   4.134   0.803
  287SOL    HW3 1179   0.364   4.024   0.755
  287SOL    MW4 1180   0.440   4.067   0.750
  288SOL     OW 1181   0.498   4.287   0.872
  288SOL    HW2 1182   0.479   4.299   0.965
  288SOL    HW3 1183   0.428   4.333   0.827
  288SOL    MW4 1184   0.486   4.295   0.879
  289SOL     OW 1185   0.705   4.429   0.756
  289SOL    HW2 1186   0.636   4.383   0.804
  289SOL    HW3 1187   0.691   4.521   0.776
  289SOL    MW4 1188   0.694   4.435   0.765
  290SOL     OW 1189   1.162   0.015   0.839
  290SOL    HW2 1190   1.243   0.049   0.799
  290SOL    HW3 1191   1.092   0.047   0.782
  290SOL    MW4 1192   1.164   0.024   0.826
  291SOL     OW 1193   0.926   0.118   0.709
  291SOL    HW2 1194   0.915   0.211   0.729
  291SOL    HW3 1195   0.857   0.075   0.760
  291SOL    MW4 1196   0.915   0.125   0.719
  292SOL     OW 1197   0.880   0.379   0.789
  292SOL    HW2 1198   0.888   0.371   0.884
  292SOL    HW3 1199   0.953   0.436   0.764
  292SOL    MW4 1200   0.891   0.386   0.798
  293SOL     OW 1201   1.123   0.495   0.718
  293SOL    HW2 1202   1.187   0.439   0.762
  293SOL    HW3 1203   1.150   0.494   0.626
  293SOL    MW4 1204   1.135   0.488   0.712
  294SOL     OW 1205   1.130   0.773   0.794
  294SOL    HW2 1206   1.139   0.778   0.889
  294SOL    HW3 1207   1.133   0.680   0.774
  294SOL    MW4 1208   1.132   0.762   0.804
  295SOL     OW 1209   0.896   0.916   0.720
  295SOL    HW2 1210   0.977   0.871   0.740
  295SOL    HW3 1211   0.829   0.869   0.771
  295SOL    MW4 1212   0.898   0.904   0.730
  296SOL     OW 1213   0.920   1.176   0.818
  296SOL    HW2 1214   0.911   1.082   0.800
  296SOL    HW3 1215   0.831   1.211   0.809
  296SOL    MW4 1216   0.907   1.168   0.814
  297SOL     OW 1217   1.144   1.234   0.681
  297SOL    HW2 1218   1.056   1.211   0.710
  297SOL    HW3 1219   1.130   1.292   0.606
  297SOL    MW4 1220   1.130   1.238   0.675
  298SOL     OW 1221   1.157   1.472   0.831
  298SOL    HW2 1222   1.085   1.520   0.790
  298SOL    HW3 1223   1.146   1.382   0.800
  298SOL    MW4 1224   1.146   1.466   0.821
  299SOL     OW 1225   0.972   1.642   0.724
  299SOL    HW2 1226   0.967   1.721   0.778
  299SOL    HW3 1227   0.884   1.604   0.728
  299SOL    MW4 1228   0.960   1.647   0.732
  300SOL     OW 1229   0.908   1.875   0.866
  300SOL    HW2 1230   0.906   1.887   0.961
  300SOL    HW3 1231   0.845   1.939   0.832
  300SOL    MW4 1232   0.899   1.885   0.874
  301SOL     OW 1233   1.108   2.063   0.780
  301SOL    HW2 1234   1.097   2.151   0.815
  301SOL    HW3 1235   1.029   2.016   0.807
  301SOL    MW4 1236   1.096   2.068   0.788
  302SOL     OW 1237   1.093   2.319   0.868
  302SOL    HW2 1238   1.114   2.322   0.961
  302SOL    HW3 1239   1.170   2.356   0.825
  302SOL    MW4 1240   1.106   2.324   0.874
  303SOL     OW 1241   0.878   2.428   0.749
  303SOL    HW2 1242   0.955   2.393   0.794
  303SOL    HW3 1243   0.804   2.395   0.800
  303SOL    MW4 1244   0.879   2.419   0.762
  304SOL     OW 1245   0.865   2.676   0.849
  304SOL    HW2 1246   0.884   2.668   0.942
  304SOL    HW3 1247   0.863   2.586   0.817
  304SOL    MW4 1248   0.867   2.663   0.857
  305SOL     OW 1249   1.117   2.806   0.756
  305SOL    HW2 1250   1.035   2.757   0.765
  305SOL    HW3 1251   1.120   2.830   0.663
  305SOL    MW4 1252   1.107   2.803   0.745
  306SOL     OW 1253   1.120   3.090   0.800
  306SOL    HW2 1254   1.040   3.138   0.781
  306SOL    HW3 1255   1.094   2.998   0.802
  306SOL    MW4 1256   1.106   3.084   0.798
  307SOL     OW 1257   0.893   3.233   0.756
  307SOL    HW2 1258   0.874   3.327   0.765
  307SOL    HW3 1259   0.812   3.190   0.783
  307SOL    MW4 1260   0.880   3.240   0.761
  308SOL     OW 1261   0.843   3.494   0.860
  308SOL    HW2 1262   0.924   3.533   0.828
  308SOL    HW3 1263   0.775   3.559   0.837
  308SOL    MW4 1264   0.845   3.508   0.852
  309SOL     OW 1265   1.076   3.602   0.772
  309SOL    HW2 1266   1.142   3.540   0.803
  309SOL    HW3 1267   1.078   3.592   0.676
  309SOL    MW4 1268   1.085   3.593   0.763
  310SOL     OW 1269   1.125   3.855   0.883
  310SOL    HW2 1270   1.118   3.865   0.978
  310SOL    HW3 1271   1.101   3.763   0.867
  310SOL    MW4 1272   1.121   3.844   0.893
  311SOL     OW 1273   0.891   4.007   0.800
  311SOL    HW2 1274   0.905   4.097   0.830
  311SOL    HW3 1275   0.970   3.961   0.829
  311SOL    MW4 1276   0.904   4.013   0.808
  312SOL     OW 1277   0.902   4.274   0.894
  312SOL    HW2 1278   0.975   4.319   0.851
  312SOL    HW3 1279   0.824   4.319   0.860
  312SOL    MW4 1280   0.901   4.286   0.884
  313SOL     OW 1281   1.095   4.420   0.795
  313SOL    HW2 1282   1.179   4.373   0.799
  313SOL    HW3 1283   1.117   4.509   0.823
  313SOL    MW4 1284   1.109   4.426   0.799
  314SOL     OW 1285   1.606   4.638   0.825
  314SOL    HW2 1286   1.597   4.629   0.920
  314SOL    HW3 1287   1.531   4.693   0.800
  314SOL    MW4 1288   1.595   4.644   0.834
  315SOL     OW 1289   1.393   0.127   0.720
  315SOL    HW2 1290   1.377   0.201   0.778
  315SOL    HW3 1291   1.387   0.163   0.632
  315SOL    MW4 1292   1.390   0.141   0.716
  316SOL     OW 1293   1.345   0.363   0.851
  316SOL    HW2 1294   1.360   0.376   0.945
  316SOL    HW3 1295   1.426   0.393   0.810
  316SOL    MW4 1296   1.358   0.369   0.858
  317SOL     OW 1297   1.557   0.470   0.723
  317SOL    HW2 1298   1.548   0.558   0.760
  317SOL    HW3 1299   1.644   0.441   0.750
  317SOL    MW4 1300   1.567   0.477   0.731
  318SOL     OW 1301   1.565   0.718   0.833
  318SOL    HW2 1302   1.640   0.777   0.834
  318SOL    HW3 1303   1.500   0.763   0.779
  318SOL    MW4 1304   1.567   0.732   0.826
  319SOL     OW 1305   1.377   0.848   0.697
  319SOL    HW2 1306   1.388   0.938   0.729
  319SOL    HW3 1307   1.283   0.834   0.697
  319SOL    MW4 1308   1.366   0.858   0.701
  320SOL     OW 1309   1.366   1.104   0.822
  320SOL    HW2 1310   1.442   1.156   0.794
  320SOL    HW3 1311   1.296   1.132   0.762
  320SOL    MW4 1312   1.367   1.115   0.810
  321SOL     OW 1313   1.583   1.254   0.696
  321SOL    HW2 1314   1.558   1.346   0.704
  321SOL    HW3 1315   1.606   1.243   0.604
  321SOL    MW4 1316   1.583   1.265   0.685
  322SOL     OW 1317   1.722   1.653   0.885
  322SOL    HW2 1318   1.675   1.621   0.962
  322SOL    HW3 1319   1.812   1.624   0.898
  322SOL    MW4 1320   1.727   1.645   0.897
  323SOL     OW 1321   1.319   1.666   0.738
  323SOL    HW2 1322   1.330   1.721   0.816
  323SOL    HW3 1323   1.269   1.590   0.770
  323SOL    MW4 1324   1.314   1.663   0.753
  324SOL     OW 1325   1.319   1.916   0.894
  324SOL    HW2 1326   1.332   1.932   0.988
  324SOL    HW3 1327   1.241   1.966   0.872
  324SOL    MW4 1328   1.310   1.924   0.904
  325SOL     OW 1329   1.516   2.053   0.783
  325SOL    HW2 1330   1.432   2.012   0.801
  325SOL    HW3 1331   1.523   2.053   0.687
  325SOL    MW4 1332   1.506   2.048   0.772
  326SOL     OW 1333   1.525   2.323   0.876
  326SOL    HW2 1334   1.447   2.360   0.835
  326SOL    HW3 1335   1.525   2.231   0.848
  326SOL    MW4 1336   1.515   2.316   0.867
  327SOL     OW 1337   1.306   2.440   0.735
  327SOL    HW2 1338   1.333   2.529   0.757
  327SOL    HW3 1339   1.325   2.431   0.641
  327SOL    MW4 1340   1.312   2.451   0.725
  328SOL     OW 1341   1.371   2.689   0.829
  328SOL    HW2 1342   1.381   2.731   0.914
  328SOL    HW3 1343   1.287   2.722   0.796
  328SOL    MW4 1344   1.361   2.699   0.836
  329SOL     OW 1345   1.581   2.840   0.714
  329SOL    HW2 1346   1.579   2.935   0.724
  329SOL    HW3 1347   1.499   2.811   0.754
  329SOL    MW4 1348   1.570   2.849   0.720
  330SOL     OW 1349   1.595   3.120   0.797
  330SOL    HW2 1350   1.596   3.137   0.891
  330SOL    HW3 1351   1.514   3.161   0.767
  330SOL    MW4 1352   1.584   3.127   0.805
  331SOL     OW 1353   1.371   3.218   0.695
  331SOL    HW2 1354   1.291   3.176   0.728
  331SOL    HW3 1355   1.341   3.273   0.622
  331SOL    MW4 1356   1.356   3.220   0.690
  332SOL     OW 1357   1.311   3.455   0.856
  332SOL    HW2 1358   1.370   3.527   0.834
  332SOL    HW3 1359   1.348   3.379   0.811
  332SOL    MW4 1360   1.323   3.455   0.847
  333SOL     OW 1361   1.528   3.581   0.755
  333SOL    HW2 1362   1.599   3.529   0.793
  333SOL    HW3 1363   1.517   3.545   0.667
  333SOL    MW4 1364   1.536   3.569   0.748
  334SOL     OW 1365   1.550   3.859   0.847
  334SOL    HW2 1366   1.474   3.900   0.807
  334SOL    HW3 1367   1.560   3.776   0.801
  334SOL    MW4 1368   1.542   3.853   0.836
  335SOL     OW 1369   1.329   3.975   0.735
  335SOL    HW2 1370   1.259   3.935   0.787
  335SOL    HW3 1371   1.318   3.940   0.647
  335SOL    MW4 1372   1.318   3.965   0.730
  336SOL     OW 1373   1.318   4.247   0.823
  336SOL    HW2 1374   1.395   4.293   0.790
  336SOL    HW3 1375   1.315   4.166   0.772
  336SOL    MW4 1376   1.328   4.243   0.812
  337SOL     OW 1377   1.544   4.375   0.708
  337SOL    HW2 1378   1.619   4.321   0.733
  337SOL    HW3 1379   1.555   4.456   0.757
  337SOL    MW4 1380   1.555   4.378   0.717
  338SOL     OW 1381   1.860   0.104   0.826
  338SOL    HW2 1382   1.905   0.070   0.749
  338SOL    HW3 1383   1.774   0.061   0.825
  338SOL    MW4 1384   1.855   0.094   0.815
  339SOL     OW 1385   1.774   0.191   0.411
  339SOL    HW2 1386   1.710   0.128   0.377
  339SOL    HW3 1387   1.774   0.177   0.505
  339SOL    MW4 1388   1.765   0.181   0.419
  340SOL     OW 1389   1.806   0.364   0.856
  340SOL    HW2 1390   1.841   0.275   0.845
  340SOL    HW3 1391   1.861   0.419   0.800
  340SOL    MW4 1392   1.818   0.359   0.847
  341SOL     OW 1393   2.010   0.530   0.702
  341SOL    HW2 1394   2.014   0.559   0.611
  341SOL    HW3 1395   2.095   0.490   0.718
  341SOL    MW4 1396   2.022   0.528   0.692
  342SOL     OW 1397   2.032   0.758   0.899
  342SOL    HW2 1398   2.103   0.806   0.857
  342SOL    HW3 1399   2.028   0.674   0.851
  342SOL    MW4 1400   2.041   0.753   0.887
  343SOL     OW 1401   1.803   0.893   0.816
  343SOL    HW2 1402   1.815   0.984   0.843
  343SOL    HW3 1403   1.881   0.847   0.847
  343SOL    MW4 1404   1.815   0.899   0.824
  344SOL     OW 1405   1.811   1.161   0.886
  344SOL    HW2 1406   1.880   1.215   0.846
  344SOL    HW3 1407   1.734   1.178   0.833
  344SOL    MW4 1408   1.810   1.170   0.874
  345SOL     OW 1409   2.017   1.311   0.748
  345SOL    HW2 1410   2.094   1.280   0.795
  345SOL    HW3 1411   2.031   1.286   0.657
  345SOL    MW4 1412   2.029   1.304   0.742
  346SOL     OW 1413   2.010   1.559   0.882
  346SOL    HW2 1414   2.076   1.610   0.833
  346SOL    HW3 1415   2.008   1.474   0.837
  346SOL    MW4 1416   2.019   1.555   0.870
  347SOL     OW 1417   2.341   1.335   0.420
  347SOL    HW2 1418   2.356   1.428   0.401
  347SOL    HW3 1419   2.416   1.310   0.475
  347SOL    MW4 1420   2.353   1.344   0.425
  348SOL     OW 1421   1.753   1.933   0.840
  348SOL    HW2 1422   1.750   1.838   0.832
  348SOL    HW3 1423   1.665   1.962   0.814
  348SOL    MW4 1424   1.741   1.924   0.835
  349SOL     OW 1425   2.010   2.060   0.808
  349SOL    HW2 1426   2.010   2.155   0.821
  349SOL    HW3 1427   1.921   2.033   0.830
  349SOL    MW4 1428   1.998   2.069   0.813
  350SOL     OW 1429   2.013   2.340   0.878
  350SOL    HW2 1430   2.005   2.345   0.973
  350SOL    HW3 1431   1.936   2.386   0.846
  350SOL    MW4 1432   2.002   2.347   0.886
  351SOL     OW 1433   1.771   2.445   0.786
  351SOL    HW2 1434   1.690   2.415   0.829
  351SOL    HW3 1435   1.753   2.434   0.693
  351SOL    MW4 1436   1.758   2.439   0.779
  352SOL     OW 1437   1.807   2.732   0.837
  352SOL    HW2 1438   1.811   2.639   0.816
  352SOL    HW3 1439   1.727   2.763   0.794
  352SOL    MW4 1440   1.797   2.723   0.829
  353SOL     OW 1441   2.037   2.852   0.721
  353SOL    HW2 1442   2.104   2.811   0.777
  353SOL    HW3 1443   1.955   2.813   0.751
  353SOL    MW4 1444   2.035   2.841   0.733
  354SOL     OW 1445   2.057   3.085   0.872
  354SOL    HW2 1446   1.978   3.121   0.832
  354SOL    HW3 1447   2.066   2.998   0.833
  354SOL    MW4 1448   2.048   3.078   0.862
  355SOL     OW 1449   1.841   3.218   0.743
  355SOL    HW2 1450   1.757   3.177   0.765
  355SOL    HW3 1451   1.831   3.248   0.653
  355SOL    MW4 1452   1.829   3.217   0.734
  356SOL     OW 1453   1.743   3.458   0.851
  356SOL    HW2 1454   1.760   3.458   0.945
  356SOL    HW3 1455   1.788   3.380   0.819
  356SOL    MW4 1456   1.751   3.448   0.859
  357SOL     OW 1457   1.937   3.599   0.703
  357SOL    HW2 1458   1.964   3.673   0.758
  357SOL    HW3 1459   1.871   3.553   0.755
  357SOL    MW4 1460   1.932   3.603   0.717
  358SOL     OW 1461   2.016   3.840   0.831
  358SOL    HW2 1462   2.028   3.868   0.922
  358SOL    HW3 1463   1.936   3.884   0.803
  358SOL    MW4 1464   2.007   3.849   0.839
  359SOL     OW 1465   1.790   3.972   0.742
  359SOL    HW2 1466   1.709   3.937   0.778
  359SOL    HW3 1467   1.778   3.967   0.647
  359SOL    MW4 1468   1.778   3.967   0.734
  360SOL     OW 1469   1.787   4.241   0.772
  360SOL    HW2 1470   1.787   4.262   0.866
  360SOL    HW3 1471   1.801   4.147   0.769
  360SOL    MW4 1472   1.789   4.232   0.784
  361SOL     OW 1473   2.030   4.371   0.698
  361SOL    HW2 1474   1.946   4.344   0.734
  361SOL    HW3 1475   2.027   4.342   0.607
  361SOL    MW4 1476   2.018   4.363   0.691
  362SOL     OW 1477   2.457   4.658   0.813
  362SOL    HW2 1478   2.470   4.660   0.908
  362SOL    HW3 1479   2.531   4.706   0.777
  362SOL    MW4 1480   2.468   4.665   0.821
  363SOL     OW 1481   2.246   0.151   0.715
  363SOL    HW2 1482   2.316   0.100   0.754
  363SOL    HW3 1483   2.175   0.088   0.701
  363SOL    MW4 1484   2.246   0.136   0.718
  364SOL     OW 1485   2.228   0.413   0.802
  364SOL    HW2 1486   2.307   0.450   0.762
  364SOL    HW3 1487   2.230   0.321   0.777
  364SOL    MW4 1488   2.239   0.406   0.794
  365SOL     OW 1489   2.488   0.526   0.722
  365SOL    HW2 1490   2.517   0.566   0.640
  365SOL    HW3 1491   2.557   0.464   0.744
  365SOL    MW4 1492   2.501   0.523   0.714
  366SOL     OW 1493   2.458   0.784   0.835
  366SOL    HW2 1494   2.547   0.816   0.818
  366SOL    HW3 1495   2.463   0.689   0.821
  366SOL    MW4 1496   2.471   0.776   0.831
  367SOL     OW 1497   2.226   0.933   0.787
  367SOL    HW2 1498   2.310   0.888   0.796
  367SOL    HW3 1499   2.215   0.944   0.693
  367SOL    MW4 1500   2.236   0.928   0.776
  368SOL     OW 1501   2.240   1.207   0.867
  368SOL    HW2 1502   2.230   1.213   0.962
  368SOL    HW3 1503   2.247   1.113   0.850
  368SOL    MW4 1504   2.240   1.195   0.878
  369SOL     OW 1505   2.508   1.270   0.814
  369SOL    HW2 1506   2.417   1.245   0.830
  369SOL    HW3 1507   2.519   1.260   0.719
  369SOL    MW4 1508   2.498   1.265   0.803
  370SOL     OW 1509   2.445   1.544   0.799
  370SOL    HW2 1510   2.523   1.582   0.758
  370SOL    HW3 1511   2.463   1.450   0.802
  370SOL    MW4 1512   2.458   1.536   0.794
  371SOL     OW 1513   2.202   1.681   0.726
  371SOL    HW2 1514   2.293   1.651   0.732
  371SOL    HW3 1515   2.197   1.725   0.642
  371SOL    MW4 1516   2.213   1.683   0.716
  372SOL     OW 1517   2.246   1.924   0.889
  372SOL    HW2 1518   2.214   1.837   0.863
  372SOL    HW3 1519   2.168   1.980   0.881
  372SOL    MW4 1520   2.231   1.920   0.884
  373SOL     OW 1521   2.453   2.019   0.742
  373SOL    HW2 1522   2.372   1.990   0.783
  373SOL    HW3 1523   2.430   2.027   0.649
  373SOL    MW4 1524   2.439   2.016   0.735
  374SOL     OW 1525   2.440   2.261   0.879
  374SOL    HW2 1526   2.511   2.303   0.831
  374SOL    HW3 1527   2.437   2.172   0.844
  374SOL    MW4 1528   2.449   2.255   0.868
  375SOL     OW 1529   2.239   2.413   0.731
  375SOL    HW2 1530   2.299   2.364   0.788
  375SOL    HW3 1531   2.152   2.390   0.763
  375SOL    MW4 1532   2.236   2.404   0.743
  376SOL     OW 1533   2.241   2.684   0.826
  376SOL    HW2 1534   2.238   2.674   0.921
  376SOL    HW3 1535   2.241   2.595   0.792
  376SOL    MW4 1536   2.240   2.671   0.834
  377SOL     OW 1537   2.451   2.820   0.738
  377SOL    HW2 1538   2.527   2.792   0.788
  377SOL    HW3 1539   2.382   2.757   0.762
  377SOL    MW4 1540   2.452   2.808   0.748
  378SOL     OW 1541   2.466   3.083   0.845
  378SOL    HW2 1542   2.452   3.068   0.939
  378SOL    HW3 1543   2.443   3.000   0.804
  378SOL    MW4 1544   2.461   3.070   0.852
  379SOL     OW 1545   2.257   3.220   0.737
  379SOL    HW2 1546   2.181   3.191   0.787
  379SOL    HW3 1547   2.331   3.175   0.778
  379SOL    MW4 1548   2.257   3.210   0.749
  380SOL     OW 1549   2.183   3.501   0.809
  380SOL    HW2 1550   2.214   3.417   0.775
  380SOL    HW3 1551   2.106   3.521   0.756
  380SOL    MW4 1552   2.177   3.493   0.797
  381SOL     OW 1553   2.400   3.593   0.678
  381SOL    HW2 1554   2.476   3.560   0.726
  381SOL    HW3 1555   2.324   3.561   0.727
  381SOL    MW4 1556   2.400   3.584   0.691
  382SOL     OW 1557   2.425   3.857   0.816
  382SOL    HW2 1558   2.351   3.914   0.796
  382SOL    HW3 1559   2.400   3.772   0.780
  382SOL    MW4 1560   2.412   3.853   0.808
  383SOL     OW 1561   2.212   3.999   0.739
  383SOL    HW2 1562   2.125   3.961   0.750
  383SOL    HW3 1563   2.222   4.009   0.644
  383SOL    MW4 1564   2.202   3.995   0.728
  384SOL     OW 1565   2.235   4.241   0.856
  384SOL    HW2 1566   2.225   4.151   0.825
  384SOL    HW3 1567   2.179   4.293   0.799
  384SOL    MW4 1568   2.226   4.236   0.845
  385SOL     OW 1569   2.504   4.167   0.839
  385SOL    HW2 1570   2.552   4.187   0.919
  385SOL    HW3 1571   2.418   4.206   0.852
  385SOL    MW4 1572   2.499   4.175   0.851
  386SOL     OW 1573   2.906   0.007   0.855
  386SOL    HW2 1574   2.938  -0.067   0.803
  386SOL    HW3 1575   2.820   0.027   0.819
  386SOL    MW4 1576   2.899   0.000   0.844
  387SOL     OW 1577   2.729   4.396   0.608
  387SOL    HW2 1578   2.654   4.441   0.647
  387SOL    HW3 1579   2.743   4.442   0.525
  387SOL    MW4 1580   2.721   4.408   0.602
  388SOL     OW 1581   2.705   0.351   0.825
  388SOL    HW2 1582   2.704   0.359   0.921
  388SOL    HW3 1583   2.788   0.392   0.799
  388SOL    MW4 1584   2.716   0.357   0.835
  389SOL     OW 1585   2.916   0.506   0.726
  389SOL    HW2 1586   3.002   0.467   0.741
  389SOL    HW3 1587   2.916   0.528   0.632
  389SOL    MW4 1588   2.928   0.504   0.715
  390SOL     OW 1589   2.943   0.771   0.818
  390SOL    HW2 1590   2.942   0.768   0.914
  390SOL    HW3 1591   2.936   0.679   0.791
  390SOL    MW4 1592   2.942   0.758   0.827
  391SOL     OW 1593   2.712   0.896   0.746
  391SOL    HW2 1594   2.796   0.852   0.758
  391SOL    HW3 1595   2.697   0.895   0.652
  391SOL    MW4 1596   2.721   0.890   0.735
  392SOL     OW 1597   2.739   1.132   0.899
  392SOL    HW2 1598   2.723   1.042   0.869
  392SOL    HW3 1599   2.655   1.176   0.885
  392SOL    MW4 1600   2.726   1.126   0.893
  393SOL     OW 1601   2.952   1.231   0.751
  393SOL    HW2 1602   3.041   1.210   0.781
  393SOL    HW3 1603   2.896   1.167   0.795
  393SOL    MW4 1604   2.956   1.220   0.761
  394SOL     OW 1605   2.876   1.492   0.859
  394SOL    HW2 1606   2.961   1.529   0.832
  394SOL    HW3 1607   2.879   1.402   0.829
  394SOL    MW4 1608   2.888   1.485   0.852
  395SOL     OW 1609   2.676   1.633   0.693
  395SOL    HW2 1610   2.661   1.715   0.741
  395SOL    HW3 1611   2.740   1.586   0.746
  395SOL    MW4 1612   2.682   1.638   0.706
  396SOL     OW 1613   2.680   1.881   0.828
  396SOL    HW2 1614   2.687   1.898   0.922
  396SOL    HW3 1615   2.594   1.914   0.804
  396SOL    MW4 1616   2.669   1.887   0.838
  397SOL     OW 1617   2.830   2.033   0.646
  397SOL    HW2 1618   2.828   2.117   0.691
  397SOL    HW3 1619   2.795   1.971   0.710
  397SOL    MW4 1620   2.825   2.036   0.660
  398SOL     OW 1621   2.834   2.274   0.754
  398SOL    HW2 1622   2.848   2.278   0.849
  398SOL    HW3 1623   2.761   2.333   0.738
  398SOL    MW4 1624   2.827   2.282   0.765
  399SOL     OW 1625   2.609   2.430   0.730
  399SOL    HW2 1626   2.599   2.442   0.635
  399SOL    HW3 1627   2.636   2.516   0.762
  399SOL    MW4 1628   2.611   2.443   0.721
  400SOL     OW 1629   2.687   2.677   0.824
  400SOL    HW2 1630   2.678   2.655   0.916
  400SOL    HW3 1631   2.764   2.733   0.820
  400SOL    MW4 1632   2.696   2.681   0.835
  401SOL     OW 1633   2.845   2.771   0.516
  401SOL    HW2 1634   2.856   2.679   0.491
  401SOL    HW3 1635   2.755   2.792   0.493
  401SOL    MW4 1636   2.835   2.762   0.510
  402SOL     OW 1637   2.910   3.120   0.828
  402SOL    HW2 1638   2.826   3.161   0.811
  402SOL    HW3 1639   2.897   3.027   0.807
  402SOL    MW4 1640   2.897   3.113   0.823
  403SOL     OW 1641   2.670   3.227   0.744
  403SOL    HW2 1642   2.666   3.323   0.738
  403SOL    HW3 1643   2.590   3.203   0.791
  403SOL    MW4 1644   2.659   3.237   0.749
  404SOL     OW 1645   2.658   3.497   0.788
  404SOL    HW2 1646   2.681   3.465   0.875
  404SOL    HW3 1647   2.734   3.547   0.759
  404SOL    MW4 1648   2.671   3.499   0.795
  405SOL     OW 1649   2.893   3.630   0.715
  405SOL    HW2 1650   2.902   3.718   0.751
  405SOL    HW3 1651   2.906   3.640   0.621
  405SOL    MW4 1652   2.896   3.643   0.707
  406SOL     OW 1653   2.920   3.896   0.796
  406SOL    HW2 1654   2.913   3.882   0.890
  406SOL    HW3 1655   2.830   3.909   0.766
  406SOL    MW4 1656   2.907   3.896   0.804
  407SOL     OW 1657   2.656   3.958   0.697
  407SOL    HW2 1658   2.587   3.951   0.764
  407SOL    HW3 1659   2.625   3.904   0.625
  407SOL    MW4 1660   2.643   3.950   0.697
  408SOL     OW 1661   2.848   4.208   0.818
  408SOL    HW2 1662   2.800   4.214   0.901
  408SOL    HW3 1663   2.907   4.134   0.830
  408SOL    MW4 1664   2.849   4.199   0.831
  409SOL     OW 1665   3.004   4.443   0.688
  409SOL    HW2 1666   3.030   4.368   0.741
  409SOL    HW3 1667   2.912   4.427   0.668
  409SOL    MW4 1668   2.995   4.431   0.693
  410SOL     OW 1669   3.374   4.592   0.800
  410SOL    HW2 1670   3.390   4.605   0.893
  410SOL    HW3 1671   3.286   4.627   0.785
  410SOL    MW4 1672   3.365   4.598   0.810
  411SOL     OW 1673   3.162   0.098   0.746
  411SOL    HW2 1674   3.178   0.188   0.777
  411SOL    HW3 1675   3.076   0.076   0.783
  411SOL    MW4 1676   3.152   0.107   0.755
  412SOL     OW 1677   3.165   0.372   0.811
  412SOL    HW2 1678   3.164   0.365   0.907
  412SOL    HW3 1679   3.235   0.434   0.792
  412SOL    MW4 1680   3.174   0.379   0.821
  413SOL     OW 1681   3.413   0.504   0.767
  413SOL    HW2 1682   3.491   0.459   0.799
  413SOL    HW3 1683   3.424   0.506   0.672
  413SOL    MW4 1684   3.425   0.498   0.759
  414SOL     OW 1685   3.384   0.751   0.880
  414SOL    HW2 1686   3.320   0.790   0.821
  414SOL    HW3 1687   3.377   0.657   0.864
  414SOL    MW4 1688   3.375   0.744   0.870
  415SOL     OW 1689   3.179   0.870   0.717
  415SOL    HW2 1690   3.190   0.954   0.762
  415SOL    HW3 1691   3.096   0.836   0.749
  415SOL    MW4 1692   3.170   0.877   0.727
  416SOL     OW 1693   3.187   1.106   0.847
  416SOL    HW2 1694   3.199   1.091   0.940
  416SOL    HW3 1695   3.262   1.159   0.822
  416SOL    MW4 1696   3.198   1.111   0.856
  417SOL     OW 1697   3.410   1.225   0.731
  417SOL    HW2 1698   3.490   1.195   0.774
  417SOL    HW3 1699   3.396   1.313   0.765
  417SOL    MW4 1700   3.419   1.232   0.741
  418SOL     OW 1701   3.377   1.526   0.812
  418SOL    HW2 1702   3.377   1.528   0.908
  418SOL    HW3 1703   3.430   1.602   0.787
  418SOL    MW4 1704   3.384   1.536   0.821
  419SOL     OW 1705   3.125   1.591   0.744
  419SOL    HW2 1706   3.213   1.561   0.765
  419SOL    HW3 1707   3.125   1.597   0.648
  419SOL    MW4 1708   3.136   1.588   0.734
  420SOL     OW 1709   3.186   1.833   0.852
  420SOL    HW2 1710   3.166   1.835   0.945
  420SOL    HW3 1711   3.141   1.755   0.819
  420SOL    MW4 1712   3.177   1.823   0.860
  421SOL     OW 1713   3.579   2.017   0.853
  421SOL    HW2 1714   3.521   2.092   0.839
  421SOL    HW3 1715   3.544   1.948   0.796
  421SOL    MW4 1716   3.566   2.018   0.843
  422SOL     OW 1717   3.402   2.233   0.860
  422SOL    HW2 1718   3.365   2.252   0.946
  422SOL    HW3 1719   3.469   2.299   0.848
  422SOL    MW4 1720   3.406   2.244   0.870
  423SOL     OW 1721   3.059   2.442   0.652
  423SOL    HW2 1722   3.126   2.377   0.630
  423SOL    HW3 1723   2.990   2.391   0.694
  423SOL    MW4 1724   3.059   2.426   0.654
  424SOL     OW 1725   3.127   2.687   0.815
  424SOL    HW2 1726   3.118   2.607   0.764
  424SOL    HW3 1727   3.196   2.737   0.771
  424SOL    MW4 1728   3.135   2.683   0.803
  425SOL     OW 1729   3.271   2.841   0.637
  425SOL    HW2 1730   3.215   2.831   0.561
  425SOL    HW3 1731   3.334   2.769   0.630
  425SOL    MW4 1732   3.272   2.830   0.626
  426SOL     OW 1733   3.352   3.082   0.781
  426SOL    HW2 1734   3.344   3.073   0.875
  426SOL    HW3 1735   3.333   2.994   0.746
  426SOL    MW4 1736   3.348   3.069   0.789
  427SOL     OW 1737   3.126   3.216   0.704
  427SOL    HW2 1738   3.196   3.172   0.751
  427SOL    HW3 1739   3.046   3.189   0.749
  427SOL    MW4 1740   3.125   3.207   0.716
  428SOL     OW 1741   3.143   3.463   0.807
  428SOL    HW2 1742   3.152   3.378   0.764
  428SOL    HW3 1743   3.064   3.501   0.767
  428SOL    MW4 1744   3.134   3.457   0.796
  429SOL     OW 1745   3.531   4.001   0.545
  429SOL    HW2 1746   3.552   3.991   0.638
  429SOL    HW3 1747   3.462   3.937   0.530
  429SOL    MW4 1748   3.525   3.991   0.556
  430SOL     OW 1749   3.535   3.962   0.824
  430SOL    HW2 1750   3.580   4.042   0.850
  430SOL    HW3 1751   3.458   3.958   0.881
  430SOL    MW4 1752   3.531   3.972   0.835
  431SOL     OW 1753   3.156   3.973   0.705
  431SOL    HW2 1754   3.199   3.908   0.650
  431SOL    HW3 1755   3.076   3.929   0.736
  431SOL    MW4 1756   3.151   3.959   0.702
  432SOL     OW 1757   3.178   4.229   0.824
  432SOL    HW2 1758   3.262   4.266   0.796
  432SOL    HW3 1759   3.178   4.141   0.787
  432SOL    MW4 1760   3.189   4.222   0.815
  433SOL     OW 1761   3.408   4.324   0.719
  433SOL    HW2 1762   3.392   4.418   0.728
  433SOL    HW3 1763   3.432   4.312   0.627
  433SOL    MW4 1764   3.409   4.335   0.708
  434SOL     OW 1765   3.844   4.631   0.876
  434SOL    HW2 1766   3.916   4.681   0.837
  434SOL    HW3 1767   3.767   4.657   0.825
  434SOL    MW4 1768   3.843   4.641   0.864
  435SOL     OW 1769   3.616   0.060   0.719
  435SOL    HW2 1770   3.538   0.010   0.744
  435SOL    HW3 1771   3.619   0.053   0.623
  435SOL    MW4 1772   3.606   0.053   0.710
  436SOL     OW 1773   3.632   0.333   0.828
  436SOL    HW2 1774   3.622   0.329   0.924
  436SOL    HW3 1775   3.626   0.241   0.800
  436SOL    MW4 1776   3.630   0.320   0.837
  437SOL     OW 1777   3.837   0.490   0.735
  437SOL    HW2 1778   3.821   0.582   0.759
  437SOL    HW3 1779   3.755   0.446   0.756
  437SOL    MW4 1780   3.824   0.497   0.741
  438SOL     OW 1781   3.828   0.753   0.830
  438SOL    HW2 1782   3.804   0.756   0.922
  438SOL    HW3 1783   3.906   0.808   0.824
  438SOL    MW4 1784   3.835   0.760   0.841
  439SOL     OW 1785   3.595   0.843   0.734
  439SOL    HW2 1786   3.680   0.813   0.768
  439SOL    HW3 1787   3.530   0.792   0.782
  439SOL    MW4 1788   3.598   0.832   0.745
  440SOL     OW 1789   3.632   1.097   0.841
  440SOL    HW2 1790   3.612   1.080   0.933
  440SOL    HW3 1791   3.603   1.017   0.796
  440SOL    MW4 1792   3.625   1.084   0.847
  441SOL     OW 1793   3.849   1.283   0.761
  441SOL    HW2 1794   3.790   1.211   0.782
  441SOL    HW3 1795   3.885   1.260   0.675
  441SOL    MW4 1796   3.846   1.270   0.752
  442SOL     OW 1797   3.840   1.561   0.799
  442SOL    HW2 1798   3.927   1.579   0.764
  442SOL    HW3 1799   3.830   1.466   0.790
  442SOL    MW4 1800   3.850   1.551   0.793
  443SOL     OW 1801   3.716   1.633   0.558
  443SOL    HW2 1802   3.627   1.599   0.552
  443SOL    HW3 1803   3.740   1.621   0.650
  443SOL    MW4 1804   3.708   1.627   0.569
  444SOL     OW 1805   3.805   2.040   0.695
  444SOL    HW2 1806   3.877   1.992   0.736
  444SOL    HW3 1807   3.738   2.048   0.763
  444SOL    MW4 1808   3.806   2.035   0.709
  445SOL     OW 1809   3.814   2.319   0.645
  445SOL    HW2 1810   3.748   2.347   0.708
  445SOL    HW3 1811   3.815   2.223   0.653
  445SOL    MW4 1812   3.805   2.310   0.654
  446SOL     OW 1813   3.710   1.903   0.476
  446SOL    HW2 1814   3.721   1.951   0.559
  446SOL    HW3 1815   3.696   1.812   0.503
  446SOL    MW4 1816   3.709   1.898   0.491
  447SOL     OW 1817   3.632   2.391   0.831
  447SOL    HW2 1818   3.632   2.486   0.826
  447SOL    HW3 1819   3.677   2.371   0.913
  447SOL    MW4 1820   3.638   2.401   0.841
  448SOL     OW 1821   3.629   2.664   0.835
  448SOL    HW2 1822   3.626   2.698   0.925
  448SOL    HW3 1823   3.694   2.719   0.791
  448SOL    MW4 1824   3.637   2.676   0.841
  449SOL     OW 1825   3.856   2.840   0.772
  449SOL    HW2 1826   3.840   2.928   0.806
  449SOL    HW3 1827   3.859   2.850   0.677
  449SOL    MW4 1828   3.854   2.853   0.764
  450SOL     OW 1829   3.806   3.107   0.809
  450SOL    HW2 1830   3.881   3.160   0.782
  450SOL    HW3 1831   3.730   3.158   0.780
  450SOL    MW4 1832   3.806   3.121   0.802
  451SOL     OW 1833   3.580   3.238   0.742
  451SOL    HW2 1834   3.499   3.186   0.737
  451SOL    HW3 1835   3.593   3.269   0.652
  451SOL    MW4 1836   3.571   3.235   0.729
  452SOL     OW 1837   3.531   3.480   0.866
  452SOL    HW2 1838   3.517   3.392   0.831
  452SOL    HW3 1839   3.480   3.536   0.808
  452SOL    MW4 1840   3.523   3.476   0.853
  453SOL     OW 1841   3.744   3.562   0.702
  453SOL    HW2 1842   3.829   3.529   0.731
  453SOL    HW3 1843   3.680   3.507   0.748
  453SOL    MW4 1844   3.747   3.550   0.712
  454SOL     OW 1845   3.742   3.793   0.888
  454SOL    HW2 1846   3.659   3.840   0.874
  454SOL    HW3 1847   3.733   3.713   0.837
  454SOL    MW4 1848   3.730   3.789   0.880
  455SOL     OW 1849   2.800   4.276   0.251
  455SOL    HW2 1850   2.818   4.359   0.295
  455SOL    HW3 1851   2.879   4.260   0.199
  455SOL    MW4 1852   2.813   4.285   0.250
  456SOL     OW 1853   3.659   4.231   0.840
  456SOL    HW2 1854   3.723   4.283   0.792
  456SOL    HW3 1855   3.575   4.252   0.799
  456SOL    MW4 1856   3.656   4.240   0.828
  457SOL     OW 1857   3.846   4.398   0.719
  457SOL    HW2 1858   3.914   4.344   0.760
  457SOL    HW3 1859   3.853   4.483   0.762
  457SOL    MW4 1860   3.856   4.402   0.730
  458SOL     OW 1861   4.293   4.636   0.874
  458SOL    HW2 1862   4.291   4.622   0.968
  458SOL    HW3 1863   4.205   4.667   0.852
  458SOL    MW4 1864   4.281   4.638   0.883
  459SOL     OW 1865   4.071   0.074   0.754
  459SOL    HW2 1866   4.076   0.167   0.774
  459SOL    HW3 1867   4.040   0.071   0.663
  459SOL    MW4 1868   4.067   0.086   0.744
  460SOL     OW 1869   4.052   0.349   0.836
  460SOL    HW2 1870   4.129   0.389   0.796
  460SOL    HW3 1871   3.978   0.392   0.793
  460SOL    MW4 1872   4.053   0.360   0.825
  461SOL     OW 1873   4.290   0.463   0.755
  461SOL    HW2 1874   4.361   0.426   0.809
  461SOL    HW3 1875   4.312   0.436   0.666
  461SOL    MW4 1876   4.302   0.454   0.750
  462SOL     OW 1877   4.262   0.721   0.849
  462SOL    HW2 1878   4.191   0.765   0.803
  462SOL    HW3 1879   4.278   0.641   0.799
  462SOL    MW4 1880   4.255   0.716   0.836
  463SOL     OW 1881   4.055   0.875   0.763
  463SOL    HW2 1882   4.079   0.959   0.800
  463SOL    HW3 1883   4.081   0.881   0.671
  463SOL    MW4 1884   4.062   0.887   0.756
  464SOL     OW 1885   4.064   1.143   0.882
  464SOL    HW2 1886   4.034   1.118   0.969
  464SOL    HW3 1887   3.991   1.192   0.844
  464SOL    MW4 1888   4.050   1.146   0.888
  465SOL     OW 1889   4.284   1.242   0.767
  465SOL    HW2 1890   4.211   1.200   0.813
  465SOL    HW3 1891   4.362   1.205   0.808
  465SOL    MW4 1892   4.285   1.232   0.778
  466SOL     OW 1893   4.240   1.494   0.836
  466SOL    HW2 1894   4.236   1.498   0.932
  466SOL    HW3 1895   4.246   1.401   0.816
  466SOL    MW4 1896   4.240   1.482   0.846
  467SOL     OW 1897   4.074   1.656   0.666
  467SOL    HW2 1898   4.148   1.610   0.706
  467SOL    HW3 1899   4.058   1.609   0.584
  467SOL    MW4 1900   4.082   1.643   0.661
  468SOL     OW 1901   4.011   1.892   0.803
  468SOL    HW2 1902   4.020   1.817   0.744
  468SOL    HW3 1903   4.100   1.926   0.813
  468SOL    MW4 1904   4.024   1.886   0.797
  469SOL     OW 1905   4.261   2.001   0.834
  469SOL    HW2 1906   4.329   1.950   0.878
  469SOL    HW3 1907   4.288   2.003   0.742
  469SOL    MW4 1908   4.274   1.995   0.828
  470SOL     OW 1909   4.269   2.268   0.874
  470SOL    HW2 1910   4.196   2.296   0.819
  470SOL    HW3 1911   4.269   2.173   0.867
  470SOL    MW4 1912   4.260   2.259   0.866
  471SOL     OW 1913   4.068   2.403   0.736
  471SOL    HW2 1914   4.061   2.483   0.788
  471SOL    HW3 1915   3.980   2.388   0.702
  471SOL    MW4 1916   4.055   2.411   0.739
  472SOL     OW 1917   4.054   2.661   0.869
  472SOL    HW2 1918   4.131   2.709   0.839
  472SOL    HW3 1919   3.980   2.717   0.848
  472SOL    MW4 1920   4.054   2.674   0.862
  473SOL     OW 1921   4.262   2.811   0.779
  473SOL    HW2 1922   4.344   2.764   0.791
  473SOL    HW3 1923   4.246   2.808   0.685
  473SOL    MW4 1924   4.271   2.804   0.768
  474SOL     OW 1925   4.218   3.089   0.871
  474SOL    HW2 1926   4.210   2.998   0.842
  474SOL    HW3 1927   4.297   3.121   0.829
  474SOL    MW4 1928   4.227   3.081   0.862
  475SOL     OW 1929   4.024   3.251   0.704
  475SOL    HW2 1930   4.013   3.338   0.743
  475SOL    HW3 1931   4.076   3.202   0.767
  475SOL    MW4 1932   4.029   3.256   0.717
  476SOL     OW 1933   3.982   3.488   0.802
  476SOL    HW2 1934   3.973   3.476   0.896
  476SOL    HW3 1935   4.067   3.532   0.792
  476SOL    MW4 1936   3.992   3.492   0.813
  477SOL     OW 1937   4.241   3.606   0.819
  477SOL    HW2 1938   4.237   3.693   0.858
  477SOL    HW3 1939   4.256   3.622   0.726
  477SOL    MW4 1940   4.242   3.620   0.812
  478SOL     OW 1941   4.209   3.869   0.876
  478SOL    HW2 1942   4.235   3.865   0.968
  478SOL    HW3 1943   4.127   3.918   0.876
  478SOL    MW4 1944   4.202   3.875   0.888
  479SOL     OW 1945   3.954   3.984   0.808
  479SOL    HW2 1946   3.900   3.906   0.820
  479SOL    HW3 1947   3.971   3.988   0.713
  479SOL    MW4 1948   3.949   3.975   0.797
  480SOL     OW 1949   4.034   4.250   0.833
  480SOL    HW2 1950   4.118   4.247   0.788
  480SOL    HW3 1951   3.999   4.161   0.823
  480SOL    MW4 1952   4.040   4.238   0.825
  481SOL     OW 1953   4.395   4.476   0.653
  481SOL    HW2 1954   4.351   4.527   0.720
  481SOL    HW3 1955   4.457   4.421   0.700
  481SOL    MW4 1956   4.397   4.475   0.668
  482SOL     OW 1957   0.236   4.648   1.051
  482SOL    HW2 1958   0.281   4.717   1.099
  482SOL    HW3 1959   0.256   4.665   0.959
  482SOL    MW4 1960   0.244   4.659   1.045
  483SOL     OW 1961   0.025   0.094   1.213
  483SOL    HW2 1962  -0.054   0.041   1.205
  483SOL    HW3 1963   0.084   0.061   1.145
  483SOL    MW4 1964   0.023   0.083   1.203
  484SOL     OW 1965   0.019   0.360   1.189
  484SOL    HW2 1966  -0.070   0.390   1.210
  484SOL    HW3 1967   0.019   0.267   1.213
  484SOL    MW4 1968   0.007   0.352   1.195
  485SOL     OW 1969   0.252   0.504   1.217
  485SOL    HW2 1970   0.254   0.591   1.178
  485SOL    HW3 1971   0.169   0.467   1.188
  485SOL    MW4 1972   0.241   0.510   1.208
  486SOL     OW 1973   0.264   0.784   1.112
  486SOL    HW2 1974   0.331   0.847   1.139
  486SOL    HW3 1975   0.181   0.826   1.137
  486SOL    MW4 1976   0.262   0.798   1.119
  487SOL     OW 1977   0.006   0.890   1.209
  487SOL    HW2 1978   0.002   0.898   1.304
  487SOL    HW3 1979  -0.073   0.840   1.186
  487SOL    MW4 1980  -0.005   0.884   1.219
  488SOL     OW 1981   4.487   1.154   1.141
  488SOL    HW2 1982   4.415   1.199   1.185
  488SOL    HW3 1983   4.476   1.062   1.166
  488SOL    MW4 1984   4.476   1.148   1.150
  489SOL     OW 1985   0.214   1.302   1.194
  489SOL    HW2 1986   0.289   1.259   1.153
  489SOL    HW3 1987   0.140   1.247   1.171
  489SOL    MW4 1988   0.214   1.289   1.186
  490SOL     OW 1989   0.198   1.556   1.070
  490SOL    HW2 1990   0.214   1.471   1.112
  490SOL    HW3 1991   0.191   1.535   0.977
  490SOL    MW4 1992   0.199   1.542   1.063
  491SOL     OW 1993   4.472   1.665   1.212
  491SOL    HW2 1994   4.473   1.758   1.188
  491SOL    HW3 1995   4.547   1.627   1.165
  491SOL    MW4 1996   4.482   1.672   1.203
  492SOL     OW 1997   4.462   1.943   1.211
  492SOL    HW2 1998   4.381   1.988   1.233
  492SOL    HW3 1999   4.461   1.935   1.116
  492SOL    MW4 2000   4.451   1.948   1.201
  493SOL     OW 2001   0.245   2.022   1.245
  493SOL    HW2 2002   0.234   2.110   1.210
  493SOL    HW3 2003   0.156   1.986   1.246
  493SOL    MW4 2004   0.232   2.029   1.240
  494SOL     OW 2005   0.206   2.290   1.134
  494SOL    HW2 2006   0.278   2.336   1.177
  494SOL    HW3 2007   0.127   2.325   1.176
  494SOL    MW4 2008   0.205   2.301   1.145
  495SOL     OW 2009   4.471   2.398   1.263
  495SOL    HW2 2010   4.467   2.416   1.357
  495SOL    HW3 2011   4.382   2.372   1.239
  495SOL    MW4 2012   4.459   2.397   1.273
  496SOL     OW 2013   0.006   2.657   1.135
  496SOL    HW2 2014  -0.070   2.708   1.163
  496SOL    HW3 2015  -0.012   2.568   1.166
  496SOL    MW4 2016  -0.007   2.652   1.142
  497SOL     OW 2017   0.223   2.802   1.223
  497SOL    HW2 2018   0.219   2.803   1.318
  497SOL    HW3 2019   0.152   2.744   1.196
  497SOL    MW4 2020   0.213   2.795   1.232
  498SOL     OW 2021   0.225   3.075   1.113
  498SOL    HW2 2022   0.297   3.124   1.151
  498SOL    HW3 2023   0.234   2.987   1.150
  498SOL    MW4 2024   0.235   3.070   1.123
  499SOL     OW 2025   0.004   3.207   1.226
  499SOL    HW2 2026  -0.068   3.180   1.169
  499SOL    HW3 2027   0.082   3.166   1.188
  499SOL    MW4 2028   0.005   3.198   1.214
  500SOL     OW 2029   4.429   3.494   1.155
  500SOL    HW2 2030   4.445   3.415   1.207
  500SOL    HW3 2031   4.431   3.463   1.065
  500SOL    MW4 2032   4.431   3.479   1.150
  501SOL     OW 2033   0.185   3.645   1.203
  501SOL    HW2 2034   0.199   3.617   1.294
  501SOL    HW3 2035   0.104   3.603   1.176
  501SOL    MW4 2036   0.176   3.636   1.212
  502SOL     OW 2037   0.195   3.907   1.149
  502SOL    HW2 2038   0.109   3.945   1.167
  502SOL    HW3 2039   0.185   3.814   1.171
  502SOL    MW4 2040   0.182   3.900   1.154
  503SOL     OW 2041   4.479   4.045   1.214
  503SOL    HW2 2042   4.496   4.026   1.306
  503SOL    HW3 2043   4.398   3.997   1.195
  503SOL    MW4 2044   4.470   4.036   1.224
  504SOL     OW 2045   0.011   4.279   1.065
  504SOL    HW2 2046   0.062   4.338   1.121
  504SOL    HW3 2047   0.015   4.194   1.110
  504SOL    MW4 2048   0.018   4.275   1.079
  505SOL     OW 2049   0.189   4.429   1.226
  505SOL    HW2 2050   0.182   4.439   1.321
  505SOL    HW3 2051   0.216   4.515   1.194
  505SOL    MW4 2052   0.192   4.442   1.234
  506SOL     OW 2053   0.618   4.652   1.103
  506SOL    HW2 2054   0.704   4.683   1.133
  506SOL    HW3 2055   0.612   4.562   1.134
  506SOL    MW4 2056   0.629   4.644   1.111
  507SOL     OW 2057   0.404   0.133   1.220
  507SOL    HW2 2058   0.431   0.220   1.191
  507SOL    HW3 2059   0.480   0.077   1.202
  507SOL    MW4 2060   0.418   0.137   1.214
  508SOL     OW 2061   0.491   0.393   1.131
  508SOL    HW2 2062   0.411   0.443   1.144
  508SOL    HW3 2063   0.498   0.384   1.036
  508SOL    MW4 2064   0.481   0.398   1.120
  509SOL     OW 2065   0.712   0.514   1.245
  509SOL    HW2 2066   0.704   0.610   1.239
  509SOL    HW3 2067   0.637   0.481   1.195
  509SOL    MW4 2068   0.701   0.523   1.238
  510SOL     OW 2069   0.664   0.784   1.150
  510SOL    HW2 2070   0.586   0.829   1.181
  510SOL    HW3 2071   0.665   0.800   1.055
  510SOL    MW4 2072   0.654   0.792   1.141
  511SOL     OW 2073   0.459   0.935   1.234
  511SOL    HW2 2074   0.479   0.941   1.328
  511SOL    HW3 2075   0.437   1.024   1.208
  511SOL    MW4 2076   0.459   0.947   1.243
  512SOL     OW 2077   0.457   1.200   1.134
  512SOL    HW2 2078   0.510   1.276   1.160
  512SOL    HW3 2079   0.485   1.181   1.045
  512SOL    MW4 2080   0.468   1.208   1.126
  513SOL     OW 2081   0.647   1.387   1.210
  513SOL    HW2 2082   0.705   1.333   1.157
  513SOL    HW3 2083   0.648   1.472   1.168
  513SOL    MW4 2084   0.655   1.391   1.198
  514SOL     OW 2085   0.705   1.607   1.050
  514SOL    HW2 2086   0.766   1.643   1.115
  514SOL    HW3 2087   0.618   1.634   1.081
  514SOL    MW4 2088   0.701   1.616   1.063
  515SOL     OW 2089   0.458   1.628   1.188
  515SOL    HW2 2090   0.426   1.645   1.276
  515SOL    HW3 2091   0.379   1.620   1.135
  515SOL    MW4 2092   0.444   1.629   1.192
  516SOL     OW 2093   0.482   1.902   1.157
  516SOL    HW2 2094   0.473   1.811   1.183
  516SOL    HW3 2095   0.396   1.941   1.175
  516SOL    MW4 2096   0.469   1.895   1.163
  517SOL     OW 2097   0.694   2.085   1.239
  517SOL    HW2 2098   0.705   2.086   1.334
  517SOL    HW3 2099   0.618   2.029   1.224
  517SOL    MW4 2100   0.686   2.077   1.249
  518SOL     OW 2101   0.682   2.333   1.129
  518SOL    HW2 2102   0.597   2.362   1.162
  518SOL    HW3 2103   0.687   2.240   1.152
  518SOL    MW4 2104   0.672   2.325   1.136
  519SOL     OW 2105   0.437   2.420   1.228
  519SOL    HW2 2106   0.444   2.428   1.323
  519SOL    HW3 2107   0.439   2.510   1.197
  519SOL    MW4 2108   0.438   2.433   1.236
  520SOL     OW 2109   0.474   2.692   1.119
  520SOL    HW2 2110   0.391   2.734   1.142
  520SOL    HW3 2111   0.490   2.717   1.028
  520SOL    MW4 2112   0.465   2.701   1.110
  521SOL     OW 2113   0.700   2.827   1.232
  521SOL    HW2 2114   0.700   2.916   1.197
  521SOL    HW3 2115   0.613   2.792   1.209
  521SOL    MW4 2116   0.688   2.834   1.224
  522SOL     OW 2117   0.683   3.085   1.118
  522SOL    HW2 2118   0.760   3.133   1.146
  522SOL    HW3 2119   0.694   3.076   1.023
  522SOL    MW4 2120   0.695   3.090   1.109
  523SOL     OW 2121   0.454   3.188   1.217
  523SOL    HW2 2122   0.460   3.279   1.186
  523SOL    HW3 2123   0.536   3.147   1.190
  523SOL    MW4 2124   0.465   3.195   1.210
  524SOL     OW 2125   0.431   3.452   1.155
  524SOL    HW2 2126   0.511   3.493   1.189
  524SOL    HW3 2127   0.363   3.519   1.166
  524SOL    MW4 2128   0.433   3.467   1.161
  525SOL     OW 2129   0.634   3.623   1.252
  525SOL    HW2 2130   0.635   3.634   1.347
  525SOL    HW3 2131   0.609   3.709   1.218
  525SOL    MW4 2132   0.631   3.636   1.260
  526SOL     OW 2133   0.641   3.893   1.161
  526SOL    HW2 2134   0.561   3.942   1.182
  526SOL    HW3 2135   0.641   3.888   1.065
  526SOL    MW4 2136   0.630   3.899   1.151
  527SOL     OW 2137   0.428   4.034   1.246
  527SOL    HW2 2138   0.426   4.117   1.199
  527SOL    HW3 2139   0.350   3.987   1.215
  527SOL    MW4 2140   0.417   4.039   1.236
  528SOL     OW 2141   0.421   4.297   1.142
  528SOL    HW2 2142   0.493   4.343   1.186
  528SOL    HW3 2143   0.342   4.340   1.177
  528SOL    MW4 2144   0.420   4.309   1.153
  529SOL     OW 2145   0.644   4.417   1.268
  529SOL    HW2 2146   0.644   4.425   1.364
  529SOL    HW3 2147   0.718   4.361   1.249
  529SOL    MW4 2148   0.654   4.411   1.278
  530SOL     OW 2149   1.105   4.649   1.119
  530SOL    HW2 2150   1.102   4.555   1.136
  530SOL    HW3 2151   1.132   4.655   1.027
  530SOL    MW4 2152   1.108   4.637   1.109
  531SOL     OW 2153   0.865   0.115   1.199
  531SOL    HW2 2154   0.857   0.111   1.294
  531SOL    HW3 2155   0.948   0.071   1.180
  531SOL    MW4 2156   0.875   0.109   1.209
  532SOL     OW 2157   0.911   0.387   1.068
  532SOL    HW2 2158   0.923   0.301   1.108
  532SOL    HW3 2159   0.841   0.428   1.120
  532SOL    MW4 2160   0.903   0.381   1.080
  533SOL     OW 2161   1.119   0.528   1.187
  533SOL    HW2 2162   1.126   0.514   1.282
  533SOL    HW3 2163   1.051   0.466   1.159
  533SOL    MW4 2164   1.111   0.518   1.196
  534SOL     OW 2165   1.111   0.770   1.086
  534SOL    HW2 2166   1.026   0.795   1.121
  534SOL    HW3 2167   1.124   0.680   1.115
  534SOL    MW4 2168   1.102   0.762   1.094
  535SOL     OW 2169   0.890   0.934   1.214
  535SOL    HW2 2170   0.867   1.022   1.184
  535SOL    HW3 2171   0.814   0.881   1.191
  535SOL    MW4 2172   0.877   0.939   1.207
  536SOL     OW 2173   0.846   1.207   1.069
  536SOL    HW2 2174   0.920   1.249   1.113
  536SOL    HW3 2175   0.875   1.199   0.978
  536SOL    MW4 2176   0.860   1.212   1.063
  537SOL     OW 2177   1.090   1.275   1.198
  537SOL    HW2 2178   1.101   1.260   1.292
  537SOL    HW3 2179   1.167   1.233   1.158
  537SOL    MW4 2180   1.102   1.267   1.205
  538SOL     OW 2181   1.150   1.551   1.108
  538SOL    HW2 2182   1.124   1.471   1.152
  538SOL    HW3 2183   1.152   1.528   1.015
  538SOL    MW4 2184   1.147   1.538   1.101
  539SOL     OW 2185   0.910   1.692   1.217
  539SOL    HW2 2186   0.908   1.786   1.201
  539SOL    HW3 2187   0.989   1.662   1.173
  539SOL    MW4 2188   0.920   1.700   1.209
  540SOL     OW 2189   0.923   1.963   1.150
  540SOL    HW2 2190   1.001   1.999   1.193
  540SOL    HW3 2191   0.850   2.008   1.192
  540SOL    MW4 2192   0.924   1.974   1.161
  541SOL     OW 2193   1.151   2.083   1.241
  541SOL    HW2 2194   1.137   2.083   1.335
  541SOL    HW3 2195   1.153   2.175   1.216
  541SOL    MW4 2196   1.149   2.095   1.250
  542SOL     OW 2197   1.154   2.363   1.139
  542SOL    HW2 2198   1.227   2.422   1.160
  542SOL    HW3 2199   1.079   2.400   1.186
  542SOL    MW4 2200   1.154   2.376   1.148
  543SOL     OW 2201   0.924   2.444   1.258
  543SOL    HW2 2202   0.934   2.437   1.353
  543SOL    HW3 2203   0.854   2.384   1.236
  543SOL    MW4 2204   0.916   2.435   1.268
  544SOL     OW 2205   0.930   2.678   1.117
  544SOL    HW2 2206   0.936   2.592   1.159
  544SOL    HW3 2207   0.866   2.726   1.170
  544SOL    MW4 2208   0.923   2.673   1.130
  545SOL     OW 2209   1.126   2.863   1.196
  545SOL    HW2 2210   1.135   2.850   1.290
  545SOL    HW3 2211   1.064   2.795   1.169
  545SOL    MW4 2212   1.119   2.852   1.205
  546SOL     OW 2213   1.125   3.115   1.084
  546SOL    HW2 2214   1.112   3.028   1.123
  546SOL    HW3 2215   1.154   3.097   0.994
  546SOL    MW4 2216   1.127   3.101   1.077
  547SOL     OW 2217   0.888   3.243   1.170
  547SOL    HW2 2218   0.865   3.334   1.157
  547SOL    HW3 2219   0.965   3.229   1.113
  547SOL    MW4 2220   0.895   3.253   1.161
  548SOL     OW 2221   0.869   3.525   1.132
  548SOL    HW2 2222   0.787   3.566   1.161
  548SOL    HW3 2223   0.859   3.516   1.037
  548SOL    MW4 2224   0.857   3.529   1.123
  549SOL     OW 2225   1.118   3.617   1.216
  549SOL    HW2 2226   1.185   3.577   1.160
  549SOL    HW3 2227   1.035   3.586   1.181
  549SOL    MW4 2228   1.116   3.608   1.204
  550SOL     OW 2229   1.111   3.879   1.176
  550SOL    HW2 2230   1.028   3.910   1.213
  550SOL    HW3 2231   1.113   3.785   1.198
  550SOL    MW4 2232   1.100   3.870   1.184
  551SOL     OW 2233   0.873   4.000   1.250
  551SOL    HW2 2234   0.858   4.011   1.344
  551SOL    HW3 2235   0.794   3.956   1.218
  551SOL    MW4 2236   0.861   3.995   1.259
  552SOL     OW 2237   0.836   4.260   1.164
  552SOL    HW2 2238   0.849   4.166   1.179
  552SOL    HW3 2239   0.838   4.269   1.069
  552SOL    MW4 2240   0.838   4.249   1.154
  553SOL     OW 2241   1.095   4.370   1.213
  553SOL    HW2 2242   1.097   4.380   1.308
  553SOL    HW3 2243   1.014   4.322   1.196
  553SOL    MW4 2244   1.085   4.365   1.223
  554SOL     OW 2245   1.553   4.633   1.097
  554SOL    HW2 2246   1.623   4.678   1.144
  554SOL    HW3 2247   1.560   4.541   1.125
  554SOL    MW4 2248   1.564   4.627   1.107
  555SOL     OW 2249   1.336   0.101   1.243
  555SOL    HW2 2250   1.399   0.053   1.190
  555SOL    HW3 2251   1.251   0.061   1.223
  555SOL    MW4 2252   1.333   0.089   1.233
  556SOL     OW 2253   1.352   0.363   1.133
  556SOL    HW2 2254   1.325   0.287   1.184
  556SOL    HW3 2255   1.282   0.427   1.145
  556SOL    MW4 2256   1.339   0.362   1.141
  557SOL     OW 2257   1.561   0.506   1.235
  557SOL    HW2 2258   1.559   0.582   1.178
  557SOL    HW3 2259   1.479   0.460   1.218
  557SOL    MW4 2260   1.550   0.510   1.225
  558SOL     OW 2261   1.527   0.743   1.104
  558SOL    HW2 2262   1.604   0.784   1.145
  558SOL    HW3 2263   1.538   0.759   1.011
  558SOL    MW4 2264   1.539   0.750   1.097
  559SOL     OW 2265   1.334   0.899   1.217
  559SOL    HW2 2266   1.406   0.849   1.179
  559SOL    HW3 2267   1.255   0.852   1.189
  559SOL    MW4 2268   1.333   0.886   1.208
  560SOL     OW 2269   1.333   1.174   1.112
  560SOL    HW2 2270   1.331   1.087   1.152
  560SOL    HW3 2271   1.362   1.159   1.022
  560SOL    MW4 2272   1.336   1.161   1.105
  561SOL     OW 2273   1.563   1.304   1.190
  561SOL    HW2 2274   1.635   1.242   1.179
  561SOL    HW3 2275   1.484   1.253   1.174
  561SOL    MW4 2276   1.562   1.289   1.186
  562SOL     OW 2277   1.601   1.568   1.116
  562SOL    HW2 2278   1.657   1.592   1.190
  562SOL    HW3 2279   1.575   1.478   1.136
  562SOL    MW4 2280   1.605   1.559   1.129
  563SOL     OW 2281   1.371   1.671   1.240
  563SOL    HW2 2282   1.455   1.641   1.205
  563SOL    HW3 2283   1.305   1.622   1.189
  563SOL    MW4 2284   1.373   1.661   1.228
  564SOL     OW 2285   1.357   1.939   1.168
  564SOL    HW2 2286   1.353   1.853   1.210
  564SOL    HW3 2287   1.276   1.982   1.194
  564SOL    MW4 2288   1.346   1.933   1.177
  565SOL     OW 2289   1.586   2.067   1.241
  565SOL    HW2 2290   1.581   2.157   1.208
  565SOL    HW3 2291   1.509   2.024   1.204
  565SOL    MW4 2292   1.575   2.073   1.231
  566SOL     OW 2293   1.571   2.343   1.148
  566SOL    HW2 2294   1.503   2.398   1.187
  566SOL    HW3 2295   1.542   2.329   1.058
  566SOL    MW4 2296   1.558   2.348   1.141
  567SOL     OW 2297   1.368   2.508   1.255
  567SOL    HW2 2298   1.361   2.518   1.350
  567SOL    HW3 2299   1.397   2.594   1.224
  567SOL    MW4 2300   1.371   2.521   1.263
  568SOL     OW 2301   1.389   2.762   1.126
  568SOL    HW2 2302   1.456   2.819   1.164
  568SOL    HW3 2303   1.306   2.798   1.156
  568SOL    MW4 2304   1.387   2.774   1.135
  569SOL     OW 2305   1.611   2.900   1.231
  569SOL    HW2 2306   1.674   2.839   1.192
  569SOL    HW3 2307   1.613   2.977   1.174
  569SOL    MW4 2308   1.620   2.903   1.218
  570SOL     OW 2309   1.616   3.130   1.086
  570SOL    HW2 2310   1.678   3.173   1.144
  570SOL    HW3 2311   1.530   3.153   1.121
  570SOL    MW4 2312   1.612   3.139   1.098
  571SOL     OW 2313   1.368   3.211   1.198
  571SOL    HW2 2314   1.369   3.206   1.294
  571SOL    HW3 2315   1.280   3.181   1.174
  571SOL    MW4 2316   1.356   3.206   1.208
  572SOL     OW 2317   1.362   3.478   1.132
  572SOL    HW2 2318   1.355   3.388   1.163
  572SOL    HW3 2319   1.332   3.474   1.041
  572SOL    MW4 2320   1.357   3.466   1.124
  573SOL     OW 2321   1.559   3.603   1.258
  573SOL    HW2 2322   1.568   3.693   1.227
  573SOL    HW3 2323   1.477   3.572   1.220
  573SOL    MW4 2324   1.550   3.611   1.249
  574SOL     OW 2325   1.559   3.840   1.122
  574SOL    HW2 2326   1.488   3.895   1.155
  574SOL    HW3 2327   1.536   3.822   1.031
  574SOL    MW4 2328   1.547   3.845   1.115
  575SOL     OW 2329   1.363   3.983   1.231
  575SOL    HW2 2330   1.369   4.074   1.201
  575SOL    HW3 2331   1.278   3.952   1.198
  575SOL    MW4 2332   1.353   3.991   1.222
  576SOL     OW 2333   1.332   4.246   1.108
  576SOL    HW2 2334   1.253   4.298   1.123
  576SOL    HW3 2335   1.350   4.255   1.015
  576SOL    MW4 2336   1.324   4.254   1.098
  577SOL     OW 2337   1.571   4.361   1.191
  577SOL    HW2 2338   1.561   4.364   1.286
  577SOL    HW3 2339   1.492   4.318   1.160
  577SOL    MW4 2340   1.559   4.356   1.200
  578SOL     OW 2341   1.995   0.045   1.096
  578SOL    HW2 2342   1.996  -0.047   1.124
  578SOL    HW3 2343   1.974   0.041   1.002
  578SOL    MW4 2344   1.992   0.032   1.087
  579SOL     OW 2345   1.751   0.110   1.227
  579SOL    HW2 2346   1.748   0.201   1.198
  579SOL    HW3 2347   1.836   0.078   1.198
  579SOL    MW4 2348   1.762   0.118   1.219
  580SOL     OW 2349   1.777   0.369   1.140
  580SOL    HW2 2350   1.702   0.421   1.167
  580SOL    HW3 2351   1.777   0.373   1.044
  580SOL    MW4 2352   1.767   0.376   1.131
  581SOL     OW 2353   2.031   0.476   1.223
  581SOL    HW2 2354   2.044   0.464   1.317
  581SOL    HW3 2355   1.946   0.437   1.206
  581SOL    MW4 2356   2.021   0.469   1.233
  582SOL     OW 2357   2.008   0.759   1.183
  582SOL    HW2 2358   2.025   0.670   1.214
  582SOL    HW3 2359   2.013   0.752   1.087
  582SOL    MW4 2360   2.011   0.746   1.174
  583SOL     OW 2361   1.747   0.852   1.235
  583SOL    HW2 2362   1.765   0.866   1.328
  583SOL    HW3 2363   1.825   0.808   1.201
  583SOL    MW4 2364   1.759   0.848   1.242
  584SOL     OW 2365   1.784   1.131   1.172
  584SOL    HW2 2366   1.787   1.039   1.198
  584SOL    HW3 2367   1.805   1.131   1.079
  584SOL    MW4 2368   1.787   1.119   1.163
  585SOL     OW 2369   2.014   1.265   1.265
  585SOL    HW2 2370   2.090   1.220   1.229
  585SOL    HW3 2371   1.939   1.212   1.237
  585SOL    MW4 2372   2.014   1.252   1.256
  586SOL     OW 2373   1.982   1.534   1.162
  586SOL    HW2 2374   2.007   1.449   1.197
  586SOL    HW3 2375   1.990   1.525   1.067
  586SOL    MW4 2376   1.987   1.522   1.154
  587SOL     OW 2377   1.781   1.641   1.299
  587SOL    HW2 2378   1.786   1.725   1.252
  587SOL    HW3 2379   1.845   1.585   1.256
  587SOL    MW4 2380   1.790   1.645   1.287
  588SOL     OW 2381   1.781   1.883   1.151
  588SOL    HW2 2382   1.706   1.933   1.183
  588SOL    HW3 2383   1.777   1.892   1.056
  588SOL    MW4 2384   1.770   1.891   1.143
  589SOL     OW 2385   1.975   2.069   1.233
  589SOL    HW2 2386   1.994   2.047   1.324
  589SOL    HW3 2387   1.894   2.022   1.213
  589SOL    MW4 2388   1.967   2.060   1.243
  590SOL     OW 2389   2.016   2.335   1.153
  590SOL    HW2 2390   2.091   2.368   1.201
  590SOL    HW3 2391   1.998   2.249   1.191
  590SOL    MW4 2392   2.023   2.328   1.164
  591SOL     OW 2393   1.806   2.472   1.241
  591SOL    HW2 2394   1.875   2.415   1.208
  591SOL    HW3 2395   1.725   2.425   1.220
  591SOL    MW4 2396   1.804   2.458   1.234
  592SOL     OW 2397   1.808   2.724   1.107
  592SOL    HW2 2398   1.794   2.635   1.138
  592SOL    HW3 2399   1.794   2.720   1.013
  592SOL    MW4 2400   1.805   2.712   1.099
  593SOL     OW 2401   2.038   2.817   1.225
  593SOL    HW2 2402   2.046   2.911   1.210
  593SOL    HW3 2403   1.957   2.792   1.182
  593SOL    MW4 2404   2.029   2.826   1.218
  594SOL     OW 2405   2.034   3.088   1.173
  594SOL    HW2 2406   1.960   3.140   1.203
  594SOL    HW3 2407   2.023   3.084   1.078
  594SOL    MW4 2408   2.023   3.094   1.164
  595SOL     OW 2409   1.831   3.250   1.264
  595SOL    HW2 2410   1.808   3.266   1.355
  595SOL    HW3 2411   1.819   3.334   1.220
  595SOL    MW4 2412   1.826   3.263   1.270
  596SOL     OW 2413   1.780   3.501   1.125
  596SOL    HW2 2414   1.854   3.552   1.160
  596SOL    HW3 2415   1.703   3.538   1.167
  596SOL    MW4 2416   1.780   3.512   1.135
  597SOL     OW 2417   2.003   3.659   1.211
  597SOL    HW2 2418   2.007   3.660   1.306
  597SOL    HW3 2419   2.067   3.593   1.184
  597SOL    MW4 2420   2.012   3.651   1.220
  598SOL     OW 2421   1.990   3.912   1.101
  598SOL    HW2 2422   1.905   3.956   1.110
  598SOL    HW3 2423   1.972   3.821   1.124
  598SOL    MW4 2424   1.976   3.906   1.105
  599SOL     OW 2425   1.756   4.035   1.153
  599SOL    HW2 2426   1.771   4.034   1.247
  599SOL    HW3 2427   1.689   3.969   1.138
  599SOL    MW4 2428   1.749   4.026   1.163
  600SOL     OW 2429   1.789   4.275   1.040
  600SOL    HW2 2430   1.785   4.188   1.080
  600SOL    HW3 2431   1.718   4.324   1.083
  600SOL    MW4 2432   1.779   4.270   1.051
  601SOL     OW 2433   1.981   4.452   1.174
  601SOL    HW2 2434   1.985   4.408   1.259
  601SOL    HW3 2435   1.923   4.396   1.121
  601SOL    MW4 2436   1.974   4.439   1.178
  602SOL     OW 2437   2.496   4.651   1.092
  602SOL    HW2 2438   2.570   4.688   1.140
  602SOL    HW3 2439   2.423   4.710   1.111
  602SOL    MW4 2440   2.496   4.664   1.101
  603SOL     OW 2441   2.267   0.119   1.165
  603SOL    HW2 2442   2.266   0.209   1.131
  603SOL    HW3 2443   2.184   0.081   1.134
  603SOL    MW4 2444   2.256   0.126   1.156
  604SOL     OW 2445   2.248   0.398   1.088
  604SOL    HW2 2446   2.161   0.418   1.121
  604SOL    HW3 2447   2.242   0.410   0.994
  604SOL    MW4 2448   2.236   0.402   1.080
  605SOL     OW 2449   2.491   0.520   1.179
  605SOL    HW2 2450   2.503   0.511   1.274
  605SOL    HW3 2451   2.415   0.465   1.160
  605SOL    MW4 2452   2.482   0.512   1.189
  606SOL     OW 2453   2.455   0.797   1.129
  606SOL    HW2 2454   2.471   0.702   1.127
  606SOL    HW3 2455   2.422   0.817   1.042
  606SOL    MW4 2456   2.453   0.787   1.117
  607SOL     OW 2457   2.229   0.893   1.251
  607SOL    HW2 2458   2.292   0.835   1.209
  607SOL    HW3 2459   2.145   0.849   1.240
  607SOL    MW4 2460   2.226   0.879   1.244
  608SOL     OW 2461   2.237   1.154   1.144
  608SOL    HW2 2462   2.308   1.199   1.190
  608SOL    HW3 2463   2.244   1.063   1.171
  608SOL    MW4 2464   2.247   1.148   1.154
  609SOL     OW 2465   2.466   1.268   1.290
  609SOL    HW2 2466   2.542   1.217   1.259
  609SOL    HW3 2467   2.463   1.343   1.231
  609SOL    MW4 2468   2.476   1.271   1.278
  610SOL     OW 2469   2.459   1.515   1.108
  610SOL    HW2 2470   2.380   1.563   1.133
  610SOL    HW3 2471   2.468   1.531   1.014
  610SOL    MW4 2472   2.449   1.523   1.099
  611SOL     OW 2473   2.230   1.672   1.199
  611SOL    HW2 2474   2.222   1.767   1.192
  611SOL    HW3 2475   2.143   1.639   1.178
  611SOL    MW4 2476   2.218   1.680   1.195
  612SOL     OW 2477   2.222   1.964   1.169
  612SOL    HW2 2478   2.143   2.010   1.197
  612SOL    HW3 2479   2.221   1.971   1.073
  612SOL    MW4 2480   2.211   1.971   1.160
  613SOL     OW 2481   2.478   2.030   1.267
  613SOL    HW2 2482   2.544   1.968   1.235
  613SOL    HW3 2483   2.394   1.990   1.243
  613SOL    MW4 2484   2.476   2.016   1.260
  614SOL     OW 2485   2.449   2.289   1.162
  614SOL    HW2 2486   2.465   2.199   1.190
  614SOL    HW3 2487   2.435   2.282   1.067
  614SOL    MW4 2488   2.449   2.276   1.153
  615SOL     OW 2489   2.240   2.435   1.273
  615SOL    HW2 2490   2.251   2.433   1.368
  615SOL    HW3 2491   2.311   2.381   1.240
  615SOL    MW4 2492   2.251   2.427   1.281
  616SOL     OW 2493   2.250   2.650   1.114
  616SOL    HW2 2494   2.256   2.577   1.176
  616SOL    HW3 2495   2.183   2.708   1.151
  616SOL    MW4 2496   2.242   2.648   1.127
  617SOL     OW 2497   2.465   2.768   1.248
  617SOL    HW2 2498   2.433   2.760   1.338
  617SOL    HW3 2499   2.394   2.731   1.195
  617SOL    MW4 2500   2.451   2.762   1.253
  618SOL     OW 2501   2.486   3.050   1.144
  618SOL    HW2 2502   2.411   3.107   1.158
  618SOL    HW3 2503   2.468   2.972   1.196
  618SOL    MW4 2504   2.474   3.048   1.153
  619SOL     OW 2505   2.261   3.239   1.189
  619SOL    HW2 2506   2.247   3.326   1.151
  619SOL    HW3 2507   2.176   3.195   1.180
  619SOL    MW4 2508   2.248   3.245   1.183
  620SOL     OW 2509   2.211   3.496   1.085
  620SOL    HW2 2510   2.295   3.536   1.109
  620SOL    HW3 2511   2.215   3.488   0.990
  620SOL    MW4 2512   2.223   3.500   1.076
  621SOL     OW 2513   2.448   3.601   1.162
  621SOL    HW2 2514   2.445   3.596   1.257
  621SOL    HW3 2515   2.457   3.695   1.143
  621SOL    MW4 2516   2.449   3.613   1.172
  622SOL     OW 2517   2.440   3.874   1.097
  622SOL    HW2 2518   2.362   3.918   1.133
  622SOL    HW3 2519   2.422   3.867   1.003
  622SOL    MW4 2520   2.427   3.879   1.089
  623SOL     OW 2521   2.213   4.020   1.243
  623SOL    HW2 2522   2.209   4.114   1.223
  623SOL    HW3 2523   2.134   3.984   1.204
  623SOL    MW4 2524   2.202   4.028   1.235
  624SOL     OW 2525   2.214   4.287   1.131
  624SOL    HW2 2526   2.139   4.346   1.133
  624SOL    HW3 2527   2.232   4.274   1.038
  624SOL    MW4 2528   2.206   4.293   1.119
  625SOL     OW 2529   2.462   4.387   1.174
  625SOL    HW2 2530   2.375   4.347   1.171
  625SOL    HW3 2531   2.448   4.478   1.150
  625SOL    MW4 2532   2.449   4.394   1.171
  626SOL     OW 2533   2.924   0.009   1.126
  626SOL    HW2 2534   2.885  -0.076   1.147
  626SOL    HW3 2535   2.920   0.015   1.031
  626SOL    MW4 2536   2.919  -0.001   1.116
  627SOL     OW 2537   2.677   0.113   1.245
  627SOL    HW2 2538   2.681   0.116   1.340
  627SOL    HW3 2539   2.762   0.078   1.218
  627SOL    MW4 2540   2.689   0.109   1.254
  628SOL     OW 2541   2.694   0.353   1.090
  628SOL    HW2 2542   2.705   0.275   1.143
  628SOL    HW3 2543   2.622   0.401   1.130
  628SOL    MW4 2544   2.686   0.349   1.102
  629SOL     OW 2545   2.923   0.494   1.196
  629SOL    HW2 2546   2.926   0.586   1.171
  629SOL    HW3 2547   2.839   0.462   1.161
  629SOL    MW4 2548   2.912   0.502   1.188
  630SOL     OW 2549   2.920   0.751   1.089
  630SOL    HW2 2550   2.995   0.788   1.135
  630SOL    HW3 2551   2.844   0.783   1.137
  630SOL    MW4 2552   2.920   0.760   1.102
  631SOL     OW 2553   2.719   0.885   1.229
  631SOL    HW2 2554   2.723   0.978   1.207
  631SOL    HW3 2555   2.630   0.859   1.206
  631SOL    MW4 2556   2.708   0.894   1.223
  632SOL     OW 2557   2.686   1.148   1.175
  632SOL    HW2 2558   2.767   1.181   1.213
  632SOL    HW3 2559   2.700   1.155   1.081
  632SOL    MW4 2560   2.699   1.153   1.168
  633SOL     OW 2561   2.950   1.247   1.239
  633SOL    HW2 2562   2.949   1.247   1.335
  633SOL    HW3 2563   2.929   1.337   1.215
  633SOL    MW4 2564   2.947   1.259   1.248
  634SOL     OW 2565   2.898   1.495   1.142
  634SOL    HW2 2566   2.980   1.543   1.143
  634SOL    HW3 2567   2.880   1.480   1.049
  634SOL    MW4 2568   2.906   1.499   1.130
  635SOL     OW 2569   2.695   1.649   1.221
  635SOL    HW2 2570   2.767   1.607   1.173
  635SOL    HW3 2571   2.618   1.599   1.197
  635SOL    MW4 2572   2.695   1.637   1.211
  636SOL     OW 2573   2.670   1.902   1.108
  636SOL    HW2 2574   2.750   1.949   1.129
  636SOL    HW3 2575   2.682   1.815   1.146
  636SOL    MW4 2576   2.682   1.896   1.116
  637SOL     OW 2577   2.899   2.048   1.155
  637SOL    HW2 2578   2.920   2.066   1.247
  637SOL    HW3 2579   2.886   2.135   1.117
  637SOL    MW4 2580   2.900   2.062   1.162
  638SOL     OW 2581   2.883   2.321   1.049
  638SOL    HW2 2582   2.967   2.339   1.092
  638SOL    HW3 2583   2.817   2.354   1.111
  638SOL    MW4 2584   2.885   2.328   1.063
  639SOL     OW 2585   2.697   2.421   1.222
  639SOL    HW2 2586   2.690   2.421   1.317
  639SOL    HW3 2587   2.626   2.363   1.193
  639SOL    MW4 2588   2.686   2.413   1.230
  640SOL     OW 2589   2.636   2.655   1.090
  640SOL    HW2 2590   2.667   2.571   1.123
  640SOL    HW3 2591   2.572   2.684   1.155
  640SOL    MW4 2592   2.631   2.648   1.103
  641SOL     OW 2593   2.888   2.814   1.180
  641SOL    HW2 2594   2.894   2.831   1.274
  641SOL    HW3 2595   2.795   2.794   1.166
  641SOL    MW4 2596   2.876   2.814   1.191
  642SOL     OW 2597   2.910   3.092   1.103
  642SOL    HW2 2598   2.910   3.001   1.132
  642SOL    HW3 2599   2.927   3.087   1.008
  642SOL    MW4 2600   2.912   3.080   1.094
  643SOL     OW 2601   2.697   3.207   1.221
  643SOL    HW2 2602   2.776   3.167   1.186
  643SOL    HW3 2603   2.626   3.147   1.195
  643SOL    MW4 2604   2.698   3.193   1.213
  644SOL     OW 2605   2.688   3.445   1.063
  644SOL    HW2 2606   2.703   3.360   1.106
  644SOL    HW3 2607   2.613   3.483   1.109
  644SOL    MW4 2608   2.680   3.439   1.075
  645SOL     OW 2609   2.880   3.601   1.182
  645SOL    HW2 2610   2.964   3.561   1.156
  645SOL    HW3 2611   2.814   3.544   1.143
  645SOL    MW4 2612   2.883   3.588   1.173
  646SOL     OW 2613   2.900   3.861   1.074
  646SOL    HW2 2614   2.984   3.891   1.110
  646SOL    HW3 2615   2.887   3.774   1.111
  646SOL    MW4 2616   2.909   3.854   1.083
  647SOL     OW 2617   2.676   4.011   1.177
  647SOL    HW2 2618   2.750   3.958   1.149
  647SOL    HW3 2619   2.600   3.953   1.169
  647SOL    MW4 2620   2.675   3.997   1.172
  648SOL     OW 2621   2.687   4.260   1.062
  648SOL    HW2 2622   2.679   4.171   1.096
  648SOL    HW3 2623   2.601   4.299   1.079
  648SOL    MW4 2624   2.674   4.253   1.069
  649SOL     OW 2625   2.864   4.411   1.184
  649SOL    HW2 2626   2.947   4.375   1.153
  649SOL    HW3 2627   2.798   4.371   1.126
  649SOL    MW4 2628   2.866   4.401   1.172
  650SOL     OW 2629   3.402   4.619   1.098
  650SOL    HW2 2630   3.479   4.670   1.124
  650SOL    HW3 2631   3.327   4.674   1.124
  650SOL    MW4 2632   3.402   4.633   1.105
  651SOL     OW 2633   3.191   0.086   1.201
  651SOL    HW2 2634   3.194   0.086   1.296
  651SOL    HW3 2635   3.104   0.051   1.180
  651SOL    MW4 2636   3.180   0.081   1.210
  652SOL     OW 2637   3.158   0.351   1.080
  652SOL    HW2 2638   3.172   0.261   1.108
  652SOL    HW3 2639   3.085   0.382   1.134
  652SOL    MW4 2640   3.150   0.343   1.091
  653SOL     OW 2641   3.424   0.444   1.231
  653SOL    HW2 2642   3.433   0.538   1.221
  653SOL    HW3 2643   3.338   0.424   1.195
  653SOL    MW4 2644   3.414   0.453   1.225
  654SOL     OW 2645   3.376   0.734   1.172
  654SOL    HW2 2646   3.293   0.775   1.198
  654SOL    HW3 2647   3.385   0.756   1.079
  654SOL    MW4 2648   3.366   0.742   1.163
  655SOL     OW 2649   3.130   0.869   1.246
  655SOL    HW2 2650   3.151   0.861   1.339
  655SOL    HW3 2651   3.139   0.963   1.228
  655SOL    MW4 2652   3.134   0.880   1.256
  656SOL     OW 2653   3.164   1.104   1.110
  656SOL    HW2 2654   3.237   1.140   1.161
  656SOL    HW3 2655   3.092   1.166   1.125
  656SOL    MW4 2656   3.164   1.117   1.119
  657SOL     OW 2657   3.369   1.263   1.223
  657SOL    HW2 2658   3.381   1.272   1.318
  657SOL    HW3 2659   3.367   1.352   1.190
  657SOL    MW4 2660   3.370   1.276   1.232
  658SOL     OW 2661   3.372   1.519   1.088
  658SOL    HW2 2662   3.452   1.564   1.116
  658SOL    HW3 2663   3.302   1.564   1.135
  658SOL    MW4 2664   3.374   1.531   1.098
  659SOL     OW 2665   3.138   1.634   1.195
  659SOL    HW2 2666   3.142   1.642   1.290
  659SOL    HW3 2667   3.149   1.723   1.163
  659SOL    MW4 2668   3.140   1.647   1.203
  660SOL     OW 2669   3.137   1.892   1.120
  660SOL    HW2 2670   3.206   1.940   1.166
  660SOL    HW3 2671   3.056   1.939   1.144
  660SOL    MW4 2672   3.135   1.905   1.129
  661SOL     OW 2673   3.379   2.003   1.235
  661SOL    HW2 2674   3.462   1.975   1.195
  661SOL    HW3 2675   3.370   2.094   1.207
  661SOL    MW4 2676   3.389   2.012   1.226
  662SOL     OW 2677   3.320   2.257   1.117
  662SOL    HW2 2678   3.389   2.318   1.143
  662SOL    HW3 2679   3.239   2.299   1.144
  662SOL    MW4 2680   3.319   2.270   1.124
  663SOL     OW 2681   3.088   2.418   1.195
  663SOL    HW2 2682   3.070   2.421   1.288
  663SOL    HW3 2683   3.111   2.508   1.171
  663SOL    MW4 2684   3.089   2.430   1.204
  664SOL     OW 2685   3.144   2.693   1.107
  664SOL    HW2 2686   3.061   2.737   1.128
  664SOL    HW3 2687   3.150   2.699   1.012
  664SOL    MW4 2688   3.134   2.700   1.097
  665SOL     OW 2689   3.348   2.863   1.217
  665SOL    HW2 2690   3.338   2.951   1.180
  665SOL    HW3 2691   3.279   2.811   1.175
  665SOL    MW4 2692   3.337   2.868   1.207
  666SOL     OW 2693   3.330   3.094   1.060
  666SOL    HW2 2694   3.416   3.119   1.092
  666SOL    HW3 2695   3.268   3.140   1.118
  666SOL    MW4 2696   3.333   3.103   1.072
  667SOL     OW 2697   3.146   3.230   1.208
  667SOL    HW2 2698   3.147   3.320   1.176
  667SOL    HW3 2699   3.069   3.190   1.168
  667SOL    MW4 2700   3.136   3.236   1.199
  668SOL     OW 2701   3.133   3.477   1.088
  668SOL    HW2 2702   3.202   3.536   1.117
  668SOL    HW3 2703   3.131   3.487   0.993
  668SOL    MW4 2704   3.142   3.486   1.079
  669SOL     OW 2705   3.321   3.634   1.182
  669SOL    HW2 2706   3.299   3.634   1.275
  669SOL    HW3 2707   3.403   3.584   1.176
  669SOL    MW4 2708   3.329   3.627   1.193
  670SOL     OW 2709   3.351   3.909   1.034
  670SOL    HW2 2710   3.281   3.962   1.071
  670SOL    HW3 2711   3.328   3.819   1.058
  670SOL    MW4 2712   3.339   3.904   1.042
  671SOL     OW 2713   3.112   4.000   1.164
  671SOL    HW2 2714   3.131   3.997   1.258
  671SOL    HW3 2715   3.090   4.091   1.147
  671SOL    MW4 2716   3.111   4.011   1.174
  672SOL     OW 2717   3.080   4.276   1.084
  672SOL    HW2 2718   3.149   4.313   1.139
  672SOL    HW3 2719   3.120   4.266   0.998
  672SOL    MW4 2720   3.094   4.279   1.080
  673SOL     OW 2721   3.325   4.380   1.207
  673SOL    HW2 2722   3.402   4.332   1.177
  673SOL    HW3 2723   3.343   4.471   1.184
  673SOL    MW4 2724   3.338   4.386   1.200
  674SOL     OW 2725   3.847   4.621   1.154
  674SOL    HW2 2726   3.839   4.529   1.178
  674SOL    HW3 2727   3.845   4.622   1.059
  674SOL    MW4 2728   3.845   4.609   1.145
  675SOL     OW 2729   3.619   0.090   1.236
  675SOL    HW2 2730   3.632   0.174   1.192
  675SOL    HW3 2731   3.689   0.034   1.202
  675SOL    MW4 2732   3.630   0.094   1.225
  676SOL     OW 2733   3.624   0.325   1.101
  676SOL    HW2 2734   3.689   0.380   1.144
  676SOL    HW3 2735   3.541   0.352   1.139
  676SOL    MW4 2736   3.622   0.336   1.112
  677SOL     OW 2737   3.812   0.451   1.254
  677SOL    HW2 2738   3.891   0.413   1.217
  677SOL    HW3 2739   3.809   0.540   1.218
  677SOL    MW4 2740   3.822   0.458   1.244
  678SOL     OW 2741   3.803   0.711   1.116
  678SOL    HW2 2742   3.889   0.734   1.152
  678SOL    HW3 2743   3.743   0.774   1.155
  678SOL    MW4 2744   3.807   0.722   1.126
  679SOL     OW 2745   3.615   0.855   1.224
  679SOL    HW2 2746   3.608   0.946   1.193
  679SOL    HW3 2747   3.526   0.820   1.213
  679SOL    MW4 2748   3.602   0.863   1.219
  680SOL     OW 2749   3.580   1.129   1.114
  680SOL    HW2 2750   3.655   1.180   1.146
  680SOL    HW3 2751   3.504   1.169   1.156
  680SOL    MW4 2752   3.580   1.141   1.124
  681SOL     OW 2753   3.818   1.244   1.188
  681SOL    HW2 2754   3.826   1.271   1.279
  681SOL    HW3 2755   3.836   1.323   1.138
  681SOL    MW4 2756   3.822   1.258   1.194
  682SOL     OW 2757   3.824   1.530   1.090
  682SOL    HW2 2758   3.909   1.549   1.131
  682SOL    HW3 2759   3.840   1.544   0.996
  682SOL    MW4 2760   3.838   1.534   1.083
  683SOL     OW 2761   3.604   1.650   1.200
  683SOL    HW2 2762   3.619   1.739   1.168
  683SOL    HW3 2763   3.681   1.600   1.172
  683SOL    MW4 2764   3.616   1.655   1.192
  684SOL     OW 2765   3.609   1.925   1.117
  684SOL    HW2 2766   3.674   1.982   1.159
  684SOL    HW3 2767   3.600   1.960   1.028
  684SOL    MW4 2768   3.616   1.937   1.111
  685SOL     OW 2769   3.831   2.078   1.202
  685SOL    HW2 2770   3.850   2.063   1.295
  685SOL    HW3 2771   3.898   2.026   1.156
  685SOL    MW4 2772   3.842   2.069   1.208
  686SOL     OW 2773   3.752   2.320   1.085
  686SOL    HW2 2774   3.829   2.375   1.101
  686SOL    HW3 2775   3.766   2.243   1.139
  686SOL    MW4 2776   3.764   2.317   1.094
  687SOL     OW 2777   3.530   2.437   1.184
  687SOL    HW2 2778   3.532   2.433   1.280
  687SOL    HW3 2779   3.606   2.386   1.156
  687SOL    MW4 2780   3.540   2.430   1.193
  688SOL     OW 2781   3.576   2.692   1.112
  688SOL    HW2 2782   3.569   2.602   1.144
  688SOL    HW3 2783   3.494   2.733   1.140
  688SOL    MW4 2784   3.564   2.686   1.120
  689SOL     OW 2785   3.806   2.838   1.203
  689SOL    HW2 2786   3.790   2.845   1.297
  689SOL    HW3 2787   3.734   2.786   1.169
  689SOL    MW4 2788   3.795   2.832   1.211
  690SOL     OW 2789   3.831   3.115   1.096
  690SOL    HW2 2790   3.832   3.021   1.110
  690SOL    HW3 2791   3.819   3.126   1.002
  690SOL    MW4 2792   3.830   3.104   1.086
  691SOL     OW 2793   3.557   3.195   1.180
  691SOL    HW2 2794   3.557   3.290   1.170
  691SOL    HW3 2795   3.648   3.169   1.169
  691SOL    MW4 2796   3.569   3.204   1.177
  692SOL     OW 2797   3.548   3.468   1.138
  692SOL    HW2 2798   3.627   3.516   1.164
  692SOL    HW3 2799   3.553   3.465   1.042
  692SOL    MW4 2800   3.559   3.474   1.129
  693SOL     OW 2801   3.780   3.621   1.223
  693SOL    HW2 2802   3.803   3.616   1.316
  693SOL    HW3 2803   3.790   3.714   1.201
  693SOL    MW4 2804   3.785   3.633   1.232
  694SOL     OW 2805   3.820   3.888   1.133
  694SOL    HW2 2806   3.731   3.922   1.147
  694SOL    HW3 2807   3.823   3.867   1.040
  694SOL    MW4 2808   3.809   3.890   1.123
  695SOL     OW 2809   3.563   4.000   1.167
  695SOL    HW2 2810   3.554   3.989   1.261
  695SOL    HW3 2811   3.482   3.965   1.131
  695SOL    MW4 2812   3.551   3.994   1.174
  696SOL     OW 2813   3.589   4.272   1.103
  696SOL    HW2 2814   3.585   4.183   1.138
  696SOL    HW3 2815   3.616   4.261   1.012
  696SOL    MW4 2816   3.592   4.259   1.095
  697SOL     OW 2817   3.815   4.361   1.230
  697SOL    HW2 2818   3.823   4.347   1.324
  697SOL    HW3 2819   3.727   4.330   1.208
  697SOL    MW4 2820   3.805   4.355   1.239
  698SOL     OW 2821   4.292   4.620   1.183
  698SOL    HW2 2822   4.284   4.531   1.217
  698SOL    HW3 2823   4.209   4.661   1.204
  698SOL    MW4 2824   4.280   4.613   1.190
  699SOL     OW 2825   4.061   0.101   1.252
  699SOL    HW2 2826   4.056   0.083   1.346
  699SOL    HW3 2827   3.986   0.055   1.215
  699SOL    MW4 2828   4.050   0.093   1.259
  700SOL     OW 2829   4.022   0.351   1.105
  700SOL    HW2 2830   4.038   0.262   1.134
  700SOL    HW3 2831   4.048   0.352   1.013
  700SOL    MW4 2832   4.028   0.340   1.097
  701SOL     OW 2833   4.251   0.478   1.232
  701SOL    HW2 2834   4.247   0.473   1.328
  701SOL    HW3 2835   4.173   0.432   1.203
  701SOL    MW4 2836   4.240   0.471   1.241
  702SOL     OW 2837   4.283   0.732   1.125
  702SOL    HW2 2838   4.287   0.642   1.159
  702SOL    HW3 2839   4.258   0.722   1.033
  702SOL    MW4 2840   4.281   0.718   1.117
  703SOL     OW 2841   4.037   0.817   1.199
  703SOL    HW2 2842   4.054   0.837   1.291
  703SOL    HW3 2843   4.115   0.770   1.169
  703SOL    MW4 2844   4.050   0.813   1.207
  704SOL     OW 2845   4.049   1.098   1.166
  704SOL    HW2 2846   4.041   1.003   1.162
  704SOL    HW3 2847   3.963   1.128   1.196
  704SOL    MW4 2848   4.037   1.090   1.169
  705SOL     OW 2849   4.259   1.260   1.247
  705SOL    HW2 2850   4.262   1.261   1.342
  705SOL    HW3 2851   4.184   1.206   1.225
  705SOL    MW4 2852   4.250   1.253   1.256
  706SOL     OW 2853   4.259   1.505   1.129
  706SOL    HW2 2854   4.264   1.419   1.172
  706SOL    HW3 2855   4.334   1.553   1.164
  706SOL    MW4 2856   4.270   1.500   1.139
  707SOL     OW 2857   4.068   1.660   1.225
  707SOL    HW2 2858   4.090   1.686   1.315
  707SOL    HW3 2859   4.140   1.602   1.199
  707SOL    MW4 2860   4.081   1.656   1.234
  708SOL     OW 2861   4.028   1.900   1.083
  708SOL    HW2 2862   4.015   1.815   1.124
  708SOL    HW3 2863   4.026   1.882   0.989
  708SOL    MW4 2864   4.026   1.887   1.076
  709SOL     OW 2865   4.209   2.056   1.261
  709SOL    HW2 2866   4.211   2.149   1.237
  709SOL    HW3 2867   4.143   2.018   1.203
  709SOL    MW4 2868   4.200   2.064   1.250
  710SOL     OW 2869   4.240   2.310   1.136
  710SOL    HW2 2870   4.148   2.333   1.151
  710SOL    HW3 2871   4.248   2.305   1.041
  710SOL    MW4 2872   4.229   2.313   1.126
  711SOL     OW 2873   3.996   2.440   1.202
  711SOL    HW2 2874   3.978   2.432   1.296
  711SOL    HW3 2875   4.036   2.527   1.193
  711SOL    MW4 2876   3.999   2.451   1.213
  712SOL     OW 2877   4.067   2.691   1.145
  712SOL    HW2 2878   3.985   2.735   1.167
  712SOL    HW3 2879   4.067   2.684   1.050
  712SOL    MW4 2880   4.056   2.696   1.136
  713SOL     OW 2881   4.299   2.837   1.217
  713SOL    HW2 2882   4.282   2.925   1.182
  713SOL    HW3 2883   4.213   2.796   1.222
  713SOL    MW4 2884   4.285   2.843   1.213
  714SOL     OW 2885   4.257   3.104   1.128
  714SOL    HW2 2886   4.177   3.142   1.162
  714SOL    HW3 2887   4.243   3.099   1.033
  714SOL    MW4 2888   4.245   3.108   1.120
  715SOL     OW 2889   4.018   3.226   1.252
  715SOL    HW2 2890   3.993   3.219   1.345
  715SOL    HW3 2891   3.944   3.188   1.205
  715SOL    MW4 2892   4.005   3.220   1.258
  716SOL     OW 2893   3.988   3.457   1.108
  716SOL    HW2 2894   3.994   3.373   1.155
  716SOL    HW3 2895   3.914   3.501   1.149
  716SOL    MW4 2896   3.979   3.452   1.120
  717SOL     OW 2897   4.197   3.631   1.187
  717SOL    HW2 2898   4.125   3.572   1.165
  717SOL    HW3 2899   4.277   3.580   1.169
  717SOL    MW4 2900   4.198   3.616   1.182
  718SOL     OW 2901   4.236   3.937   1.150
  718SOL    HW2 2902   4.161   3.988   1.181
  718SOL    HW3 2903   4.216   3.847   1.174
  718SOL    MW4 2904   4.224   3.932   1.157
  719SOL     OW 2905   4.011   4.040   1.256
  719SOL    HW2 2906   4.014   4.121   1.205
  719SOL    HW3 2907   3.942   3.988   1.213
  719SOL    MW4 2908   4.002   4.044   1.243
  720SOL     OW 2909   4.053   4.293   1.110
  720SOL    HW2 2910   3.972   4.324   1.151
  720SOL    HW3 2911   4.033   4.291   1.016
  720SOL    MW4 2912   4.040   4.297   1.103
  721SOL     OW 2913   4.300   4.353   1.256
  721SOL    HW2 2914   4.233   4.323   1.195
  721SOL    HW3 2915   4.380   4.308   1.228
  721SOL    MW4 2916   4.302   4.343   1.244
  722SOL     OW 2917   0.226   4.649   1.647
  722SOL    HW2 2918   0.309   4.672   1.605
  722SOL    HW3 2919   0.164   4.713   1.613
  722SOL    MW4 2920   0.229   4.660   1.637
  723SOL     OW 2921   0.020   0.116   1.494
  723SOL    HW2 2922  -0.037   0.048   1.529
  723SOL    HW3 2923   0.018   0.102   1.399
  723SOL    MW4 2924   0.012   0.105   1.486
  724SOL     OW 2925   0.007   0.389   1.602
  724SOL    HW2 2926   0.019   0.385   1.697
  724SOL    HW3 2927   0.007   0.297   1.574
  724SOL    MW4 2928   0.009   0.376   1.611
  725SOL     OW 2929   0.241   0.488   1.506
  725SOL    HW2 2930   0.165   0.445   1.543
  725SOL    HW3 2931   0.233   0.475   1.412
  725SOL    MW4 2932   0.230   0.481   1.498
  726SOL     OW 2933   0.239   0.757   1.602
  726SOL    HW2 2934   0.317   0.804   1.573
  726SOL    HW3 2935   0.239   0.676   1.551
  726SOL    MW4 2936   0.249   0.753   1.592
  727SOL     OW 2937   0.039   0.911   1.486
  727SOL    HW2 2938   0.023   1.001   1.515
  727SOL    HW3 2939   0.112   0.881   1.539
  727SOL    MW4 2940   0.046   0.919   1.497
  728SOL     OW 2941   0.029   1.173   1.593
  728SOL    HW2 2942   0.033   1.172   1.689
  728SOL    HW3 2943   0.113   1.210   1.566
  728SOL    MW4 2944   0.041   1.178   1.602
  729SOL     OW 2945   0.278   1.281   1.480
  729SOL    HW2 2946   0.268   1.368   1.518
  729SOL    HW3 2947   0.263   1.293   1.387
  729SOL    MW4 2948   0.274   1.294   1.473
  730SOL     OW 2949   0.273   1.514   1.606
  730SOL    HW2 2950   0.269   1.524   1.701
  730SOL    HW3 2951   0.211   1.578   1.572
  730SOL    MW4 2952   0.264   1.524   1.614
  731SOL     OW 2953   0.081   1.678   1.498
  731SOL    HW2 2954   0.060   1.766   1.529
  731SOL    HW3 2955   0.064   1.681   1.404
  731SOL    MW4 2956   0.076   1.690   1.489
  732SOL     OW 2957   0.003   1.922   1.609
  732SOL    HW2 2958   0.001   1.936   1.704
  732SOL    HW3 2959  -0.081   1.956   1.578
  732SOL    MW4 2960  -0.008   1.928   1.618
  733SOL     OW 2961   0.211   2.098   1.505
  733SOL    HW2 2962   0.142   2.034   1.521
  733SOL    HW3 2963   0.237   2.084   1.413
  733SOL    MW4 2964   0.205   2.088   1.495
  734SOL     OW 2965   0.195   2.353   1.602
  734SOL    HW2 2966   0.191   2.333   1.695
  734SOL    HW3 2967   0.191   2.267   1.559
  734SOL    MW4 2968   0.194   2.339   1.608
  735SOL     OW 2969   4.442   2.463   1.542
  735SOL    HW2 2970   4.374   2.402   1.570
  735SOL    HW3 2971   4.524   2.424   1.572
  735SOL    MW4 2972   4.443   2.450   1.549
  736SOL     OW 2973   4.463   2.729   1.623
  736SOL    HW2 2974   4.391   2.785   1.596
  736SOL    HW3 2975   4.440   2.642   1.589
  736SOL    MW4 2976   4.451   2.725   1.615
  737SOL     OW 2977   0.206   2.818   1.497
  737SOL    HW2 2978   0.282   2.781   1.542
  737SOL    HW3 2979   0.131   2.777   1.540
  737SOL    MW4 2980   0.206   2.808   1.509
  738SOL     OW 2981   0.215   3.081   1.593
  738SOL    HW2 2982   0.132   3.121   1.567
  738SOL    HW3 2983   0.209   2.991   1.561
  738SOL    MW4 2984   0.203   3.075   1.585
  739SOL     OW 2985   4.476   3.195   1.516
  739SOL    HW2 2986   4.466   3.289   1.536
  739SOL    HW3 2987   4.486   3.192   1.421
  739SOL    MW4 2988   4.476   3.207   1.506
  740SOL     OW 2989   4.481   3.465   1.562
  740SOL    HW2 2990   4.476   3.483   1.656
  740SOL    HW3 2991   4.418   3.526   1.523
  740SOL    MW4 2992   4.472   3.476   1.569
  741SOL     OW 2993   0.227   3.574   1.472
  741SOL    HW2 2994   0.217   3.663   1.505
  741SOL    HW3 2995   0.154   3.525   1.510
  741SOL    MW4 2996   0.216   3.579   1.482
  742SOL     OW 2997   0.194   3.834   1.556
  742SOL    HW2 2998   0.174   3.828   1.650
  742SOL    HW3 2999   0.261   3.902   1.550
  742SOL    MW4 3000   0.201   3.842   1.568
  743SOL     OW 3001   4.479   4.004   1.487
  743SOL    HW2 3002   4.499   4.072   1.551
  743SOL    HW3 3003   4.543   3.935   1.505
  743SOL    MW4 3004   4.490   4.003   1.498
  744SOL     OW 3005   0.013   4.235   1.653
  744SOL    HW2 3006   0.011   4.264   1.744
  744SOL    HW3 3007  -0.071   4.264   1.617
  744SOL    MW4 3008   0.002   4.243   1.660
  745SOL     OW 3009   0.188   4.419   1.501
  745SOL    HW2 3010   0.131   4.366   1.557
  745SOL    HW3 3011   0.201   4.500   1.551
  745SOL    MW4 3012   0.182   4.423   1.515
  746SOL     OW 3013   0.669   4.665   1.615
  746SOL    HW2 3014   0.733   4.724   1.575
  746SOL    HW3 3015   0.584   4.702   1.590
  746SOL    MW4 3016   0.667   4.677   1.606
  747SOL     OW 3017   0.437   0.071   1.500
  747SOL    HW2 3018   0.444   0.160   1.534
  747SOL    HW3 3019   0.421   0.082   1.406
  747SOL    MW4 3020   0.436   0.084   1.492
  748SOL     OW 3021   0.455   0.321   1.616
  748SOL    HW2 3022   0.533   0.365   1.582
  748SOL    HW3 3023   0.382   0.373   1.583
  748SOL    MW4 3024   0.456   0.334   1.607
  749SOL     OW 3025   0.669   0.472   1.517
  749SOL    HW2 3026   0.664   0.564   1.544
  749SOL    HW3 3027   0.684   0.476   1.422
  749SOL    MW4 3028   0.671   0.485   1.508
  750SOL     OW 3029   0.665   0.745   1.600
  750SOL    HW2 3030   0.681   0.733   1.694
  750SOL    HW3 3031   0.743   0.790   1.568
  750SOL    MW4 3032   0.677   0.749   1.608
  751SOL     OW 3033   0.461   0.896   1.508
  751SOL    HW2 3034   0.462   0.980   1.553
  751SOL    HW3 3035   0.532   0.846   1.548
  751SOL    MW4 3036   0.471   0.900   1.519
  752SOL     OW 3037   0.482   1.143   1.597
  752SOL    HW2 3038   0.557   1.190   1.560
  752SOL    HW3 3039   0.406   1.181   1.553
  752SOL    MW4 3040   0.482   1.154   1.586
  753SOL     OW 3041   0.704   1.300   1.483
  753SOL    HW2 3042   0.685   1.383   1.527
  753SOL    HW3 3043   0.682   1.316   1.391
  753SOL    MW4 3044   0.698   1.313   1.477
  754SOL     OW 3045   0.662   1.530   1.625
  754SOL    HW2 3046   0.741   1.550   1.575
  754SOL    HW3 3047   0.593   1.582   1.583
  754SOL    MW4 3048   0.663   1.539   1.613
  755SOL     OW 3049   0.452   1.652   1.471
  755SOL    HW2 3050   0.427   1.739   1.500
  755SOL    HW3 3051   0.388   1.593   1.511
  755SOL    MW4 3052   0.440   1.656   1.480
  756SOL     OW 3053   0.403   1.900   1.594
  756SOL    HW2 3054   0.412   1.909   1.689
  756SOL    HW3 3055   0.329   1.956   1.572
  756SOL    MW4 3056   0.394   1.908   1.604
  757SOL     OW 3057   0.677   2.046   1.511
  757SOL    HW2 3058   0.752   1.991   1.530
  757SOL    HW3 3059   0.602   1.999   1.548
  757SOL    MW4 3060   0.677   2.032   1.519
  758SOL     OW 3061   0.669   2.314   1.610
  758SOL    HW2 3062   0.591   2.357   1.575
  758SOL    HW3 3063   0.669   2.227   1.570
  758SOL    MW4 3064   0.659   2.308   1.600
  759SOL     OW 3065   0.436   2.434   1.513
  759SOL    HW2 3066   0.432   2.527   1.536
  759SOL    HW3 3067   0.358   2.396   1.554
  759SOL    MW4 3068   0.425   2.441   1.522
  760SOL     OW 3069   0.439   2.700   1.605
  760SOL    HW2 3070   0.460   2.705   1.698
  760SOL    HW3 3071   0.515   2.737   1.561
  760SOL    MW4 3072   0.452   2.706   1.611
  761SOL     OW 3073   0.682   2.823   1.509
  761SOL    HW2 3074   0.695   2.911   1.545
  761SOL    HW3 3075   0.689   2.834   1.414
  761SOL    MW4 3076   0.685   2.836   1.501
  762SOL     OW 3077   0.680   3.089   1.610
  762SOL    HW2 3078   0.752   3.137   1.569
  762SOL    HW3 3079   0.604   3.111   1.557
  762SOL    MW4 3080   0.680   3.098   1.598
  763SOL     OW 3081   0.459   3.200   1.491
  763SOL    HW2 3082   0.372   3.170   1.519
  763SOL    HW3 3083   0.456   3.195   1.395
  763SOL    MW4 3084   0.447   3.195   1.482
  764SOL     OW 3085   0.421   3.469   1.632
  764SOL    HW2 3086   0.438   3.383   1.593
  764SOL    HW3 3087   0.359   3.510   1.572
  764SOL    MW4 3088   0.415   3.463   1.619
  765SOL     OW 3089   0.620   3.629   1.554
  765SOL    HW2 3090   0.697   3.585   1.590
  765SOL    HW3 3091   0.546   3.573   1.580
  765SOL    MW4 3092   0.620   3.615   1.562
  766SOL     OW 3093   0.617   3.905   1.616
  766SOL    HW2 3094   0.700   3.936   1.581
  766SOL    HW3 3095   0.608   3.816   1.582
  766SOL    MW4 3096   0.627   3.898   1.607
  767SOL     OW 3097   0.397   4.040   1.519
  767SOL    HW2 3098   0.468   3.983   1.547
  767SOL    HW3 3099   0.403   4.041   1.424
  767SOL    MW4 3100   0.407   4.033   1.510
  768SOL     OW 3101   0.402   4.302   1.623
  768SOL    HW2 3102   0.400   4.211   1.593
  768SOL    HW3 3103   0.324   4.341   1.583
  768SOL    MW4 3104   0.391   4.295   1.614
  769SOL     OW 3105   0.645   4.403   1.544
  769SOL    HW2 3106   0.568   4.377   1.596
  769SOL    HW3 3107   0.662   4.493   1.570
  769SOL    MW4 3108   0.637   4.411   1.555
  770SOL     OW 3109   1.091   4.666   1.574
  770SOL    HW2 3110   1.101   4.644   1.667
  770SOL    HW3 3111   1.177   4.700   1.548
  770SOL    MW4 3112   1.104   4.668   1.583
  771SOL     OW 3113   0.871   0.143   1.487
  771SOL    HW2 3114   0.883   0.228   1.529
  771SOL    HW3 3115   0.952   0.095   1.505
  771SOL    MW4 3116   0.883   0.148   1.495
  772SOL     OW 3117   0.905   0.373   1.622
  772SOL    HW2 3118   0.912   0.390   1.716
  772SOL    HW3 3119   0.826   0.420   1.595
  772SOL    MW4 3120   0.895   0.381   1.631
  773SOL     OW 3121   1.118   0.486   1.464
  773SOL    HW2 3122   1.118   0.572   1.506
  773SOL    HW3 3123   1.036   0.445   1.492
  773SOL    MW4 3124   1.107   0.492   1.473
  774SOL     OW 3125   1.123   0.743   1.583
  774SOL    HW2 3126   1.130   0.741   1.678
  774SOL    HW3 3127   1.203   0.786   1.554
  774SOL    MW4 3128   1.134   0.748   1.592
  775SOL     OW 3129   0.877   0.871   1.476
  775SOL    HW2 3130   0.955   0.822   1.504
  775SOL    HW3 3131   0.892   0.889   1.383
  775SOL    MW4 3132   0.890   0.867   1.468
  776SOL     OW 3133   0.913   1.134   1.596
  776SOL    HW2 3134   0.892   1.061   1.537
  776SOL    HW3 3135   0.845   1.199   1.579
  776SOL    MW4 3136   0.901   1.133   1.586
  777SOL     OW 3137   1.144   1.241   1.464
  777SOL    HW2 3138   1.221   1.200   1.503
  777SOL    HW3 3139   1.070   1.190   1.497
  777SOL    MW4 3140   1.144   1.229   1.473
  778SOL     OW 3141   1.126   1.497   1.579
  778SOL    HW2 3142   1.196   1.561   1.569
  778SOL    HW3 3143   1.155   1.422   1.527
  778SOL    MW4 3144   1.139   1.496   1.571
  779SOL     OW 3145   0.890   1.634   1.492
  779SOL    HW2 3146   0.962   1.580   1.524
  779SOL    HW3 3147   0.905   1.641   1.398
  779SOL    MW4 3148   0.902   1.628   1.484
  780SOL     OW 3149   0.900   1.902   1.596
  780SOL    HW2 3150   0.978   1.951   1.570
  780SOL    HW3 3151   0.910   1.816   1.555
  780SOL    MW4 3152   0.911   1.897   1.587
  781SOL     OW 3153   1.109   2.053   1.510
  781SOL    HW2 3154   1.199   2.025   1.524
  781SOL    HW3 3155   1.100   2.134   1.562
  781SOL    MW4 3156   1.120   2.060   1.519
  782SOL     OW 3157   1.136   2.308   1.600
  782SOL    HW2 3158   1.213   2.362   1.582
  782SOL    HW3 3159   1.062   2.362   1.572
  782SOL    MW4 3160   1.136   2.322   1.594
  783SOL     OW 3161   0.913   2.454   1.533
  783SOL    HW2 3162   0.906   2.544   1.564
  783SOL    HW3 3163   0.831   2.413   1.561
  783SOL    MW4 3164   0.901   2.460   1.541
  784SOL     OW 3165   0.921   2.731   1.600
  784SOL    HW2 3166   0.910   2.719   1.694
  784SOL    HW3 3167   0.837   2.767   1.571
  784SOL    MW4 3168   0.908   2.734   1.608
  785SOL     OW 3169   1.133   2.833   1.453
  785SOL    HW2 3170   1.121   2.924   1.477
  785SOL    HW3 3171   1.061   2.787   1.496
  785SOL    MW4 3172   1.122   2.839   1.462
  786SOL     OW 3173   1.106   3.090   1.530
  786SOL    HW2 3174   1.101   3.077   1.625
  786SOL    HW3 3175   1.189   3.135   1.517
  786SOL    MW4 3176   1.116   3.094   1.541
  787SOL     OW 3177   0.865   3.243   1.448
  787SOL    HW2 3178   0.953   3.214   1.471
  787SOL    HW3 3179   0.860   3.233   1.353
  787SOL    MW4 3180   0.876   3.238   1.439
  788SOL     OW 3181   0.877   3.466   1.610
  788SOL    HW2 3182   0.954   3.504   1.568
  788SOL    HW3 3183   0.857   3.388   1.557
  788SOL    MW4 3184   0.885   3.460   1.597
  789SOL     OW 3185   1.084   3.598   1.488
  789SOL    HW2 3186   1.153   3.553   1.537
  789SOL    HW3 3187   1.119   3.606   1.399
  789SOL    MW4 3188   1.098   3.593   1.483
  790SOL     OW 3189   1.121   3.856   1.589
  790SOL    HW2 3190   1.198   3.897   1.551
  790SOL    HW3 3191   1.115   3.770   1.548
  790SOL    MW4 3192   1.130   3.850   1.579
  791SOL     OW 3193   0.866   3.982   1.533
  791SOL    HW2 3194   0.885   4.075   1.545
  791SOL    HW3 3195   0.948   3.938   1.554
  791SOL    MW4 3196   0.880   3.989   1.537
  792SOL     OW 3197   0.866   4.252   1.594
  792SOL    HW2 3198   0.889   4.267   1.685
  792SOL    HW3 3199   0.787   4.304   1.580
  792SOL    MW4 3200   0.858   4.261   1.604
  793SOL     OW 3201   1.097   4.393   1.493
  793SOL    HW2 3202   1.015   4.347   1.510
  793SOL    HW3 3203   1.081   4.482   1.522
  793SOL    MW4 3204   1.084   4.398   1.499
  794SOL     OW 3205   1.553   4.607   1.575
  794SOL    HW2 3206   1.552   4.586   1.668
  794SOL    HW3 3207   1.478   4.665   1.562
  794SOL    MW4 3208   1.543   4.612   1.585
  795SOL     OW 3209   1.337   0.101   1.523
  795SOL    HW2 3210   1.329   0.192   1.551
  795SOL    HW3 3211   1.342   0.106   1.428
  795SOL    MW4 3212   1.336   0.114   1.514
  796SOL     OW 3213   1.355   0.365   1.589
  796SOL    HW2 3214   1.428   0.415   1.553
  796SOL    HW3 3215   1.277   0.408   1.555
  796SOL    MW4 3216   1.354   0.377   1.580
  797SOL     OW 3217   1.582   0.496   1.500
  797SOL    HW2 3218   1.666   0.461   1.529
  797SOL    HW3 3219   1.581   0.482   1.406
  797SOL    MW4 3220   1.593   0.489   1.492
  798SOL     OW 3221   1.589   0.769   1.582
  798SOL    HW2 3222   1.590   0.751   1.676
  798SOL    HW3 3223   1.580   0.683   1.541
  798SOL    MW4 3224   1.588   0.756   1.589
  799SOL     OW 3225   1.353   0.884   1.510
  799SOL    HW2 3226   1.442   0.851   1.526
  799SOL    HW3 3227   1.352   0.906   1.417
  799SOL    MW4 3228   1.365   0.883   1.500
  800SOL     OW 3229   1.400   1.148   1.585
  800SOL    HW2 3230   1.385   1.151   1.680
  800SOL    HW3 3231   1.393   1.056   1.562
  800SOL    MW4 3232   1.398   1.137   1.594
  801SOL     OW 3233   1.584   1.327   1.471
  801SOL    HW2 3234   1.510   1.282   1.510
  801SOL    HW3 3235   1.573   1.315   1.376
  801SOL    MW4 3236   1.573   1.320   1.463
  802SOL     OW 3237   1.558   1.557   1.640
  802SOL    HW2 3238   1.564   1.528   1.731
  802SOL    HW3 3239   1.565   1.476   1.589
  802SOL    MW4 3240   1.560   1.542   1.645
  803SOL     OW 3241   1.348   1.689   1.521
  803SOL    HW2 3242   1.408   1.638   1.576
  803SOL    HW3 3243   1.382   1.679   1.433
  803SOL    MW4 3244   1.360   1.681   1.517
  804SOL     OW 3245   1.366   1.957   1.592
  804SOL    HW2 3246   1.365   1.965   1.687
  804SOL    HW3 3247   1.355   1.863   1.576
  804SOL    MW4 3248   1.364   1.946   1.602
  805SOL     OW 3249   1.601   2.073   1.526
  805SOL    HW2 3250   1.522   2.024   1.550
  805SOL    HW3 3251   1.593   2.086   1.431
  805SOL    MW4 3252   1.590   2.068   1.517
  806SOL     OW 3253   1.580   2.334   1.629
  806SOL    HW2 3254   1.656   2.379   1.592
  806SOL    HW3 3255   1.589   2.244   1.600
  806SOL    MW4 3256   1.591   2.328   1.620
  807SOL     OW 3257   1.352   2.473   1.536
  807SOL    HW2 3258   1.359   2.562   1.571
  807SOL    HW3 3259   1.430   2.428   1.569
  807SOL    MW4 3260   1.364   2.479   1.545
  808SOL     OW 3261   1.354   2.751   1.609
  808SOL    HW2 3262   1.428   2.794   1.567
  808SOL    HW3 3263   1.278   2.775   1.554
  808SOL    MW4 3264   1.354   2.760   1.596
  809SOL     OW 3265   1.586   2.889   1.519
  809SOL    HW2 3266   1.650   2.828   1.556
  809SOL    HW3 3267   1.618   2.906   1.430
  809SOL    MW4 3268   1.598   2.883   1.512
  810SOL     OW 3269   1.550   3.125   1.643
  810SOL    HW2 3270   1.624   3.174   1.607
  810SOL    HW3 3271   1.563   3.036   1.611
  810SOL    MW4 3272   1.561   3.120   1.634
  811SOL     OW 3273   1.341   3.238   1.493
  811SOL    HW2 3274   1.322   3.328   1.520
  811SOL    HW3 3275   1.414   3.211   1.548
  811SOL    MW4 3276   1.348   3.246   1.504
  812SOL     OW 3277   1.298   3.470   1.613
  812SOL    HW2 3278   1.295   3.473   1.709
  812SOL    HW3 3279   1.376   3.520   1.590
  812SOL    MW4 3280   1.308   3.477   1.623
  813SOL     OW 3281   1.554   3.583   1.526
  813SOL    HW2 3282   1.567   3.671   1.562
  813SOL    HW3 3283   1.565   3.594   1.432
  813SOL    MW4 3284   1.557   3.596   1.518
  814SOL     OW 3285   1.595   3.865   1.591
  814SOL    HW2 3286   1.579   3.835   1.680
  814SOL    HW3 3287   1.514   3.910   1.565
  814SOL    MW4 3288   1.582   3.867   1.599
  815SOL     OW 3289   1.335   3.987   1.505
  815SOL    HW2 3290   1.313   4.077   1.530
  815SOL    HW3 3291   1.338   3.989   1.409
  815SOL    MW4 3292   1.332   4.000   1.496
  816SOL     OW 3293   1.298   4.243   1.608
  816SOL    HW2 3294   1.384   4.270   1.577
  816SOL    HW3 3295   1.237   4.305   1.568
  816SOL    MW4 3296   1.301   4.255   1.598
  817SOL     OW 3297   1.501   4.339   1.465
  817SOL    HW2 3298   1.584   4.299   1.491
  817SOL    HW3 3299   1.509   4.431   1.493
  817SOL    MW4 3300   1.513   4.346   1.472
  818SOL     OW 3301   2.021   4.659   1.556
  818SOL    HW2 3302   2.031   4.649   1.651
  818SOL    HW3 3303   1.942   4.712   1.546
  818SOL    MW4 3304   2.012   4.665   1.567
  819SOL     OW 3305   1.761   0.107   1.510
  819SOL    HW2 3306   1.691   0.056   1.551
  819SOL    HW3 3307   1.751   0.090   1.416
  819SOL    MW4 3308   1.751   0.098   1.503
  820SOL     OW 3309   1.815   0.372   1.599
  820SOL    HW2 3310   1.903   0.406   1.581
  820SOL    HW3 3311   1.818   0.281   1.569
  820SOL    MW4 3312   1.827   0.364   1.593
  821SOL     OW 3313   2.054   0.489   1.494
  821SOL    HW2 3314   2.145   0.464   1.509
  821SOL    HW3 3315   2.050   0.582   1.518
  821SOL    MW4 3316   2.065   0.498   1.499
  822SOL     OW 3317   2.064   0.744   1.571
  822SOL    HW2 3318   2.132   0.807   1.547
  822SOL    HW3 3319   1.982   0.791   1.553
  822SOL    MW4 3320   2.062   0.759   1.565
  823SOL     OW 3321   1.832   0.890   1.507
  823SOL    HW2 3322   1.822   0.982   1.529
  823SOL    HW3 3323   1.751   0.849   1.536
  823SOL    MW4 3324   1.820   0.896   1.513
  824SOL     OW 3325   1.799   1.164   1.603
  824SOL    HW2 3326   1.881   1.210   1.583
  824SOL    HW3 3327   1.731   1.216   1.560
  824SOL    MW4 3328   1.801   1.177   1.595
  825SOL     OW 3329   2.034   1.306   1.547
  825SOL    HW2 3330   2.024   1.397   1.572
  825SOL    HW3 3331   2.020   1.305   1.453
  825SOL    MW4 3332   2.031   1.318   1.538
  826SOL     OW 3333   2.013   1.555   1.650
  826SOL    HW2 3334   2.086   1.607   1.615
  826SOL    HW3 3335   1.935   1.600   1.618
  826SOL    MW4 3336   2.013   1.568   1.641
  827SOL     OW 3337   1.792   1.678   1.562
  827SOL    HW2 3338   1.712   1.645   1.601
  827SOL    HW3 3339   1.790   1.646   1.472
  827SOL    MW4 3340   1.781   1.669   1.555
  828SOL     OW 3341   1.821   1.938   1.637
  828SOL    HW2 3342   1.803   1.846   1.618
  828SOL    HW3 3343   1.743   1.985   1.607
  828SOL    MW4 3344   1.808   1.932   1.631
  829SOL     OW 3345   2.037   2.038   1.508
  829SOL    HW2 3346   2.111   1.996   1.551
  829SOL    HW3 3347   1.961   1.990   1.540
  829SOL    MW4 3348   2.037   2.026   1.518
  830SOL     OW 3349   2.009   2.304   1.616
  830SOL    HW2 3350   2.008   2.285   1.710
  830SOL    HW3 3351   2.025   2.220   1.574
  830SOL    MW4 3352   2.011   2.291   1.623
  831SOL     OW 3353   1.801   2.438   1.505
  831SOL    HW2 3354   1.874   2.385   1.537
  831SOL    HW3 3355   1.811   2.437   1.410
  831SOL    MW4 3356   1.812   2.431   1.496
  832SOL     OW 3357   1.774   2.706   1.573
  832SOL    HW2 3358   1.862   2.741   1.559
  832SOL    HW3 3359   1.781   2.614   1.547
  832SOL    MW4 3360   1.786   2.699   1.568
  833SOL     OW 3361   2.026   2.834   1.500
  833SOL    HW2 3362   2.030   2.927   1.522
  833SOL    HW3 3363   2.010   2.832   1.406
  833SOL    MW4 3364   2.025   2.846   1.490
  834SOL     OW 3365   2.029   3.096   1.573
  834SOL    HW2 3366   2.042   3.089   1.668
  834SOL    HW3 3367   2.105   3.145   1.542
  834SOL    MW4 3368   2.041   3.101   1.582
  835SOL     OW 3369   1.780   3.250   1.543
  835SOL    HW2 3370   1.797   3.339   1.576
  835SOL    HW3 3371   1.857   3.200   1.569
  835SOL    MW4 3372   1.793   3.255   1.550
  836SOL     OW 3373   1.810   3.508   1.623
  836SOL    HW2 3374   1.804   3.516   1.718
  836SOL    HW3 3375   1.722   3.530   1.591
  836SOL    MW4 3376   1.798   3.512   1.631
  837SOL     OW 3377   2.007   3.655   1.500
  837SOL    HW2 3378   2.082   3.607   1.534
  837SOL    HW3 3379   1.931   3.602   1.526
  837SOL    MW4 3380   2.007   3.642   1.508
  838SOL     OW 3381   1.989   3.896   1.610
  838SOL    HW2 3382   2.074   3.934   1.589
  838SOL    HW3 3383   1.987   3.812   1.563
  838SOL    MW4 3384   2.000   3.890   1.601
  839SOL     OW 3385   1.782   3.999   1.441
  839SOL    HW2 3386   1.866   3.978   1.482
  839SOL    HW3 3387   1.717   3.949   1.491
  839SOL    MW4 3388   1.784   3.990   1.453
  840SOL     OW 3389   1.751   4.231   1.572
  840SOL    HW2 3390   1.805   4.296   1.527
  840SOL    HW3 3391   1.769   4.149   1.525
  840SOL    MW4 3392   1.760   4.229   1.560
  841SOL     OW 3393   1.983   4.399   1.455
  841SOL    HW2 3394   2.052   4.356   1.506
  841SOL    HW3 3395   1.992   4.492   1.477
  841SOL    MW4 3396   1.993   4.405   1.465
  842SOL     OW 3397   2.475   0.006   1.586
  842SOL    HW2 3398   2.471   0.009   1.681
  842SOL    HW3 3399   2.390   0.037   1.556
  842SOL    MW4 3400   2.464   0.010   1.594
  843SOL     OW 3401   2.260   0.124   1.456
  843SOL    HW2 3402   2.184   0.071   1.480
  843SOL    HW3 3403   2.265   0.119   1.361
  843SOL    MW4 3404   2.251   0.117   1.447
  844SOL     OW 3405   2.312   0.384   1.566
  844SOL    HW2 3406   2.304   0.384   1.662
  844SOL    HW3 3407   2.307   0.291   1.542
  844SOL    MW4 3408   2.311   0.372   1.576
  845SOL     OW 3409   2.515   0.523   1.438
  845SOL    HW2 3410   2.594   0.476   1.463
  845SOL    HW3 3411   2.445   0.477   1.484
  845SOL    MW4 3412   2.516   0.511   1.447
  846SOL     OW 3413   2.504   0.756   1.602
  846SOL    HW2 3414   2.432   0.814   1.577
  846SOL    HW3 3415   2.497   0.682   1.543
  846SOL    MW4 3416   2.493   0.754   1.591
  847SOL     OW 3417   2.293   0.936   1.517
  847SOL    HW2 3418   2.284   1.023   1.555
  847SOL    HW3 3419   2.268   0.948   1.425
  847SOL    MW4 3420   2.288   0.949   1.510
  848SOL     OW 3421   2.277   1.202   1.608
  848SOL    HW2 3422   2.282   1.194   1.703
  848SOL    HW3 3423   2.191   1.242   1.592
  848SOL    MW4 3424   2.266   1.206   1.618
  849SOL     OW 3425   2.507   1.327   1.566
  849SOL    HW2 3426   2.428   1.285   1.601
  849SOL    HW3 3427   2.503   1.311   1.472
  849SOL    MW4 3428   2.496   1.319   1.558
  850SOL     OW 3429   2.464   1.588   1.585
  850SOL    HW2 3430   2.552   1.624   1.588
  850SOL    HW3 3431   2.476   1.493   1.583
  850SOL    MW4 3432   2.477   1.580   1.585
  851SOL     OW 3433   2.217   1.696   1.512
  851SOL    HW2 3434   2.298   1.646   1.524
  851SOL    HW3 3435   2.200   1.691   1.418
  851SOL    MW4 3436   2.226   1.689   1.501
  852SOL     OW 3437   2.255   1.934   1.632
  852SOL    HW2 3438   2.245   1.933   1.727
  852SOL    HW3 3439   2.260   1.841   1.608
  852SOL    MW4 3440   2.255   1.921   1.641
  853SOL     OW 3441   2.489   2.047   1.542
  853SOL    HW2 3442   2.403   2.014   1.570
  853SOL    HW3 3443   2.480   2.058   1.447
  853SOL    MW4 3444   2.476   2.044   1.533
  854SOL     OW 3445   2.449   2.319   1.648
  854SOL    HW2 3446   2.464   2.317   1.742
  854SOL    HW3 3447   2.463   2.229   1.619
  854SOL    MW4 3448   2.452   2.307   1.656
  855SOL     OW 3449   2.243   2.464   1.549
  855SOL    HW2 3450   2.319   2.424   1.591
  855SOL    HW3 3451   2.168   2.413   1.581
  855SOL    MW4 3452   2.243   2.452   1.559
  856SOL     OW 3453   2.204   2.699   1.660
  856SOL    HW2 3454   2.211   2.613   1.619
  856SOL    HW3 3455   2.141   2.747   1.606
  856SOL    MW4 3456   2.197   2.694   1.648
  857SOL     OW 3457   2.430   2.783   1.524
  857SOL    HW2 3458   2.450   2.869   1.561
  857SOL    HW3 3459   2.357   2.751   1.577
  857SOL    MW4 3460   2.423   2.790   1.536
  858SOL     OW 3461   2.498   3.062   1.593
  858SOL    HW2 3462   2.560   3.130   1.566
  858SOL    HW3 3463   2.415   3.087   1.552
  858SOL    MW4 3464   2.495   3.075   1.584
  859SOL     OW 3465   2.260   3.242   1.473
  859SOL    HW2 3466   2.232   3.327   1.507
  859SOL    HW3 3467   2.264   3.254   1.378
  859SOL    MW4 3468   2.257   3.255   1.465
  860SOL     OW 3469   2.217   3.494   1.581
  860SOL    HW2 3470   2.238   3.475   1.672
  860SOL    HW3 3471   2.300   3.525   1.544
  860SOL    MW4 3472   2.231   3.496   1.588
  861SOL     OW 3473   2.442   3.593   1.432
  861SOL    HW2 3474   2.520   3.562   1.478
  861SOL    HW3 3475   2.431   3.684   1.461
  861SOL    MW4 3476   2.451   3.601   1.442
  862SOL     OW 3477   2.435   3.854   1.539
  862SOL    HW2 3478   2.425   3.865   1.634
  862SOL    HW3 3479   2.520   3.895   1.519
  862SOL    MW4 3480   2.445   3.861   1.549
  863SOL     OW 3481   2.217   4.013   1.513
  863SOL    HW2 3482   2.295   3.964   1.536
  863SOL    HW3 3483   2.211   4.006   1.417
  863SOL    MW4 3484   2.226   4.006   1.503
  864SOL     OW 3485   2.228   4.290   1.563
  864SOL    HW2 3486   2.308   4.335   1.533
  864SOL    HW3 3487   2.245   4.198   1.547
  864SOL    MW4 3488   2.241   4.284   1.557
  865SOL     OW 3489   2.488   4.401   1.482
  865SOL    HW2 3490   2.480   4.493   1.508
  865SOL    HW3 3491   2.524   4.405   1.393
  865SOL    MW4 3492   2.492   4.414   1.474
  866SOL     OW 3493   2.919   4.623   1.593
  866SOL    HW2 3494   2.935   4.628   1.687
  866SOL    HW3 3495   2.833   4.665   1.581
  866SOL    MW4 3496   2.910   4.629   1.604
  867SOL     OW 3497   2.715   0.119   1.509
  867SOL    HW2 3498   2.710   0.213   1.530
  867SOL    HW3 3499   2.633   0.082   1.541
  867SOL    MW4 3500   2.704   0.127   1.516
  868SOL     OW 3501   2.715   0.378   1.563
  868SOL    HW2 3502   2.719   0.366   1.658
  868SOL    HW3 3503   2.802   0.406   1.538
  868SOL    MW4 3504   2.727   0.380   1.572
  869SOL     OW 3505   2.970   0.478   1.476
  869SOL    HW2 3506   2.957   0.570   1.501
  869SOL    HW3 3507   2.951   0.477   1.382
  869SOL    MW4 3508   2.965   0.490   1.467
  870SOL     OW 3509   2.948   0.720   1.601
  870SOL    HW2 3510   2.939   0.717   1.696
  870SOL    HW3 3511   2.873   0.771   1.571
  870SOL    MW4 3512   2.937   0.726   1.610
  871SOL     OW 3513   2.737   0.882   1.503
  871SOL    HW2 3514   2.662   0.835   1.537
  871SOL    HW3 3515   2.721   0.887   1.408
  871SOL    MW4 3516   2.725   0.877   1.495
  872SOL     OW 3517   2.711   1.139   1.612
  872SOL    HW2 3518   2.718   1.055   1.567
  872SOL    HW3 3519   2.618   1.162   1.605
  872SOL    MW4 3520   2.699   1.131   1.605
  873SOL     OW 3521   2.948   1.278   1.521
  873SOL    HW2 3522   3.027   1.239   1.558
  873SOL    HW3 3523   2.877   1.225   1.556
  873SOL    MW4 3524   2.949   1.266   1.531
  874SOL     OW 3525   2.938   1.536   1.621
  874SOL    HW2 3526   2.857   1.571   1.583
  874SOL    HW3 3527   2.939   1.444   1.594
  874SOL    MW4 3528   2.928   1.528   1.612
  875SOL     OW 3529   2.714   1.670   1.498
  875SOL    HW2 3530   2.717   1.763   1.521
  875SOL    HW3 3531   2.709   1.669   1.402
  875SOL    MW4 3532   2.714   1.682   1.488
  876SOL     OW 3533   2.731   1.942   1.567
  876SOL    HW2 3534   2.746   1.935   1.662
  876SOL    HW3 3535   2.641   1.971   1.559
  876SOL    MW4 3536   2.721   1.945   1.579
  877SOL     OW 3537   2.927   2.069   1.438
  877SOL    HW2 3538   2.933   2.152   1.486
  877SOL    HW3 3539   2.846   2.029   1.470
  877SOL    MW4 3540   2.917   2.075   1.449
  878SOL     OW 3541   2.910   2.289   1.596
  878SOL    HW2 3542   2.921   2.301   1.690
  878SOL    HW3 3543   2.820   2.318   1.579
  878SOL    MW4 3544   2.899   2.295   1.606
  879SOL     OW 3545   2.678   2.412   1.515
  879SOL    HW2 3546   2.683   2.504   1.540
  879SOL    HW3 3547   2.602   2.379   1.563
  879SOL    MW4 3548   2.668   2.419   1.525
  880SOL     OW 3549   2.665   2.685   1.595
  880SOL    HW2 3550   2.726   2.742   1.548
  880SOL    HW3 3551   2.578   2.716   1.567
  880SOL    MW4 3552   2.662   2.697   1.585
  881SOL     OW 3553   2.877   2.823   1.454
  881SOL    HW2 3554   2.939   2.776   1.508
  881SOL    HW3 3555   2.873   2.910   1.493
  881SOL    MW4 3556   2.884   2.828   1.466
  882SOL     OW 3557   2.895   3.058   1.589
  882SOL    HW2 3558   2.885   3.073   1.683
  882SOL    HW3 3559   2.979   3.098   1.567
  882SOL    MW4 3560   2.905   3.065   1.598
  883SOL     OW 3561   2.700   3.229   1.491
  883SOL    HW2 3562   2.772   3.180   1.532
  883SOL    HW3 3563   2.704   3.206   1.399
  883SOL    MW4 3564   2.710   3.220   1.484
  884SOL     OW 3565   2.669   3.501   1.563
  884SOL    HW2 3566   2.686   3.506   1.657
  884SOL    HW3 3567   2.660   3.408   1.545
  884SOL    MW4 3568   2.670   3.490   1.573
  885SOL     OW 3569   2.881   3.607   1.450
  885SOL    HW2 3570   2.797   3.572   1.480
  885SOL    HW3 3571   2.878   3.600   1.355
  885SOL    MW4 3572   2.870   3.601   1.441
  886SOL     OW 3573   2.916   3.855   1.595
  886SOL    HW2 3574   2.841   3.910   1.574
  886SOL    HW3 3575   2.910   3.781   1.534
  886SOL    MW4 3576   2.906   3.853   1.584
  887SOL     OW 3577   2.681   3.979   1.476
  887SOL    HW2 3578   2.662   4.059   1.525
  887SOL    HW3 3579   2.704   4.011   1.388
  887SOL    MW4 3580   2.682   3.994   1.471
  888SOL     OW 3581   2.671   4.232   1.599
  888SOL    HW2 3582   2.750   4.275   1.568
  888SOL    HW3 3583   2.600   4.290   1.573
  888SOL    MW4 3584   2.672   4.245   1.592
  889SOL     OW 3585   2.883   4.379   1.481
  889SOL    HW2 3586   2.903   4.470   1.503
  889SOL    HW3 3587   2.880   4.377   1.386
  889SOL    MW4 3588   2.885   4.391   1.472
  890SOL     OW 3589   3.350   4.652   1.602
  890SOL    HW2 3590   3.433   4.692   1.577
  890SOL    HW3 3591   3.358   4.561   1.573
  890SOL    MW4 3592   3.362   4.645   1.595
  891SOL     OW 3593   3.139   0.100   1.461
  891SOL    HW2 3594   3.202   0.042   1.505
  891SOL    HW3 3595   3.053   0.063   1.484
  891SOL    MW4 3596   3.136   0.087   1.470
  892SOL     OW 3597   3.169   0.335   1.604
  892SOL    HW2 3598   3.160   0.253   1.555
  892SOL    HW3 3599   3.108   0.395   1.562
  892SOL    MW4 3600   3.160   0.332   1.592
  893SOL     OW 3601   3.381   0.480   1.501
  893SOL    HW2 3602   3.312   0.428   1.543
  893SOL    HW3 3603   3.381   0.451   1.410
  893SOL    MW4 3604   3.372   0.469   1.495
  894SOL     OW 3605   3.409   0.745   1.584
  894SOL    HW2 3606   3.412   0.736   1.679
  894SOL    HW3 3607   3.406   0.655   1.552
  894SOL    MW4 3608   3.409   0.732   1.593
  895SOL     OW 3609   3.176   0.874   1.523
  895SOL    HW2 3610   3.250   0.829   1.564
  895SOL    HW3 3611   3.098   0.828   1.554
  895SOL    MW4 3612   3.176   0.862   1.532
  896SOL     OW 3613   3.191   1.145   1.614
  896SOL    HW2 3614   3.182   1.164   1.707
  896SOL    HW3 3615   3.191   1.049   1.609
  896SOL    MW4 3616   3.190   1.135   1.625
  897SOL     OW 3617   3.395   1.300   1.499
  897SOL    HW2 3618   3.471   1.246   1.520
  897SOL    HW3 3619   3.321   1.255   1.541
  897SOL    MW4 3620   3.395   1.287   1.508
  898SOL     OW 3621   3.354   1.568   1.604
  898SOL    HW2 3622   3.367   1.545   1.696
  898SOL    HW3 3623   3.357   1.485   1.557
  898SOL    MW4 3624   3.356   1.554   1.610
  899SOL     OW 3625   3.146   1.654   1.460
  899SOL    HW2 3626   3.218   1.645   1.523
  899SOL    HW3 3627   3.072   1.611   1.502
  899SOL    MW4 3628   3.146   1.647   1.474
  900SOL     OW 3629   3.104   1.899   1.593
  900SOL    HW2 3630   3.110   1.813   1.552
  900SOL    HW3 3631   3.038   1.946   1.543
  900SOL    MW4 3632   3.096   1.894   1.581
  901SOL     OW 3633   3.354   2.010   1.521
  901SOL    HW2 3634   3.270   1.970   1.544
  901SOL    HW3 3635   3.357   2.006   1.426
  901SOL    MW4 3636   3.343   2.004   1.512
  902SOL     OW 3637   3.324   2.273   1.573
  902SOL    HW2 3638   3.396   2.316   1.526
  902SOL    HW3 3639   3.336   2.180   1.554
  902SOL    MW4 3640   3.335   2.266   1.564
  903SOL     OW 3641   3.103   2.442   1.482
  903SOL    HW2 3642   3.187   2.403   1.506
  903SOL    HW3 3643   3.040   2.401   1.541
  903SOL    MW4 3644   3.106   2.431   1.493
  904SOL     OW 3645   3.088   2.695   1.587
  904SOL    HW2 3646   3.166   2.732   1.546
  904SOL    HW3 3647   3.086   2.604   1.557
  904SOL    MW4 3648   3.098   2.688   1.578
  905SOL     OW 3649   3.334   2.796   1.479
  905SOL    HW2 3650   3.343   2.885   1.512
  905SOL    HW3 3651   3.320   2.806   1.385
  905SOL    MW4 3652   3.333   2.809   1.471
  906SOL     OW 3653   3.344   3.054   1.565
  906SOL    HW2 3654   3.333   3.065   1.659
  906SOL    HW3 3655   3.428   3.095   1.546
  906SOL    MW4 3656   3.354   3.061   1.575
  907SOL     OW 3657   3.117   3.205   1.477
  907SOL    HW2 3658   3.202   3.164   1.495
  907SOL    HW3 3659   3.115   3.216   1.382
  907SOL    MW4 3660   3.128   3.201   1.467
  908SOL     OW 3661   3.097   3.460   1.585
  908SOL    HW2 3662   3.086   3.371   1.550
  908SOL    HW3 3663   3.026   3.510   1.544
  908SOL    MW4 3664   3.086   3.454   1.575
  909SOL     OW 3665   3.298   3.604   1.485
  909SOL    HW2 3666   3.380   3.557   1.504
  909SOL    HW3 3667   3.229   3.544   1.512
  909SOL    MW4 3668   3.300   3.590   1.491
  910SOL     OW 3669   3.336   3.845   1.581
  910SOL    HW2 3670   3.260   3.892   1.547
  910SOL    HW3 3671   3.322   3.754   1.554
  910SOL    MW4 3672   3.324   3.839   1.573
  911SOL     OW 3673   3.124   3.975   1.448
  911SOL    HW2 3674   3.119   4.062   1.489
  911SOL    HW3 3675   3.056   3.924   1.493
  911SOL    MW4 3676   3.114   3.980   1.460
  912SOL     OW 3677   3.103   4.226   1.553
  912SOL    HW2 3678   3.131   4.242   1.643
  912SOL    HW3 3679   3.027   4.284   1.540
  912SOL    MW4 3680   3.096   4.236   1.563
  913SOL     OW 3681   3.342   4.391   1.492
  913SOL    HW2 3682   3.269   4.337   1.522
  913SOL    HW3 3683   3.341   4.382   1.397
  913SOL    MW4 3684   3.332   4.383   1.483
  914SOL     OW 3685   3.822   4.631   1.611
  914SOL    HW2 3686   3.822   4.639   1.706
  914SOL    HW3 3687   3.903   4.672   1.583
  914SOL    MW4 3688   3.833   4.637   1.620
  915SOL     OW 3689   3.607   0.099   1.520
  915SOL    HW2 3690   3.687   0.055   1.549
  915SOL    HW3 3691   3.616   0.104   1.425
  915SOL    MW4 3692   3.618   0.093   1.511
  916SOL     OW 3693   3.615   0.351   1.598
  916SOL    HW2 3694   3.616   0.263   1.561
  916SOL    HW3 3695   3.534   0.390   1.565
  916SOL    MW4 3696   3.605   0.344   1.589
  917SOL     OW 3697   3.845   0.488   1.530
  917SOL    HW2 3698   3.768   0.436   1.554
  917SOL    HW3 3699   3.843   0.492   1.434
  917SOL    MW4 3700   3.834   0.482   1.520
  918SOL     OW 3701   3.858   0.751   1.603
  918SOL    HW2 3702   3.782   0.784   1.555
  918SOL    HW3 3703   3.857   0.657   1.591
  918SOL    MW4 3704   3.848   0.743   1.595
  919SOL     OW 3705   3.646   0.872   1.496
  919SOL    HW2 3706   3.568   0.832   1.534
  919SOL    HW3 3707   3.634   0.864   1.402
  919SOL    MW4 3708   3.634   0.866   1.489
  920SOL     OW 3709   3.633   1.147   1.569
  920SOL    HW2 3710   3.717   1.180   1.536
  920SOL    HW3 3711   3.631   1.055   1.543
  920SOL    MW4 3712   3.644   1.139   1.561
  921SOL     OW 3713   3.877   1.296   1.453
  921SOL    HW2 3714   3.942   1.255   1.510
  921SOL    HW3 3715   3.868   1.385   1.487
  921SOL    MW4 3716   3.885   1.303   1.465
  922SOL     OW 3717   3.836   1.539   1.562
  922SOL    HW2 3718   3.832   1.533   1.657
  922SOL    HW3 3719   3.753   1.579   1.537
  922SOL    MW4 3720   3.825   1.544   1.571
  923SOL     OW 3721   3.600   1.658   1.519
  923SOL    HW2 3722   3.516   1.625   1.551
  923SOL    HW3 3723   3.593   1.653   1.424
  923SOL    MW4 3724   3.588   1.653   1.511
  924SOL     OW 3725   3.615   1.917   1.616
  924SOL    HW2 3726   3.609   1.824   1.594
  924SOL    HW3 3727   3.534   1.955   1.584
  924SOL    MW4 3728   3.604   1.910   1.609
  925SOL     OW 3729   3.844   2.025   1.488
  925SOL    HW2 3730   3.825   2.112   1.523
  925SOL    HW3 3731   3.772   1.971   1.519
  925SOL    MW4 3732   3.832   2.029   1.497
  926SOL     OW 3733   3.793   2.276   1.574
  926SOL    HW2 3734   3.798   2.265   1.669
  926SOL    HW3 3735   3.870   2.328   1.551
  926SOL    MW4 3736   3.804   2.282   1.583
  927SOL     OW 3737   3.545   2.399   1.469
  927SOL    HW2 3738   3.555   2.470   1.532
  927SOL    HW3 3739   3.622   2.344   1.483
  927SOL    MW4 3740   3.557   2.401   1.479
  928SOL     OW 3741   3.582   2.657   1.567
  928SOL    HW2 3742   3.581   2.660   1.662
  928SOL    HW3 3743   3.502   2.703   1.540
  928SOL    MW4 3744   3.571   2.663   1.576
  929SOL     OW 3745   3.778   2.814   1.474
  929SOL    HW2 3746   3.856   2.758   1.482
  929SOL    HW3 3747   3.706   2.760   1.505
  929SOL    MW4 3748   3.779   2.800   1.479
  930SOL     OW 3749   3.746   3.055   1.586
  930SOL    HW2 3750   3.827   3.093   1.551
  930SOL    HW3 3751   3.750   2.963   1.559
  930SOL    MW4 3752   3.757   3.047   1.578
  931SOL     OW 3753   3.552   3.239   1.492
  931SOL    HW2 3754   3.622   3.176   1.509
  931SOL    HW3 3755   3.538   3.235   1.397
  931SOL    MW4 3756   3.560   3.230   1.481
  932SOL     OW 3757   3.563   3.514   1.567
  932SOL    HW2 3758   3.652   3.541   1.546
  932SOL    HW3 3759   3.560   3.420   1.548
  932SOL    MW4 3760   3.574   3.505   1.561
  933SOL     OW 3761   3.809   3.602   1.508
  933SOL    HW2 3762   3.901   3.578   1.520
  933SOL    HW3 3763   3.802   3.691   1.541
  933SOL    MW4 3764   3.820   3.610   1.514
  934SOL     OW 3765   3.783   3.869   1.592
  934SOL    HW2 3766   3.856   3.926   1.569
  934SOL    HW3 3767   3.707   3.910   1.551
  934SOL    MW4 3768   3.782   3.882   1.583
  935SOL     OW 3769   3.566   3.969   1.467
  935SOL    HW2 3770   3.561   4.060   1.495
  935SOL    HW3 3771   3.489   3.927   1.505
  935SOL    MW4 3772   3.555   3.976   1.475
  936SOL     OW 3773   3.587   4.227   1.547
  936SOL    HW2 3774   3.587   4.229   1.643
  936SOL    HW3 3775   3.514   4.284   1.522
  936SOL    MW4 3776   3.577   4.235   1.557
  937SOL     OW 3777   3.811   4.375   1.507
  937SOL    HW2 3778   3.728   4.339   1.537
  937SOL    HW3 3779   3.817   4.460   1.551
  937SOL    MW4 3780   3.801   4.382   1.517
  938SOL     OW 3781   4.312   4.628   1.618
  938SOL    HW2 3782   4.312   4.643   1.713
  938SOL    HW3 3783   4.298   4.533   1.609
  938SOL    MW4 3784   4.310   4.617   1.629
  939SOL     OW 3785   4.062   0.061   1.532
  939SOL    HW2 3786   4.074   0.153   1.556
  939SOL    HW3 3787   4.141   0.017   1.566
  939SOL    MW4 3788   4.074   0.067   1.540
  940SOL     OW 3789   4.069   0.329   1.592
  940SOL    HW2 3790   4.057   0.343   1.686
  940SOL    HW3 3791   3.991   0.368   1.552
  940SOL    MW4 3792   4.057   0.336   1.600
  941SOL     OW 3793   4.264   0.516   1.519
  941SOL    HW2 3794   4.194   0.456   1.545
  941SOL    HW3 3795   4.345   0.469   1.539
  941SOL    MW4 3796   4.266   0.502   1.525
  942SOL     OW 3797   4.309   0.784   1.571
  942SOL    HW2 3798   4.307   0.691   1.551
  942SOL    HW3 3799   4.391   0.815   1.534
  942SOL    MW4 3800   4.320   0.776   1.564
  943SOL     OW 3801   4.068   0.897   1.477
  943SOL    HW2 3802   4.154   0.867   1.505
  943SOL    HW3 3803   4.007   0.834   1.516
  943SOL    MW4 3804   4.071   0.884   1.486
  944SOL     OW 3805   4.057   1.154   1.591
  944SOL    HW2 3806   4.038   1.140   1.684
  944SOL    HW3 3807   4.048   1.067   1.551
  944SOL    MW4 3808   4.054   1.141   1.598
  945SOL     OW 3809   4.288   1.308   1.522
  945SOL    HW2 3810   4.215   1.250   1.545
  945SOL    HW3 3811   4.365   1.265   1.560
  945SOL    MW4 3812   4.289   1.295   1.530
  946SOL     OW 3813   4.336   1.580   1.593
  946SOL    HW2 3814   4.318   1.494   1.556
  946SOL    HW3 3815   4.415   1.609   1.547
  946SOL    MW4 3816   4.344   1.573   1.582
  947SOL     OW 3817   4.083   1.682   1.517
  947SOL    HW2 3818   4.163   1.655   1.561
  947SOL    HW3 3819   4.023   1.608   1.528
  947SOL    MW4 3820   4.085   1.669   1.524
  948SOL     OW 3821   4.024   1.917   1.648
  948SOL    HW2 3822   4.031   1.829   1.612
  948SOL    HW3 3823   3.951   1.957   1.599
  948SOL    MW4 3824   4.015   1.911   1.637
  949SOL     OW 3825   4.249   2.029   1.535
  949SOL    HW2 3826   4.174   1.981   1.572
  949SOL    HW3 3827   4.227   2.040   1.443
  949SOL    MW4 3828   4.236   2.024   1.528
  950SOL     OW 3829   4.238   2.305   1.601
  950SOL    HW2 3830   4.229   2.302   1.697
  950SOL    HW3 3831   4.246   2.214   1.574
  950SOL    MW4 3832   4.238   2.293   1.610
  951SOL     OW 3833   4.007   2.432   1.479
  951SOL    HW2 3834   4.008   2.523   1.508
  951SOL    HW3 3835   4.081   2.390   1.523
  951SOL    MW4 3836   4.017   2.438   1.488
  952SOL     OW 3837   4.026   2.693   1.577
  952SOL    HW2 3838   4.043   2.684   1.671
  952SOL    HW3 3839   4.092   2.755   1.546
  952SOL    MW4 3840   4.037   2.700   1.585
  953SOL     OW 3841   4.240   2.872   1.497
  953SOL    HW2 3842   4.259   2.961   1.527
  953SOL    HW3 3843   4.295   2.861   1.419
  953SOL    MW4 3844   4.250   2.882   1.491
  954SOL     OW 3845   4.225   3.114   1.599
  954SOL    HW2 3846   4.221   3.105   1.694
  954SOL    HW3 3847   4.312   3.148   1.581
  954SOL    MW4 3848   4.236   3.117   1.609
  955SOL     OW 3849   3.968   3.220   1.519
  955SOL    HW2 3850   3.984   3.307   1.555
  955SOL    HW3 3851   4.045   3.169   1.542
  955SOL    MW4 3852   3.980   3.224   1.527
  956SOL     OW 3853   4.042   3.472   1.572
  956SOL    HW2 3854   4.034   3.500   1.663
  956SOL    HW3 3855   4.113   3.525   1.536
  956SOL    MW4 3856   4.050   3.482   1.579
  957SOL     OW 3857   4.264   3.609   1.464
  957SOL    HW2 3858   4.278   3.695   1.504
  957SOL    HW3 3859   4.233   3.628   1.375
  957SOL    MW4 3860   4.262   3.623   1.458
  958SOL     OW 3861   4.250   3.860   1.565
  958SOL    HW2 3862   4.175   3.916   1.548
  958SOL    HW3 3863   4.326   3.914   1.542
  958SOL    MW4 3864   4.250   3.874   1.559
  959SOL     OW 3865   4.023   3.998   1.535
  959SOL    HW2 3866   4.009   4.088   1.566
  959SOL    HW3 3867   4.013   4.005   1.440
  959SOL    MW4 3868   4.020   4.011   1.526
  960SOL     OW 3869   4.007   4.247   1.637
  960SOL    HW2 3870   4.009   4.261   1.732
  960SOL    HW3 3871   3.932   4.297   1.607
  960SOL    MW4 3872   3.997   4.255   1.646
  961SOL     OW 3873   4.263   4.326   1.537
  961SOL    HW2 3874   4.171   4.306   1.556
  961SOL    HW3 3875   4.266   4.331   1.441
  961SOL    MW4 3876   4.251   4.324   1.527
  962SOL     OW 3877   0.260   4.650   1.941
  962SOL    HW2 3878   0.331   4.710   1.963
  962SOL    HW3 3879   0.257   4.651   1.845
  962SOL    MW4 3880   0.269   4.658   1.931
  963SOL     OW 3881   4.488   0.080   2.007
  963SOL    HW2 3882   4.481   0.167   1.968
  963SOL    HW3 3883   4.576   0.049   1.982
  963SOL    MW4 3884   4.499   0.087   1.998
  964SOL     OW 3885   0.008   0.336   1.873
  964SOL    HW2 3886  -0.075   0.373   1.903
  964SOL    HW3 3887   0.074   0.400   1.898
  964SOL    MW4 3888   0.006   0.349   1.880
  965SOL     OW 3889   0.211   0.485   1.966
  965SOL    HW2 3890   0.293   0.438   1.952
  965SOL    HW3 3891   0.227   0.573   1.931
  965SOL    MW4 3892   0.224   0.490   1.959
  966SOL     OW 3893   0.221   0.751   1.888
  966SOL    HW2 3894   0.292   0.810   1.912
  966SOL    HW3 3895   0.232   0.737   1.794
  966SOL    MW4 3896   0.232   0.757   1.879
  967SOL     OW 3897   4.481   0.902   1.942
  967SOL    HW2 3898   4.411   0.845   1.912
  967SOL    HW3 3899   4.561   0.849   1.933
  967SOL    MW4 3900   4.482   0.888   1.937
  968SOL     OW 3901   0.022   1.186   1.875
  968SOL    HW2 3902  -0.042   1.241   1.921
  968SOL    HW3 3903   0.000   1.096   1.901
  968SOL    MW4 3904   0.011   1.181   1.885
  969SOL     OW 3905   0.262   1.278   1.967
  969SOL    HW2 3906   0.257   1.368   1.935
  969SOL    HW3 3907   0.175   1.242   1.951
  969SOL    MW4 3908   0.250   1.285   1.960
  970SOL     OW 3909   0.202   1.558   1.889
  970SOL    HW2 3910   0.264   1.601   1.948
  970SOL    HW3 3911   0.118   1.600   1.907
  970SOL    MW4 3912   0.199   1.569   1.899
  971SOL     OW 3913   4.481   1.708   1.994
  971SOL    HW2 3914   4.475   1.701   2.090
  971SOL    HW3 3915   4.402   1.665   1.962
  971SOL    MW4 3916   4.470   1.701   2.003
  972SOL     OW 3917   4.451   1.952   1.881
  972SOL    HW2 3918   4.390   2.000   1.937
  972SOL    HW3 3919   4.466   1.869   1.928
  972SOL    MW4 3920   4.445   1.947   1.895
  973SOL     OW 3921   0.194   2.052   1.979
  973SOL    HW2 3922   0.192   2.141   1.943
  973SOL    HW3 3923   0.111   2.013   1.951
  973SOL    MW4 3924   0.182   2.059   1.971
  974SOL     OW 3925   0.205   2.308   1.878
  974SOL    HW2 3926   0.277   2.366   1.904
  974SOL    HW3 3927   0.128   2.347   1.918
  974SOL    MW4 3928   0.204   2.321   1.886
  975SOL     OW 3929   4.466   2.448   1.962
  975SOL    HW2 3930   4.472   2.444   2.058
  975SOL    HW3 3931   4.468   2.541   1.941
  975SOL    MW4 3932   4.467   2.459   1.972
  976SOL     OW 3933   4.436   2.717   1.914
  976SOL    HW2 3934   4.361   2.768   1.946
  976SOL    HW3 3935   4.434   2.730   1.819
  976SOL    MW4 3936   4.426   2.726   1.905
  977SOL     OW 3937   0.192   2.819   1.924
  977SOL    HW2 3938   0.181   2.913   1.908
  977SOL    HW3 3939   0.102   2.784   1.927
  977SOL    MW4 3940   0.179   2.827   1.922
  978SOL     OW 3941   0.194   3.092   1.865
  978SOL    HW2 3942   0.274   3.135   1.896
  978SOL    HW3 3943   0.206   3.085   1.770
  978SOL    MW4 3944   0.206   3.097   1.857
  979SOL     OW 3945   4.446   3.231   1.947
  979SOL    HW2 3946   4.371   3.183   1.911
  979SOL    HW3 3947   4.522   3.178   1.924
  979SOL    MW4 3948   4.446   3.217   1.939
  980SOL     OW 3949   4.479   3.495   1.846
  980SOL    HW2 3950   4.564   3.525   1.879
  980SOL    HW3 3951   4.464   3.412   1.890
  980SOL    MW4 3952   4.488   3.488   1.856
  981SOL     OW 3953   0.225   3.597   1.947
  981SOL    HW2 3954   0.228   3.619   2.040
  981SOL    HW3 3955   0.301   3.540   1.933
  981SOL    MW4 3956   0.236   3.592   1.957
  982SOL     OW 3957   0.210   3.862   1.853
  982SOL    HW2 3958   0.291   3.902   1.887
  982SOL    HW3 3959   0.207   3.776   1.894
  982SOL    MW4 3960   0.221   3.856   1.863
  983SOL     OW 3961   0.004   3.985   1.983
  983SOL    HW2 3962   0.026   4.074   1.955
  983SOL    HW3 3963   0.078   3.931   1.954
  983SOL    MW4 3964   0.017   3.989   1.976
  984SOL     OW 3965   0.025   4.264   1.927
  984SOL    HW2 3966  -0.064   4.294   1.947
  984SOL    HW3 3967   0.082   4.333   1.961
  984SOL    MW4 3968   0.021   4.277   1.934
  985SOL     OW 3969   0.231   4.393   2.046
  985SOL    HW2 3970   0.210   4.403   2.138
  985SOL    HW3 3971   0.227   4.481   2.010
  985SOL    MW4 3972   0.228   4.406   2.053
  986SOL     OW 3973   0.700   0.004   1.899
  986SOL    HW2 3974   0.691  -0.086   1.928
  986SOL    HW3 3975   0.688   0.001   1.804
  986SOL    MW4 3976   0.697  -0.008   1.890
  987SOL     OW 3977   0.471   0.139   2.001
  987SOL    HW2 3978   0.468   0.219   1.948
  987SOL    HW3 3979   0.544   0.089   1.967
  987SOL    MW4 3980   0.480   0.143   1.990
  988SOL     OW 3981   0.447   0.377   1.872
  988SOL    HW2 3982   0.532   0.417   1.890
  988SOL    HW3 3983   0.445   0.367   1.777
  988SOL    MW4 3984   0.458   0.381   1.862
  989SOL     OW 3985   0.688   0.483   1.980
  989SOL    HW2 3986   0.689   0.480   2.075
  989SOL    HW3 3987   0.762   0.428   1.953
  989SOL    MW4 3988   0.698   0.475   1.989
  990SOL     OW 3989   0.702   0.747   1.878
  990SOL    HW2 3990   0.768   0.795   1.928
  990SOL    HW3 3991   0.693   0.664   1.924
  990SOL    MW4 3992   0.710   0.742   1.891
  991SOL     OW 3993   0.460   0.866   1.939
  991SOL    HW2 3994   0.467   0.958   1.914
  991SOL    HW3 3995   0.545   0.829   1.916
  991SOL    MW4 3996   0.472   0.874   1.933
  992SOL     OW 3997   0.479   1.129   1.865
  992SOL    HW2 3998   0.398   1.174   1.892
  992SOL    HW3 3999   0.482   1.140   1.770
  992SOL    MW4 4000   0.468   1.136   1.856
  993SOL     OW 4001   0.718   1.251   1.997
  993SOL    HW2 4002   0.712   1.252   2.093
  993SOL    HW3 4003   0.633   1.218   1.968
  993SOL    MW4 4004   0.706   1.247   2.006
  994SOL     OW 4005   0.673   1.515   1.937
  994SOL    HW2 4006   0.689   1.424   1.963
  994SOL    HW3 4007   0.666   1.512   1.842
  994SOL    MW4 4008   0.674   1.502   1.928
  995SOL     OW 4009   0.418   1.650   2.028
  995SOL    HW2 4010   0.430   1.677   2.119
  995SOL    HW3 4011   0.497   1.601   2.006
  995SOL    MW4 4012   0.430   1.647   2.037
  996SOL     OW 4013   0.411   1.900   1.889
  996SOL    HW2 4014   0.402   1.820   1.942
  996SOL    HW3 4015   0.330   1.948   1.905
  996SOL    MW4 4016   0.399   1.895   1.898
  997SOL     OW 4017   0.638   2.049   1.941
  997SOL    HW2 4018   0.642   2.058   2.036
  997SOL    HW3 4019   0.558   1.999   1.925
  997SOL    MW4 4020   0.628   2.044   1.951
  998SOL     OW 4021   0.626   2.312   1.887
  998SOL    HW2 4022   0.622   2.219   1.909
  998SOL    HW3 4023   0.637   2.314   1.792
  998SOL    MW4 4024   0.627   2.300   1.877
  999SOL     OW 4025   0.411   2.453   1.968
  999SOL    HW2 4026   0.419   2.462   2.063
  999SOL    HW3 4027   0.495   2.417   1.940
  999SOL    MW4 4028   0.423   2.450   1.977
 1000SOL     OW 4029   0.437   2.717   1.873
 1000SOL    HW2 4030   0.435   2.628   1.909
 1000SOL    HW3 4031   0.351   2.753   1.895
 1000SOL    MW4 4032   0.425   2.710   1.881
 1001SOL     OW 4033   0.680   2.807   1.955
 1001SOL    HW2 4034   0.665   2.816   2.050
 1001SOL    HW3 4035   0.598   2.772   1.921
 1001SOL    MW4 4036   0.667   2.804   1.963
 1002SOL     OW 4037   0.671   3.091   1.908
 1002SOL    HW2 4038   0.683   2.998   1.927
 1002SOL    HW3 4039   0.676   3.098   1.813
 1002SOL    MW4 4040   0.673   3.080   1.898
 1003SOL     OW 4041   0.418   3.207   1.987
 1003SOL    HW2 4042   0.437   3.299   1.970
 1003SOL    HW3 4043   0.490   3.159   1.947
 1003SOL    MW4 4044   0.430   3.213   1.980
 1004SOL     OW 4045   0.458   3.472   1.898
 1004SOL    HW2 4046   0.536   3.525   1.916
 1004SOL    HW3 4047   0.447   3.477   1.803
 1004SOL    MW4 4048   0.467   3.480   1.888
 1005SOL     OW 4049   0.682   3.626   1.975
 1005SOL    HW2 4050   0.758   3.582   1.938
 1005SOL    HW3 4051   0.687   3.715   1.940
 1005SOL    MW4 4052   0.693   3.632   1.966
 1006SOL     OW 4053   0.668   3.907   1.893
 1006SOL    HW2 4054   0.755   3.946   1.908
 1006SOL    HW3 4055   0.655   3.915   1.798
 1006SOL    MW4 4056   0.678   3.913   1.882
 1007SOL     OW 4057   0.407   3.980   1.995
 1007SOL    HW2 4058   0.408   4.075   1.986
 1007SOL    HW3 4059   0.489   3.951   1.956
 1007SOL    MW4 4060   0.418   3.988   1.989
 1008SOL     OW 4061   0.410   4.240   1.907
 1008SOL    HW2 4062   0.349   4.295   1.957
 1008SOL    HW3 4063   0.386   4.254   1.815
 1008SOL    MW4 4064   0.399   4.249   1.901
 1009SOL     OW 4065   0.643   4.396   2.008
 1009SOL    HW2 4066   0.721   4.353   1.974
 1009SOL    HW3 4067   0.570   4.353   1.963
 1009SOL    MW4 4068   0.644   4.384   1.998
 1010SOL     OW 4069   1.118   4.638   1.848
 1010SOL    HW2 4070   1.194   4.682   1.886
 1010SOL    HW3 4071   1.104   4.562   1.905
 1010SOL    MW4 4072   1.126   4.634   1.861
 1011SOL     OW 4073   0.928   0.097   2.012
 1011SOL    HW2 4074   0.988   0.056   1.950
 1011SOL    HW3 4075   0.841   0.068   1.985
 1011SOL    MW4 4076   0.924   0.088   2.000
 1012SOL     OW 4077   0.926   0.366   1.908
 1012SOL    HW2 4078   0.999   0.424   1.928
 1012SOL    HW3 4079   0.950   0.282   1.948
 1012SOL    MW4 4080   0.939   0.363   1.916
 1013SOL     OW 4081   1.151   0.499   1.993
 1013SOL    HW2 4082   1.213   0.468   1.926
 1013SOL    HW3 4083   1.129   0.588   1.966
 1013SOL    MW4 4084   1.157   0.506   1.981
 1014SOL     OW 4085   1.127   0.764   1.858
 1014SOL    HW2 4086   1.202   0.794   1.909
 1014SOL    HW3 4087   1.051   0.804   1.901
 1014SOL    MW4 4088   1.127   0.774   1.871
 1015SOL     OW 4089   0.912   0.886   1.991
 1015SOL    HW2 4090   0.904   0.906   2.084
 1015SOL    HW3 4091   0.932   0.971   1.951
 1015SOL    MW4 4092   0.914   0.900   1.998
 1016SOL     OW 4093   0.938   1.127   1.873
 1016SOL    HW2 4094   0.856   1.166   1.903
 1016SOL    HW3 4095   0.936   1.137   1.778
 1016SOL    MW4 4096   0.927   1.133   1.864
 1017SOL     OW 4097   1.154   1.282   1.967
 1017SOL    HW2 4098   1.160   1.370   1.929
 1017SOL    HW3 4099   1.075   1.245   1.927
 1017SOL    MW4 4100   1.144   1.289   1.957
 1018SOL     OW 4101   1.139   1.545   1.871
 1018SOL    HW2 4102   1.059   1.563   1.920
 1018SOL    HW3 4103   1.111   1.540   1.780
 1018SOL    MW4 4104   1.125   1.547   1.865
 1019SOL     OW 4105   0.899   1.644   2.008
 1019SOL    HW2 4106   0.904   1.728   1.962
 1019SOL    HW3 4107   0.815   1.607   1.983
 1019SOL    MW4 4108   0.889   1.650   1.999
 1020SOL     OW 4109   0.881   1.893   1.888
 1020SOL    HW2 4110   0.807   1.951   1.908
 1020SOL    HW3 4111   0.896   1.906   1.794
 1020SOL    MW4 4112   0.873   1.903   1.878
 1021SOL     OW 4113   1.109   2.038   1.978
 1021SOL    HW2 4114   1.097   2.131   1.959
 1021SOL    HW3 4115   1.027   1.997   1.952
 1021SOL    MW4 4116   1.097   2.045   1.972
 1022SOL     OW 4117   1.111   2.303   1.884
 1022SOL    HW2 4118   1.178   2.347   1.936
 1022SOL    HW3 4119   1.133   2.323   1.793
 1022SOL    MW4 4120   1.123   2.312   1.879
 1023SOL     OW 4121   0.873   2.422   1.956
 1023SOL    HW2 4122   0.940   2.362   1.924
 1023SOL    HW3 4123   0.790   2.380   1.934
 1023SOL    MW4 4124   0.871   2.409   1.949
 1024SOL     OW 4125   0.899   2.687   1.879
 1024SOL    HW2 4126   0.900   2.594   1.901
 1024SOL    HW3 4127   0.815   2.720   1.912
 1024SOL    MW4 4128   0.888   2.679   1.886
 1025SOL     OW 4129   1.128   2.822   1.985
 1025SOL    HW2 4130   1.115   2.827   2.079
 1025SOL    HW3 4131   1.051   2.775   1.952
 1025SOL    MW4 4132   1.116   2.817   1.993
 1026SOL     OW 4133   1.101   3.075   1.808
 1026SOL    HW2 4134   1.030   3.114   1.860
 1026SOL    HW3 4135   1.113   2.988   1.846
 1026SOL    MW4 4136   1.093   3.069   1.820
 1027SOL     OW 4137   0.917   3.202   1.963
 1027SOL    HW2 4138   0.924   3.229   2.054
 1027SOL    HW3 4139   0.826   3.173   1.953
 1027SOL    MW4 4140   0.906   3.202   1.973
 1028SOL     OW 4141   0.897   3.463   1.888
 1028SOL    HW2 4142   0.894   3.374   1.923
 1028SOL    HW3 4143   0.915   3.451   1.795
 1028SOL    MW4 4144   0.899   3.450   1.880
 1029SOL     OW 4145   1.107   3.620   1.972
 1029SOL    HW2 4146   1.099   3.627   2.068
 1029SOL    HW3 4147   1.030   3.570   1.946
 1029SOL    MW4 4148   1.096   3.614   1.981
 1030SOL     OW 4149   1.128   3.879   1.886
 1030SOL    HW2 4150   1.118   3.792   1.925
 1030SOL    HW3 4151   1.126   3.863   1.791
 1030SOL    MW4 4152   1.126   3.865   1.878
 1031SOL     OW 4153   0.906   4.019   1.956
 1031SOL    HW2 4154   0.910   4.022   2.052
 1031SOL    HW3 4155   0.987   3.976   1.929
 1031SOL    MW4 4156   0.917   4.014   1.965
 1032SOL     OW 4157   0.862   4.286   1.860
 1032SOL    HW2 4158   0.942   4.329   1.890
 1032SOL    HW3 4159   0.872   4.195   1.886
 1032SOL    MW4 4160   0.874   4.280   1.867
 1033SOL     OW 4161   1.121   4.387   1.970
 1033SOL    HW2 4162   1.132   4.376   2.064
 1033SOL    HW3 4163   1.186   4.327   1.932
 1033SOL    MW4 4164   1.131   4.378   1.977
 1034SOL     OW 4165   1.565   4.612   1.865
 1034SOL    HW2 4166   1.642   4.666   1.884
 1034SOL    HW3 4167   1.572   4.539   1.926
 1034SOL    MW4 4168   1.576   4.610   1.875
 1035SOL     OW 4169   1.333   0.112   1.947
 1035SOL    HW2 4170   1.333   0.098   2.041
 1035SOL    HW3 4171   1.410   0.065   1.915
 1035SOL    MW4 4172   1.343   0.104   1.955
 1036SOL     OW 4173   1.365   0.369   1.861
 1036SOL    HW2 4174   1.336   0.287   1.901
 1036SOL    HW3 4175   1.366   0.351   1.767
 1036SOL    MW4 4176   1.361   0.356   1.854
 1037SOL     OW 4177   1.547   0.519   2.006
 1037SOL    HW2 4178   1.624   0.471   1.976
 1037SOL    HW3 4179   1.473   0.476   1.963
 1037SOL    MW4 4180   1.547   0.507   1.996
 1038SOL     OW 4181   1.600   0.750   1.860
 1038SOL    HW2 4182   1.684   0.773   1.899
 1038SOL    HW3 4183   1.578   0.665   1.898
 1038SOL    MW4 4184   1.608   0.742   1.870
 1039SOL     OW 4185   1.361   0.862   1.980
 1039SOL    HW2 4186   1.361   0.873   2.075
 1039SOL    HW3 4187   1.451   0.835   1.959
 1039SOL    MW4 4188   1.373   0.860   1.990
 1040SOL     OW 4189   1.363   1.126   1.876
 1040SOL    HW2 4190   1.351   1.037   1.909
 1040SOL    HW3 4191   1.290   1.176   1.914
 1040SOL    MW4 4192   1.352   1.121   1.885
 1041SOL     OW 4193   1.578   1.238   2.036
 1041SOL    HW2 4194   1.562   1.328   2.007
 1041SOL    HW3 4195   1.509   1.187   1.994
 1041SOL    MW4 4196   1.567   1.243   2.027
 1042SOL     OW 4197   1.602   1.491   1.919
 1042SOL    HW2 4198   1.680   1.543   1.936
 1042SOL    HW3 4199   1.529   1.548   1.945
 1042SOL    MW4 4200   1.603   1.505   1.925
 1043SOL     OW 4201   1.391   1.666   1.977
 1043SOL    HW2 4202   1.375   1.654   2.070
 1043SOL    HW3 4203   1.309   1.640   1.935
 1043SOL    MW4 4204   1.378   1.661   1.983
 1044SOL     OW 4205   1.356   1.937   1.891
 1044SOL    HW2 4206   1.360   1.842   1.905
 1044SOL    HW3 4207   1.267   1.962   1.918
 1044SOL    MW4 4208   1.344   1.928   1.896
 1045SOL     OW 4209   1.582   2.072   1.974
 1045SOL    HW2 4210   1.566   2.162   1.947
 1045SOL    HW3 4211   1.500   2.026   1.956
 1045SOL    MW4 4212   1.569   2.078   1.968
 1046SOL     OW 4213   1.560   2.327   1.911
 1046SOL    HW2 4214   1.646   2.359   1.940
 1046SOL    HW3 4215   1.561   2.340   1.816
 1046SOL    MW4 4216   1.572   2.333   1.902
 1047SOL     OW 4217   1.320   2.462   1.985
 1047SOL    HW2 4218   1.313   2.545   1.938
 1047SOL    HW3 4219   1.405   2.426   1.959
 1047SOL    MW4 4220   1.330   2.468   1.976
 1048SOL     OW 4221   1.351   2.701   1.873
 1048SOL    HW2 4222   1.283   2.744   1.925
 1048SOL    HW3 4223   1.343   2.740   1.786
 1048SOL    MW4 4224   1.341   2.712   1.869
 1049SOL     OW 4225   1.586   2.817   1.988
 1049SOL    HW2 4226   1.660   2.775   1.944
 1049SOL    HW3 4227   1.510   2.764   1.962
 1049SOL    MW4 4228   1.586   2.805   1.979
 1050SOL     OW 4229   1.561   3.082   1.915
 1050SOL    HW2 4230   1.557   2.987   1.922
 1050SOL    HW3 4231   1.568   3.099   1.821
 1050SOL    MW4 4232   1.561   3.072   1.903
 1051SOL     OW 4233   1.320   3.191   2.015
 1051SOL    HW2 4234   1.404   3.154   1.987
 1051SOL    HW3 4235   1.256   3.157   1.952
 1051SOL    MW4 4236   1.323   3.182   2.003
 1052SOL     OW 4237   1.325   3.468   1.920
 1052SOL    HW2 4238   1.312   3.378   1.949
 1052SOL    HW3 4239   1.246   3.514   1.949
 1052SOL    MW4 4240   1.313   3.462   1.928
 1053SOL     OW 4241   1.570   3.581   2.018
 1053SOL    HW2 4242   1.561   3.608   2.109
 1053SOL    HW3 4243   1.485   3.542   1.996
 1053SOL    MW4 4244   1.558   3.580   2.027
 1054SOL     OW 4245   1.576   3.804   1.858
 1054SOL    HW2 4246   1.644   3.854   1.904
 1054SOL    HW3 4247   1.576   3.719   1.902
 1054SOL    MW4 4248   1.585   3.799   1.870
 1055SOL     OW 4249   1.364   3.985   1.966
 1055SOL    HW2 4250   1.440   3.931   1.945
 1055SOL    HW3 4251   1.289   3.932   1.938
 1055SOL    MW4 4252   1.364   3.971   1.960
 1056SOL     OW 4253   1.328   4.244   1.876
 1056SOL    HW2 4254   1.320   4.152   1.899
 1056SOL    HW3 4255   1.310   4.249   1.783
 1056SOL    MW4 4256   1.325   4.233   1.867
 1057SOL     OW 4257   1.577   4.346   1.975
 1057SOL    HW2 4258   1.556   4.360   2.068
 1057SOL    HW3 4259   1.497   4.312   1.937
 1057SOL    MW4 4260   1.564   4.344   1.982
 1058SOL     OW 4261   2.000   4.649   1.855
 1058SOL    HW2 4262   2.086   4.688   1.872
 1058SOL    HW3 4263   2.000   4.567   1.904
 1058SOL    MW4 4264   2.012   4.643   1.864
 1059SOL     OW 4265   1.783   0.116   1.939
 1059SOL    HW2 4266   1.809   0.110   2.031
 1059SOL    HW3 4267   1.854   0.071   1.891
 1059SOL    MW4 4268   1.796   0.109   1.944
 1060SOL     OW 4269   1.778   0.392   1.908
 1060SOL    HW2 4270   1.779   0.298   1.929
 1060SOL    HW3 4271   1.760   0.394   1.814
 1060SOL    MW4 4272   1.775   0.380   1.898
 1061SOL     OW 4273   2.033   0.527   1.955
 1061SOL    HW2 4274   2.041   0.614   1.916
 1061SOL    HW3 4275   1.941   0.504   1.943
 1061SOL    MW4 4276   2.022   0.535   1.948
 1062SOL     OW 4277   2.067   0.787   1.840
 1062SOL    HW2 4278   2.151   0.826   1.863
 1062SOL    HW3 4279   2.070   0.777   1.745
 1062SOL    MW4 4280   2.078   0.791   1.830
 1063SOL     OW 4281   1.823   0.865   1.966
 1063SOL    HW2 4282   1.818   0.960   1.957
 1063SOL    HW3 4283   1.890   0.839   1.902
 1063SOL    MW4 4284   1.831   0.874   1.956
 1064SOL     OW 4285   1.788   1.132   1.889
 1064SOL    HW2 4286   1.721   1.181   1.938
 1064SOL    HW3 4287   1.779   1.164   1.799
 1064SOL    MW4 4288   1.778   1.143   1.884
 1065SOL     OW 4289   2.046   1.225   2.005
 1065SOL    HW2 4290   2.131   1.216   1.961
 1065SOL    HW3 4291   1.985   1.179   1.949
 1065SOL    MW4 4292   2.049   1.218   1.992
 1066SOL     OW 4293   1.998   1.518   1.921
 1066SOL    HW2 4294   1.975   1.430   1.951
 1066SOL    HW3 4295   1.992   1.513   1.826
 1066SOL    MW4 4296   1.994   1.506   1.913
 1067SOL     OW 4297   1.794   1.684   1.993
 1067SOL    HW2 4298   1.801   1.778   1.976
 1067SOL    HW3 4299   1.878   1.648   1.966
 1067SOL    MW4 4300   1.806   1.692   1.987
 1068SOL     OW 4301   1.818   1.965   1.920
 1068SOL    HW2 4302   1.730   1.997   1.940
 1068SOL    HW3 4303   1.818   1.952   1.825
 1068SOL    MW4 4304   1.806   1.968   1.910
 1069SOL     OW 4305   2.051   2.027   2.047
 1069SOL    HW2 4306   2.127   1.988   2.003
 1069SOL    HW3 4307   1.976   1.997   1.996
 1069SOL    MW4 4308   2.051   2.018   2.034
 1070SOL     OW 4309   2.010   2.266   1.905
 1070SOL    HW2 4310   2.077   2.329   1.932
 1070SOL    HW3 4311   2.020   2.193   1.966
 1070SOL    MW4 4312   2.020   2.264   1.917
 1071SOL     OW 4313   1.804   2.421   1.978
 1071SOL    HW2 4314   1.789   2.425   2.072
 1071SOL    HW3 4315   1.879   2.362   1.968
 1071SOL    MW4 4316   1.812   2.414   1.989
 1072SOL     OW 4317   1.803   2.712   1.874
 1072SOL    HW2 4318   1.797   2.620   1.900
 1072SOL    HW3 4319   1.808   2.710   1.779
 1072SOL    MW4 4320   1.803   2.699   1.865
 1073SOL     OW 4321   2.015   2.842   2.001
 1073SOL    HW2 4322   2.012   2.820   2.094
 1073SOL    HW3 4323   1.933   2.807   1.966
 1073SOL    MW4 4324   2.004   2.834   2.009
 1074SOL     OW 4325   2.007   3.082   1.852
 1074SOL    HW2 4326   1.932   3.121   1.896
 1074SOL    HW3 4327   2.018   2.996   1.893
 1074SOL    MW4 4328   1.999   3.076   1.863
 1075SOL     OW 4329   1.802   3.228   1.979
 1075SOL    HW2 4330   1.821   3.238   2.072
 1075SOL    HW3 4331   1.724   3.172   1.977
 1075SOL    MW4 4332   1.795   3.222   1.991
 1076SOL     OW 4333   1.794   3.485   1.892
 1076SOL    HW2 4334   1.801   3.392   1.917
 1076SOL    HW3 4335   1.708   3.512   1.925
 1076SOL    MW4 4336   1.783   3.476   1.900
 1077SOL     OW 4337   2.025   3.615   1.975
 1077SOL    HW2 4338   2.024   3.704   1.939
 1077SOL    HW3 4339   1.937   3.582   1.959
 1077SOL    MW4 4340   2.013   3.622   1.968
 1078SOL     OW 4341   1.989   3.867   1.884
 1078SOL    HW2 4342   2.072   3.899   1.919
 1078SOL    HW3 4343   2.007   3.849   1.792
 1078SOL    MW4 4344   2.003   3.869   1.876
 1079SOL     OW 4345   1.759   3.984   1.978
 1079SOL    HW2 4346   1.758   4.074   1.946
 1079SOL    HW3 4347   1.841   3.947   1.945
 1079SOL    MW4 4348   1.770   3.991   1.969
 1080SOL     OW 4349   1.789   4.251   1.842
 1080SOL    HW2 4350   1.715   4.292   1.887
 1080SOL    HW3 4351   1.762   4.247   1.750
 1080SOL    MW4 4352   1.776   4.256   1.836
 1081SOL     OW 4353   2.011   4.405   1.982
 1081SOL    HW2 4354   2.088   4.363   1.944
 1081SOL    HW3 4355   1.937   4.364   1.936
 1081SOL    MW4 4356   2.011   4.394   1.971
 1082SOL     OW 4357   2.493   0.004   1.862
 1082SOL    HW2 4358   2.571   0.037   1.907
 1082SOL    HW3 4359   2.472  -0.078   1.907
 1082SOL    MW4 4360   2.501  -0.002   1.874
 1083SOL     OW 4361   2.256   0.132   1.919
 1083SOL    HW2 4362   2.232   0.134   2.012
 1083SOL    HW3 4363   2.342   0.090   1.917
 1083SOL    MW4 4364   2.265   0.127   1.931
 1084SOL     OW 4365   2.256   0.381   1.829
 1084SOL    HW2 4366   2.258   0.295   1.872
 1084SOL    HW3 4367   2.175   0.421   1.860
 1084SOL    MW4 4368   2.246   0.375   1.839
 1085SOL     OW 4369   2.466   0.493   1.954
 1085SOL    HW2 4370   2.542   0.460   1.906
 1085SOL    HW3 4371   2.390   0.459   1.906
 1085SOL    MW4 4372   2.466   0.484   1.941
 1086SOL     OW 4373   2.558   0.740   1.883
 1086SOL    HW2 4374   2.538   0.650   1.909
 1086SOL    HW3 4375   2.544   0.741   1.788
 1086SOL    MW4 4376   2.554   0.728   1.874
 1087SOL     OW 4377   2.323   0.887   1.956
 1087SOL    HW2 4378   2.314   0.889   2.052
 1087SOL    HW3 4379   2.407   0.844   1.941
 1087SOL    MW4 4380   2.333   0.881   1.967
 1088SOL     OW 4381   2.291   1.157   1.876
 1088SOL    HW2 4382   2.365   1.205   1.914
 1088SOL    HW3 4383   2.295   1.070   1.916
 1088SOL    MW4 4384   2.301   1.152   1.886
 1089SOL     OW 4385   2.506   1.289   1.958
 1089SOL    HW2 4386   2.507   1.295   2.054
 1089SOL    HW3 4387   2.506   1.380   1.928
 1089SOL    MW4 4388   2.506   1.301   1.967
 1090SOL     OW 4389   2.495   1.566   1.874
 1090SOL    HW2 4390   2.410   1.586   1.913
 1090SOL    HW3 4391   2.483   1.583   1.780
 1090SOL    MW4 4392   2.482   1.571   1.867
 1091SOL     OW 4393   2.256   1.628   1.967
 1091SOL    HW2 4394   2.248   1.648   2.060
 1091SOL    HW3 4395   2.172   1.586   1.945
 1091SOL    MW4 4396   2.244   1.625   1.976
 1092SOL     OW 4397   2.269   1.904   1.914
 1092SOL    HW2 4398   2.355   1.929   1.946
 1092SOL    HW3 4399   2.262   1.811   1.932
 1092SOL    MW4 4400   2.279   1.895   1.920
 1093SOL     OW 4401   2.505   2.033   1.984
 1093SOL    HW2 4402   2.583   2.010   1.933
 1093SOL    HW3 4403   2.485   2.123   1.958
 1093SOL    MW4 4404   2.513   2.042   1.974
 1094SOL     OW 4405   2.476   2.309   1.929
 1094SOL    HW2 4406   2.545   2.367   1.961
 1094SOL    HW3 4407   2.394   2.352   1.954
 1094SOL    MW4 4408   2.474   2.322   1.937
 1095SOL     OW 4409   2.232   2.425   2.002
 1095SOL    HW2 4410   2.227   2.426   2.097
 1095SOL    HW3 4411   2.228   2.518   1.977
 1095SOL    MW4 4412   2.231   2.438   2.011
 1096SOL     OW 4413   2.237   2.679   1.925
 1096SOL    HW2 4414   2.157   2.718   1.962
 1096SOL    HW3 4415   2.229   2.694   1.831
 1096SOL    MW4 4416   2.225   2.686   1.918
 1097SOL     OW 4417   2.446   2.821   1.992
 1097SOL    HW2 4418   2.428   2.912   1.969
 1097SOL    HW3 4419   2.367   2.773   1.967
 1097SOL    MW4 4420   2.433   2.826   1.986
 1098SOL     OW 4421   2.483   3.094   1.866
 1098SOL    HW2 4422   2.394   3.126   1.879
 1098SOL    HW3 4423   2.491   3.084   1.771
 1098SOL    MW4 4424   2.472   3.097   1.855
 1099SOL     OW 4425   2.244   3.195   1.939
 1099SOL    HW2 4426   2.239   3.170   2.031
 1099SOL    HW3 4427   2.156   3.182   1.906
 1099SOL    MW4 4428   2.232   3.190   1.947
 1100SOL     OW 4429   2.251   3.473   1.846
 1100SOL    HW2 4430   2.252   3.385   1.884
 1100SOL    HW3 4431   2.188   3.521   1.900
 1100SOL    MW4 4432   2.243   3.468   1.858
 1101SOL     OW 4433   2.453   3.659   1.933
 1101SOL    HW2 4434   2.446   3.648   2.027
 1101SOL    HW3 4435   2.397   3.592   1.896
 1101SOL    MW4 4436   2.445   3.649   1.940
 1102SOL     OW 4437   2.449   3.915   1.838
 1102SOL    HW2 4438   2.368   3.952   1.873
 1102SOL    HW3 4439   2.460   3.832   1.886
 1102SOL    MW4 4440   2.439   3.909   1.849
 1103SOL     OW 4441   2.226   4.009   1.966
 1103SOL    HW2 4442   2.257   4.020   2.056
 1103SOL    HW3 4443   2.216   4.098   1.934
 1103SOL    MW4 4444   2.229   4.022   1.974
 1104SOL     OW 4445   2.232   4.272   1.866
 1104SOL    HW2 4446   2.316   4.314   1.884
 1104SOL    HW3 4447   2.222   4.278   1.771
 1104SOL    MW4 4448   2.242   4.278   1.856
 1105SOL     OW 4449   2.463   4.398   1.960
 1105SOL    HW2 4450   2.455   4.382   2.054
 1105SOL    HW3 4451   2.550   4.365   1.938
 1105SOL    MW4 4452   2.473   4.391   1.970
 1106SOL     OW 4453   2.928   4.621   1.864
 1106SOL    HW2 4454   3.007   4.661   1.900
 1106SOL    HW3 4455   2.922   4.537   1.910
 1106SOL    MW4 4456   2.938   4.615   1.875
 1107SOL     OW 4457   2.716   0.116   1.960
 1107SOL    HW2 4458   2.709   0.097   2.053
 1107SOL    HW3 4459   2.789   0.063   1.929
 1107SOL    MW4 4460   2.724   0.107   1.968
 1108SOL     OW 4461   2.706   0.378   1.845
 1108SOL    HW2 4462   2.788   0.415   1.876
 1108SOL    HW3 4463   2.707   0.288   1.875
 1108SOL    MW4 4464   2.717   0.371   1.853
 1109SOL     OW 4465   2.920   0.470   1.969
 1109SOL    HW2 4466   3.002   0.437   1.933
 1109SOL    HW3 4467   2.913   0.560   1.936
 1109SOL    MW4 4468   2.930   0.478   1.960
 1110SOL     OW 4469   2.948   0.728   1.870
 1110SOL    HW2 4470   3.037   0.757   1.893
 1110SOL    HW3 4471   2.892   0.801   1.898
 1110SOL    MW4 4472   2.952   0.742   1.877
 1111SOL     OW 4473   2.762   0.891   2.005
 1111SOL    HW2 4474   2.749   0.971   1.954
 1111SOL    HW3 4475   2.696   0.830   1.973
 1111SOL    MW4 4476   2.751   0.893   1.994
 1112SOL     OW 4477   2.704   1.129   1.867
 1112SOL    HW2 4478   2.635   1.188   1.897
 1112SOL    HW3 4479   2.697   1.132   1.771
 1112SOL    MW4 4480   2.694   1.137   1.858
 1113SOL     OW 4481   2.957   1.268   1.974
 1113SOL    HW2 4482   2.954   1.357   1.937
 1113SOL    HW3 4483   2.881   1.224   1.936
 1113SOL    MW4 4484   2.947   1.274   1.964
 1114SOL     OW 4485   2.912   1.527   1.896
 1114SOL    HW2 4486   2.995   1.557   1.931
 1114SOL    HW3 4487   2.922   1.531   1.801
 1114SOL    MW4 4488   2.924   1.531   1.888
 1115SOL     OW 4489   2.724   1.668   2.009
 1115SOL    HW2 4490   2.787   1.612   1.964
 1115SOL    HW3 4491   2.639   1.644   1.972
 1115SOL    MW4 4492   2.721   1.657   1.998
 1116SOL     OW 4493   2.741   1.922   1.867
 1116SOL    HW2 4494   2.804   1.966   1.924
 1116SOL    HW3 4495   2.730   1.836   1.906
 1116SOL    MW4 4496   2.748   1.917   1.879
 1117SOL     OW 4497   2.968   2.031   1.960
 1117SOL    HW2 4498   2.999   2.053   2.048
 1117SOL    HW3 4499   3.039   1.981   1.921
 1117SOL    MW4 4500   2.981   2.027   1.967
 1118SOL     OW 4501   2.907   2.293   1.896
 1118SOL    HW2 4502   2.989   2.338   1.916
 1118SOL    HW3 4503   2.924   2.201   1.916
 1118SOL    MW4 4504   2.920   2.287   1.901
 1119SOL     OW 4505   2.693   2.464   2.007
 1119SOL    HW2 4506   2.685   2.555   1.979
 1119SOL    HW3 4507   2.779   2.436   1.975
 1119SOL    MW4 4508   2.703   2.472   1.999
 1120SOL     OW 4509   2.674   2.721   1.877
 1120SOL    HW2 4510   2.586   2.753   1.897
 1120SOL    HW3 4511   2.678   2.720   1.782
 1120SOL    MW4 4512   2.663   2.725   1.867
 1121SOL     OW 4513   2.908   2.835   1.980
 1121SOL    HW2 4514   2.904   2.920   1.936
 1121SOL    HW3 4515   2.836   2.785   1.942
 1121SOL    MW4 4516   2.898   2.840   1.969
 1122SOL     OW 4517   2.907   3.098   1.866
 1122SOL    HW2 4518   2.982   3.123   1.921
 1122SOL    HW3 4519   2.836   3.155   1.895
 1122SOL    MW4 4520   2.908   3.109   1.877
 1123SOL     OW 4521   2.694   3.227   1.975
 1123SOL    HW2 4522   2.705   3.314   1.938
 1123SOL    HW3 4523   2.609   3.198   1.943
 1123SOL    MW4 4524   2.684   3.235   1.966
 1124SOL     OW 4525   2.702   3.504   1.856
 1124SOL    HW2 4526   2.782   3.546   1.887
 1124SOL    HW3 4527   2.632   3.545   1.906
 1124SOL    MW4 4528   2.704   3.515   1.867
 1125SOL     OW 4529   2.929   3.611   1.971
 1125SOL    HW2 4530   2.925   3.618   2.067
 1125SOL    HW3 4531   2.998   3.546   1.955
 1125SOL    MW4 4532   2.938   3.603   1.982
 1126SOL     OW 4533   2.930   3.874   1.875
 1126SOL    HW2 4534   2.931   3.782   1.901
 1126SOL    HW3 4535   2.938   3.872   1.780
 1126SOL    MW4 4536   2.931   3.861   1.866
 1127SOL     OW 4537   2.696   3.999   1.966
 1127SOL    HW2 4538   2.770   3.958   1.922
 1127SOL    HW3 4539   2.619   3.966   1.920
 1127SOL    MW4 4540   2.696   3.989   1.954
 1128SOL     OW 4541   2.704   4.281   1.884
 1128SOL    HW2 4542   2.699   4.190   1.915
 1128SOL    HW3 4543   2.673   4.277   1.793
 1128SOL    MW4 4544   2.699   4.268   1.876
 1129SOL     OW 4545   2.934   4.367   1.981
 1129SOL    HW2 4546   2.925   4.356   2.076
 1129SOL    HW3 4547   2.856   4.326   1.945
 1129SOL    MW4 4548   2.923   4.360   1.989
 1130SOL     OW 4549   3.385   4.637   1.907
 1130SOL    HW2 4550   3.372   4.546   1.933
 1130SOL    HW3 4551   3.378   4.636   1.812
 1130SOL    MW4 4552   3.382   4.625   1.898
 1131SOL     OW 4553   3.143   0.082   1.974
 1131SOL    HW2 4554   3.145   0.091   2.069
 1131SOL    HW3 4555   3.228   0.045   1.952
 1131SOL    MW4 4556   3.154   0.079   1.984
 1132SOL     OW 4557   3.145   0.341   1.885
 1132SOL    HW2 4558   3.144   0.251   1.917
 1132SOL    HW3 4559   3.138   0.333   1.790
 1132SOL    MW4 4560   3.144   0.328   1.877
 1133SOL     OW 4561   3.345   0.504   2.002
 1133SOL    HW2 4562   3.420   0.458   1.963
 1133SOL    HW3 4563   3.271   0.445   1.988
 1133SOL    MW4 4564   3.345   0.490   1.995
 1134SOL     OW 4565   3.428   0.733   1.848
 1134SOL    HW2 4566   3.358   0.796   1.863
 1134SOL    HW3 4567   3.398   0.653   1.890
 1134SOL    MW4 4568   3.415   0.731   1.855
 1135SOL     OW 4569   3.199   0.884   1.917
 1135SOL    HW2 4570   3.177   0.877   2.010
 1135SOL    HW3 4571   3.194   0.978   1.899
 1135SOL    MW4 4572   3.195   0.896   1.927
 1136SOL     OW 4573   3.188   1.156   1.880
 1136SOL    HW2 4574   3.272   1.188   1.911
 1136SOL    HW3 4575   3.124   1.197   1.938
 1136SOL    MW4 4576   3.191   1.166   1.891
 1137SOL     OW 4577   3.420   1.255   1.968
 1137SOL    HW2 4578   3.410   1.252   2.063
 1137SOL    HW3 4579   3.409   1.347   1.945
 1137SOL    MW4 4580   3.417   1.267   1.977
 1138SOL     OW 4581   3.376   1.510   1.876
 1138SOL    HW2 4582   3.451   1.567   1.897
 1138SOL    HW3 4583   3.303   1.547   1.926
 1138SOL    MW4 4584   3.376   1.523   1.885
 1139SOL     OW 4585   3.161   1.618   2.002
 1139SOL    HW2 4586   3.166   1.647   2.094
 1139SOL    HW3 4587   3.151   1.698   1.952
 1139SOL    MW4 4588   3.160   1.632   2.008
 1140SOL     OW 4589   3.153   1.867   1.859
 1140SOL    HW2 4590   3.223   1.928   1.879
 1140SOL    HW3 4591   3.134   1.881   1.766
 1140SOL    MW4 4592   3.159   1.877   1.849
 1141SOL     OW 4593   3.354   2.023   1.970
 1141SOL    HW2 4594   3.437   1.988   1.936
 1141SOL    HW3 4595   3.361   2.117   1.953
 1141SOL    MW4 4596   3.366   2.031   1.963
 1142SOL     OW 4597   3.364   2.283   1.872
 1142SOL    HW2 4598   3.289   2.340   1.889
 1142SOL    HW3 4599   3.369   2.277   1.777
 1142SOL    MW4 4600   3.355   2.290   1.862
 1143SOL     OW 4601   3.134   2.449   1.944
 1143SOL    HW2 4602   3.134   2.440   2.039
 1143SOL    HW3 4603   3.127   2.544   1.929
 1143SOL    MW4 4604   3.133   2.461   1.954
 1144SOL     OW 4605   3.133   2.711   1.879
 1144SOL    HW2 4606   3.056   2.763   1.903
 1144SOL    HW3 4607   3.126   2.702   1.784
 1144SOL    MW4 4608   3.122   2.717   1.869
 1145SOL     OW 4609   3.373   2.832   1.946
 1145SOL    HW2 4610   3.373   2.834   2.041
 1145SOL    HW3 4611   3.295   2.781   1.922
 1145SOL    MW4 4612   3.363   2.825   1.955
 1146SOL     OW 4613   3.324   3.095   1.859
 1146SOL    HW2 4614   3.400   3.151   1.875
 1146SOL    HW3 4615   3.345   3.014   1.905
 1146SOL    MW4 4616   3.337   3.091   1.867
 1147SOL     OW 4617   3.117   3.216   2.009
 1147SOL    HW2 4618   3.109   3.307   1.979
 1147SOL    HW3 4619   3.190   3.180   1.958
 1147SOL    MW4 4620   3.126   3.224   1.999
 1148SOL     OW 4621   3.126   3.453   1.878
 1148SOL    HW2 4622   3.213   3.489   1.891
 1148SOL    HW3 4623   3.110   3.460   1.784
 1148SOL    MW4 4624   3.135   3.459   1.867
 1149SOL     OW 4625   3.343   3.568   1.998
 1149SOL    HW2 4626   3.420   3.534   1.954
 1149SOL    HW3 4627   3.326   3.652   1.955
 1149SOL    MW4 4628   3.351   3.575   1.987
 1150SOL     OW 4629   3.343   3.811   1.848
 1150SOL    HW2 4630   3.294   3.886   1.883
 1150SOL    HW3 4631   3.336   3.820   1.753
 1150SOL    MW4 4632   3.335   3.822   1.840
 1151SOL     OW 4633   3.177   4.011   1.944
 1151SOL    HW2 4634   3.167   3.995   2.038
 1151SOL    HW3 4635   3.099   3.972   1.904
 1151SOL    MW4 4636   3.166   4.004   1.951
 1152SOL     OW 4637   3.147   4.257   1.834
 1152SOL    HW2 4638   3.164   4.171   1.872
 1152SOL    HW3 4639   3.071   4.290   1.882
 1152SOL    MW4 4640   3.139   4.250   1.845
 1153SOL     OW 4641   3.355   4.356   1.988
 1153SOL    HW2 4642   3.426   4.306   1.947
 1153SOL    HW3 4643   3.276   4.326   1.943
 1153SOL    MW4 4644   3.353   4.345   1.977
 1154SOL     OW 4645   3.798   4.620   1.882
 1154SOL    HW2 4646   3.785   4.530   1.913
 1154SOL    HW3 4647   3.725   4.669   1.918
 1154SOL    MW4 4648   3.787   4.615   1.891
 1155SOL     OW 4649   3.600   0.115   1.977
 1155SOL    HW2 4650   3.592   0.115   2.072
 1155SOL    HW3 4651   3.526   0.063   1.946
 1155SOL    MW4 4652   3.589   0.108   1.985
 1156SOL     OW 4653   3.550   0.378   1.878
 1156SOL    HW2 4654   3.554   0.285   1.902
 1156SOL    HW3 4655   3.562   0.379   1.783
 1156SOL    MW4 4656   3.552   0.366   1.869
 1157SOL     OW 4657   3.809   0.468   1.966
 1157SOL    HW2 4658   3.801   0.559   1.940
 1157SOL    HW3 4659   3.727   0.427   1.939
 1157SOL    MW4 4660   3.797   0.475   1.959
 1158SOL     OW 4661   3.854   0.728   1.891
 1158SOL    HW2 4662   3.788   0.783   1.933
 1158SOL    HW3 4663   3.833   0.732   1.798
 1158SOL    MW4 4664   3.843   0.736   1.884
 1159SOL     OW 4665   3.635   0.869   1.957
 1159SOL    HW2 4666   3.627   0.954   1.913
 1159SOL    HW3 4667   3.565   0.816   1.918
 1159SOL    MW4 4668   3.624   0.873   1.946
 1160SOL     OW 4669   3.618   1.126   1.859
 1160SOL    HW2 4670   3.536   1.162   1.894
 1160SOL    HW3 4671   3.616   1.149   1.766
 1160SOL    MW4 4672   3.607   1.134   1.851
 1161SOL     OW 4673   3.842   1.253   1.989
 1161SOL    HW2 4674   3.841   1.255   2.085
 1161SOL    HW3 4675   3.755   1.220   1.965
 1161SOL    MW4 4676   3.830   1.249   1.999
 1162SOL     OW 4677   3.825   1.501   1.853
 1162SOL    HW2 4678   3.888   1.559   1.896
 1162SOL    HW3 4679   3.819   1.425   1.910
 1162SOL    MW4 4680   3.833   1.499   1.866
 1163SOL     OW 4681   3.581   1.668   1.962
 1163SOL    HW2 4682   3.588   1.762   1.945
 1163SOL    HW3 4683   3.653   1.630   1.912
 1163SOL    MW4 4684   3.592   1.676   1.953
 1164SOL     OW 4685   3.609   1.928   1.889
 1164SOL    HW2 4686   3.697   1.958   1.913
 1164SOL    HW3 4687   3.609   1.931   1.793
 1164SOL    MW4 4688   3.620   1.932   1.879
 1165SOL     OW 4689   3.823   2.045   2.023
 1165SOL    HW2 4690   3.899   1.989   2.005
 1165SOL    HW3 4691   3.844   2.128   1.980
 1165SOL    MW4 4692   3.836   2.049   2.015
 1166SOL     OW 4693   3.815   2.274   1.861
 1166SOL    HW2 4694   3.878   2.330   1.908
 1166SOL    HW3 4695   3.730   2.298   1.896
 1166SOL    MW4 4696   3.812   2.285   1.872
 1167SOL     OW 4697   3.602   2.390   1.969
 1167SOL    HW2 4698   3.575   2.479   1.950
 1167SOL    HW3 4699   3.525   2.337   1.949
 1167SOL    MW4 4700   3.588   2.394   1.964
 1168SOL     OW 4701   3.567   2.661   1.844
 1168SOL    HW2 4702   3.656   2.687   1.870
 1168SOL    HW3 4703   3.510   2.721   1.891
 1168SOL    MW4 4704   3.571   2.672   1.854
 1169SOL     OW 4705   3.775   2.812   1.957
 1169SOL    HW2 4706   3.777   2.823   2.052
 1169SOL    HW3 4707   3.756   2.899   1.923
 1169SOL    MW4 4708   3.772   2.825   1.965
 1170SOL     OW 4709   3.757   3.068   1.860
 1170SOL    HW2 4710   3.690   3.130   1.889
 1170SOL    HW3 4711   3.747   3.065   1.765
 1170SOL    MW4 4712   3.747   3.076   1.851
 1171SOL     OW 4713   3.559   3.236   1.920
 1171SOL    HW2 4714   3.569   3.233   2.015
 1171SOL    HW3 4715   3.563   3.330   1.898
 1171SOL    MW4 4716   3.561   3.248   1.930
 1172SOL     OW 4717   3.571   3.498   1.854
 1172SOL    HW2 4718   3.639   3.546   1.900
 1172SOL    HW3 4719   3.580   3.525   1.762
 1172SOL    MW4 4720   3.581   3.508   1.848
 1173SOL     OW 4721   3.799   3.608   1.955
 1173SOL    HW2 4722   3.881   3.583   1.912
 1173SOL    HW3 4723   3.795   3.703   1.947
 1173SOL    MW4 4724   3.809   3.617   1.948
 1174SOL     OW 4725   3.785   3.895   1.870
 1174SOL    HW2 4726   3.694   3.917   1.890
 1174SOL    HW3 4727   3.786   3.885   1.775
 1174SOL    MW4 4728   3.773   3.896   1.860
 1175SOL     OW 4729   3.550   4.008   1.942
 1175SOL    HW2 4730   3.543   4.008   2.038
 1175SOL    HW3 4731   3.478   3.953   1.913
 1175SOL    MW4 4732   3.539   4.001   1.951
 1176SOL     OW 4733   3.573   4.259   1.839
 1176SOL    HW2 4734   3.647   4.298   1.886
 1176SOL    HW3 4735   3.572   4.168   1.868
 1176SOL    MW4 4736   3.583   4.253   1.849
 1177SOL     OW 4737   3.778   4.357   1.994
 1177SOL    HW2 4738   3.784   4.374   2.088
 1177SOL    HW3 4739   3.865   4.322   1.971
 1177SOL    MW4 4740   3.791   4.355   2.003
 1178SOL     OW 4741   4.253   4.654   1.891
 1178SOL    HW2 4742   4.180   4.697   1.936
 1178SOL    HW3 4743   4.331   4.689   1.933
 1178SOL    MW4 4744   4.254   4.664   1.902
 1179SOL     OW 4745   4.028   0.076   2.011
 1179SOL    HW2 4746   4.035   0.058   2.105
 1179SOL    HW3 4747   3.944   0.037   1.985
 1179SOL    MW4 4748   4.018   0.068   2.020
 1180SOL     OW 4749   4.023   0.334   1.858
 1180SOL    HW2 4750   4.011   0.248   1.899
 1180SOL    HW3 4751   3.946   0.384   1.885
 1180SOL    MW4 4752   4.012   0.329   1.867
 1181SOL     OW 4753   4.256   0.463   1.960
 1181SOL    HW2 4754   4.261   0.466   2.056
 1181SOL    HW3 4755   4.171   0.425   1.941
 1181SOL    MW4 4756   4.246   0.459   1.970
 1182SOL     OW 4757   4.298   0.723   1.857
 1182SOL    HW2 4758   4.281   0.636   1.894
 1182SOL    HW3 4759   4.287   0.712   1.763
 1182SOL    MW4 4760   4.294   0.710   1.850
 1183SOL     OW 4761   4.092   0.878   1.942
 1183SOL    HW2 4762   4.173   0.840   1.909
 1183SOL    HW3 4763   4.024   0.818   1.913
 1183SOL    MW4 4764   4.094   0.865   1.934
 1184SOL     OW 4765   4.078   1.154   1.875
 1184SOL    HW2 4766   4.089   1.064   1.906
 1184SOL    HW3 4767   3.988   1.176   1.898
 1184SOL    MW4 4768   4.068   1.145   1.882
 1185SOL     OW 4769   4.291   1.319   1.961
 1185SOL    HW2 4770   4.278   1.309   2.056
 1185SOL    HW3 4771   4.226   1.261   1.922
 1185SOL    MW4 4772   4.281   1.310   1.969
 1186SOL     OW 4773   4.272   1.586   1.887
 1186SOL    HW2 4774   4.276   1.493   1.907
 1186SOL    HW3 4775   4.273   1.590   1.791
 1186SOL    MW4 4776   4.273   1.574   1.877
 1187SOL     OW 4777   4.021   1.643   1.971
 1187SOL    HW2 4778   4.023   1.639   2.067
 1187SOL    HW3 4779   4.110   1.617   1.945
 1187SOL    MW4 4780   4.033   1.639   1.981
 1188SOL     OW 4781   4.062   1.921   1.940
 1188SOL    HW2 4782   4.049   1.827   1.953
 1188SOL    HW3 4783   4.047   1.935   1.846
 1188SOL    MW4 4784   4.058   1.911   1.929
 1189SOL     OW 4785   4.262   2.099   2.019
 1189SOL    HW2 4786   4.281   2.080   2.111
 1189SOL    HW3 4787   4.189   2.042   1.997
 1189SOL    MW4 4788   4.255   2.089   2.028
 1190SOL     OW 4789   4.231   2.327   1.871
 1190SOL    HW2 4790   4.245   2.246   1.920
 1190SOL    HW3 4791   4.311   2.378   1.885
 1190SOL    MW4 4792   4.244   2.323   1.879
 1191SOL     OW 4793   4.011   2.446   1.992
 1191SOL    HW2 4794   4.019   2.453   2.087
 1191SOL    HW3 4795   4.096   2.410   1.964
 1191SOL    MW4 4796   4.024   2.442   2.001
 1192SOL     OW 4797   4.015   2.700   1.855
 1192SOL    HW2 4798   4.010   2.615   1.898
 1192SOL    HW3 4799   3.932   2.743   1.876
 1192SOL    MW4 4800   4.004   2.695   1.864
 1193SOL     OW 4801   4.214   2.858   1.991
 1193SOL    HW2 4802   4.209   2.819   2.078
 1193SOL    HW3 4803   4.146   2.813   1.940
 1193SOL    MW4 4804   4.204   2.847   1.995
 1194SOL     OW 4805   4.202   3.113   1.870
 1194SOL    HW2 4806   4.131   3.164   1.909
 1194SOL    HW3 4807   4.201   3.030   1.917
 1194SOL    MW4 4808   4.193   3.109   1.881
 1195SOL     OW 4809   3.980   3.254   1.927
 1195SOL    HW2 4810   3.980   3.251   2.023
 1195SOL    HW3 4811   3.921   3.183   1.900
 1195SOL    MW4 4812   3.972   3.244   1.936
 1196SOL     OW 4813   4.049   3.519   1.852
 1196SOL    HW2 4814   4.122   3.553   1.903
 1196SOL    HW3 4815   4.047   3.425   1.871
 1196SOL    MW4 4816   4.058   3.511   1.862
 1197SOL     OW 4817   4.266   3.619   1.976
 1197SOL    HW2 4818   4.263   3.708   1.942
 1197SOL    HW3 4819   4.336   3.577   1.925
 1197SOL    MW4 4820   4.275   3.625   1.965
 1198SOL     OW 4821   4.255   3.887   1.854
 1198SOL    HW2 4822   4.338   3.926   1.879
 1198SOL    HW3 4823   4.252   3.895   1.759
 1198SOL    MW4 4824   4.266   3.893   1.845
 1199SOL     OW 4825   4.032   4.000   1.986
 1199SOL    HW2 4826   4.101   3.963   1.932
 1199SOL    HW3 4827   3.951   3.972   1.944
 1199SOL    MW4 4828   4.030   3.991   1.974
 1200SOL     OW 4829   4.027   4.277   1.916
 1200SOL    HW2 4830   4.111   4.317   1.940
 1200SOL    HW3 4831   4.028   4.192   1.958
 1200SOL    MW4 4832   4.038   4.271   1.924
 1201SOL     OW 4833   4.271   4.388   1.986
 1201SOL    HW2 4834   4.254   4.414   2.077
 1201SOL    HW3 4835   4.287   4.471   1.941
 1201SOL    MW4 4836   4.271   4.403   1.992
 1202SOL     OW 4837   0.201   0.037   2.379
 1202SOL    HW2 4838   0.225   0.022   2.470
 1202SOL    HW3 4839   0.281   0.070   2.338
 1202SOL    MW4 4840   0.215   0.039   2.385
 1203SOL     OW 4841   4.446   0.121   2.271
 1203SOL    HW2 4842   4.530   0.094   2.308
 1203SOL    HW3 4843   4.454   0.103   2.177
 1203SOL    MW4 4844   4.458   0.115   2.264
 1204SOL     OW 4845   4.450   0.372   2.379
 1204SOL    HW2 4846   4.525   0.408   2.331
 1204SOL    HW3 4847   4.445   0.281   2.352
 1204SOL    MW4 4848   4.459   0.365   2.369
 1205SOL     OW 4849   0.184   0.475   2.247
 1205SOL    HW2 4850   0.263   0.424   2.267
 1205SOL    HW3 4851   0.185   0.483   2.151
 1205SOL    MW4 4852   0.195   0.469   2.237
 1206SOL     OW 4853   0.229   0.760   2.346
 1206SOL    HW2 4854   0.231   0.751   2.441
 1206SOL    HW3 4855   0.222   0.671   2.313
 1206SOL    MW4 4856   0.228   0.747   2.354
 1207SOL     OW 4857   4.458   0.888   2.242
 1207SOL    HW2 4858   4.534   0.849   2.286
 1207SOL    HW3 4859   4.479   0.881   2.149
 1207SOL    MW4 4860   4.471   0.882   2.235
 1208SOL     OW 4861   4.478   1.153   2.338
 1208SOL    HW2 4862   4.465   1.160   2.432
 1208SOL    HW3 4863   4.461   1.061   2.318
 1208SOL    MW4 4864   4.474   1.142   2.348
 1209SOL     OW 4865   0.234   1.279   2.238
 1209SOL    HW2 4866   0.153   1.241   2.271
 1209SOL    HW3 4867   0.229   1.269   2.143
 1209SOL    MW4 4868   0.223   1.272   2.230
 1210SOL     OW 4869   0.237   1.553   2.360
 1210SOL    HW2 4870   0.254   1.536   2.452
 1210SOL    HW3 4871   0.226   1.466   2.321
 1210SOL    MW4 4872   0.238   1.539   2.367
 1211SOL     OW 4873   0.010   1.673   2.285
 1211SOL    HW2 4874  -0.001   1.755   2.333
 1211SOL    HW3 4875   0.088   1.633   2.323
 1211SOL    MW4 4876   0.019   1.678   2.296
 1212SOL     OW 4877   4.477   1.906   2.424
 1212SOL    HW2 4878   4.403   1.948   2.379
 1212SOL    HW3 4879   4.553   1.960   2.401
 1212SOL    MW4 4880   4.477   1.919   2.415
 1213SOL     OW 4881   0.193   2.021   2.263
 1213SOL    HW2 4882   0.283   2.002   2.289
 1213SOL    HW3 4883   0.199   2.046   2.171
 1213SOL    MW4 4884   0.206   2.021   2.254
 1214SOL     OW 4885   0.184   2.292   2.337
 1214SOL    HW2 4886   0.171   2.310   2.430
 1214SOL    HW3 4887   0.186   2.196   2.332
 1214SOL    MW4 4888   0.182   2.282   2.348
 1215SOL     OW 4889   4.454   2.416   2.231
 1215SOL    HW2 4890   4.463   2.502   2.272
 1215SOL    HW3 4891   4.529   2.367   2.263
 1215SOL    MW4 4892   4.465   2.421   2.240
 1216SOL     OW 4893   4.462   2.678   2.335
 1216SOL    HW2 4894   4.463   2.690   2.430
 1216SOL    HW3 4895   4.532   2.734   2.303
 1216SOL    MW4 4896   4.471   2.687   2.344
 1217SOL     OW 4897   0.186   2.828   2.211
 1217SOL    HW2 4898   0.264   2.789   2.251
 1217SOL    HW3 4899   0.195   2.808   2.118
 1217SOL    MW4 4900   0.197   2.820   2.204
 1218SOL     OW 4901   0.198   3.068   2.356
 1218SOL    HW2 4902   0.133   3.125   2.315
 1218SOL    HW3 4903   0.200   2.990   2.301
 1218SOL    MW4 4904   0.189   3.065   2.343
 1219SOL     OW 4905   0.008   3.239   2.228
 1219SOL    HW2 4906   0.013   3.331   2.255
 1219SOL    HW3 4907   0.009   3.242   2.133
 1219SOL    MW4 4908   0.009   3.252   2.219
 1220SOL     OW 4909   4.487   3.511   2.323
 1220SOL    HW2 4910   4.481   3.508   2.418
 1220SOL    HW3 4911   4.405   3.552   2.295
 1220SOL    MW4 4912   4.476   3.516   2.332
 1221SOL     OW 4913   0.252   3.623   2.222
 1221SOL    HW2 4914   0.314   3.566   2.267
 1221SOL    HW3 4915   0.167   3.601   2.260
 1221SOL    MW4 4916   0.249   3.613   2.233
 1222SOL     OW 4917   0.237   3.843   2.391
 1222SOL    HW2 4918   0.165   3.893   2.352
 1222SOL    HW3 4919   0.246   3.766   2.335
 1222SOL    MW4 4920   0.229   3.839   2.379
 1223SOL     OW 4921   0.047   3.988   2.253
 1223SOL    HW2 4922   0.038   4.076   2.288
 1223SOL    HW3 4923   0.032   3.997   2.159
 1223SOL    MW4 4924   0.044   4.001   2.245
 1224SOL     OW 4925   4.466   4.242   2.351
 1224SOL    HW2 4926   4.448   4.259   2.444
 1224SOL    HW3 4927   4.534   4.306   2.328
 1224SOL    MW4 4928   4.473   4.253   2.360
 1225SOL     OW 4929   0.177   4.436   2.308
 1225SOL    HW2 4930   0.252   4.394   2.351
 1225SOL    HW3 4931   0.185   4.528   2.333
 1225SOL    MW4 4932   0.188   4.443   2.317
 1226SOL     OW 4933   0.699   4.655   2.363
 1226SOL    HW2 4934   0.710   4.642   2.458
 1226SOL    HW3 4935   0.773   4.709   2.337
 1226SOL    MW4 4936   0.710   4.660   2.372
 1227SOL     OW 4937   0.458   0.106   2.287
 1227SOL    HW2 4938   0.530   0.056   2.327
 1227SOL    HW3 4939   0.483   0.115   2.195
 1227SOL    MW4 4940   0.471   0.101   2.280
 1228SOL     OW 4941   0.422   0.382   2.350
 1228SOL    HW2 4942   0.413   0.394   2.444
 1228SOL    HW3 4943   0.436   0.288   2.338
 1228SOL    MW4 4944   0.423   0.371   2.361
 1229SOL     OW 4945   0.659   0.503   2.267
 1229SOL    HW2 4946   0.656   0.593   2.299
 1229SOL    HW3 4947   0.586   0.459   2.311
 1229SOL    MW4 4948   0.649   0.509   2.277
 1230SOL     OW 4949   0.658   0.755   2.345
 1230SOL    HW2 4950   0.631   0.756   2.437
 1230SOL    HW3 4951   0.596   0.812   2.301
 1230SOL    MW4 4952   0.646   0.762   2.351
 1231SOL     OW 4953   0.444   0.893   2.218
 1231SOL    HW2 4954   0.360   0.862   2.252
 1231SOL    HW3 4955   0.442   0.871   2.125
 1231SOL    MW4 4956   0.432   0.886   2.210
 1232SOL     OW 4957   0.441   1.133   2.371
 1232SOL    HW2 4958   0.426   1.042   2.346
 1232SOL    HW3 4959   0.368   1.181   2.331
 1232SOL    MW4 4960   0.429   1.128   2.362
 1233SOL     OW 4961   0.677   1.280   2.268
 1233SOL    HW2 4962   0.672   1.375   2.282
 1233SOL    HW3 4963   0.593   1.247   2.301
 1233SOL    MW4 4964   0.665   1.288   2.274
 1234SOL     OW 4965   0.658   1.548   2.327
 1234SOL    HW2 4966   0.674   1.550   2.421
 1234SOL    HW3 4967   0.736   1.587   2.288
 1234SOL    MW4 4968   0.670   1.553   2.334
 1235SOL     OW 4969   0.454   1.730   2.296
 1235SOL    HW2 4970   0.523   1.665   2.304
 1235SOL    HW3 4971   0.374   1.684   2.323
 1235SOL    MW4 4972   0.453   1.715   2.301
 1236SOL     OW 4973   0.443   1.981   2.395
 1236SOL    HW2 4974   0.509   2.027   2.344
 1236SOL    HW3 4975   0.446   1.890   2.364
 1236SOL    MW4 4976   0.452   1.975   2.384
 1237SOL     OW 4977   0.664   2.096   2.241
 1237SOL    HW2 4978   0.736   2.047   2.281
 1237SOL    HW3 4979   0.678   2.187   2.270
 1237SOL    MW4 4980   0.676   2.102   2.250
 1238SOL     OW 4981   0.629   2.380   2.360
 1238SOL    HW2 4982   0.659   2.353   2.447
 1238SOL    HW3 4983   0.702   2.430   2.324
 1238SOL    MW4 4984   0.643   2.383   2.367
 1239SOL     OW 4985   0.372   2.467   2.256
 1239SOL    HW2 4986   0.449   2.440   2.305
 1239SOL    HW3 4987   0.307   2.399   2.273
 1239SOL    MW4 4988   0.374   2.455   2.265
 1240SOL     OW 4989   0.406   2.720   2.338
 1240SOL    HW2 4990   0.391   2.711   2.432
 1240SOL    HW3 4991   0.401   2.631   2.303
 1240SOL    MW4 4992   0.403   2.707   2.346
 1241SOL     OW 4993   0.642   2.827   2.222
 1241SOL    HW2 4994   0.721   2.791   2.264
 1241SOL    HW3 4995   0.571   2.774   2.256
 1241SOL    MW4 4996   0.643   2.815   2.232
 1242SOL     OW 4997   0.669   3.108   2.342
 1242SOL    HW2 4998   0.586   3.153   2.325
 1242SOL    HW3 4999   0.660   3.024   2.299
 1242SOL    MW4 5000   0.657   3.103   2.334
 1243SOL     OW 5001   0.422   3.215   2.271
 1243SOL    HW2 5002   0.344   3.173   2.307
 1243SOL    HW3 5003   0.408   3.216   2.177
 1243SOL    MW4 5004   0.410   3.209   2.263
 1244SOL     OW 5005   0.445   3.486   2.358
 1244SOL    HW2 5006   0.517   3.535   2.319
 1244SOL    HW3 5007   0.452   3.399   2.319
 1244SOL    MW4 5008   0.456   3.481   2.348
 1245SOL     OW 5009   0.655   3.644   2.254
 1245SOL    HW2 5010   0.653   3.731   2.294
 1245SOL    HW3 5011   0.654   3.660   2.160
 1245SOL    MW4 5012   0.655   3.658   2.247
 1246SOL     OW 5013   0.666   3.920   2.345
 1246SOL    HW2 5014   0.666   3.915   2.441
 1246SOL    HW3 5015   0.576   3.945   2.323
 1246SOL    MW4 5016   0.654   3.923   2.355
 1247SOL     OW 5017   0.409   4.027   2.276
 1247SOL    HW2 5018   0.342   3.967   2.308
 1247SOL    HW3 5019   0.413   4.010   2.181
 1247SOL    MW4 5020   0.401   4.017   2.267
 1248SOL     OW 5021   0.418   4.287   2.379
 1248SOL    HW2 5022   0.504   4.325   2.363
 1248SOL    HW3 5023   0.423   4.199   2.341
 1248SOL    MW4 5024   0.430   4.281   2.372
 1249SOL     OW 5025   0.651   4.387   2.281
 1249SOL    HW2 5026   0.662   4.480   2.299
 1249SOL    HW3 5027   0.643   4.382   2.185
 1249SOL    MW4 5028   0.652   4.399   2.270
 1250SOL     OW 5029   1.140   4.625   2.395
 1250SOL    HW2 5030   1.136   4.627   2.491
 1250SOL    HW3 5031   1.059   4.668   2.368
 1250SOL    MW4 5032   1.128   4.631   2.404
 1251SOL     OW 5033   0.940   0.126   2.298
 1251SOL    HW2 5034   0.922   0.219   2.312
 1251SOL    HW3 5035   0.938   0.116   2.203
 1251SOL    MW4 5036   0.937   0.137   2.287
 1252SOL     OW 5037   0.891   0.391   2.365
 1252SOL    HW2 5038   0.972   0.433   2.334
 1252SOL    HW3 5039   0.821   0.440   2.321
 1252SOL    MW4 5040   0.892   0.403   2.355
 1253SOL     OW 5041   1.133   0.522   2.273
 1253SOL    HW2 5042   1.199   0.461   2.309
 1253SOL    HW3 5043   1.148   0.519   2.179
 1253SOL    MW4 5044   1.144   0.513   2.266
 1254SOL     OW 5045   1.124   0.785   2.360
 1254SOL    HW2 5046   1.038   0.815   2.330
 1254SOL    HW3 5047   1.129   0.694   2.330
 1254SOL    MW4 5048   1.113   0.777   2.352
 1255SOL     OW 5049   0.888   0.870   2.269
 1255SOL    HW2 5050   0.888   0.950   2.321
 1255SOL    HW3 5051   0.809   0.824   2.296
 1255SOL    MW4 5052   0.878   0.875   2.279
 1256SOL     OW 5053   0.869   1.133   2.381
 1256SOL    HW2 5054   0.940   1.176   2.334
 1256SOL    HW3 5055   0.790   1.178   2.351
 1256SOL    MW4 5056   0.868   1.144   2.371
 1257SOL     OW 5057   1.094   1.265   2.252
 1257SOL    HW2 5058   1.175   1.227   2.286
 1257SOL    HW3 5059   1.111   1.281   2.160
 1257SOL    MW4 5060   1.107   1.262   2.245
 1258SOL     OW 5061   1.122   1.534   2.337
 1258SOL    HW2 5062   1.041   1.582   2.324
 1258SOL    HW3 5063   1.107   1.449   2.295
 1258SOL    MW4 5064   1.110   1.529   2.330
 1259SOL     OW 5065   0.895   1.676   2.278
 1259SOL    HW2 5066   0.906   1.771   2.286
 1259SOL    HW3 5067   0.902   1.660   2.184
 1259SOL    MW4 5068   0.898   1.687   2.266
 1260SOL     OW 5069   0.904   1.947   2.330
 1260SOL    HW2 5070   0.914   1.933   2.425
 1260SOL    HW3 5071   0.979   2.002   2.307
 1260SOL    MW4 5072   0.915   1.952   2.340
 1261SOL     OW 5073   1.127   2.078   2.251
 1261SOL    HW2 5074   1.190   2.012   2.281
 1261SOL    HW3 5075   1.114   2.058   2.158
 1261SOL    MW4 5076   1.134   2.067   2.243
 1262SOL     OW 5077   1.129   2.356   2.319
 1262SOL    HW2 5078   1.214   2.399   2.308
 1262SOL    HW3 5079   1.144   2.265   2.294
 1262SOL    MW4 5080   1.142   2.350   2.314
 1263SOL     OW 5081   0.868   2.457   2.237
 1263SOL    HW2 5082   0.946   2.410   2.268
 1263SOL    HW3 5083   0.873   2.449   2.141
 1263SOL    MW4 5084   0.879   2.450   2.228
 1264SOL     OW 5085   0.872   2.721   2.333
 1264SOL    HW2 5086   0.854   2.729   2.427
 1264SOL    HW3 5087   0.877   2.627   2.318
 1264SOL    MW4 5088   0.870   2.710   2.344
 1265SOL     OW 5089   1.104   2.865   2.250
 1265SOL    HW2 5090   1.182   2.835   2.297
 1265SOL    HW3 5091   1.033   2.810   2.283
 1265SOL    MW4 5092   1.105   2.854   2.260
 1266SOL     OW 5093   1.106   3.119   2.379
 1266SOL    HW2 5094   1.040   3.178   2.343
 1266SOL    HW3 5095   1.089   3.035   2.336
 1266SOL    MW4 5096   1.095   3.115   2.369
 1267SOL     OW 5097   0.909   3.242   2.242
 1267SOL    HW2 5098   0.893   3.329   2.279
 1267SOL    HW3 5099   0.832   3.191   2.265
 1267SOL    MW4 5100   0.897   3.247   2.250
 1268SOL     OW 5101   0.885   3.498   2.343
 1268SOL    HW2 5102   0.869   3.500   2.438
 1268SOL    HW3 5103   0.821   3.558   2.306
 1268SOL    MW4 5104   0.875   3.506   2.351
 1269SOL     OW 5105   1.119   3.633   2.244
 1269SOL    HW2 5106   1.197   3.583   2.266
 1269SOL    HW3 5107   1.046   3.579   2.274
 1269SOL    MW4 5108   1.120   3.619   2.251
 1270SOL     OW 5109   1.110   3.895   2.347
 1270SOL    HW2 5110   1.186   3.941   2.310
 1270SOL    HW3 5111   1.112   3.810   2.304
 1270SOL    MW4 5112   1.120   3.890   2.336
 1271SOL     OW 5113   0.901   4.026   2.235
 1271SOL    HW2 5114   0.980   3.994   2.277
 1271SOL    HW3 5115   0.830   3.976   2.275
 1271SOL    MW4 5116   0.902   4.015   2.246
 1272SOL     OW 5117   0.880   4.270   2.396
 1272SOL    HW2 5118   0.888   4.185   2.353
 1272SOL    HW3 5119   0.798   4.306   2.363
 1272SOL    MW4 5120   0.870   4.264   2.386
 1273SOL     OW 5121   1.100   4.384   2.263
 1273SOL    HW2 5122   1.025   4.337   2.300
 1273SOL    HW3 5123   1.105   4.464   2.316
 1273SOL    MW4 5124   1.091   4.388   2.275
 1274SOL     OW 5125   1.579   0.001   2.351
 1274SOL    HW2 5126   1.654   0.049   2.316
 1274SOL    HW3 5127   1.503   0.043   2.313
 1274SOL    MW4 5128   1.579   0.013   2.342
 1275SOL     OW 5129   1.349   0.090   2.243
 1275SOL    HW2 5130   1.330   0.174   2.285
 1275SOL    HW3 5131   1.290   0.028   2.286
 1275SOL    MW4 5132   1.338   0.093   2.254
 1276SOL     OW 5133   1.333   0.352   2.354
 1276SOL    HW2 5134   1.344   0.340   2.449
 1276SOL    HW3 5135   1.410   0.402   2.327
 1276SOL    MW4 5136   1.344   0.357   2.363
 1277SOL     OW 5137   1.554   0.502   2.292
 1277SOL    HW2 5138   1.633   0.453   2.315
 1277SOL    HW3 5139   1.558   0.510   2.196
 1277SOL    MW4 5140   1.565   0.497   2.282
 1278SOL     OW 5141   1.596   0.746   2.413
 1278SOL    HW2 5142   1.666   0.799   2.373
 1278SOL    HW3 5143   1.596   0.665   2.362
 1278SOL    MW4 5144   1.605   0.743   2.401
 1279SOL     OW 5145   1.375   0.894   2.267
 1279SOL    HW2 5146   1.440   0.837   2.308
 1279SOL    HW3 5147   1.291   0.853   2.287
 1279SOL    MW4 5148   1.372   0.881   2.275
 1280SOL     OW 5149   1.340   1.168   2.375
 1280SOL    HW2 5150   1.339   1.155   2.470
 1280SOL    HW3 5151   1.352   1.079   2.340
 1280SOL    MW4 5152   1.341   1.154   2.383
 1281SOL     OW 5153   1.568   1.301   2.314
 1281SOL    HW2 5154   1.487   1.263   2.349
 1281SOL    HW3 5155   1.562   1.288   2.219
 1281SOL    MW4 5156   1.556   1.294   2.306
 1282SOL     OW 5157   1.571   1.579   2.403
 1282SOL    HW2 5158   1.655   1.616   2.379
 1282SOL    HW3 5159   1.578   1.486   2.379
 1282SOL    MW4 5160   1.583   1.571   2.396
 1283SOL     OW 5161   1.346   1.669   2.251
 1283SOL    HW2 5162   1.417   1.632   2.304
 1283SOL    HW3 5163   1.267   1.628   2.286
 1283SOL    MW4 5164   1.345   1.659   2.263
 1284SOL     OW 5165   1.331   1.928   2.350
 1284SOL    HW2 5166   1.415   1.970   2.329
 1284SOL    HW3 5167   1.336   1.842   2.308
 1284SOL    MW4 5168   1.343   1.922   2.342
 1285SOL     OW 5169   1.558   2.063   2.253
 1285SOL    HW2 5170   1.639   2.030   2.291
 1285SOL    HW3 5171   1.576   2.069   2.159
 1285SOL    MW4 5172   1.571   2.059   2.245
 1286SOL     OW 5173   1.539   2.332   2.391
 1286SOL    HW2 5174   1.518   2.319   2.483
 1286SOL    HW3 5175   1.535   2.244   2.353
 1286SOL    MW4 5176   1.536   2.319   2.398
 1287SOL     OW 5177   1.357   2.502   2.260
 1287SOL    HW2 5178   1.417   2.445   2.307
 1287SOL    HW3 5179   1.369   2.479   2.168
 1287SOL    MW4 5180   1.366   2.492   2.254
 1288SOL     OW 5181   1.328   2.757   2.361
 1288SOL    HW2 5182   1.412   2.800   2.343
 1288SOL    HW3 5183   1.336   2.671   2.321
 1288SOL    MW4 5184   1.340   2.751   2.353
 1289SOL     OW 5185   1.568   2.858   2.272
 1289SOL    HW2 5186   1.567   2.949   2.304
 1289SOL    HW3 5187   1.590   2.866   2.180
 1289SOL    MW4 5188   1.571   2.871   2.264
 1290SOL     OW 5189   1.602   3.129   2.351
 1290SOL    HW2 5190   1.610   3.133   2.446
 1290SOL    HW3 5191   1.514   3.161   2.333
 1290SOL    MW4 5192   1.592   3.133   2.361
 1291SOL     OW 5193   1.348   3.212   2.277
 1291SOL    HW2 5194   1.269   3.179   2.318
 1291SOL    HW3 5195   1.331   3.205   2.183
 1291SOL    MW4 5196   1.335   3.207   2.270
 1292SOL     OW 5197   1.331   3.485   2.328
 1292SOL    HW2 5198   1.318   3.498   2.422
 1292SOL    HW3 5199   1.343   3.391   2.318
 1292SOL    MW4 5200   1.331   3.474   2.340
 1293SOL     OW 5201   1.550   3.629   2.274
 1293SOL    HW2 5202   1.529   3.716   2.307
 1293SOL    HW3 5203   1.478   3.574   2.303
 1293SOL    MW4 5204   1.538   3.634   2.282
 1294SOL     OW 5205   1.539   3.885   2.355
 1294SOL    HW2 5206   1.567   3.870   2.445
 1294SOL    HW3 5207   1.615   3.928   2.313
 1294SOL    MW4 5208   1.553   3.889   2.361
 1295SOL     OW 5209   1.333   4.031   2.238
 1295SOL    HW2 5210   1.395   3.974   2.285
 1295SOL    HW3 5211   1.343   4.007   2.146
 1295SOL    MW4 5212   1.342   4.020   2.232
 1296SOL     OW 5213   1.367   4.289   2.351
 1296SOL    HW2 5214   1.367   4.202   2.311
 1296SOL    HW3 5215   1.283   4.327   2.327
 1296SOL    MW4 5216   1.356   4.282   2.343
 1297SOL     OW 5217   1.572   4.426   2.238
 1297SOL    HW2 5218   1.505   4.382   2.290
 1297SOL    HW3 5219   1.573   4.516   2.271
 1297SOL    MW4 5220   1.564   4.432   2.249
 1298SOL     OW 5221   2.029   4.667   2.369
 1298SOL    HW2 5222   2.094   4.717   2.319
 1298SOL    HW3 5223   2.040   4.576   2.340
 1298SOL    MW4 5224   2.039   4.661   2.359
 1299SOL     OW 5225   1.796   0.110   2.235
 1299SOL    HW2 5226   1.790   0.201   2.263
 1299SOL    HW3 5227   1.867   0.074   2.289
 1299SOL    MW4 5228   1.805   0.117   2.246
 1300SOL     OW 5229   1.805   0.371   2.342
 1300SOL    HW2 5230   1.810   0.355   2.436
 1300SOL    HW3 5231   1.894   0.398   2.317
 1300SOL    MW4 5232   1.818   0.372   2.351
 1301SOL     OW 5233   2.039   0.495   2.246
 1301SOL    HW2 5234   2.046   0.581   2.287
 1301SOL    HW3 5235   2.044   0.513   2.152
 1301SOL    MW4 5236   2.041   0.508   2.239
 1302SOL     OW 5237   2.039   0.749   2.346
 1302SOL    HW2 5238   2.120   0.797   2.326
 1302SOL    HW3 5239   1.970   0.802   2.305
 1302SOL    MW4 5240   2.041   0.763   2.338
 1303SOL     OW 5241   1.799   0.873   2.255
 1303SOL    HW2 5242   1.802   0.967   2.269
 1303SOL    HW3 5243   1.795   0.862   2.160
 1303SOL    MW4 5244   1.799   0.884   2.245
 1304SOL     OW 5245   1.784   1.143   2.373
 1304SOL    HW2 5246   1.854   1.201   2.342
 1304SOL    HW3 5247   1.704   1.194   2.360
 1304SOL    MW4 5248   1.782   1.158   2.367
 1305SOL     OW 5249   2.032   1.261   2.283
 1305SOL    HW2 5250   2.052   1.354   2.297
 1305SOL    HW3 5251   2.037   1.249   2.189
 1305SOL    MW4 5252   2.035   1.272   2.273
 1306SOL     OW 5253   2.030   1.541   2.364
 1306SOL    HW2 5254   2.041   1.524   2.457
 1306SOL    HW3 5255   1.949   1.593   2.358
 1306SOL    MW4 5256   2.020   1.546   2.376
 1307SOL     OW 5257   1.794   1.674   2.294
 1307SOL    HW2 5258   1.801   1.769   2.299
 1307SOL    HW3 5259   1.783   1.656   2.200
 1307SOL    MW4 5260   1.794   1.684   2.282
 1308SOL     OW 5261   1.791   1.934   2.360
 1308SOL    HW2 5262   1.804   1.915   2.453
 1308SOL    HW3 5263   1.866   1.988   2.336
 1308SOL    MW4 5264   1.803   1.938   2.369
 1309SOL     OW 5265   2.042   2.057   2.315
 1309SOL    HW2 5266   2.122   2.017   2.348
 1309SOL    HW3 5267   2.055   2.061   2.220
 1309SOL    MW4 5268   2.054   2.052   2.307
 1310SOL     OW 5269   2.007   2.325   2.402
 1310SOL    HW2 5270   2.093   2.357   2.377
 1310SOL    HW3 5271   2.003   2.236   2.366
 1310SOL    MW4 5272   2.018   2.317   2.394
 1311SOL     OW 5273   1.775   2.421   2.284
 1311SOL    HW2 5274   1.843   2.387   2.342
 1311SOL    HW3 5275   1.693   2.387   2.320
 1311SOL    MW4 5276   1.773   2.412   2.297
 1312SOL     OW 5277   1.782   2.684   2.371
 1312SOL    HW2 5278   1.760   2.603   2.324
 1312SOL    HW3 5279   1.717   2.747   2.340
 1312SOL    MW4 5280   1.770   2.681   2.361
 1313SOL     OW 5281   2.015   2.811   2.273
 1313SOL    HW2 5282   2.098   2.770   2.297
 1313SOL    HW3 5283   1.948   2.757   2.315
 1313SOL    MW4 5284   2.017   2.799   2.282
 1314SOL     OW 5285   1.994   3.102   2.345
 1314SOL    HW2 5286   2.077   3.133   2.308
 1314SOL    HW3 5287   1.996   3.007   2.332
 1314SOL    MW4 5288   2.005   3.094   2.338
 1315SOL     OW 5289   1.804   3.281   2.249
 1315SOL    HW2 5290   1.881   3.229   2.271
 1315SOL    HW3 5291   1.731   3.236   2.292
 1315SOL    MW4 5292   1.805   3.268   2.257
 1316SOL     OW 5293   1.806   3.558   2.347
 1316SOL    HW2 5294   1.802   3.470   2.308
 1316SOL    HW3 5295   1.728   3.602   2.315
 1316SOL    MW4 5296   1.795   3.552   2.337
 1317SOL     OW 5297   2.029   3.679   2.238
 1317SOL    HW2 5298   1.943   3.652   2.268
 1317SOL    HW3 5299   2.029   3.659   2.144
 1317SOL    MW4 5300   2.018   3.673   2.230
 1318SOL     OW 5301   1.995   3.908   2.372
 1318SOL    HW2 5302   1.988   3.879   2.463
 1318SOL    HW3 5303   2.016   3.828   2.323
 1318SOL    MW4 5304   1.997   3.894   2.378
 1319SOL     OW 5305   1.762   4.036   2.281
 1319SOL    HW2 5306   1.838   3.993   2.320
 1319SOL    HW3 5307   1.771   4.019   2.187
 1319SOL    MW4 5308   1.774   4.028   2.274
 1320SOL     OW 5309   1.785   4.291   2.366
 1320SOL    HW2 5310   1.784   4.203   2.328
 1320SOL    HW3 5311   1.720   4.340   2.315
 1320SOL    MW4 5312   1.776   4.286   2.354
 1321SOL     OW 5313   2.017   4.409   2.277
 1321SOL    HW2 5314   1.946   4.365   2.324
 1321SOL    HW3 5315   2.000   4.390   2.185
 1321SOL    MW4 5316   2.006   4.400   2.271
 1322SOL     OW 5317   2.420   4.632   2.349
 1322SOL    HW2 5318   2.494   4.679   2.310
 1322SOL    HW3 5319   2.427   4.543   2.314
 1322SOL    MW4 5320   2.431   4.627   2.339
 1323SOL     OW 5321   2.236   0.103   2.210
 1323SOL    HW2 5322   2.247   0.189   2.251
 1323SOL    HW3 5323   2.294   0.045   2.259
 1323SOL    MW4 5324   2.245   0.107   2.222
 1324SOL     OW 5325   2.235   0.352   2.364
 1324SOL    HW2 5326   2.321   0.390   2.343
 1324SOL    HW3 5327   2.172   0.411   2.323
 1324SOL    MW4 5328   2.238   0.365   2.356
 1325SOL     OW 5329   2.454   0.515   2.250
 1325SOL    HW2 5330   2.527   0.456   2.270
 1325SOL    HW3 5331   2.448   0.514   2.155
 1325SOL    MW4 5332   2.463   0.507   2.240
 1326SOL     OW 5333   2.500   0.769   2.371
 1326SOL    HW2 5334   2.590   0.795   2.352
 1326SOL    HW3 5335   2.488   0.687   2.323
 1326SOL    MW4 5336   2.511   0.762   2.362
 1327SOL     OW 5337   2.282   0.899   2.245
 1327SOL    HW2 5338   2.287   0.984   2.289
 1327SOL    HW3 5339   2.361   0.854   2.273
 1327SOL    MW4 5340   2.293   0.905   2.254
 1328SOL     OW 5341   2.294   1.139   2.370
 1328SOL    HW2 5342   2.361   1.189   2.323
 1328SOL    HW3 5343   2.212   1.184   2.349
 1328SOL    MW4 5344   2.292   1.151   2.361
 1329SOL     OW 5345   2.480   1.290   2.222
 1329SOL    HW2 5346   2.552   1.240   2.259
 1329SOL    HW3 5347   2.498   1.380   2.249
 1329SOL    MW4 5348   2.492   1.295   2.230
 1330SOL     OW 5349   2.492   1.548   2.349
 1330SOL    HW2 5350   2.485   1.539   2.444
 1330SOL    HW3 5351   2.566   1.608   2.335
 1330SOL    MW4 5352   2.501   1.555   2.359
 1331SOL     OW 5353   2.258   1.669   2.244
 1331SOL    HW2 5354   2.328   1.633   2.299
 1331SOL    HW3 5355   2.177   1.636   2.284
 1331SOL    MW4 5356   2.256   1.660   2.256
 1332SOL     OW 5357   2.264   1.896   2.416
 1332SOL    HW2 5358   2.349   1.929   2.388
 1332SOL    HW3 5359   2.236   1.838   2.344
 1332SOL    MW4 5360   2.271   1.892   2.403
 1333SOL     OW 5361   2.489   1.999   2.268
 1333SOL    HW2 5362   2.583   1.985   2.279
 1333SOL    HW3 5363   2.477   2.008   2.174
 1333SOL    MW4 5364   2.500   1.998   2.257
 1334SOL     OW 5365   2.450   2.255   2.353
 1334SOL    HW2 5366   2.539   2.289   2.354
 1334SOL    HW3 5367   2.459   2.165   2.321
 1334SOL    MW4 5368   2.463   2.247   2.349
 1335SOL     OW 5369   2.242   2.442   2.287
 1335SOL    HW2 5370   2.273   2.532   2.294
 1335SOL    HW3 5371   2.317   2.389   2.316
 1335SOL    MW4 5372   2.256   2.447   2.292
 1336SOL     OW 5373   2.254   2.719   2.339
 1336SOL    HW2 5374   2.241   2.722   2.433
 1336SOL    HW3 5375   2.342   2.753   2.325
 1336SOL    MW4 5376   2.264   2.724   2.349
 1337SOL     OW 5377   2.482   2.860   2.276
 1337SOL    HW2 5378   2.557   2.809   2.306
 1337SOL    HW3 5379   2.483   2.850   2.181
 1337SOL    MW4 5380   2.492   2.852   2.267
 1338SOL     OW 5381   2.475   3.128   2.341
 1338SOL    HW2 5382   2.550   3.180   2.310
 1338SOL    HW3 5383   2.499   3.038   2.320
 1338SOL    MW4 5384   2.488   3.123   2.334
 1339SOL     OW 5385   2.214   3.228   2.239
 1339SOL    HW2 5386   2.205   3.316   2.276
 1339SOL    HW3 5387   2.292   3.192   2.282
 1339SOL    MW4 5388   2.223   3.235   2.250
 1340SOL     OW 5389   2.230   3.480   2.344
 1340SOL    HW2 5390   2.228   3.504   2.437
 1340SOL    HW3 5391   2.164   3.536   2.303
 1340SOL    MW4 5392   2.221   3.491   2.351
 1341SOL     OW 5393   2.433   3.640   2.200
 1341SOL    HW2 5394   2.436   3.720   2.254
 1341SOL    HW3 5395   2.379   3.580   2.251
 1341SOL    MW4 5396   2.426   3.643   2.214
 1342SOL     OW 5397   2.444   3.890   2.332
 1342SOL    HW2 5398   2.432   3.896   2.427
 1342SOL    HW3 5399   2.377   3.946   2.295
 1342SOL    MW4 5400   2.434   3.898   2.339
 1343SOL     OW 5401   2.238   4.041   2.256
 1343SOL    HW2 5402   2.236   4.120   2.310
 1343SOL    HW3 5403   2.165   3.988   2.288
 1343SOL    MW4 5404   2.228   4.044   2.267
 1344SOL     OW 5405   2.246   4.291   2.371
 1344SOL    HW2 5406   2.246   4.275   2.465
 1344SOL    HW3 5407   2.162   4.334   2.354
 1344SOL    MW4 5408   2.235   4.294   2.381
 1345SOL     OW 5409   2.461   4.388   2.233
 1345SOL    HW2 5410   2.532   4.348   2.283
 1345SOL    HW3 5411   2.381   4.357   2.276
 1345SOL    MW4 5412   2.460   4.379   2.245
 1346SOL     OW 5413   2.901   4.637   2.347
 1346SOL    HW2 5414   2.977   4.672   2.300
 1346SOL    HW3 5415   2.912   4.542   2.342
 1346SOL    MW4 5416   2.912   4.629   2.340
 1347SOL     OW 5417   2.650   0.095   2.246
 1347SOL    HW2 5418   2.657   0.189   2.265
 1347SOL    HW3 5419   2.726   0.056   2.289
 1347SOL    MW4 5420   2.661   0.102   2.254
 1348SOL     OW 5421   2.649   0.356   2.353
 1348SOL    HW2 5422   2.670   0.358   2.446
 1348SOL    HW3 5423   2.722   0.400   2.311
 1348SOL    MW4 5424   2.661   0.362   2.360
 1349SOL     OW 5425   2.912   0.485   2.263
 1349SOL    HW2 5426   2.934   0.571   2.300
 1349SOL    HW3 5427   2.919   0.498   2.169
 1349SOL    MW4 5428   2.916   0.498   2.256
 1350SOL     OW 5429   2.978   0.757   2.355
 1350SOL    HW2 5430   2.964   0.750   2.450
 1350SOL    HW3 5431   2.902   0.805   2.323
 1350SOL    MW4 5432   2.966   0.763   2.363
 1351SOL     OW 5433   2.736   0.872   2.280
 1351SOL    HW2 5434   2.724   0.961   2.313
 1351SOL    HW3 5435   2.745   0.884   2.185
 1351SOL    MW4 5436   2.735   0.886   2.272
 1352SOL     OW 5437   2.703   1.166   2.316
 1352SOL    HW2 5438   2.702   1.164   2.412
 1352SOL    HW3 5439   2.781   1.217   2.294
 1352SOL    MW4 5440   2.713   1.172   2.326
 1353SOL     OW 5441   2.918   1.310   2.253
 1353SOL    HW2 5442   2.989   1.247   2.264
 1353SOL    HW3 5443   2.898   1.307   2.160
 1353SOL    MW4 5444   2.925   1.301   2.242
 1354SOL     OW 5445   2.929   1.553   2.362
 1354SOL    HW2 5446   2.908   1.545   2.455
 1354SOL    HW3 5447   2.914   1.465   2.326
 1354SOL    MW4 5448   2.925   1.540   2.369
 1355SOL     OW 5449   2.715   1.705   2.280
 1355SOL    HW2 5450   2.790   1.660   2.320
 1355SOL    HW3 5451   2.724   1.688   2.186
 1355SOL    MW4 5452   2.726   1.697   2.273
 1356SOL     OW 5453   2.755   1.968   2.330
 1356SOL    HW2 5454   2.772   1.958   2.424
 1356SOL    HW3 5455   2.745   1.879   2.298
 1356SOL    MW4 5456   2.756   1.955   2.338
 1357SOL     OW 5457   2.989   2.077   2.229
 1357SOL    HW2 5458   3.046   2.019   2.281
 1357SOL    HW3 5459   2.900   2.054   2.256
 1357SOL    MW4 5460   2.985   2.066   2.240
 1358SOL     OW 5461   2.920   2.331   2.363
 1358SOL    HW2 5462   2.937   2.308   2.454
 1358SOL    HW3 5463   2.927   2.248   2.316
 1358SOL    MW4 5464   2.923   2.317   2.368
 1359SOL     OW 5465   2.661   2.418   2.306
 1359SOL    HW2 5466   2.744   2.384   2.341
 1359SOL    HW3 5467   2.683   2.445   2.216
 1359SOL    MW4 5468   2.675   2.417   2.298
 1360SOL     OW 5469   2.689   2.691   2.385
 1360SOL    HW2 5470   2.763   2.706   2.327
 1360SOL    HW3 5471   2.663   2.600   2.369
 1360SOL    MW4 5472   2.695   2.681   2.375
 1361SOL     OW 5473   2.903   2.821   2.250
 1361SOL    HW2 5474   2.878   2.907   2.284
 1361SOL    HW3 5475   2.898   2.830   2.155
 1361SOL    MW4 5476   2.899   2.834   2.242
 1362SOL     OW 5477   2.905   3.086   2.339
 1362SOL    HW2 5478   2.986   3.126   2.306
 1362SOL    HW3 5479   2.838   3.153   2.324
 1362SOL    MW4 5480   2.907   3.100   2.333
 1363SOL     OW 5481   2.702   3.263   2.259
 1363SOL    HW2 5482   2.692   3.357   2.270
 1363SOL    HW3 5483   2.682   3.247   2.167
 1363SOL    MW4 5484   2.698   3.273   2.248
 1364SOL     OW 5485   2.642   3.514   2.340
 1364SOL    HW2 5486   2.727   3.546   2.311
 1364SOL    HW3 5487   2.578   3.565   2.291
 1364SOL    MW4 5488   2.645   3.525   2.330
 1365SOL     OW 5489   2.897   3.617   2.258
 1365SOL    HW2 5490   2.970   3.575   2.302
 1365SOL    HW3 5491   2.900   3.708   2.288
 1365SOL    MW4 5492   2.907   3.624   2.268
 1366SOL     OW 5493   2.897   3.892   2.347
 1366SOL    HW2 5494   2.898   3.901   2.442
 1366SOL    HW3 5495   2.818   3.939   2.319
 1366SOL    MW4 5496   2.887   3.899   2.356
 1367SOL     OW 5497   2.685   4.025   2.256
 1367SOL    HW2 5498   2.599   3.981   2.257
 1367SOL    HW3 5499   2.704   4.037   2.163
 1367SOL    MW4 5500   2.676   4.021   2.243
 1368SOL     OW 5501   2.657   4.268   2.383
 1368SOL    HW2 5502   2.667   4.272   2.478
 1368SOL    HW3 5503   2.665   4.175   2.362
 1368SOL    MW4 5504   2.659   4.256   2.393
 1369SOL     OW 5505   2.885   4.362   2.264
 1369SOL    HW2 5506   2.955   4.308   2.301
 1369SOL    HW3 5507   2.805   4.328   2.305
 1369SOL    MW4 5508   2.884   4.350   2.274
 1370SOL     OW 5509   3.386   4.597   2.380
 1370SOL    HW2 5510   3.378   4.624   2.472
 1370SOL    HW3 5511   3.435   4.669   2.339
 1370SOL    MW4 5512   3.392   4.610   2.387
 1371SOL     OW 5513   3.152   0.072   2.241
 1371SOL    HW2 5514   3.138   0.157   2.282
 1371SOL    HW3 5515   3.223   0.032   2.293
 1371SOL    MW4 5516   3.160   0.078   2.254
 1372SOL     OW 5517   3.143   0.341   2.330
 1372SOL    HW2 5518   3.211   0.408   2.323
 1372SOL    HW3 5519   3.063   0.385   2.302
 1372SOL    MW4 5520   3.141   0.355   2.325
 1373SOL     OW 5521   3.353   0.521   2.270
 1373SOL    HW2 5522   3.442   0.491   2.292
 1373SOL    HW3 5523   3.345   0.507   2.176
 1373SOL    MW4 5524   3.364   0.516   2.260
 1374SOL     OW 5525   3.360   0.772   2.370
 1374SOL    HW2 5526   3.438   0.806   2.325
 1374SOL    HW3 5527   3.347   0.685   2.331
 1374SOL    MW4 5528   3.369   0.765   2.359
 1375SOL     OW 5529   3.166   0.902   2.215
 1375SOL    HW2 5530   3.247   0.867   2.251
 1375SOL    HW3 5531   3.097   0.855   2.261
 1375SOL    MW4 5532   3.168   0.891   2.226
 1376SOL     OW 5533   3.141   1.151   2.330
 1376SOL    HW2 5534   3.218   1.198   2.297
 1376SOL    HW3 5535   3.142   1.067   2.285
 1376SOL    MW4 5536   3.152   1.146   2.320
 1377SOL     OW 5537   3.386   1.248   2.232
 1377SOL    HW2 5538   3.456   1.185   2.250
 1377SOL    HW3 5539   3.411   1.326   2.283
 1377SOL    MW4 5540   3.399   1.250   2.241
 1378SOL     OW 5541   3.388   1.498   2.355
 1378SOL    HW2 5542   3.377   1.501   2.450
 1378SOL    HW3 5543   3.313   1.548   2.320
 1378SOL    MW4 5544   3.376   1.505   2.363
 1379SOL     OW 5545   3.175   1.648   2.265
 1379SOL    HW2 5546   3.169   1.737   2.301
 1379SOL    HW3 5547   3.094   1.605   2.293
 1379SOL    MW4 5548   3.164   1.654   2.274
 1380SOL     OW 5549   3.177   1.911   2.369
 1380SOL    HW2 5550   3.185   1.914   2.464
 1380SOL    HW3 5551   3.255   1.956   2.337
 1380SOL    MW4 5552   3.189   1.917   2.377
 1381SOL     OW 5553   3.386   2.070   2.265
 1381SOL    HW2 5554   3.458   2.012   2.288
 1381SOL    HW3 5555   3.366   2.050   2.174
 1381SOL    MW4 5556   3.393   2.060   2.256
 1382SOL     OW 5557   3.350   2.334   2.358
 1382SOL    HW2 5558   3.271   2.363   2.313
 1382SOL    HW3 5559   3.366   2.246   2.323
 1382SOL    MW4 5560   3.342   2.326   2.348
 1383SOL     OW 5561   3.141   2.415   2.217
 1383SOL    HW2 5562   3.140   2.500   2.261
 1383SOL    HW3 5563   3.063   2.371   2.250
 1383SOL    MW4 5564   3.130   2.421   2.227
 1384SOL     OW 5565   3.140   2.688   2.323
 1384SOL    HW2 5566   3.143   2.706   2.417
 1384SOL    HW3 5567   3.060   2.732   2.293
 1384SOL    MW4 5568   3.130   2.696   2.332
 1385SOL     OW 5569   3.350   2.838   2.231
 1385SOL    HW2 5570   3.377   2.901   2.298
 1385SOL    HW3 5571   3.277   2.791   2.270
 1385SOL    MW4 5572   3.344   2.840   2.245
 1386SOL     OW 5573   3.380   3.104   2.368
 1386SOL    HW2 5574   3.449   3.146   2.317
 1386SOL    HW3 5575   3.299   3.138   2.331
 1386SOL    MW4 5576   3.379   3.114   2.357
 1387SOL     OW 5577   3.158   3.221   2.273
 1387SOL    HW2 5578   3.151   3.315   2.286
 1387SOL    HW3 5579   3.156   3.209   2.178
 1387SOL    MW4 5580   3.157   3.232   2.262
 1388SOL     OW 5581   3.112   3.480   2.353
 1388SOL    HW2 5582   3.126   3.478   2.448
 1388SOL    HW3 5583   3.192   3.518   2.317
 1388SOL    MW4 5584   3.124   3.484   2.361
 1389SOL     OW 5585   3.346   3.614   2.262
 1389SOL    HW2 5586   3.422   3.568   2.297
 1389SOL    HW3 5587   3.349   3.598   2.168
 1389SOL    MW4 5588   3.356   3.606   2.254
 1390SOL     OW 5589   3.340   3.860   2.375
 1390SOL    HW2 5590   3.401   3.902   2.315
 1390SOL    HW3 5591   3.339   3.768   2.348
 1390SOL    MW4 5592   3.348   3.853   2.364
 1391SOL     OW 5593   3.138   3.987   2.241
 1391SOL    HW2 5594   3.207   3.953   2.297
 1391SOL    HW3 5595   3.057   3.955   2.281
 1391SOL    MW4 5596   3.136   3.978   2.253
 1392SOL     OW 5597   3.086   4.220   2.382
 1392SOL    HW2 5598   3.155   4.276   2.344
 1392SOL    HW3 5599   3.105   4.133   2.348
 1392SOL    MW4 5600   3.098   4.216   2.372
 1393SOL     OW 5601   3.307   4.355   2.264
 1393SOL    HW2 5602   3.336   4.442   2.291
 1393SOL    HW3 5603   3.317   4.355   2.168
 1393SOL    MW4 5604   3.312   4.366   2.255
 1394SOL     OW 5605   3.749   4.630   2.353
 1394SOL    HW2 5606   3.756   4.613   2.447
 1394SOL    HW3 5607   3.834   4.668   2.329
 1394SOL    MW4 5608   3.761   4.633   2.362
 1395SOL     OW 5609   3.538   0.104   2.244
 1395SOL    HW2 5610   3.544   0.195   2.274
 1395SOL    HW3 5611   3.612   0.060   2.287
 1395SOL    MW4 5612   3.549   0.110   2.254
 1396SOL     OW 5613   3.560   0.365   2.339
 1396SOL    HW2 5614   3.562   0.357   2.434
 1396SOL    HW3 5615   3.645   0.404   2.317
 1396SOL    MW4 5616   3.572   0.369   2.348
 1397SOL     OW 5617   3.817   0.438   2.242
 1397SOL    HW2 5618   3.827   0.522   2.288
 1397SOL    HW3 5619   3.810   0.462   2.150
 1397SOL    MW4 5620   3.817   0.453   2.236
 1398SOL     OW 5621   3.816   0.705   2.368
 1398SOL    HW2 5622   3.846   0.718   2.458
 1398SOL    HW3 5623   3.882   0.747   2.313
 1398SOL    MW4 5624   3.828   0.712   2.372
 1399SOL     OW 5625   3.590   0.796   2.232
 1399SOL    HW2 5626   3.667   0.764   2.279
 1399SOL    HW3 5627   3.613   0.788   2.139
 1399SOL    MW4 5628   3.603   0.791   2.226
 1400SOL     OW 5629   3.598   1.054   2.333
 1400SOL    HW2 5630   3.603   1.064   2.428
 1400SOL    HW3 5631   3.616   0.961   2.318
 1400SOL    MW4 5632   3.601   1.043   2.344
 1401SOL     OW 5633   3.810   1.217   2.268
 1401SOL    HW2 5634   3.792   1.306   2.299
 1401SOL    HW3 5635   3.737   1.165   2.302
 1401SOL    MW4 5636   3.798   1.222   2.277
 1402SOL     OW 5637   3.826   1.470   2.358
 1402SOL    HW2 5638   3.810   1.464   2.453
 1402SOL    HW3 5639   3.761   1.532   2.327
 1402SOL    MW4 5640   3.815   1.477   2.367
 1403SOL     OW 5641   3.611   1.627   2.269
 1403SOL    HW2 5642   3.531   1.583   2.297
 1403SOL    HW3 5643   3.595   1.648   2.177
 1403SOL    MW4 5644   3.598   1.624   2.260
 1404SOL     OW 5645   3.579   1.902   2.363
 1404SOL    HW2 5646   3.659   1.946   2.337
 1404SOL    HW3 5647   3.600   1.809   2.357
 1404SOL    MW4 5648   3.592   1.895   2.359
 1405SOL     OW 5649   3.799   2.048   2.300
 1405SOL    HW2 5650   3.879   1.997   2.312
 1405SOL    HW3 5651   3.781   2.042   2.206
 1405SOL    MW4 5652   3.807   2.041   2.289
 1406SOL     OW 5653   3.800   2.322   2.358
 1406SOL    HW2 5654   3.726   2.359   2.309
 1406SOL    HW3 5655   3.790   2.227   2.347
 1406SOL    MW4 5656   3.789   2.314   2.350
 1407SOL     OW 5657   3.576   2.450   2.235
 1407SOL    HW2 5658   3.496   2.403   2.259
 1407SOL    HW3 5659   3.593   2.423   2.145
 1407SOL    MW4 5660   3.568   2.440   2.226
 1408SOL     OW 5661   3.566   2.697   2.352
 1408SOL    HW2 5662   3.567   2.608   2.317
 1408SOL    HW3 5663   3.500   2.742   2.299
 1408SOL    MW4 5664   3.557   2.691   2.340
 1409SOL     OW 5665   3.791   2.816   2.231
 1409SOL    HW2 5666   3.773   2.904   2.264
 1409SOL    HW3 5667   3.720   2.762   2.265
 1409SOL    MW4 5668   3.779   2.821   2.240
 1410SOL     OW 5669   3.780   3.095   2.312
 1410SOL    HW2 5670   3.778   3.101   2.408
 1410SOL    HW3 5671   3.858   3.143   2.287
 1410SOL    MW4 5672   3.790   3.102   2.321
 1411SOL     OW 5673   3.572   3.240   2.208
 1411SOL    HW2 5674   3.579   3.319   2.261
 1411SOL    HW3 5675   3.641   3.182   2.240
 1411SOL    MW4 5676   3.582   3.242   2.219
 1412SOL     OW 5677   3.571   3.483   2.351
 1412SOL    HW2 5678   3.587   3.490   2.445
 1412SOL    HW3 5679   3.651   3.517   2.310
 1412SOL    MW4 5680   3.584   3.488   2.358
 1413SOL     OW 5681   3.786   3.610   2.247
 1413SOL    HW2 5682   3.757   3.700   2.262
 1413SOL    HW3 5683   3.796   3.604   2.152
 1413SOL    MW4 5684   3.784   3.621   2.236
 1414SOL     OW 5685   3.781   3.877   2.337
 1414SOL    HW2 5686   3.794   3.872   2.432
 1414SOL    HW3 5687   3.862   3.916   2.305
 1414SOL    MW4 5688   3.794   3.881   2.346
 1415SOL     OW 5689   3.550   3.992   2.213
 1415SOL    HW2 5690   3.548   4.082   2.247
 1415SOL    HW3 5691   3.622   3.951   2.260
 1415SOL    MW4 5692   3.560   3.999   2.224
 1416SOL     OW 5693   3.554   4.232   2.356
 1416SOL    HW2 5694   3.630   4.272   2.314
 1416SOL    HW3 5695   3.481   4.288   2.331
 1416SOL    MW4 5696   3.555   4.245   2.347
 1417SOL     OW 5697   3.781   4.360   2.266
 1417SOL    HW2 5698   3.859   4.334   2.314
 1417SOL    HW3 5699   3.764   4.450   2.295
 1417SOL    MW4 5700   3.789   4.369   2.276
 1418SOL     OW 5701   4.271   4.620   2.398
 1418SOL    HW2 5702   4.291   4.614   2.491
 1418SOL    HW3 5703   4.335   4.681   2.363
 1418SOL    MW4 5704   4.282   4.627   2.406
 1419SOL     OW 5705   4.024   0.040   2.286
 1419SOL    HW2 5706   4.025   0.134   2.303
 1419SOL    HW3 5707   4.098   0.005   2.335
 1419SOL    MW4 5708   4.034   0.048   2.294
 1420SOL     OW 5709   4.052   0.298   2.310
 1420SOL    HW2 5710   4.127   0.357   2.300
 1420SOL    HW3 5711   3.984   0.338   2.255
 1420SOL    MW4 5712   4.053   0.311   2.301
 1421SOL     OW 5713   4.252   0.477   2.231
 1421SOL    HW2 5714   4.230   0.566   2.259
 1421SOL    HW3 5715   4.324   0.451   2.288
 1421SOL    MW4 5716   4.258   0.485   2.242
 1422SOL     OW 5717   4.235   0.728   2.346
 1422SOL    HW2 5718   4.157   0.772   2.312
 1422SOL    HW3 5719   4.308   0.782   2.315
 1422SOL    MW4 5720   4.234   0.741   2.337
 1423SOL     OW 5721   4.018   0.855   2.216
 1423SOL    HW2 5722   4.045   0.940   2.250
 1423SOL    HW3 5723   4.040   0.857   2.123
 1423SOL    MW4 5724   4.024   0.866   2.209
 1424SOL     OW 5725   4.045   1.098   2.331
 1424SOL    HW2 5726   4.030   1.122   2.422
 1424SOL    HW3 5727   3.971   1.136   2.283
 1424SOL    MW4 5728   4.033   1.106   2.337
 1425SOL     OW 5729   4.242   1.275   2.234
 1425SOL    HW2 5730   4.165   1.229   2.267
 1425SOL    HW3 5731   4.315   1.239   2.283
 1425SOL    MW4 5732   4.241   1.264   2.245
 1426SOL     OW 5733   4.260   1.545   2.347
 1426SOL    HW2 5734   4.243   1.469   2.293
 1426SOL    HW3 5735   4.337   1.586   2.308
 1426SOL    MW4 5736   4.268   1.541   2.335
 1427SOL     OW 5737   4.016   1.652   2.258
 1427SOL    HW2 5738   4.102   1.626   2.291
 1427SOL    HW3 5739   3.954   1.605   2.314
 1427SOL    MW4 5740   4.019   1.642   2.269
 1428SOL     OW 5741   4.044   1.919   2.327
 1428SOL    HW2 5742   4.026   1.911   2.421
 1428SOL    HW3 5743   4.038   1.829   2.294
 1428SOL    MW4 5744   4.041   1.906   2.335
 1429SOL     OW 5745   4.287   2.062   2.286
 1429SOL    HW2 5746   4.272   2.152   2.313
 1429SOL    HW3 5747   4.212   2.014   2.319
 1429SOL    MW4 5748   4.275   2.067   2.294
 1430SOL     OW 5749   4.247   2.320   2.369
 1430SOL    HW2 5750   4.173   2.373   2.339
 1430SOL    HW3 5751   4.322   2.353   2.319
 1430SOL    MW4 5752   4.247   2.331   2.358
 1431SOL     OW 5753   4.033   2.460   2.260
 1431SOL    HW2 5754   4.021   2.553   2.279
 1431SOL    HW3 5755   3.954   2.418   2.294
 1431SOL    MW4 5756   4.021   2.467   2.267
 1432SOL     OW 5757   4.008   2.725   2.377
 1432SOL    HW2 5758   3.992   2.725   2.471
 1432SOL    HW3 5759   3.926   2.757   2.339
 1432SOL    MW4 5760   3.995   2.729   2.384
 1433SOL     OW 5761   4.245   2.832   2.264
 1433SOL    HW2 5762   4.168   2.805   2.314
 1433SOL    HW3 5763   4.317   2.779   2.300
 1433SOL    MW4 5764   4.245   2.821   2.275
 1434SOL     OW 5765   4.268   3.123   2.332
 1434SOL    HW2 5766   4.271   3.028   2.318
 1434SOL    HW3 5767   4.347   3.156   2.289
 1434SOL    MW4 5768   4.279   3.115   2.325
 1435SOL     OW 5769   4.026   3.238   2.220
 1435SOL    HW2 5770   4.026   3.329   2.249
 1435SOL    HW3 5771   4.111   3.204   2.247
 1435SOL    MW4 5772   4.037   3.245   2.227
 1436SOL     OW 5773   4.040   3.495   2.339
 1436SOL    HW2 5774   4.114   3.544   2.302
 1436SOL    HW3 5775   3.963   3.547   2.316
 1436SOL    MW4 5776   4.040   3.509   2.331
 1437SOL     OW 5777   4.238   3.646   2.242
 1437SOL    HW2 5778   4.244   3.738   2.268
 1437SOL    HW3 5779   4.254   3.646   2.148
 1437SOL    MW4 5780   4.241   3.658   2.233
 1438SOL     OW 5781   4.276   3.909   2.298
 1438SOL    HW2 5782   4.274   3.891   2.392
 1438SOL    HW3 5783   4.365   3.939   2.280
 1438SOL    MW4 5784   4.287   3.910   2.308
 1439SOL     OW 5785   4.012   3.989   2.259
 1439SOL    HW2 5786   4.098   3.954   2.282
 1439SOL    HW3 5787   4.021   4.018   2.168
 1439SOL    MW4 5788   4.024   3.988   2.250
 1440SOL     OW 5789   4.002   4.271   2.390
 1440SOL    HW2 5790   4.071   4.312   2.338
 1440SOL    HW3 5791   3.994   4.183   2.353
 1440SOL    MW4 5792   4.010   4.265   2.378
 1441SOL     OW 5793   4.234   4.381   2.267
 1441SOL    HW2 5794   4.243   4.465   2.311
 1441SOL    HW3 5795   4.309   4.330   2.297
 1441SOL    MW4 5796   4.245   4.385   2.277
 1442SOL     OW 5797   0.254   4.652   2.649
 1442SOL    HW2 5798   0.230   4.560   2.664
 1442SOL    HW3 5799   0.183   4.702   2.690
 1442SOL    MW4 5800   0.241   4.646   2.657
 1443SOL     OW 5801   0.028   0.119   2.738
 1443SOL    HW2 5802   0.023   0.138   2.831
 1443SOL    HW3 5803   0.016   0.204   2.696
 1443SOL    MW4 5804   0.025   0.133   2.744
 1444SOL     OW 5805   4.464   0.368   2.667
 1444SOL    HW2 5806   4.531   0.427   2.702
 1444SOL    HW3 5807   4.476   0.373   2.572
 1444SOL    MW4 5808   4.475   0.376   2.659
 1445SOL     OW 5809   0.181   0.521   2.743
 1445SOL    HW2 5810   0.182   0.520   2.839
 1445SOL    HW3 5811   0.263   0.477   2.718
 1445SOL    MW4 5812   0.192   0.515   2.752
 1446SOL     OW 5813   0.233   0.770   2.635
 1446SOL    HW2 5814   0.317   0.809   2.658
 1446SOL    HW3 5815   0.227   0.691   2.689
 1446SOL    MW4 5816   0.243   0.765   2.645
 1447SOL     OW 5817   4.488   0.902   2.698
 1447SOL    HW2 5818   4.419   0.837   2.688
 1447SOL    HW3 5819   4.568   0.859   2.668
 1447SOL    MW4 5820   4.489   0.888   2.693
 1448SOL     OW 5821   4.479   1.174   2.627
 1448SOL    HW2 5822   4.570   1.198   2.644
 1448SOL    HW3 5823   4.477   1.078   2.637
 1448SOL    MW4 5824   4.490   1.164   2.631
 1449SOL     OW 5825   0.220   1.270   2.738
 1449SOL    HW2 5826   0.307   1.232   2.726
 1449SOL    HW3 5827   0.226   1.357   2.700
 1449SOL    MW4 5828   0.233   1.276   2.731
 1450SOL     OW 5829   0.261   1.528   2.639
 1450SOL    HW2 5830   0.313   1.602   2.671
 1450SOL    HW3 5831   0.171   1.549   2.665
 1450SOL    MW4 5832   0.256   1.541   2.646
 1451SOL     OW 5833   0.015   1.616   2.725
 1451SOL    HW2 5834  -0.002   1.600   2.818
 1451SOL    HW3 5835   0.014   1.711   2.717
 1451SOL    MW4 5836   0.013   1.626   2.736
 1452SOL     OW 5837   4.446   1.885   2.686
 1452SOL    HW2 5838   4.519   1.941   2.712
 1452SOL    HW3 5839   4.443   1.892   2.591
 1452SOL    MW4 5840   4.455   1.893   2.677
 1453SOL     OW 5841   0.181   2.050   2.738
 1453SOL    HW2 5842   0.272   2.032   2.712
 1453SOL    HW3 5843   0.167   2.141   2.713
 1453SOL    MW4 5844   0.191   2.060   2.732
 1454SOL     OW 5845   0.144   2.304   2.611
 1454SOL    HW2 5846   0.228   2.343   2.636
 1454SOL    HW3 5847   0.080   2.352   2.663
 1454SOL    MW4 5848   0.147   2.316   2.621
 1455SOL     OW 5849   4.438   2.468   2.725
 1455SOL    HW2 5850   4.442   2.468   2.821
 1455SOL    HW3 5851   4.373   2.401   2.704
 1455SOL    MW4 5852   4.430   2.459   2.735
 1456SOL     OW 5853   4.420   2.713   2.597
 1456SOL    HW2 5854   4.352   2.773   2.627
 1456SOL    HW3 5855   4.405   2.632   2.646
 1456SOL    MW4 5856   4.409   2.710   2.607
 1457SOL     OW 5857   0.156   2.808   2.734
 1457SOL    HW2 5858   0.161   2.894   2.692
 1457SOL    HW3 5859   0.080   2.767   2.693
 1457SOL    MW4 5860   0.147   2.814   2.723
 1458SOL     OW 5861   0.223   3.096   2.637
 1458SOL    HW2 5862   0.284   3.165   2.663
 1458SOL    HW3 5863   0.233   3.089   2.542
 1458SOL    MW4 5864   0.232   3.105   2.628
 1459SOL     OW 5865   4.478   3.249   2.712
 1459SOL    HW2 5866   4.404   3.202   2.673
 1459SOL    HW3 5867   4.556   3.202   2.680
 1459SOL    MW4 5868   4.479   3.236   2.703
 1460SOL     OW 5869   4.469   3.516   2.624
 1460SOL    HW2 5870   4.545   3.554   2.669
 1460SOL    HW3 5871   4.470   3.423   2.649
 1460SOL    MW4 5872   4.479   3.509   2.633
 1461SOL     OW 5873   0.205   3.635   2.747
 1461SOL    HW2 5874   0.208   3.614   2.841
 1461SOL    HW3 5875   0.278   3.586   2.709
 1461SOL    MW4 5876   0.215   3.626   2.755
 1462SOL     OW 5877   0.252   3.905   2.681
 1462SOL    HW2 5878   0.227   3.826   2.729
 1462SOL    HW3 5879   0.262   3.877   2.590
 1462SOL    MW4 5880   0.250   3.891   2.675
 1463SOL     OW 5881   4.487   4.012   2.739
 1463SOL    HW2 5882   4.477   4.099   2.701
 1463SOL    HW3 5883   4.574   3.983   2.711
 1463SOL    MW4 5884   4.497   4.019   2.730
 1464SOL     OW 5885   4.450   4.275   2.635
 1464SOL    HW2 5886   4.387   4.301   2.702
 1464SOL    HW3 5887   4.527   4.330   2.653
 1464SOL    MW4 5888   4.452   4.286   2.646
 1465SOL     OW 5889   0.204   4.402   2.707
 1465SOL    HW2 5890   0.204   4.405   2.803
 1465SOL    HW3 5891   0.278   4.345   2.685
 1465SOL    MW4 5892   0.214   4.395   2.717
 1466SOL     OW 5893   0.704   0.006   2.645
 1466SOL    HW2 5894   0.770   0.050   2.698
 1466SOL    HW3 5895   0.624   0.056   2.659
 1466SOL    MW4 5896   0.702   0.018   2.654
 1467SOL     OW 5897   0.466   0.121   2.726
 1467SOL    HW2 5898   0.463   0.133   2.821
 1467SOL    HW3 5899   0.389   0.069   2.706
 1467SOL    MW4 5900   0.455   0.116   2.736
 1468SOL     OW 5901   0.421   0.377   2.636
 1468SOL    HW2 5902   0.500   0.421   2.669
 1468SOL    HW3 5903   0.431   0.287   2.665
 1468SOL    MW4 5904   0.433   0.371   2.645
 1469SOL     OW 5905   0.660   0.494   2.743
 1469SOL    HW2 5906   0.657   0.496   2.839
 1469SOL    HW3 5907   0.745   0.454   2.723
 1469SOL    MW4 5908   0.671   0.489   2.753
 1470SOL     OW 5909   0.658   0.748   2.632
 1470SOL    HW2 5910   0.745   0.784   2.648
 1470SOL    HW3 5911   0.660   0.661   2.673
 1470SOL    MW4 5912   0.670   0.741   2.640
 1471SOL     OW 5913   0.445   0.874   2.766
 1471SOL    HW2 5914   0.445   0.957   2.718
 1471SOL    HW3 5915   0.523   0.828   2.736
 1471SOL    MW4 5916   0.455   0.879   2.756
 1472SOL     OW 5917   0.440   1.133   2.639
 1472SOL    HW2 5918   0.504   1.196   2.671
 1472SOL    HW3 5919   0.439   1.146   2.544
 1472SOL    MW4 5920   0.448   1.143   2.631
 1473SOL     OW 5921   0.633   1.323   2.712
 1473SOL    HW2 5922   0.610   1.302   2.802
 1473SOL    HW3 5923   0.720   1.284   2.700
 1473SOL    MW4 5924   0.642   1.315   2.723
 1474SOL     OW 5925   0.649   1.589   2.597
 1474SOL    HW2 5926   0.577   1.648   2.619
 1474SOL    HW3 5927   0.622   1.504   2.632
 1474SOL    MW4 5928   0.636   1.585   2.604
 1475SOL     OW 5929   0.434   1.718   2.738
 1475SOL    HW2 5930   0.447   1.710   2.832
 1475SOL    HW3 5931   0.414   1.811   2.724
 1475SOL    MW4 5932   0.433   1.729   2.749
 1476SOL     OW 5933   0.444   1.979   2.670
 1476SOL    HW2 5934   0.527   2.010   2.704
 1476SOL    HW3 5935   0.454   1.985   2.575
 1476SOL    MW4 5936   0.456   1.984   2.662
 1477SOL     OW 5937   0.705   2.048   2.704
 1477SOL    HW2 5938   0.718   2.038   2.798
 1477SOL    HW3 5939   0.779   2.003   2.665
 1477SOL    MW4 5940   0.716   2.041   2.711
 1478SOL     OW 5941   0.658   2.318   2.627
 1478SOL    HW2 5942   0.719   2.379   2.667
 1478SOL    HW3 5943   0.689   2.231   2.654
 1478SOL    MW4 5944   0.670   2.314   2.636
 1479SOL     OW 5945   0.402   2.398   2.681
 1479SOL    HW2 5946   0.396   2.490   2.655
 1479SOL    HW3 5947   0.492   2.373   2.662
 1479SOL    MW4 5948   0.413   2.407   2.675
 1480SOL     OW 5949   0.376   2.667   2.607
 1480SOL    HW2 5950   0.454   2.712   2.638
 1480SOL    HW3 5951   0.305   2.703   2.661
 1480SOL    MW4 5952   0.377   2.678   2.618
 1481SOL     OW 5953   0.613   2.815   2.695
 1481SOL    HW2 5954   0.621   2.813   2.790
 1481SOL    HW3 5955   0.625   2.907   2.672
 1481SOL    MW4 5956   0.616   2.827   2.704
 1482SOL     OW 5957   0.692   3.110   2.629
 1482SOL    HW2 5958   0.783   3.132   2.650
 1482SOL    HW3 5959   0.689   3.110   2.534
 1482SOL    MW4 5960   0.704   3.113   2.619
 1483SOL     OW 5961   0.460   3.221   2.717
 1483SOL    HW2 5962   0.469   3.232   2.811
 1483SOL    HW3 5963   0.542   3.180   2.689
 1483SOL    MW4 5964   0.472   3.217   2.726
 1484SOL     OW 5965   0.427   3.494   2.646
 1484SOL    HW2 5966   0.431   3.402   2.670
 1484SOL    HW3 5967   0.429   3.495   2.551
 1484SOL    MW4 5968   0.428   3.482   2.637
 1485SOL     OW 5969   0.668   3.615   2.703
 1485SOL    HW2 5970   0.666   3.629   2.798
 1485SOL    HW3 5971   0.585   3.572   2.683
 1485SOL    MW4 5972   0.657   3.611   2.713
 1486SOL     OW 5973   0.669   3.878   2.614
 1486SOL    HW2 5974   0.608   3.928   2.668
 1486SOL    HW3 5975   0.658   3.787   2.643
 1486SOL    MW4 5976   0.659   3.873   2.625
 1487SOL     OW 5977   0.479   4.035   2.751
 1487SOL    HW2 5978   0.457   4.127   2.740
 1487SOL    HW3 5979   0.398   3.988   2.730
 1487SOL    MW4 5980   0.465   4.041   2.747
 1488SOL     OW 5981   0.433   4.281   2.656
 1488SOL    HW2 5982   0.519   4.317   2.678
 1488SOL    HW3 5983   0.435   4.272   2.561
 1488SOL    MW4 5984   0.445   4.284   2.646
 1489SOL     OW 5985   0.664   4.411   2.731
 1489SOL    HW2 5986   0.744   4.376   2.691
 1489SOL    HW3 5987   0.666   4.505   2.710
 1489SOL    MW4 5988   0.675   4.419   2.723
 1490SOL     OW 5989   1.140   4.625   2.671
 1490SOL    HW2 5990   1.218   4.665   2.708
 1490SOL    HW3 5991   1.144   4.534   2.699
 1490SOL    MW4 5992   1.151   4.618   2.679
 1491SOL     OW 5993   0.927   0.130   2.748
 1491SOL    HW2 5994   0.930   0.119   2.843
 1491SOL    HW3 5995   0.999   0.077   2.715
 1491SOL    MW4 5996   0.937   0.122   2.756
 1492SOL     OW 5997   0.921   0.402   2.650
 1492SOL    HW2 5998   0.925   0.315   2.690
 1492SOL    HW3 5999   0.897   0.385   2.559
 1492SOL    MW4 6000   0.919   0.388   2.643
 1493SOL     OW 6001   1.142   0.522   2.733
 1493SOL    HW2 6002   1.130   0.607   2.691
 1493SOL    HW3 6003   1.068   0.469   2.702
 1493SOL    MW4 6004   1.131   0.526   2.723
 1494SOL     OW 6005   1.145   0.786   2.654
 1494SOL    HW2 6006   1.223   0.828   2.690
 1494SOL    HW3 6007   1.154   0.795   2.560
 1494SOL    MW4 6008   1.156   0.793   2.647
 1495SOL     OW 6009   0.884   0.889   2.712
 1495SOL    HW2 6010   0.887   0.888   2.808
 1495SOL    HW3 6011   0.971   0.858   2.685
 1495SOL    MW4 6012   0.896   0.885   2.721
 1496SOL     OW 6013   0.858   1.165   2.663
 1496SOL    HW2 6014   0.855   1.072   2.686
 1496SOL    HW3 6015   0.869   1.166   2.568
 1496SOL    MW4 6016   0.859   1.153   2.653
 1497SOL     OW 6017   1.094   1.288   2.741
 1497SOL    HW2 6018   1.093   1.372   2.696
 1497SOL    HW3 6019   1.011   1.247   2.718
 1497SOL    MW4 6020   1.083   1.293   2.732
 1498SOL     OW 6021   1.136   1.550   2.624
 1498SOL    HW2 6022   1.056   1.591   2.657
 1498SOL    HW3 6023   1.123   1.544   2.530
 1498SOL    MW4 6024   1.124   1.554   2.616
 1499SOL     OW 6025   0.906   1.673   2.710
 1499SOL    HW2 6026   0.922   1.669   2.804
 1499SOL    HW3 6027   0.818   1.638   2.699
 1499SOL    MW4 6028   0.897   1.667   2.721
 1500SOL     OW 6029   0.936   1.930   2.592
 1500SOL    HW2 6030   1.003   1.983   2.636
 1500SOL    HW3 6031   0.922   1.856   2.650
 1500SOL    MW4 6032   0.943   1.927   2.605
 1501SOL     OW 6033   1.102   2.098   2.726
 1501SOL    HW2 6034   1.184   2.061   2.693
 1501SOL    HW3 6035   1.093   2.181   2.679
 1501SOL    MW4 6036   1.112   2.104   2.716
 1502SOL     OW 6037   1.107   2.336   2.592
 1502SOL    HW2 6038   1.166   2.394   2.641
 1502SOL    HW3 6039   1.113   2.368   2.502
 1502SOL    MW4 6040   1.116   2.348   2.586
 1503SOL     OW 6041   0.873   2.466   2.730
 1503SOL    HW2 6042   0.853   2.551   2.690
 1503SOL    HW3 6043   0.947   2.432   2.679
 1503SOL    MW4 6044   0.880   2.473   2.718
 1504SOL     OW 6045   0.848   2.713   2.609
 1504SOL    HW2 6046   0.909   2.776   2.646
 1504SOL    HW3 6047   0.761   2.747   2.633
 1504SOL    MW4 6048   0.845   2.726   2.617
 1505SOL     OW 6049   1.083   2.832   2.694
 1505SOL    HW2 6050   1.106   2.825   2.787
 1505SOL    HW3 6051   1.159   2.795   2.648
 1505SOL    MW4 6052   1.096   2.826   2.700
 1506SOL     OW 6053   1.148   3.096   2.658
 1506SOL    HW2 6054   1.122   3.007   2.681
 1506SOL    HW3 6055   1.136   3.101   2.563
 1506SOL    MW4 6056   1.143   3.085   2.648
 1507SOL     OW 6057   0.919   3.208   2.753
 1507SOL    HW2 6058   0.903   3.286   2.701
 1507SOL    HW3 6059   1.006   3.179   2.726
 1507SOL    MW4 6060   0.928   3.215   2.743
 1508SOL     OW 6061   0.887   3.462   2.634
 1508SOL    HW2 6062   0.961   3.508   2.675
 1508SOL    HW3 6063   0.810   3.512   2.662
 1508SOL    MW4 6064   0.887   3.475   2.643
 1509SOL     OW 6065   1.102   3.599   2.737
 1509SOL    HW2 6066   1.101   3.626   2.829
 1509SOL    HW3 6067   1.100   3.681   2.688
 1509SOL    MW4 6068   1.102   3.613   2.742
 1510SOL     OW 6069   1.098   3.851   2.609
 1510SOL    HW2 6070   1.178   3.889   2.647
 1510SOL    HW3 6071   1.110   3.859   2.515
 1510SOL    MW4 6072   1.110   3.857   2.602
 1511SOL     OW 6073   0.893   4.008   2.740
 1511SOL    HW2 6074   0.958   3.963   2.685
 1511SOL    HW3 6075   0.809   3.970   2.712
 1511SOL    MW4 6076   0.890   3.997   2.729
 1512SOL     OW 6077   0.888   4.266   2.660
 1512SOL    HW2 6078   0.892   4.174   2.685
 1512SOL    HW3 6079   0.884   4.265   2.565
 1512SOL    MW4 6080   0.888   4.254   2.651
 1513SOL     OW 6081   1.144   4.351   2.743
 1513SOL    HW2 6082   1.137   4.378   2.835
 1513SOL    HW3 6083   1.055   4.327   2.718
 1513SOL    MW4 6084   1.131   4.351   2.752
 1514SOL     OW 6085   1.555   4.633   2.629
 1514SOL    HW2 6086   1.555   4.538   2.638
 1514SOL    HW3 6087   1.576   4.648   2.537
 1514SOL    MW4 6088   1.558   4.623   2.618
 1515SOL     OW 6089   1.353   0.119   2.777
 1515SOL    HW2 6090   1.360   0.201   2.728
 1515SOL    HW3 6091   1.411   0.059   2.732
 1515SOL    MW4 6092   1.361   0.122   2.765
 1516SOL     OW 6093   1.340   0.363   2.629
 1516SOL    HW2 6094   1.419   0.408   2.659
 1516SOL    HW3 6095   1.268   0.419   2.658
 1516SOL    MW4 6096   1.341   0.377   2.637
 1517SOL     OW 6097   1.584   0.474   2.729
 1517SOL    HW2 6098   1.659   0.435   2.685
 1517SOL    HW3 6099   1.598   0.568   2.722
 1517SOL    MW4 6100   1.595   0.481   2.722
 1518SOL     OW 6101   1.594   0.742   2.703
 1518SOL    HW2 6102   1.510   0.785   2.719
 1518SOL    HW3 6103   1.602   0.739   2.608
 1518SOL    MW4 6104   1.584   0.747   2.693
 1519SOL     OW 6105   1.376   0.902   2.748
 1519SOL    HW2 6106   1.370   0.901   2.843
 1519SOL    HW3 6107   1.364   0.994   2.725
 1519SOL    MW4 6108   1.374   0.914   2.757
 1520SOL     OW 6109   1.337   1.158   2.665
 1520SOL    HW2 6110   1.400   1.222   2.700
 1520SOL    HW3 6111   1.251   1.195   2.686
 1520SOL    MW4 6112   1.334   1.172   2.673
 1521SOL     OW 6113   1.580   1.320   2.771
 1521SOL    HW2 6114   1.581   1.286   2.861
 1521SOL    HW3 6115   1.654   1.277   2.729
 1521SOL    MW4 6116   1.590   1.310   2.778
 1522SOL     OW 6117   1.583   1.566   2.676
 1522SOL    HW2 6118   1.591   1.480   2.717
 1522SOL    HW3 6119   1.584   1.548   2.582
 1522SOL    MW4 6120   1.585   1.552   2.669
 1523SOL     OW 6121   1.343   1.698   2.726
 1523SOL    HW2 6122   1.422   1.648   2.710
 1523SOL    HW3 6123   1.274   1.649   2.681
 1523SOL    MW4 6124   1.344   1.685   2.718
 1524SOL     OW 6125   1.313   1.954   2.625
 1524SOL    HW2 6126   1.320   1.862   2.652
 1524SOL    HW3 6127   1.307   1.951   2.530
 1524SOL    MW4 6128   1.313   1.941   2.616
 1525SOL     OW 6129   1.561   2.033   2.739
 1525SOL    HW2 6130   1.625   1.977   2.695
 1525SOL    HW3 6131   1.478   2.013   2.697
 1525SOL    MW4 6132   1.559   2.023   2.728
 1526SOL     OW 6133   1.528   2.312   2.652
 1526SOL    HW2 6134   1.606   2.362   2.679
 1526SOL    HW3 6135   1.549   2.221   2.674
 1526SOL    MW4 6136   1.541   2.307   2.658
 1527SOL     OW 6137   1.298   2.471   2.759
 1527SOL    HW2 6138   1.311   2.555   2.714
 1527SOL    HW3 6139   1.365   2.414   2.723
 1527SOL    MW4 6140   1.308   2.475   2.748
 1528SOL     OW 6141   1.323   2.718   2.627
 1528SOL    HW2 6142   1.401   2.755   2.668
 1528SOL    HW3 6143   1.333   2.737   2.534
 1528SOL    MW4 6144   1.335   2.725   2.620
 1529SOL     OW 6145   1.542   2.847   2.719
 1529SOL    HW2 6146   1.544   2.845   2.815
 1529SOL    HW3 6147   1.612   2.786   2.693
 1529SOL    MW4 6148   1.551   2.838   2.728
 1530SOL     OW 6149   1.604   3.099   2.619
 1530SOL    HW2 6150   1.680   3.122   2.673
 1530SOL    HW3 6151   1.576   3.014   2.653
 1530SOL    MW4 6152   1.611   3.091   2.631
 1531SOL     OW 6153   1.375   3.232   2.721
 1531SOL    HW2 6154   1.461   3.195   2.700
 1531SOL    HW3 6155   1.313   3.169   2.686
 1531SOL    MW4 6156   1.378   3.219   2.713
 1532SOL     OW 6157   1.328   3.503   2.607
 1532SOL    HW2 6158   1.335   3.417   2.647
 1532SOL    HW3 6159   1.247   3.540   2.643
 1532SOL    MW4 6160   1.318   3.497   2.617
 1533SOL     OW 6161   1.565   3.607   2.742
 1533SOL    HW2 6162   1.645   3.568   2.708
 1533SOL    HW3 6163   1.494   3.558   2.701
 1533SOL    MW4 6164   1.566   3.595   2.732
 1534SOL     OW 6165   1.593   3.855   2.626
 1534SOL    HW2 6166   1.513   3.889   2.666
 1534SOL    HW3 6167   1.595   3.763   2.651
 1534SOL    MW4 6168   1.583   3.848   2.635
 1535SOL     OW 6169   1.342   3.948   2.721
 1535SOL    HW2 6170   1.357   3.955   2.815
 1535SOL    HW3 6171   1.342   4.039   2.689
 1535SOL    MW4 6172   1.344   3.961   2.729
 1536SOL     OW 6173   1.337   4.195   2.619
 1536SOL    HW2 6174   1.287   4.247   2.681
 1536SOL    HW3 6175   1.326   4.240   2.535
 1536SOL    MW4 6176   1.329   4.208   2.616
 1537SOL     OW 6177   1.553   4.350   2.709
 1537SOL    HW2 6178   1.552   4.353   2.805
 1537SOL    HW3 6179   1.488   4.283   2.687
 1537SOL    MW4 6180   1.544   4.342   2.719
 1538SOL     OW 6181   1.947   0.005   2.636
 1538SOL    HW2 6182   2.031   0.052   2.643
 1538SOL    HW3 6183   1.941  -0.018   2.543
 1538SOL    MW4 6184   1.957   0.008   2.624
 1539SOL     OW 6185   1.729   0.100   2.794
 1539SOL    HW2 6186   1.812   0.073   2.754
 1539SOL    HW3 6187   1.661   0.059   2.741
 1539SOL    MW4 6188   1.731   0.091   2.782
 1540SOL     OW 6189   1.821   0.311   2.620
 1540SOL    HW2 6190   1.878   0.349   2.687
 1540SOL    HW3 6191   1.780   0.236   2.663
 1540SOL    MW4 6192   1.823   0.306   2.635
 1541SOL     OW 6193   2.031   0.470   2.784
 1541SOL    HW2 6194   2.109   0.433   2.741
 1541SOL    HW3 6195   2.007   0.545   2.731
 1541SOL    MW4 6196   2.038   0.475   2.772
 1542SOL     OW 6197   2.005   0.693   2.601
 1542SOL    HW2 6198   1.940   0.756   2.633
 1542SOL    HW3 6199   2.014   0.711   2.508
 1542SOL    MW4 6200   1.998   0.703   2.593
 1543SOL     OW 6201   1.832   0.875   2.724
 1543SOL    HW2 6202   1.824   0.968   2.706
 1543SOL    HW3 6203   1.744   0.840   2.712
 1543SOL    MW4 6204   1.819   0.882   2.720
 1544SOL     OW 6205   1.793   1.160   2.653
 1544SOL    HW2 6206   1.875   1.195   2.685
 1544SOL    HW3 6207   1.807   1.146   2.559
 1544SOL    MW4 6208   1.805   1.163   2.645
 1545SOL     OW 6209   2.026   1.288   2.725
 1545SOL    HW2 6210   2.025   1.292   2.820
 1545SOL    HW3 6211   2.103   1.236   2.704
 1545SOL    MW4 6212   2.036   1.282   2.735
 1546SOL     OW 6213   2.059   1.545   2.650
 1546SOL    HW2 6214   1.982   1.593   2.683
 1546SOL    HW3 6215   2.053   1.459   2.691
 1546SOL    MW4 6216   2.048   1.540   2.660
 1547SOL     OW 6217   1.824   1.641   2.792
 1547SOL    HW2 6218   1.814   1.667   2.884
 1547SOL    HW3 6219   1.737   1.609   2.768
 1547SOL    MW4 6220   1.811   1.640   2.801
 1548SOL     OW 6221   1.789   1.896   2.663
 1548SOL    HW2 6222   1.852   1.958   2.700
 1548SOL    HW3 6223   1.787   1.824   2.726
 1548SOL    MW4 6224   1.797   1.895   2.676
 1549SOL     OW 6225   1.993   2.066   2.770
 1549SOL    HW2 6226   2.001   2.062   2.865
 1549SOL    HW3 6227   2.000   2.159   2.749
 1549SOL    MW4 6228   1.995   2.078   2.780
 1550SOL     OW 6229   2.016   2.342   2.671
 1550SOL    HW2 6230   2.096   2.391   2.685
 1550SOL    HW3 6231   2.014   2.325   2.577
 1550SOL    MW4 6232   2.026   2.346   2.661
 1551SOL     OW 6233   1.756   2.452   2.729
 1551SOL    HW2 6234   1.768   2.459   2.824
 1551SOL    HW3 6235   1.833   2.403   2.699
 1551SOL    MW4 6236   1.768   2.446   2.738
 1552SOL     OW 6237   1.776   2.700   2.642
 1552SOL    HW2 6238   1.773   2.609   2.671
 1552SOL    HW3 6239   1.775   2.695   2.546
 1552SOL    MW4 6240   1.776   2.687   2.633
 1553SOL     OW 6241   1.971   2.879   2.715
 1553SOL    HW2 6242   2.038   2.811   2.711
 1553SOL    HW3 6243   1.890   2.835   2.686
 1553SOL    MW4 6244   1.969   2.864   2.710
 1554SOL     OW 6245   2.039   3.121   2.626
 1554SOL    HW2 6246   2.022   3.030   2.651
 1554SOL    HW3 6247   2.030   3.122   2.531
 1554SOL    MW4 6248   2.035   3.109   2.617
 1555SOL     OW 6249   1.800   3.225   2.755
 1555SOL    HW2 6250   1.793   3.307   2.706
 1555SOL    HW3 6251   1.873   3.178   2.712
 1555SOL    MW4 6252   1.809   3.229   2.743
 1556SOL     OW 6253   1.799   3.513   2.624
 1556SOL    HW2 6254   1.879   3.551   2.660
 1556SOL    HW3 6255   1.808   3.524   2.530
 1556SOL    MW4 6256   1.810   3.520   2.617
 1557SOL     OW 6257   2.032   3.606   2.745
 1557SOL    HW2 6258   2.032   3.598   2.840
 1557SOL    HW3 6259   2.113   3.563   2.717
 1557SOL    MW4 6260   2.043   3.599   2.754
 1558SOL     OW 6261   1.986   3.855   2.645
 1558SOL    HW2 6262   1.911   3.878   2.701
 1558SOL    HW3 6263   2.008   3.765   2.671
 1558SOL    MW4 6264   1.979   3.846   2.656
 1559SOL     OW 6265   1.780   4.004   2.766
 1559SOL    HW2 6266   1.807   4.081   2.715
 1559SOL    HW3 6267   1.711   3.964   2.714
 1559SOL    MW4 6268   1.774   4.009   2.752
 1560SOL     OW 6269   1.816   4.256   2.640
 1560SOL    HW2 6270   1.731   4.282   2.675
 1560SOL    HW3 6271   1.806   4.266   2.545
 1560SOL    MW4 6272   1.803   4.261   2.632
 1561SOL     OW 6273   2.036   4.426   2.716
 1561SOL    HW2 6274   1.953   4.380   2.706
 1561SOL    HW3 6275   2.016   4.517   2.695
 1561SOL    MW4 6276   2.022   4.432   2.712
 1562SOL     OW 6277   2.442   4.628   2.627
 1562SOL    HW2 6278   2.526   4.661   2.657
 1562SOL    HW3 6279   2.445   4.638   2.531
 1562SOL    MW4 6280   2.453   4.633   2.618
 1563SOL     OW 6281   2.199   0.090   2.725
 1563SOL    HW2 6282   2.194   0.081   2.820
 1563SOL    HW3 6283   2.277   0.040   2.701
 1563SOL    MW4 6284   2.209   0.082   2.734
 1564SOL     OW 6285   2.254   0.361   2.634
 1564SOL    HW2 6286   2.266   0.275   2.673
 1564SOL    HW3 6287   2.243   0.343   2.540
 1564SOL    MW4 6288   2.254   0.347   2.627
 1565SOL     OW 6289   2.489   0.493   2.744
 1565SOL    HW2 6290   2.509   0.580   2.708
 1565SOL    HW3 6291   2.410   0.466   2.697
 1565SOL    MW4 6292   2.481   0.501   2.733
 1566SOL     OW 6293   2.451   0.771   2.648
 1566SOL    HW2 6294   2.372   0.821   2.670
 1566SOL    HW3 6295   2.453   0.770   2.553
 1566SOL    MW4 6296   2.441   0.778   2.639
 1567SOL     OW 6297   2.193   0.878   2.688
 1567SOL    HW2 6298   2.196   0.872   2.783
 1567SOL    HW3 6299   2.132   0.810   2.662
 1567SOL    MW4 6300   2.185   0.868   2.697
 1568SOL     OW 6301   2.263   1.153   2.643
 1568SOL    HW2 6302   2.239   1.064   2.669
 1568SOL    HW3 6303   2.296   1.144   2.554
 1568SOL    MW4 6304   2.264   1.140   2.635
 1569SOL     OW 6305   2.470   1.260   2.778
 1569SOL    HW2 6306   2.543   1.226   2.725
 1569SOL    HW3 6307   2.391   1.230   2.732
 1569SOL    MW4 6308   2.469   1.251   2.765
 1570SOL     OW 6309   2.481   1.500   2.646
 1570SOL    HW2 6310   2.428   1.559   2.699
 1570SOL    HW3 6311   2.466   1.413   2.684
 1570SOL    MW4 6312   2.472   1.496   2.658
 1571SOL     OW 6313   2.287   1.649   2.789
 1571SOL    HW2 6314   2.276   1.735   2.747
 1571SOL    HW3 6315   2.215   1.597   2.756
 1571SOL    MW4 6316   2.276   1.654   2.779
 1572SOL     OW 6317   2.215   1.906   2.682
 1572SOL    HW2 6318   2.134   1.951   2.705
 1572SOL    HW3 6319   2.216   1.905   2.586
 1572SOL    MW4 6320   2.205   1.912   2.672
 1573SOL     OW 6321   2.464   2.057   2.694
 1573SOL    HW2 6322   2.440   2.145   2.665
 1573SOL    HW3 6323   2.384   2.005   2.681
 1573SOL    MW4 6324   2.450   2.062   2.688
 1574SOL     OW 6325   2.422   2.321   2.621
 1574SOL    HW2 6326   2.506   2.346   2.658
 1574SOL    HW3 6327   2.440   2.308   2.528
 1574SOL    MW4 6328   2.436   2.323   2.614
 1575SOL     OW 6329   2.222   2.490   2.745
 1575SOL    HW2 6330   2.229   2.483   2.840
 1575SOL    HW3 6331   2.298   2.443   2.711
 1575SOL    MW4 6332   2.233   2.483   2.753
 1576SOL     OW 6333   2.207   2.735   2.616
 1576SOL    HW2 6334   2.288   2.779   2.642
 1576SOL    HW3 6335   2.207   2.654   2.666
 1576SOL    MW4 6336   2.218   2.730   2.626
 1577SOL     OW 6337   2.442   2.849   2.686
 1577SOL    HW2 6338   2.523   2.799   2.679
 1577SOL    HW3 6339   2.471   2.941   2.685
 1577SOL    MW4 6340   2.457   2.855   2.685
 1578SOL     OW 6341   2.479   3.121   2.624
 1578SOL    HW2 6342   2.399   3.153   2.665
 1578SOL    HW3 6343   2.462   3.127   2.530
 1578SOL    MW4 6344   2.467   3.126   2.617
 1579SOL     OW 6345   2.257   3.225   2.745
 1579SOL    HW2 6346   2.257   3.207   2.839
 1579SOL    HW3 6347   2.173   3.192   2.714
 1579SOL    MW4 6348   2.246   3.219   2.754
 1580SOL     OW 6349   2.261   3.500   2.627
 1580SOL    HW2 6350   2.332   3.558   2.655
 1580SOL    HW3 6351   2.279   3.417   2.671
 1580SOL    MW4 6352   2.273   3.497   2.636
 1581SOL     OW 6353   2.479   3.661   2.703
 1581SOL    HW2 6354   2.480   3.672   2.798
 1581SOL    HW3 6355   2.471   3.750   2.669
 1581SOL    MW4 6356   2.478   3.674   2.711
 1582SOL     OW 6357   2.425   3.922   2.601
 1582SOL    HW2 6358   2.495   3.962   2.652
 1582SOL    HW3 6359   2.345   3.946   2.648
 1582SOL    MW4 6360   2.423   3.930   2.614
 1583SOL     OW 6361   2.198   4.015   2.750
 1583SOL    HW2 6362   2.194   4.023   2.846
 1583SOL    HW3 6363   2.126   3.956   2.729
 1583SOL    MW4 6364   2.188   4.008   2.760
 1584SOL     OW 6365   2.252   4.272   2.631
 1584SOL    HW2 6366   2.222   4.189   2.668
 1584SOL    HW3 6367   2.184   4.335   2.655
 1584SOL    MW4 6368   2.239   4.269   2.639
 1585SOL     OW 6369   2.468   4.388   2.759
 1585SOL    HW2 6370   2.400   4.338   2.714
 1585SOL    HW3 6371   2.452   4.479   2.733
 1585SOL    MW4 6372   2.457   4.394   2.750
 1586SOL     OW 6373   2.902   4.610   2.639
 1586SOL    HW2 6374   2.981   4.655   2.669
 1586SOL    HW3 6375   2.901   4.625   2.545
 1586SOL    MW4 6376   2.912   4.618   2.631
 1587SOL     OW 6377   2.675   0.072   2.719
 1587SOL    HW2 6378   2.687   0.072   2.814
 1587SOL    HW3 6379   2.758   0.039   2.684
 1587SOL    MW4 6380   2.688   0.068   2.727
 1588SOL     OW 6381   2.689   0.346   2.636
 1588SOL    HW2 6382   2.672   0.257   2.664
 1588SOL    HW3 6383   2.616   0.397   2.670
 1588SOL    MW4 6384   2.677   0.341   2.644
 1589SOL     OW 6385   2.936   0.434   2.745
 1589SOL    HW2 6386   2.929   0.521   2.704
 1589SOL    HW3 6387   2.859   0.387   2.714
 1589SOL    MW4 6388   2.925   0.439   2.736
 1590SOL     OW 6389   2.927   0.718   2.630
 1590SOL    HW2 6390   2.998   0.778   2.651
 1590SOL    HW3 6391   2.847   0.768   2.644
 1590SOL    MW4 6392   2.926   0.732   2.634
 1591SOL     OW 6393   2.704   0.887   2.691
 1591SOL    HW2 6394   2.712   0.890   2.786
 1591SOL    HW3 6395   2.612   0.864   2.676
 1591SOL    MW4 6396   2.693   0.884   2.701
 1592SOL     OW 6397   2.687   1.156   2.623
 1592SOL    HW2 6398   2.763   1.202   2.656
 1592SOL    HW3 6399   2.707   1.063   2.637
 1592SOL    MW4 6400   2.699   1.150   2.629
 1593SOL     OW 6401   2.911   1.308   2.724
 1593SOL    HW2 6402   2.907   1.291   2.818
 1593SOL    HW3 6403   2.992   1.267   2.695
 1593SOL    MW4 6404   2.921   1.301   2.733
 1594SOL     OW 6405   2.917   1.581   2.629
 1594SOL    HW2 6406   2.838   1.631   2.648
 1594SOL    HW3 6407   2.899   1.494   2.666
 1594SOL    MW4 6408   2.904   1.576   2.637
 1595SOL     OW 6409   2.679   1.679   2.715
 1595SOL    HW2 6410   2.677   1.704   2.807
 1595SOL    HW3 6411   2.615   1.608   2.707
 1595SOL    MW4 6412   2.671   1.673   2.726
 1596SOL     OW 6413   2.700   1.935   2.600
 1596SOL    HW2 6414   2.697   1.852   2.647
 1596SOL    HW3 6415   2.616   1.977   2.618
 1596SOL    MW4 6416   2.689   1.930   2.609
 1597SOL     OW 6417   2.906   2.058   2.742
 1597SOL    HW2 6418   2.915   2.141   2.696
 1597SOL    HW3 6419   2.837   2.011   2.694
 1597SOL    MW4 6420   2.898   2.063   2.729
 1598SOL     OW 6421   2.934   2.311   2.636
 1598SOL    HW2 6422   3.015   2.359   2.653
 1598SOL    HW3 6423   2.865   2.364   2.675
 1598SOL    MW4 6424   2.936   2.324   2.644
 1599SOL     OW 6425   2.678   2.423   2.712
 1599SOL    HW2 6426   2.668   2.419   2.807
 1599SOL    HW3 6427   2.685   2.516   2.692
 1599SOL    MW4 6428   2.678   2.435   2.722
 1600SOL     OW 6429   2.690   2.690   2.671
 1600SOL    HW2 6430   2.755   2.750   2.707
 1600SOL    HW3 6431   2.713   2.683   2.579
 1600SOL    MW4 6432   2.702   2.697   2.664
 1601SOL     OW 6433   2.892   2.846   2.762
 1601SOL    HW2 6434   2.915   2.859   2.854
 1601SOL    HW3 6435   2.894   2.933   2.724
 1601SOL    MW4 6436   2.895   2.859   2.769
 1602SOL     OW 6437   2.938   3.090   2.629
 1602SOL    HW2 6438   2.857   3.135   2.654
 1602SOL    HW3 6439   2.930   3.078   2.534
 1602SOL    MW4 6440   2.926   3.094   2.620
 1603SOL     OW 6441   2.712   3.250   2.707
 1603SOL    HW2 6442   2.714   3.336   2.665
 1603SOL    HW3 6443   2.633   3.208   2.671
 1603SOL    MW4 6444   2.702   3.256   2.697
 1604SOL     OW 6445   2.702   3.522   2.602
 1604SOL    HW2 6446   2.623   3.549   2.648
 1604SOL    HW3 6447   2.675   3.514   2.510
 1604SOL    MW4 6448   2.688   3.524   2.596
 1605SOL     OW 6449   2.923   3.654   2.699
 1605SOL    HW2 6450   2.905   3.640   2.792
 1605SOL    HW3 6451   2.858   3.599   2.654
 1605SOL    MW4 6452   2.912   3.645   2.705
 1606SOL     OW 6453   2.906   3.919   2.620
 1606SOL    HW2 6454   2.967   3.969   2.674
 1606SOL    HW3 6455   2.915   3.829   2.650
 1606SOL    MW4 6456   2.915   3.914   2.631
 1607SOL     OW 6457   2.666   3.980   2.739
 1607SOL    HW2 6458   2.659   4.073   2.720
 1607SOL    HW3 6459   2.749   3.953   2.700
 1607SOL    MW4 6460   2.676   3.989   2.731
 1608SOL     OW 6461   2.665   4.243   2.663
 1608SOL    HW2 6462   2.749   4.281   2.688
 1608SOL    HW3 6463   2.601   4.311   2.683
 1608SOL    MW4 6464   2.668   4.257   2.669
 1609SOL     OW 6465   2.926   4.367   2.758
 1609SOL    HW2 6466   2.949   4.383   2.850
 1609SOL    HW3 6467   2.910   4.454   2.722
 1609SOL    MW4 6468   2.927   4.381   2.765
 1610SOL     OW 6469   3.390   4.633   2.653
 1610SOL    HW2 6470   3.400   4.544   2.686
 1610SOL    HW3 6471   3.313   4.667   2.698
 1610SOL    MW4 6472   3.381   4.626   2.663
 1611SOL     OW 6473   3.128   0.070   2.728
 1611SOL    HW2 6474   3.132   0.083   2.823
 1611SOL    HW3 6475   3.156   0.154   2.692
 1611SOL    MW4 6476   3.132   0.083   2.736
 1612SOL     OW 6477   3.160   0.330   2.637
 1612SOL    HW2 6478   3.074   0.366   2.661
 1612SOL    HW3 6479   3.156   0.320   2.542
 1612SOL    MW4 6480   3.148   0.333   2.627
 1613SOL     OW 6481   3.369   0.492   2.744
 1613SOL    HW2 6482   3.349   0.585   2.734
 1613SOL    HW3 6483   3.296   0.448   2.702
 1613SOL    MW4 6484   3.357   0.499   2.737
 1614SOL     OW 6485   3.333   0.745   2.665
 1614SOL    HW2 6486   3.408   0.794   2.699
 1614SOL    HW3 6487   3.342   0.749   2.570
 1614SOL    MW4 6488   3.344   0.752   2.657
 1615SOL     OW 6489   3.122   0.901   2.706
 1615SOL    HW2 6490   3.127   0.910   2.802
 1615SOL    HW3 6491   3.196   0.844   2.684
 1615SOL    MW4 6492   3.133   0.894   2.716
 1616SOL     OW 6493   3.135   1.171   2.622
 1616SOL    HW2 6494   3.119   1.085   2.662
 1616SOL    HW3 6495   3.150   1.152   2.530
 1616SOL    MW4 6496   3.135   1.157   2.615
 1617SOL     OW 6497   3.390   1.255   2.702
 1617SOL    HW2 6498   3.401   1.253   2.797
 1617SOL    HW3 6499   3.303   1.218   2.688
 1617SOL    MW4 6500   3.380   1.249   2.713
 1618SOL     OW 6501   3.366   1.520   2.628
 1618SOL    HW2 6502   3.292   1.568   2.664
 1618SOL    HW3 6503   3.370   1.439   2.679
 1618SOL    MW4 6504   3.357   1.515   2.639
 1619SOL     OW 6505   3.157   1.655   2.727
 1619SOL    HW2 6506   3.169   1.744   2.694
 1619SOL    HW3 6507   3.079   1.623   2.683
 1619SOL    MW4 6508   3.148   1.663   2.717
 1620SOL     OW 6509   3.164   1.924   2.643
 1620SOL    HW2 6510   3.230   1.976   2.689
 1620SOL    HW3 6511   3.081   1.952   2.680
 1620SOL    MW4 6512   3.162   1.935   2.654
 1621SOL     OW 6513   3.392   2.059   2.734
 1621SOL    HW2 6514   3.395   2.087   2.826
 1621SOL    HW3 6515   3.371   2.138   2.685
 1621SOL    MW4 6516   3.390   2.073   2.740
 1622SOL     OW 6517   3.336   2.298   2.628
 1622SOL    HW2 6518   3.407   2.351   2.665
 1622SOL    HW3 6519   3.345   2.309   2.533
 1622SOL    MW4 6520   3.347   2.307   2.620
 1623SOL     OW 6521   3.133   2.483   2.715
 1623SOL    HW2 6522   3.142   2.565   2.668
 1623SOL    HW3 6523   3.205   2.429   2.684
 1623SOL    MW4 6524   3.143   2.487   2.705
 1624SOL     OW 6525   3.095   2.728   2.615
 1624SOL    HW2 6526   3.162   2.772   2.668
 1624SOL    HW3 6527   3.013   2.749   2.659
 1624SOL    MW4 6528   3.093   2.737   2.628
 1625SOL     OW 6529   3.305   2.836   2.772
 1625SOL    HW2 6530   3.342   2.857   2.858
 1625SOL    HW3 6531   3.367   2.774   2.734
 1625SOL    MW4 6532   3.318   2.830   2.778
 1626SOL     OW 6533   3.371   3.079   2.655
 1626SOL    HW2 6534   3.347   2.988   2.672
 1626SOL    HW3 6535   3.365   3.088   2.560
 1626SOL    MW4 6536   3.367   3.068   2.645
 1627SOL     OW 6537   3.155   3.236   2.750
 1627SOL    HW2 6538   3.225   3.179   2.717
 1627SOL    HW3 6539   3.075   3.197   2.714
 1627SOL    MW4 6540   3.154   3.223   2.741
 1628SOL     OW 6541   3.162   3.514   2.628
 1628SOL    HW2 6542   3.152   3.432   2.676
 1628SOL    HW3 6543   3.089   3.569   2.659
 1628SOL    MW4 6544   3.151   3.510   2.639
 1629SOL     OW 6545   3.376   3.629   2.717
 1629SOL    HW2 6546   3.375   3.631   2.813
 1629SOL    HW3 6547   3.290   3.596   2.692
 1629SOL    MW4 6548   3.365   3.625   2.726
 1630SOL     OW 6549   3.339   3.886   2.646
 1630SOL    HW2 6550   3.348   3.799   2.685
 1630SOL    HW3 6551   3.336   3.870   2.552
 1630SOL    MW4 6552   3.340   3.872   2.639
 1631SOL     OW 6553   3.118   4.041   2.752
 1631SOL    HW2 6554   3.126   4.132   2.723
 1631SOL    HW3 6555   3.198   3.999   2.722
 1631SOL    MW4 6556   3.129   4.047   2.745
 1632SOL     OW 6557   3.152   4.301   2.645
 1632SOL    HW2 6558   3.070   4.336   2.681
 1632SOL    HW3 6559   3.135   4.294   2.551
 1632SOL    MW4 6560   3.139   4.305   2.637
 1633SOL     OW 6561   3.387   4.386   2.765
 1633SOL    HW2 6562   3.395   4.385   2.860
 1633SOL    HW3 6563   3.299   4.352   2.748
 1633SOL    MW4 6564   3.376   4.381   2.775
 1634SOL     OW 6565   3.794   4.627   2.620
 1634SOL    HW2 6566   3.780   4.544   2.666
 1634SOL    HW3 6567   3.732   4.688   2.660
 1634SOL    MW4 6568   3.784   4.624   2.632
 1635SOL     OW 6569   3.612   0.113   2.747
 1635SOL    HW2 6570   3.603   0.199   2.706
 1635SOL    HW3 6571   3.535   0.065   2.717
 1635SOL    MW4 6572   3.601   0.118   2.737
 1636SOL     OW 6573   3.590   0.370   2.614
 1636SOL    HW2 6574   3.668   0.420   2.639
 1636SOL    HW3 6575   3.517   0.421   2.650
 1636SOL    MW4 6576   3.591   0.384   2.622
 1637SOL     OW 6577   3.817   0.502   2.710
 1637SOL    HW2 6578   3.821   0.475   2.801
 1637SOL    HW3 6579   3.895   0.464   2.670
 1637SOL    MW4 6580   3.828   0.493   2.717
 1638SOL     OW 6581   3.832   0.767   2.654
 1638SOL    HW2 6582   3.745   0.803   2.675
 1638SOL    HW3 6583   3.826   0.674   2.676
 1638SOL    MW4 6584   3.820   0.760   2.660
 1639SOL     OW 6585   3.600   0.872   2.727
 1639SOL    HW2 6586   3.614   0.884   2.820
 1639SOL    HW3 6587   3.614   0.958   2.688
 1639SOL    MW4 6588   3.603   0.885   2.734
 1640SOL     OW 6589   3.600   1.115   2.604
 1640SOL    HW2 6590   3.667   1.174   2.639
 1640SOL    HW3 6591   3.517   1.154   2.631
 1640SOL    MW4 6592   3.598   1.128   2.612
 1641SOL     OW 6593   3.805   1.247   2.730
 1641SOL    HW2 6594   3.890   1.222   2.693
 1641SOL    HW3 6595   3.794   1.339   2.704
 1641SOL    MW4 6596   3.815   1.256   2.721
 1642SOL     OW 6597   3.794   1.505   2.636
 1642SOL    HW2 6598   3.875   1.550   2.660
 1642SOL    HW3 6599   3.725   1.564   2.666
 1642SOL    MW4 6600   3.796   1.519   2.643
 1643SOL     OW 6601   3.586   1.648   2.729
 1643SOL    HW2 6602   3.581   1.731   2.681
 1643SOL    HW3 6603   3.509   1.600   2.701
 1643SOL    MW4 6604   3.575   1.653   2.719
 1644SOL     OW 6605   3.596   1.909   2.643
 1644SOL    HW2 6606   3.519   1.949   2.683
 1644SOL    HW3 6607   3.586   1.925   2.549
 1644SOL    MW4 6608   3.585   1.916   2.636
 1645SOL     OW 6609   3.800   2.084   2.715
 1645SOL    HW2 6610   3.876   2.032   2.691
 1645SOL    HW3 6611   3.725   2.031   2.688
 1645SOL    MW4 6612   3.800   2.070   2.708
 1646SOL     OW 6613   3.809   2.360   2.638
 1646SOL    HW2 6614   3.806   2.269   2.669
 1646SOL    HW3 6615   3.798   2.353   2.543
 1646SOL    MW4 6616   3.807   2.347   2.630
 1647SOL     OW 6617   3.556   2.446   2.743
 1647SOL    HW2 6618   3.563   2.466   2.836
 1647SOL    HW3 6619   3.644   2.419   2.717
 1647SOL    MW4 6620   3.569   2.445   2.752
 1648SOL     OW 6621   3.478   2.679   2.625
 1648SOL    HW2 6622   3.516   2.600   2.663
 1648SOL    HW3 6623   3.510   2.679   2.534
 1648SOL    MW4 6624   3.487   2.669   2.618
 1649SOL     OW 6625   3.714   2.856   2.720
 1649SOL    HW2 6626   3.794   2.805   2.712
 1649SOL    HW3 6627   3.644   2.792   2.712
 1649SOL    MW4 6628   3.715   2.841   2.718
 1650SOL     OW 6629   3.783   3.087   2.588
 1650SOL    HW2 6630   3.729   3.154   2.631
 1650SOL    HW3 6631   3.745   3.004   2.615
 1650SOL    MW4 6632   3.771   3.085   2.597
 1651SOL     OW 6633   3.610   3.228   2.737
 1651SOL    HW2 6634   3.585   3.318   2.716
 1651SOL    HW3 6635   3.536   3.175   2.707
 1651SOL    MW4 6636   3.597   3.233   2.731
 1652SOL     OW 6637   3.589   3.492   2.625
 1652SOL    HW2 6638   3.665   3.537   2.662
 1652SOL    HW3 6639   3.514   3.547   2.650
 1652SOL    MW4 6640   3.589   3.505   2.633
 1653SOL     OW 6641   3.808   3.592   2.735
 1653SOL    HW2 6642   3.878   3.543   2.692
 1653SOL    HW3 6643   3.819   3.682   2.704
 1653SOL    MW4 6644   3.818   3.598   2.726
 1654SOL     OW 6645   3.818   3.865   2.639
 1654SOL    HW2 6646   3.892   3.918   2.666
 1654SOL    HW3 6647   3.741   3.918   2.661
 1654SOL    MW4 6648   3.817   3.879   2.645
 1655SOL     OW 6649   3.578   3.966   2.720
 1655SOL    HW2 6650   3.586   4.053   2.680
 1655SOL    HW3 6651   3.494   3.933   2.691
 1655SOL    MW4 6652   3.568   3.973   2.711
 1656SOL     OW 6653   3.565   4.234   2.637
 1656SOL    HW2 6654   3.494   4.281   2.680
 1656SOL    HW3 6655   3.546   4.243   2.543
 1656SOL    MW4 6656   3.553   4.241   2.630
 1657SOL     OW 6657   3.773   4.376   2.750
 1657SOL    HW2 6658   3.858   4.337   2.731
 1657SOL    HW3 6659   3.710   4.316   2.710
 1657SOL    MW4 6660   3.776   4.363   2.742
 1658SOL     OW 6661   4.293   4.628   2.665
 1658SOL    HW2 6662   4.219   4.684   2.689
 1658SOL    HW3 6663   4.371   4.679   2.689
 1658SOL    MW4 6664   4.294   4.642   2.671
 1659SOL     OW 6665   4.040   0.101   2.742
 1659SOL    HW2 6666   4.047   0.098   2.838
 1659SOL    HW3 6667   3.963   0.048   2.722
 1659SOL    MW4 6668   4.031   0.094   2.752
 1660SOL     OW 6669   4.027   0.348   2.591
 1660SOL    HW2 6670   4.023   0.264   2.637
 1660SOL    HW3 6671   4.031   0.325   2.498
 1660SOL    MW4 6672   4.027   0.334   2.585
 1661SOL     OW 6673   4.217   0.498   2.745
 1661SOL    HW2 6674   4.160   0.454   2.682
 1661SOL    HW3 6675   4.304   0.459   2.730
 1661SOL    MW4 6676   4.221   0.487   2.735
 1662SOL     OW 6677   4.253   0.746   2.633
 1662SOL    HW2 6678   4.237   0.661   2.673
 1662SOL    HW3 6679   4.240   0.732   2.539
 1662SOL    MW4 6680   4.249   0.733   2.626
 1663SOL     OW 6681   4.054   0.920   2.742
 1663SOL    HW2 6682   4.122   0.873   2.695
 1663SOL    HW3 6683   3.973   0.872   2.722
 1663SOL    MW4 6684   4.052   0.908   2.733
 1664SOL     OW 6685   4.033   1.168   2.619
 1664SOL    HW2 6686   4.099   1.218   2.666
 1664SOL    HW3 6687   4.038   1.080   2.657
 1664SOL    MW4 6688   4.042   1.163   2.630
 1665SOL     OW 6689   4.261   1.286   2.747
 1665SOL    HW2 6690   4.255   1.368   2.698
 1665SOL    HW3 6691   4.342   1.245   2.716
 1665SOL    MW4 6692   4.271   1.292   2.736
 1666SOL     OW 6693   4.250   1.537   2.629
 1666SOL    HW2 6694   4.338   1.552   2.663
 1666SOL    HW3 6695   4.262   1.526   2.534
 1666SOL    MW4 6696   4.263   1.537   2.621
 1667SOL     OW 6697   4.018   1.665   2.703
 1667SOL    HW2 6698   4.015   1.655   2.798
 1667SOL    HW3 6699   4.095   1.615   2.676
 1667SOL    MW4 6700   4.028   1.657   2.712
 1668SOL     OW 6701   3.995   1.921   2.609
 1668SOL    HW2 6702   4.063   1.967   2.659
 1668SOL    HW3 6703   3.993   1.833   2.646
 1668SOL    MW4 6704   4.004   1.915   2.620
 1669SOL     OW 6705   4.206   2.030   2.739
 1669SOL    HW2 6706   4.230   2.119   2.713
 1669SOL    HW3 6707   4.283   1.977   2.717
 1669SOL    MW4 6708   4.219   2.035   2.733
 1670SOL     OW 6709   4.241   2.293   2.645
 1670SOL    HW2 6710   4.192   2.359   2.693
 1670SOL    HW3 6711   4.221   2.310   2.553
 1670SOL    MW4 6712   4.232   2.304   2.639
 1671SOL     OW 6713   4.046   2.473   2.740
 1671SOL    HW2 6714   4.029   2.473   2.834
 1671SOL    HW3 6715   3.974   2.422   2.703
 1671SOL    MW4 6716   4.034   2.466   2.748
 1672SOL     OW 6717   3.971   2.737   2.659
 1672SOL    HW2 6718   4.040   2.797   2.690
 1672SOL    HW3 6719   4.002   2.650   2.684
 1672SOL    MW4 6720   3.984   2.734   2.666
 1673SOL     OW 6721   4.224   2.862   2.718
 1673SOL    HW2 6722   4.250   2.869   2.810
 1673SOL    HW3 6723   4.245   2.947   2.680
 1673SOL    MW4 6724   4.230   2.874   2.725
 1674SOL     OW 6725   4.266   3.114   2.606
 1674SOL    HW2 6726   4.185   3.149   2.643
 1674SOL    HW3 6727   4.251   3.115   2.511
 1674SOL    MW4 6728   4.253   3.119   2.598
 1675SOL     OW 6729   4.018   3.189   2.701
 1675SOL    HW2 6730   4.002   3.276   2.663
 1675SOL    HW3 6731   3.940   3.139   2.679
 1675SOL    MW4 6732   4.006   3.194   2.693
 1676SOL     OW 6733   4.012   3.473   2.602
 1676SOL    HW2 6734   4.078   3.534   2.634
 1676SOL    HW3 6735   4.022   3.474   2.507
 1676SOL    MW4 6736   4.022   3.481   2.594
 1677SOL     OW 6737   4.240   3.665   2.710
 1677SOL    HW2 6738   4.252   3.657   2.805
 1677SOL    HW3 6739   4.313   3.617   2.672
 1677SOL    MW4 6740   4.251   3.657   2.717
 1678SOL     OW 6741   4.267   3.917   2.582
 1678SOL    HW2 6742   4.259   3.831   2.624
 1678SOL    HW3 6743   4.341   3.959   2.627
 1678SOL    MW4 6744   4.276   3.911   2.593
 1679SOL     OW 6745   4.044   3.999   2.735
 1679SOL    HW2 6746   4.062   4.000   2.829
 1679SOL    HW3 6747   4.121   3.957   2.695
 1679SOL    MW4 6748   4.056   3.993   2.742
 1680SOL     OW 6749   4.019   4.269   2.666
 1680SOL    HW2 6750   4.016   4.176   2.690
 1680SOL    HW3 6751   4.021   4.269   2.571
 1680SOL    MW4 6752   4.019   4.257   2.657
 1681SOL     OW 6753   4.257   4.376   2.784
 1681SOL    HW2 6754   4.184   4.344   2.732
 1681SOL    HW3 6755   4.274   4.464   2.751
 1681SOL    MW4 6756   4.250   4.383   2.773
 1682SOL     OW 6757   0.258   4.651   3.117
 1682SOL    HW2 6758   0.256   4.655   3.213
 1682SOL    HW3 6759   0.191   4.713   3.088
 1682SOL    MW4 6760   0.249   4.659   3.126
 1683SOL     OW 6761   0.036   0.142   3.034
 1683SOL    HW2 6762  -0.039   0.090   3.066
 1683SOL    HW3 6763   0.019   0.231   3.065
 1683SOL    MW4 6764   0.024   0.147   3.042
 1684SOL     OW 6765   4.462   0.399   3.135
 1684SOL    HW2 6766   4.469   0.399   3.230
 1684SOL    HW3 6767   4.371   0.423   3.117
 1684SOL    MW4 6768   4.451   0.402   3.145
 1685SOL     OW 6769   0.200   0.514   3.009
 1685SOL    HW2 6770   0.282   0.473   3.036
 1685SOL    HW3 6771   0.132   0.465   3.055
 1685SOL    MW4 6772   0.202   0.502   3.018
 1686SOL     OW 6773   0.202   0.778   3.100
 1686SOL    HW2 6774   0.214   0.778   3.195
 1686SOL    HW3 6775   0.193   0.686   3.077
 1686SOL    MW4 6776   0.203   0.766   3.110
 1687SOL     OW 6777   4.465   0.895   2.998
 1687SOL    HW2 6778   4.544   0.843   3.015
 1687SOL    HW3 6779   4.476   0.924   2.907
 1687SOL    MW4 6780   4.477   0.892   2.988
 1688SOL     OW 6781   4.484   1.145   3.130
 1688SOL    HW2 6782   4.398   1.187   3.129
 1688SOL    HW3 6783   4.473   1.064   3.081
 1688SOL    MW4 6784   4.471   1.140   3.124
 1689SOL     OW 6785   0.208   1.288   3.030
 1689SOL    HW2 6786   0.146   1.225   3.067
 1689SOL    HW3 6787   0.199   1.277   2.935
 1689SOL    MW4 6788   0.199   1.278   3.022
 1690SOL     OW 6789   0.220   1.557   3.108
 1690SOL    HW2 6790   0.137   1.598   3.084
 1690SOL    HW3 6791   0.214   1.468   3.074
 1690SOL    MW4 6792   0.209   1.551   3.101
 1691SOL     OW 6793   4.456   1.639   2.997
 1691SOL    HW2 6794   4.365   1.623   3.020
 1691SOL    HW3 6795   4.480   1.719   3.044
 1691SOL    MW4 6796   4.447   1.648   3.006
 1692SOL     OW 6797   4.476   1.901   3.118
 1692SOL    HW2 6798   4.398   1.938   3.077
 1692SOL    HW3 6799   4.549   1.933   3.063
 1692SOL    MW4 6800   4.476   1.910   3.105
 1693SOL     OW 6801   0.237   2.019   3.023
 1693SOL    HW2 6802   0.233   2.108   3.057
 1693SOL    HW3 6803   0.238   2.030   2.928
 1693SOL    MW4 6804   0.237   2.032   3.015
 1694SOL     OW 6805   0.209   2.305   3.057
 1694SOL    HW2 6806   0.220   2.304   3.152
 1694SOL    HW3 6807   0.286   2.352   3.024
 1694SOL    MW4 6808   0.221   2.311   3.065
 1695SOL     OW 6809   4.430   2.438   3.015
 1695SOL    HW2 6810   4.441   2.527   3.047
 1695SOL    HW3 6811   4.506   2.390   3.050
 1695SOL    MW4 6812   4.441   2.443   3.024
 1696SOL     OW 6813   0.013   2.703   3.094
 1696SOL    HW2 6814   0.027   2.719   3.188
 1696SOL    HW3 6815   0.083   2.753   3.051
 1696SOL    MW4 6816   0.024   2.712   3.101
 1697SOL     OW 6817   0.215   2.858   3.005
 1697SOL    HW2 6818   0.283   2.791   3.013
 1697SOL    HW3 6819   0.193   2.859   2.912
 1697SOL    MW4 6820   0.221   2.850   2.993
 1698SOL     OW 6821   0.222   3.100   3.116
 1698SOL    HW2 6822   0.140   3.134   3.080
 1698SOL    HW3 6823   0.236   3.017   3.071
 1698SOL    MW4 6824   0.213   3.094   3.105
 1699SOL     OW 6825   0.000   3.199   3.010
 1699SOL    HW2 6826  -0.088   3.168   3.030
 1699SOL    HW3 6827  -0.004   3.224   2.918
 1699SOL    MW4 6828  -0.012   3.198   3.001
 1700SOL     OW 6829   4.481   3.464   3.107
 1700SOL    HW2 6830   4.401   3.496   3.067
 1700SOL    HW3 6831   4.477   3.369   3.094
 1700SOL    MW4 6832   4.470   3.456   3.100
 1701SOL     OW 6833   0.236   3.580   3.016
 1701SOL    HW2 6834   0.232   3.669   3.049
 1701SOL    HW3 6835   0.155   3.539   3.045
 1701SOL    MW4 6836   0.225   3.586   3.024
 1702SOL     OW 6837   0.259   3.861   3.086
 1702SOL    HW2 6838   0.245   3.863   3.181
 1702SOL    HW3 6839   0.334   3.919   3.072
 1702SOL    MW4 6840   0.267   3.869   3.097
 1703SOL     OW 6841   0.053   4.036   3.000
 1703SOL    HW2 6842   0.125   3.981   3.032
 1703SOL    HW3 6843   0.042   4.012   2.908
 1703SOL    MW4 6844   0.061   4.026   2.992
 1704SOL     OW 6845   0.047   4.261   3.152
 1704SOL    HW2 6846   0.039   4.235   3.243
 1704SOL    HW3 6847   0.050   4.179   3.103
 1704SOL    MW4 6848   0.046   4.247   3.157
 1705SOL     OW 6849   0.213   4.395   2.979
 1705SOL    HW2 6850   0.165   4.336   3.037
 1705SOL    HW3 6851   0.218   4.477   3.028
 1705SOL    MW4 6852   0.207   4.398   2.994
 1706SOL     OW 6853   0.682   0.009   3.128
 1706SOL    HW2 6854   0.684  -0.077   3.087
 1706SOL    HW3 6855   0.600   0.048   3.097
 1706SOL    MW4 6856   0.672   0.003   3.118
 1707SOL     OW 6857   0.459   0.165   3.000
 1707SOL    HW2 6858   0.443   0.248   3.046
 1707SOL    HW3 6859   0.392   0.105   3.033
 1707SOL    MW4 6860   0.448   0.168   3.010
 1708SOL     OW 6861   0.426   0.417   3.111
 1708SOL    HW2 6862   0.440   0.397   3.204
 1708SOL    HW3 6863   0.508   0.458   3.083
 1708SOL    MW4 6864   0.439   0.419   3.119
 1709SOL     OW 6865   0.656   0.537   3.015
 1709SOL    HW2 6866   0.724   0.479   3.051
 1709SOL    HW3 6867   0.673   0.622   3.054
 1709SOL    MW4 6868   0.668   0.540   3.025
 1710SOL     OW 6869   0.682   0.790   3.124
 1710SOL    HW2 6870   0.682   0.772   3.218
 1710SOL    HW3 6871   0.602   0.841   3.110
 1710SOL    MW4 6872   0.671   0.795   3.134
 1711SOL     OW 6873   0.438   0.903   3.040
 1711SOL    HW2 6874   0.369   0.841   3.062
 1711SOL    HW3 6875   0.451   0.892   2.946
 1711SOL    MW4 6876   0.430   0.893   3.030
 1712SOL     OW 6877   0.417   1.165   3.147
 1712SOL    HW2 6878   0.428   1.074   3.119
 1712SOL    HW3 6879   0.331   1.189   3.113
 1712SOL    MW4 6880   0.407   1.156   3.139
 1713SOL     OW 6881   0.629   1.251   2.994
 1713SOL    HW2 6882   0.702   1.199   3.027
 1713SOL    HW3 6883   0.553   1.219   3.042
 1713SOL    MW4 6884   0.629   1.240   3.005
 1714SOL     OW 6885   0.667   1.519   3.077
 1714SOL    HW2 6886   0.648   1.529   3.170
 1714SOL    HW3 6887   0.659   1.426   3.060
 1714SOL    MW4 6888   0.663   1.508   3.087
 1715SOL     OW 6889   0.458   1.682   3.007
 1715SOL    HW2 6890   0.529   1.627   3.040
 1715SOL    HW3 6891   0.378   1.633   3.029
 1715SOL    MW4 6892   0.457   1.668   3.015
 1716SOL     OW 6893   0.468   1.936   3.124
 1716SOL    HW2 6894   0.476   1.846   3.090
 1716SOL    HW3 6895   0.378   1.961   3.104
 1716SOL    MW4 6896   0.457   1.927   3.117
 1717SOL     OW 6897   0.691   2.032   3.003
 1717SOL    HW2 6898   0.766   1.999   3.053
 1717SOL    HW3 6899   0.616   2.013   3.058
 1717SOL    MW4 6900   0.691   2.025   3.017
 1718SOL     OW 6901   0.686   2.302   3.066
 1718SOL    HW2 6902   0.669   2.297   3.160
 1718SOL    HW3 6903   0.686   2.210   3.037
 1718SOL    MW4 6904   0.684   2.289   3.075
 1719SOL     OW 6905   0.444   2.420   2.955
 1719SOL    HW2 6906   0.518   2.365   2.981
 1719SOL    HW3 6907   0.431   2.401   2.863
 1719SOL    MW4 6908   0.452   2.410   2.947
 1720SOL     OW 6909   0.432   2.684   3.059
 1720SOL    HW2 6910   0.505   2.727   3.014
 1720SOL    HW3 6911   0.444   2.591   3.039
 1720SOL    MW4 6912   0.443   2.677   3.051
 1721SOL     OW 6913   0.683   2.812   2.958
 1721SOL    HW2 6914   0.771   2.778   2.976
 1721SOL    HW3 6915   0.683   2.900   2.996
 1721SOL    MW4 6916   0.694   2.819   2.966
 1722SOL     OW 6917   0.698   3.077   3.095
 1722SOL    HW2 6918   0.685   3.078   3.190
 1722SOL    HW3 6919   0.620   3.120   3.060
 1722SOL    MW4 6920   0.686   3.083   3.103
 1723SOL     OW 6921   0.461   3.206   3.004
 1723SOL    HW2 6922   0.479   3.284   3.056
 1723SOL    HW3 6923   0.377   3.174   3.036
 1723SOL    MW4 6924   0.452   3.212   3.015
 1724SOL     OW 6925   0.468   3.461   3.111
 1724SOL    HW2 6926   0.469   3.492   3.202
 1724SOL    HW3 6927   0.385   3.493   3.076
 1724SOL    MW4 6928   0.457   3.469   3.119
 1725SOL     OW 6929   0.634   3.648   2.990
 1725SOL    HW2 6930   0.721   3.611   3.008
 1725SOL    HW3 6931   0.573   3.587   3.031
 1725SOL    MW4 6932   0.638   3.635   2.998
 1726SOL     OW 6933   0.698   3.881   3.095
 1726SOL    HW2 6934   0.697   3.878   3.191
 1726SOL    HW3 6935   0.680   3.791   3.068
 1726SOL    MW4 6936   0.696   3.868   3.105
 1727SOL     OW 6937   0.473   4.055   3.032
 1727SOL    HW2 6938   0.547   4.009   3.071
 1727SOL    HW3 6939   0.482   4.039   2.938
 1727SOL    MW4 6940   0.484   4.047   3.025
 1728SOL     OW 6941   0.451   4.313   3.129
 1728SOL    HW2 6942   0.472   4.224   3.101
 1728SOL    HW3 6943   0.376   4.338   3.075
 1728SOL    MW4 6944   0.444   4.305   3.118
 1729SOL     OW 6945   0.691   4.414   3.032
 1729SOL    HW2 6946   0.602   4.387   3.058
 1729SOL    HW3 6947   0.693   4.401   2.937
 1729SOL    MW4 6948   0.679   4.408   3.023
 1730SOL     OW 6949   1.144   4.657   3.148
 1730SOL    HW2 6950   1.223   4.700   3.114
 1730SOL    HW3 6951   1.072   4.706   3.109
 1730SOL    MW4 6952   1.145   4.669   3.139
 1731SOL     OW 6953   0.922   0.109   3.029
 1731SOL    HW2 6954   0.909   0.204   3.029
 1731SOL    HW3 6955   0.839   0.074   3.061
 1731SOL    MW4 6956   0.909   0.117   3.033
 1732SOL     OW 6957   0.887   0.389   3.103
 1732SOL    HW2 6958   0.891   0.385   3.198
 1732SOL    HW3 6959   0.946   0.460   3.079
 1732SOL    MW4 6960   0.895   0.398   3.112
 1733SOL     OW 6961   1.111   0.519   2.998
 1733SOL    HW2 6962   1.186   0.473   3.037
 1733SOL    HW3 6963   1.132   0.523   2.904
 1733SOL    MW4 6964   1.124   0.513   2.990
 1734SOL     OW 6965   1.133   0.789   3.074
 1734SOL    HW2 6966   1.130   0.786   3.170
 1734SOL    HW3 6967   1.126   0.697   3.048
 1734SOL    MW4 6968   1.132   0.776   3.083
 1735SOL     OW 6969   0.901   0.924   3.012
 1735SOL    HW2 6970   0.979   0.880   3.047
 1735SOL    HW3 6971   0.827   0.875   3.049
 1735SOL    MW4 6972   0.902   0.911   3.022
 1736SOL     OW 6973   0.871   1.168   3.129
 1736SOL    HW2 6974   0.944   1.222   3.098
 1736SOL    HW3 6975   0.886   1.082   3.089
 1736SOL    MW4 6976   0.883   1.164   3.120
 1737SOL     OW 6977   1.096   1.287   3.025
 1737SOL    HW2 6978   1.177   1.257   3.064
 1737SOL    HW3 6979   1.110   1.279   2.931
 1737SOL    MW4 6980   1.108   1.282   3.018
 1738SOL     OW 6981   1.119   1.524   3.142
 1738SOL    HW2 6982   1.194   1.554   3.091
 1738SOL    HW3 6983   1.098   1.438   3.105
 1738SOL    MW4 6984   1.126   1.517   3.130
 1739SOL     OW 6985   0.930   1.648   2.996
 1739SOL    HW2 6986   1.000   1.612   3.050
 1739SOL    HW3 6987   0.851   1.604   3.028
 1739SOL    MW4 6988   0.929   1.637   3.007
 1740SOL     OW 6989   0.896   1.902   3.103
 1740SOL    HW2 6990   0.916   1.893   3.196
 1740SOL    HW3 6991   0.899   1.813   3.069
 1740SOL    MW4 6992   0.899   1.889   3.111
 1741SOL     OW 6993   1.109   2.076   3.011
 1741SOL    HW2 6994   1.030   2.029   3.038
 1741SOL    HW3 6995   1.104   2.079   2.915
 1741SOL    MW4 6996   1.098   2.070   3.002
 1742SOL     OW 6997   1.155   2.327   3.104
 1742SOL    HW2 6998   1.068   2.361   3.084
 1742SOL    HW3 6999   1.151   2.235   3.080
 1742SOL    MW4 7000   1.143   2.320   3.099
 1743SOL     OW 7001   0.926   2.428   2.998
 1743SOL    HW2 7002   0.847   2.387   3.033
 1743SOL    HW3 7003   0.905   2.446   2.906
 1743SOL    MW4 7004   0.913   2.425   2.991
 1744SOL     OW 7005   0.919   2.701   3.061
 1744SOL    HW2 7006   0.896   2.699   3.154
 1744SOL    HW3 7007   0.941   2.610   3.041
 1744SOL    MW4 7008   0.919   2.689   3.071
 1745SOL     OW 7009   1.142   2.836   2.974
 1745SOL    HW2 7010   1.139   2.919   3.021
 1745SOL    HW3 7011   1.074   2.783   3.015
 1745SOL    MW4 7012   1.133   2.840   2.986
 1746SOL     OW 7013   1.105   3.099   3.120
 1746SOL    HW2 7014   1.181   3.144   3.084
 1746SOL    HW3 7015   1.031   3.158   3.103
 1746SOL    MW4 7016   1.105   3.112   3.113
 1747SOL     OW 7017   0.879   3.260   3.019
 1747SOL    HW2 7018   0.814   3.194   3.043
 1747SOL    HW3 7019   0.889   3.251   2.925
 1747SOL    MW4 7020   0.872   3.250   3.010
 1748SOL     OW 7021   0.877   3.541   3.061
 1748SOL    HW2 7022   0.959   3.581   3.033
 1748SOL    HW3 7023   0.885   3.449   3.034
 1748SOL    MW4 7024   0.889   3.534   3.054
 1749SOL     OW 7025   1.127   3.648   3.006
 1749SOL    HW2 7026   1.183   3.584   3.049
 1749SOL    HW3 7027   1.153   3.732   3.044
 1749SOL    MW4 7028   1.138   3.651   3.016
 1750SOL     OW 7029   1.149   3.902   3.121
 1750SOL    HW2 7030   1.132   3.909   3.214
 1750SOL    HW3 7031   1.073   3.942   3.079
 1750SOL    MW4 7032   1.137   3.908   3.128
 1751SOL     OW 7033   0.913   4.038   3.013
 1751SOL    HW2 7034   0.836   3.997   3.052
 1751SOL    HW3 7035   0.903   4.026   2.919
 1751SOL    MW4 7036   0.902   4.031   3.006
 1752SOL     OW 7037   0.914   4.279   3.150
 1752SOL    HW2 7038   0.912   4.194   3.104
 1752SOL    HW3 7039   0.843   4.329   3.109
 1752SOL    MW4 7040   0.904   4.274   3.138
 1753SOL     OW 7041   1.134   4.395   3.029
 1753SOL    HW2 7042   1.064   4.352   3.078
 1753SOL    HW3 7043   1.138   4.483   3.065
 1753SOL    MW4 7044   1.125   4.401   3.040
 1754SOL     OW 7045   1.578   4.607   3.112
 1754SOL    HW2 7046   1.581   4.615   3.207
 1754SOL    HW3 7047   1.502   4.659   3.086
 1754SOL    MW4 7048   1.568   4.615   3.121
 1755SOL     OW 7049   1.374   0.121   3.056
 1755SOL    HW2 7050   1.369   0.206   3.098
 1755SOL    HW3 7051   1.365   0.140   2.962
 1755SOL    MW4 7052   1.372   0.135   3.049
 1756SOL     OW 7053   1.344   0.395   3.131
 1756SOL    HW2 7054   1.351   0.402   3.226
 1756SOL    HW3 7055   1.420   0.442   3.097
 1756SOL    MW4 7056   1.355   0.402   3.139
 1757SOL     OW 7057   1.578   0.507   3.035
 1757SOL    HW2 7058   1.600   0.599   3.052
 1757SOL    HW3 7059   1.586   0.497   2.940
 1757SOL    MW4 7060   1.582   0.518   3.025
 1758SOL     OW 7061   1.604   0.789   3.117
 1758SOL    HW2 7062   1.585   0.784   3.211
 1758SOL    HW3 7063   1.522   0.819   3.078
 1758SOL    MW4 7064   1.591   0.792   3.125
 1759SOL     OW 7065   1.385   0.894   3.011
 1759SOL    HW2 7066   1.395   0.977   3.057
 1759SOL    HW3 7067   1.297   0.864   3.033
 1759SOL    MW4 7068   1.375   0.901   3.020
 1760SOL     OW 7069   1.361   1.154   3.113
 1760SOL    HW2 7070   1.360   1.149   3.209
 1760SOL    HW3 7071   1.449   1.186   3.092
 1760SOL    MW4 7072   1.373   1.158   3.123
 1761SOL     OW 7073   1.603   1.251   3.043
 1761SOL    HW2 7074   1.687   1.220   3.076
 1761SOL    HW3 7075   1.605   1.346   3.055
 1761SOL    MW4 7076   1.614   1.260   3.049
 1762SOL     OW 7077   1.574   1.511   3.089
 1762SOL    HW2 7078   1.645   1.571   3.065
 1762SOL    HW3 7079   1.495   1.553   3.055
 1762SOL    MW4 7080   1.573   1.524   3.081
 1763SOL     OW 7081   1.335   1.645   2.999
 1763SOL    HW2 7082   1.351   1.736   3.025
 1763SOL    HW3 7083   1.325   1.649   2.904
 1763SOL    MW4 7084   1.336   1.657   2.990
 1764SOL     OW 7085   1.333   1.930   3.095
 1764SOL    HW2 7086   1.345   1.933   3.190
 1764SOL    HW3 7087   1.256   1.985   3.079
 1764SOL    MW4 7088   1.324   1.938   3.105
 1765SOL     OW 7089   1.570   2.063   3.019
 1765SOL    HW2 7090   1.484   2.024   3.034
 1765SOL    HW3 7091   1.571   2.087   2.927
 1765SOL    MW4 7092   1.559   2.061   3.009
 1766SOL     OW 7093   1.561   2.318   3.139
 1766SOL    HW2 7094   1.496   2.373   3.096
 1766SOL    HW3 7095   1.548   2.231   3.100
 1766SOL    MW4 7096   1.551   2.314   3.128
 1767SOL     OW 7097   1.368   2.462   3.020
 1767SOL    HW2 7098   1.294   2.412   3.055
 1767SOL    HW3 7099   1.351   2.466   2.926
 1767SOL    MW4 7100   1.356   2.456   3.012
 1768SOL     OW 7101   1.356   2.720   3.093
 1768SOL    HW2 7102   1.351   2.630   3.061
 1768SOL    HW3 7103   1.287   2.766   3.045
 1768SOL    MW4 7104   1.346   2.714   3.082
 1769SOL     OW 7105   1.563   2.878   2.995
 1769SOL    HW2 7106   1.646   2.840   3.026
 1769SOL    HW3 7107   1.496   2.826   3.039
 1769SOL    MW4 7108   1.565   2.866   3.005
 1770SOL     OW 7109   1.590   3.125   3.097
 1770SOL    HW2 7110   1.568   3.120   3.190
 1770SOL    HW3 7111   1.587   3.034   3.067
 1770SOL    MW4 7112   1.587   3.112   3.106
 1771SOL     OW 7113   1.328   3.232   3.002
 1771SOL    HW2 7114   1.413   3.195   3.024
 1771SOL    HW3 7115   1.327   3.237   2.906
 1771SOL    MW4 7116   1.339   3.228   2.992
 1772SOL     OW 7117   1.372   3.484   3.104
 1772SOL    HW2 7118   1.375   3.492   3.199
 1772SOL    HW3 7119   1.354   3.392   3.088
 1772SOL    MW4 7120   1.370   3.473   3.114
 1773SOL     OW 7121   1.598   3.610   3.008
 1773SOL    HW2 7122   1.518   3.578   3.048
 1773SOL    HW3 7123   1.581   3.607   2.914
 1773SOL    MW4 7124   1.585   3.606   3.001
 1774SOL     OW 7125   1.593   3.866   3.121
 1774SOL    HW2 7126   1.661   3.925   3.092
 1774SOL    HW3 7127   1.610   3.783   3.075
 1774SOL    MW4 7128   1.604   3.863   3.111
 1775SOL     OW 7129   1.363   3.989   2.999
 1775SOL    HW2 7130   1.440   3.938   3.026
 1775SOL    HW3 7131   1.290   3.951   3.048
 1775SOL    MW4 7132   1.364   3.977   3.009
 1776SOL     OW 7133   1.363   4.243   3.132
 1776SOL    HW2 7134   1.350   4.154   3.098
 1776SOL    HW3 7135   1.280   4.287   3.115
 1776SOL    MW4 7136   1.350   4.237   3.125
 1777SOL     OW 7137   1.578   4.360   2.983
 1777SOL    HW2 7138   1.510   4.307   3.026
 1777SOL    HW3 7139   1.572   4.446   3.026
 1777SOL    MW4 7140   1.569   4.364   2.995
 1778SOL     OW 7141   2.020   4.639   3.122
 1778SOL    HW2 7142   2.003   4.617   3.213
 1778SOL    HW3 7143   1.942   4.688   3.094
 1778SOL    MW4 7144   2.007   4.642   3.130
 1779SOL     OW 7145   1.795   0.115   3.053
 1779SOL    HW2 7146   1.730   0.068   3.105
 1779SOL    HW3 7147   1.763   0.108   2.963
 1779SOL    MW4 7148   1.782   0.108   3.048
 1780SOL     OW 7149   1.793   0.374   3.169
 1780SOL    HW2 7150   1.811   0.290   3.125
 1780SOL    HW3 7151   1.714   0.407   3.127
 1780SOL    MW4 7152   1.785   0.367   3.158
 1781SOL     OW 7153   2.042   0.453   3.059
 1781SOL    HW2 7154   1.960   0.425   3.099
 1781SOL    HW3 7155   2.026   0.450   2.965
 1781SOL    MW4 7156   2.029   0.449   3.052
 1782SOL     OW 7157   2.064   0.743   3.162
 1782SOL    HW2 7158   1.994   0.789   3.115
 1782SOL    HW3 7159   2.050   0.651   3.143
 1782SOL    MW4 7160   2.053   0.737   3.153
 1783SOL     OW 7161   1.867   0.856   3.014
 1783SOL    HW2 7162   1.779   0.836   3.045
 1783SOL    HW3 7163   1.866   0.834   2.921
 1783SOL    MW4 7164   1.856   0.850   3.006
 1784SOL     OW 7165   1.856   1.127   3.078
 1784SOL    HW2 7166   1.866   1.134   3.173
 1784SOL    HW3 7167   1.860   1.033   3.061
 1784SOL    MW4 7168   1.858   1.115   3.089
 1785SOL     OW 7169   2.044   1.307   3.003
 1785SOL    HW2 7170   2.113   1.256   3.044
 1785SOL    HW3 7171   1.964   1.258   3.020
 1785SOL    MW4 7172   2.042   1.294   3.011
 1786SOL     OW 7173   2.030   1.548   3.129
 1786SOL    HW2 7174   2.025   1.538   3.224
 1786SOL    HW3 7175   2.041   1.459   3.096
 1786SOL    MW4 7176   2.031   1.535   3.137
 1787SOL     OW 7177   1.797   1.674   3.064
 1787SOL    HW2 7178   1.801   1.763   3.100
 1787SOL    HW3 7179   1.869   1.628   3.108
 1787SOL    MW4 7180   1.807   1.680   3.075
 1788SOL     OW 7181   1.792   1.948   3.118
 1788SOL    HW2 7182   1.866   1.994   3.078
 1788SOL    HW3 7183   1.715   1.983   3.074
 1788SOL    MW4 7184   1.792   1.959   3.107
 1789SOL     OW 7185   2.019   2.056   3.050
 1789SOL    HW2 7186   2.101   2.020   3.085
 1789SOL    HW3 7187   2.027   2.151   3.064
 1789SOL    MW4 7188   2.031   2.064   3.057
 1790SOL     OW 7189   2.020   2.342   3.078
 1790SOL    HW2 7190   2.073   2.414   3.044
 1790SOL    HW3 7191   1.930   2.370   3.063
 1790SOL    MW4 7192   2.015   2.355   3.072
 1791SOL     OW 7193   1.763   2.458   3.014
 1791SOL    HW2 7194   1.766   2.550   3.037
 1791SOL    HW3 7195   1.691   2.422   3.065
 1791SOL    MW4 7196   1.754   2.465   3.023
 1792SOL     OW 7197   1.780   2.731   3.087
 1792SOL    HW2 7198   1.785   2.718   3.182
 1792SOL    HW3 7199   1.858   2.781   3.066
 1792SOL    MW4 7200   1.791   2.736   3.097
 1793SOL     OW 7201   2.001   2.863   3.001
 1793SOL    HW2 7202   2.009   2.949   3.043
 1793SOL    HW3 7203   1.989   2.884   2.908
 1793SOL    MW4 7204   2.001   2.877   2.994
 1794SOL     OW 7205   2.022   3.091   3.131
 1794SOL    HW2 7206   2.010   3.078   3.225
 1794SOL    HW3 7207   1.951   3.149   3.105
 1794SOL    MW4 7208   2.011   3.097   3.140
 1795SOL     OW 7209   1.829   3.254   3.025
 1795SOL    HW2 7210   1.751   3.211   3.059
 1795SOL    HW3 7211   1.822   3.244   2.930
 1795SOL    MW4 7212   1.818   3.247   3.017
 1796SOL     OW 7213   1.816   3.522   3.153
 1796SOL    HW2 7214   1.812   3.427   3.145
 1796SOL    HW3 7215   1.737   3.553   3.111
 1796SOL    MW4 7216   1.805   3.514   3.147
 1797SOL     OW 7217   2.038   3.621   3.021
 1797SOL    HW2 7218   2.027   3.714   3.039
 1797SOL    HW3 7219   1.980   3.577   3.083
 1797SOL    MW4 7220   2.029   3.627   3.031
 1798SOL     OW 7221   2.006   3.878   3.088
 1798SOL    HW2 7222   2.011   3.882   3.183
 1798SOL    HW3 7223   1.936   3.940   3.065
 1798SOL    MW4 7224   1.998   3.887   3.097
 1799SOL     OW 7225   1.777   4.053   3.037
 1799SOL    HW2 7226   1.786   4.148   3.047
 1799SOL    HW3 7227   1.798   4.036   2.946
 1799SOL    MW4 7228   1.781   4.063   3.027
 1800SOL     OW 7229   1.830   4.332   3.157
 1800SOL    HW2 7230   1.904   4.366   3.106
 1800SOL    HW3 7231   1.753   4.367   3.113
 1800SOL    MW4 7232   1.830   4.341   3.144
 1801SOL     OW 7233   2.066   4.395   3.003
 1801SOL    HW2 7234   2.058   4.482   3.043
 1801SOL    HW3 7235   2.056   4.411   2.909
 1801SOL    MW4 7236   2.064   4.409   2.996
 1802SOL     OW 7237   2.477   4.596   3.148
 1802SOL    HW2 7238   2.492   4.506   3.120
 1802SOL    HW3 7239   2.405   4.627   3.093
 1802SOL    MW4 7240   2.469   4.588   3.137
 1803SOL     OW 7241   2.269   0.041   3.016
 1803SOL    HW2 7242   2.284   0.122   3.064
 1803SOL    HW3 7243   2.195   0.000   3.061
 1803SOL    MW4 7244   2.261   0.046   3.028
 1804SOL     OW 7245   2.274   0.300   3.105
 1804SOL    HW2 7246   2.289   0.331   3.194
 1804SOL    HW3 7247   2.203   0.355   3.072
 1804SOL    MW4 7248   2.267   0.311   3.112
 1805SOL     OW 7249   2.475   0.464   3.029
 1805SOL    HW2 7250   2.403   0.405   3.048
 1805SOL    HW3 7251   2.476   0.471   2.933
 1805SOL    MW4 7252   2.466   0.458   3.019
 1806SOL     OW 7253   2.463   0.751   3.107
 1806SOL    HW2 7254   2.540   0.793   3.068
 1806SOL    HW3 7255   2.460   0.664   3.067
 1806SOL    MW4 7256   2.473   0.745   3.096
 1807SOL     OW 7257   2.240   0.848   2.950
 1807SOL    HW2 7258   2.316   0.817   2.999
 1807SOL    HW3 7259   2.166   0.803   2.991
 1807SOL    MW4 7260   2.240   0.838   2.962
 1808SOL     OW 7261   2.227   1.105   3.102
 1808SOL    HW2 7262   2.218   1.101   3.197
 1808SOL    HW3 7263   2.219   1.014   3.073
 1808SOL    MW4 7264   2.225   1.093   3.111
 1809SOL     OW 7265   2.479   1.266   3.051
 1809SOL    HW2 7266   2.404   1.214   3.081
 1809SOL    HW3 7267   2.478   1.256   2.955
 1809SOL    MW4 7268   2.469   1.258   3.042
 1810SOL     OW 7269   2.465   1.545   3.148
 1810SOL    HW2 7270   2.392   1.588   3.103
 1810SOL    HW3 7271   2.469   1.457   3.111
 1810SOL    MW4 7272   2.456   1.539   3.137
 1811SOL     OW 7273   2.259   1.694   3.051
 1811SOL    HW2 7274   2.172   1.657   3.065
 1811SOL    HW3 7275   2.275   1.685   2.958
 1811SOL    MW4 7276   2.249   1.688   3.041
 1812SOL     OW 7277   2.263   1.954   3.142
 1812SOL    HW2 7278   2.331   2.001   3.094
 1812SOL    HW3 7279   2.268   1.864   3.109
 1812SOL    MW4 7280   2.273   1.948   3.131
 1813SOL     OW 7281   2.453   2.097   2.995
 1813SOL    HW2 7282   2.529   2.049   3.029
 1813SOL    HW3 7283   2.462   2.091   2.900
 1813SOL    MW4 7284   2.464   2.090   2.987
 1814SOL     OW 7285   2.477   2.339   3.135
 1814SOL    HW2 7286   2.467   2.339   3.230
 1814SOL    HW3 7287   2.473   2.247   3.110
 1814SOL    MW4 7288   2.475   2.327   3.144
 1815SOL     OW 7289   2.263   2.475   3.021
 1815SOL    HW2 7290   2.263   2.558   3.067
 1815SOL    HW3 7291   2.339   2.428   3.056
 1815SOL    MW4 7292   2.273   2.480   3.032
 1816SOL     OW 7293   2.215   2.735   3.127
 1816SOL    HW2 7294   2.299   2.757   3.087
 1816SOL    HW3 7295   2.150   2.785   3.076
 1816SOL    MW4 7296   2.217   2.744   3.115
 1817SOL     OW 7297   2.467   2.814   3.010
 1817SOL    HW2 7298   2.472   2.907   3.032
 1817SOL    HW3 7299   2.465   2.813   2.914
 1817SOL    MW4 7300   2.468   2.826   3.000
 1818SOL     OW 7301   2.504   3.093   3.092
 1818SOL    HW2 7302   2.570   3.147   3.048
 1818SOL    HW3 7303   2.421   3.139   3.075
 1818SOL    MW4 7304   2.502   3.106   3.084
 1819SOL     OW 7305   2.255   3.209   3.020
 1819SOL    HW2 7306   2.261   3.301   3.048
 1819SOL    HW3 7307   2.177   3.175   3.064
 1819SOL    MW4 7308   2.246   3.217   3.030
 1820SOL     OW 7309   2.273   3.482   3.088
 1820SOL    HW2 7310   2.347   3.532   3.053
 1820SOL    HW3 7311   2.197   3.538   3.071
 1820SOL    MW4 7312   2.273   3.496   3.081
 1821SOL     OW 7313   2.468   3.646   3.002
 1821SOL    HW2 7314   2.546   3.622   3.053
 1821SOL    HW3 7315   2.437   3.727   3.043
 1821SOL    MW4 7316   2.474   3.653   3.014
 1822SOL     OW 7317   2.453   3.886   3.113
 1822SOL    HW2 7318   2.455   3.899   3.208
 1822SOL    HW3 7319   2.535   3.924   3.082
 1822SOL    MW4 7320   2.464   3.893   3.121
 1823SOL     OW 7321   2.235   4.034   3.041
 1823SOL    HW2 7322   2.311   3.977   3.050
 1823SOL    HW3 7323   2.163   3.985   3.082
 1823SOL    MW4 7324   2.235   4.020   3.048
 1824SOL     OW 7325   2.271   4.285   3.163
 1824SOL    HW2 7326   2.255   4.197   3.128
 1824SOL    HW3 7327   2.199   4.338   3.129
 1824SOL    MW4 7328   2.259   4.280   3.154
 1825SOL     OW 7329   2.501   4.346   3.026
 1825SOL    HW2 7330   2.429   4.298   3.066
 1825SOL    HW3 7331   2.473   4.362   2.936
 1825SOL    MW4 7332   2.488   4.342   3.020
 1826SOL     OW 7333   2.927   0.011   3.127
 1826SOL    HW2 7334   2.989   0.074   3.091
 1826SOL    HW3 7335   2.961  -0.075   3.101
 1826SOL    MW4 7336   2.940   0.008   3.119
 1827SOL     OW 7337   2.684   0.074   2.992
 1827SOL    HW2 7338   2.773   0.050   3.019
 1827SOL    HW3 7339   2.627   0.026   3.052
 1827SOL    MW4 7340   2.688   0.065   3.004
 1828SOL     OW 7341   2.705   0.322   3.110
 1828SOL    HW2 7342   2.695   0.237   3.068
 1828SOL    HW3 7343   2.626   0.370   3.086
 1828SOL    MW4 7344   2.693   0.317   3.101
 1829SOL     OW 7345   2.920   0.478   3.021
 1829SOL    HW2 7346   2.846   0.426   3.052
 1829SOL    HW3 7347   2.925   0.460   2.928
 1829SOL    MW4 7348   2.911   0.469   3.013
 1830SOL     OW 7349   2.925   0.763   3.083
 1830SOL    HW2 7350   2.912   0.769   3.178
 1830SOL    HW3 7351   2.921   0.669   3.064
 1830SOL    MW4 7352   2.923   0.751   3.093
 1831SOL     OW 7353   2.695   0.872   2.979
 1831SOL    HW2 7354   2.703   0.961   3.013
 1831SOL    HW3 7355   2.781   0.833   2.995
 1831SOL    MW4 7356   2.708   0.879   2.986
 1832SOL     OW 7357   2.720   1.116   3.098
 1832SOL    HW2 7358   2.783   1.174   3.056
 1832SOL    HW3 7359   2.639   1.167   3.103
 1832SOL    MW4 7360   2.717   1.130   3.093
 1833SOL     OW 7361   2.908   1.291   3.004
 1833SOL    HW2 7362   2.991   1.261   3.040
 1833SOL    HW3 7363   2.893   1.376   3.046
 1833SOL    MW4 7364   2.917   1.298   3.014
 1834SOL     OW 7365   2.913   1.557   3.128
 1834SOL    HW2 7366   2.911   1.570   3.223
 1834SOL    HW3 7367   3.001   1.585   3.102
 1834SOL    MW4 7368   2.924   1.563   3.137
 1835SOL     OW 7369   2.677   1.667   2.999
 1835SOL    HW2 7370   2.753   1.622   3.035
 1835SOL    HW3 7371   2.602   1.627   3.042
 1835SOL    MW4 7372   2.677   1.656   3.009
 1836SOL     OW 7373   2.670   1.945   3.092
 1836SOL    HW2 7374   2.755   1.989   3.087
 1836SOL    HW3 7375   2.685   1.859   3.054
 1836SOL    MW4 7376   2.684   1.939   3.087
 1837SOL     OW 7377   2.912   2.047   3.022
 1837SOL    HW2 7378   2.915   2.136   3.056
 1837SOL    HW3 7379   2.899   2.058   2.928
 1837SOL    MW4 7380   2.911   2.060   3.014
 1838SOL     OW 7381   2.899   2.314   3.108
 1838SOL    HW2 7382   2.975   2.355   3.067
 1838SOL    HW3 7383   2.824   2.355   3.066
 1838SOL    MW4 7384   2.899   2.325   3.097
 1839SOL     OW 7385   2.677   2.441   2.998
 1839SOL    HW2 7386   2.687   2.534   3.018
 1839SOL    HW3 7387   2.609   2.411   3.058
 1839SOL    MW4 7388   2.669   2.450   3.009
 1840SOL     OW 7389   2.714   2.709   3.092
 1840SOL    HW2 7390   2.717   2.705   3.188
 1840SOL    HW3 7391   2.634   2.757   3.072
 1840SOL    MW4 7392   2.704   2.715   3.102
 1841SOL     OW 7393   2.942   2.879   3.028
 1841SOL    HW2 7394   3.017   2.819   3.032
 1841SOL    HW3 7395   2.867   2.824   3.049
 1841SOL    MW4 7396   2.942   2.863   3.032
 1842SOL     OW 7397   2.931   3.133   3.142
 1842SOL    HW2 7398   2.850   3.163   3.100
 1842SOL    HW3 7399   2.950   3.050   3.099
 1842SOL    MW4 7400   2.923   3.126   3.130
 1843SOL     OW 7401   2.711   3.246   3.002
 1843SOL    HW2 7402   2.692   3.334   3.035
 1843SOL    HW3 7403   2.706   3.255   2.907
 1843SOL    MW4 7404   2.707   3.259   2.994
 1844SOL     OW 7405   2.667   3.494   3.118
 1844SOL    HW2 7406   2.672   3.477   3.212
 1844SOL    HW3 7407   2.756   3.520   3.094
 1844SOL    MW4 7408   2.679   3.495   3.127
 1845SOL     OW 7409   2.912   3.617   2.990
 1845SOL    HW2 7410   3.000   3.589   3.016
 1845SOL    HW3 7411   2.898   3.698   3.038
 1845SOL    MW4 7412   2.922   3.624   3.000
 1846SOL     OW 7413   2.918   3.854   3.127
 1846SOL    HW2 7414   2.906   3.821   3.216
 1846SOL    HW3 7415   2.858   3.928   3.121
 1846SOL    MW4 7416   2.908   3.859   3.138
 1847SOL     OW 7417   2.711   4.002   3.030
 1847SOL    HW2 7418   2.727   4.096   3.040
 1847SOL    HW3 7419   2.732   3.984   2.938
 1847SOL    MW4 7420   2.716   4.012   3.019
 1848SOL     OW 7421   2.759   4.276   3.110
 1848SOL    HW2 7422   2.754   4.268   3.205
 1848SOL    HW3 7423   2.674   4.312   3.085
 1848SOL    MW4 7424   2.747   4.280   3.119
 1849SOL     OW 7425   2.966   4.432   3.022
 1849SOL    HW2 7426   3.036   4.376   3.055
 1849SOL    HW3 7427   2.886   4.397   3.062
 1849SOL    MW4 7428   2.965   4.420   3.031
 1850SOL     OW 7429   3.338   4.636   3.135
 1850SOL    HW2 7430   3.414   4.673   3.090
 1850SOL    HW3 7431   3.341   4.542   3.114
 1850SOL    MW4 7432   3.349   4.628   3.126
 1851SOL     OW 7433   3.164   0.122   2.993
 1851SOL    HW2 7434   3.172   0.216   3.010
 1851SOL    HW3 7435   3.220   0.081   3.059
 1851SOL    MW4 7436   3.173   0.129   3.004
 1852SOL     OW 7437   3.152   0.368   3.135
 1852SOL    HW2 7438   3.228   0.417   3.102
 1852SOL    HW3 7439   3.076   0.413   3.098
 1852SOL    MW4 7440   3.152   0.381   3.126
 1853SOL     OW 7441   3.376   0.484   3.018
 1853SOL    HW2 7442   3.451   0.444   3.061
 1853SOL    HW3 7443   3.391   0.469   2.924
 1853SOL    MW4 7444   3.388   0.477   3.011
 1854SOL     OW 7445   3.373   0.751   3.097
 1854SOL    HW2 7446   3.383   0.746   3.192
 1854SOL    HW3 7447   3.375   0.660   3.068
 1854SOL    MW4 7448   3.375   0.738   3.106
 1855SOL     OW 7449   3.133   0.916   2.987
 1855SOL    HW2 7450   3.212   0.863   3.002
 1855SOL    HW3 7451   3.061   0.860   3.016
 1855SOL    MW4 7452   3.134   0.901   2.992
 1856SOL     OW 7453   3.168   1.168   3.086
 1856SOL    HW2 7454   3.257   1.191   3.058
 1856SOL    HW3 7455   3.158   1.077   3.057
 1856SOL    MW4 7456   3.179   1.159   3.079
 1857SOL     OW 7457   3.405   1.259   2.972
 1857SOL    HW2 7458   3.478   1.210   3.011
 1857SOL    HW3 7459   3.398   1.337   3.027
 1857SOL    MW4 7460   3.414   1.263   2.984
 1858SOL     OW 7461   3.377   1.526   3.126
 1858SOL    HW2 7462   3.392   1.525   3.220
 1858SOL    HW3 7463   3.448   1.578   3.090
 1858SOL    MW4 7464   3.388   1.532   3.134
 1859SOL     OW 7465   3.158   1.657   3.003
 1859SOL    HW2 7466   3.231   1.601   3.027
 1859SOL    HW3 7467   3.152   1.649   2.908
 1859SOL    MW4 7468   3.167   1.649   2.994
 1860SOL     OW 7469   3.151   1.933   3.097
 1860SOL    HW2 7470   3.148   1.844   3.061
 1860SOL    HW3 7471   3.069   1.973   3.068
 1860SOL    MW4 7472   3.140   1.926   3.089
 1861SOL     OW 7473   3.374   2.074   3.008
 1861SOL    HW2 7474   3.446   2.021   3.041
 1861SOL    HW3 7475   3.295   2.031   3.043
 1861SOL    MW4 7476   3.373   2.061   3.017
 1862SOL     OW 7477   3.339   2.340   3.081
 1862SOL    HW2 7478   3.329   2.338   3.176
 1862SOL    HW3 7479   3.360   2.249   3.058
 1862SOL    MW4 7480   3.341   2.328   3.091
 1863SOL     OW 7481   3.110   2.475   2.998
 1863SOL    HW2 7482   3.190   2.427   3.020
 1863SOL    HW3 7483   3.118   2.493   2.905
 1863SOL    MW4 7484   3.122   2.471   2.989
 1864SOL     OW 7485   3.159   2.733   3.063
 1864SOL    HW2 7486   3.155   2.737   3.158
 1864SOL    HW3 7487   3.140   2.642   3.042
 1864SOL    MW4 7488   3.156   2.722   3.073
 1865SOL     OW 7489   3.412   2.846   3.016
 1865SOL    HW2 7490   3.422   2.933   3.055
 1865SOL    HW3 7491   3.325   2.817   3.043
 1865SOL    MW4 7492   3.402   2.854   3.025
 1866SOL     OW 7493   3.377   3.109   3.093
 1866SOL    HW2 7494   3.386   3.124   3.188
 1866SOL    HW3 7495   3.300   3.160   3.068
 1866SOL    MW4 7496   3.368   3.118   3.102
 1867SOL     OW 7497   3.145   3.267   3.034
 1867SOL    HW2 7498   3.075   3.217   3.076
 1867SOL    HW3 7499   3.133   3.252   2.940
 1867SOL    MW4 7500   3.134   3.259   3.027
 1868SOL     OW 7501   3.161   3.534   3.115
 1868SOL    HW2 7502   3.244   3.573   3.088
 1868SOL    HW3 7503   3.164   3.445   3.080
 1868SOL    MW4 7504   3.172   3.527   3.107
 1869SOL     OW 7505   3.370   3.653   2.994
 1869SOL    HW2 7506   3.452   3.614   3.025
 1869SOL    HW3 7507   3.370   3.741   3.031
 1869SOL    MW4 7508   3.381   3.660   3.003
 1870SOL     OW 7509   3.364   3.888   3.120
 1870SOL    HW2 7510   3.362   3.880   3.216
 1870SOL    HW3 7511   3.281   3.929   3.098
 1870SOL    MW4 7512   3.353   3.892   3.130
 1871SOL     OW 7513   3.118   4.000   3.029
 1871SOL    HW2 7514   3.044   3.948   3.060
 1871SOL    HW3 7515   3.108   4.002   2.934
 1871SOL    MW4 7516   3.107   3.993   3.020
 1872SOL     OW 7517   3.152   4.259   3.141
 1872SOL    HW2 7518   3.157   4.260   3.237
 1872SOL    HW3 7519   3.115   4.173   3.120
 1872SOL    MW4 7520   3.147   4.248   3.151
 1873SOL     OW 7521   3.369   4.374   3.041
 1873SOL    HW2 7522   3.448   4.337   3.080
 1873SOL    HW3 7523   3.298   4.315   3.069
 1873SOL    MW4 7524   3.370   4.361   3.050
 1874SOL     OW 7525   3.828   0.005   3.127
 1874SOL    HW2 7526   3.813  -0.084   3.094
 1874SOL    HW3 7527   3.756   0.056   3.091
 1874SOL    MW4 7528   3.817   0.000   3.118
 1875SOL     OW 7529   3.565   0.092   3.027
 1875SOL    HW2 7530   3.557   0.181   3.064
 1875SOL    HW3 7531   3.592   0.107   2.937
 1875SOL    MW4 7532   3.567   0.106   3.020
 1876SOL     OW 7533   3.594   0.352   3.113
 1876SOL    HW2 7534   3.613   0.364   3.206
 1876SOL    HW3 7535   3.675   0.380   3.069
 1876SOL    MW4 7536   3.607   0.358   3.120
 1877SOL     OW 7537   3.835   0.438   2.978
 1877SOL    HW2 7538   3.896   0.380   3.023
 1877SOL    HW3 7539   3.835   0.519   3.029
 1877SOL    MW4 7540   3.843   0.441   2.990
 1878SOL     OW 7541   3.798   0.687   3.111
 1878SOL    HW2 7542   3.798   0.705   3.205
 1878SOL    HW3 7543   3.872   0.737   3.077
 1878SOL    MW4 7544   3.808   0.696   3.119
 1879SOL     OW 7545   3.609   0.852   3.008
 1879SOL    HW2 7546   3.675   0.800   3.052
 1879SOL    HW3 7547   3.526   0.809   3.030
 1879SOL    MW4 7548   3.607   0.839   3.017
 1880SOL     OW 7549   3.610   1.110   3.091
 1880SOL    HW2 7550   3.696   1.143   3.067
 1880SOL    HW3 7551   3.616   1.015   3.075
 1880SOL    MW4 7552   3.622   1.102   3.086
 1881SOL     OW 7553   3.819   1.242   3.003
 1881SOL    HW2 7554   3.816   1.332   3.037
 1881SOL    HW3 7555   3.801   1.251   2.909
 1881SOL    MW4 7556   3.816   1.255   2.995
 1882SOL     OW 7557   3.798   1.503   3.092
 1882SOL    HW2 7558   3.823   1.514   3.184
 1882SOL    HW3 7559   3.728   1.568   3.078
 1882SOL    MW4 7560   3.792   1.513   3.102
 1883SOL     OW 7561   3.587   1.681   3.019
 1883SOL    HW2 7562   3.593   1.773   3.042
 1883SOL    HW3 7563   3.590   1.679   2.924
 1883SOL    MW4 7564   3.588   1.693   3.010
 1884SOL     OW 7565   3.591   1.940   3.105
 1884SOL    HW2 7566   3.604   1.945   3.200
 1884SOL    HW3 7567   3.659   1.996   3.068
 1884SOL    MW4 7568   3.602   1.948   3.112
 1885SOL     OW 7569   3.810   2.075   3.000
 1885SOL    HW2 7570   3.804   2.168   3.025
 1885SOL    HW3 7571   3.794   2.075   2.905
 1885SOL    MW4 7572   3.807   2.087   2.991
 1886SOL     OW 7573   3.782   2.341   3.081
 1886SOL    HW2 7574   3.778   2.342   3.176
 1886SOL    HW3 7575   3.709   2.396   3.052
 1886SOL    MW4 7576   3.772   2.348   3.089
 1887SOL     OW 7577   3.588   2.504   3.018
 1887SOL    HW2 7578   3.606   2.590   3.055
 1887SOL    HW3 7579   3.497   2.487   3.042
 1887SOL    MW4 7580   3.578   2.513   3.026
 1888SOL     OW 7581   3.641   2.768   3.123
 1888SOL    HW2 7582   3.706   2.823   3.079
 1888SOL    HW3 7583   3.559   2.788   3.078
 1888SOL    MW4 7584   3.639   2.778   3.112
 1889SOL     OW 7585   3.829   2.914   2.971
 1889SOL    HW2 7586   3.842   3.003   3.003
 1889SOL    HW3 7587   3.790   2.926   2.884
 1889SOL    MW4 7588   3.826   2.928   2.963
 1890SOL     OW 7589   3.841   3.157   3.132
 1890SOL    HW2 7590   3.915   3.204   3.095
 1890SOL    HW3 7591   3.763   3.204   3.102
 1890SOL    MW4 7592   3.840   3.169   3.123
 1891SOL     OW 7593   3.614   3.228   3.005
 1891SOL    HW2 7594   3.543   3.174   3.039
 1891SOL    HW3 7595   3.611   3.213   2.910
 1891SOL    MW4 7596   3.604   3.219   2.997
 1892SOL     OW 7597   3.573   3.490   3.088
 1892SOL    HW2 7598   3.652   3.541   3.073
 1892SOL    HW3 7599   3.592   3.403   3.053
 1892SOL    MW4 7600   3.586   3.485   3.081
 1893SOL     OW 7601   3.785   3.641   2.997
 1893SOL    HW2 7602   3.798   3.734   3.011
 1893SOL    HW3 7603   3.798   3.628   2.903
 1893SOL    MW4 7604   3.788   3.651   2.987
 1894SOL     OW 7605   3.832   3.901   3.089
 1894SOL    HW2 7606   3.813   3.900   3.183
 1894SOL    HW3 7607   3.762   3.953   3.051
 1894SOL    MW4 7608   3.820   3.907   3.097
 1895SOL     OW 7609   3.586   3.998   3.000
 1895SOL    HW2 7610   3.522   3.951   3.054
 1895SOL    HW3 7611   3.554   3.986   2.910
 1895SOL    MW4 7612   3.573   3.990   2.995
 1896SOL     OW 7613   3.613   4.248   3.125
 1896SOL    HW2 7614   3.694   4.295   3.108
 1896SOL    HW3 7615   3.623   4.164   3.080
 1896SOL    MW4 7616   3.625   4.243   3.117
 1897SOL     OW 7617   3.838   4.408   3.023
 1897SOL    HW2 7618   3.914   4.352   3.042
 1897SOL    HW3 7619   3.805   4.376   2.939
 1897SOL    MW4 7620   3.844   4.396   3.015
 1898SOL     OW 7621   4.309   4.648   3.160
 1898SOL    HW2 7622   4.328   4.669   3.251
 1898SOL    HW3 7623   4.312   4.552   3.156
 1898SOL    MW4 7624   4.312   4.638   3.171
 1899SOL     OW 7625   4.081   0.062   3.024
 1899SOL    HW2 7626   4.152   0.017   3.071
 1899SOL    HW3 7627   4.003   0.014   3.049
 1899SOL    MW4 7628   4.080   0.050   3.034
 1900SOL     OW 7629   4.020   0.318   3.130
 1900SOL    HW2 7630   4.085   0.372   3.086
 1900SOL    HW3 7631   4.051   0.228   3.119
 1900SOL    MW4 7632   4.032   0.313   3.123
 1901SOL     OW 7633   4.203   0.490   3.026
 1901SOL    HW2 7634   4.199   0.583   3.049
 1901SOL    HW3 7635   4.201   0.489   2.931
 1901SOL    MW4 7636   4.202   0.502   3.017
 1902SOL     OW 7637   4.246   0.770   3.123
 1902SOL    HW2 7638   4.167   0.802   3.079
 1902SOL    HW3 7639   4.318   0.805   3.070
 1902SOL    MW4 7640   4.245   0.779   3.110
 1903SOL     OW 7641   4.000   0.859   3.001
 1903SOL    HW2 7642   4.005   0.948   3.037
 1903SOL    HW3 7643   4.039   0.867   2.914
 1903SOL    MW4 7644   4.006   0.872   2.994
 1904SOL     OW 7645   4.038   1.107   3.105
 1904SOL    HW2 7646   4.028   1.111   3.200
 1904SOL    HW3 7647   3.969   1.164   3.071
 1904SOL    MW4 7648   4.028   1.115   3.113
 1905SOL     OW 7649   4.246   1.285   3.039
 1905SOL    HW2 7650   4.177   1.222   3.060
 1905SOL    HW3 7651   4.253   1.281   2.944
 1905SOL    MW4 7652   4.238   1.276   3.029
 1906SOL     OW 7653   4.217   1.548   3.112
 1906SOL    HW2 7654   4.134   1.578   3.074
 1906SOL    HW3 7655   4.236   1.466   3.067
 1906SOL    MW4 7656   4.208   1.541   3.101
 1907SOL     OW 7657   3.978   1.671   2.986
 1907SOL    HW2 7658   3.977   1.744   3.047
 1907SOL    HW3 7659   3.908   1.613   3.016
 1907SOL    MW4 7660   3.968   1.673   2.998
 1908SOL     OW 7661   3.997   1.907   3.116
 1908SOL    HW2 7662   4.082   1.925   3.075
 1908SOL    HW3 7663   3.938   1.973   3.080
 1908SOL    MW4 7664   4.000   1.918   3.106
 1909SOL     OW 7665   4.243   2.002   3.015
 1909SOL    HW2 7666   4.232   2.092   3.044
 1909SOL    HW3 7667   4.231   2.006   2.920
 1909SOL    MW4 7668   4.240   2.014   3.006
 1910SOL     OW 7669   4.223   2.286   3.079
 1910SOL    HW2 7670   4.153   2.351   3.072
 1910SOL    HW3 7671   4.303   2.336   3.067
 1910SOL    MW4 7672   4.224   2.301   3.076
 1911SOL     OW 7673   4.009   2.463   3.001
 1911SOL    HW2 7674   3.997   2.549   3.042
 1911SOL    HW3 7675   3.936   2.411   3.034
 1911SOL    MW4 7676   3.998   2.468   3.011
 1912SOL     OW 7677   4.042   2.749   3.086
 1912SOL    HW2 7678   4.046   2.764   3.180
 1912SOL    HW3 7679   3.967   2.802   3.056
 1912SOL    MW4 7680   4.032   2.758   3.094
 1913SOL     OW 7681   4.279   2.853   2.989
 1913SOL    HW2 7682   4.205   2.813   3.034
 1913SOL    HW3 7683   4.355   2.802   3.017
 1913SOL    MW4 7684   4.280   2.841   2.998
 1914SOL     OW 7685   4.245   3.102   3.101
 1914SOL    HW2 7686   4.171   3.148   3.062
 1914SOL    HW3 7687   4.239   3.013   3.067
 1914SOL    MW4 7688   4.234   3.097   3.091
 1915SOL     OW 7689   4.051   3.253   2.987
 1915SOL    HW2 7690   4.075   3.345   2.975
 1915SOL    HW3 7691   4.008   3.229   2.905
 1915SOL    MW4 7692   4.048   3.262   2.974
 1916SOL     OW 7693   4.026   3.519   3.052
 1916SOL    HW2 7694   4.034   3.518   3.147
 1916SOL    HW3 7695   3.943   3.563   3.035
 1916SOL    MW4 7696   4.016   3.525   3.062
 1917SOL     OW 7697   4.280   3.615   2.984
 1917SOL    HW2 7698   4.278   3.704   3.019
 1917SOL    HW3 7699   4.190   3.585   2.991
 1917SOL    MW4 7700   4.268   3.623   2.989
 1918SOL     OW 7701   4.303   3.881   3.093
 1918SOL    HW2 7702   4.232   3.935   3.058
 1918SOL    HW3 7703   4.383   3.920   3.058
 1918SOL    MW4 7704   4.304   3.894   3.084
 1919SOL     OW 7705   4.093   4.007   2.996
 1919SOL    HW2 7706   4.078   4.092   3.039
 1919SOL    HW3 7707   4.025   3.950   3.031
 1919SOL    MW4 7708   4.082   4.011   3.006
 1920SOL     OW 7709   4.043   4.250   3.103
 1920SOL    HW2 7710   4.028   4.263   3.197
 1920SOL    HW3 7711   4.126   4.294   3.086
 1920SOL    MW4 7712   4.052   4.257   3.113
 1921SOL     OW 7713   4.286   4.374   3.053
 1921SOL    HW2 7714   4.372   4.339   3.076
 1921SOL    HW3 7715   4.283   4.370   2.957
 1921SOL    MW4 7716   4.297   4.369   3.043
 1922SOL     OW 7717   0.241   0.003   3.398
 1922SOL    HW2 7718   0.327   0.028   3.431
 1922SOL    HW3 7719   0.222  -0.080   3.441
 1922SOL    MW4 7720   0.250  -0.004   3.408
 1923SOL     OW 7721   0.046   0.172   3.523
 1923SOL    HW2 7722   0.040   0.249   3.466
 1923SOL    HW3 7723   0.116   0.120   3.487
 1923SOL    MW4 7724   0.054   0.176   3.511
 1924SOL     OW 7725   0.025   0.412   3.406
 1924SOL    HW2 7726  -0.053   0.442   3.454
 1924SOL    HW3 7727   0.098   0.459   3.447
 1924SOL    MW4 7728   0.024   0.422   3.418
 1925SOL     OW 7729   0.254   0.518   3.510
 1925SOL    HW2 7730   0.305   0.455   3.460
 1925SOL    HW3 7731   0.282   0.603   3.477
 1925SOL    MW4 7732   0.265   0.521   3.499
 1926SOL     OW 7733   0.268   0.766   3.373
 1926SOL    HW2 7734   0.330   0.819   3.423
 1926SOL    HW3 7735   0.183   0.790   3.408
 1926SOL    MW4 7736   0.265   0.776   3.385
 1927SOL     OW 7737   0.009   0.827   3.480
 1927SOL    HW2 7738   0.023   0.825   3.575
 1927SOL    HW3 7739   0.007   0.921   3.459
 1927SOL    MW4 7740   0.011   0.839   3.490
 1928SOL     OW 7741   4.460   1.092   3.408
 1928SOL    HW2 7742   4.519   1.138   3.467
 1928SOL    HW3 7743   4.493   1.113   3.320
 1928SOL    MW4 7744   4.472   1.101   3.404
 1929SOL     OW 7745   0.173   1.250   3.510
 1929SOL    HW2 7746   0.257   1.220   3.476
 1929SOL    HW3 7747   0.163   1.339   3.475
 1929SOL    MW4 7748   0.183   1.258   3.501
 1930SOL     OW 7749   0.194   1.513   3.395
 1930SOL    HW2 7750   0.268   1.556   3.439
 1930SOL    HW3 7751   0.208   1.531   3.302
 1930SOL    MW4 7752   0.206   1.521   3.389
 1931SOL     OW 7753   4.449   1.678   3.471
 1931SOL    HW2 7754   4.379   1.615   3.453
 1931SOL    HW3 7755   4.530   1.630   3.456
 1931SOL    MW4 7756   4.450   1.664   3.467
 1932SOL     OW 7757   4.466   1.938   3.389
 1932SOL    HW2 7758   4.462   1.848   3.420
 1932SOL    HW3 7759   4.469   1.931   3.293
 1932SOL    MW4 7760   4.466   1.926   3.380
 1933SOL     OW 7761   0.223   2.055   3.452
 1933SOL    HW2 7762   0.222   2.061   3.547
 1933SOL    HW3 7763   0.141   2.011   3.429
 1933SOL    MW4 7764   0.212   2.050   3.461
 1934SOL     OW 7765   0.209   2.296   3.324
 1934SOL    HW2 7766   0.137   2.338   3.371
 1934SOL    HW3 7767   0.219   2.211   3.366
 1934SOL    MW4 7768   0.201   2.290   3.336
 1935SOL     OW 7769   0.006   2.440   3.443
 1935SOL    HW2 7770  -0.012   2.429   3.536
 1935SOL    HW3 7771  -0.064   2.392   3.399
 1935SOL    MW4 7772  -0.006   2.433   3.450
 1936SOL     OW 7773   0.025   2.723   3.375
 1936SOL    HW2 7774   0.109   2.756   3.409
 1936SOL    HW3 7775   0.022   2.632   3.404
 1936SOL    MW4 7776   0.036   2.715   3.384
 1937SOL     OW 7777   0.255   2.841   3.472
 1937SOL    HW2 7778   0.330   2.798   3.432
 1937SOL    HW3 7779   0.261   2.932   3.443
 1937SOL    MW4 7780   0.266   2.847   3.463
 1938SOL     OW 7781   0.240   3.097   3.392
 1938SOL    HW2 7782   0.158   3.138   3.419
 1938SOL    HW3 7783   0.237   3.098   3.296
 1938SOL    MW4 7784   0.229   3.103   3.383
 1939SOL     OW 7785   0.027   3.245   3.474
 1939SOL    HW2 7786  -0.058   3.207   3.454
 1939SOL    HW3 7787   0.021   3.335   3.440
 1939SOL    MW4 7788   0.015   3.252   3.467
 1940SOL     OW 7789   0.014   3.534   3.384
 1940SOL    HW2 7790  -0.064   3.578   3.418
 1940SOL    HW3 7791  -0.010   3.511   3.294
 1940SOL    MW4 7792   0.001   3.537   3.377
 1941SOL     OW 7793   0.261   3.613   3.482
 1941SOL    HW2 7794   0.244   3.622   3.576
 1941SOL    HW3 7795   0.176   3.590   3.444
 1941SOL    MW4 7796   0.248   3.611   3.490
 1942SOL     OW 7797   0.221   3.881   3.368
 1942SOL    HW2 7798   0.141   3.908   3.415
 1942SOL    HW3 7799   0.235   3.790   3.396
 1942SOL    MW4 7800   0.212   3.873   3.378
 1943SOL     OW 7801   4.464   3.973   3.499
 1943SOL    HW2 7802   4.481   3.973   3.593
 1943SOL    HW3 7803   4.476   4.064   3.472
 1943SOL    MW4 7804   4.468   3.985   3.507
 1944SOL     OW 7805   4.467   4.234   3.416
 1944SOL    HW2 7806   4.392   4.293   3.428
 1944SOL    HW3 7807   4.543   4.286   3.445
 1944SOL    MW4 7808   4.467   4.249   3.421
 1945SOL     OW 7809   0.203   4.391   3.489
 1945SOL    HW2 7810   0.200   4.373   3.583
 1945SOL    HW3 7811   0.285   4.352   3.460
 1945SOL    MW4 7812   0.213   4.384   3.498
 1946SOL     OW 7813   0.672   0.019   3.409
 1946SOL    HW2 7814   0.759   0.051   3.431
 1946SOL    HW3 7815   0.674   0.006   3.314
 1946SOL    MW4 7816   0.684   0.021   3.400
 1947SOL     OW 7817   0.447   0.135   3.525
 1947SOL    HW2 7818   0.443   0.117   3.619
 1947SOL    HW3 7819   0.520   0.082   3.494
 1947SOL    MW4 7820   0.456   0.125   3.534
 1948SOL     OW 7821   0.436   0.372   3.371
 1948SOL    HW2 7822   0.511   0.418   3.409
 1948SOL    HW3 7823   0.431   0.289   3.419
 1948SOL    MW4 7824   0.445   0.367   3.383
 1949SOL     OW 7825   0.669   0.481   3.472
 1949SOL    HW2 7826   0.660   0.468   3.567
 1949SOL    HW3 7827   0.749   0.433   3.450
 1949SOL    MW4 7828   0.679   0.473   3.482
 1950SOL     OW 7829   0.673   0.758   3.384
 1950SOL    HW2 7830   0.604   0.805   3.432
 1950SOL    HW3 7831   0.676   0.672   3.424
 1950SOL    MW4 7832   0.664   0.753   3.396
 1951SOL     OW 7833   0.462   0.910   3.497
 1951SOL    HW2 7834   0.474   0.911   3.592
 1951SOL    HW3 7835   0.443   1.001   3.474
 1951SOL    MW4 7836   0.461   0.922   3.506
 1952SOL     OW 7837   0.409   1.155   3.424
 1952SOL    HW2 7838   0.487   1.207   3.444
 1952SOL    HW3 7839   0.407   1.151   3.329
 1952SOL    MW4 7840   0.419   1.161   3.414
 1953SOL     OW 7841   0.650   1.275   3.522
 1953SOL    HW2 7842   0.729   1.238   3.483
 1953SOL    HW3 7843   0.647   1.365   3.488
 1953SOL    MW4 7844   0.660   1.282   3.512
 1954SOL     OW 7845   0.661   1.534   3.382
 1954SOL    HW2 7846   0.739   1.579   3.416
 1954SOL    HW3 7847   0.588   1.579   3.423
 1954SOL    MW4 7848   0.662   1.546   3.392
 1955SOL     OW 7849   0.425   1.650   3.485
 1955SOL    HW2 7850   0.425   1.665   3.580
 1955SOL    HW3 7851   0.420   1.738   3.447
 1955SOL    MW4 7852   0.424   1.664   3.493
 1956SOL     OW 7853   0.448   1.921   3.391
 1956SOL    HW2 7854   0.369   1.969   3.416
 1956SOL    HW3 7855   0.447   1.922   3.295
 1956SOL    MW4 7856   0.437   1.928   3.382
 1957SOL     OW 7857   0.666   2.057   3.490
 1957SOL    HW2 7858   0.671   2.046   3.585
 1957SOL    HW3 7859   0.589   2.006   3.464
 1957SOL    MW4 7860   0.656   2.049   3.499
 1958SOL     OW 7861   0.647   2.303   3.347
 1958SOL    HW2 7862   0.714   2.357   3.388
 1958SOL    HW3 7863   0.650   2.220   3.395
 1958SOL    MW4 7864   0.656   2.299   3.359
 1959SOL     OW 7865   0.412   2.440   3.429
 1959SOL    HW2 7866   0.487   2.392   3.392
 1959SOL    HW3 7867   0.336   2.388   3.405
 1959SOL    MW4 7868   0.412   2.427   3.421
 1960SOL     OW 7869   0.478   2.703   3.346
 1960SOL    HW2 7870   0.441   2.615   3.352
 1960SOL    HW3 7871   0.478   2.722   3.252
 1960SOL    MW4 7872   0.473   2.694   3.334
 1961SOL     OW 7873   0.694   2.847   3.442
 1961SOL    HW2 7874   0.762   2.798   3.395
 1961SOL    HW3 7875   0.613   2.802   3.419
 1961SOL    MW4 7876   0.693   2.835   3.433
 1962SOL     OW 7877   0.692   3.124   3.379
 1962SOL    HW2 7878   0.609   3.160   3.411
 1962SOL    HW3 7879   0.686   3.031   3.398
 1962SOL    MW4 7880   0.680   3.117   3.386
 1963SOL     OW 7881   0.459   3.251   3.449
 1963SOL    HW2 7882   0.468   3.256   3.544
 1963SOL    HW3 7883   0.376   3.207   3.434
 1963SOL    MW4 7884   0.449   3.246   3.459
 1964SOL     OW 7885   0.499   3.527   3.380
 1964SOL    HW2 7886   0.478   3.436   3.403
 1964SOL    HW3 7887   0.424   3.577   3.412
 1964SOL    MW4 7888   0.486   3.521   3.387
 1965SOL     OW 7889   0.707   3.670   3.459
 1965SOL    HW2 7890   0.790   3.637   3.425
 1965SOL    HW3 7891   0.640   3.617   3.416
 1965SOL    MW4 7892   0.709   3.659   3.449
 1966SOL     OW 7893   0.682   3.931   3.365
 1966SOL    HW2 7894   0.596   3.964   3.393
 1966SOL    HW3 7895   0.685   3.842   3.399
 1966SOL    MW4 7896   0.671   3.924   3.373
 1967SOL     OW 7897   0.442   4.007   3.474
 1967SOL    HW2 7898   0.434   4.100   3.451
 1967SOL    HW3 7899   0.367   3.966   3.431
 1967SOL    MW4 7900   0.431   4.014   3.465
 1968SOL     OW 7901   0.425   4.276   3.398
 1968SOL    HW2 7902   0.499   4.324   3.437
 1968SOL    HW3 7903   0.434   4.291   3.304
 1968SOL    MW4 7904   0.436   4.285   3.391
 1969SOL     OW 7905   0.629   4.433   3.507
 1969SOL    HW2 7906   0.713   4.396   3.480
 1969SOL    HW3 7907   0.634   4.525   3.481
 1969SOL    MW4 7908   0.641   4.440   3.500
 1970SOL     OW 7909   1.133   0.001   3.435
 1970SOL    HW2 7910   1.216   0.043   3.458
 1970SOL    HW3 7911   1.124   0.017   3.341
 1970SOL    MW4 7912   1.143   0.009   3.425
 1971SOL     OW 7913   0.908   0.135   3.507
 1971SOL    HW2 7914   0.886   0.119   3.599
 1971SOL    HW3 7915   1.000   0.110   3.500
 1971SOL    MW4 7916   0.917   0.130   3.518
 1972SOL     OW 7917   0.907   0.381   3.385
 1972SOL    HW2 7918   0.980   0.431   3.422
 1972SOL    HW3 7919   0.914   0.295   3.426
 1972SOL    MW4 7920   0.918   0.376   3.395
 1973SOL     OW 7921   1.142   0.509   3.495
 1973SOL    HW2 7922   1.135   0.521   3.590
 1973SOL    HW3 7923   1.125   0.596   3.459
 1973SOL    MW4 7924   1.139   0.522   3.503
 1974SOL     OW 7925   1.102   0.773   3.370
 1974SOL    HW2 7926   1.179   0.806   3.416
 1974SOL    HW3 7927   1.030   0.828   3.401
 1974SOL    MW4 7928   1.103   0.784   3.380
 1975SOL     OW 7929   0.882   0.906   3.482
 1975SOL    HW2 7930   0.865   0.995   3.450
 1975SOL    HW3 7931   0.817   0.852   3.437
 1975SOL    MW4 7932   0.871   0.911   3.472
 1976SOL     OW 7933   0.874   1.176   3.399
 1976SOL    HW2 7934   0.966   1.183   3.423
 1976SOL    HW3 7935   0.873   1.176   3.303
 1976SOL    MW4 7936   0.886   1.177   3.390
 1977SOL     OW 7937   1.134   1.268   3.477
 1977SOL    HW2 7938   1.139   1.266   3.572
 1977SOL    HW3 7939   1.127   1.361   3.455
 1977SOL    MW4 7940   1.134   1.280   3.486
 1978SOL     OW 7941   1.138   1.547   3.411
 1978SOL    HW2 7942   1.211   1.604   3.437
 1978SOL    HW3 7943   1.137   1.552   3.315
 1978SOL    MW4 7944   1.148   1.555   3.402
 1979SOL     OW 7945   0.892   1.660   3.487
 1979SOL    HW2 7946   0.894   1.743   3.439
 1979SOL    HW3 7947   0.982   1.627   3.481
 1979SOL    MW4 7948   0.904   1.666   3.480
 1980SOL     OW 7949   0.884   1.910   3.387
 1980SOL    HW2 7950   0.964   1.951   3.419
 1980SOL    HW3 7951   0.813   1.966   3.418
 1980SOL    MW4 7952   0.885   1.923   3.395
 1981SOL     OW 7953   1.104   2.048   3.482
 1981SOL    HW2 7954   1.188   2.013   3.452
 1981SOL    HW3 7955   1.105   2.140   3.455
 1981SOL    MW4 7956   1.115   2.055   3.474
 1982SOL     OW 7957   1.124   2.327   3.387
 1982SOL    HW2 7958   1.207   2.356   3.424
 1982SOL    HW3 7959   1.135   2.335   3.292
 1982SOL    MW4 7960   1.136   2.332   3.379
 1983SOL     OW 7961   0.875   2.440   3.465
 1983SOL    HW2 7962   0.892   2.435   3.559
 1983SOL    HW3 7963   0.952   2.400   3.425
 1983SOL    MW4 7964   0.887   2.434   3.472
 1984SOL     OW 7965   0.891   2.684   3.337
 1984SOL    HW2 7966   0.969   2.723   3.376
 1984SOL    HW3 7967   0.882   2.599   3.379
 1984SOL    MW4 7968   0.900   2.678   3.348
 1985SOL     OW 7969   1.121   2.830   3.444
 1985SOL    HW2 7970   1.110   2.818   3.538
 1985SOL    HW3 7971   1.198   2.779   3.421
 1985SOL    MW4 7972   1.129   2.821   3.453
 1986SOL     OW 7973   1.120   3.109   3.404
 1986SOL    HW2 7974   1.134   3.015   3.412
 1986SOL    HW3 7975   1.119   3.125   3.310
 1986SOL    MW4 7976   1.122   3.099   3.393
 1987SOL     OW 7977   0.894   3.273   3.464
 1987SOL    HW2 7978   0.972   3.221   3.444
 1987SOL    HW3 7979   0.822   3.222   3.426
 1987SOL    MW4 7980   0.895   3.259   3.456
 1988SOL     OW 7981   0.934   3.531   3.348
 1988SOL    HW2 7982   0.918   3.441   3.374
 1988SOL    HW3 7983   0.918   3.533   3.254
 1988SOL    MW4 7984   0.930   3.520   3.339
 1989SOL     OW 7985   1.174   3.620   3.460
 1989SOL    HW2 7986   1.153   3.640   3.552
 1989SOL    HW3 7987   1.099   3.569   3.430
 1989SOL    MW4 7988   1.161   3.616   3.468
 1990SOL     OW 7989   1.105   3.877   3.383
 1990SOL    HW2 7990   1.176   3.928   3.422
 1990SOL    HW3 7991   1.127   3.786   3.403
 1990SOL    MW4 7992   1.117   3.872   3.390
 1991SOL     OW 7993   0.892   4.025   3.508
 1991SOL    HW2 7994   0.970   3.979   3.475
 1991SOL    HW3 7995   0.821   3.992   3.454
 1991SOL    MW4 7996   0.893   4.014   3.497
 1992SOL     OW 7997   0.895   4.315   3.438
 1992SOL    HW2 7998   0.881   4.230   3.479
 1992SOL    HW3 7999   0.892   4.297   3.344
 1992SOL    MW4 8000   0.893   4.301   3.431
 1993SOL     OW 8001   1.132   4.416   3.518
 1993SOL    HW2 8002   1.044   4.388   3.493
 1993SOL    HW3 8003   1.138   4.506   3.485
 1993SOL    MW4 8004   1.121   4.424   3.510
 1994SOL     OW 8005   1.588   4.636   3.385
 1994SOL    HW2 8006   1.570   4.551   3.427
 1994SOL    HW3 8007   1.526   4.696   3.425
 1994SOL    MW4 8008   1.578   4.633   3.396
 1995SOL     OW 8009   1.376   0.128   3.492
 1995SOL    HW2 8010   1.372   0.135   3.588
 1995SOL    HW3 8011   1.363   0.217   3.461
 1995SOL    MW4 8012   1.374   0.140   3.501
 1996SOL     OW 8013   1.372   0.385   3.407
 1996SOL    HW2 8014   1.450   0.433   3.436
 1996SOL    HW3 8015   1.300   0.445   3.427
 1996SOL    MW4 8016   1.373   0.400   3.414
 1997SOL     OW 8017   1.597   0.543   3.492
 1997SOL    HW2 8018   1.574   0.544   3.585
 1997SOL    HW3 8019   1.687   0.509   3.490
 1997SOL    MW4 8020   1.606   0.539   3.504
 1998SOL     OW 8021   1.587   0.795   3.407
 1998SOL    HW2 8022   1.502   0.832   3.430
 1998SOL    HW3 8023   1.585   0.706   3.443
 1998SOL    MW4 8024   1.576   0.788   3.415
 1999SOL     OW 8025   1.325   0.875   3.479
 1999SOL    HW2 8026   1.321   0.875   3.574
 1999SOL    HW3 8027   1.333   0.968   3.455
 1999SOL    MW4 8028   1.325   0.888   3.488
 2000SOL     OW 8029   1.377   1.152   3.393
 2000SOL    HW2 8030   1.445   1.204   3.436
 2000SOL    HW3 8031   1.295   1.195   3.417
 2000SOL    MW4 8032   1.375   1.165   3.402
 2001SOL     OW 8033   1.601   1.305   3.480
 2001SOL    HW2 8034   1.616   1.284   3.572
 2001SOL    HW3 8035   1.673   1.262   3.433
 2001SOL    MW4 8036   1.612   1.297   3.486
 2002SOL     OW 8037   1.587   1.575   3.354
 2002SOL    HW2 8038   1.606   1.490   3.393
 2002SOL    HW3 8039   1.590   1.560   3.260
 2002SOL    MW4 8040   1.590   1.562   3.347
 2003SOL     OW 8041   1.356   1.708   3.468
 2003SOL    HW2 8042   1.368   1.693   3.561
 2003SOL    HW3 8043   1.427   1.658   3.426
 2003SOL    MW4 8044   1.367   1.699   3.474
 2004SOL     OW 8045   1.340   1.969   3.379
 2004SOL    HW2 8046   1.411   2.022   3.416
 2004SOL    HW3 8047   1.351   1.883   3.420
 2004SOL    MW4 8048   1.351   1.964   3.389
 2005SOL     OW 8049   1.572   2.072   3.503
 2005SOL    HW2 8050   1.647   2.026   3.465
 2005SOL    HW3 8051   1.581   2.162   3.472
 2005SOL    MW4 8052   1.583   2.078   3.494
 2006SOL     OW 8053   1.598   2.327   3.424
 2006SOL    HW2 8054   1.515   2.373   3.430
 2006SOL    HW3 8055   1.618   2.326   3.330
 2006SOL    MW4 8056   1.590   2.333   3.412
 2007SOL     OW 8057   1.354   2.443   3.483
 2007SOL    HW2 8058   1.356   2.448   3.578
 2007SOL    HW3 8059   1.348   2.534   3.454
 2007SOL    MW4 8060   1.354   2.456   3.492
 2008SOL     OW 8061   1.339   2.681   3.362
 2008SOL    HW2 8062   1.396   2.750   3.397
 2008SOL    HW3 8063   1.353   2.684   3.267
 2008SOL    MW4 8064   1.349   2.691   3.354
 2009SOL     OW 8065   1.514   2.878   3.460
 2009SOL    HW2 8066   1.593   2.830   3.434
 2009SOL    HW3 8067   1.536   2.970   3.445
 2009SOL    MW4 8068   1.528   2.884   3.454
 2010SOL     OW 8069   1.571   3.140   3.391
 2010SOL    HW2 8070   1.641   3.194   3.428
 2010SOL    HW3 8071   1.491   3.175   3.431
 2010SOL    MW4 8072   1.570   3.152   3.401
 2011SOL     OW 8073   1.329   3.261   3.485
 2011SOL    HW2 8074   1.324   3.278   3.579
 2011SOL    HW3 8075   1.257   3.200   3.468
 2011SOL    MW4 8076   1.319   3.255   3.495
 2012SOL     OW 8077   1.406   3.497   3.386
 2012SOL    HW2 8078   1.414   3.415   3.433
 2012SOL    HW3 8079   1.324   3.535   3.417
 2012SOL    MW4 8080   1.396   3.491   3.396
 2013SOL     OW 8081   1.601   3.644   3.514
 2013SOL    HW2 8082   1.567   3.643   3.604
 2013SOL    HW3 8083   1.540   3.589   3.465
 2013SOL    MW4 8084   1.589   3.637   3.520
 2014SOL     OW 8085   1.533   3.896   3.396
 2014SOL    HW2 8086   1.559   3.819   3.446
 2014SOL    HW3 8087   1.556   3.875   3.306
 2014SOL    MW4 8088   1.539   3.883   3.391
 2015SOL     OW 8089   1.310   4.018   3.502
 2015SOL    HW2 8090   1.335   4.109   3.481
 2015SOL    HW3 8091   1.376   3.965   3.457
 2015SOL    MW4 8092   1.322   4.023   3.493
 2016SOL     OW 8093   1.352   4.287   3.402
 2016SOL    HW2 8094   1.267   4.330   3.414
 2016SOL    HW3 8095   1.358   4.272   3.308
 2016SOL    MW4 8096   1.341   4.290   3.391
 2017SOL     OW 8097   1.569   4.405   3.525
 2017SOL    HW2 8098   1.649   4.369   3.486
 2017SOL    HW3 8099   1.498   4.358   3.481
 2017SOL    MW4 8100   1.570   4.394   3.514
 2018SOL     OW 8101   2.034   4.622   3.404
 2018SOL    HW2 8102   2.109   4.665   3.444
 2018SOL    HW3 8103   1.958   4.667   3.440
 2018SOL    MW4 8104   2.034   4.633   3.414
 2019SOL     OW 8105   1.811   0.107   3.496
 2019SOL    HW2 8106   1.788   0.098   3.588
 2019SOL    HW3 8107   1.743   0.058   3.449
 2019SOL    MW4 8108   1.799   0.099   3.502
 2020SOL     OW 8109   1.812   0.385   3.441
 2020SOL    HW2 8110   1.820   0.299   3.482
 2020SOL    HW3 8111   1.789   0.367   3.350
 2020SOL    MW4 8112   1.810   0.371   3.434
 2021SOL     OW 8113   2.050   0.502   3.504
 2021SOL    HW2 8114   2.045   0.594   3.477
 2021SOL    HW3 8115   1.972   0.461   3.466
 2021SOL    MW4 8116   2.039   0.509   3.495
 2022SOL     OW 8117   2.035   0.773   3.433
 2022SOL    HW2 8118   2.122   0.799   3.463
 2022SOL    HW3 8119   2.044   0.767   3.338
 2022SOL    MW4 8120   2.048   0.775   3.424
 2023SOL     OW 8121   1.822   0.930   3.483
 2023SOL    HW2 8122   1.905   0.884   3.470
 2023SOL    HW3 8123   1.755   0.867   3.455
 2023SOL    MW4 8124   1.824   0.915   3.477
 2024SOL     OW 8125   1.834   1.167   3.343
 2024SOL    HW2 8126   1.893   1.223   3.393
 2024SOL    HW3 8127   1.831   1.085   3.392
 2024SOL    MW4 8128   1.841   1.164   3.356
 2025SOL     OW 8129   2.006   1.312   3.490
 2025SOL    HW2 8130   2.047   1.308   3.576
 2025SOL    HW3 8131   2.002   1.406   3.470
 2025SOL    MW4 8132   2.011   1.324   3.499
 2026SOL     OW 8133   1.995   1.560   3.405
 2026SOL    HW2 8134   2.063   1.609   3.451
 2026SOL    HW3 8135   1.915   1.608   3.423
 2026SOL    MW4 8136   1.994   1.573   3.413
 2027SOL     OW 8137   1.779   1.697   3.496
 2027SOL    HW2 8138   1.787   1.791   3.477
 2027SOL    HW3 8139   1.694   1.673   3.460
 2027SOL    MW4 8140   1.769   1.706   3.488
 2028SOL     OW 8141   1.797   1.961   3.430
 2028SOL    HW2 8142   1.877   2.007   3.454
 2028SOL    HW3 8143   1.800   1.955   3.334
 2028SOL    MW4 8144   1.808   1.966   3.420
 2029SOL     OW 8145   2.011   2.108   3.510
 2029SOL    HW2 8146   2.098   2.078   3.482
 2029SOL    HW3 8147   2.000   2.193   3.468
 2029SOL    MW4 8148   2.021   2.115   3.501
 2030SOL     OW 8149   1.986   2.342   3.373
 2030SOL    HW2 8150   2.071   2.365   3.411
 2030SOL    HW3 8151   1.998   2.354   3.279
 2030SOL    MW4 8152   1.999   2.347   3.366
 2031SOL     OW 8153   1.801   2.491   3.492
 2031SOL    HW2 8154   1.875   2.445   3.452
 2031SOL    HW3 8155   1.727   2.431   3.483
 2031SOL    MW4 8156   1.801   2.477   3.486
 2032SOL     OW 8157   1.734   2.729   3.359
 2032SOL    HW2 8158   1.809   2.783   3.385
 2032SOL    HW3 8159   1.740   2.651   3.416
 2032SOL    MW4 8160   1.745   2.725   3.370
 2033SOL     OW 8161   1.967   2.840   3.464
 2033SOL    HW2 8162   1.980   2.829   3.558
 2033SOL    HW3 8163   1.998   2.929   3.446
 2033SOL    MW4 8164   1.973   2.850   3.474
 2034SOL     OW 8165   2.034   3.119   3.416
 2034SOL    HW2 8166   2.102   3.179   3.446
 2034SOL    HW3 8167   1.954   3.149   3.459
 2034SOL    MW4 8168   2.032   3.131   3.425
 2035SOL     OW 8169   1.822   3.262   3.495
 2035SOL    HW2 8170   1.804   3.275   3.588
 2035SOL    HW3 8171   1.838   3.351   3.462
 2035SOL    MW4 8172   1.822   3.276   3.503
 2036SOL     OW 8173   1.833   3.527   3.423
 2036SOL    HW2 8174   1.768   3.579   3.468
 2036SOL    HW3 8175   1.807   3.529   3.331
 2036SOL    MW4 8176   1.821   3.534   3.417
 2037SOL     OW 8177   2.064   3.643   3.531
 2037SOL    HW2 8178   2.134   3.599   3.484
 2037SOL    HW3 8179   1.984   3.596   3.505
 2037SOL    MW4 8180   2.062   3.631   3.521
 2038SOL     OW 8181   2.008   3.872   3.369
 2038SOL    HW2 8182   1.928   3.915   3.399
 2038SOL    HW3 8183   2.025   3.804   3.434
 2038SOL    MW4 8184   2.000   3.869   3.382
 2039SOL     OW 8185   1.774   4.015   3.464
 2039SOL    HW2 8186   1.769   4.014   3.560
 2039SOL    HW3 8187   1.690   3.979   3.436
 2039SOL    MW4 8188   1.762   4.010   3.473
 2040SOL     OW 8189   1.810   4.269   3.425
 2040SOL    HW2 8190   1.803   4.174   3.422
 2040SOL    HW3 8191   1.808   4.297   3.333
 2040SOL    MW4 8192   1.809   4.260   3.412
 2041SOL     OW 8193   2.018   4.382   3.554
 2041SOL    HW2 8194   1.942   4.337   3.518
 2041SOL    HW3 8195   2.027   4.461   3.500
 2041SOL    MW4 8196   2.009   4.387   3.542
 2042SOL     OW 8197   2.479   4.652   3.411
 2042SOL    HW2 8198   2.506   4.570   3.450
 2042SOL    HW3 8199   2.459   4.630   3.320
 2042SOL    MW4 8200   2.480   4.639   3.404
 2043SOL     OW 8201   2.248   0.125   3.481
 2043SOL    HW2 8202   2.242   0.212   3.442
 2043SOL    HW3 8203   2.329   0.089   3.444
 2043SOL    MW4 8204   2.258   0.131   3.471
 2044SOL     OW 8205   2.262   0.375   3.362
 2044SOL    HW2 8206   2.331   0.411   3.418
 2044SOL    HW3 8207   2.182   0.418   3.393
 2044SOL    MW4 8208   2.261   0.386   3.373
 2045SOL     OW 8209   2.475   0.505   3.511
 2045SOL    HW2 8210   2.551   0.478   3.458
 2045SOL    HW3 8211   2.452   0.591   3.477
 2045SOL    MW4 8212   2.482   0.513   3.499
 2046SOL     OW 8213   2.428   0.759   3.392
 2046SOL    HW2 8214   2.498   0.818   3.420
 2046SOL    HW3 8215   2.438   0.753   3.297
 2046SOL    MW4 8216   2.439   0.766   3.383
 2047SOL     OW 8217   2.272   0.919   3.550
 2047SOL    HW2 8218   2.258   0.998   3.498
 2047SOL    HW3 8219   2.333   0.866   3.497
 2047SOL    MW4 8220   2.278   0.922   3.536
 2048SOL     OW 8221   2.223   1.137   3.393
 2048SOL    HW2 8222   2.295   1.194   3.419
 2048SOL    HW3 8223   2.144   1.188   3.412
 2048SOL    MW4 8224   2.222   1.151   3.399
 2049SOL     OW 8225   2.443   1.279   3.486
 2049SOL    HW2 8226   2.452   1.282   3.581
 2049SOL    HW3 8227   2.525   1.240   3.455
 2049SOL    MW4 8228   2.455   1.274   3.494
 2050SOL     OW 8229   2.391   1.555   3.426
 2050SOL    HW2 8230   2.403   1.473   3.473
 2050SOL    HW3 8231   2.423   1.538   3.338
 2050SOL    MW4 8232   2.397   1.542   3.421
 2051SOL     OW 8233   2.185   1.719   3.537
 2051SOL    HW2 8234   2.188   1.698   3.630
 2051SOL    HW3 8235   2.265   1.679   3.501
 2051SOL    MW4 8236   2.196   1.711   3.544
 2052SOL     OW 8237   2.241   1.996   3.411
 2052SOL    HW2 8238   2.208   1.916   3.453
 2052SOL    HW3 8239   2.226   1.982   3.318
 2052SOL    MW4 8240   2.234   1.983   3.405
 2053SOL     OW 8241   2.474   2.089   3.503
 2053SOL    HW2 8242   2.477   2.076   3.598
 2053SOL    HW3 8243   2.388   2.056   3.476
 2053SOL    MW4 8244   2.463   2.083   3.512
 2054SOL     OW 8245   2.442   2.338   3.402
 2054SOL    HW2 8246   2.521   2.376   3.442
 2054SOL    HW3 8247   2.448   2.245   3.421
 2054SOL    MW4 8248   2.453   2.331   3.410
 2055SOL     OW 8249   2.212   2.449   3.493
 2055SOL    HW2 8250   2.202   2.534   3.450
 2055SOL    HW3 8251   2.301   2.422   3.473
 2055SOL    MW4 8252   2.222   2.457   3.485
 2056SOL     OW 8253   2.203   2.709   3.399
 2056SOL    HW2 8254   2.122   2.760   3.402
 2056SOL    HW3 8255   2.233   2.717   3.309
 2056SOL    MW4 8256   2.196   2.717   3.387
 2057SOL     OW 8257   2.435   2.818   3.480
 2057SOL    HW2 8258   2.421   2.911   3.462
 2057SOL    HW3 8259   2.352   2.777   3.456
 2057SOL    MW4 8260   2.422   2.825   3.474
 2058SOL     OW 8261   2.444   3.080   3.393
 2058SOL    HW2 8262   2.513   3.113   3.450
 2058SOL    HW3 8263   2.481   3.084   3.305
 2058SOL    MW4 8264   2.458   3.084   3.389
 2059SOL     OW 8265   2.246   3.268   3.510
 2059SOL    HW2 8266   2.239   3.263   3.605
 2059SOL    HW3 8267   2.311   3.201   3.487
 2059SOL    MW4 8268   2.254   3.258   3.519
 2060SOL     OW 8269   2.246   3.504   3.370
 2060SOL    HW2 8270   2.271   3.416   3.398
 2060SOL    HW3 8271   2.274   3.510   3.279
 2060SOL    MW4 8272   2.253   3.493   3.362
 2061SOL     OW 8273   2.446   3.607   3.509
 2061SOL    HW2 8274   2.454   3.698   3.482
 2061SOL    HW3 8275   2.372   3.573   3.459
 2061SOL    MW4 8276   2.438   3.614   3.499
 2062SOL     OW 8277   2.423   3.887   3.391
 2062SOL    HW2 8278   2.497   3.941   3.420
 2062SOL    HW3 8279   2.349   3.920   3.441
 2062SOL    MW4 8280   2.423   3.898   3.402
 2063SOL     OW 8281   2.205   4.028   3.529
 2063SOL    HW2 8282   2.228   4.117   3.504
 2063SOL    HW3 8283   2.126   4.009   3.480
 2063SOL    MW4 8284   2.198   4.037   3.519
 2064SOL     OW 8285   2.249   4.267   3.431
 2064SOL    HW2 8286   2.164   4.303   3.455
 2064SOL    HW3 8287   2.251   4.271   3.335
 2064SOL    MW4 8288   2.238   4.272   3.421
 2065SOL     OW 8289   2.512   4.401   3.503
 2065SOL    HW2 8290   2.495   4.411   3.597
 2065SOL    HW3 8291   2.444   4.341   3.473
 2065SOL    MW4 8292   2.501   4.395   3.512
 2066SOL     OW 8293   2.932   0.025   3.399
 2066SOL    HW2 8294   2.846   0.059   3.420
 2066SOL    HW3 8295   2.933   0.017   3.304
 2066SOL    MW4 8296   2.921   0.028   3.389
 2067SOL     OW 8297   2.689   0.145   3.502
 2067SOL    HW2 8298   2.691   0.220   3.444
 2067SOL    HW3 8299   2.614   0.093   3.472
 2067SOL    MW4 8300   2.679   0.148   3.491
 2068SOL     OW 8301   2.720   0.411   3.378
 2068SOL    HW2 8302   2.801   0.455   3.405
 2068SOL    HW3 8303   2.738   0.383   3.288
 2068SOL    MW4 8304   2.733   0.413   3.369
 2069SOL     OW 8305   2.935   0.535   3.487
 2069SOL    HW2 8306   2.947   0.540   3.582
 2069SOL    HW3 8307   2.913   0.625   3.461
 2069SOL    MW4 8308   2.933   0.547   3.496
 2070SOL     OW 8309   2.904   0.775   3.354
 2070SOL    HW2 8310   2.977   0.808   3.406
 2070SOL    HW3 8311   2.828   0.824   3.385
 2070SOL    MW4 8312   2.904   0.786   3.365
 2071SOL     OW 8313   2.681   0.884   3.493
 2071SOL    HW2 8314   2.678   0.881   3.588
 2071SOL    HW3 8315   2.683   0.977   3.471
 2071SOL    MW4 8316   2.681   0.895   3.502
 2072SOL     OW 8317   2.700   1.125   3.370
 2072SOL    HW2 8318   2.767   1.188   3.398
 2072SOL    HW3 8319   2.719   1.110   3.278
 2072SOL    MW4 8320   2.711   1.132   3.362
 2073SOL     OW 8321   2.909   1.292   3.468
 2073SOL    HW2 8322   2.897   1.299   3.562
 2073SOL    HW3 8323   2.986   1.237   3.457
 2073SOL    MW4 8324   2.918   1.286   3.479
 2074SOL     OW 8325   2.920   1.560   3.418
 2074SOL    HW2 8326   2.832   1.586   3.445
 2074SOL    HW3 8327   2.920   1.465   3.424
 2074SOL    MW4 8328   2.908   1.551   3.423
 2075SOL     OW 8329   2.670   1.659   3.484
 2075SOL    HW2 8330   2.658   1.740   3.435
 2075SOL    HW3 8331   2.582   1.622   3.491
 2075SOL    MW4 8332   2.657   1.665   3.478
 2076SOL     OW 8333   2.676   1.924   3.375
 2076SOL    HW2 8334   2.600   1.973   3.407
 2076SOL    HW3 8335   2.662   1.919   3.280
 2076SOL    MW4 8336   2.664   1.930   3.367
 2077SOL     OW 8337   2.901   2.048   3.472
 2077SOL    HW2 8338   2.887   2.041   3.566
 2077SOL    HW3 8339   2.824   2.006   3.433
 2077SOL    MW4 8340   2.889   2.042   3.479
 2078SOL     OW 8341   2.914   2.335   3.381
 2078SOL    HW2 8342   2.915   2.240   3.394
 2078SOL    HW3 8343   2.919   2.346   3.286
 2078SOL    MW4 8344   2.915   2.324   3.370
 2079SOL     OW 8345   2.689   2.443   3.491
 2079SOL    HW2 8346   2.688   2.437   3.587
 2079SOL    HW3 8347   2.769   2.398   3.464
 2079SOL    MW4 8348   2.699   2.437   3.500
 2080SOL     OW 8349   2.704   2.695   3.377
 2080SOL    HW2 8350   2.703   2.609   3.418
 2080SOL    HW3 8351   2.628   2.739   3.413
 2080SOL    MW4 8352   2.694   2.689   3.387
 2081SOL     OW 8353   2.934   2.807   3.480
 2081SOL    HW2 8354   2.931   2.805   3.575
 2081SOL    HW3 8355   2.854   2.761   3.452
 2081SOL    MW4 8356   2.923   2.801   3.489
 2082SOL     OW 8357   2.915   3.101   3.441
 2082SOL    HW2 8358   2.918   3.008   3.460
 2082SOL    HW3 8359   2.917   3.107   3.346
 2082SOL    MW4 8360   2.916   3.090   3.431
 2083SOL     OW 8361   2.663   3.204   3.525
 2083SOL    HW2 8362   2.674   3.211   3.620
 2083SOL    HW3 8363   2.751   3.186   3.491
 2083SOL    MW4 8364   2.676   3.202   3.533
 2084SOL     OW 8365   2.657   3.462   3.408
 2084SOL    HW2 8366   2.660   3.374   3.447
 2084SOL    HW3 8367   2.586   3.506   3.454
 2084SOL    MW4 8368   2.648   3.456   3.419
 2085SOL     OW 8369   2.893   3.569   3.508
 2085SOL    HW2 8370   2.890   3.663   3.489
 2085SOL    HW3 8371   2.813   3.535   3.467
 2085SOL    MW4 8372   2.882   3.577   3.500
 2086SOL     OW 8373   2.896   3.852   3.421
 2086SOL    HW2 8374   2.976   3.895   3.450
 2086SOL    HW3 8375   2.825   3.909   3.451
 2086SOL    MW4 8376   2.897   3.865   3.429
 2087SOL     OW 8377   2.656   4.007   3.481
 2087SOL    HW2 8378   2.673   4.007   3.576
 2087SOL    HW3 8379   2.667   4.098   3.454
 2087SOL    MW4 8380   2.659   4.019   3.490
 2088SOL     OW 8381   2.732   4.260   3.392
 2088SOL    HW2 8382   2.810   4.303   3.430
 2088SOL    HW3 8383   2.658   4.308   3.430
 2088SOL    MW4 8384   2.733   4.272   3.402
 2089SOL     OW 8385   2.967   4.426   3.493
 2089SOL    HW2 8386   2.962   4.437   3.588
 2089SOL    HW3 8387   2.965   4.516   3.459
 2089SOL    MW4 8388   2.966   4.440   3.501
 2090SOL     OW 8389   3.404   4.648   3.412
 2090SOL    HW2 8390   3.329   4.694   3.450
 2090SOL    HW3 8391   3.387   4.646   3.318
 2090SOL    MW4 8392   3.392   4.654   3.405
 2091SOL     OW 8393   3.180   0.140   3.501
 2091SOL    HW2 8394   3.187   0.231   3.473
 2091SOL    HW3 8395   3.094   0.111   3.469
 2091SOL    MW4 8396   3.169   0.148   3.493
 2092SOL     OW 8397   3.155   0.395   3.405
 2092SOL    HW2 8398   3.075   0.441   3.429
 2092SOL    HW3 8399   3.156   0.396   3.309
 2092SOL    MW4 8400   3.145   0.402   3.395
 2093SOL     OW 8401   3.386   0.515   3.521
 2093SOL    HW2 8402   3.370   0.543   3.611
 2093SOL    HW3 8403   3.301   0.484   3.490
 2093SOL    MW4 8404   3.373   0.515   3.528
 2094SOL     OW 8405   3.384   0.754   3.380
 2094SOL    HW2 8406   3.455   0.801   3.423
 2094SOL    HW3 8407   3.385   0.667   3.418
 2094SOL    MW4 8408   3.394   0.749   3.391
 2095SOL     OW 8409   3.141   0.884   3.437
 2095SOL    HW2 8410   3.124   0.973   3.408
 2095SOL    HW3 8411   3.231   0.866   3.409
 2095SOL    MW4 8412   3.150   0.893   3.429
 2096SOL     OW 8413   3.135   1.144   3.363
 2096SOL    HW2 8414   3.205   1.180   3.418
 2096SOL    HW3 8415   3.153   1.179   3.276
 2096SOL    MW4 8416   3.147   1.153   3.359
 2097SOL     OW 8417   3.367   1.259   3.470
 2097SOL    HW2 8418   3.448   1.229   3.429
 2097SOL    HW3 8419   3.363   1.353   3.452
 2097SOL    MW4 8420   3.377   1.267   3.462
 2098SOL     OW 8421   3.391   1.525   3.419
 2098SOL    HW2 8422   3.458   1.587   3.448
 2098SOL    HW3 8423   3.309   1.574   3.424
 2098SOL    MW4 8424   3.389   1.540   3.423
 2099SOL     OW 8425   3.167   1.690   3.471
 2099SOL    HW2 8426   3.156   1.781   3.441
 2099SOL    HW3 8427   3.088   1.645   3.441
 2099SOL    MW4 8428   3.155   1.696   3.463
 2100SOL     OW 8429   3.156   1.953   3.380
 2100SOL    HW2 8430   3.066   1.981   3.400
 2100SOL    HW3 8431   3.158   1.946   3.284
 2100SOL    MW4 8432   3.144   1.956   3.370
 2101SOL     OW 8433   3.372   2.093   3.502
 2101SOL    HW2 8434   3.380   2.178   3.458
 2101SOL    HW3 8435   3.291   2.056   3.467
 2101SOL    MW4 8436   3.362   2.099   3.491
 2102SOL     OW 8437   3.337   2.335   3.369
 2102SOL    HW2 8438   3.405   2.396   3.396
 2102SOL    HW3 8439   3.258   2.366   3.414
 2102SOL    MW4 8440   3.335   2.347   3.379
 2103SOL     OW 8441   3.123   2.469   3.517
 2103SOL    HW2 8442   3.135   2.537   3.451
 2103SOL    HW3 8443   3.049   2.417   3.485
 2103SOL    MW4 8444   3.115   2.471   3.504
 2104SOL     OW 8445   3.159   2.683   3.331
 2104SOL    HW2 8446   3.236   2.729   3.366
 2104SOL    HW3 8447   3.085   2.728   3.370
 2104SOL    MW4 8448   3.160   2.695   3.341
 2105SOL     OW 8449   3.360   2.852   3.428
 2105SOL    HW2 8450   3.441   2.800   3.426
 2105SOL    HW3 8451   3.388   2.942   3.412
 2105SOL    MW4 8452   3.374   2.857   3.426
 2106SOL     OW 8453   3.424   3.117   3.389
 2106SOL    HW2 8454   3.487   3.161   3.446
 2106SOL    HW3 8455   3.339   3.135   3.428
 2106SOL    MW4 8456   3.421   3.125   3.401
 2107SOL     OW 8457   3.173   3.164   3.514
 2107SOL    HW2 8458   3.174   3.259   3.516
 2107SOL    HW3 8459   3.085   3.141   3.484
 2107SOL    MW4 8460   3.162   3.173   3.510
 2108SOL     OW 8461   3.144   3.474   3.424
 2108SOL    HW2 8462   3.058   3.503   3.453
 2108SOL    HW3 8463   3.146   3.496   3.331
 2108SOL    MW4 8464   3.133   3.480   3.416
 2109SOL     OW 8465   3.371   3.595   3.474
 2109SOL    HW2 8466   3.358   3.685   3.443
 2109SOL    HW3 8467   3.287   3.553   3.461
 2109SOL    MW4 8468   3.359   3.602   3.468
 2110SOL     OW 8469   3.350   3.873   3.405
 2110SOL    HW2 8470   3.425   3.923   3.435
 2110SOL    HW3 8471   3.275   3.915   3.446
 2110SOL    MW4 8472   3.350   3.885   3.414
 2111SOL     OW 8473   3.113   3.977   3.506
 2111SOL    HW2 8474   3.129   3.978   3.600
 2111SOL    HW3 8475   3.136   4.066   3.477
 2111SOL    MW4 8476   3.118   3.989   3.515
 2112SOL     OW 8477   3.155   4.245   3.415
 2112SOL    HW2 8478   3.231   4.293   3.448
 2112SOL    HW3 8479   3.080   4.300   3.440
 2112SOL    MW4 8480   3.155   4.259   3.423
 2113SOL     OW 8481   3.398   4.383   3.491
 2113SOL    HW2 8482   3.388   4.390   3.585
 2113SOL    HW3 8483   3.402   4.473   3.460
 2113SOL    MW4 8484   3.397   4.396   3.499
 2114SOL     OW 8485   3.870   0.008   3.403
 2114SOL    HW2 8486   3.790   0.035   3.447
 2114SOL    HW3 8487   3.848   0.004   3.311
 2114SOL    MW4 8488   3.857   0.011   3.397
 2115SOL     OW 8489   3.630   0.093   3.513
 2115SOL    HW2 8490   3.625   0.178   3.470
 2115SOL    HW3 8491   3.561   0.041   3.471
 2115SOL    MW4 8492   3.620   0.097   3.502
 2116SOL     OW 8493   3.610   0.345   3.397
 2116SOL    HW2 8494   3.690   0.374   3.442
 2116SOL    HW3 8495   3.539   0.389   3.444
 2116SOL    MW4 8496   3.612   0.355   3.410
 2117SOL     OW 8497   3.827   0.495   3.519
 2117SOL    HW2 8498   3.833   0.494   3.615
 2117SOL    HW3 8499   3.905   0.449   3.489
 2117SOL    MW4 8500   3.838   0.489   3.528
 2118SOL     OW 8501   3.808   0.773   3.385
 2118SOL    HW2 8502   3.890   0.806   3.423
 2118SOL    HW3 8503   3.796   0.687   3.426
 2118SOL    MW4 8504   3.817   0.766   3.396
 2119SOL     OW 8505   3.589   0.909   3.472
 2119SOL    HW2 8506   3.577   0.918   3.567
 2119SOL    HW3 8507   3.671   0.861   3.463
 2119SOL    MW4 8508   3.598   0.904   3.483
 2120SOL     OW 8509   3.597   1.164   3.364
 2120SOL    HW2 8510   3.596   1.071   3.388
 2120SOL    HW3 8511   3.593   1.165   3.269
 2120SOL    MW4 8512   3.597   1.152   3.355
 2121SOL     OW 8513   3.824   1.258   3.473
 2121SOL    HW2 8514   3.800   1.299   3.556
 2121SOL    HW3 8515   3.742   1.220   3.441
 2121SOL    MW4 8516   3.810   1.258   3.480
 2122SOL     OW 8517   3.825   1.505   3.366
 2122SOL    HW2 8518   3.911   1.522   3.403
 2122SOL    HW3 8519   3.804   1.415   3.393
 2122SOL    MW4 8520   3.834   1.495   3.374
 2123SOL     OW 8521   3.610   1.676   3.447
 2123SOL    HW2 8522   3.608   1.766   3.415
 2123SOL    HW3 8523   3.695   1.642   3.420
 2123SOL    MW4 8524   3.621   1.683   3.439
 2124SOL     OW 8525   3.602   1.951   3.384
 2124SOL    HW2 8526   3.675   2.006   3.413
 2124SOL    HW3 8527   3.531   1.971   3.444
 2124SOL    MW4 8528   3.602   1.961   3.395
 2125SOL     OW 8529   3.811   2.122   3.475
 2125SOL    HW2 8530   3.811   2.115   3.570
 2125SOL    HW3 8531   3.877   2.058   3.446
 2125SOL    MW4 8532   3.820   2.113   3.484
 2126SOL     OW 8533   3.798   2.370   3.358
 2126SOL    HW2 8534   3.878   2.412   3.390
 2126SOL    HW3 8535   3.801   2.282   3.397
 2126SOL    MW4 8536   3.809   2.364   3.367
 2127SOL     OW 8537   3.560   2.463   3.465
 2127SOL    HW2 8538   3.567   2.557   3.450
 2127SOL    HW3 8539   3.642   2.427   3.431
 2127SOL    MW4 8540   3.571   2.471   3.458
 2128SOL     OW 8541   3.608   2.747   3.413
 2128SOL    HW2 8542   3.684   2.786   3.458
 2128SOL    HW3 8543   3.628   2.758   3.320
 2128SOL    MW4 8544   3.621   2.754   3.407
 2129SOL     OW 8545   3.844   2.871   3.517
 2129SOL    HW2 8546   3.831   2.874   3.611
 2129SOL    HW3 8547   3.843   2.963   3.490
 2129SOL    MW4 8548   3.842   2.884   3.526
 2130SOL     OW 8549   3.829   3.124   3.419
 2130SOL    HW2 8550   3.909   3.165   3.454
 2130SOL    HW3 8551   3.835   3.138   3.325
 2130SOL    MW4 8552   3.841   3.131   3.412
 2131SOL     OW 8553   3.619   3.255   3.536
 2131SOL    HW2 8554   3.619   3.338   3.489
 2131SOL    HW3 8555   3.698   3.210   3.506
 2131SOL    MW4 8556   3.629   3.260   3.526
 2132SOL     OW 8557   3.604   3.476   3.375
 2132SOL    HW2 8558   3.519   3.516   3.395
 2132SOL    HW3 8559   3.605   3.471   3.279
 2132SOL    MW4 8560   3.593   3.481   3.365
 2133SOL     OW 8561   3.825   3.660   3.432
 2133SOL    HW2 8562   3.846   3.669   3.525
 2133SOL    HW3 8563   3.742   3.613   3.431
 2133SOL    MW4 8564   3.817   3.655   3.444
 2134SOL     OW 8565   3.767   3.904   3.364
 2134SOL    HW2 8566   3.699   3.940   3.420
 2134SOL    HW3 8567   3.771   3.811   3.387
 2134SOL    MW4 8568   3.758   3.896   3.374
 2135SOL     OW 8569   3.554   4.033   3.497
 2135SOL    HW2 8570   3.572   4.047   3.590
 2135SOL    HW3 8571   3.573   4.118   3.456
 2135SOL    MW4 8572   3.559   4.046   3.504
 2136SOL     OW 8573   3.659   4.280   3.407
 2136SOL    HW2 8574   3.581   4.331   3.428
 2136SOL    HW3 8575   3.654   4.266   3.313
 2136SOL    MW4 8576   3.648   4.285   3.398
 2137SOL     OW 8577   3.825   4.431   3.549
 2137SOL    HW2 8578   3.756   4.391   3.497
 2137SOL    HW3 8579   3.854   4.506   3.497
 2137SOL    MW4 8580   3.820   4.436   3.535
 2138SOL     OW 8581   4.331   0.005   3.426
 2138SOL    HW2 8582   4.330  -0.084   3.463
 2138SOL    HW3 8583   4.395   0.052   3.479
 2138SOL    MW4 8584   4.339  -0.001   3.438
 2139SOL     OW 8585   4.090   0.128   3.512
 2139SOL    HW2 8586   4.169   0.083   3.482
 2139SOL    HW3 8587   4.019   0.090   3.459
 2139SOL    MW4 8588   4.091   0.117   3.501
 2140SOL     OW 8589   4.048   0.384   3.406
 2140SOL    HW2 8590   4.075   0.297   3.436
 2140SOL    HW3 8591   4.029   0.372   3.313
 2140SOL    MW4 8592   4.049   0.371   3.398
 2141SOL     OW 8593   4.280   0.502   3.500
 2141SOL    HW2 8594   4.273   0.593   3.472
 2141SOL    HW3 8595   4.205   0.459   3.459
 2141SOL    MW4 8596   4.269   0.508   3.491
 2142SOL     OW 8597   4.248   0.754   3.406
 2142SOL    HW2 8598   4.335   0.782   3.433
 2142SOL    HW3 8599   4.247   0.766   3.311
 2142SOL    MW4 8600   4.259   0.759   3.397
 2143SOL     OW 8601   4.031   0.871   3.530
 2143SOL    HW2 8602   4.049   0.956   3.489
 2143SOL    HW3 8603   4.097   0.813   3.493
 2143SOL    MW4 8604   4.042   0.875   3.519
 2144SOL     OW 8605   4.042   1.104   3.390
 2144SOL    HW2 8606   4.107   1.163   3.429
 2144SOL    HW3 8607   3.958   1.140   3.418
 2144SOL    MW4 8608   4.039   1.117   3.399
 2145SOL     OW 8609   4.248   1.258   3.521
 2145SOL    HW2 8610   4.247   1.343   3.477
 2145SOL    HW3 8611   4.323   1.212   3.484
 2145SOL    MW4 8612   4.257   1.264   3.510
 2146SOL     OW 8613   4.253   1.491   3.391
 2146SOL    HW2 8614   4.177   1.539   3.422
 2146SOL    HW3 8615   4.251   1.501   3.296
 2146SOL    MW4 8616   4.243   1.499   3.383
 2147SOL     OW 8617   4.040   1.652   3.475
 2147SOL    HW2 8618   4.040   1.661   3.570
 2147SOL    HW3 8619   4.018   1.739   3.442
 2147SOL    MW4 8620   4.037   1.665   3.483
 2148SOL     OW 8621   4.001   1.908   3.400
 2148SOL    HW2 8622   4.081   1.946   3.436
 2148SOL    HW3 8623   4.015   1.910   3.305
 2148SOL    MW4 8624   4.014   1.913   3.392
 2149SOL     OW 8625   4.231   2.035   3.481
 2149SOL    HW2 8626   4.247   2.124   3.450
 2149SOL    HW3 8627   4.309   1.986   3.455
 2149SOL    MW4 8628   4.243   2.040   3.474
 2150SOL     OW 8629   4.267   2.294   3.352
 2150SOL    HW2 8630   4.209   2.367   3.376
 2150SOL    HW3 8631   4.258   2.286   3.257
 2150SOL    MW4 8632   4.258   2.303   3.343
 2151SOL     OW 8633   4.030   2.493   3.447
 2151SOL    HW2 8634   4.010   2.484   3.540
 2151SOL    HW3 8635   4.034   2.588   3.433
 2151SOL    MW4 8636   4.028   2.505   3.458
 2152SOL     OW 8637   4.050   2.766   3.368
 2152SOL    HW2 8638   4.132   2.812   3.385
 2152SOL    HW3 8639   3.986   2.808   3.426
 2152SOL    MW4 8640   4.052   2.778   3.378
 2153SOL     OW 8641   4.294   2.859   3.472
 2153SOL    HW2 8642   4.284   2.848   3.567
 2153SOL    HW3 8643   4.373   2.810   3.450
 2153SOL    MW4 8644   4.303   2.851   3.482
 2154SOL     OW 8645   4.312   3.113   3.372
 2154SOL    HW2 8646   4.312   3.022   3.402
 2154SOL    HW3 8647   4.290   3.108   3.279
 2154SOL    MW4 8648   4.309   3.100   3.364
 2155SOL     OW 8649   4.046   3.256   3.497
 2155SOL    HW2 8650   4.041   3.348   3.474
 2155SOL    HW3 8651   4.123   3.223   3.451
 2155SOL    MW4 8652   4.055   3.264   3.488
 2156SOL     OW 8653   4.045   3.506   3.333
 2156SOL    HW2 8654   4.127   3.551   3.354
 2156SOL    HW3 8655   3.977   3.560   3.374
 2156SOL    MW4 8656   4.047   3.519   3.341
 2157SOL     OW 8657   4.258   3.624   3.452
 2157SOL    HW2 8658   4.258   3.629   3.547
 2157SOL    HW3 8659   4.244   3.714   3.423
 2157SOL    MW4 8660   4.256   3.637   3.461
 2158SOL     OW 8661   4.237   3.879   3.370
 2158SOL    HW2 8662   4.321   3.911   3.403
 2158SOL    HW3 8663   4.240   3.895   3.276
 2158SOL    MW4 8664   4.249   3.885   3.362
 2159SOL     OW 8665   4.010   4.007   3.479
 2159SOL    HW2 8666   4.086   3.963   3.442
 2159SOL    HW3 8667   3.934   3.962   3.441
 2159SOL    MW4 8668   4.010   3.996   3.469
 2160SOL     OW 8669   4.000   4.273   3.372
 2160SOL    HW2 8670   4.003   4.190   3.418
 2160SOL    HW3 8671   3.940   4.327   3.422
 2160SOL    MW4 8672   3.993   4.269   3.384
 2161SOL     OW 8673   4.252   4.388   3.487
 2161SOL    HW2 8674   4.248   4.388   3.582
 2161SOL    HW3 8675   4.167   4.355   3.459
 2161SOL    MW4 8676   4.240   4.384   3.496
 2162SOL     OW 8677   0.221   4.589   3.881
 2162SOL    HW2 8678   0.216   4.604   3.975
 2162SOL    HW3 8679   0.152   4.645   3.844
 2162SOL    MW4 8680   0.211   4.598   3.888
 2163SOL     OW 8681   0.015   0.113   3.797
 2163SOL    HW2 8682   0.020   0.194   3.849
 2163SOL    HW3 8683   0.046   0.139   3.710
 2163SOL    MW4 8684   0.020   0.127   3.793
 2164SOL     OW 8685   0.042   0.368   3.910
 2164SOL    HW2 8686  -0.037   0.419   3.890
 2164SOL    HW3 8687   0.112   0.411   3.860
 2164SOL    MW4 8688   0.041   0.380   3.901
 2165SOL     OW 8689   0.259   0.495   3.811
 2165SOL    HW2 8690   0.269   0.584   3.844
 2165SOL    HW3 8691   0.273   0.503   3.717
 2165SOL    MW4 8692   0.262   0.508   3.803
 2166SOL     OW 8693   0.260   0.775   3.900
 2166SOL    HW2 8694   0.251   0.786   3.994
 2166SOL    HW3 8695   0.183   0.819   3.863
 2166SOL    MW4 8696   0.249   0.782   3.907
 2167SOL     OW 8697   0.029   0.864   3.758
 2167SOL    HW2 8698  -0.053   0.832   3.795
 2167SOL    HW3 8699   0.031   0.957   3.782
 2167SOL    MW4 8700   0.019   0.872   3.766
 2168SOL     OW 8701   0.002   1.124   3.864
 2168SOL    HW2 8702  -0.078   1.173   3.843
 2168SOL    HW3 8703   0.070   1.191   3.868
 2168SOL    MW4 8704   0.000   1.140   3.861
 2169SOL     OW 8705   0.186   1.300   3.775
 2169SOL    HW2 8706   0.192   1.396   3.778
 2169SOL    HW3 8707   0.180   1.279   3.682
 2169SOL    MW4 8708   0.186   1.310   3.763
 2170SOL     OW 8709   0.191   1.570   3.819
 2170SOL    HW2 8710   0.202   1.573   3.914
 2170SOL    HW3 8711   0.113   1.622   3.801
 2170SOL    MW4 8712   0.182   1.577   3.829
 2171SOL     OW 8713   4.440   1.677   3.758
 2171SOL    HW2 8714   4.462   1.764   3.790
 2171SOL    HW3 8715   4.429   1.687   3.664
 2171SOL    MW4 8716   4.442   1.690   3.750
 2172SOL     OW 8717   4.465   1.930   3.818
 2172SOL    HW2 8718   4.460   1.936   3.913
 2172SOL    HW3 8719   4.382   1.967   3.787
 2172SOL    MW4 8720   4.453   1.935   3.827
 2173SOL     OW 8721   0.195   2.074   3.735
 2173SOL    HW2 8722   0.179   2.167   3.751
 2173SOL    HW3 8723   0.125   2.029   3.782
 2173SOL    MW4 8724   0.184   2.080   3.743
 2174SOL     OW 8725   0.226   2.349   3.798
 2174SOL    HW2 8726   0.227   2.357   3.893
 2174SOL    HW3 8727   0.139   2.377   3.772
 2174SOL    MW4 8728   0.215   2.354   3.807
 2175SOL     OW 8729   4.476   2.437   3.732
 2175SOL    HW2 8730   4.388   2.414   3.760
 2175SOL    HW3 8731   4.487   2.528   3.759
 2175SOL    MW4 8732   4.466   2.446   3.739
 2176SOL     OW 8733   0.019   2.692   3.806
 2176SOL    HW2 8734  -0.002   2.704   3.899
 2176SOL    HW3 8735   0.097   2.744   3.792
 2176SOL    MW4 8736   0.026   2.700   3.816
 2177SOL     OW 8737   0.235   2.890   3.762
 2177SOL    HW2 8738   0.312   2.842   3.792
 2177SOL    HW3 8739   0.235   2.878   3.667
 2177SOL    MW4 8740   0.245   2.882   3.754
 2178SOL     OW 8741   0.253   3.140   3.875
 2178SOL    HW2 8742   0.248   3.128   3.970
 2178SOL    HW3 8743   0.237   3.053   3.839
 2178SOL    MW4 8744   0.250   3.127   3.883
 2179SOL     OW 8745   0.018   3.252   3.769
 2179SOL    HW2 8746   0.102   3.225   3.804
 2179SOL    HW3 8747   0.033   3.261   3.675
 2179SOL    MW4 8748   0.031   3.250   3.761
 2180SOL     OW 8749   4.482   3.513   3.838
 2180SOL    HW2 8750   4.564   3.551   3.805
 2180SOL    HW3 8751   4.492   3.419   3.821
 2180SOL    MW4 8752   4.494   3.506   3.831
 2181SOL     OW 8753   0.252   3.628   3.757
 2181SOL    HW2 8754   0.326   3.579   3.793
 2181SOL    HW3 8755   0.252   3.711   3.806
 2181SOL    MW4 8756   0.262   3.633   3.768
 2182SOL     OW 8757   0.235   3.868   3.880
 2182SOL    HW2 8758   0.258   3.886   3.971
 2182SOL    HW3 8759   0.293   3.924   3.829
 2182SOL    MW4 8760   0.245   3.878   3.885
 2183SOL     OW 8761   4.477   3.999   3.781
 2183SOL    HW2 8762   4.395   3.960   3.811
 2183SOL    HW3 8763   4.545   3.947   3.824
 2183SOL    MW4 8764   4.475   3.987   3.791
 2184SOL     OW 8765   4.468   4.266   3.844
 2184SOL    HW2 8766   4.559   4.285   3.819
 2184SOL    HW3 8767   4.459   4.172   3.831
 2184SOL    MW4 8768   4.479   4.256   3.839
 2185SOL     OW 8769   0.223   4.344   3.771
 2185SOL    HW2 8770   0.298   4.294   3.806
 2185SOL    HW3 8771   0.235   4.432   3.806
 2185SOL    MW4 8772   0.235   4.349   3.780
 2186SOL     OW 8773   0.668   4.631   3.895
 2186SOL    HW2 8774   0.655   4.543   3.861
 2186SOL    HW3 8775   0.593   4.681   3.864
 2186SOL    MW4 8776   0.656   4.626   3.887
 2187SOL     OW 8777   0.430   0.069   3.792
 2187SOL    HW2 8778   0.424   0.136   3.859
 2187SOL    HW3 8779   0.377  -0.004   3.825
 2187SOL    MW4 8780   0.422   0.068   3.805
 2188SOL     OW 8781   0.461   0.330   3.907
 2188SOL    HW2 8782   0.534   0.373   3.863
 2188SOL    HW3 8783   0.383   0.377   3.878
 2188SOL    MW4 8784   0.460   0.342   3.898
 2189SOL     OW 8785   0.653   0.500   3.769
 2189SOL    HW2 8786   0.735   0.462   3.800
 2189SOL    HW3 8787   0.660   0.593   3.787
 2189SOL    MW4 8788   0.664   0.507   3.775
 2190SOL     OW 8789   0.640   0.758   3.835
 2190SOL    HW2 8790   0.717   0.808   3.808
 2190SOL    HW3 8791   0.567   0.818   3.822
 2190SOL    MW4 8792   0.640   0.772   3.829
 2191SOL     OW 8793   0.443   0.932   3.797
 2191SOL    HW2 8794   0.433   1.015   3.843
 2191SOL    HW3 8795   0.373   0.876   3.832
 2191SOL    MW4 8796   0.432   0.935   3.807
 2192SOL     OW 8797   0.424   1.193   3.885
 2192SOL    HW2 8798   0.486   1.236   3.826
 2192SOL    HW3 8799   0.338   1.222   3.854
 2192SOL    MW4 8800   0.421   1.203   3.873
 2193SOL     OW 8801   0.661   1.306   3.793
 2193SOL    HW2 8802   0.749   1.280   3.822
 2193SOL    HW3 8803   0.661   1.288   3.699
 2193SOL    MW4 8804   0.673   1.300   3.785
 2194SOL     OW 8805   0.635   1.576   3.842
 2194SOL    HW2 8806   0.719   1.614   3.814
 2194SOL    HW3 8807   0.645   1.482   3.826
 2194SOL    MW4 8808   0.647   1.569   3.836
 2195SOL     OW 8809   0.416   1.713   3.752
 2195SOL    HW2 8810   0.486   1.667   3.797
 2195SOL    HW3 8811   0.336   1.670   3.781
 2195SOL    MW4 8812   0.414   1.701   3.761
 2196SOL     OW 8813   0.417   1.955   3.864
 2196SOL    HW2 8814   0.414   1.874   3.813
 2196SOL    HW3 8815   0.353   2.013   3.821
 2196SOL    MW4 8816   0.408   1.952   3.852
 2197SOL     OW 8817   0.637   2.057   3.765
 2197SOL    HW2 8818   0.639   2.148   3.792
 2197SOL    HW3 8819   0.560   2.020   3.809
 2197SOL    MW4 8820   0.627   2.064   3.774
 2198SOL     OW 8821   0.649   2.334   3.829
 2198SOL    HW2 8822   0.724   2.375   3.788
 2198SOL    HW3 8823   0.573   2.381   3.795
 2198SOL    MW4 8824   0.649   2.346   3.819
 2199SOL     OW 8825   0.446   2.494   3.699
 2199SOL    HW2 8826   0.360   2.455   3.718
 2199SOL    HW3 8827   0.465   2.466   3.609
 2199SOL    MW4 8828   0.437   2.485   3.689
 2200SOL     OW 8829   0.457   2.728   3.848
 2200SOL    HW2 8830   0.533   2.765   3.802
 2200SOL    HW3 8831   0.442   2.643   3.806
 2200SOL    MW4 8832   0.465   2.722   3.836
 2201SOL     OW 8833   0.705   2.816   3.708
 2201SOL    HW2 8834   0.786   2.776   3.742
 2201SOL    HW3 8835   0.717   2.818   3.613
 2201SOL    MW4 8836   0.717   2.811   3.700
 2202SOL     OW 8837   0.662   3.074   3.829
 2202SOL    HW2 8838   0.660   3.071   3.925
 2202SOL    HW3 8839   0.673   2.983   3.802
 2202SOL    MW4 8840   0.663   3.062   3.839
 2203SOL     OW 8841   0.469   3.245   3.744
 2203SOL    HW2 8842   0.541   3.187   3.769
 2203SOL    HW3 8843   0.392   3.208   3.786
 2203SOL    MW4 8844   0.468   3.233   3.753
 2204SOL     OW 8845   0.469   3.495   3.859
 2204SOL    HW2 8846   0.537   3.537   3.806
 2204SOL    HW3 8847   0.459   3.408   3.820
 2204SOL    MW4 8848   0.477   3.489   3.847
 2205SOL     OW 8849   0.719   3.629   3.738
 2205SOL    HW2 8850   0.739   3.719   3.764
 2205SOL    HW3 8851   0.700   3.635   3.645
 2205SOL    MW4 8852   0.719   3.642   3.729
 2206SOL     OW 8853   0.707   3.886   3.850
 2206SOL    HW2 8854   0.705   3.868   3.944
 2206SOL    HW3 8855   0.780   3.947   3.839
 2206SOL    MW4 8856   0.717   3.892   3.861
 2207SOL     OW 8857   0.455   4.005   3.778
 2207SOL    HW2 8858   0.530   3.949   3.797
 2207SOL    HW3 8859   0.450   4.006   3.682
 2207SOL    MW4 8860   0.464   3.997   3.768
 2208SOL     OW 8861   0.433   4.259   3.920
 2208SOL    HW2 8862   0.501   4.311   3.879
 2208SOL    HW3 8863   0.445   4.170   3.885
 2208SOL    MW4 8864   0.443   4.254   3.910
 2209SOL     OW 8865   0.618   4.387   3.786
 2209SOL    HW2 8866   0.708   4.356   3.801
 2209SOL    HW3 8867   0.613   4.401   3.691
 2209SOL    MW4 8868   0.630   4.385   3.775
 2210SOL     OW 8869   1.142   0.014   3.883
 2210SOL    HW2 8870   1.220   0.058   3.850
 2210SOL    HW3 8871   1.155  -0.078   3.860
 2210SOL    MW4 8872   1.154   0.008   3.876
 2211SOL     OW 8873   0.901   0.099   3.796
 2211SOL    HW2 8874   0.988   0.070   3.823
 2211SOL    HW3 8875   0.840   0.051   3.853
 2211SOL    MW4 8876   0.904   0.089   3.807
 2212SOL     OW 8877   0.903   0.384   3.867
 2212SOL    HW2 8878   0.906   0.390   3.963
 2212SOL    HW3 8879   0.897   0.290   3.850
 2212SOL    MW4 8880   0.903   0.372   3.878
 2213SOL     OW 8881   1.120   0.531   3.786
 2213SOL    HW2 8882   1.198   0.480   3.807
 2213SOL    HW3 8883   1.047   0.480   3.822
 2213SOL    MW4 8884   1.120   0.518   3.794
 2214SOL     OW 8885   1.094   0.784   3.855
 2214SOL    HW2 8886   1.106   0.770   3.949
 2214SOL    HW3 8887   1.088   0.696   3.818
 2214SOL    MW4 8888   1.095   0.771   3.863
 2215SOL     OW 8889   0.872   0.930   3.754
 2215SOL    HW2 8890   0.942   0.877   3.790
 2215SOL    HW3 8891   0.885   0.927   3.659
 2215SOL    MW4 8892   0.883   0.923   3.746
 2216SOL     OW 8893   0.908   1.190   3.862
 2216SOL    HW2 8894   0.903   1.175   3.957
 2216SOL    HW3 8895   0.903   1.103   3.824
 2216SOL    MW4 8896   0.907   1.177   3.870
 2217SOL     OW 8897   1.149   1.303   3.771
 2217SOL    HW2 8898   1.145   1.395   3.797
 2217SOL    HW3 8899   1.078   1.261   3.821
 2217SOL    MW4 8900   1.139   1.310   3.781
 2218SOL     OW 8901   1.122   1.574   3.830
 2218SOL    HW2 8902   1.133   1.547   3.921
 2218SOL    HW3 8903   1.209   1.603   3.803
 2218SOL    MW4 8904   1.135   1.574   3.838
 2219SOL     OW 8905   0.880   1.675   3.767
 2219SOL    HW2 8906   0.958   1.626   3.795
 2219SOL    HW3 8907   0.886   1.675   3.672
 2219SOL    MW4 8908   0.891   1.668   3.758
 2220SOL     OW 8909   0.887   1.946   3.850
 2220SOL    HW2 8910   0.876   1.855   3.821
 2220SOL    HW3 8911   0.807   1.990   3.822
 2220SOL    MW4 8912   0.875   1.939   3.842
 2221SOL     OW 8913   1.147   2.042   3.748
 2221SOL    HW2 8914   1.060   2.018   3.781
 2221SOL    HW3 8915   1.136   2.047   3.653
 2221SOL    MW4 8916   1.134   2.040   3.740
 2222SOL     OW 8917   1.124   2.317   3.820
 2222SOL    HW2 8918   1.092   2.315   3.910
 2222SOL    HW3 8919   1.136   2.224   3.797
 2222SOL    MW4 8920   1.122   2.304   3.829
 2223SOL     OW 8921   0.888   2.463   3.742
 2223SOL    HW2 8922   0.909   2.546   3.786
 2223SOL    HW3 8923   0.959   2.404   3.767
 2223SOL    MW4 8924   0.900   2.466   3.751
 2224SOL     OW 8925   0.914   2.719   3.843
 2224SOL    HW2 8926   0.915   2.728   3.938
 2224SOL    HW3 8927   0.998   2.756   3.814
 2224SOL    MW4 8928   0.926   2.725   3.852
 2225SOL     OW 8929   1.143   2.847   3.750
 2225SOL    HW2 8930   1.232   2.820   3.770
 2225SOL    HW3 8931   1.136   2.937   3.784
 2225SOL    MW4 8932   1.154   2.856   3.757
 2226SOL     OW 8933   1.123   3.118   3.840
 2226SOL    HW2 8934   1.200   3.157   3.799
 2226SOL    HW3 8935   1.049   3.162   3.799
 2226SOL    MW4 8936   1.124   3.129   3.829
 2227SOL     OW 8937   0.879   3.212   3.743
 2227SOL    HW2 8938   0.805   3.159   3.772
 2227SOL    HW3 8939   0.868   3.218   3.648
 2227SOL    MW4 8940   0.868   3.206   3.734
 2228SOL     OW 8941   0.920   3.476   3.824
 2228SOL    HW2 8942   0.915   3.385   3.794
 2228SOL    HW3 8943   0.836   3.514   3.799
 2228SOL    MW4 8944   0.909   3.469   3.817
 2229SOL     OW 8945   1.137   3.661   3.743
 2229SOL    HW2 8946   1.116   3.745   3.784
 2229SOL    HW3 8947   1.059   3.608   3.758
 2229SOL    MW4 8948   1.124   3.665   3.751
 2230SOL     OW 8949   1.119   3.899   3.893
 2230SOL    HW2 8950   1.113   3.886   3.988
 2230SOL    HW3 8951   1.205   3.939   3.880
 2230SOL    MW4 8952   1.130   3.903   3.904
 2231SOL     OW 8953   0.908   4.068   3.789
 2231SOL    HW2 8954   0.988   4.023   3.817
 2231SOL    HW3 8955   0.912   4.068   3.694
 2231SOL    MW4 8956   0.919   4.062   3.780
 2232SOL     OW 8957   0.886   4.323   3.860
 2232SOL    HW2 8958   0.892   4.312   3.955
 2232SOL    HW3 8959   0.887   4.234   3.825
 2232SOL    MW4 8960   0.887   4.310   3.868
 2233SOL     OW 8961   1.151   4.405   3.791
 2233SOL    HW2 8962   1.066   4.369   3.815
 2233SOL    HW3 8963   1.149   4.410   3.696
 2233SOL    MW4 8964   1.140   4.401   3.782
 2234SOL     OW 8965   1.564   4.663   3.872
 2234SOL    HW2 8966   1.569   4.644   3.966
 2234SOL    HW3 8967   1.577   4.578   3.830
 2234SOL    MW4 8968   1.567   4.649   3.879
 2235SOL     OW 8969   1.381   0.148   3.758
 2235SOL    HW2 8970   1.388   0.232   3.803
 2235SOL    HW3 8971   1.454   0.096   3.791
 2235SOL    MW4 8972   1.391   0.152   3.768
 2236SOL     OW 8973   1.346   0.395   3.872
 2236SOL    HW2 8974   1.349   0.403   3.968
 2236SOL    HW3 8975   1.427   0.437   3.842
 2236SOL    MW4 8976   1.357   0.402   3.881
 2237SOL     OW 8977   1.573   0.513   3.775
 2237SOL    HW2 8978   1.646   0.462   3.810
 2237SOL    HW3 8979   1.564   0.586   3.836
 2237SOL    MW4 8980   1.581   0.516   3.788
 2238SOL     OW 8981   1.558   0.771   3.896
 2238SOL    HW2 8982   1.633   0.804   3.848
 2238SOL    HW3 8983   1.482   0.805   3.849
 2238SOL    MW4 8984   1.558   0.779   3.883
 2239SOL     OW 8985   1.316   0.879   3.754
 2239SOL    HW2 8986   1.332   0.963   3.798
 2239SOL    HW3 8987   1.237   0.845   3.794
 2239SOL    MW4 8988   1.308   0.886   3.765
 2240SOL     OW 8989   1.360   1.143   3.851
 2240SOL    HW2 8990   1.448   1.157   3.817
 2240SOL    HW3 8991   1.308   1.214   3.813
 2240SOL    MW4 8992   1.365   1.154   3.842
 2241SOL     OW 8993   1.608   1.240   3.755
 2241SOL    HW2 8994   1.692   1.217   3.796
 2241SOL    HW3 8995   1.598   1.334   3.772
 2241SOL    MW4 8996   1.618   1.249   3.763
 2242SOL     OW 8997   1.594   1.501   3.834
 2242SOL    HW2 8998   1.583   1.518   3.928
 2242SOL    HW3 8999   1.662   1.562   3.807
 2242SOL    MW4 9000   1.602   1.511   3.843
 2243SOL     OW 9001   1.365   1.638   3.737
 2243SOL    HW2 9002   1.390   1.716   3.786
 2243SOL    HW3 9003   1.437   1.577   3.752
 2243SOL    MW4 9004   1.378   1.640   3.745
 2244SOL     OW 9005   1.405   1.901   3.829
 2244SOL    HW2 9006   1.373   1.878   3.916
 2244SOL    HW3 9007   1.336   1.957   3.792
 2244SOL    MW4 9008   1.391   1.906   3.835
 2245SOL     OW 9009   1.615   2.059   3.767
 2245SOL    HW2 9010   1.540   2.005   3.794
 2245SOL    HW3 9011   1.604   2.070   3.673
 2245SOL    MW4 9012   1.603   2.053   3.758
 2246SOL     OW 9013   1.602   2.318   3.853
 2246SOL    HW2 9014   1.686   2.355   3.825
 2246SOL    HW3 9015   1.611   2.224   3.835
 2246SOL    MW4 9016   1.614   2.310   3.847
 2247SOL     OW 9017   1.388   2.466   3.768
 2247SOL    HW2 9018   1.460   2.408   3.795
 2247SOL    HW3 9019   1.311   2.430   3.810
 2247SOL    MW4 9020   1.388   2.454   3.777
 2248SOL     OW 9021   1.374   2.735   3.842
 2248SOL    HW2 9022   1.365   2.733   3.938
 2248SOL    HW3 9023   1.387   2.643   3.817
 2248SOL    MW4 9024   1.375   2.723   3.852
 2249SOL     OW 9025   1.588   2.872   3.738
 2249SOL    HW2 9026   1.526   2.825   3.794
 2249SOL    HW3 9027   1.547   2.871   3.651
 2249SOL    MW4 9028   1.574   2.866   3.734
 2250SOL     OW 9029   1.566   3.111   3.894
 2250SOL    HW2 9030   1.594   3.077   3.979
 2250SOL    HW3 9031   1.583   3.038   3.833
 2250SOL    MW4 9032   1.572   3.097   3.897
 2251SOL     OW 9033   1.356   3.261   3.789
 2251SOL    HW2 9034   1.334   3.340   3.838
 2251SOL    HW3 9035   1.420   3.216   3.845
 2251SOL    MW4 9036   1.362   3.265   3.803
 2252SOL     OW 9037   1.322   3.511   3.894
 2252SOL    HW2 9038   1.401   3.557   3.865
 2252SOL    HW3 9039   1.251   3.550   3.843
 2252SOL    MW4 9040   1.323   3.522   3.883
 2253SOL     OW 9041   1.556   3.608   3.789
 2253SOL    HW2 9042   1.636   3.565   3.817
 2253SOL    HW3 9043   1.560   3.695   3.829
 2253SOL    MW4 9044   1.567   3.614   3.798
 2254SOL     OW 9045   1.569   3.871   3.885
 2254SOL    HW2 9046   1.561   3.855   3.979
 2254SOL    HW3 9047   1.496   3.929   3.864
 2254SOL    MW4 9048   1.558   3.876   3.895
 2255SOL     OW 9049   1.350   4.013   3.778
 2255SOL    HW2 9050   1.357   4.103   3.811
 2255SOL    HW3 9051   1.321   4.023   3.688
 2255SOL    MW4 9052   1.347   4.026   3.771
 2256SOL     OW 9053   1.360   4.269   3.899
 2256SOL    HW2 9054   1.446   4.305   3.876
 2256SOL    HW3 9055   1.298   4.322   3.849
 2256SOL    MW4 9056   1.363   4.281   3.889
 2257SOL     OW 9057   1.590   4.398   3.798
 2257SOL    HW2 9058   1.666   4.342   3.817
 2257SOL    HW3 9059   1.581   4.395   3.703
 2257SOL    MW4 9060   1.599   4.390   3.788
 2258SOL     OW 9061   2.005   4.666   3.876
 2258SOL    HW2 9062   2.091   4.686   3.840
 2258SOL    HW3 9063   1.996   4.571   3.866
 2258SOL    MW4 9064   2.015   4.656   3.870
 2259SOL     OW 9065   1.780   0.136   3.767
 2259SOL    HW2 9066   1.863   0.092   3.785
 2259SOL    HW3 9067   1.714   0.085   3.815
 2259SOL    MW4 9068   1.782   0.124   3.776
 2260SOL     OW 9069   1.811   0.398   3.875
 2260SOL    HW2 9070   1.808   0.391   3.971
 2260SOL    HW3 9071   1.816   0.308   3.844
 2260SOL    MW4 9072   1.811   0.385   3.884
 2261SOL     OW 9073   2.067   0.480   3.781
 2261SOL    HW2 9074   1.981   0.461   3.817
 2261SOL    HW3 9075   2.054   0.482   3.686
 2261SOL    MW4 9076   2.054   0.478   3.773
 2262SOL     OW 9077   1.997   0.735   3.843
 2262SOL    HW2 9078   2.011   0.719   3.936
 2262SOL    HW3 9079   2.044   0.664   3.799
 2262SOL    MW4 9080   2.005   0.724   3.849
 2263SOL     OW 9081   1.775   0.887   3.767
 2263SOL    HW2 9082   1.849   0.827   3.780
 2263SOL    HW3 9083   1.795   0.932   3.685
 2263SOL    MW4 9084   1.787   0.885   3.758
 2264SOL     OW 9085   1.834   1.136   3.899
 2264SOL    HW2 9086   1.811   1.123   3.991
 2264SOL    HW3 9087   1.814   1.053   3.857
 2264SOL    MW4 9088   1.829   1.124   3.905
 2265SOL     OW 9089   2.074   1.284   3.773
 2265SOL    HW2 9090   2.154   1.235   3.792
 2265SOL    HW3 9091   2.003   1.224   3.796
 2265SOL    MW4 9092   2.075   1.270   3.778
 2266SOL     OW 9093   2.021   1.505   3.925
 2266SOL    HW2 9094   1.950   1.548   3.877
 2266SOL    HW3 9095   2.028   1.419   3.885
 2266SOL    MW4 9096   2.012   1.500   3.913
 2267SOL     OW 9097   1.812   1.658   3.770
 2267SOL    HW2 9098   1.804   1.743   3.814
 2267SOL    HW3 9099   1.812   1.680   3.677
 2267SOL    MW4 9100   1.811   1.672   3.764
 2268SOL     OW 9101   1.827   1.910   3.844
 2268SOL    HW2 9102   1.819   1.896   3.939
 2268SOL    HW3 9103   1.750   1.962   3.821
 2268SOL    MW4 9104   1.815   1.915   3.854
 2269SOL     OW 9105   2.022   2.105   3.782
 2269SOL    HW2 9106   1.951   2.043   3.800
 2269SOL    HW3 9107   2.015   2.121   3.688
 2269SOL    MW4 9108   2.012   2.099   3.772
 2270SOL     OW 9109   2.062   2.332   3.929
 2270SOL    HW2 9110   1.990   2.389   3.901
 2270SOL    HW3 9111   2.040   2.247   3.892
 2270SOL    MW4 9112   2.049   2.329   3.920
 2271SOL     OW 9113   1.846   2.410   3.776
 2271SOL    HW2 9114   1.834   2.503   3.790
 2271SOL    HW3 9115   1.865   2.402   3.682
 2271SOL    MW4 9116   1.847   2.421   3.765
 2272SOL     OW 9117   1.784   2.664   3.846
 2272SOL    HW2 9118   1.783   2.664   3.942
 2272SOL    HW3 9119   1.713   2.724   3.822
 2272SOL    MW4 9120   1.774   2.672   3.856
 2273SOL     OW 9121   2.024   2.829   3.735
 2273SOL    HW2 9122   2.100   2.783   3.769
 2273SOL    HW3 9123   1.949   2.783   3.771
 2273SOL    MW4 9124   2.024   2.817   3.744
 2274SOL     OW 9125   2.013   3.129   3.822
 2274SOL    HW2 9126   2.022   3.043   3.782
 2274SOL    HW3 9127   2.101   3.166   3.821
 2274SOL    MW4 9128   2.026   3.123   3.817
 2275SOL     OW 9129   1.784   3.272   3.770
 2275SOL    HW2 9130   1.861   3.219   3.787
 2275SOL    HW3 9131   1.718   3.240   3.832
 2275SOL    MW4 9132   1.785   3.261   3.781
 2276SOL     OW 9133   1.801   3.522   3.893
 2276SOL    HW2 9134   1.873   3.572   3.855
 2276SOL    HW3 9135   1.804   3.437   3.849
 2276SOL    MW4 9136   1.811   3.518   3.882
 2277SOL     OW 9137   2.032   3.627   3.804
 2277SOL    HW2 9138   2.105   3.581   3.847
 2277SOL    HW3 9139   2.053   3.623   3.711
 2277SOL    MW4 9140   2.045   3.620   3.797
 2278SOL     OW 9141   1.989   3.885   3.881
 2278SOL    HW2 9142   2.069   3.930   3.851
 2278SOL    HW3 9143   2.004   3.793   3.860
 2278SOL    MW4 9144   2.002   3.879   3.874
 2279SOL     OW 9145   1.769   4.025   3.751
 2279SOL    HW2 9146   1.852   4.000   3.791
 2279SOL    HW3 9147   1.706   3.962   3.787
 2279SOL    MW4 9148   1.771   4.013   3.761
 2280SOL     OW 9149   1.802   4.260   3.906
 2280SOL    HW2 9150   1.894   4.286   3.916
 2280SOL    HW3 9151   1.805   4.173   3.867
 2280SOL    MW4 9152   1.814   4.252   3.902
 2281SOL     OW 9153   2.034   4.383   3.840
 2281SOL    HW2 9154   2.120   4.345   3.857
 2281SOL    HW3 9155   2.028   4.388   3.745
 2281SOL    MW4 9156   2.044   4.379   3.830
 2282SOL     OW 9157   2.468   4.651   3.857
 2282SOL    HW2 9158   2.451   4.658   3.951
 2282SOL    HW3 9159   2.533   4.719   3.839
 2282SOL    MW4 9160   2.474   4.661   3.867
 2283SOL     OW 9161   2.242   0.084   3.762
 2283SOL    HW2 9162   2.322   0.039   3.789
 2283SOL    HW3 9163   2.260   0.112   3.672
 2283SOL    MW4 9164   2.255   0.082   3.753
 2284SOL     OW 9165   2.281   0.346   3.875
 2284SOL    HW2 9166   2.280   0.257   3.841
 2284SOL    HW3 9167   2.203   0.387   3.838
 2284SOL    MW4 9168   2.271   0.340   3.866
 2285SOL     OW 9169   2.477   0.511   3.783
 2285SOL    HW2 9170   2.410   0.446   3.807
 2285SOL    HW3 9171   2.471   0.516   3.688
 2285SOL    MW4 9172   2.467   0.503   3.774
 2286SOL     OW 9173   2.498   0.765   3.876
 2286SOL    HW2 9174   2.415   0.809   3.859
 2286SOL    HW3 9175   2.483   0.674   3.852
 2286SOL    MW4 9176   2.485   0.759   3.871
 2287SOL     OW 9177   2.232   0.890   3.827
 2287SOL    HW2 9178   2.153   0.836   3.834
 2287SOL    HW3 9179   2.247   0.897   3.733
 2287SOL    MW4 9180   2.223   0.884   3.816
 2288SOL     OW 9181   2.292   1.143   3.897
 2288SOL    HW2 9182   2.274   1.159   3.990
 2288SOL    HW3 9183   2.278   1.049   3.886
 2288SOL    MW4 9184   2.288   1.132   3.908
 2289SOL     OW 9185   2.495   1.258   3.753
 2289SOL    HW2 9186   2.496   1.349   3.784
 2289SOL    HW3 9187   2.425   1.217   3.804
 2289SOL    MW4 9188   2.486   1.265   3.764
 2290SOL     OW 9189   2.475   1.504   3.869
 2290SOL    HW2 9190   2.548   1.556   3.836
 2290SOL    HW3 9191   2.397   1.558   3.851
 2290SOL    MW4 9192   2.474   1.518   3.862
 2291SOL     OW 9193   2.243   1.663   3.798
 2291SOL    HW2 9194   2.254   1.749   3.839
 2291SOL    HW3 9195   2.172   1.621   3.848
 2291SOL    MW4 9196   2.235   1.669   3.810
 2292SOL     OW 9197   2.254   1.945   3.909
 2292SOL    HW2 9198   2.241   1.928   4.002
 2292SOL    HW3 9199   2.171   1.985   3.880
 2292SOL    MW4 9200   2.241   1.948   3.917
 2293SOL     OW 9201   2.464   2.051   3.780
 2293SOL    HW2 9202   2.460   2.144   3.805
 2293SOL    HW3 9203   2.398   2.009   3.835
 2293SOL    MW4 9204   2.455   2.058   3.791
 2294SOL     OW 9205   2.476   2.305   3.873
 2294SOL    HW2 9206   2.560   2.339   3.841
 2294SOL    HW3 9207   2.412   2.370   3.846
 2294SOL    MW4 9208   2.479   2.318   3.865
 2295SOL     OW 9209   2.263   2.459   3.770
 2295SOL    HW2 9210   2.190   2.409   3.807
 2295SOL    HW3 9211   2.244   2.463   3.676
 2295SOL    MW4 9212   2.251   2.453   3.763
 2296SOL     OW 9213   2.238   2.716   3.884
 2296SOL    HW2 9214   2.224   2.716   3.979
 2296SOL    HW3 9215   2.243   2.623   3.862
 2296SOL    MW4 9216   2.237   2.704   3.894
 2297SOL     OW 9217   2.468   2.830   3.768
 2297SOL    HW2 9218   2.398   2.782   3.812
 2297SOL    HW3 9219   2.445   2.826   3.675
 2297SOL    MW4 9220   2.456   2.823   3.761
 2298SOL     OW 9221   2.481   3.084   3.868
 2298SOL    HW2 9222   2.452   3.087   3.959
 2298SOL    HW3 9223   2.495   2.991   3.849
 2298SOL    MW4 9224   2.479   3.072   3.877
 2299SOL     OW 9225   2.263   3.246   3.781
 2299SOL    HW2 9226   2.279   3.332   3.819
 2299SOL    HW3 9227   2.348   3.203   3.781
 2299SOL    MW4 9228   2.276   3.251   3.786
 2300SOL     OW 9229   2.263   3.495   3.900
 2300SOL    HW2 9230   2.272   3.476   3.994
 2300SOL    HW3 9231   2.349   3.530   3.874
 2300SOL    MW4 9232   2.276   3.497   3.909
 2301SOL     OW 9233   2.475   3.622   3.795
 2301SOL    HW2 9234   2.562   3.594   3.823
 2301SOL    HW3 9235   2.475   3.608   3.700
 2301SOL    MW4 9236   2.486   3.617   3.786
 2302SOL     OW 9237   2.478   3.902   3.867
 2302SOL    HW2 9238   2.559   3.937   3.832
 2302SOL    HW3 9239   2.471   3.814   3.829
 2302SOL    MW4 9240   2.488   3.895   3.858
 2303SOL     OW 9241   2.218   4.002   3.802
 2303SOL    HW2 9242   2.306   3.965   3.816
 2303SOL    HW3 9243   2.212   4.012   3.707
 2303SOL    MW4 9244   2.229   3.998   3.791
 2304SOL     OW 9245   2.276   4.267   3.881
 2304SOL    HW2 9246   2.257   4.265   3.975
 2304SOL    HW3 9247   2.257   4.178   3.851
 2304SOL    MW4 9248   2.271   4.255   3.889
 2305SOL     OW 9249   2.490   4.389   3.767
 2305SOL    HW2 9250   2.408   4.350   3.797
 2305SOL    HW3 9251   2.500   4.468   3.821
 2305SOL    MW4 9252   2.480   4.394   3.778
 2306SOL     OW 9253   2.920   0.006   3.836
 2306SOL    HW2 9254   2.927   0.014   3.931
 2306SOL    HW3 9255   2.998   0.050   3.803
 2306SOL    MW4 9256   2.931   0.013   3.844
 2307SOL     OW 9257   2.678   0.139   3.781
 2307SOL    HW2 9258   2.760   0.093   3.798
 2307SOL    HW3 9259   2.673   0.145   3.686
 2307SOL    MW4 9260   2.688   0.134   3.771
 2308SOL     OW 9261   2.717   0.403   3.868
 2308SOL    HW2 9262   2.703   0.315   3.835
 2308SOL    HW3 9263   2.646   0.455   3.831
 2308SOL    MW4 9264   2.706   0.398   3.859
 2309SOL     OW 9265   2.953   0.510   3.780
 2309SOL    HW2 9266   3.022   0.460   3.822
 2309SOL    HW3 9267   2.872   0.464   3.803
 2309SOL    MW4 9268   2.951   0.498   3.789
 2310SOL     OW 9269   2.957   0.763   3.851
 2310SOL    HW2 9270   3.022   0.800   3.791
 2310SOL    HW3 9271   2.956   0.670   3.830
 2310SOL    MW4 9272   2.965   0.756   3.840
 2311SOL     OW 9273   2.720   0.901   3.778
 2311SOL    HW2 9274   2.799   0.858   3.811
 2311SOL    HW3 9275   2.648   0.847   3.810
 2311SOL    MW4 9276   2.721   0.888   3.787
 2312SOL     OW 9277   2.700   1.150   3.902
 2312SOL    HW2 9278   2.702   1.061   3.867
 2312SOL    HW3 9279   2.622   1.190   3.862
 2312SOL    MW4 9280   2.690   1.144   3.892
 2313SOL     OW 9281   2.872   1.288   3.730
 2313SOL    HW2 9282   2.898   1.365   3.780
 2313SOL    HW3 9283   2.803   1.247   3.783
 2313SOL    MW4 9284   2.866   1.292   3.743
 2314SOL     OW 9285   2.917   1.560   3.853
 2314SOL    HW2 9286   2.942   1.553   3.946
 2314SOL    HW3 9287   2.986   1.613   3.814
 2314SOL    MW4 9288   2.930   1.566   3.860
 2315SOL     OW 9289   2.680   1.665   3.790
 2315SOL    HW2 9290   2.757   1.616   3.820
 2315SOL    HW3 9291   2.691   1.670   3.695
 2315SOL    MW4 9292   2.692   1.659   3.782
 2316SOL     OW 9293   2.706   1.927   3.895
 2316SOL    HW2 9294   2.693   1.839   3.860
 2316SOL    HW3 9295   2.631   1.977   3.864
 2316SOL    MW4 9296   2.694   1.922   3.886
 2317SOL     OW 9297   2.927   2.019   3.767
 2317SOL    HW2 9298   2.930   2.103   3.813
 2317SOL    HW3 9299   2.851   1.974   3.804
 2317SOL    MW4 9300   2.917   2.024   3.778
 2318SOL     OW 9301   2.944   2.275   3.868
 2318SOL    HW2 9302   2.901   2.271   3.953
 2318SOL    HW3 9303   3.008   2.346   3.876
 2318SOL    MW4 9304   2.947   2.284   3.880
 2319SOL     OW 9305   2.719   2.418   3.766
 2319SOL    HW2 9306   2.711   2.503   3.807
 2319SOL    HW3 9307   2.807   2.387   3.789
 2319SOL    MW4 9308   2.730   2.425   3.774
 2320SOL     OW 9309   2.674   2.676   3.843
 2320SOL    HW2 9310   2.648   2.674   3.935
 2320SOL    HW3 9311   2.603   2.725   3.800
 2320SOL    MW4 9312   2.661   2.682   3.849
 2321SOL     OW 9313   2.903   2.816   3.756
 2321SOL    HW2 9314   2.900   2.901   3.799
 2321SOL    HW3 9315   2.830   2.767   3.795
 2321SOL    MW4 9316   2.893   2.820   3.767
 2322SOL     OW 9317   2.920   3.046   3.908
 2322SOL    HW2 9318   3.002   3.088   3.882
 2322SOL    HW3 9319   2.852   3.105   3.875
 2322SOL    MW4 9320   2.922   3.059   3.900
 2323SOL     OW 9321   2.722   3.193   3.793
 2323SOL    HW2 9322   2.721   3.283   3.826
 2323SOL    HW3 9323   2.641   3.154   3.827
 2323SOL    MW4 9324   2.711   3.200   3.801
 2324SOL     OW 9325   2.700   3.485   3.873
 2324SOL    HW2 9326   2.708   3.485   3.968
 2324SOL    HW3 9327   2.782   3.525   3.842
 2324SOL    MW4 9328   2.712   3.491   3.881
 2325SOL     OW 9329   2.932   3.603   3.779
 2325SOL    HW2 9330   3.001   3.541   3.803
 2325SOL    HW3 9331   2.918   3.587   3.685
 2325SOL    MW4 9332   2.939   3.592   3.769
 2326SOL     OW 9333   2.940   3.882   3.878
 2326SOL    HW2 9334   2.929   3.875   3.973
 2326SOL    HW3 9335   2.960   3.793   3.850
 2326SOL    MW4 9336   2.941   3.869   3.887
 2327SOL     OW 9337   2.690   4.003   3.746
 2327SOL    HW2 9338   2.700   4.090   3.784
 2327SOL    HW3 9339   2.752   3.948   3.795
 2327SOL    MW4 9340   2.699   4.007   3.758
 2328SOL     OW 9341   2.705   4.250   3.833
 2328SOL    HW2 9342   2.775   4.305   3.797
 2328SOL    HW3 9343   2.624   4.299   3.816
 2328SOL    MW4 9344   2.703   4.263   3.826
 2329SOL     OW 9345   2.919   4.393   3.776
 2329SOL    HW2 9346   2.985   4.346   3.826
 2329SOL    HW3 9347   2.928   4.484   3.804
 2329SOL    MW4 9348   2.929   4.399   3.786
 2330SOL     OW 9349   3.358   0.018   3.880
 2330SOL    HW2 9350   3.356   0.019   3.975
 2330SOL    HW3 9351   3.440   0.062   3.857
 2330SOL    MW4 9352   3.369   0.024   3.889
 2331SOL     OW 9353   3.145   0.128   3.765
 2331SOL    HW2 9354   3.224   0.086   3.800
 2331SOL    HW3 9355   3.157   0.126   3.670
 2331SOL    MW4 9356   3.157   0.122   3.757
 2332SOL     OW 9357   3.156   0.372   3.890
 2332SOL    HW2 9358   3.148   0.356   3.984
 2332SOL    HW3 9359   3.177   0.286   3.854
 2332SOL    MW4 9360   3.158   0.359   3.898
 2333SOL     OW 9361   3.351   0.557   3.799
 2333SOL    HW2 9362   3.429   0.512   3.830
 2333SOL    HW3 9363   3.278   0.500   3.824
 2333SOL    MW4 9364   3.352   0.544   3.806
 2334SOL     OW 9365   3.361   0.818   3.862
 2334SOL    HW2 9366   3.369   0.826   3.957
 2334SOL    HW3 9367   3.367   0.723   3.846
 2334SOL    MW4 9368   3.363   0.806   3.872
 2335SOL     OW 9369   3.136   0.904   3.706
 2335SOL    HW2 9370   3.225   0.875   3.726
 2335SOL    HW3 9371   3.127   0.890   3.612
 2335SOL    MW4 9372   3.146   0.898   3.696
 2336SOL     OW 9373   3.113   1.155   3.807
 2336SOL    HW2 9374   3.113   1.069   3.765
 2336SOL    HW3 9375   3.026   1.190   3.791
 2336SOL    MW4 9376   3.102   1.149   3.799
 2337SOL     OW 9377   3.349   1.297   3.749
 2337SOL    HW2 9378   3.262   1.258   3.752
 2337SOL    HW3 9379   3.375   1.292   3.657
 2337SOL    MW4 9380   3.341   1.291   3.737
 2338SOL     OW 9381   3.367   1.563   3.814
 2338SOL    HW2 9382   3.279   1.591   3.789
 2338SOL    HW3 9383   3.365   1.468   3.804
 2338SOL    MW4 9384   3.355   1.554   3.809
 2339SOL     OW 9385   3.135   1.685   3.750
 2339SOL    HW2 9386   3.164   1.770   3.782
 2339SOL    HW3 9387   3.142   1.692   3.654
 2339SOL    MW4 9388   3.140   1.697   3.741
 2340SOL     OW 9389   3.164   1.940   3.871
 2340SOL    HW2 9390   3.166   1.932   3.966
 2340SOL    HW3 9391   3.075   1.970   3.851
 2340SOL    MW4 9392   3.153   1.943   3.881
 2341SOL     OW 9393   3.370   2.086   3.787
 2341SOL    HW2 9394   3.295   2.031   3.808
 2341SOL    HW3 9395   3.378   2.081   3.692
 2341SOL    MW4 9396   3.361   2.078   3.777
 2342SOL     OW 9397   3.381   2.354   3.855
 2342SOL    HW2 9398   3.294   2.378   3.825
 2342SOL    HW3 9399   3.387   2.259   3.840
 2342SOL    MW4 9400   3.370   2.344   3.849
 2343SOL     OW 9401   3.142   2.461   3.793
 2343SOL    HW2 9402   3.134   2.548   3.832
 2343SOL    HW3 9403   3.134   2.477   3.699
 2343SOL    MW4 9404   3.140   2.475   3.786
 2344SOL     OW 9405   3.140   2.743   3.877
 2344SOL    HW2 9406   3.123   2.726   3.970
 2344SOL    HW3 9407   3.057   2.775   3.843
 2344SOL    MW4 9408   3.127   2.745   3.885
 2345SOL     OW 9409   3.376   2.849   3.734
 2345SOL    HW2 9410   3.301   2.832   3.791
 2345SOL    HW3 9411   3.347   2.823   3.647
 2345SOL    MW4 9412   3.362   2.844   3.730
 2346SOL     OW 9413   3.393   3.099   3.898
 2346SOL    HW2 9414   3.477   3.138   3.875
 2346SOL    HW3 9415   3.389   3.018   3.846
 2346SOL    MW4 9416   3.403   3.093   3.888
 2347SOL     OW 9417   3.141   3.181   3.790
 2347SOL    HW2 9418   3.224   3.142   3.817
 2347SOL    HW3 9419   3.136   3.164   3.696
 2347SOL    MW4 9420   3.151   3.174   3.781
 2348SOL     OW 9421   3.167   3.457   3.850
 2348SOL    HW2 9422   3.245   3.496   3.811
 2348SOL    HW3 9423   3.176   3.363   3.833
 2348SOL    MW4 9424   3.179   3.449   3.842
 2349SOL     OW 9425   3.383   3.581   3.751
 2349SOL    HW2 9426   3.371   3.675   3.764
 2349SOL    HW3 9427   3.385   3.569   3.656
 2349SOL    MW4 9428   3.382   3.592   3.740
 2350SOL     OW 9429   3.381   3.865   3.839
 2350SOL    HW2 9430   3.456   3.917   3.812
 2350SOL    HW3 9431   3.305   3.922   3.825
 2350SOL    MW4 9432   3.381   3.880   3.834
 2351SOL     OW 9433   3.158   4.011   3.791
 2351SOL    HW2 9434   3.167   4.097   3.833
 2351SOL    HW3 9435   3.083   3.971   3.835
 2351SOL    MW4 9436   3.149   4.017   3.803
 2352SOL     OW 9437   3.152   4.261   3.889
 2352SOL    HW2 9438   3.137   4.282   3.981
 2352SOL    HW3 9439   3.203   4.334   3.855
 2352SOL    MW4 9440   3.156   4.273   3.897
 2353SOL     OW 9441   3.347   4.440   3.765
 2353SOL    HW2 9442   3.420   4.396   3.808
 2353SOL    HW3 9443   3.332   4.519   3.818
 2353SOL    MW4 9444   3.355   4.444   3.778
 2354SOL     OW 9445   3.804   0.033   3.874
 2354SOL    HW2 9446   3.862   0.082   3.817
 2354SOL    HW3 9447   3.822  -0.059   3.854
 2354SOL    MW4 9448   3.814   0.027   3.864
 2355SOL     OW 9449   3.574   0.148   3.779
 2355SOL    HW2 9450   3.650   0.104   3.818
 2355SOL    HW3 9451   3.580   0.126   3.686
 2355SOL    MW4 9452   3.585   0.139   3.772
 2356SOL     OW 9453   3.566   0.394   3.889
 2356SOL    HW2 9454   3.650   0.434   3.870
 2356SOL    HW3 9455   3.571   0.307   3.848
 2356SOL    MW4 9456   3.577   0.387   3.881
 2357SOL     OW 9457   3.805   0.514   3.799
 2357SOL    HW2 9458   3.873   0.462   3.842
 2357SOL    HW3 9459   3.827   0.605   3.821
 2357SOL    MW4 9460   3.817   0.519   3.808
 2358SOL     OW 9461   3.829   0.786   3.857
 2358SOL    HW2 9462   3.911   0.830   3.834
 2358SOL    HW3 9463   3.760   0.846   3.827
 2358SOL    MW4 9464   3.830   0.800   3.850
 2359SOL     OW 9465   3.600   0.927   3.780
 2359SOL    HW2 9466   3.594   1.016   3.815
 2359SOL    HW3 9467   3.516   0.887   3.802
 2359SOL    MW4 9468   3.588   0.933   3.788
 2360SOL     OW 9469   3.575   1.185   3.874
 2360SOL    HW2 9470   3.641   1.236   3.827
 2360SOL    HW3 9471   3.493   1.209   3.830
 2360SOL    MW4 9472   3.573   1.195   3.862
 2361SOL     OW 9473   3.767   1.304   3.732
 2361SOL    HW2 9474   3.851   1.267   3.758
 2361SOL    HW3 9475   3.771   1.395   3.761
 2361SOL    MW4 9476   3.778   1.311   3.739
 2362SOL     OW 9477   3.782   1.556   3.824
 2362SOL    HW2 9478   3.774   1.556   3.919
 2362SOL    HW3 9479   3.717   1.620   3.794
 2362SOL    MW4 9480   3.772   1.564   3.833
 2363SOL     OW 9481   3.588   1.718   3.726
 2363SOL    HW2 9482   3.506   1.678   3.756
 2363SOL    HW3 9483   3.597   1.689   3.635
 2363SOL    MW4 9484   3.578   1.709   3.718
 2364SOL     OW 9485   3.582   1.930   3.915
 2364SOL    HW2 9486   3.602   1.858   3.854
 2364SOL    HW3 9487   3.503   1.971   3.878
 2364SOL    MW4 9488   3.574   1.926   3.902
 2365SOL     OW 9489   3.783   2.059   3.751
 2365SOL    HW2 9490   3.868   2.020   3.771
 2365SOL    HW3 9491   3.721   2.012   3.806
 2365SOL    MW4 9492   3.786   2.047   3.761
 2366SOL     OW 9493   3.811   2.339   3.889
 2366SOL    HW2 9494   3.749   2.381   3.829
 2366SOL    HW3 9495   3.804   2.245   3.870
 2366SOL    MW4 9496   3.802   2.332   3.879
 2367SOL     OW 9497   3.616   2.482   3.747
 2367SOL    HW2 9498   3.543   2.425   3.772
 2367SOL    HW3 9499   3.612   2.485   3.652
 2367SOL    MW4 9500   3.606   2.475   3.738
 2368SOL     OW 9501   3.582   2.725   3.871
 2368SOL    HW2 9502   3.588   2.636   3.834
 2368SOL    HW3 9503   3.508   2.765   3.825
 2368SOL    MW4 9504   3.573   2.718   3.860
 2369SOL     OW 9505   3.810   2.851   3.786
 2369SOL    HW2 9506   3.885   2.803   3.820
 2369SOL    HW3 9507   3.734   2.798   3.812
 2369SOL    MW4 9508   3.810   2.838   3.794
 2370SOL     OW 9509   3.838   3.110   3.880
 2370SOL    HW2 9510   3.753   3.151   3.866
 2370SOL    HW3 9511   3.826   3.020   3.850
 2370SOL    MW4 9512   3.825   3.103   3.874
 2371SOL     OW 9513   3.620   3.244   3.821
 2371SOL    HW2 9514   3.646   3.327   3.860
 2371SOL    HW3 9515   3.615   3.262   3.727
 2371SOL    MW4 9516   3.623   3.257   3.813
 2372SOL     OW 9517   3.654   3.541   3.843
 2372SOL    HW2 9518   3.640   3.547   3.938
 2372SOL    HW3 9519   3.566   3.540   3.806
 2372SOL    MW4 9520   3.640   3.542   3.851
 2373SOL     OW 9521   3.839   3.669   3.701
 2373SOL    HW2 9522   3.831   3.755   3.742
 2373SOL    HW3 9523   3.770   3.616   3.741
 2373SOL    MW4 9524   3.829   3.673   3.712
 2374SOL     OW 9525   3.813   3.930   3.828
 2374SOL    HW2 9526   3.804   3.944   3.922
 2374SOL    HW3 9527   3.892   3.978   3.804
 2374SOL    MW4 9528   3.822   3.938   3.837
 2375SOL     OW 9529   3.569   4.049   3.772
 2375SOL    HW2 9530   3.561   4.123   3.832
 2375SOL    HW3 9531   3.651   4.007   3.797
 2375SOL    MW4 9532   3.579   4.053   3.783
 2376SOL     OW 9533   3.575   4.308   3.890
 2376SOL    HW2 9534   3.574   4.315   3.985
 2376SOL    HW3 9535   3.652   4.359   3.863
 2376SOL    MW4 9536   3.585   4.316   3.899
 2377SOL     OW 9537   3.823   4.429   3.824
 2377SOL    HW2 9538   3.897   4.375   3.853
 2377SOL    HW3 9539   3.829   4.428   3.728
 2377SOL    MW4 9540   3.834   4.422   3.815
 2378SOL     OW 9541   4.257   0.006   3.860
 2378SOL    HW2 9542   4.260   0.007   3.956
 2378SOL    HW3 9543   4.339   0.047   3.833
 2378SOL    MW4 9544   4.268   0.012   3.869
 2379SOL     OW 9545   4.036   0.172   3.794
 2379SOL    HW2 9546   4.102   0.107   3.817
 2379SOL    HW3 9547   4.026   0.164   3.699
 2379SOL    MW4 9548   4.044   0.162   3.784
 2380SOL     OW 9549   4.036   0.417   3.916
 2380SOL    HW2 9550   4.031   0.405   4.011
 2380SOL    HW3 9551   4.043   0.328   3.881
 2380SOL    MW4 9552   4.037   0.403   3.924
 2381SOL     OW 9553   4.272   0.504   3.792
 2381SOL    HW2 9554   4.192   0.477   3.836
 2381SOL    HW3 9555   4.252   0.495   3.698
 2381SOL    MW4 9556   4.259   0.499   3.785
 2382SOL     OW 9557   4.292   0.776   3.892
 2382SOL    HW2 9558   4.217   0.819   3.850
 2382SOL    HW3 9559   4.294   0.689   3.853
 2382SOL    MW4 9560   4.282   0.770   3.881
 2383SOL     OW 9561   4.074   0.915   3.794
 2383SOL    HW2 9562   4.044   1.004   3.815
 2383SOL    HW3 9563   4.049   0.903   3.703
 2383SOL    MW4 9564   4.067   0.925   3.785
 2384SOL     OW 9565   3.995   1.187   3.841
 2384SOL    HW2 9566   3.989   1.177   3.936
 2384SOL    HW3 9567   4.088   1.203   3.825
 2384SOL    MW4 9568   4.006   1.188   3.851
 2385SOL     OW 9569   4.256   1.236   3.787
 2385SOL    HW2 9570   4.244   1.325   3.820
 2385SOL    HW3 9571   4.271   1.247   3.693
 2385SOL    MW4 9572   4.256   1.249   3.779
 2386SOL     OW 9573   4.226   1.503   3.885
 2386SOL    HW2 9574   4.144   1.541   3.855
 2386SOL    HW3 9575   4.294   1.556   3.843
 2386SOL    MW4 9576   4.224   1.515   3.875
 2387SOL     OW 9577   4.022   1.654   3.756
 2387SOL    HW2 9578   4.017   1.747   3.781
 2387SOL    HW3 9579   3.933   1.621   3.769
 2387SOL    MW4 9580   4.010   1.662   3.761
 2388SOL     OW 9581   4.017   1.924   3.829
 2388SOL    HW2 9582   4.011   1.924   3.925
 2388SOL    HW3 9583   4.092   1.980   3.810
 2388SOL    MW4 9584   4.026   1.932   3.839
 2389SOL     OW 9585   4.229   2.066   3.759
 2389SOL    HW2 9586   4.226   2.160   3.777
 2389SOL    HW3 9587   4.237   2.061   3.664
 2389SOL    MW4 9588   4.229   2.078   3.749
 2390SOL     OW 9589   4.221   2.339   3.835
 2390SOL    HW2 9590   4.238   2.374   3.922
 2390SOL    HW3 9591   4.175   2.410   3.790
 2390SOL    MW4 9592   4.217   2.353   3.840
 2391SOL     OW 9593   3.992   2.491   3.727
 2391SOL    HW2 9594   3.995   2.577   3.771
 2391SOL    HW3 9595   3.935   2.438   3.783
 2391SOL    MW4 9596   3.985   2.496   3.740
 2392SOL     OW 9597   4.051   2.741   3.879
 2392SOL    HW2 9598   4.061   2.751   3.974
 2392SOL    HW3 9599   4.134   2.772   3.843
 2392SOL    MW4 9600   4.064   2.746   3.887
 2393SOL     OW 9601   4.276   2.833   3.752
 2393SOL    HW2 9602   4.289   2.923   3.783
 2393SOL    HW3 9603   4.360   2.790   3.768
 2393SOL    MW4 9604   4.289   2.839   3.758
 2394SOL     OW 9605   4.312   3.084   3.844
 2394SOL    HW2 9606   4.229   3.127   3.821
 2394SOL    HW3 9607   4.379   3.143   3.810
 2394SOL    MW4 9608   4.310   3.098   3.836
 2395SOL     OW 9609   4.049   3.239   3.788
 2395SOL    HW2 9610   3.975   3.183   3.810
 2395SOL    HW3 9611   4.051   3.241   3.692
 2395SOL    MW4 9612   4.040   3.232   3.778
 2396SOL     OW 9613   4.040   3.521   3.874
 2396SOL    HW2 9614   4.060   3.438   3.830
 2396SOL    HW3 9615   3.961   3.553   3.830
 2396SOL    MW4 9616   4.032   3.514   3.863
 2397SOL     OW 9617   4.254   3.644   3.728
 2397SOL    HW2 9618   4.179   3.610   3.777
 2397SOL    HW3 9619   4.330   3.608   3.774
 2397SOL    MW4 9620   4.254   3.635   3.741
 2398SOL     OW 9621   4.249   3.887   3.874
 2398SOL    HW2 9622   4.182   3.941   3.833
 2398SOL    HW3 9623   4.262   3.813   3.813
 2398SOL    MW4 9624   4.242   3.884   3.861
 2399SOL     OW 9625   4.055   4.033   3.763
 2399SOL    HW2 9626   4.051   4.124   3.795
 2399SOL    HW3 9627   4.052   4.040   3.668
 2399SOL    MW4 9628   4.054   4.046   3.755
 2400SOL     OW 9629   4.052   4.290   3.899
 2400SOL    HW2 9630   4.054   4.300   3.994
 2400SOL    HW3 9631   4.123   4.347   3.868
 2400SOL    MW4 9632   4.062   4.299   3.908
 2401SOL     OW 9633   4.262   4.418   3.758
 2401SOL    HW2 9634   4.267   4.506   3.796
 2401SOL    HW3 9635   4.341   4.374   3.788
 2401SOL    MW4 9636   4.273   4.424   3.767
 2402SOL     OW 9637   0.230   4.645   4.173
 2402SOL    HW2 9638   0.314   4.680   4.202
 2402SOL    HW3 9639   0.234   4.552   4.196
 2402SOL    MW4 9640   0.242   4.637   4.180
 2403SOL     OW 9641   0.017   0.120   4.282
 2403SOL    HW2 9642   0.009   0.115   4.377
 2403SOL    HW3 9643   0.105   0.087   4.264
 2403SOL    MW4 9644   0.028   0.115   4.292
 2404SOL     OW 9645   4.457   0.388   4.192
 2404SOL    HW2 9646   4.488   0.309   4.236
 2404SOL    HW3 9647   4.481   0.375   4.100
 2404SOL    MW4 9648   4.464   0.376   4.185
 2405SOL     OW 9649   0.214   0.540   4.234
 2405SOL    HW2 9650   0.289   0.494   4.195
 2405SOL    HW3 9651   0.138   0.503   4.189
 2405SOL    MW4 9652   0.214   0.529   4.223
 2406SOL     OW 9653   0.231   0.815   4.163
 2406SOL    HW2 9654   0.159   0.863   4.204
 2406SOL    HW3 9655   0.216   0.724   4.189
 2406SOL    MW4 9656   0.219   0.810   4.172
 2407SOL     OW 9657   0.005   0.953   4.252
 2407SOL    HW2 9658  -0.075   0.913   4.218
 2407SOL    HW3 9659   0.011   1.037   4.207
 2407SOL    MW4 9660  -0.005   0.958   4.242
 2408SOL     OW 9661   0.001   1.196   4.141
 2408SOL    HW2 9662   0.089   1.233   4.141
 2408SOL    HW3 9663  -0.010   1.159   4.054
 2408SOL    MW4 9664   0.011   1.196   4.130
 2409SOL     OW 9665   0.283   1.282   4.122
 2409SOL    HW2 9666   0.312   1.248   4.206
 2409SOL    HW3 9667   0.347   1.248   4.059
 2409SOL    MW4 9668   0.296   1.273   4.124
 2410SOL     OW 9669   4.012   2.250   4.911
 2410SOL    HW2 9670   4.040   2.338   4.886
 2410SOL    HW3 9671   3.953   2.264   4.985
 2410SOL    MW4 9672   4.008   2.264   4.917
 2411SOL     OW 9673   4.456   1.726   4.208
 2411SOL    HW2 9674   4.381   1.667   4.205
 2411SOL    HW3 9675   4.431   1.799   4.152
 2411SOL    MW4 9676   4.443   1.727   4.200
 2412SOL     OW 9677   0.179   2.119   4.155
 2412SOL    HW2 9678   0.165   2.138   4.248
 2412SOL    HW3 9679   0.257   2.064   4.153
 2412SOL    MW4 9680   0.187   2.114   4.167
 2413SOL     OW 9681   0.493   1.411   4.579
 2413SOL    HW2 9682   0.449   1.492   4.556
 2413SOL    HW3 9683   0.425   1.358   4.621
 2413SOL    MW4 9684   0.478   1.415   4.581
 2414SOL     OW 9685   0.250   2.378   4.087
 2414SOL    HW2 9686   0.314   2.404   4.152
 2414SOL    HW3 9687   0.232   2.286   4.106
 2414SOL    MW4 9688   0.256   2.370   4.098
 2415SOL     OW 9689   0.023   2.500   4.181
 2415SOL    HW2 9690  -0.052   2.450   4.150
 2415SOL    HW3 9691   0.099   2.458   4.142
 2415SOL    MW4 9692   0.023   2.488   4.172
 2416SOL     OW 9693   4.463   2.761   4.110
 2416SOL    HW2 9694   4.555   2.787   4.103
 2416SOL    HW3 9695   4.466   2.673   4.147
 2416SOL    MW4 9696   4.476   2.753   4.114
 2417SOL     OW 9697   0.237   2.829   4.195
 2417SOL    HW2 9698   0.320   2.783   4.179
 2417SOL    HW3 9699   0.259   2.922   4.192
 2417SOL    MW4 9700   0.251   2.835   4.193
 2418SOL     OW 9701   0.261   3.109   4.149
 2418SOL    HW2 9702   0.330   3.149   4.202
 2418SOL    HW3 9703   0.185   3.167   4.160
 2418SOL    MW4 9704   0.260   3.122   4.158
 2419SOL     OW 9705   0.045   3.283   4.202
 2419SOL    HW2 9706  -0.038   3.241   4.180
 2419SOL    HW3 9707   0.036   3.373   4.170
 2419SOL    MW4 9708   0.033   3.290   4.195
 2420SOL     OW 9709   0.033   3.546   4.111
 2420SOL    HW2 9710  -0.050   3.578   4.147
 2420SOL    HW3 9711   0.017   3.540   4.017
 2420SOL    MW4 9712   0.020   3.550   4.104
 2421SOL     OW 9713   0.250   3.652   4.220
 2421SOL    HW2 9714   0.330   3.604   4.202
 2421SOL    HW3 9715   0.183   3.608   4.168
 2421SOL    MW4 9716   0.251   3.640   4.211
 2422SOL     OW 9717   0.250   3.924   4.166
 2422SOL    HW2 9718   0.163   3.963   4.177
 2422SOL    HW3 9719   0.239   3.832   4.190
 2422SOL    MW4 9720   0.237   3.917   4.171
 2423SOL     OW 9721   0.007   4.042   4.235
 2423SOL    HW2 9722   0.005   4.026   4.329
 2423SOL    HW3 9723  -0.071   3.997   4.201
 2423SOL    MW4 9724  -0.004   4.034   4.243
 2424SOL     OW 9725   0.010   4.284   4.132
 2424SOL    HW2 9726   0.012   4.191   4.156
 2424SOL    HW3 9727  -0.020   4.285   4.041
 2424SOL    MW4 9728   0.006   4.272   4.123
 2425SOL     OW 9729   0.239   4.348   4.265
 2425SOL    HW2 9730   0.211   4.350   4.357
 2425SOL    HW3 9731   0.161   4.324   4.216
 2425SOL    MW4 9732   0.225   4.345   4.271
 2426SOL     OW 9733   0.664   4.654   4.187
 2426SOL    HW2 9734   0.582   4.687   4.224
 2426SOL    HW3 9735   0.653   4.663   4.092
 2426SOL    MW4 9736   0.652   4.660   4.179
 2427SOL     OW 9737   0.450   0.128   4.276
 2427SOL    HW2 9738   0.451   0.118   4.371
 2427SOL    HW3 9739   0.447   0.222   4.262
 2427SOL    MW4 9740   0.450   0.139   4.287
 2428SOL     OW 9741   0.419   0.377   4.176
 2428SOL    HW2 9742   0.505   0.413   4.197
 2428SOL    HW3 9743   0.424   0.353   4.083
 2428SOL    MW4 9744   0.431   0.379   4.166
 2429SOL     OW 9745   0.681   0.461   4.221
 2429SOL    HW2 9746   0.758   0.412   4.193
 2429SOL    HW3 9747   0.698   0.551   4.193
 2429SOL    MW4 9748   0.693   0.467   4.214
 2430SOL     OW 9749   0.683   0.723   4.130
 2430SOL    HW2 9750   0.610   0.773   4.168
 2430SOL    HW3 9751   0.665   0.722   4.036
 2430SOL    MW4 9752   0.671   0.730   4.123
 2431SOL     OW 9753   0.495   0.872   4.218
 2431SOL    HW2 9754   0.504   0.963   4.190
 2431SOL    HW3 9755   0.406   0.848   4.194
 2431SOL    MW4 9756   0.485   0.881   4.211
 2432SOL     OW 9757   0.589   1.130   4.115
 2432SOL    HW2 9758   0.601   1.212   4.163
 2432SOL    HW3 9759   0.560   1.158   4.028
 2432SOL    MW4 9760   0.587   1.144   4.110
 2433SOL     OW 9761   0.680   1.347   4.231
 2433SOL    HW2 9762   0.720   1.368   4.316
 2433SOL    HW3 9763   0.671   1.431   4.187
 2433SOL    MW4 9764   0.684   1.361   4.237
 2434SOL     OW 9765   0.640   1.607   4.131
 2434SOL    HW2 9766   0.731   1.619   4.155
 2434SOL    HW3 9767   0.640   1.596   4.036
 2434SOL    MW4 9768   0.652   1.607   4.122
 2435SOL     OW 9769   0.212   1.543   4.091
 2435SOL    HW2 9770   0.239   1.452   4.104
 2435SOL    HW3 9771   0.121   1.546   4.119
 2435SOL    MW4 9772   0.204   1.532   4.096
 2436SOL     OW 9773   0.409   1.981   4.149
 2436SOL    HW2 9774   0.398   1.892   4.183
 2436SOL    HW3 9775   0.416   1.969   4.054
 2436SOL    MW4 9776   0.409   1.968   4.141
 2437SOL     OW 9777   0.676   2.022   4.214
 2437SOL    HW2 9778   0.681   2.074   4.294
 2437SOL    HW3 9779   0.583   2.003   4.203
 2437SOL    MW4 9780   0.665   2.026   4.223
 2438SOL     OW 9781   0.679   2.293   4.121
 2438SOL    HW2 9782   0.667   2.200   4.142
 2438SOL    HW3 9783   0.641   2.302   4.034
 2438SOL    MW4 9784   0.672   2.282   4.112
 2439SOL     OW 9785   0.475   2.429   4.237
 2439SOL    HW2 9786   0.501   2.521   4.229
 2439SOL    HW3 9787   0.554   2.380   4.219
 2439SOL    MW4 9788   0.489   2.435   4.234
 2440SOL     OW 9789   0.492   2.704   4.144
 2440SOL    HW2 9790   0.568   2.755   4.172
 2440SOL    HW3 9791   0.497   2.704   4.048
 2440SOL    MW4 9792   0.502   2.710   4.135
 2441SOL     OW 9793   0.727   2.828   4.224
 2441SOL    HW2 9794   0.748   2.845   4.316
 2441SOL    HW3 9795   0.721   2.915   4.185
 2441SOL    MW4 9796   0.729   2.842   4.231
 2442SOL     OW 9797   0.673   3.113   4.103
 2442SOL    HW2 9798   0.751   3.159   4.133
 2442SOL    HW3 9799   0.601   3.152   4.153
 2442SOL    MW4 9800   0.674   3.124   4.113
 2443SOL     OW 9801   0.487   3.240   4.256
 2443SOL    HW2 9802   0.499   3.257   4.350
 2443SOL    HW3 9803   0.499   3.326   4.215
 2443SOL    MW4 9804   0.490   3.254   4.263
 2444SOL     OW 9805   0.480   3.478   4.134
 2444SOL    HW2 9806   0.566   3.519   4.145
 2444SOL    HW3 9807   0.462   3.483   4.040
 2444SOL    MW4 9808   0.489   3.484   4.123
 2445SOL     OW 9809   0.725   3.597   4.189
 2445SOL    HW2 9810   0.742   3.584   4.283
 2445SOL    HW3 9811   0.790   3.543   4.145
 2445SOL    MW4 9812   0.736   3.588   4.196
 2446SOL     OW 9813   0.677   3.889   4.150
 2446SOL    HW2 9814   0.615   3.932   4.209
 2446SOL    HW3 9815   0.667   3.796   4.168
 2446SOL    MW4 9816   0.668   3.882   4.161
 2447SOL     OW 9817   0.479   4.015   4.300
 2447SOL    HW2 9818   0.491   4.108   4.281
 2447SOL    HW3 9819   0.404   3.989   4.247
 2447SOL    MW4 9820   0.471   4.024   4.291
 2448SOL     OW 9821   0.497   4.262   4.205
 2448SOL    HW2 9822   0.419   4.297   4.248
 2448SOL    HW3 9823   0.476   4.265   4.111
 2448SOL    MW4 9824   0.484   4.267   4.198
 2449SOL     OW 9825   0.702   4.406   4.309
 2449SOL    HW2 9826   0.625   4.366   4.270
 2449SOL    HW3 9827   0.708   4.493   4.269
 2449SOL    MW4 9828   0.693   4.413   4.299
 2450SOL     OW 9829   1.079   4.645   4.154
 2450SOL    HW2 9830   1.096   4.554   4.180
 2450SOL    HW3 9831   1.091   4.645   4.059
 2450SOL    MW4 9832   1.083   4.633   4.145
 2451SOL     OW 9833   0.893   0.115   4.313
 2451SOL    HW2 9834   0.953   0.054   4.270
 2451SOL    HW3 9835   0.806   0.084   4.289
 2451SOL    MW4 9836   0.889   0.103   4.304
 2452SOL     OW 9837   0.938   0.347   4.140
 2452SOL    HW2 9838   1.019   0.387   4.171
 2452SOL    HW3 9839   0.937   0.261   4.180
 2452SOL    MW4 9840   0.949   0.341   4.149
 2453SOL     OW 9841   1.147   0.506   4.212
 2453SOL    HW2 9842   1.158   0.501   4.307
 2453SOL    HW3 9843   1.228   0.469   4.176
 2453SOL    MW4 9844   1.159   0.501   4.220
 2454SOL     OW 9845   1.137   0.787   4.138
 2454SOL    HW2 9846   1.204   0.830   4.190
 2454SOL    HW3 9847   1.131   0.698   4.173
 2454SOL    MW4 9848   1.145   0.781   4.149
 2455SOL     OW 9849   0.883   0.865   4.250
 2455SOL    HW2 9850   0.968   0.825   4.232
 2455SOL    HW3 9851   0.819   0.806   4.209
 2455SOL    MW4 9852   0.885   0.852   4.242
 2456SOL     OW 9853   0.881   1.115   4.117
 2456SOL    HW2 9854   0.889   1.035   4.168
 2456SOL    HW3 9855   0.788   1.136   4.118
 2456SOL    MW4 9856   0.870   1.107   4.124
 2457SOL     OW 9857   1.080   1.257   4.231
 2457SOL    HW2 9858   1.054   1.255   4.323
 2457SOL    HW3 9859   1.009   1.213   4.184
 2457SOL    MW4 9860   1.067   1.251   4.237
 2458SOL     OW 9861   1.116   1.518   4.121
 2458SOL    HW2 9862   1.051   1.574   4.163
 2458SOL    HW3 9863   1.108   1.433   4.166
 2458SOL    MW4 9864   1.107   1.514   4.133
 2459SOL     OW 9865   0.899   1.659   4.237
 2459SOL    HW2 9866   0.890   1.667   4.332
 2459SOL    HW3 9867   0.901   1.749   4.205
 2459SOL    MW4 9868   0.898   1.672   4.246
 2460SOL     OW 9869   0.909   1.906   4.126
 2460SOL    HW2 9870   0.830   1.944   4.164
 2460SOL    HW3 9871   0.898   1.917   4.032
 2460SOL    MW4 9872   0.897   1.913   4.119
 2461SOL     OW 9873   1.126   2.079   4.192
 2461SOL    HW2 9874   1.169   2.040   4.268
 2461SOL    HW3 9875   1.050   2.023   4.177
 2461SOL    MW4 9876   1.122   2.066   4.200
 2462SOL     OW 9877   1.087   2.338   4.104
 2462SOL    HW2 9878   1.172   2.378   4.119
 2462SOL    HW3 9879   1.095   2.250   4.139
 2462SOL    MW4 9880   1.099   2.332   4.110
 2463SOL     OW 9881   0.866   2.467   4.209
 2463SOL    HW2 9882   0.945   2.422   4.181
 2463SOL    HW3 9883   0.794   2.412   4.177
 2463SOL    MW4 9884   0.867   2.454   4.201
 2464SOL     OW 9885   0.946   2.716   4.119
 2464SOL    HW2 9886   0.933   2.629   4.157
 2464SOL    HW3 9887   0.871   2.768   4.150
 2464SOL    MW4 9888   0.934   2.711   4.128
 2465SOL     OW 9889   1.149   2.808   4.270
 2465SOL    HW2 9890   1.183   2.889   4.231
 2465SOL    HW3 9891   1.073   2.786   4.217
 2465SOL    MW4 9892   1.144   2.816   4.258
 2466SOL     OW 9893   1.145   3.040   4.109
 2466SOL    HW2 9894   1.218   3.094   4.138
 2466SOL    HW3 9895   1.146   3.049   4.014
 2466SOL    MW4 9896   1.155   3.048   4.100
 2467SOL     OW 9897   0.925   3.203   4.176
 2467SOL    HW2 9898   0.937   3.215   4.271
 2467SOL    HW3 9899   0.990   3.137   4.153
 2467SOL    MW4 9900   0.935   3.196   4.186
 2468SOL     OW 9901   0.948   3.462   4.095
 2468SOL    HW2 9902   0.937   3.367   4.106
 2468SOL    HW3 9903   0.947   3.474   4.000
 2468SOL    MW4 9904   0.947   3.451   4.084
 2469SOL     OW 9905   1.120   3.590   4.284
 2469SOL    HW2 9906   1.112   3.674   4.239
 2469SOL    HW3 9907   1.059   3.533   4.237
 2469SOL    MW4 9908   1.111   3.594   4.272
 2470SOL     OW 9909   1.130   3.866   4.176
 2470SOL    HW2 9910   1.215   3.900   4.202
 2470SOL    HW3 9911   1.069   3.936   4.196
 2470SOL    MW4 9912   1.133   3.879   4.182
 2471SOL     OW 9913   0.906   4.029   4.208
 2471SOL    HW2 9914   0.894   4.117   4.172
 2471SOL    HW3 9915   0.825   3.982   4.185
 2471SOL    MW4 9916   0.894   4.034   4.200
 2472SOL     OW 9917   0.892   4.296   4.127
 2472SOL    HW2 9918   0.972   4.324   4.172
 2472SOL    HW3 9919   0.821   4.326   4.182
 2472SOL    MW4 9920   0.893   4.304   4.140
 2473SOL     OW 9921   1.122   4.370   4.241
 2473SOL    HW2 9922   1.145   4.386   4.332
 2473SOL    HW3 9923   1.194   4.316   4.208
 2473SOL    MW4 9924   1.135   4.365   4.248
 2474SOL     OW 9925   1.544   4.656   4.163
 2474SOL    HW2 9926   1.613   4.713   4.198
 2474SOL    HW3 9927   1.463   4.695   4.194
 2474SOL    MW4 9928   1.543   4.668   4.172
 2475SOL     OW 9929   1.317   0.109   4.236
 2475SOL    HW2 9930   1.297   0.098   4.329
 2475SOL    HW3 9931   1.244   0.066   4.191
 2475SOL    MW4 9932   1.305   0.102   4.242
 2476SOL     OW 9933   1.374   0.376   4.148
 2476SOL    HW2 9934   1.449   0.411   4.197
 2476SOL    HW3 9935   1.362   0.287   4.183
 2476SOL    MW4 9936   1.382   0.369   4.159
 2477SOL     OW 9937   1.584   0.491   4.275
 2477SOL    HW2 9938   1.632   0.486   4.358
 2477SOL    HW3 9939   1.575   0.585   4.259
 2477SOL    MW4 9940   1.589   0.503   4.284
 2478SOL     OW 9941   1.582   0.752   4.185
 2478SOL    HW2 9942   1.667   0.783   4.214
 2478SOL    HW3 9943   1.589   0.748   4.090
 2478SOL    MW4 9944   1.594   0.755   4.176
 2479SOL     OW 9945   1.355   0.875   4.293
 2479SOL    HW2 9946   1.338   0.959   4.250
 2479SOL    HW3 9947   1.435   0.843   4.252
 2479SOL    MW4 9948   1.363   0.882   4.282
 2480SOL     OW 9949   1.301   1.104   4.154
 2480SOL    HW2 9950   1.223   1.158   4.166
 2480SOL    HW3 9951   1.308   1.094   4.059
 2480SOL    MW4 9952   1.291   1.110   4.143
 2481SOL     OW 9953   1.567   1.226   4.205
 2481SOL    HW2 9954   1.579   1.238   4.299
 2481SOL    HW3 9955   1.485   1.177   4.197
 2481SOL    MW4 9956   1.558   1.221   4.216
 2482SOL     OW 9957   1.574   1.505   4.109
 2482SOL    HW2 9958   1.491   1.527   4.152
 2482SOL    HW3 9959   1.581   1.410   4.119
 2482SOL    MW4 9960   1.564   1.495   4.116
 2483SOL     OW 9961   1.334   1.618   4.212
 2483SOL    HW2 9962   1.336   1.704   4.170
 2483SOL    HW3 9963   1.250   1.580   4.186
 2483SOL    MW4 9964   1.324   1.624   4.203
 2484SOL     OW 9965   1.329   1.851   4.087
 2484SOL    HW2 9966   1.401   1.907   4.115
 2484SOL    HW3 9967   1.250   1.903   4.105
 2484SOL    MW4 9968   1.328   1.865   4.093
 2485SOL     OW 9969   1.557   2.013   4.159
 2485SOL    HW2 9970   1.644   1.975   4.143
 2485SOL    HW3 9971   1.569   2.107   4.146
 2485SOL    MW4 9972   1.570   2.020   4.155
 2486SOL     OW 9973   1.587   2.309   4.139
 2486SOL    HW2 9974   1.679   2.310   4.167
 2486SOL    HW3 9975   1.591   2.324   4.045
 2486SOL    MW4 9976   1.600   2.311   4.130
 2487SOL     OW 9977   1.554   2.841   4.280
 2487SOL    HW2 9978   1.524   2.866   4.368
 2487SOL    HW3 9979   1.642   2.807   4.294
 2487SOL    MW4 9980   1.562   2.840   4.294
 2488SOL     OW 9981   1.365   2.698   4.128
 2488SOL    HW2 9982   1.436   2.728   4.185
 2488SOL    HW3 9983   1.285   2.727   4.172
 2488SOL    MW4 9984   1.364   2.706   4.141
 2489SOL     OW 9985   1.613   2.234   4.786
 2489SOL    HW2 9986   1.609   2.330   4.786
 2489SOL    HW3 9987   1.698   2.214   4.747
 2489SOL    MW4 9988   1.623   2.244   4.781
 2490SOL     OW 9989   1.621   3.095   4.159
 2490SOL    HW2 9990   1.687   3.134   4.216
 2490SOL    HW3 9991   1.597   3.013   4.202
 2490SOL    MW4 9992   1.627   3.089   4.172
 2491SOL     OW 9993   1.354   3.198   4.237
 2491SOL    HW2 9994   1.446   3.191   4.214
 2491SOL    HW3 9995   1.335   3.291   4.229
 2491SOL    MW4 9996   1.364   3.209   4.233
 2492SOL     OW 9997   1.343   3.470   4.177
 2492SOL    HW2 9998   1.259   3.505   4.207
 2492SOL    HW3 9999   1.339   3.476   4.082
 2492SOL    MW410000   1.331   3.475   4.168
 2493SOL     OW10001   1.585   3.595   4.278
 2493SOL    HW210002   1.598   3.560   4.367
 2493SOL    HW310003   1.504   3.555   4.248
 2493SOL    MW410004   1.576   3.585   4.286
 2494SOL     OW10005   1.589   3.832   4.153
 2494SOL    HW210006   1.499   3.856   4.175
 2494SOL    HW310007   1.602   3.746   4.194
 2494SOL    MW410008   1.579   3.824   4.161
 2495SOL     OW10009   1.373   3.966   4.256
 2495SOL    HW210010   1.385   3.969   4.351
 2495SOL    HW310011   1.364   4.058   4.230
 2495SOL    MW410012   1.373   3.979   4.265
 2496SOL     OW10013   1.346   4.223   4.172
 2496SOL    HW210014   1.401   4.291   4.211
 2496SOL    HW310015   1.349   4.242   4.078
 2496SOL    MW410016   1.354   4.235   4.165
 2497SOL     OW10017   1.554   4.372   4.284
 2497SOL    HW210018   1.562   4.465   4.262
 2497SOL    HW310019   1.635   4.332   4.253
 2497SOL    MW410020   1.566   4.379   4.277
 2498SOL     OW10021   2.000   4.661   4.172
 2498SOL    HW210022   1.913   4.698   4.191
 2498SOL    HW310023   2.008   4.667   4.077
 2498SOL    MW410024   1.990   4.667   4.162
 2499SOL     OW10025   1.770   0.135   4.250
 2499SOL    HW210026   1.769   0.161   4.342
 2499SOL    HW310027   1.776   0.218   4.202
 2499SOL    MW410028   1.770   0.150   4.256
 2500SOL     OW10029   1.798   0.406   4.154
 2500SOL    HW210030   1.871   0.448   4.199
 2500SOL    HW310031   1.720   0.440   4.198
 2500SOL    MW410032   1.798   0.416   4.166
 2501SOL     OW10033   2.023   0.474   4.267
 2501SOL    HW210034   2.052   0.485   4.358
 2501SOL    HW310035   2.098   0.436   4.222
 2501SOL    MW410036   2.037   0.471   4.273
 2502SOL     OW10037   2.050   0.701   4.114
 2502SOL    HW210038   2.132   0.744   4.141
 2502SOL    HW310039   2.034   0.637   4.183
 2502SOL    MW410040   2.059   0.698   4.127
 2503SOL     OW10041   1.842   0.843   4.253
 2503SOL    HW210042   1.853   0.934   4.227
 2503SOL    HW310043   1.895   0.794   4.191
 2503SOL    MW410044   1.850   0.849   4.241
 2504SOL     OW10045   1.830   1.101   4.178
 2504SOL    HW210046   1.897   1.152   4.224
 2504SOL    HW310047   1.747   1.140   4.206
 2504SOL    MW410048   1.828   1.113   4.188
 2505SOL     OW10049   2.024   1.252   4.267
 2505SOL    HW210050   2.103   1.223   4.221
 2505SOL    HW310051   2.028   1.347   4.265
 2505SOL    MW410052   2.035   1.261   4.261
 2506SOL     OW10053   2.035   1.535   4.213
 2506SOL    HW210054   2.119   1.581   4.221
 2506SOL    HW310055   2.021   1.528   4.119
 2506SOL    MW410056   2.045   1.540   4.202
 2507SOL     OW10057   1.781   1.650   4.231
 2507SOL    HW210058   1.868   1.610   4.220
 2507SOL    HW310059   1.721   1.589   4.186
 2507SOL    MW410060   1.785   1.636   4.224
 2508SOL     OW10061   1.813   1.903   4.132
 2508SOL    HW210062   1.796   1.818   4.172
 2508SOL    HW310063   1.882   1.942   4.185
 2508SOL    MW410064   1.820   1.897   4.144
 2509SOL     OW10065   1.868   2.276   4.133
 2509SOL    HW210066   1.933   2.306   4.069
 2509SOL    HW310067   1.916   2.271   4.216
 2509SOL    MW410068   1.883   2.279   4.135
 2510SOL     OW10069   2.537   2.339   4.219
 2510SOL    HW210070   2.509   2.248   4.217
 2510SOL    HW310071   2.492   2.380   4.145
 2510SOL    MW410072   2.527   2.333   4.209
 2511SOL     OW10073   1.810   2.860   4.427
 2511SOL    HW210074   1.787   2.776   4.468
 2511SOL    HW310075   1.903   2.871   4.446
 2511SOL    MW410076   1.819   2.851   4.435
 2512SOL     OW10077   1.804   2.767   4.118
 2512SOL    HW210078   1.870   2.712   4.161
 2512SOL    HW310079   1.825   2.856   4.147
 2512SOL    MW410080   1.815   2.771   4.128
 2513SOL     OW10081   2.049   3.138   4.336
 2513SOL    HW210082   2.050   3.062   4.395
 2513SOL    HW310083   2.044   3.099   4.248
 2513SOL    MW410084   2.048   3.123   4.332
 2514SOL     OW10085   2.229   2.823   4.142
 2514SOL    HW210086   2.298   2.888   4.156
 2514SOL    HW310087   2.213   2.785   4.229
 2514SOL    MW410088   2.236   2.826   4.155
 2515SOL     OW10089   1.813   3.268   4.293
 2515SOL    HW210090   1.829   3.345   4.240
 2515SOL    HW310091   1.900   3.227   4.302
 2515SOL    MW410092   1.827   3.272   4.287
 2516SOL     OW10093   1.822   3.513   4.166
 2516SOL    HW210094   1.739   3.548   4.200
 2516SOL    HW310095   1.813   3.517   4.071
 2516SOL    MW410096   1.810   3.518   4.158
 2517SOL     OW10097   2.062   3.597   4.279
 2517SOL    HW210098   2.054   3.687   4.248
 2517SOL    HW310099   1.989   3.551   4.238
 2517SOL    MW410100   2.051   3.603   4.270
 2518SOL     OW10101   2.044   3.849   4.175
 2518SOL    HW210102   1.961   3.892   4.198
 2518SOL    HW310103   2.045   3.850   4.079
 2518SOL    MW410104   2.033   3.855   4.166
 2519SOL     OW10105   1.799   4.004   4.252
 2519SOL    HW210106   1.796   4.092   4.213
 2519SOL    HW310107   1.720   3.961   4.219
 2519SOL    MW410108   1.788   4.010   4.243
 2520SOL     OW10109   1.761   4.263   4.177
 2520SOL    HW210110   1.837   4.308   4.215
 2520SOL    HW310111   1.775   4.268   4.083
 2520SOL    MW410112   1.773   4.270   4.170
 2521SOL     OW10113   2.007   4.390   4.260
 2521SOL    HW210114   2.019   4.385   4.355
 2521SOL    HW310115   1.995   4.483   4.241
 2521SOL    MW410116   2.007   4.401   4.270
 2522SOL     OW10117   2.426   4.659   4.133
 2522SOL    HW210118   2.513   4.684   4.164
 2522SOL    HW310119   2.412   4.571   4.169
 2522SOL    MW410120   2.436   4.651   4.142
 2523SOL     OW10121   2.220   0.120   4.258
 2523SOL    HW210122   2.287   0.066   4.216
 2523SOL    HW310123   2.137   0.078   4.234
 2523SOL    MW410124   2.218   0.107   4.249
 2524SOL     OW10125   2.246   0.370   4.146
 2524SOL    HW210126   2.241   0.284   4.187
 2524SOL    HW310127   2.270   0.353   4.055
 2524SOL    MW410128   2.248   0.357   4.140
 2525SOL     OW10129   2.477   0.490   4.228
 2525SOL    HW210130   2.486   0.476   4.322
 2525SOL    HW310131   2.396   0.445   4.205
 2525SOL    MW410132   2.468   0.482   4.237
 2526SOL     OW10133   2.530   0.751   4.156
 2526SOL    HW210134   2.515   0.660   4.180
 2526SOL    HW310135   2.531   0.752   4.061
 2526SOL    MW410136   2.528   0.739   4.147
 2527SOL     OW10137   2.273   0.843   4.256
 2527SOL    HW210138   2.291   0.876   4.344
 2527SOL    HW310139   2.358   0.812   4.224
 2527SOL    MW410140   2.287   0.843   4.263
 2528SOL     OW10141   2.269   1.136   4.173
 2528SOL    HW210142   2.341   1.168   4.227
 2528SOL    HW310143   2.278   1.041   4.175
 2528SOL    MW410144   2.279   1.128   4.180
 2529SOL     OW10145   2.469   1.298   4.282
 2529SOL    HW210146   2.475   1.298   4.377
 2529SOL    HW310147   2.554   1.266   4.253
 2529SOL    MW410148   2.481   1.294   4.291
 2530SOL     OW10149   2.481   1.554   4.148
 2530SOL    HW210150   2.485   1.469   4.190
 2530SOL    HW310151   2.467   1.535   4.055
 2530SOL    MW410152   2.480   1.540   4.141
 2531SOL     OW10153   2.259   1.673   4.255
 2531SOL    HW210154   2.336   1.631   4.218
 2531SOL    HW310155   2.261   1.762   4.220
 2531SOL    MW410156   2.269   1.679   4.245
 2532SOL     OW10157   2.230   1.944   4.186
 2532SOL    HW210158   2.297   2.007   4.214
 2532SOL    HW310159   2.157   1.959   4.246
 2532SOL    MW410160   2.229   1.955   4.198
 2533SOL     OW10161   2.445   2.061   4.295
 2533SOL    HW210162   2.447   2.023   4.382
 2533SOL    HW310163   2.508   2.010   4.245
 2533SOL    MW410164   2.453   2.049   4.300
 2534SOL     OW10165   2.788   2.597   4.348
 2534SOL    HW210166   2.777   2.508   4.382
 2534SOL    HW310167   2.866   2.630   4.392
 2534SOL    MW410168   2.797   2.590   4.359
 2535SOL     OW10169   2.430   2.429   4.588
 2535SOL    HW210170   2.386   2.471   4.513
 2535SOL    HW310171   2.449   2.501   4.648
 2535SOL    MW410172   2.427   2.444   4.586
 2536SOL     OW10173   1.980   2.588   4.278
 2536SOL    HW210174   2.038   2.648   4.325
 2536SOL    HW310175   2.034   2.554   4.206
 2536SOL    MW410176   1.995   2.591   4.274
 2537SOL     OW10177   2.519   2.750   4.430
 2537SOL    HW210178   2.478   2.674   4.389
 2537SOL    HW310179   2.449   2.789   4.484
 2537SOL    MW410180   2.504   2.745   4.432
 2538SOL     OW10181   2.416   3.029   4.148
 2538SOL    HW210182   2.494   3.004   4.197
 2538SOL    HW310183   2.376   3.099   4.201
 2538SOL    MW410184   2.421   3.035   4.161
 2539SOL     OW10185   1.995   3.025   4.089
 2539SOL    HW210186   2.000   3.052   3.997
 2539SOL    HW310187   2.044   2.944   4.093
 2539SOL    MW410188   2.002   3.018   4.077
 2540SOL     OW10189   2.266   3.460   4.165
 2540SOL    HW210190   2.290   3.392   4.229
 2540SOL    HW310191   2.204   3.515   4.212
 2540SOL    MW410192   2.261   3.458   4.180
 2541SOL     OW10193   2.474   3.593   4.262
 2541SOL    HW210194   2.410   3.542   4.213
 2541SOL    HW310195   2.457   3.684   4.238
 2541SOL    MW410196   2.463   3.598   4.252
 2542SOL     OW10197   2.466   3.864   4.155
 2542SOL    HW210198   2.544   3.908   4.188
 2542SOL    HW310199   2.457   3.895   4.065
 2542SOL    MW410200   2.475   3.874   4.147
 2543SOL     OW10201   2.251   3.983   4.303
 2543SOL    HW210202   2.333   3.955   4.261
 2543SOL    HW310203   2.184   3.927   4.265
 2543SOL    MW410204   2.253   3.972   4.292
 2544SOL     OW10205   2.211   4.212   4.149
 2544SOL    HW210206   2.217   4.134   4.204
 2544SOL    HW310207   2.138   4.262   4.187
 2544SOL    MW410208   2.202   4.209   4.161
 2545SOL     OW10209   2.415   4.384   4.220
 2545SOL    HW210210   2.489   4.341   4.177
 2545SOL    HW310211   2.338   4.335   4.192
 2545SOL    MW410212   2.415   4.372   4.211
 2546SOL     OW10213   2.935   4.660   4.105
 2546SOL    HW210214   2.988   4.682   4.182
 2546SOL    HW310215   2.908   4.569   4.120
 2546SOL    MW410216   2.938   4.651   4.117
 2547SOL     OW10217   2.677   0.090   4.170
 2547SOL    HW210218   2.680   0.183   4.146
 2547SOL    HW310219   2.767   0.059   4.155
 2547SOL    MW410220   2.689   0.098   4.165
 2548SOL     OW10221   2.704   0.362   4.142
 2548SOL    HW210222   2.615   0.392   4.162
 2548SOL    HW310223   2.715   0.380   4.048
 2548SOL    MW410224   2.693   0.368   4.132
 2549SOL     OW10225   2.909   0.493   4.276
 2549SOL    HW210226   2.911   0.577   4.231
 2549SOL    HW310227   2.834   0.447   4.238
 2549SOL    MW410228   2.900   0.498   4.265
 2550SOL     OW10229   2.934   0.750   4.132
 2550SOL    HW210230   3.008   0.796   4.173
 2550SOL    HW310231   2.943   0.767   4.039
 2550SOL    MW410232   2.945   0.758   4.125
 2551SOL     OW10233   2.732   0.917   4.238
 2551SOL    HW210234   2.798   0.855   4.205
 2551SOL    HW310235   2.649   0.870   4.230
 2551SOL    MW410236   2.730   0.902   4.232
 2552SOL     OW10237   2.709   1.187   4.172
 2552SOL    HW210238   2.722   1.096   4.200
 2552SOL    HW310239   2.701   1.182   4.077
 2552SOL    MW410240   2.710   1.174   4.163
 2553SOL     OW10241   2.956   1.283   4.243
 2553SOL    HW210242   3.018   1.233   4.191
 2553SOL    HW310243   2.871   1.243   4.225
 2553SOL    MW410244   2.953   1.271   4.234
 2554SOL     OW10245   2.964   1.527   4.111
 2554SOL    HW210246   3.043   1.572   4.139
 2554SOL    HW310247   2.965   1.444   4.158
 2554SOL    MW410248   2.974   1.522   4.121
 2555SOL     OW10249   2.733   1.670   4.227
 2555SOL    HW210250   2.798   1.619   4.179
 2555SOL    HW310251   2.649   1.637   4.198
 2555SOL    MW410252   2.731   1.659   4.217
 2556SOL     OW10253   2.666   1.929   4.174
 2556SOL    HW210254   2.683   1.844   4.215
 2556SOL    HW310255   2.706   1.923   4.088
 2556SOL    MW410256   2.673   1.917   4.168
 2557SOL     OW10257   2.903   2.082   4.268
 2557SOL    HW210258   2.900   2.173   4.238
 2557SOL    HW310259   2.821   2.044   4.237
 2557SOL    MW410260   2.892   2.089   4.260
 2558SOL     OW10261   2.858   2.323   4.126
 2558SOL    HW210262   2.914   2.389   4.165
 2558SOL    HW310263   2.769   2.350   4.148
 2558SOL    MW410264   2.853   2.335   4.134
 2559SOL     OW10265   2.603   2.683   4.110
 2559SOL    HW210266   2.578   2.770   4.142
 2559SOL    HW310267   2.660   2.648   4.178
 2559SOL    MW410268   2.607   2.690   4.123
 2560SOL     OW10269   2.644   2.935   4.277
 2560SOL    HW210270   2.608   2.870   4.338
 2560SOL    HW310271   2.672   3.007   4.333
 2560SOL    MW410272   2.643   2.936   4.292
 2561SOL     OW10273   2.907   2.931   4.159
 2561SOL    HW210274   2.821   2.932   4.201
 2561SOL    HW310275   2.896   2.984   4.080
 2561SOL    MW410276   2.894   2.938   4.154
 2562SOL     OW10277   3.014   3.132   4.312
 2562SOL    HW210278   2.999   3.103   4.402
 2562SOL    HW310279   2.991   3.056   4.258
 2562SOL    MW410280   3.009   3.118   4.316
 2563SOL     OW10281   2.766   3.255   4.303
 2563SOL    HW210282   2.754   3.286   4.393
 2563SOL    HW310283   2.859   3.231   4.298
 2563SOL    MW410284   2.777   3.256   4.314
 2564SOL     OW10285   2.719   3.492   4.144
 2564SOL    HW210286   2.713   3.407   4.186
 2564SOL    HW310287   2.634   3.532   4.159
 2564SOL    MW410288   2.707   3.486   4.152
 2565SOL     OW10289   2.953   3.605   4.240
 2565SOL    HW210290   2.958   3.596   4.336
 2565SOL    HW310291   2.866   3.573   4.218
 2565SOL    MW410292   2.942   3.600   4.250
 2566SOL     OW10293   2.909   3.878   4.147
 2566SOL    HW210294   2.983   3.934   4.169
 2566SOL    HW310295   2.931   3.793   4.185
 2566SOL    MW410296   2.921   3.874   4.155
 2567SOL     OW10297   2.686   3.992   4.273
 2567SOL    HW210298   2.685   4.084   4.248
 2567SOL    HW310299   2.759   3.955   4.223
 2567SOL    MW410300   2.696   3.999   4.263
 2568SOL     OW10301   2.646   4.263   4.109
 2568SOL    HW210302   2.724   4.308   4.143
 2568SOL    HW310303   2.663   4.253   4.016
 2568SOL    MW410304   2.658   4.268   4.101
 2569SOL     OW10305   2.871   4.389   4.210
 2569SOL    HW210306   2.859   4.398   4.305
 2569SOL    HW310307   2.958   4.350   4.201
 2569SOL    MW410308   2.881   4.385   4.222
 2570SOL     OW10309   3.330   0.020   4.169
 2570SOL    HW210310   3.423   0.043   4.173
 2570SOL    HW310311   3.326  -0.068   4.207
 2570SOL    MW410312   3.342   0.011   4.174
 2571SOL     OW10313   3.108   0.104   4.295
 2571SOL    HW210314   3.116   0.076   4.386
 2571SOL    HW310315   3.192   0.080   4.255
 2571SOL    MW410316   3.120   0.097   4.301
 2572SOL     OW10317   3.105   0.345   4.166
 2572SOL    HW210318   3.103   0.268   4.223
 2572SOL    HW310319   3.023   0.390   4.185
 2572SOL    MW410320   3.094   0.341   4.176
 2573SOL     OW10321   3.321   0.494   4.257
 2573SOL    HW210322   3.402   0.447   4.236
 2573SOL    HW310323   3.252   0.437   4.225
 2573SOL    MW410324   3.323   0.480   4.250
 2574SOL     OW10325   3.364   0.776   4.151
 2574SOL    HW210326   3.284   0.816   4.186
 2574SOL    HW310327   3.351   0.682   4.161
 2574SOL    MW410328   3.352   0.769   4.157
 2575SOL     OW10329   3.119   0.917   4.238
 2575SOL    HW210330   3.148   0.954   4.321
 2575SOL    HW310331   3.117   0.992   4.178
 2575SOL    MW410332   3.123   0.932   4.241
 2576SOL     OW10333   3.149   1.137   4.091
 2576SOL    HW210334   3.233   1.168   4.122
 2576SOL    HW310335   3.155   1.143   3.995
 2576SOL    MW410336   3.161   1.142   4.082
 2577SOL     OW10337   3.381   1.156   4.267
 2577SOL    HW210338   3.328   1.116   4.336
 2577SOL    HW310339   3.389   1.248   4.293
 2577SOL    MW410340   3.375   1.163   4.280
 2578SOL     OW10341   3.338   1.421   4.347
 2578SOL    HW210342   3.311   1.478   4.274
 2578SOL    HW310343   3.429   1.447   4.364
 2578SOL    MW410344   3.346   1.432   4.340
 2579SOL     OW10345   3.173   1.661   4.252
 2579SOL    HW210346   3.140   1.644   4.340
 2579SOL    HW310347   3.146   1.751   4.233
 2579SOL    MW410348   3.165   1.671   4.261
 2580SOL     OW10349   3.131   1.942   4.153
 2580SOL    HW210350   3.205   1.990   4.190
 2580SOL    HW310351   3.054   1.989   4.184
 2580SOL    MW410352   3.131   1.955   4.162
 2581SOL     OW10353   3.309   2.112   4.264
 2581SOL    HW210354   3.388   2.065   4.240
 2581SOL    HW310355   3.318   2.197   4.222
 2581SOL    MW410356   3.320   2.117   4.255
 2582SOL     OW10357   3.331   2.354   4.138
 2582SOL    HW210358   3.412   2.383   4.181
 2582SOL    HW310359   3.351   2.357   4.045
 2582SOL    MW410360   3.345   2.358   4.132
 2583SOL     OW10361   3.084   2.466   4.257
 2583SOL    HW210362   3.100   2.550   4.214
 2583SOL    HW310363   3.153   2.409   4.225
 2583SOL    MW410364   3.095   2.470   4.247
 2584SOL     OW10365   3.079   2.711   4.130
 2584SOL    HW210366   3.159   2.750   4.166
 2584SOL    HW310367   3.012   2.777   4.146
 2584SOL    MW410368   3.081   2.725   4.137
 2585SOL     OW10369   3.341   2.779   4.253
 2585SOL    HW210370   3.424   2.736   4.236
 2585SOL    HW310371   3.355   2.870   4.228
 2585SOL    MW410372   3.354   2.786   4.248
 2586SOL     OW10373   3.422   3.043   4.188
 2586SOL    HW210374   3.376   3.116   4.228
 2586SOL    HW310375   3.422   3.062   4.094
 2586SOL    MW410376   3.416   3.055   4.181
 2587SOL     OW10377   3.257   3.271   4.262
 2587SOL    HW210378   3.244   3.354   4.217
 2587SOL    HW310379   3.168   3.240   4.282
 2587SOL    MW410380   3.243   3.278   4.259
 2588SOL     OW10381   3.179   3.496   4.135
 2588SOL    HW210382   3.094   3.534   4.160
 2588SOL    HW310383   3.177   3.493   4.040
 2588SOL    MW410384   3.167   3.501   4.126
 2589SOL     OW10385   3.383   3.633   4.239
 2589SOL    HW210386   3.371   3.602   4.328
 2589SOL    HW310387   3.314   3.590   4.189
 2589SOL    MW410388   3.373   3.623   4.244
 2590SOL     OW10389   3.382   3.887   4.124
 2590SOL    HW210390   3.399   3.803   4.167
 2590SOL    HW310391   3.397   3.870   4.031
 2590SOL    MW410392   3.386   3.874   4.118
 2591SOL     OW10393   3.153   3.990   4.235
 2591SOL    HW210394   3.164   3.983   4.330
 2591SOL    HW310395   3.228   3.942   4.199
 2591SOL    MW410396   3.165   3.983   4.243
 2592SOL     OW10397   3.120   4.268   4.172
 2592SOL    HW210398   3.197   4.311   4.210
 2592SOL    HW310399   3.131   4.175   4.191
 2592SOL    MW410400   3.132   4.262   4.179
 2593SOL     OW10401   3.334   4.432   4.282
 2593SOL    HW210402   3.344   4.390   4.367
 2593SOL    HW310403   3.401   4.391   4.227
 2593SOL    MW410404   3.344   4.421   4.286
 2594SOL     OW10405   3.844   0.009   4.172
 2594SOL    HW210406   3.918   0.052   4.214
 2594SOL    HW310407   3.852   0.032   4.079
 2594SOL    MW410408   3.855   0.017   4.165
 2595SOL     OW10409   3.591   0.113   4.210
 2595SOL    HW210410   3.588   0.208   4.199
 2595SOL    HW310411   3.684   0.093   4.221
 2595SOL    MW410412   3.603   0.123   4.210
 2596SOL     OW10413   3.565   0.377   4.167
 2596SOL    HW210414   3.650   0.408   4.198
 2596SOL    HW310415   3.564   0.399   4.074
 2596SOL    MW410416   3.576   0.384   4.159
 2597SOL     OW10417   3.796   0.469   4.284
 2597SOL    HW210418   3.797   0.430   4.371
 2597SOL    HW310419   3.738   0.545   4.293
 2597SOL    MW410420   3.788   0.474   4.297
 2598SOL     OW10421   3.787   0.867   4.128
 2598SOL    HW210422   3.737   0.948   4.135
 2598SOL    HW310423   3.813   0.862   4.036
 2598SOL    MW410424   3.784   0.877   4.117
 2599SOL     OW10425   3.607   0.715   4.280
 2599SOL    HW210426   3.523   0.729   4.236
 2599SOL    HW310427   3.666   0.777   4.237
 2599SOL    MW410428   3.604   0.725   4.269
 2600SOL     OW10429   3.621   1.081   4.132
 2600SOL    HW210430   3.539   1.096   4.178
 2600SOL    HW310431   3.605   1.113   4.043
 2600SOL    MW410432   3.608   1.087   4.127
 2601SOL     OW10433   3.752   1.291   4.278
 2601SOL    HW210434   3.700   1.214   4.255
 2601SOL    HW310435   3.753   1.291   4.374
 2601SOL    MW410436   3.745   1.281   4.288
 2602SOL     OW10437   3.729   1.525   4.120
 2602SOL    HW210438   3.745   1.448   4.174
 2602SOL    HW310439   3.741   1.599   4.180
 2602SOL    MW410440   3.732   1.525   4.135
 2603SOL     OW10441   3.543   1.981   4.189
 2603SOL    HW210442   3.541   1.958   4.096
 2603SOL    HW310443   3.523   1.900   4.235
 2603SOL    MW410444   3.540   1.967   4.183
 2604SOL     OW10445   3.433   1.562   4.102
 2604SOL    HW210446   3.527   1.547   4.098
 2604SOL    HW310447   3.409   1.582   4.011
 2604SOL    MW410448   3.442   1.563   4.089
 2605SOL     OW10449   3.800   2.083   4.228
 2605SOL    HW210450   3.804   2.085   4.324
 2605SOL    HW310451   3.710   2.054   4.209
 2605SOL    MW410452   3.788   2.079   4.238
 2606SOL     OW10453   3.861   2.358   4.168
 2606SOL    HW210454   3.831   2.269   4.189
 2606SOL    HW310455   3.853   2.363   4.072
 2606SOL    MW410456   3.856   2.347   4.158
 2607SOL     OW10457   3.590   2.432   4.240
 2607SOL    HW210458   3.583   2.437   4.336
 2607SOL    HW310459   3.683   2.415   4.223
 2607SOL    MW410460   3.601   2.430   4.251
 2608SOL     OW10461   3.594   2.699   4.154
 2608SOL    HW210462   3.589   2.605   4.170
 2608SOL    HW310463   3.575   2.709   4.061
 2608SOL    MW410464   3.591   2.688   4.144
 2609SOL     OW10465   3.807   2.850   4.262
 2609SOL    HW210466   3.839   2.798   4.336
 2609SOL    HW310467   3.743   2.792   4.220
 2609SOL    MW410468   3.803   2.835   4.267
 2610SOL     OW10469   3.862   3.121   4.164
 2610SOL    HW210470   3.851   3.033   4.199
 2610SOL    HW310471   3.854   3.110   4.069
 2610SOL    MW410472   3.860   3.108   4.156
 2611SOL     OW10473   3.611   3.260   4.225
 2611SOL    HW210474   3.700   3.229   4.241
 2611SOL    HW310475   3.558   3.181   4.222
 2611SOL    MW410476   3.616   3.246   4.227
 2612SOL     OW10477   3.623   3.542   4.137
 2612SOL    HW210478   3.621   3.453   4.172
 2612SOL    HW310479   3.551   3.587   4.182
 2612SOL    MW410480   3.613   3.536   4.147
 2613SOL     OW10481   3.847   3.702   4.208
 2613SOL    HW210482   3.934   3.667   4.183
 2613SOL    HW310483   3.785   3.640   4.168
 2613SOL    MW410484   3.851   3.689   4.200
 2614SOL     OW10485   3.791   3.952   4.110
 2614SOL    HW210486   3.723   3.987   4.167
 2614SOL    HW310487   3.804   3.862   4.141
 2614SOL    MW410488   3.784   3.944   4.121
 2615SOL     OW10489   3.571   4.041   4.257
 2615SOL    HW210490   3.578   4.022   4.350
 2615SOL    HW310491   3.497   3.988   4.227
 2615SOL    MW410492   3.562   4.031   4.265
 2616SOL     OW10493   3.576   4.315   4.158
 2616SOL    HW210494   3.644   4.355   4.211
 2616SOL    HW310495   3.574   4.223   4.185
 2616SOL    MW410496   3.585   4.308   4.168
 2617SOL     OW10497   3.799   4.426   4.274
 2617SOL    HW210498   3.869   4.379   4.227
 2617SOL    HW310499   3.805   4.516   4.241
 2617SOL    MW410500   3.809   4.431   4.263
 2618SOL     OW10501   4.257   0.028   4.145
 2618SOL    HW210502   4.252  -0.056   4.192
 2618SOL    HW310503   4.344   0.062   4.165
 2618SOL    MW410504   4.267   0.021   4.154
 2619SOL     OW10505   4.061   0.171   4.283
 2619SOL    HW210506   4.063   0.263   4.258
 2619SOL    HW310507   4.133   0.131   4.235
 2619SOL    MW410508   4.071   0.178   4.273
 2620SOL     OW10509   4.040   0.425   4.191
 2620SOL    HW210510   4.105   0.477   4.238
 2620SOL    HW310511   3.959   0.437   4.241
 2620SOL    MW410512   4.038   0.433   4.204
 2621SOL     OW10513   4.245   0.560   4.309
 2621SOL    HW210514   4.244   0.647   4.268
 2621SOL    HW310515   4.318   0.514   4.268
 2621SOL    MW410516   4.254   0.566   4.298
 2622SOL     OW10517   4.275   0.800   4.185
 2622SOL    HW210518   4.190   0.838   4.209
 2622SOL    HW310519   4.275   0.799   4.090
 2622SOL    MW410520   4.263   0.805   4.176
 2623SOL     OW10521   4.016   0.928   4.252
 2623SOL    HW210522   4.020   1.007   4.197
 2623SOL    HW310523   3.940   0.880   4.219
 2623SOL    MW410524   4.006   0.932   4.240
 2624SOL     OW10525   4.016   1.174   4.127
 2624SOL    HW210526   4.097   1.208   4.166
 2624SOL    HW310527   3.947   1.226   4.169
 2624SOL    MW410528   4.017   1.186   4.138
 2625SOL     OW10529   4.230   1.266   4.259
 2625SOL    HW210530   4.216   1.256   4.353
 2625SOL    HW310531   4.324   1.249   4.247
 2625SOL    MW410532   4.240   1.262   4.270
 2626SOL     OW10533   4.238   1.551   4.158
 2626SOL    HW210534   4.225   1.464   4.197
 2626SOL    HW310535   4.244   1.535   4.064
 2626SOL    MW410536   4.237   1.537   4.151
 2627SOL     OW10537   4.066   1.735   4.316
 2627SOL    HW210538   4.113   1.765   4.394
 2627SOL    HW310539   4.125   1.672   4.275
 2627SOL    MW410540   4.080   1.731   4.321
 2628SOL     OW10541   4.017   1.941   4.134
 2628SOL    HW210542   4.028   1.864   4.190
 2628SOL    HW310543   3.942   1.987   4.172
 2628SOL    MW410544   4.009   1.937   4.147
 2629SOL     OW10545   4.442   1.980   4.084
 2629SOL    HW210546   4.523   2.024   4.110
 2629SOL    HW310547   4.372   2.031   4.123
 2629SOL    MW410548   4.444   1.992   4.092
 2630SOL     OW10549   4.273   2.387   4.096
 2630SOL    HW210550   4.229   2.431   4.169
 2630SOL    HW310551   4.256   2.294   4.111
 2630SOL    MW410552   4.265   2.381   4.108
 2631SOL     OW10553   4.074   2.500   4.272
 2631SOL    HW210554   4.115   2.459   4.348
 2631SOL    HW310555   4.006   2.439   4.245
 2631SOL    MW410556   4.071   2.486   4.279
 2632SOL     OW10557   4.062   2.755   4.154
 2632SOL    HW210558   4.078   2.667   4.189
 2632SOL    HW310559   3.986   2.786   4.202
 2632SOL    MW410560   4.054   2.747   4.165
 2633SOL     OW10561   4.271   2.906   4.251
 2633SOL    HW210562   4.195   2.859   4.218
 2633SOL    HW310563   4.346   2.861   4.212
 2633SOL    MW410564   4.271   2.894   4.242
 2634SOL     OW10565   4.287   3.152   4.130
 2634SOL    HW210566   4.282   3.069   4.177
 2634SOL    HW310567   4.290   3.126   4.037
 2634SOL    MW410568   4.287   3.137   4.124
 2635SOL     OW10569   4.070   3.267   4.256
 2635SOL    HW210570   4.146   3.242   4.203
 2635SOL    HW310571   3.996   3.223   4.213
 2635SOL    MW410572   4.071   3.258   4.243
 2636SOL     OW10573   4.051   3.533   4.149
 2636SOL    HW210574   4.043   3.443   4.179
 2636SOL    HW310575   4.046   3.527   4.053
 2636SOL    MW410576   4.049   3.520   4.140
 2637SOL     OW10577   4.297   3.644   4.225
 2637SOL    HW210578   4.293   3.731   4.187
 2637SOL    HW310579   4.213   3.604   4.205
 2637SOL    MW410580   4.286   3.650   4.218
 2638SOL     OW10581   4.271   3.897   4.147
 2638SOL    HW210582   4.192   3.944   4.173
 2638SOL    HW310583   4.260   3.884   4.053
 2638SOL    MW410584   4.259   3.902   4.138
 2639SOL     OW10585   4.035   4.038   4.198
 2639SOL    HW210586   4.059   3.993   4.280
 2639SOL    HW310587   3.946   4.008   4.179
 2639SOL    MW410588   4.027   4.028   4.206
 2640SOL     OW10589   4.043   4.328   4.166
 2640SOL    HW210590   4.108   4.368   4.223
 2640SOL    HW310591   4.046   4.235   4.189
 2640SOL    MW410592   4.052   4.321   4.176
 2641SOL     OW10593   4.089   4.193   4.602
 2641SOL    HW210594   4.110   4.181   4.694
 2641SOL    HW310595   4.001   4.230   4.602
 2641SOL    MW410596   4.080   4.196   4.614
 2642SOL     OW10597   4.150   4.127   4.848
 2642SOL    HW210598   4.143   4.033   4.830
 2642SOL    HW310599   4.228   4.134   4.904
 2642SOL    MW410600   4.160   4.115   4.853
 2643SOL     OW10601   4.255   4.406   4.541
 2643SOL    HW210602   4.231   4.493   4.574
 2643SOL    HW310603   4.178   4.352   4.556
 2643SOL    MW410604   4.242   4.410   4.547
 2644SOL     OW10605   3.819   4.590   4.633
 2644SOL    HW210606   3.784   4.619   4.717
 2644SOL    HW310607   3.762   4.629   4.567
 2644SOL    MW410608   3.807   4.599   4.635
 2645SOL     OW10609   4.183   1.813   4.585
 2645SOL    HW210610   4.266   1.860   4.595
 2645SOL    HW310611   4.208   1.720   4.588
 2645SOL    MW410612   4.198   1.807   4.587
 2646SOL     OW10613   0.463   0.040   4.552
 2646SOL    HW210614   0.369   0.038   4.568
 2646SOL    HW310615   0.490  -0.052   4.554
 2646SOL    MW410616   0.454   0.028   4.554
 2647SOL     OW10617   0.195   0.776   4.589
 2647SOL    HW210618   0.208   0.685   4.564
 2647SOL    HW310619   0.206   0.776   4.684
 2647SOL    MW410620   0.198   0.764   4.598
 2648SOL     OW10621   4.239   0.763   4.590
 2648SOL    HW210622   4.251   0.668   4.591
 2648SOL    HW310623   4.327   0.798   4.574
 2648SOL    MW410624   4.252   0.755   4.588
 2649SOL     OW10625   0.770   1.417   4.496
 2649SOL    HW210626   0.807   1.504   4.507
 2649SOL    HW310627   0.683   1.423   4.536
 2649SOL    MW410628   0.763   1.429   4.503
 2650SOL     OW10629   1.235   1.964   4.413
 2650SOL    HW210630   1.328   1.954   4.433
 2650SOL    HW310631   1.204   2.029   4.475
 2650SOL    MW410632   1.244   1.972   4.424
 2651SOL     OW10633   4.167   1.249   4.532
 2651SOL    HW210634   4.136   1.159   4.531
 2651SOL    HW310635   4.262   1.242   4.545
 2651SOL    MW410636   4.176   1.236   4.534
 2652SOL     OW10637   0.051   1.775   4.469
 2652SOL    HW210638   0.023   1.778   4.377
 2652SOL    HW310639   0.022   1.858   4.506
 2652SOL    MW410640   0.044   1.786   4.461
 2653SOL     OW10641   0.391   1.725   4.217
 2653SOL    HW210642   0.327   1.666   4.179
 2653SOL    HW310643   0.476   1.684   4.198
 2653SOL    MW410644   0.394   1.712   4.210
 2654SOL     OW10645   4.451   2.033   4.549
 2654SOL    HW210646   4.374   2.076   4.514
 2654SOL    HW310647   4.525   2.088   4.522
 2654SOL    MW410648   4.451   2.046   4.541
 2655SOL     OW10649   4.225   2.431   4.524
 2655SOL    HW210650   4.314   2.466   4.536
 2655SOL    HW310651   4.178   2.462   4.601
 2655SOL    MW410652   4.231   2.440   4.536
 2656SOL     OW10653   0.731   3.107   4.616
 2656SOL    HW210654   0.747   3.015   4.595
 2656SOL    HW310655   0.773   3.120   4.701
 2656SOL    MW410656   0.738   3.097   4.625
 2657SOL     OW10657   0.476   3.245   4.541
 2657SOL    HW210658   0.559   3.207   4.568
 2657SOL    HW310659   0.485   3.338   4.560
 2657SOL    MW410660   0.488   3.252   4.547
 2658SOL     OW10661   0.043   2.466   4.468
 2658SOL    HW210662   0.030   2.491   4.377
 2658SOL    HW310663   0.104   2.531   4.502
 2658SOL    MW410664   0.049   2.478   4.460
 2659SOL     OW10665   4.077   3.482   4.600
 2659SOL    HW210666   4.066   3.387   4.599
 2659SOL    HW310667   4.085   3.504   4.693
 2659SOL    MW410668   4.076   3.472   4.612
 2660SOL     OW10669   0.501   3.556   4.566
 2660SOL    HW210670   0.501   3.649   4.592
 2660SOL    HW310671   0.413   3.541   4.533
 2660SOL    MW410672   0.490   3.566   4.565
 2661SOL     OW10673   4.328   3.849   4.569
 2661SOL    HW210674   4.244   3.880   4.535
 2661SOL    HW310675   4.336   3.759   4.536
 2661SOL    MW410676   4.318   3.841   4.560
 2662SOL     OW10677   4.481   0.117   4.573
 2662SOL    HW210678   4.393   0.089   4.596
 2662SOL    HW310679   4.492   0.202   4.615
 2662SOL    MW410680   4.471   0.124   4.581
 2663SOL     OW10681   3.790   0.362   4.544
 2663SOL    HW210682   3.704   0.333   4.574
 2663SOL    HW310683   3.806   0.444   4.593
 2663SOL    MW410684   3.781   0.369   4.555
 2664SOL     OW10685   4.044   3.727   4.818
 2664SOL    HW210686   4.000   3.758   4.897
 2664SOL    HW310687   4.134   3.757   4.827
 2664SOL    MW410688   4.050   3.735   4.830
 2665SOL     OW10689   3.874   3.813   4.596
 2665SOL    HW210690   3.845   3.732   4.555
 2665SOL    HW310691   3.928   3.785   4.670
 2665SOL    MW410692   3.877   3.799   4.601
 2666SOL     OW10693   0.611   4.434   4.574
 2666SOL    HW210694   0.649   4.414   4.489
 2666SOL    HW310695   0.544   4.366   4.587
 2666SOL    MW410696   0.607   4.422   4.565
 2667SOL     OW10697   3.994   0.768   4.750
 2667SOL    HW210698   4.072   0.765   4.695
 2667SOL    HW310699   3.945   0.844   4.717
 2667SOL    MW410700   3.998   0.777   4.738
 2668SOL     OW10701   1.103   0.802   4.631
 2668SOL    HW210702   1.039   0.732   4.617
 2668SOL    HW310703   1.064   0.878   4.590
 2668SOL    MW410704   1.090   0.802   4.624
 2669SOL     OW10705   0.899   0.327   4.712
 2669SOL    HW210706   0.822   0.305   4.660
 2669SOL    HW310707   0.971   0.283   4.666
 2669SOL    MW410708   0.898   0.318   4.699
 2670SOL     OW10709   0.868   0.939   4.515
 2670SOL    HW210710   0.864   0.893   4.431
 2670SOL    HW310711   0.811   0.888   4.573
 2670SOL    MW410712   0.860   0.926   4.511
 2671SOL     OW10713   0.413   0.927   4.478
 2671SOL    HW210714   0.333   0.878   4.496
 2671SOL    HW310715   0.443   0.895   4.393
 2671SOL    MW410716   0.407   0.917   4.469
 2672SOL     OW10717   2.150   1.180   4.523
 2672SOL    HW210718   2.128   1.206   4.434
 2672SOL    HW310719   2.202   1.253   4.557
 2672SOL    MW410720   2.154   1.193   4.516
 2673SOL     OW10721   0.311   1.611   4.465
 2673SOL    HW210722   0.252   1.675   4.506
 2673SOL    HW310723   0.340   1.655   4.385
 2673SOL    MW410724   0.307   1.625   4.460
 2674SOL     OW10725   1.446   1.155   4.637
 2674SOL    HW210726   1.431   1.070   4.596
 2674SOL    HW310727   1.364   1.203   4.621
 2674SOL    MW410728   1.433   1.150   4.629
 2675SOL     OW10729   0.850   1.686   4.513
 2675SOL    HW210730   0.813   1.771   4.535
 2675SOL    HW310731   0.930   1.680   4.564
 2675SOL    MW410732   0.855   1.696   4.523
 2676SOL     OW10733   0.664   2.148   4.471
 2676SOL    HW210734   0.737   2.210   4.475
 2676SOL    HW310735   0.700   2.067   4.507
 2676SOL    MW410736   0.679   2.145   4.476
 2677SOL     OW10737   1.132   1.749   4.555
 2677SOL    HW210738   1.199   1.681   4.540
 2677SOL    HW310739   1.154   1.818   4.492
 2677SOL    MW410740   1.144   1.749   4.544
 2678SOL     OW10741   0.421   2.294   4.480
 2678SOL    HW210742   0.495   2.234   4.482
 2678SOL    HW310743   0.439   2.353   4.406
 2678SOL    MW410744   0.433   2.294   4.470
 2679SOL     OW10745   1.129   2.685   4.705
 2679SOL    HW210746   1.101   2.770   4.672
 2679SOL    HW310747   1.224   2.692   4.713
 2679SOL    MW410748   1.138   2.697   4.702
 2680SOL     OW10749   0.690   2.591   4.601
 2680SOL    HW210750   0.617   2.560   4.653
 2680SOL    HW310751   0.713   2.518   4.544
 2680SOL    MW410752   0.683   2.577   4.600
 2681SOL     OW10753   0.899   3.261   4.450
 2681SOL    HW210754   0.854   3.345   4.439
 2681SOL    HW310755   0.842   3.210   4.507
 2681SOL    MW410756   0.886   3.265   4.456
 2682SOL     OW10757   0.754   3.528   4.454
 2682SOL    HW210758   0.665   3.549   4.480
 2682SOL    HW310759   0.809   3.589   4.503
 2682SOL    MW410760   0.750   3.539   4.464
 2683SOL     OW10761   1.289   0.017   4.526
 2683SOL    HW210762   1.264  -0.076   4.527
 2683SOL    HW310763   1.377   0.018   4.564
 2683SOL    MW410764   1.297   0.005   4.531
 2684SOL     OW10765   0.239   2.653   4.550
 2684SOL    HW210766   0.315   2.649   4.493
 2684SOL    HW310767   0.193   2.733   4.523
 2684SOL    MW410768   0.243   2.663   4.539
 2685SOL     OW10769   0.029   3.357   4.479
 2685SOL    HW210770   0.040   3.344   4.385
 2685SOL    HW310771  -0.028   3.434   4.486
 2685SOL    MW410772   0.023   3.366   4.468
 2686SOL     OW10773   1.142   3.607   4.572
 2686SOL    HW210774   1.137   3.512   4.581
 2686SOL    HW310775   1.144   3.622   4.477
 2686SOL    MW410776   1.142   3.597   4.560
 2687SOL     OW10777   4.445   4.232   4.673
 2687SOL    HW210778   4.476   4.167   4.610
 2687SOL    HW310779   4.375   4.278   4.627
 2687SOL    MW410780   4.440   4.230   4.659
 2688SOL     OW10781   0.052   4.026   4.517
 2688SOL    HW210782   0.144   3.998   4.520
 2688SOL    HW310783   0.002   3.951   4.548
 2688SOL    MW410784   0.058   4.012   4.521
 2689SOL     OW10785   0.212   4.652   4.658
 2689SOL    HW210786   0.134   4.703   4.637
 2689SOL    HW310787   0.228   4.669   4.751
 2689SOL    MW410788   0.204   4.661   4.668
 2690SOL     OW10789   0.698   0.222   4.533
 2690SOL    HW210790   0.768   0.159   4.514
 2690SOL    HW310791   0.625   0.169   4.562
 2690SOL    MW410792   0.698   0.207   4.534
 2691SOL     OW10793   1.153   4.405   4.510
 2691SOL    HW210794   1.192   4.325   4.543
 2691SOL    HW310795   1.059   4.393   4.522
 2691SOL    MW410796   1.146   4.393   4.516
 2692SOL     OW10797   0.608   0.494   4.485
 2692SOL    HW210798   0.643   0.493   4.396
 2692SOL    HW310799   0.631   0.408   4.521
 2692SOL    MW410800   0.615   0.482   4.478
 2693SOL     OW10801   1.396   0.886   4.582
 2693SOL    HW210802   1.381   0.885   4.488
 2693SOL    HW310803   1.313   0.856   4.620
 2693SOL    MW410804   1.383   0.882   4.575
 2694SOL     OW10805   1.785   0.952   4.686
 2694SOL    HW210806   1.795   0.869   4.639
 2694SOL    HW310807   1.718   0.934   4.752
 2694SOL    MW410808   1.777   0.939   4.688
 2695SOL     OW10809   0.378   1.208   4.371
 2695SOL    HW210810   0.405   1.123   4.406
 2695SOL    HW310811   0.461   1.254   4.354
 2695SOL    MW410812   0.393   1.203   4.374
 2696SOL     OW10813   1.003   1.909   4.742
 2696SOL    HW210814   1.044   1.842   4.687
 2696SOL    HW310815   1.051   1.989   4.722
 2696SOL    MW410816   1.015   1.911   4.732
 2697SOL     OW10817   0.960   1.201   4.494
 2697SOL    HW210818   0.890   1.263   4.510
 2697SOL    HW310819   0.925   1.117   4.522
 2697SOL    MW410820   0.946   1.198   4.500
 2698SOL     OW10821   1.869   1.207   4.593
 2698SOL    HW210822   1.849   1.126   4.640
 2698SOL    HW310823   1.958   1.194   4.559
 2698SOL    MW410824   1.878   1.195   4.595
 2699SOL     OW10825   1.198   1.313   4.595
 2699SOL    HW210826   1.106   1.300   4.572
 2699SOL    HW310827   1.219   1.400   4.559
 2699SOL    MW410828   1.189   1.323   4.587
 2700SOL     OW10829   1.066   2.412   4.587
 2700SOL    HW210830   1.072   2.492   4.640
 2700SOL    HW310831   1.142   2.417   4.528
 2700SOL    MW410832   1.077   2.423   4.586
 2701SOL     OW10833   1.606   2.511   4.803
 2701SOL    HW210834   1.636   2.580   4.863
 2701SOL    HW310835   1.577   2.559   4.726
 2701SOL    MW410836   1.606   2.527   4.801
 2702SOL     OW10837   1.492   2.903   4.537
 2702SOL    HW210838   1.479   2.814   4.568
 2702SOL    HW310839   1.567   2.936   4.587
 2702SOL    MW410840   1.500   2.896   4.548
 2703SOL     OW10841   1.790   3.285   4.576
 2703SOL    HW210842   1.776   3.196   4.608
 2703SOL    HW310843   1.790   3.277   4.481
 2703SOL    MW410844   1.788   3.273   4.568
 2704SOL     OW10845   0.778   2.851   4.501
 2704SOL    HW210846   0.872   2.846   4.516
 2704SOL    HW310847   0.746   2.763   4.521
 2704SOL    MW410848   0.786   2.839   4.506
 2705SOL     OW10849   0.410   4.240   4.606
 2705SOL    HW210850   0.407   4.149   4.578
 2705SOL    HW310851   0.318   4.266   4.614
 2705SOL    MW410852   0.398   4.232   4.604
 2706SOL     OW10853   1.075   2.895   4.515
 2706SOL    HW210854   1.088   2.852   4.431
 2706SOL    HW310855   1.124   2.977   4.508
 2706SOL    MW410856   1.083   2.900   4.503
 2707SOL     OW10857   0.916   3.226   4.791
 2707SOL    HW210858   0.950   3.272   4.867
 2707SOL    HW310859   0.972   3.255   4.719
 2707SOL    MW410860   0.928   3.236   4.791
 2708SOL     OW10861   1.637   3.519   4.538
 2708SOL    HW210862   1.711   3.569   4.573
 2708SOL    HW310863   1.665   3.428   4.544
 2708SOL    MW410864   1.650   3.513   4.544
 2709SOL     OW10865   0.608   3.828   4.554
 2709SOL    HW210866   0.597   3.887   4.480
 2709SOL    HW310867   0.703   3.817   4.562
 2709SOL    MW410868   0.619   3.834   4.545
 2710SOL     OW10869   0.320   3.969   4.552
 2710SOL    HW210870   0.371   3.913   4.611
 2710SOL    HW310871   0.367   3.965   4.469
 2710SOL    MW410872   0.333   3.961   4.549
 2711SOL     OW10873   0.891   4.338   4.591
 2711SOL    HW210874   0.881   4.245   4.571
 2711SOL    HW310875   0.805   4.364   4.625
 2711SOL    MW410876   0.878   4.329   4.593
 2712SOL     OW10877   0.134   4.396   4.538
 2712SOL    HW210878   0.165   4.478   4.576
 2712SOL    HW310879   0.083   4.355   4.607
 2712SOL    MW410880   0.131   4.401   4.552
 2713SOL     OW10881   2.184   3.657   4.538
 2713SOL    HW210882   2.147   3.630   4.454
 2713SOL    HW310883   2.230   3.580   4.571
 2713SOL    MW410884   2.185   3.643   4.532
 2714SOL     OW10885   1.557   4.376   4.556
 2714SOL    HW210886   1.633   4.323   4.581
 2714SOL    HW310887   1.554   4.370   4.460
 2714SOL    MW410888   1.566   4.368   4.546
 2715SOL     OW10889   1.344   4.180   4.595
 2715SOL    HW210890   1.411   4.248   4.596
 2715SOL    HW310891   1.388   4.102   4.563
 2715SOL    MW410892   1.358   4.179   4.591
 2716SOL     OW10893   0.945   0.570   4.596
 2716SOL    HW210894   0.864   0.619   4.583
 2716SOL    HW310895   0.920   0.497   4.653
 2716SOL    MW410896   0.931   0.567   4.602
 2717SOL     OW10897   1.571   4.643   4.655
 2717SOL    HW210898   1.575   4.557   4.615
 2717SOL    HW310899   1.601   4.630   4.745
 2717SOL    MW410900   1.575   4.630   4.661
 2718SOL     OW10901   1.200   0.467   4.483
 2718SOL    HW210902   1.138   0.515   4.537
 2718SOL    HW310903   1.167   0.377   4.482
 2718SOL    MW410904   1.187   0.461   4.490
 2719SOL     OW10905   1.660   1.725   4.480
 2719SOL    HW210906   1.632   1.645   4.525
 2719SOL    HW310907   1.713   1.694   4.407
 2719SOL    MW410908   1.663   1.711   4.476
 2720SOL     OW10909   0.654   0.753   4.597
 2720SOL    HW210910   0.575   0.803   4.577
 2720SOL    HW310911   0.641   0.670   4.552
 2720SOL    MW410912   0.642   0.749   4.589
 2721SOL     OW10913   1.712   0.492   4.510
 2721SOL    HW210914   1.630   0.528   4.543
 2721SOL    HW310915   1.703   0.397   4.522
 2721SOL    MW410916   1.700   0.484   4.516
 2722SOL     OW10917   1.625   1.239   4.457
 2722SOL    HW210918   1.577   1.190   4.523
 2722SOL    HW310919   1.716   1.236   4.486
 2722SOL    MW410920   1.631   1.232   4.470
 2723SOL     OW10921   1.317   1.547   4.498
 2723SOL    HW210922   1.407   1.525   4.524
 2723SOL    HW310923   1.323   1.568   4.405
 2723SOL    MW410924   1.330   1.547   4.490
 2724SOL     OW10925   1.488   2.639   4.583
 2724SOL    HW210926   1.417   2.582   4.552
 2724SOL    HW310927   1.557   2.629   4.517
 2724SOL    MW410928   1.487   2.630   4.570
 2725SOL     OW10929   2.311   2.541   4.374
 2725SOL    HW210930   2.263   2.490   4.309
 2725SOL    HW310931   2.258   2.620   4.386
 2725SOL    MW410932   2.297   2.545   4.367
 2726SOL     OW10933   0.817   2.368   4.463
 2726SOL    HW210934   0.887   2.401   4.519
 2726SOL    HW310935   0.844   2.393   4.374
 2726SOL    MW410936   0.830   2.375   4.458
 2727SOL     OW10937   1.408   3.690   4.630
 2727SOL    HW210938   1.319   3.656   4.619
 2727SOL    HW310939   1.465   3.614   4.618
 2727SOL    MW410940   1.404   3.675   4.627
 2728SOL     OW10941   1.339   2.434   4.189
 2728SOL    HW210942   1.354   2.525   4.161
 2728SOL    HW310943   1.419   2.388   4.164
 2728SOL    MW410944   1.352   2.440   4.182
 2729SOL     OW10945   1.321   2.449   4.466
 2729SOL    HW210946   1.327   2.452   4.371
 2729SOL    HW310947   1.362   2.366   4.490
 2729SOL    MW410948   1.327   2.439   4.457
 2730SOL     OW10949   1.299   3.118   4.499
 2730SOL    HW210950   1.363   3.049   4.516
 2730SOL    HW310951   1.318   3.147   4.410
 2730SOL    MW410952   1.310   3.113   4.490
 2731SOL     OW10953   1.110   3.318   4.605
 2731SOL    HW210954   1.184   3.268   4.571
 2731SOL    HW310955   1.041   3.306   4.540
 2731SOL    MW410956   1.110   3.310   4.592
 2732SOL     OW10957   0.897   3.750   4.587
 2732SOL    HW210958   0.981   3.713   4.614
 2732SOL    HW310959   0.918   3.838   4.554
 2732SOL    MW410960   0.910   3.757   4.586
 2733SOL     OW10961   2.310   3.426   4.630
 2733SOL    HW210962   2.228   3.380   4.611
 2733SOL    HW310963   2.343   3.385   4.709
 2733SOL    MW410964   2.303   3.415   4.638
 2734SOL     OW10965   2.072   3.296   4.584
 2734SOL    HW210966   2.051   3.218   4.532
 2734SOL    HW310967   1.987   3.336   4.604
 2734SOL    MW410968   2.058   3.291   4.580
 2735SOL     OW10969   2.310   3.219   4.336
 2735SOL    HW210970   2.217   3.198   4.334
 2735SOL    HW310971   2.341   3.186   4.420
 2735SOL    MW410972   2.302   3.212   4.347
 2736SOL     OW10973   0.890   4.026   4.510
 2736SOL    HW210974   0.909   4.021   4.416
 2736SOL    HW310975   0.975   4.022   4.552
 2736SOL    MW410976   0.903   4.025   4.503
 2737SOL     OW10977   1.764   3.945   4.534
 2737SOL    HW210978   1.789   3.971   4.446
 2737SOL    HW310979   1.815   3.866   4.551
 2737SOL    MW410980   1.774   3.938   4.525
 2738SOL     OW10981   1.984   0.009   4.653
 2738SOL    HW210982   2.055   0.055   4.609
 2738SOL    HW310983   2.017  -0.008   4.741
 2738SOL    MW410984   1.997   0.013   4.659
 2739SOL     OW10985   1.083   0.223   4.507
 2739SOL    HW210986   1.016   0.194   4.445
 2739SOL    HW310987   1.144   0.150   4.513
 2739SOL    MW410988   1.082   0.210   4.500
 2740SOL     OW10989   1.765   0.180   4.535
 2740SOL    HW210990   1.848   0.145   4.568
 2740SOL    HW310991   1.699   0.121   4.571
 2740SOL    MW410992   1.767   0.168   4.544
 2741SOL     OW10993   2.447   4.662   4.528
 2741SOL    HW210994   2.418   4.571   4.531
 2741SOL    HW310995   2.366   4.712   4.525
 2741SOL    MW410996   2.432   4.656   4.528
 2742SOL     OW10997   1.862   0.748   4.507
 2742SOL    HW210998   1.819   0.662   4.505
 2742SOL    HW310999   1.864   0.776   4.416
 2742SOL    MW411000   1.857   0.740   4.495
 2743SOL     OW11001   1.465   0.600   4.568
 2743SOL    HW211002   1.450   0.695   4.570
 2743SOL    HW311003   1.383   0.564   4.532
 2743SOL    MW411004   1.452   0.608   4.563
 2744SOL     OW11005   1.939   1.646   4.492
 2744SOL    HW211006   1.929   1.590   4.568
 2744SOL    HW311007   1.955   1.586   4.419
 2744SOL    MW411008   1.940   1.631   4.492
 2745SOL     OW11009   0.746   1.939   4.619
 2745SOL    HW211010   0.683   1.939   4.691
 2745SOL    HW311011   0.831   1.944   4.661
 2745SOL    MW411012   0.749   1.940   4.634
 2746SOL     OW11013   1.579   1.484   4.586
 2746SOL    HW211014   1.583   1.403   4.535
 2746SOL    HW311015   1.613   1.460   4.672
 2746SOL    MW411016   1.584   1.470   4.590
 2747SOL     OW11017   1.166   2.148   4.609
 2747SOL    HW211018   1.256   2.180   4.621
 2747SOL    HW311019   1.113   2.228   4.601
 2747SOL    MW411020   1.171   2.163   4.610
 2748SOL     OW11021   1.521   1.974   4.425
 2748SOL    HW211022   1.542   1.976   4.332
 2748SOL    HW311023   1.576   1.905   4.461
 2748SOL    MW411024   1.531   1.965   4.417
 2749SOL     OW11025   2.195   2.386   4.164
 2749SOL    HW211026   2.171   2.313   4.220
 2749SOL    HW311027   2.168   2.358   4.076
 2749SOL    MW411028   2.189   2.373   4.160
 2750SOL     OW11029   1.440   2.211   4.565
 2750SOL    HW211030   1.478   2.139   4.515
 2750SOL    HW311031   1.485   2.208   4.650
 2750SOL    MW411032   1.451   2.201   4.570
 2751SOL     OW11033   2.439   3.066   4.539
 2751SOL    HW211034   2.528   3.033   4.550
 2751SOL    HW311035   2.383   2.990   4.554
 2751SOL    MW411036   2.443   3.051   4.542
 2752SOL     OW11037   1.762   3.018   4.664
 2752SOL    HW211038   1.770   2.949   4.598
 2752SOL    HW311039   1.846   3.017   4.710
 2752SOL    MW411040   1.774   3.008   4.661
 2753SOL     OW11041   1.811   4.213   4.600
 2753SOL    HW211042   1.810   4.122   4.568
 2753SOL    HW311043   1.898   4.245   4.579
 2753SOL    MW411044   1.822   4.205   4.593
 2754SOL     OW11045   2.709   2.975   4.574
 2754SOL    HW211046   2.795   3.014   4.588
 2754SOL    HW311047   2.720   2.883   4.596
 2754SOL    MW411048   2.722   2.968   4.579
 2755SOL     OW11049   2.386   3.192   4.775
 2755SOL    HW211050   2.411   3.161   4.687
 2755SOL    HW311051   2.341   3.118   4.815
 2755SOL    MW411052   2.383   3.178   4.768
 2756SOL     OW11053   2.678   3.926   4.553
 2756SOL    HW211054   2.597   3.876   4.569
 2756SOL    HW311055   2.682   3.935   4.458
 2756SOL    MW411056   2.668   3.921   4.543
 2757SOL     OW11057   2.439   3.792   4.565
 2757SOL    HW211058   2.482   3.708   4.553
 2757SOL    HW311059   2.347   3.776   4.543
 2757SOL    MW411060   2.432   3.779   4.560
 2758SOL     OW11061   2.554   3.537   4.523
 2758SOL    HW211062   2.478   3.494   4.562
 2758SOL    HW311063   2.530   3.547   4.430
 2758SOL    MW411064   2.541   3.533   4.516
 2759SOL     OW11065   1.900   3.688   4.527
 2759SOL    HW211066   1.909   3.676   4.432
 2759SOL    HW311067   1.989   3.686   4.560
 2759SOL    MW411068   1.913   3.686   4.518
 2760SOL     OW11069   2.058   4.416   4.533
 2760SOL    HW211070   2.034   4.501   4.571
 2760SOL    HW311071   2.153   4.421   4.522
 2760SOL    MW411072   2.067   4.428   4.537
 2761SOL     OW11073   1.150   3.985   4.629
 2761SOL    HW211074   1.215   4.055   4.617
 2761SOL    HW311075   1.193   3.922   4.686
 2761SOL    MW411076   1.164   3.986   4.635
 2762SOL     OW11077   2.191   0.155   4.533
 2762SOL    HW211078   2.186   0.160   4.438
 2762SOL    HW311079   2.208   0.245   4.560
 2762SOL    MW411080   2.192   0.168   4.524
 2763SOL     OW11081   2.249   0.418   4.535
 2763SOL    HW211082   2.213   0.506   4.542
 2763SOL    HW311083   2.343   0.431   4.522
 2763SOL    MW411084   2.256   0.431   4.534
 2764SOL     OW11085   1.956   1.455   4.704
 2764SOL    HW211086   1.934   1.364   4.684
 2764SOL    HW311087   2.052   1.458   4.700
 2764SOL    MW411088   1.966   1.444   4.701
 2765SOL     OW11089   2.691   0.088   4.453
 2765SOL    HW211090   2.605   0.053   4.474
 2765SOL    HW311091   2.702   0.072   4.359
 2765SOL    MW411092   2.681   0.082   4.443
 2766SOL     OW11093   2.611   0.705   4.626
 2766SOL    HW211094   2.567   0.690   4.710
 2766SOL    HW311095   2.702   0.722   4.650
 2766SOL    MW411096   2.617   0.705   4.641
 2767SOL     OW11097   2.885   0.794   4.647
 2767SOL    HW211098   2.973   0.824   4.667
 2767SOL    HW311099   2.898   0.708   4.605
 2767SOL    MW411100   2.898   0.786   4.644
 2768SOL     OW11101   2.242   1.448   4.584
 2768SOL    HW211102   2.333   1.423   4.599
 2768SOL    HW311103   2.244   1.543   4.582
 2768SOL    MW411104   2.254   1.457   4.585
 2769SOL     OW11105   2.473   1.265   4.586
 2769SOL    HW211106   2.479   1.169   4.586
 2769SOL    HW311107   2.563   1.295   4.598
 2769SOL    MW411108   2.486   1.256   4.587
 2770SOL     OW11109   2.726   1.361   4.549
 2770SOL    HW211110   2.742   1.454   4.560
 2770SOL    HW311111   2.809   1.326   4.518
 2770SOL    MW411112   2.739   1.368   4.546
 2771SOL     OW11113   2.202   1.743   4.535
 2771SOL    HW211114   2.109   1.725   4.521
 2771SOL    HW311115   2.238   1.753   4.447
 2771SOL    MW411116   2.194   1.742   4.522
 2772SOL     OW11117   2.293   2.203   4.611
 2772SOL    HW211118   2.364   2.267   4.613
 2772SOL    HW311119   2.252   2.215   4.525
 2772SOL    MW411120   2.297   2.213   4.600
 2773SOL     OW11121   2.417   1.976   4.563
 2773SOL    HW211122   2.352   1.907   4.576
 2773SOL    HW311123   2.376   2.055   4.598
 2773SOL    MW411124   2.403   1.978   4.569
 2774SOL     OW11125   2.671   2.343   4.468
 2774SOL    HW211126   2.609   2.392   4.521
 2774SOL    HW311127   2.622   2.318   4.390
 2774SOL    MW411128   2.657   2.346   4.464
 2775SOL     OW11129   1.766   2.593   4.478
 2775SOL    HW211130   1.832   2.617   4.413
 2775SOL    HW311131   1.814   2.543   4.544
 2775SOL    MW411132   1.781   2.589   4.478
 2776SOL     OW11133   2.264   2.932   4.823
 2776SOL    HW211134   2.175   2.966   4.816
 2776SOL    HW311135   2.286   2.902   4.734
 2776SOL    MW411136   2.255   2.932   4.810
 2777SOL     OW11137   2.773   3.364   4.569
 2777SOL    HW211138   2.762   3.309   4.646
 2777SOL    HW311139   2.698   3.424   4.571
 2777SOL    MW411140   2.762   3.365   4.579
 2778SOL     OW11141   2.677   3.187   4.773
 2778SOL    HW211142   2.585   3.206   4.790
 2778SOL    HW311143   2.677   3.100   4.734
 2778SOL    MW411144   2.665   3.178   4.770
 2779SOL     OW11145   1.482   3.934   4.513
 2779SOL    HW211146   1.448   3.862   4.567
 2779SOL    HW311147   1.577   3.930   4.525
 2779SOL    MW411148   1.490   3.924   4.522
 2780SOL     OW11149   2.648   4.217   4.513
 2780SOL    HW211150   2.558   4.208   4.483
 2780SOL    HW311151   2.668   4.133   4.555
 2780SOL    MW411152   2.638   4.205   4.515
 2781SOL     OW11153   2.038   3.060   4.739
 2781SOL    HW211154   2.054   3.011   4.658
 2781SOL    HW311155   2.054   3.151   4.715
 2781SOL    MW411156   2.042   3.065   4.725
 2782SOL     OW11157   3.410   3.802   4.631
 2782SOL    HW211158   3.333   3.841   4.590
 2782SOL    HW311159   3.410   3.711   4.602
 2782SOL    MW411160   3.400   3.795   4.622
 2783SOL     OW11161   3.188   3.949   4.520
 2783SOL    HW211162   3.118   3.890   4.548
 2783SOL    HW311163   3.170   4.032   4.566
 2783SOL    MW411164   3.177   3.952   4.530
 2784SOL     OW11165   2.372   4.114   4.528
 2784SOL    HW211166   2.404   4.033   4.568
 2784SOL    HW311167   2.321   4.084   4.452
 2784SOL    MW411168   2.369   4.099   4.523
 2785SOL     OW11169   2.343   4.396   4.479
 2785SOL    HW211170   2.336   4.315   4.528
 2785SOL    HW311171   2.366   4.369   4.390
 2785SOL    MW411172   2.345   4.382   4.474
 2786SOL     OW11173   2.899   0.529   4.541
 2786SOL    HW211174   2.901   0.536   4.446
 2786SOL    HW311175   2.841   0.454   4.559
 2786SOL    MW411176   2.892   0.520   4.531
 2787SOL     OW11177   2.726   0.333   4.626
 2787SOL    HW211178   2.728   0.259   4.566
 2787SOL    HW311179   2.767   0.299   4.706
 2787SOL    MW411180   2.732   0.318   4.629
 2788SOL     OW11181   3.126   0.225   4.898
 2788SOL    HW211182   3.135   0.277   4.819
 2788SOL    HW311183   3.033   0.205   4.904
 2788SOL    MW411184   3.115   0.229   4.889
 2789SOL     OW11185   2.812   1.019   4.490
 2789SOL    HW211186   2.851   0.948   4.541
 2789SOL    HW311187   2.792   0.980   4.405
 2789SOL    MW411188   2.815   1.004   4.486
 2790SOL     OW11189   3.544   0.531   4.843
 2790SOL    HW211190   3.625   0.572   4.813
 2790SOL    HW311191   3.545   0.444   4.802
 2790SOL    MW411192   3.555   0.525   4.834
 2791SOL     OW11193   2.124   0.686   4.555
 2791SOL    HW211194   2.170   0.770   4.554
 2791SOL    HW311195   2.032   0.709   4.542
 2791SOL    MW411196   2.118   0.700   4.553
 2792SOL     OW11197   2.550   0.983   4.555
 2792SOL    HW211198   2.641   1.005   4.534
 2792SOL    HW311199   2.554   0.892   4.585
 2792SOL    MW411200   2.563   0.974   4.556
 2793SOL     OW11201   3.205   1.388   4.582
 2793SOL    HW211202   3.140   1.322   4.558
 2793SOL    HW311203   3.267   1.387   4.510
 2793SOL    MW411204   3.204   1.379   4.569
 2794SOL     OW11205   3.071   1.649   4.504
 2794SOL    HW211206   2.975   1.658   4.499
 2794SOL    HW311207   3.085   1.560   4.537
 2794SOL    MW411208   3.060   1.639   4.508
 2795SOL     OW11209   2.785   1.642   4.508
 2795SOL    HW211210   2.740   1.715   4.551
 2795SOL    HW311211   2.739   1.631   4.425
 2795SOL    MW411212   2.773   1.650   4.503
 2796SOL     OW11213   2.669   1.856   4.628
 2796SOL    HW211214   2.728   1.929   4.608
 2796SOL    HW311215   2.582   1.892   4.614
 2796SOL    MW411216   2.666   1.871   4.624
 2797SOL     OW11217   2.837   2.076   4.527
 2797SOL    HW211218   2.779   2.149   4.547
 2797SOL    HW311219   2.868   2.093   4.438
 2797SOL    MW411220   2.833   2.088   4.518
 2798SOL     OW11221   3.105   2.232   4.592
 2798SOL    HW211222   3.180   2.173   4.588
 2798SOL    HW311223   3.029   2.175   4.593
 2798SOL    MW411224   3.105   2.217   4.592
 2799SOL     OW11225   2.408   2.651   4.748
 2799SOL    HW211226   2.395   2.706   4.825
 2799SOL    HW311227   2.363   2.698   4.677
 2799SOL    MW411228   2.400   2.665   4.749
 2800SOL     OW11229   3.812   3.108   4.607
 2800SOL    HW211230   3.743   3.173   4.611
 2800SOL    HW311231   3.887   3.154   4.568
 2800SOL    MW411232   3.813   3.123   4.602
 2801SOL     OW11233   2.688   2.689   4.636
 2801SOL    HW211234   2.624   2.661   4.702
 2801SOL    HW311235   2.637   2.699   4.556
 2801SOL    MW411236   2.672   2.686   4.634
 2802SOL     OW11237   2.980   3.562   4.516
 2802SOL    HW211238   3.059   3.514   4.540
 2802SOL    HW311239   2.908   3.501   4.536
 2802SOL    MW411240   2.981   3.547   4.522
 2803SOL     OW11241   2.985   3.023   4.566
 2803SOL    HW211242   3.073   3.045   4.596
 2803SOL    HW311243   2.992   2.932   4.537
 2803SOL    MW411244   2.997   3.014   4.566
 2804SOL     OW11245   2.837   4.627   4.647
 2804SOL    HW211246   2.868   4.544   4.611
 2804SOL    HW311247   2.800   4.673   4.572
 2804SOL    MW411248   2.837   4.622   4.633
 2805SOL     OW11249   4.285   3.844   4.825
 2805SOL    HW211250   4.305   3.825   4.734
 2805SOL    HW311251   4.351   3.907   4.852
 2805SOL    MW411252   4.296   3.850   4.817
 2806SOL     OW11253   3.839   3.561   4.482
 2806SOL    HW211254   3.922   3.525   4.512
 2806SOL    HW311255   3.859   3.605   4.400
 2806SOL    MW411256   3.852   3.562   4.476
 2807SOL     OW11257   2.949   3.837   4.625
 2807SOL    HW211258   2.865   3.875   4.601
 2807SOL    HW311259   2.935   3.742   4.624
 2807SOL    MW411260   2.936   3.829   4.622
 2808SOL     OW11261   2.877   4.385   4.493
 2808SOL    HW211262   2.793   4.338   4.494
 2808SOL    HW311263   2.941   4.318   4.517
 2808SOL    MW411264   2.874   4.370   4.496
 2809SOL     OW11265   3.082   0.341   4.636
 2809SOL    HW211266   3.164   0.379   4.607
 2809SOL    HW311267   3.016   0.409   4.619
 2809SOL    MW411268   3.084   0.355   4.630
 2810SOL     OW11269   3.314   0.458   4.546
 2810SOL    HW211270   3.317   0.451   4.451
 2810SOL    HW311271   3.324   0.552   4.564
 2810SOL    MW411272   3.316   0.470   4.536
 2811SOL     OW11273   2.517   0.481   4.506
 2811SOL    HW211274   2.585   0.429   4.549
 2811SOL    HW311275   2.524   0.568   4.546
 2811SOL    MW411276   2.527   0.486   4.517
 2812SOL     OW11277   2.280   0.943   4.509
 2812SOL    HW211278   2.370   0.970   4.528
 2812SOL    HW311279   2.228   1.022   4.522
 2812SOL    MW411280   2.285   0.957   4.513
 2813SOL     OW11281   2.822   0.182   4.827
 2813SOL    HW211282   2.817   0.107   4.768
 2813SOL    HW311283   2.744   0.173   4.883
 2813SOL    MW411284   2.811   0.171   4.827
 2814SOL     OW11285   3.344   0.695   4.685
 2814SOL    HW211286   3.422   0.732   4.642
 2814SOL    HW311287   3.379   0.649   4.761
 2814SOL    MW411288   3.359   0.694   4.689
 2815SOL     OW11289   3.381   1.590   4.721
 2815SOL    HW211290   3.310   1.527   4.703
 2815SOL    HW311291   3.350   1.672   4.684
 2815SOL    MW411292   3.367   1.592   4.714
 2816SOL     OW11293   2.985   1.222   4.503
 2816SOL    HW211294   2.926   1.146   4.500
 2816SOL    HW311295   2.979   1.259   4.415
 2816SOL    MW411296   2.976   1.217   4.491
 2817SOL     OW11297   4.105   0.983   4.507
 2817SOL    HW211298   4.083   0.953   4.419
 2817SOL    HW311299   4.152   0.909   4.547
 2817SOL    MW411300   4.108   0.969   4.501
 2818SOL     OW11301   3.570   1.483   4.538
 2818SOL    HW211302   3.648   1.530   4.568
 2818SOL    HW311303   3.499   1.518   4.592
 2818SOL    MW411304   3.571   1.493   4.549
 2819SOL     OW11305   3.299   1.808   4.560
 2819SOL    HW211306   3.353   1.787   4.484
 2819SOL    HW311307   3.211   1.781   4.535
 2819SOL    MW411308   3.295   1.801   4.547
 2820SOL     OW11309   3.358   2.087   4.546
 2820SOL    HW211310   3.338   1.996   4.567
 2820SOL    HW311311   3.352   2.093   4.451
 2820SOL    MW411312   3.355   2.076   4.536
 2821SOL     OW11313   3.600   1.596   4.897
 2821SOL    HW211314   3.522   1.580   4.845
 2821SOL    HW311315   3.567   1.626   4.982
 2821SOL    MW411316   3.585   1.598   4.902
 2822SOL     OW11317   2.955   2.718   4.535
 2822SOL    HW211318   2.875   2.695   4.581
 2822SOL    HW311319   3.015   2.645   4.553
 2822SOL    MW411320   2.952   2.705   4.543
 2823SOL     OW11321   3.397   2.577   4.629
 2823SOL    HW211322   3.307   2.549   4.614
 2823SOL    HW311323   3.401   2.666   4.593
 2823SOL    MW411324   3.386   2.585   4.622
 2824SOL     OW11325   3.122   2.492   4.533
 2824SOL    HW211326   3.120   2.485   4.438
 2824SOL    HW311327   3.105   2.403   4.564
 2824SOL    MW411328   3.120   2.479   4.525
 2825SOL     OW11329   3.932   2.700   4.448
 2825SOL    HW211330   3.929   2.604   4.448
 2825SOL    HW311331   3.999   2.722   4.513
 2825SOL    MW411332   3.941   2.690   4.457
 2826SOL     OW11333   3.239   3.092   4.663
 2826SOL    HW211334   3.294   3.031   4.613
 2826SOL    HW311335   3.253   3.067   4.754
 2826SOL    MW411336   3.248   3.080   4.668
 2827SOL     OW11337   3.650   2.961   4.455
 2827SOL    HW211338   3.689   2.907   4.387
 2827SOL    HW311339   3.724   2.996   4.504
 2827SOL    MW411340   3.665   2.959   4.453
 2828SOL     OW11341   4.105   2.785   4.663
 2828SOL    HW211342   4.056   2.864   4.685
 2828SOL    HW311343   4.185   2.818   4.621
 2828SOL    MW411344   4.109   2.800   4.660
 2829SOL     OW11345   3.637   3.351   4.515
 2829SOL    HW211346   3.711   3.412   4.507
 2829SOL    HW311347   3.614   3.329   4.424
 2829SOL    MW411348   3.644   3.356   4.502
 2830SOL     OW11349   3.580   4.214   4.584
 2830SOL    HW211350   3.666   4.256   4.584
 2830SOL    HW311351   3.599   4.120   4.579
 2830SOL    MW411352   3.594   4.207   4.583
 2831SOL     OW11353   3.081   4.218   4.622
 2831SOL    HW211354   3.086   4.200   4.716
 2831SOL    HW311355   3.168   4.251   4.600
 2831SOL    MW411356   3.093   4.220   4.632
 2832SOL     OW11357   3.114   0.059   4.598
 2832SOL    HW211358   3.036   0.015   4.632
 2832SOL    HW311359   3.104   0.150   4.626
 2832SOL    MW411360   3.102   0.065   4.607
 2833SOL     OW11361   3.321   4.284   4.530
 2833SOL    HW211362   3.409   4.250   4.546
 2833SOL    HW311363   3.325   4.374   4.563
 2833SOL    MW411364   3.333   4.292   4.536
 2834SOL     OW11365   3.626   3.951   4.521
 2834SOL    HW211366   3.708   3.911   4.550
 2834SOL    HW311367   3.558   3.907   4.572
 2834SOL    MW411368   3.628   3.940   4.532
 2835SOL     OW11369   3.409   0.151   4.865
 2835SOL    HW211370   3.318   0.173   4.882
 2835SOL    HW311371   3.408   0.057   4.846
 2835SOL    MW411372   3.397   0.141   4.864
 2836SOL     OW11373   3.203   1.027   4.472
 2836SOL    HW211374   3.129   1.077   4.508
 2836SOL    HW311375   3.221   0.960   4.539
 2836SOL    MW411376   3.196   1.025   4.486
 2837SOL     OW11377   3.157   0.884   4.717
 2837SOL    HW211378   3.217   0.810   4.710
 2837SOL    HW311379   3.184   0.931   4.795
 2837SOL    MW411380   3.168   0.881   4.726
 2838SOL     OW11381   4.342   1.601   4.507
 2838SOL    HW211382   4.410   1.667   4.494
 2838SOL    HW311383   4.389   1.517   4.503
 2838SOL    MW411384   4.358   1.599   4.505
 2839SOL     OW11385   3.801   0.985   4.624
 2839SOL    HW211386   3.767   1.074   4.615
 2839SOL    HW311387   3.888   0.988   4.584
 2839SOL    MW411388   3.808   0.997   4.617
 2840SOL     OW11389   4.478   0.943   4.529
 2840SOL    HW211390   4.474   0.947   4.433
 2840SOL    HW311391   4.548   0.881   4.548
 2840SOL    MW411392   4.486   0.936   4.519
 2841SOL     OW11393   4.288   0.494   4.557
 2841SOL    HW211394   4.288   0.518   4.464
 2841SOL    HW311395   4.230   0.418   4.562
 2841SOL    MW411396   4.280   0.487   4.546
 2842SOL     OW11397   3.475   1.744   4.346
 2842SOL    HW211398   3.549   1.685   4.360
 2842SOL    HW311399   3.418   1.697   4.284
 2842SOL    MW411400   3.477   1.730   4.339
 2843SOL     OW11401   3.804   1.631   4.389
 2843SOL    HW211402   3.891   1.648   4.352
 2843SOL    HW311403   3.817   1.631   4.483
 2843SOL    MW411404   3.817   1.634   4.396
 2844SOL     OW11405   3.561   2.209   4.682
 2844SOL    HW211406   3.523   2.265   4.750
 2844SOL    HW311407   3.487   2.169   4.638
 2844SOL    MW411408   3.546   2.211   4.685
 2845SOL     OW11409   3.796   1.596   4.692
 2845SOL    HW211410   3.737   1.615   4.765
 2845SOL    HW311411   3.853   1.526   4.725
 2845SOL    MW411412   3.796   1.589   4.706
 2846SOL     OW11413   4.071   2.065   4.661
 2846SOL    HW211414   4.058   2.097   4.751
 2846SOL    HW311415   4.088   1.972   4.672
 2846SOL    MW411416   4.071   2.057   4.675
 2847SOL     OW11417   3.837   2.116   4.507
 2847SOL    HW211418   3.916   2.082   4.551
 2847SOL    HW311419   3.785   2.153   4.578
 2847SOL    MW411420   3.841   2.116   4.522
 2848SOL     OW11421   3.890   2.404   4.503
 2848SOL    HW211422   3.801   2.439   4.490
 2848SOL    HW311423   3.880   2.309   4.497
 2848SOL    MW411424   3.877   2.396   4.501
 2849SOL     OW11425   4.064   2.498   4.739
 2849SOL    HW211426   3.984   2.500   4.687
 2849SOL    HW311427   4.090   2.590   4.746
 2849SOL    MW411428   4.057   2.511   4.733
 2850SOL     OW11429   4.321   3.185   4.611
 2850SOL    HW211430   4.382   3.255   4.589
 2850SOL    HW311431   4.369   3.105   4.589
 2850SOL    MW411432   4.336   3.184   4.605
 2851SOL     OW11433   3.205   3.387   4.531
 2851SOL    HW211434   3.228   3.321   4.596
 2851SOL    HW311435   3.237   3.351   4.448
 2851SOL    MW411436   3.212   3.374   4.528
 2852SOL     OW11437   4.049   3.207   4.515
 2852SOL    HW211438   4.137   3.189   4.548
 2852SOL    HW311439   4.061   3.222   4.421
 2852SOL    MW411440   4.062   3.207   4.507
 2853SOL     OW11441   3.443   3.532   4.505
 2853SOL    HW211442   3.363   3.483   4.525
 2853SOL    HW311443   3.513   3.470   4.523
 2853SOL    MW411444   3.441   3.518   4.510
 2854SOL     OW11445   4.332   3.572   4.496
 2854SOL    HW211446   4.322   3.594   4.404
 2854SOL    HW311447   4.245   3.545   4.524
 2854SOL    MW411448   4.319   3.571   4.488
 2855SOL     OW11449   0.123   2.878   4.438
 2855SOL    HW211450   0.162   2.854   4.353
 2855SOL    HW311451   0.163   2.962   4.459
 2855SOL    MW411452   0.134   2.886   4.429
 2856SOL     OW11453   4.076   3.950   4.467
 2856SOL    HW211454   4.080   4.033   4.513
 2856SOL    HW311455   4.010   3.899   4.514
 2856SOL    MW411456   4.068   3.954   4.479
 2857SOL     OW11457   3.833   4.335   4.550
 2857SOL    HW211458   3.832   4.363   4.458
 2857SOL    HW311459   3.826   4.417   4.600
 2857SOL    MW411460   3.832   4.350   4.545
 2858SOL     OW11461   3.328   4.547   4.633
 2858SOL    HW211462   3.414   4.581   4.608
 2858SOL    HW311463   3.269   4.622   4.621
 2858SOL    MW411464   3.332   4.562   4.628
 2859SOL     OW11465   3.573   0.797   4.544
 2859SOL    HW211466   3.631   0.873   4.543
 2859SOL    HW311467   3.575   0.764   4.454
 2859SOL    MW411468   3.581   0.802   4.532
 2860SOL     OW11469   3.765   0.608   4.676
 2860SOL    HW211470   3.847   0.648   4.704
 2860SOL    HW311471   3.719   0.678   4.629
 2860SOL    MW411472   3.770   0.623   4.673
 2861SOL     OW11473   0.039   0.394   4.644
 2861SOL    HW211474   0.107   0.448   4.605
 2861SOL    HW311475  -0.043   0.434   4.613
 2861SOL    MW411476   0.037   0.406   4.635
 2862SOL     OW11477   0.276   0.526   4.510
 2862SOL    HW211478   0.370   0.514   4.524
 2862SOL    HW311479   0.265   0.517   4.415
 2862SOL    MW411480   0.287   0.523   4.499
 2863SOL     OW11481   4.078   0.274   4.544
 2863SOL    HW211482   3.994   0.305   4.578
 2863SOL    HW311483   4.058   0.237   4.458
 2863SOL    MW411484   4.064   0.274   4.537
 2864SOL     OW11485   3.758   1.264   4.573
 2864SOL    HW211486   3.682   1.322   4.578
 2864SOL    HW311487   3.830   1.316   4.610
 2864SOL    MW411488   3.757   1.279   4.579
 2865SOL     OW11489   4.439   1.211   4.557
 2865SOL    HW211490   4.447   1.115   4.564
 2865SOL    HW311491   4.525   1.240   4.524
 2865SOL    MW411492   4.452   1.202   4.553
 2866SOL     OW11493   0.187   1.340   4.502
 2866SOL    HW211494   0.250   1.292   4.449
 2866SOL    HW311495   0.222   1.429   4.507
 2866SOL    MW411496   0.200   1.346   4.496
 2867SOL     OW11497   3.982   1.378   4.696
 2867SOL    HW211498   4.049   1.353   4.632
 2867SOL    HW311499   4.013   1.342   4.779
 2867SOL    MW411500   3.995   1.370   4.699
 2868SOL     OW11501   3.381   2.863   4.535
 2868SOL    HW211502   3.358   2.825   4.450
 2868SOL    HW311503   3.468   2.901   4.521
 2868SOL    MW411504   3.390   2.863   4.522
 2869SOL     OW11505   4.230   2.114   4.190
 2869SOL    HW211506   4.152   2.063   4.170
 2869SOL    HW311507   4.235   2.115   4.286
 2869SOL    MW411508   4.221   2.108   4.200
 2870SOL     OW11509   0.150   2.204   4.458
 2870SOL    HW211510   0.236   2.217   4.497
 2870SOL    HW311511   0.111   2.292   4.456
 2870SOL    MW411512   0.156   2.217   4.463
 2871SOL     OW11513   4.224   2.169   4.463
 2871SOL    HW211514   4.163   2.142   4.532
 2871SOL    HW311515   4.227   2.264   4.469
 2871SOL    MW411516   4.216   2.178   4.473
 2872SOL     OW11517   3.598   2.427   4.519
 2872SOL    HW211518   3.545   2.487   4.571
 2872SOL    HW311519   3.597   2.345   4.568
 2872SOL    MW411520   3.591   2.424   4.533
 2873SOL     OW11521   0.432   2.497   4.682
 2873SOL    HW211522   0.346   2.538   4.675
 2873SOL    HW311523   0.428   2.422   4.622
 2873SOL    MW411524   0.421   2.492   4.673
 2874SOL     OW11525   4.332   2.892   4.518
 2874SOL    HW211526   4.427   2.875   4.520
 2874SOL    HW311527   4.308   2.885   4.426
 2874SOL    MW411528   4.342   2.889   4.506
 2875SOL     OW11529   0.216   3.128   4.491
 2875SOL    HW211530   0.161   3.205   4.503
 2875SOL    HW311531   0.305   3.160   4.505
 2875SOL    MW411532   0.220   3.142   4.494
 2876SOL     OW11533   0.233   3.556   4.491
 2876SOL    HW211534   0.228   3.585   4.400
 2876SOL    HW311535   0.175   3.479   4.495
 2876SOL    MW411536   0.224   3.549   4.480
 2877SOL     OW11537   4.230   0.029   4.647
 2877SOL    HW211538   4.185   0.107   4.614
 2877SOL    HW311539   4.194   0.016   4.734
 2877SOL    MW411540   4.219   0.038   4.654
 2878SOL     OW11541   3.569   0.041   4.515
 2878SOL    HW211542   3.552   0.126   4.556
 2878SOL    HW311543   3.564   0.058   4.421
 2878SOL    MW411544   3.566   0.054   4.508
 2879SOL     OW11545   4.449   4.074   4.897
 2879SOL    HW211546   4.441   4.135   4.824
 2879SOL    HW311547   4.541   4.079   4.923
 2879SOL    MW411548   4.460   4.083   4.891
 2880SOL     OW11549   3.529   0.304   4.652
 2880SOL    HW211550   3.497   0.247   4.722
 2880SOL    HW311551   3.453   0.359   4.630
 2880SOL    MW411552   3.514   0.304   4.658
 2881SOL     OW11553   4.289   4.450   4.259
 2881SOL    HW211554   4.353   4.391   4.220
 2881SOL    HW311555   4.306   4.446   4.353
 2881SOL    MW411556   4.300   4.442   4.266
 2882NA      NA11557   2.672   4.187   0.649
 2883NA      NA11558   0.592   2.255   0.433
   4.49070   4.66690  10.00000
