Gromacs Runs On Most of All Computer Systems in water t= 500.00000 step= 500000
11558
    1RG35     P    1   2.180   2.836   4.484
    1RG35   O1P    2   2.208   2.758   4.361
    1RG35   O2P    3   2.096   2.952   4.463
    1RG35   O5'    4   2.090   2.741   4.567
    1RG35   C5'    5   1.998   2.787   4.665
    1RG35  H5'1    6   1.924   2.844   4.609
    1RG35  H5'2    7   2.047   2.853   4.737
    1RG35   C4'    8   1.915   2.677   4.743
    1RG35   H4'    9   1.833   2.726   4.794
    1RG35   O4'   10   1.865   2.575   4.651
    1RG35   C1'   11   1.903   2.450   4.696
    1RG35   H1'   12   1.827   2.411   4.764
    1RG35    N9   13   1.935   2.358   4.583
    1RG35    C8   14   2.010   2.393   4.475
    1RG35    H8   15   2.054   2.491   4.465
    1RG35    N7   16   2.031   2.292   4.388
    1RG35    C5   17   1.947   2.193   4.437
    1RG35    C6   18   1.912   2.062   4.388
    1RG35    O6   19   1.926   2.012   4.276
    1RG35    N1   20   1.853   1.985   4.482
    1RG35    H1   21   1.827   1.891   4.458
    1RG35    C2   22   1.814   2.030   4.597
    1RG35    N2   23   1.742   1.954   4.671
    1RG35   H21   24   1.713   1.862   4.643
    1RG35   H22   25   1.706   2.010   4.747
    1RG35    N3   26   1.828   2.152   4.650
    1RG35    C4   27   1.897   2.228   4.562
    1RG35   C3'   28   1.999   2.606   4.851
    1RG35   H3'   29   2.095   2.656   4.869
    1RG35   C2'   30   2.028   2.467   4.782
    1RG35  H2'1   31   2.124   2.480   4.732
    1RG35   O2'   32   2.043   2.363   4.885
    1RG35  HO'2   33   2.096   2.289   4.853
    1RG35   O3'   34   1.928   2.583   4.971
    1RG35   H3T   35   1.976   2.515   5.018
    1RG35   O3P   36   2.296   2.857   4.564
    2SOL     OW   37   0.450   0.149   0.439
    2SOL    HW2   38   0.464   0.054   0.435
    2SOL    HW3   39   0.531   0.187   0.408
    2SOL    MW4   40   0.462   0.141   0.434
    3SOL     OW   41   4.091   0.099   0.444
    3SOL    HW2   42   4.179   0.085   0.411
    3SOL    HW3   43   4.045   0.017   0.427
    3SOL    MW4   44   4.096   0.086   0.437
    4SOL     OW   45   3.869   0.463   0.467
    4SOL    HW2   46   3.798   0.512   0.425
    4SOL    HW3   47   3.848   0.465   0.560
    4SOL    MW4   48   3.857   0.469   0.474
    5SOL     OW   49   0.345   1.474   0.410
    5SOL    HW2   50   0.351   1.380   0.429
    5SOL    HW3   51   0.254   1.497   0.428
    5SOL    MW4   52   0.334   1.465   0.415
    6SOL     OW   53   1.407   0.854   0.456
    6SOL    HW2   54   1.494   0.890   0.473
    6SOL    HW3   55   1.358   0.869   0.537
    6SOL    MW4   56   1.412   0.861   0.469
    7SOL     OW   57   0.211   0.608   0.484
    7SOL    HW2   58   0.207   0.586   0.577
    7SOL    HW3   59   0.248   0.530   0.443
    7SOL    MW4   60   0.215   0.595   0.491
    8SOL     OW   61   0.469   0.978   0.507
    8SOL    HW2   62   0.473   0.982   0.603
    8SOL    HW3   63   0.457   0.885   0.487
    8SOL    MW4   64   0.468   0.966   0.517
    9SOL     OW   65   0.930   0.924   0.442
    9SOL    HW2   66   0.925   0.931   0.537
    9SOL    HW3   67   0.850   0.967   0.411
    9SOL    MW4   68   0.919   0.931   0.450
   10SOL     OW   69   0.704   1.056   0.378
   10SOL    HW2   70   0.683   1.061   0.285
   10SOL    HW3   71   0.628   1.013   0.418
   10SOL    MW4   72   0.691   1.051   0.371
   11SOL     OW   73   0.190   1.859   0.368
   11SOL    HW2   74   0.163   1.769   0.386
   11SOL    HW3   75   0.281   1.852   0.339
   11SOL    MW4   76   0.198   1.846   0.367
   12SOL     OW   77   4.137   2.293   0.557
   12SOL    HW2   78   4.046   2.265   0.567
   12SOL    HW3   79   4.134   2.388   0.566
   12SOL    MW4   80   4.124   2.302   0.559
   13SOL     OW   81   0.102   1.588   0.462
   13SOL    HW2   82   0.043   1.515   0.441
   13SOL    HW3   83   0.094   1.598   0.557
   13SOL    MW4   84   0.093   1.580   0.472
   14SOL     OW   85   0.727   2.393   0.231
   14SOL    HW2   86   0.820   2.414   0.242
   14SOL    HW3   87   0.685   2.478   0.217
   14SOL    MW4   88   0.734   2.407   0.231
   15SOL     OW   89   0.217   2.754   0.504
   15SOL    HW2   90   0.217   2.847   0.482
   15SOL    HW3   91   0.300   2.721   0.468
   15SOL    MW4   92   0.228   2.762   0.497
   16SOL     OW   93   4.075   3.329   0.496
   16SOL    HW2   94   4.125   3.257   0.457
   16SOL    HW3   95   4.055   3.299   0.584
   16SOL    MW4   96   4.079   3.315   0.502
   17SOL     OW   97   0.202   3.035   0.441
   17SOL    HW2   98   0.288   3.074   0.428
   17SOL    HW3   99   0.142   3.109   0.445
   17SOL    MW4  100   0.206   3.050   0.440
   18SOL     OW  101   0.394   3.404   0.359
   18SOL    HW2  102   0.425   3.318   0.388
   18SOL    HW3  103   0.461   3.465   0.388
   18SOL    MW4  104   0.407   3.400   0.367
   19SOL     OW  105   0.572   3.834   0.352
   19SOL    HW2  106   0.647   3.811   0.297
   19SOL    HW3  107   0.603   3.907   0.406
   19SOL    MW4  108   0.586   3.841   0.352
   20SOL     OW  109   4.168   3.870   0.433
   20SOL    HW2  110   4.214   3.890   0.514
   20SOL    HW3  111   4.157   3.775   0.434
   20SOL    MW4  112   4.173   3.860   0.444
   21SOL     OW  113   0.056   3.810   0.219
   21SOL    HW2  114   0.120   3.818   0.291
   21SOL    HW3  115   0.110   3.798   0.141
   21SOL    MW4  116   0.072   3.809   0.218
   22SOL     OW  117   0.022   4.464   0.425
   22SOL    HW2  118  -0.028   4.399   0.377
   22SOL    HW3  119  -0.023   4.471   0.510
   22SOL    MW4  120   0.010   4.456   0.430
   23SOL     OW  121   4.329   4.307   0.279
   23SOL    HW2  122   4.365   4.219   0.288
   23SOL    HW3  123   4.234   4.296   0.287
   23SOL    MW4  124   4.321   4.294   0.281
   24SOL     OW  125   4.417   4.014   0.340
   24SOL    HW2  126   4.329   3.980   0.356
   24SOL    HW3  127   4.461   3.944   0.291
   24SOL    MW4  128   4.411   4.000   0.336
   25SOL     OW  129   0.504   3.178   0.501
   25SOL    HW2  130   0.482   3.197   0.592
   25SOL    HW3  131   0.597   3.201   0.493
   25SOL    MW4  132   0.513   3.184   0.512
   26SOL     OW  133   0.489   4.509   0.369
   26SOL    HW2  134   0.421   4.448   0.399
   26SOL    HW3  135   0.507   4.483   0.279
   26SOL    MW4  136   0.482   4.497   0.361
   27SOL     OW  137   0.265   0.369   0.360
   27SOL    HW2  138   0.185   0.325   0.388
   27SOL    HW3  139   0.333   0.302   0.368
   27SOL    MW4  140   0.263   0.354   0.365
   28SOL     OW  141   4.481   0.698   0.365
   28SOL    HW2  142   4.515   0.724   0.279
   28SOL    HW3  143   4.554   0.652   0.407
   28SOL    MW4  144   4.495   0.695   0.359
   29SOL     OW  145   0.954   4.486   0.473
   29SOL    HW2  146   1.009   4.408   0.464
   29SOL    HW3  147   0.867   4.452   0.496
   29SOL    MW4  148   0.949   4.471   0.475
   30SOL     OW  149   1.182   1.049   0.434
   30SOL    HW2  150   1.097   1.005   0.433
   30SOL    HW3  151   1.244   0.984   0.402
   30SOL    MW4  152   1.179   1.035   0.430
   31SOL     OW  153   0.673   0.508   0.490
   31SOL    HW2  154   0.764   0.535   0.476
   31SOL    HW3  155   0.667   0.421   0.451
   31SOL    MW4  156   0.684   0.500   0.483
   32SOL     OW  157   0.295   1.198   0.474
   32SOL    HW2  158   0.350   1.120   0.486
   32SOL    HW3  159   0.214   1.164   0.437
   32SOL    MW4  160   0.292   1.183   0.471
   33SOL     OW  161   0.182   2.128   0.438
   33SOL    HW2  162   0.123   2.184   0.388
   33SOL    HW3  163   0.165   2.039   0.407
   33SOL    MW4  164   0.172   2.124   0.427
   34SOL     OW  165   0.687   2.081   0.290
   34SOL    HW2  166   0.703   2.097   0.197
   34SOL    HW3  167   0.770   2.046   0.322
   34SOL    MW4  168   0.700   2.079   0.282
   35SOL     OW  169   0.893   2.778   0.180
   35SOL    HW2  170   0.982   2.765   0.150
   35SOL    HW3  171   0.899   2.847   0.246
   35SOL    MW4  172   0.905   2.785   0.185
   36SOL     OW  173   0.643   2.645   0.144
   36SOL    HW2  174   0.643   2.636   0.049
   36SOL    HW3  175   0.716   2.703   0.163
   36SOL    MW4  176   0.652   2.651   0.134
   37SOL     OW  177   3.910   2.354   0.177
   37SOL    HW2  178   3.908   2.320   0.087
   37SOL    HW3  179   4.003   2.362   0.197
   37SOL    MW4  180   3.922   2.350   0.168
   38SOL     OW  181   1.203   2.437   0.453
   38SOL    HW2  182   1.263   2.369   0.422
   38SOL    HW3  183   1.249   2.519   0.437
   38SOL    MW4  184   1.217   2.439   0.447
   39SOL     OW  185   0.606   2.498   0.503
   39SOL    HW2  186   0.554   2.572   0.470
   39SOL    HW3  187   0.689   2.537   0.530
   39SOL    MW4  188   0.610   2.513   0.502
   40SOL     OW  189   4.256   3.148   0.348
   40SOL    HW2  190   4.226   3.151   0.257
   40SOL    HW3  191   4.239   3.058   0.375
   40SOL    MW4  192   4.250   3.136   0.339
   41SOL     OW  193   0.463   2.701   0.382
   41SOL    HW2  194   0.492   2.678   0.293
   41SOL    HW3  195   0.522   2.770   0.410
   41SOL    MW4  196   0.475   2.707   0.374
   42SOL     OW  197   0.814   0.477   0.186
   42SOL    HW2  198   0.778   0.523   0.111
   42SOL    HW3  199   0.838   0.546   0.248
   42SOL    MW4  200   0.812   0.492   0.184
   43SOL     OW  201   0.189   3.579   0.424
   43SOL    HW2  202   0.237   3.660   0.413
   43SOL    HW3  203   0.249   3.511   0.394
   43SOL    MW4  204   0.203   3.580   0.419
   44SOL     OW  205   0.557   3.580   0.475
   44SOL    HW2  206   0.540   3.670   0.446
   44SOL    HW3  207   0.586   3.589   0.566
   44SOL    MW4  208   0.558   3.593   0.483
   45SOL     OW  209   1.051   3.587   0.523
   45SOL    HW2  210   0.968   3.569   0.480
   45SOL    HW3  211   1.098   3.503   0.521
   45SOL    MW4  212   1.046   3.574   0.517
   46SOL     OW  213   0.286   4.350   0.469
   46SOL    HW2  214   0.208   4.401   0.449
   46SOL    HW3  215   0.262   4.259   0.452
   46SOL    MW4  216   0.273   4.345   0.464
   47SOL     OW  217   0.820   3.544   0.381
   47SOL    HW2  218   0.827   3.622   0.326
   47SOL    HW3  219   0.734   3.550   0.422
   47SOL    MW4  220   0.809   3.555   0.379
   48SOL     OW  221   0.700   4.369   0.494
   48SOL    HW2  222   0.628   4.417   0.454
   48SOL    HW3  223   0.692   4.388   0.588
   48SOL    MW4  224   0.689   4.378   0.501
   49SOL     OW  225   0.698   0.262   0.356
   49SOL    HW2  226   0.774   0.210   0.382
   49SOL    HW3  227   0.731   0.320   0.287
   49SOL    MW4  228   0.712   0.263   0.350
   50SOL     OW  229   0.910   0.655   0.408
   50SOL    HW2  230   0.918   0.750   0.421
   50SOL    HW3  231   0.997   0.621   0.425
   50SOL    MW4  232   0.922   0.663   0.412
   51SOL     OW  233   0.459   0.712   0.443
   51SOL    HW2  234   0.370   0.685   0.466
   51SOL    HW3  235   0.513   0.635   0.457
   51SOL    MW4  236   0.454   0.699   0.448
   52SOL     OW  237   1.403   0.576   0.503
   52SOL    HW2  238   1.452   0.561   0.584
   52SOL    HW3  239   1.408   0.670   0.488
   52SOL    MW4  240   1.410   0.586   0.511
   53SOL     OW  241   1.894   0.747   0.387
   53SOL    HW2  242   1.814   0.793   0.411
   53SOL    HW3  243   1.867   0.687   0.318
   53SOL    MW4  244   1.880   0.745   0.381
   54SOL     OW  245   1.665   0.509   0.236
   54SOL    HW2  246   1.580   0.470   0.258
   54SOL    HW3  247   1.657   0.531   0.144
   54SOL    MW4  248   1.652   0.506   0.227
   55SOL     OW  249   0.813   1.725   0.485
   55SOL    HW2  250   0.733   1.673   0.494
   55SOL    HW3  251   0.865   1.704   0.562
   55SOL    MW4  252   0.809   1.716   0.496
   56SOL     OW  253   0.763   1.296   0.509
   56SOL    HW2  254   0.753   1.207   0.475
   56SOL    HW3  255   0.857   1.308   0.518
   56SOL    MW4  256   0.774   1.285   0.506
   57SOL     OW  257   1.280   1.431   0.204
   57SOL    HW2  258   1.327   1.512   0.222
   57SOL    HW3  259   1.189   1.450   0.229
   57SOL    MW4  260   1.274   1.444   0.210
   58SOL     OW  261   1.038   1.313   0.536
   58SOL    HW2  262   1.091   1.240   0.504
   58SOL    HW3  263   1.067   1.388   0.484
   58SOL    MW4  264   1.049   1.313   0.525
   59SOL     OW  265   1.062   1.544   0.400
   59SOL    HW2  266   1.133   1.587   0.448
   59SOL    HW3  267   0.985   1.597   0.418
   59SOL    MW4  268   1.061   1.556   0.409
   60SOL     OW  269   4.472   2.306   0.359
   60SOL    HW2  270   4.401   2.339   0.304
   60SOL    HW3  271   4.502   2.383   0.408
   60SOL    MW4  272   4.467   2.321   0.358
   61SOL     OW  273   0.492   1.864   0.335
   61SOL    HW2  274   0.533   1.777   0.339
   61SOL    HW3  275   0.563   1.923   0.311
   61SOL    MW4  276   0.507   1.860   0.333
   62SOL     OW  277   0.860   2.221   0.501
   62SOL    HW2  278   0.904   2.142   0.469
   62SOL    HW3  279   0.903   2.240   0.584
   62SOL    MW4  280   0.872   2.213   0.508
   63SOL     OW  281   0.581   2.141   0.584
   63SOL    HW2  282   0.508   2.080   0.595
   63SOL    HW3  283   0.659   2.086   0.587
   63SOL    MW4  284   0.582   2.126   0.586
   64SOL     OW  285   0.874   2.570   0.496
   64SOL    HW2  286   0.909   2.546   0.411
   64SOL    HW3  287   0.911   2.506   0.557
   64SOL    MW4  288   0.883   2.558   0.493
   65SOL     OW  289   1.007   2.485   0.273
   65SOL    HW2  290   1.073   2.455   0.336
   65SOL    HW3  291   1.042   2.567   0.240
   65SOL    MW4  292   1.021   2.492   0.277
   66SOL     OW  293   0.620   2.930   0.487
   66SOL    HW2  294   0.567   3.010   0.487
   66SOL    HW3  295   0.612   2.896   0.576
   66SOL    MW4  296   0.612   2.936   0.499
   67SOL     OW  297   0.809   3.263   0.454
   67SOL    HW2  298   0.837   3.278   0.544
   67SOL    HW3  299   0.812   3.349   0.413
   67SOL    MW4  300   0.813   3.276   0.461
   68SOL     OW  301   2.188   3.592   0.510
   68SOL    HW2  302   2.126   3.618   0.578
   68SOL    HW3  303   2.148   3.516   0.468
   68SOL    MW4  304   2.175   3.585   0.514
   69SOL     OW  305   0.925   4.049   0.541
   69SOL    HW2  306   0.835   4.061   0.512
   69SOL    HW3  307   0.918   4.025   0.633
   69SOL    MW4  308   0.912   4.048   0.549
   70SOL     OW  309   0.657   4.068   0.516
   70SOL    HW2  310   0.591   4.052   0.584
   70SOL    HW3  311   0.662   4.163   0.511
   70SOL    MW4  312   0.649   4.078   0.524
   71SOL     OW  313   1.101   4.261   0.489
   71SOL    HW2  314   1.049   4.183   0.510
   71SOL    HW3  315   1.109   4.307   0.573
   71SOL    MW4  316   1.095   4.257   0.503
   72SOL     OW  317   1.136   0.514   0.508
   72SOL    HW2  318   1.139   0.440   0.448
   72SOL    HW3  319   1.227   0.542   0.517
   72SOL    MW4  320   1.148   0.508   0.502
   73SOL     OW  321   0.951   0.152   0.440
   73SOL    HW2  322   0.952   0.057   0.428
   73SOL    HW3  323   0.925   0.165   0.531
   73SOL    MW4  324   0.948   0.141   0.450
   74SOL     OW  325   1.409   0.364   0.317
   74SOL    HW2  326   1.316   0.357   0.295
   74SOL    HW3  327   1.414   0.438   0.378
   74SOL    MW4  328   1.397   0.373   0.322
   75SOL     OW  329   2.127   0.219   0.305
   75SOL    HW2  330   2.061   0.283   0.279
   75SOL    HW3  331   2.078   0.141   0.327
   75SOL    MW4  332   2.112   0.217   0.304
   76SOL     OW  333   1.108   0.334   0.292
   76SOL    HW2  334   1.060   0.258   0.325
   76SOL    HW3  335   1.047   0.375   0.230
   76SOL    MW4  336   1.093   0.329   0.288
   77SOL     OW  337   2.317   0.491   0.488
   77SOL    HW2  338   2.221   0.497   0.489
   77SOL    HW3  339   2.335   0.398   0.480
   77SOL    MW4  340   2.307   0.480   0.487
   78SOL     OW  341   2.384   0.948   0.439
   78SOL    HW2  342   2.426   0.896   0.371
   78SOL    HW3  343   2.290   0.939   0.422
   78SOL    MW4  344   2.377   0.940   0.428
   79SOL     OW  345   1.709   1.201   0.453
   79SOL    HW2  346   1.654   1.227   0.527
   79SOL    HW3  347   1.705   1.275   0.392
   79SOL    MW4  348   1.701   1.214   0.454
   80SOL     OW  349   1.669   0.917   0.461
   80SOL    HW2  350   1.687   0.908   0.555
   80SOL    HW3  351   1.685   1.010   0.442
   80SOL    MW4  352   1.673   0.928   0.471
   81SOL     OW  353   1.338   1.270   0.447
   81SOL    HW2  354   1.306   1.181   0.439
   81SOL    HW3  355   1.319   1.310   0.362
   81SOL    MW4  356   1.331   1.264   0.435
   82SOL     OW  357   1.687   1.666   0.375
   82SOL    HW2  358   1.776   1.702   0.375
   82SOL    HW3  359   1.671   1.643   0.466
   82SOL    MW4  360   1.697   1.668   0.387
   83SOL     OW  361   1.184   2.743   0.109
   83SOL    HW2  362   1.220   2.668   0.061
   83SOL    HW3  363   1.230   2.741   0.193
   83SOL    MW4  364   1.195   2.733   0.114
   84SOL     OW  365   1.265   2.712   0.365
   84SOL    HW2  366   1.200   2.746   0.425
   84SOL    HW3  367   1.348   2.752   0.392
   84SOL    MW4  368   1.268   2.722   0.376
   85SOL     OW  369   2.170   1.676   0.531
   85SOL    HW2  370   2.233   1.603   0.534
   85SOL    HW3  371   2.205   1.735   0.464
   85SOL    MW4  372   2.183   1.674   0.522
   86SOL     OW  373   1.610   2.123   0.453
   86SOL    HW2  374   1.662   2.203   0.466
   86SOL    HW3  375   1.672   2.058   0.422
   86SOL    MW4  376   1.625   2.125   0.451
   87SOL     OW  377   0.934   1.949   0.343
   87SOL    HW2  378   1.025   1.964   0.369
   87SOL    HW3  379   0.908   1.870   0.390
   87SOL    MW4  380   0.942   1.941   0.352
   88SOL     OW  381   0.868   2.981   0.375
   88SOL    HW2  382   0.869   3.072   0.403
   88SOL    HW3  383   0.779   2.951   0.394
   88SOL    MW4  384   0.857   2.989   0.382
   89SOL     OW  385   2.035   2.262   0.458
   89SOL    HW2  386   2.040   2.175   0.419
   89SOL    HW3  387   2.126   2.283   0.480
   89SOL    MW4  388   2.048   2.253   0.456
   90SOL     OW  389   2.028   0.519   0.481
   90SOL    HW2  390   1.985   0.601   0.460
   90SOL    HW3  391   1.976   0.452   0.437
   90SOL    MW4  392   2.016   0.521   0.473
   91SOL     OW  393   1.088   3.889   0.402
   91SOL    HW2  394   1.094   3.799   0.434
   91SOL    HW3  395   1.052   3.938   0.475
   91SOL    MW4  396   1.084   3.883   0.416
   92SOL     OW  397   2.046   2.685   0.306
   92SOL    HW2  398   2.070   2.767   0.351
   92SOL    HW3  399   2.109   2.621   0.339
   92SOL    MW4  400   2.058   2.687   0.316
   93SOL     OW  401   1.339   4.002   0.443
   93SOL    HW2  402   1.258   3.969   0.405
   93SOL    HW3  403   1.347   4.091   0.409
   93SOL    MW4  404   1.329   4.009   0.434
   94SOL     OW  405   1.773   2.996   0.490
   94SOL    HW2  406   1.859   2.964   0.463
   94SOL    HW3  407   1.712   2.928   0.461
   94SOL    MW4  408   1.777   2.983   0.483
   95SOL     OW  409   2.196   3.904   0.446
   95SOL    HW2  410   2.207   3.809   0.452
   95SOL    HW3  411   2.280   3.935   0.411
   95SOL    MW4  412   2.209   3.896   0.442
   96SOL     OW  413   0.839   3.797   0.251
   96SOL    HW2  414   0.912   3.832   0.302
   96SOL    HW3  415   0.853   3.830   0.163
   96SOL    MW4  416   0.850   3.806   0.246
   97SOL     OW  417   1.952   4.665   0.403
   97SOL    HW2  418   1.879   4.726   0.417
   97SOL    HW3  419   1.915   4.595   0.349
   97SOL    MW4  420   1.937   4.663   0.398
   98SOL     OW  421   2.028   4.629   0.684
   98SOL    HW2  422   2.040   4.535   0.690
   98SOL    HW3  423   2.005   4.645   0.593
   98SOL    MW4  424   2.027   4.619   0.673
   99SOL     OW  425   2.495   4.424   0.248
   99SOL    HW2  426   2.566   4.468   0.295
   99SOL    HW3  427   2.484   4.474   0.167
   99SOL    MW4  428   2.503   4.436   0.244
  100SOL     OW  429   1.326   4.287   0.324
  100SOL    HW2  430   1.246   4.285   0.377
  100SOL    HW3  431   1.311   4.357   0.261
  100SOL    MW4  432   1.313   4.296   0.323
  101SOL     OW  433   2.576   0.588   0.468
  101SOL    HW2  434   2.484   0.560   0.465
  101SOL    HW3  435   2.580   0.660   0.405
  101SOL    MW4  436   2.564   0.594   0.459
  102SOL     OW  437   1.423   1.691   0.280
  102SOL    HW2  438   1.517   1.687   0.296
  102SOL    HW3  439   1.411   1.771   0.229
  102SOL    MW4  440   1.434   1.701   0.275
  103SOL     OW  441   2.007   1.173   0.461
  103SOL    HW2  442   2.056   1.236   0.408
  103SOL    HW3  443   1.915   1.191   0.441
  103SOL    MW4  444   2.002   1.184   0.452
  104SOL     OW  445   2.473   1.224   0.488
  104SOL    HW2  446   2.569   1.223   0.481
  104SOL    HW3  447   2.447   1.134   0.472
  104SOL    MW4  448   2.482   1.212   0.485
  105SOL     OW  449   2.339   1.819   0.337
  105SOL    HW2  450   2.382   1.898   0.369
  105SOL    HW3  451   2.406   1.751   0.341
  105SOL    MW4  452   2.353   1.820   0.341
  106SOL     OW  453   1.665   1.408   0.281
  106SOL    HW2  454   1.625   1.393   0.195
  106SOL    HW3  455   1.661   1.503   0.292
  106SOL    MW4  456   1.659   1.419   0.271
  107SOL     OW  457   1.260   1.716   0.497
  107SOL    HW2  458   1.317   1.707   0.420
  107SOL    HW3  459   1.316   1.693   0.571
  107SOL    MW4  460   1.275   1.711   0.497
  108SOL     OW  461   2.285   2.326   0.527
  108SOL    HW2  462   2.295   2.400   0.466
  108SOL    HW3  463   2.292   2.366   0.614
  108SOL    MW4  464   2.287   2.341   0.530
  109SOL     OW  465   1.720   3.418   0.549
  109SOL    HW2  466   1.761   3.337   0.581
  109SOL    HW3  467   1.788   3.461   0.498
  109SOL    MW4  468   1.734   3.413   0.546
  110SOL     OW  469   1.025   2.807   0.510
  110SOL    HW2  470   0.964   2.866   0.466
  110SOL    HW3  471   0.977   2.726   0.521
  110SOL    MW4  472   1.011   2.804   0.506
  111SOL     OW  473   1.496   3.501   0.401
  111SOL    HW2  474   1.568   3.459   0.448
  111SOL    HW3  475   1.515   3.594   0.407
  111SOL    MW4  476   1.508   3.507   0.408
  112SOL     OW  477   1.180   1.981   0.468
  112SOL    HW2  478   1.144   2.004   0.554
  112SOL    HW3  479   1.222   1.896   0.481
  112SOL    MW4  480   1.181   1.973   0.481
  113SOL     OW  481   3.580   1.595   0.510
  113SOL    HW2  482   3.503   1.593   0.454
  113SOL    HW3  483   3.551   1.642   0.588
  113SOL    MW4  484   3.566   1.601   0.513
  114SOL     OW  485   1.789   2.368   0.482
  114SOL    HW2  486   1.873   2.334   0.451
  114SOL    HW3  487   1.794   2.462   0.463
  114SOL    MW4  488   1.801   2.376   0.475
  115SOL     OW  489   1.347   2.203   0.386
  115SOL    HW2  490   1.434   2.177   0.416
  115SOL    HW3  491   1.295   2.123   0.393
  115SOL    MW4  492   1.352   2.189   0.391
  116SOL     OW  493   1.242   3.377   0.484
  116SOL    HW2  494   1.314   3.410   0.431
  116SOL    HW3  495   1.245   3.282   0.472
  116SOL    MW4  496   1.252   3.369   0.476
  117SOL     OW  497   2.462   3.540   0.570
  117SOL    HW2  498   2.367   3.538   0.560
  117SOL    HW3  499   2.475   3.561   0.663
  117SOL    MW4  500   2.451   3.543   0.581
  118SOL     OW  501   1.814   4.417   0.295
  118SOL    HW2  502   1.738   4.360   0.311
  118SOL    HW3  503   1.889   4.364   0.322
  118SOL    MW4  504   1.814   4.402   0.300
  119SOL     OW  505   1.510   3.783   0.478
  119SOL    HW2  506   1.440   3.847   0.488
  119SOL    HW3  507   1.587   3.836   0.456
  119SOL    MW4  508   1.511   3.799   0.476
  120SOL     OW  509   1.667   4.652   0.247
  120SOL    HW2  510   1.680   4.660   0.153
  120SOL    HW3  511   1.698   4.564   0.269
  120SOL    MW4  512   1.673   4.642   0.238
  121SOL     OW  513   1.477   0.102   0.420
  121SOL    HW2  514   1.463   0.194   0.395
  121SOL    HW3  515   1.531   0.066   0.350
  121SOL    MW4  516   1.482   0.110   0.408
  122SOL     OW  517   2.402   4.405   0.697
  122SOL    HW2  518   2.354   4.341   0.750
  122SOL    HW3  519   2.411   4.481   0.755
  122SOL    MW4  520   2.397   4.407   0.712
  123SOL     OW  521   2.349   0.225   0.478
  123SOL    HW2  522   2.302   0.209   0.560
  123SOL    HW3  523   2.281   0.232   0.412
  123SOL    MW4  524   2.334   0.224   0.480
  124SOL     OW  525   2.799   1.504   0.363
  124SOL    HW2  526   2.802   1.481   0.270
  124SOL    HW3  527   2.774   1.423   0.407
  124SOL    MW4  528   2.796   1.490   0.357
  125SOL     OW  529   2.989   0.379   0.463
  125SOL    HW2  530   2.899   0.375   0.431
  125SOL    HW3  531   3.026   0.457   0.421
  125SOL    MW4  532   2.982   0.389   0.453
  126SOL     OW  533   2.101   0.920   0.435
  126SOL    HW2  534   2.058   1.005   0.429
  126SOL    HW3  535   2.038   0.858   0.399
  126SOL    MW4  536   2.087   0.923   0.430
  127SOL     OW  537   2.761   1.247   0.482
  127SOL    HW2  538   2.781   1.156   0.459
  127SOL    HW3  539   2.796   1.257   0.571
  127SOL    MW4  540   2.768   1.237   0.491
  128SOL     OW  541   2.552   1.644   0.428
  128SOL    HW2  542   2.635   1.607   0.397
  128SOL    HW3  543   2.575   1.690   0.508
  128SOL    MW4  544   2.566   1.645   0.434
  129SOL     OW  545   3.079   1.888   0.393
  129SOL    HW2  546   3.076   1.935   0.476
  129SOL    HW3  547   3.168   1.902   0.360
  129SOL    MW4  548   3.091   1.896   0.399
  130SOL     OW  549   2.951   4.573   0.449
  130SOL    HW2  550   3.013   4.646   0.443
  130SOL    HW3  551   3.005   4.495   0.443
  130SOL    MW4  552   2.966   4.573   0.448
  131SOL     OW  553   1.933   1.789   0.434
  131SOL    HW2  554   1.929   1.876   0.476
  131SOL    HW3  555   2.005   1.745   0.479
  131SOL    MW4  556   1.942   1.795   0.446
  132SOL     OW  557   1.609   1.580   0.628
  132SOL    HW2  558   1.667   1.573   0.704
  132SOL    HW3  559   1.530   1.621   0.662
  132SOL    MW4  560   1.606   1.584   0.642
  133SOL     OW  561   2.422   2.077   0.465
  133SOL    HW2  562   2.376   2.156   0.491
  133SOL    HW3  563   2.510   2.106   0.444
  133SOL    MW4  564   2.427   2.091   0.466
  134SOL     OW  565   2.677   2.195   0.452
  134SOL    HW2  566   2.722   2.144   0.385
  134SOL    HW3  567   2.708   2.158   0.535
  134SOL    MW4  568   2.687   2.183   0.454
  135SOL     OW  569   2.527   2.704   0.482
  135SOL    HW2  570   2.579   2.625   0.495
  135SOL    HW3  571   2.517   2.741   0.570
  135SOL    MW4  572   2.532   2.698   0.496
  136SOL     OW  573   1.808   2.662   0.453
  136SOL    HW2  574   1.848   2.684   0.538
  136SOL    HW3  575   1.876   2.681   0.389
  136SOL    MW4  576   1.823   2.667   0.456
  137SOL     OW  577   1.576   2.809   0.474
  137SOL    HW2  578   1.569   2.827   0.568
  137SOL    HW3  579   1.636   2.735   0.468
  137SOL    MW4  580   1.583   2.802   0.486
  138SOL     OW  581   1.984   4.040   0.322
  138SOL    HW2  582   1.997   4.049   0.228
  138SOL    HW3  583   2.045   3.971   0.349
  138SOL    MW4  584   1.994   4.032   0.314
  139SOL     OW  585   2.469   3.927   0.348
  139SOL    HW2  586   2.474   3.832   0.349
  139SOL    HW3  587   2.521   3.952   0.271
  139SOL    MW4  588   2.477   3.918   0.338
  140SOL     OW  589   1.734   4.006   0.449
  140SOL    HW2  590   1.698   4.094   0.440
  140SOL    HW3  591   1.809   4.005   0.390
  140SOL    MW4  592   1.739   4.017   0.440
  141SOL     OW  593   2.102   3.355   0.389
  141SOL    HW2  594   2.142   3.273   0.418
  141SOL    HW3  595   2.058   3.332   0.307
  141SOL    MW4  596   2.101   3.341   0.382
  142SOL     OW  597   2.331   4.297   0.435
  142SOL    HW2  598   2.387   4.338   0.369
  142SOL    HW3  599   2.346   4.349   0.514
  142SOL    MW4  600   2.340   4.309   0.436
  143SOL     OW  601   2.049   4.304   0.413
  143SOL    HW2  602   2.029   4.214   0.387
  143SOL    HW3  603   2.144   4.306   0.422
  143SOL    MW4  604   2.059   4.292   0.411
  144SOL     OW  605   3.124   0.142   0.481
  144SOL    HW2  606   3.077   0.225   0.481
  144SOL    HW3  607   3.127   0.115   0.573
  144SOL    MW4  608   3.118   0.149   0.493
  145SOL     OW  609   2.598   3.655   0.361
  145SOL    HW2  610   2.543   3.634   0.437
  145SOL    HW3  611   2.614   3.571   0.319
  145SOL    MW4  612   2.593   3.642   0.365
  146SOL     OW  613   2.571   4.133   0.521
  146SOL    HW2  614   2.494   4.188   0.538
  146SOL    HW3  615   2.540   4.067   0.459
  146SOL    MW4  616   2.557   4.132   0.515
  147SOL     OW  617   2.620   0.157   0.481
  147SOL    HW2  618   2.667   0.220   0.428
  147SOL    HW3  619   2.530   0.190   0.484
  147SOL    MW4  620   2.614   0.169   0.475
  148SOL     OW  621   1.868   0.362   0.309
  148SOL    HW2  622   1.837   0.283   0.353
  148SOL    HW3  623   1.789   0.407   0.280
  148SOL    MW4  624   1.854   0.358   0.311
  149SOL     OW  625   3.110   0.600   0.354
  149SOL    HW2  626   3.111   0.685   0.397
  149SOL    HW3  627   3.200   0.567   0.366
  149SOL    MW4  628   3.122   0.606   0.362
  150SOL     OW  629   2.348   1.464   0.441
  150SOL    HW2  630   2.396   1.381   0.448
  150SOL    HW3  631   2.416   1.531   0.436
  150SOL    MW4  632   2.363   1.462   0.441
  151SOL     OW  633   2.605   0.818   0.315
  151SOL    HW2  634   2.673   0.867   0.361
  151SOL    HW3  635   2.646   0.796   0.231
  151SOL    MW4  636   2.620   0.821   0.310
  152SOL     OW  637   3.100   1.605   0.427
  152SOL    HW2  638   3.021   1.569   0.386
  152SOL    HW3  639   3.094   1.699   0.412
  152SOL    MW4  640   3.089   1.612   0.419
  153SOL     OW  641   3.427   1.260   0.416
  153SOL    HW2  642   3.520   1.277   0.435
  153SOL    HW3  643   3.388   1.244   0.502
  153SOL    MW4  644   3.434   1.260   0.430
  154SOL     OW  645   3.607   1.960   0.306
  154SOL    HW2  646   3.635   2.051   0.302
  154SOL    HW3  647   3.687   1.911   0.325
  154SOL    MW4  648   3.621   1.965   0.308
  155SOL     OW  649   2.648   0.101   0.746
  155SOL    HW2  650   2.634   0.190   0.778
  155SOL    HW3  651   2.654   0.109   0.651
  155SOL    MW4  652   2.647   0.114   0.738
  156SOL     OW  653   3.083   2.048   0.641
  156SOL    HW2  654   2.988   2.056   0.653
  156SOL    HW3  655   3.113   1.999   0.718
  156SOL    MW4  656   3.075   2.043   0.653
  157SOL     OW  657   2.703   2.492   0.484
  157SOL    HW2  658   2.793   2.524   0.471
  157SOL    HW3  659   2.704   2.404   0.447
  157SOL    MW4  660   2.715   2.485   0.477
  158SOL     OW  661   2.830   2.013   0.272
  158SOL    HW2  662   2.899   1.967   0.320
  158SOL    HW3  663   2.826   1.969   0.187
  158SOL    MW4  664   2.839   2.001   0.267
  159SOL     OW  665   2.302   2.571   0.379
  159SOL    HW2  666   2.321   2.609   0.294
  159SOL    HW3  667   2.349   2.626   0.442
  159SOL    MW4  668   2.311   2.583   0.376
  160SOL     OW  669   2.654   2.934   0.373
  160SOL    HW2  670   2.611   2.857   0.410
  160SOL    HW3  671   2.592   3.006   0.389
  160SOL    MW4  672   2.640   2.933   0.380
  161SOL     OW  673   3.049   3.114   0.501
  161SOL    HW2  674   3.105   3.108   0.579
  161SOL    HW3  675   2.988   3.041   0.511
  161SOL    MW4  676   3.048   3.103   0.513
  162SOL     OW  677   3.352   3.014   0.364
  162SOL    HW2  678   3.349   2.918   0.369
  162SOL    HW3  679   3.261   3.041   0.365
  162SOL    MW4  680   3.340   3.005   0.365
  163SOL     OW  681   2.232   3.135   0.476
  163SOL    HW2  682   2.257   3.163   0.564
  163SOL    HW3  683   2.315   3.131   0.428
  163SOL    MW4  684   2.246   3.138   0.481
  164SOL     OW  685   1.627   4.263   0.422
  164SOL    HW2  686   1.631   4.306   0.508
  164SOL    HW3  687   1.537   4.275   0.393
  164SOL    MW4  688   1.616   4.270   0.430
  165SOL     OW  689   3.422   4.045   0.448
  165SOL    HW2  690   3.345   4.063   0.394
  165SOL    HW3  691   3.396   3.968   0.500
  165SOL    MW4  692   3.408   4.037   0.448
  166SOL     OW  693   2.858   3.305   0.522
  166SOL    HW2  694   2.801   3.269   0.589
  166SOL    HW3  695   2.912   3.231   0.493
  166SOL    MW4  696   2.858   3.291   0.527
  167SOL     OW  697   2.610   3.344   0.415
  167SOL    HW2  698   2.705   3.340   0.427
  167SOL    HW3  699   2.577   3.386   0.495
  167SOL    MW4  700   2.618   3.349   0.427
  168SOL     OW  701   3.792   4.058   0.738
  168SOL    HW2  702   3.813   4.016   0.654
  168SOL    HW3  703   3.724   4.122   0.716
  168SOL    MW4  704   3.785   4.061   0.724
  169SOL     OW  705   3.187   4.122   0.322
  169SOL    HW2  706   3.162   4.210   0.352
  169SOL    HW3  707   3.105   4.073   0.321
  169SOL    MW4  708   3.173   4.127   0.326
  170SOL     OW  709   3.371   0.250   0.417
  170SOL    HW2  710   3.282   0.217   0.432
  170SOL    HW3  711   3.428   0.178   0.445
  170SOL    MW4  712   3.367   0.236   0.423
  171SOL     OW  713   2.670   4.563   0.404
  171SOL    HW2  714   2.645   4.653   0.426
  171SOL    HW3  715   2.765   4.566   0.393
  171SOL    MW4  716   2.679   4.575   0.406
  172SOL     OW  717   2.895   4.026   0.359
  172SOL    HW2  718   2.867   3.940   0.391
  172SOL    HW3  719   2.829   4.050   0.294
  172SOL    MW4  720   2.883   4.018   0.354
  173SOL     OW  721   2.732   0.382   0.376
  173SOL    HW2  722   2.673   0.446   0.416
  173SOL    HW3  723   2.770   0.427   0.301
  173SOL    MW4  724   2.729   0.396   0.372
  174SOL     OW  725   3.109   0.865   0.477
  174SOL    HW2  726   3.114   0.900   0.566
  174SOL    HW3  727   3.181   0.907   0.430
  174SOL    MW4  728   3.119   0.875   0.482
  175SOL     OW  729   3.374   0.525   0.434
  175SOL    HW2  730   3.389   0.431   0.422
  175SOL    HW3  731   3.454   0.566   0.402
  175SOL    MW4  732   3.387   0.518   0.428
  176SOL     OW  733   3.626   0.912   0.424
  176SOL    HW2  734   3.618   0.837   0.365
  176SOL    HW3  735   3.639   0.872   0.511
  176SOL    MW4  736   3.627   0.897   0.428
  177SOL     OW  737   3.592   0.336   0.217
  177SOL    HW2  738   3.657   0.279   0.258
  177SOL    HW3  739   3.511   0.320   0.266
  177SOL    MW4  740   3.590   0.326   0.229
  178SOL     OW  741   3.389   1.820   0.665
  178SOL    HW2  742   3.375   1.849   0.574
  178SOL    HW3  743   3.309   1.846   0.711
  178SOL    MW4  744   3.377   1.828   0.659
  179SOL     OW  745   3.361   1.844   0.380
  179SOL    HW2  746   3.358   1.759   0.337
  179SOL    HW3  747   3.440   1.885   0.345
  179SOL    MW4  748   3.371   1.838   0.370
  180SOL     OW  749   3.328   0.998   0.378
  180SOL    HW2  750   3.407   0.951   0.404
  180SOL    HW3  751   3.354   1.090   0.373
  180SOL    MW4  752   3.342   1.004   0.381
  181SOL     OW  753   3.975   1.628   0.354
  181SOL    HW2  754   3.906   1.677   0.398
  181SOL    HW3  755   3.981   1.667   0.267
  181SOL    MW4  756   3.967   1.639   0.349
  182SOL     OW  757   3.275   2.270   0.600
  182SOL    HW2  758   3.206   2.203   0.596
  182SOL    HW3  759   3.336   2.238   0.666
  182SOL    MW4  760   3.274   2.257   0.608
  183SOL     OW  761   3.564   2.570   0.524
  183SOL    HW2  762   3.579   2.547   0.616
  183SOL    HW3  763   3.523   2.491   0.487
  183SOL    MW4  764   3.560   2.556   0.532
  184SOL     OW  765   2.045   2.908   0.464
  184SOL    HW2  766   2.062   2.874   0.552
  184SOL    HW3  767   2.098   2.987   0.458
  184SOL    MW4  768   2.054   2.914   0.475
  185SOL     OW  769   3.207   2.538   0.292
  185SOL    HW2  770   3.231   2.554   0.201
  185SOL    HW3  771   3.256   2.459   0.317
  185SOL    MW4  772   3.217   2.530   0.284
  186SOL     OW  773   2.922   2.837   0.796
  186SOL    HW2  774   2.909   2.831   0.702
  186SOL    HW3  775   3.003   2.788   0.813
  186SOL    MW4  776   2.931   2.829   0.786
  187SOL     OW  777   2.902   0.530   0.186
  187SOL    HW2  778   2.986   0.548   0.228
  187SOL    HW3  779   2.908   0.572   0.100
  187SOL    MW4  780   2.914   0.538   0.180
  188SOL     OW  781   2.958   4.158   0.578
  188SOL    HW2  782   2.932   4.117   0.496
  188SOL    HW3  783   3.016   4.095   0.620
  188SOL    MW4  784   2.962   4.144   0.573
  189SOL     OW  785   3.311   3.545   0.555
  189SOL    HW2  786   3.340   3.460   0.521
  189SOL    HW3  787   3.297   3.529   0.649
  189SOL    MW4  788   3.313   3.531   0.563
  190SOL     OW  789   3.806   3.413   0.470
  190SOL    HW2  790   3.808   3.508   0.486
  190SOL    HW3  791   3.898   3.388   0.463
  190SOL    MW4  792   3.818   3.422   0.472
  191SOL     OW  793   3.593   3.325   0.657
  191SOL    HW2  794   3.657   3.358   0.594
  191SOL    HW3  795   3.550   3.253   0.611
  191SOL    MW4  796   3.596   3.320   0.643
  192SOL     OW  797   2.816   3.774   0.481
  192SOL    HW2  798   2.878   3.702   0.485
  192SOL    HW3  799   2.744   3.741   0.427
  192SOL    MW4  800   2.815   3.760   0.475
  193SOL     OW  801   2.467   3.135   0.301
  193SOL    HW2  802   2.519   3.096   0.230
  193SOL    HW3  803   2.523   3.206   0.335
  193SOL    MW4  804   2.481   3.139   0.296
  194SOL     OW  805   4.352   4.654   0.319
  194SOL    HW2  806   4.306   4.605   0.251
  194SOL    HW3  807   4.406   4.589   0.364
  194SOL    MW4  808   4.353   4.639   0.316
  195SOL     OW  809   3.807   0.209   0.387
  195SOL    HW2  810   3.823   0.303   0.398
  195SOL    HW3  811   3.894   0.170   0.385
  195SOL    MW4  812   3.820   0.216   0.388
  196SOL     OW  813   3.666   0.598   0.295
  196SOL    HW2  814   3.653   0.527   0.233
  196SOL    HW3  815   3.739   0.648   0.258
  196SOL    MW4  816   3.674   0.595   0.282
  197SOL     OW  817   3.856   0.771   0.200
  197SOL    HW2  818   3.926   0.737   0.255
  197SOL    HW3  819   3.845   0.862   0.227
  197SOL    MW4  820   3.863   0.779   0.211
  198SOL     OW  821   4.056   0.634   0.369
  198SOL    HW2  822   4.141   0.593   0.351
  198SOL    HW3  823   4.004   0.563   0.407
  198SOL    MW4  824   4.060   0.619   0.372
  199SOL     OW  825   4.380   0.909   0.532
  199SOL    HW2  826   4.291   0.923   0.499
  199SOL    HW3  827   4.413   0.836   0.480
  199SOL    MW4  828   4.373   0.901   0.520
  200SOL     OW  829   3.870   1.040   0.391
  200SOL    HW2  830   3.863   1.135   0.390
  200SOL    HW3  831   3.787   1.010   0.428
  200SOL    MW4  832   3.858   1.048   0.396
  201SOL     OW  833   4.235   1.636   0.450
  201SOL    HW2  834   4.158   1.652   0.396
  201SOL    HW3  835   4.292   1.712   0.434
  201SOL    MW4  836   4.232   1.648   0.441
  202SOL     OW  837   3.685   1.344   0.463
  202SOL    HW2  838   3.770   1.351   0.419
  202SOL    HW3  839   3.661   1.434   0.484
  202SOL    MW4  840   3.693   1.356   0.460
  203SOL     OW  841   3.356   1.546   0.351
  203SOL    HW2  842   3.266   1.552   0.382
  203SOL    HW3  843   3.378   1.453   0.360
  203SOL    MW4  844   3.347   1.534   0.356
  204SOL     OW  845   2.810   0.980   0.470
  204SOL    HW2  846   2.768   0.961   0.554
  204SOL    HW3  847   2.894   0.934   0.474
  204SOL    MW4  848   2.815   0.971   0.481
  205SOL     OW  849   3.703   2.223   0.328
  205SOL    HW2  850   3.780   2.260   0.285
  205SOL    HW3  851   3.735   2.195   0.414
  205SOL    MW4  852   3.717   2.224   0.334
  206SOL     OW  853   4.166   2.918   0.449
  206SOL    HW2  854   4.187   2.834   0.409
  206SOL    HW3  855   4.071   2.918   0.458
  206SOL    MW4  856   4.156   2.907   0.445
  207SOL     OW  857   2.969   2.566   0.471
  207SOL    HW2  858   3.012   2.517   0.540
  207SOL    HW3  859   3.033   2.568   0.399
  207SOL    MW4  860   2.983   2.560   0.471
  208SOL     OW  861   3.028   3.563   0.534
  208SOL    HW2  862   3.122   3.551   0.545
  208SOL    HW3  863   2.991   3.477   0.555
  208SOL    MW4  864   3.035   3.550   0.538
  209SOL     OW  865   3.345   2.748   0.446
  209SOL    HW2  866   3.423   2.693   0.441
  209SOL    HW3  867   3.281   2.703   0.390
  209SOL    MW4  868   3.346   2.735   0.438
  210SOL     OW  869   3.886   2.859   0.438
  210SOL    HW2  870   3.864   2.773   0.402
  210SOL    HW3  871   3.846   2.922   0.377
  210SOL    MW4  872   3.878   2.856   0.425
  211SOL     OW  873   3.867   2.553   0.419
  211SOL    HW2  874   3.871   2.497   0.341
  211SOL    HW3  875   3.775   2.550   0.445
  211SOL    MW4  876   3.855   2.545   0.412
  212SOL     OW  877   3.856   4.119   0.260
  212SOL    HW2  878   3.868   4.062   0.336
  212SOL    HW3  879   3.849   4.058   0.186
  212SOL    MW4  880   3.857   4.103   0.260
  213SOL     OW  881   3.406   2.365   0.367
  213SOL    HW2  882   3.378   2.334   0.453
  213SOL    HW3  883   3.486   2.316   0.348
  213SOL    MW4  884   3.413   2.355   0.376
  214SOL     OW  885   3.316   3.831   0.593
  214SOL    HW2  886   3.372   3.840   0.671
  214SOL    HW3  887   3.318   3.737   0.574
  214SOL    MW4  888   3.324   3.819   0.601
  215SOL     OW  889   4.299   3.977   0.658
  215SOL    HW2  890   4.249   3.940   0.730
  215SOL    HW3  891   4.273   4.069   0.656
  215SOL    MW4  892   4.289   3.985   0.667
  216SOL     OW  893   3.625   4.228   0.386
  216SOL    HW2  894   3.690   4.175   0.341
  216SOL    HW3  895   3.549   4.170   0.398
  216SOL    MW4  896   3.623   4.214   0.382
  217SOL     OW  897   3.652   4.505   0.326
  217SOL    HW2  898   3.643   4.420   0.368
  217SOL    HW3  899   3.601   4.497   0.245
  217SOL    MW4  900   3.644   4.493   0.321
  218SOL     OW  901   0.010   0.240   0.416
  218SOL    HW2  902  -0.027   0.174   0.357
  218SOL    HW3  903   0.001   0.202   0.504
  218SOL    MW4  904   0.004   0.227   0.420
  219SOL     OW  905   4.106   0.911   0.480
  219SOL    HW2  906   4.034   0.961   0.441
  219SOL    HW3  907   4.086   0.820   0.459
  219SOL    MW4  908   4.094   0.906   0.472
  220SOL     OW  909   0.611   1.537   0.455
  220SOL    HW2  910   0.652   1.451   0.442
  220SOL    HW3  911   0.520   1.525   0.427
  220SOL    MW4  912   0.604   1.524   0.450
  221SOL     OW  913   4.353   0.463   0.432
  221SOL    HW2  914   4.410   0.387   0.423
  221SOL    HW3  915   4.408   0.537   0.406
  221SOL    MW4  916   4.368   0.463   0.427
  222SOL     OW  917   4.362   1.406   0.468
  222SOL    HW2  918   4.309   1.480   0.439
  222SOL    HW3  919   4.334   1.391   0.559
  222SOL    MW4  920   4.352   1.414   0.476
  223SOL     OW  921   3.594   0.064   0.478
  223SOL    HW2  922   3.617  -0.016   0.430
  223SOL    HW3  923   3.668   0.122   0.465
  223SOL    MW4  924   3.607   0.061   0.470
  224SOL     OW  925   3.920   1.363   0.361
  224SOL    HW2  926   3.939   1.453   0.386
  224SOL    HW3  927   3.996   1.335   0.310
  224SOL    MW4  928   3.933   1.371   0.358
  225SOL     OW  929   0.025   1.139   0.403
  225SOL    HW2  930  -0.017   1.222   0.427
  225SOL    HW3  931  -0.024   1.073   0.451
  225SOL    MW4  932   0.013   1.141   0.412
  226SOL     OW  933   4.160   2.391   0.295
  226SOL    HW2  934   4.169   2.349   0.381
  226SOL    HW3  935   4.170   2.484   0.313
  226SOL    MW4  936   4.162   2.397   0.309
  227SOL     OW  937   4.372   1.865   0.363
  227SOL    HW2  938   4.465   1.863   0.337
  227SOL    HW3  939   4.365   1.940   0.421
  227SOL    MW4  940   4.384   1.875   0.367
  228SOL     OW  941   0.418   2.244   0.322
  228SOL    HW2  942   0.359   2.211   0.390
  228SOL    HW3  943   0.376   2.219   0.239
  228SOL    MW4  944   0.404   2.236   0.320
  229SOL     OW  945   4.339   2.106   0.492
  229SOL    HW2  946   4.284   2.173   0.533
  229SOL    HW3  947   4.385   2.153   0.422
  229SOL    MW4  948   4.338   2.121   0.488
  230SOL     OW  949   0.019   2.546   0.489
  230SOL    HW2  950   0.081   2.617   0.503
  230SOL    HW3  951   0.005   2.508   0.576
  230SOL    MW4  952   0.025   2.550   0.502
  231SOL     OW  953   4.183   3.580   0.437
  231SOL    HW2  954   4.253   3.579   0.371
  231SOL    HW3  955   4.166   3.487   0.455
  231SOL    MW4  956   4.190   3.568   0.430
  232SOL     OW  957   4.241   2.656   0.403
  232SOL    HW2  958   4.197   2.636   0.486
  232SOL    HW3  959   4.332   2.629   0.418
  232SOL    MW4  960   4.247   2.650   0.416
  233SOL     OW  961   0.282   3.851   0.382
  233SOL    HW2  962   0.271   3.942   0.410
  233SOL    HW3  963   0.376   3.843   0.364
  233SOL    MW4  964   0.293   3.862   0.383
  234SOL     OW  965   4.420   3.581   0.302
  234SOL    HW2  966   4.433   3.659   0.248
  234SOL    HW3  967   4.494   3.582   0.363
  234SOL    MW4  968   4.432   3.592   0.303
  235SOL     OW  969   0.015   3.255   0.448
  235SOL    HW2  970   0.046   3.335   0.406
  235SOL    HW3  971  -0.075   3.244   0.416
  235SOL    MW4  972   0.007   3.264   0.438
  236SOL     OW  973   3.901   3.938   0.511
  236SOL    HW2  974   3.870   3.847   0.516
  236SOL    HW3  975   3.996   3.931   0.504
  236SOL    MW4  976   3.909   3.925   0.511
  237SOL     OW  977   3.760   3.068   0.318
  237SOL    HW2  978   3.777   3.160   0.300
  237SOL    HW3  979   3.700   3.069   0.393
  237SOL    MW4  980   3.754   3.080   0.326
  238SOL     OW  981   0.157   4.100   0.475
  238SOL    HW2  982   0.127   4.084   0.564
  238SOL    HW3  983   0.079   4.086   0.421
  238SOL    MW4  984   0.142   4.096   0.480
  239SOL     OW  985   4.065   4.283   0.357
  239SOL    HW2  986   4.000   4.227   0.314
  239SOL    HW3  987   4.018   4.365   0.375
  239SOL    MW4  988   4.050   4.287   0.354
  240SOL     OW  989   4.200   4.258   0.609
  240SOL    HW2  990   4.269   4.324   0.613
  240SOL    HW3  991   4.166   4.265   0.519
  240SOL    MW4  992   4.205   4.268   0.597
  241SOL     OW  993   3.932   4.522   0.431
  241SOL    HW2  994   3.918   4.477   0.514
  241SOL    HW3  995   3.846   4.519   0.388
  241SOL    MW4  996   3.919   4.516   0.436
  242SOL     OW  997   0.238   0.023   0.801
  242SOL    HW2  998   0.233  -0.071   0.784
  242SOL    HW3  999   0.161   0.059   0.758
  242SOL    MW4 1000   0.228   0.015   0.793
  243SOL     OW 1001   0.017   0.159   0.672
  243SOL    HW2 1002  -0.067   0.125   0.704
  243SOL    HW3 1003   0.039   0.231   0.731
  243SOL    MW4 1004   0.009   0.164   0.684
  244SOL     OW 1005   4.483   0.411   0.827
  244SOL    HW2 1006   4.495   0.376   0.916
  244SOL    HW3 1007   4.559   0.468   0.814
  244SOL    MW4 1008   4.494   0.414   0.837
  245SOL     OW 1009   0.221   0.559   0.761
  245SOL    HW2 1010   0.305   0.537   0.800
  245SOL    HW3 1011   0.204   0.649   0.788
  245SOL    MW4 1012   0.230   0.568   0.769
  246SOL     OW 1013   0.228   0.817   0.857
  246SOL    HW2 1014   0.206   0.797   0.948
  246SOL    HW3 1015   0.154   0.868   0.825
  246SOL    MW4 1016   0.216   0.821   0.865
  247SOL     OW 1017   4.475   0.918   0.777
  247SOL    HW2 1018   4.403   0.876   0.824
  247SOL    HW3 1019   4.448   0.917   0.685
  247SOL    MW4 1020   4.462   0.912   0.771
  248SOL     OW 1021   0.015   1.195   0.804
  248SOL    HW2 1022   0.031   1.198   0.898
  248SOL    HW3 1023  -0.004   1.102   0.786
  248SOL    MW4 1024   0.015   1.183   0.814
  249SOL     OW 1025   0.243   1.331   0.711
  249SOL    HW2 1026   0.150   1.318   0.729
  249SOL    HW3 1027   0.258   1.283   0.630
  249SOL    MW4 1028   0.233   1.323   0.702
  250SOL     OW 1029   0.309   1.572   0.832
  250SOL    HW2 1030   0.368   1.626   0.779
  250SOL    HW3 1031   0.299   1.491   0.783
  250SOL    MW4 1032   0.316   1.569   0.818
  251SOL     OW 1033   0.045   1.629   0.741
  251SOL    HW2 1034  -0.032   1.614   0.796
  251SOL    HW3 1035   0.120   1.612   0.798
  251SOL    MW4 1036   0.045   1.625   0.756
  252SOL     OW 1037   0.035   1.892   0.829
  252SOL    HW2 1038   0.091   1.953   0.781
  252SOL    HW3 1039   0.046   1.808   0.783
  252SOL    MW4 1040   0.044   1.889   0.817
  253SOL     OW 1041   0.203   2.063   0.704
  253SOL    HW2 1042   0.220   2.134   0.766
  253SOL    HW3 1043   0.178   2.108   0.623
  253SOL    MW4 1044   0.202   2.079   0.702
  254SOL     OW 1045   0.232   2.306   0.847
  254SOL    HW2 1046   0.260   2.326   0.936
  254SOL    HW3 1047   0.288   2.360   0.792
  254SOL    MW4 1048   0.243   2.316   0.852
  255SOL     OW 1049   0.002   2.410   0.748
  255SOL    HW2 1050  -0.072   2.353   0.771
  255SOL    HW3 1051   0.077   2.370   0.792
  255SOL    MW4 1052   0.002   2.397   0.757
  256SOL     OW 1053   4.420   2.686   0.822
  256SOL    HW2 1054   4.424   2.699   0.917
  256SOL    HW3 1055   4.441   2.593   0.810
  256SOL    MW4 1056   4.423   2.675   0.833
  257SOL     OW 1057   0.167   2.784   0.767
  257SOL    HW2 1058   0.075   2.761   0.755
  257SOL    HW3 1059   0.209   2.759   0.685
  257SOL    MW4 1060   0.161   2.778   0.755
  258SOL     OW 1061   0.203   3.054   0.841
  258SOL    HW2 1062   0.207   3.051   0.936
  258SOL    HW3 1063   0.162   2.971   0.816
  258SOL    MW4 1064   0.198   3.043   0.850
  259SOL     OW 1065   0.019   3.250   0.719
  259SOL    HW2 1066   0.082   3.185   0.751
  259SOL    HW3 1067   0.022   3.241   0.623
  259SOL    MW4 1068   0.028   3.240   0.710
  260SOL     OW 1069   0.014   3.534   0.841
  260SOL    HW2 1070  -0.064   3.579   0.808
  260SOL    HW3 1071   0.009   3.447   0.802
  260SOL    MW4 1072   0.003   3.529   0.832
  261SOL     OW 1073   0.227   3.668   0.717
  261SOL    HW2 1074   0.152   3.628   0.762
  261SOL    HW3 1075   0.229   3.624   0.631
  261SOL    MW4 1076   0.217   3.657   0.711
  262SOL     OW 1077   0.269   3.916   0.854
  262SOL    HW2 1078   0.263   3.886   0.945
  262SOL    HW3 1079   0.260   3.836   0.803
  262SOL    MW4 1080   0.267   3.901   0.860
  263SOL     OW 1081   0.047   4.062   0.744
  263SOL    HW2 1082  -0.034   4.022   0.712
  263SOL    HW3 1083   0.097   3.989   0.783
  263SOL    MW4 1084   0.043   4.047   0.745
  264SOL     OW 1085   0.031   4.323   0.863
  264SOL    HW2 1086  -0.014   4.314   0.947
  264SOL    HW3 1087   0.031   4.234   0.826
  264SOL    MW4 1088   0.025   4.310   0.869
  265SOL     OW 1089   0.270   4.416   0.768
  265SOL    HW2 1090   0.190   4.370   0.792
  265SOL    HW3 1091   0.272   4.413   0.673
  265SOL    MW4 1092   0.260   4.410   0.759
  266SOL     OW 1093   0.688   0.028   0.813
  266SOL    HW2 1094   0.670   0.018   0.906
  266SOL    HW3 1095   0.614   0.077   0.778
  266SOL    MW4 1096   0.676   0.033   0.820
  267SOL     OW 1097   0.452   0.211   0.706
  267SOL    HW2 1098   0.387   0.154   0.748
  267SOL    HW3 1099   0.444   0.191   0.613
  267SOL    MW4 1100   0.443   0.201   0.699
  268SOL     OW 1101   0.452   0.447   0.847
  268SOL    HW2 1102   0.537   0.480   0.818
  268SOL    HW3 1103   0.440   0.366   0.798
  268SOL    MW4 1104   0.461   0.441   0.837
  269SOL     OW 1105   0.688   0.566   0.770
  269SOL    HW2 1106   0.737   0.492   0.807
  269SOL    HW3 1107   0.674   0.542   0.678
  269SOL    MW4 1108   0.692   0.553   0.763
  270SOL     OW 1109   0.692   0.816   0.866
  270SOL    HW2 1110   0.609   0.859   0.847
  270SOL    HW3 1111   0.685   0.731   0.824
  270SOL    MW4 1112   0.680   0.811   0.858
  271SOL     OW 1113   0.444   0.967   0.777
  271SOL    HW2 1114   0.437   1.051   0.822
  271SOL    HW3 1115   0.375   0.913   0.816
  271SOL    MW4 1116   0.434   0.971   0.788
  272SOL     OW 1117   0.438   1.224   0.871
  272SOL    HW2 1118   0.523   1.248   0.834
  272SOL    HW3 1119   0.374   1.268   0.814
  272SOL    MW4 1120   0.441   1.233   0.858
  273SOL     OW 1121   0.689   1.287   0.767
  273SOL    HW2 1122   0.695   1.378   0.794
  273SOL    HW3 1123   0.705   1.288   0.673
  273SOL    MW4 1124   0.692   1.299   0.758
  274SOL     OW 1125   0.693   1.550   0.865
  274SOL    HW2 1126   0.695   1.543   0.961
  274SOL    HW3 1127   0.622   1.613   0.848
  274SOL    MW4 1128   0.684   1.558   0.876
  275SOL     OW 1129   0.525   1.717   0.701
  275SOL    HW2 1130   0.488   1.799   0.671
  275SOL    HW3 1131   0.546   1.669   0.621
  275SOL    MW4 1132   0.522   1.721   0.686
  276SOL     OW 1133   0.403   1.940   0.588
  276SOL    HW2 1134   0.319   1.973   0.621
  276SOL    HW3 1135   0.390   1.932   0.494
  276SOL    MW4 1136   0.390   1.944   0.580
  277SOL     OW 1137   0.633   1.974   0.875
  277SOL    HW2 1138   0.605   1.986   0.966
  277SOL    HW3 1139   0.582   1.900   0.844
  277SOL    MW4 1140   0.622   1.966   0.883
  278SOL     OW 1141   0.627   2.281   0.838
  278SOL    HW2 1142   0.632   2.272   0.933
  278SOL    HW3 1143   0.615   2.191   0.807
  278SOL    MW4 1144   0.626   2.268   0.847
  279SOL     OW 1145   0.430   2.461   0.723
  279SOL    HW2 1146   0.505   2.409   0.752
  279SOL    HW3 1147   0.450   2.483   0.632
  279SOL    MW4 1148   0.442   2.457   0.715
  280SOL     OW 1149   0.406   2.704   0.883
  280SOL    HW2 1150   0.405   2.616   0.846
  280SOL    HW3 1151   0.320   2.740   0.861
  280SOL    MW4 1152   0.395   2.697   0.875
  281SOL     OW 1153   0.627   2.827   0.776
  281SOL    HW2 1154   0.690   2.758   0.756
  281SOL    HW3 1155   0.556   2.782   0.822
  281SOL    MW4 1156   0.626   2.812   0.779
  282SOL     OW 1157   0.693   3.096   0.846
  282SOL    HW2 1158   0.603   3.128   0.833
  282SOL    HW3 1159   0.690   3.005   0.817
  282SOL    MW4 1160   0.681   3.088   0.840
  283SOL     OW 1161   0.436   3.196   0.763
  283SOL    HW2 1162   0.404   3.282   0.790
  283SOL    HW3 1163   0.363   3.137   0.778
  283SOL    MW4 1164   0.422   3.199   0.769
  284SOL     OW 1165   0.444   3.494   0.840
  284SOL    HW2 1166   0.419   3.497   0.932
  284SOL    HW3 1167   0.377   3.545   0.795
  284SOL    MW4 1168   0.432   3.501   0.846
  285SOL     OW 1169   0.671   3.596   0.724
  285SOL    HW2 1170   0.590   3.556   0.758
  285SOL    HW3 1171   0.671   3.684   0.762
  285SOL    MW4 1172   0.660   3.602   0.734
  286SOL     OW 1173   0.663   3.860   0.827
  286SOL    HW2 1174   0.749   3.899   0.813
  286SOL    HW3 1175   0.602   3.918   0.779
  286SOL    MW4 1176   0.666   3.873   0.819
  287SOL     OW 1177   0.475   4.043   0.724
  287SOL    HW2 1178   0.482   4.126   0.771
  287SOL    HW3 1179   0.395   4.003   0.758
  287SOL    MW4 1180   0.466   4.048   0.735
  288SOL     OW 1181   0.502   4.283   0.859
  288SOL    HW2 1182   0.473   4.252   0.944
  288SOL    HW3 1183   0.429   4.335   0.825
  288SOL    MW4 1184   0.489   4.286   0.865
  289SOL     OW 1185   0.743   4.395   0.778
  289SOL    HW2 1186   0.659   4.361   0.808
  289SOL    HW3 1187   0.734   4.490   0.785
  289SOL    MW4 1188   0.731   4.403   0.783
  290SOL     OW 1189   1.103   4.640   0.794
  290SOL    HW2 1190   1.185   4.680   0.767
  290SOL    HW3 1191   1.035   4.695   0.755
  290SOL    MW4 1192   1.105   4.653   0.786
  291SOL     OW 1193   0.898   0.172   0.723
  291SOL    HW2 1194   0.913   0.252   0.774
  291SOL    HW3 1195   0.827   0.128   0.769
  291SOL    MW4 1196   0.891   0.177   0.736
  292SOL     OW 1197   0.882   0.395   0.897
  292SOL    HW2 1198   0.900   0.399   0.991
  292SOL    HW3 1199   0.944   0.455   0.858
  292SOL    MW4 1200   0.892   0.403   0.904
  293SOL     OW 1201   1.103   0.535   0.785
  293SOL    HW2 1202   1.164   0.465   0.809
  293SOL    HW3 1203   1.102   0.534   0.689
  293SOL    MW4 1204   1.111   0.526   0.775
  294SOL     OW 1205   1.131   0.785   0.877
  294SOL    HW2 1206   1.141   0.786   0.972
  294SOL    HW3 1207   1.118   0.693   0.855
  294SOL    MW4 1208   1.131   0.773   0.886
  295SOL     OW 1209   0.922   0.886   0.728
  295SOL    HW2 1210   1.001   0.855   0.773
  295SOL    HW3 1211   0.850   0.846   0.775
  295SOL    MW4 1212   0.923   0.876   0.740
  296SOL     OW 1213   0.884   1.120   0.877
  296SOL    HW2 1214   0.888   1.045   0.817
  296SOL    HW3 1215   0.817   1.177   0.839
  296SOL    MW4 1216   0.876   1.117   0.864
  297SOL     OW 1217   1.096   1.290   0.800
  297SOL    HW2 1218   1.033   1.227   0.835
  297SOL    HW3 1219   1.066   1.309   0.712
  297SOL    MW4 1220   1.084   1.284   0.793
  298SOL     OW 1221   1.146   1.554   0.864
  298SOL    HW2 1222   1.070   1.608   0.842
  298SOL    HW3 1223   1.118   1.465   0.842
  298SOL    MW4 1224   1.132   1.549   0.858
  299SOL     OW 1225   0.916   1.654   0.736
  299SOL    HW2 1226   0.905   1.738   0.781
  299SOL    HW3 1227   0.845   1.600   0.771
  299SOL    MW4 1228   0.905   1.658   0.747
  300SOL     OW 1229   0.898   1.915   0.860
  300SOL    HW2 1230   0.927   1.924   0.951
  300SOL    HW3 1231   0.808   1.948   0.860
  300SOL    MW4 1232   0.890   1.921   0.872
  301SOL     OW 1233   1.070   2.071   0.715
  301SOL    HW2 1234   1.091   2.150   0.764
  301SOL    HW3 1235   1.012   2.021   0.773
  301SOL    MW4 1236   1.065   2.075   0.729
  302SOL     OW 1237   1.123   2.287   0.868
  302SOL    HW2 1238   1.124   2.300   0.963
  302SOL    HW3 1239   1.185   2.352   0.834
  302SOL    MW4 1240   1.132   2.297   0.876
  303SOL     OW 1241   0.877   2.376   0.736
  303SOL    HW2 1242   0.955   2.370   0.791
  303SOL    HW3 1243   0.809   2.331   0.785
  303SOL    MW4 1244   0.879   2.369   0.750
  304SOL     OW 1245   0.855   2.662   0.801
  304SOL    HW2 1246   0.878   2.671   0.893
  304SOL    HW3 1247   0.870   2.570   0.781
  304SOL    MW4 1248   0.860   2.651   0.810
  305SOL     OW 1249   1.050   2.861   0.766
  305SOL    HW2 1250   0.989   2.799   0.806
  305SOL    HW3 1251   1.028   2.860   0.673
  305SOL    MW4 1252   1.039   2.853   0.759
  306SOL     OW 1253   1.121   3.131   0.822
  306SOL    HW2 1254   1.043   3.164   0.777
  306SOL    HW3 1255   1.129   3.040   0.794
  306SOL    MW4 1256   1.112   3.123   0.813
  307SOL     OW 1257   0.889   3.260   0.725
  307SOL    HW2 1258   0.893   3.337   0.781
  307SOL    HW3 1259   0.820   3.206   0.763
  307SOL    MW4 1260   0.880   3.263   0.737
  308SOL     OW 1261   0.875   3.486   0.877
  308SOL    HW2 1262   0.959   3.526   0.855
  308SOL    HW3 1263   0.812   3.526   0.817
  308SOL    MW4 1264   0.878   3.496   0.866
  309SOL     OW 1265   1.126   3.623   0.787
  309SOL    HW2 1266   1.219   3.602   0.785
  309SOL    HW3 1267   1.097   3.614   0.696
  309SOL    MW4 1268   1.134   3.619   0.774
  310SOL     OW 1269   1.200   3.875   0.853
  310SOL    HW2 1270   1.167   3.868   0.943
  310SOL    HW3 1271   1.168   3.796   0.810
  310SOL    MW4 1272   1.191   3.864   0.860
  311SOL     OW 1273   0.921   3.972   0.808
  311SOL    HW2 1274   0.926   4.060   0.846
  311SOL    HW3 1275   0.999   3.927   0.842
  311SOL    MW4 1276   0.932   3.978   0.818
  312SOL     OW 1277   0.944   4.237   0.889
  312SOL    HW2 1278   1.024   4.262   0.844
  312SOL    HW3 1279   0.876   4.293   0.851
  312SOL    MW4 1280   0.946   4.248   0.878
  313SOL     OW 1281   1.137   4.365   0.734
  313SOL    HW2 1282   1.224   4.348   0.771
  313SOL    HW3 1283   1.127   4.460   0.738
  313SOL    MW4 1284   1.147   4.375   0.739
  314SOL     OW 1285   1.554   4.620   0.813
  314SOL    HW2 1286   1.547   4.632   0.908
  314SOL    HW3 1287   1.479   4.669   0.777
  314SOL    MW4 1288   1.543   4.628   0.821
  315SOL     OW 1289   1.334   0.103   0.723
  315SOL    HW2 1290   1.336   0.185   0.773
  315SOL    HW3 1291   1.368   0.128   0.637
  315SOL    MW4 1292   1.339   0.117   0.718
  316SOL     OW 1293   1.326   0.372   0.835
  316SOL    HW2 1294   1.326   0.376   0.930
  316SOL    HW3 1295   1.405   0.420   0.809
  316SOL    MW4 1296   1.337   0.379   0.844
  317SOL     OW 1297   1.558   0.532   0.740
  317SOL    HW2 1298   1.556   0.609   0.796
  317SOL    HW3 1299   1.622   0.474   0.781
  317SOL    MW4 1300   1.566   0.534   0.753
  318SOL     OW 1301   1.528   0.779   0.875
  318SOL    HW2 1302   1.600   0.811   0.821
  318SOL    HW3 1303   1.449   0.809   0.831
  318SOL    MW4 1304   1.527   0.787   0.862
  319SOL     OW 1305   1.329   0.898   0.712
  319SOL    HW2 1306   1.344   0.991   0.731
  319SOL    HW3 1307   1.259   0.872   0.772
  319SOL    MW4 1308   1.321   0.907   0.722
  320SOL     OW 1309   1.342   1.151   0.824
  320SOL    HW2 1310   1.408   1.208   0.785
  320SOL    HW3 1311   1.260   1.198   0.813
  320SOL    MW4 1312   1.340   1.165   0.818
  321SOL     OW 1313   1.529   1.282   0.644
  321SOL    HW2 1314   1.557   1.373   0.629
  321SOL    HW3 1315   1.459   1.268   0.580
  321SOL    MW4 1316   1.524   1.292   0.634
  322SOL     OW 1317   1.739   1.642   0.870
  322SOL    HW2 1318   1.670   1.623   0.933
  322SOL    HW3 1319   1.810   1.581   0.894
  322SOL    MW4 1320   1.739   1.632   0.882
  323SOL     OW 1321   1.367   1.664   0.746
  323SOL    HW2 1322   1.365   1.751   0.784
  323SOL    HW3 1323   1.293   1.618   0.786
  323SOL    MW4 1324   1.357   1.669   0.756
  324SOL     OW 1325   1.338   1.955   0.786
  324SOL    HW2 1326   1.330   1.968   0.881
  324SOL    HW3 1327   1.254   1.982   0.751
  324SOL    MW4 1328   1.326   1.960   0.794
  325SOL     OW 1329   1.601   2.049   0.734
  325SOL    HW2 1330   1.513   2.016   0.750
  325SOL    HW3 1331   1.604   2.067   0.640
  325SOL    MW4 1332   1.590   2.047   0.724
  326SOL     OW 1333   1.528   2.325   0.834
  326SOL    HW2 1334   1.447   2.362   0.801
  326SOL    HW3 1335   1.528   2.235   0.802
  326SOL    MW4 1336   1.517   2.318   0.825
  327SOL     OW 1337   1.288   2.448   0.726
  327SOL    HW2 1338   1.299   2.541   0.744
  327SOL    HW3 1339   1.264   2.444   0.634
  327SOL    MW4 1340   1.287   2.460   0.716
  328SOL     OW 1341   1.305   2.738   0.813
  328SOL    HW2 1342   1.309   2.729   0.908
  328SOL    HW3 1343   1.228   2.793   0.798
  328SOL    MW4 1344   1.295   2.744   0.823
  329SOL     OW 1345   1.562   2.829   0.759
  329SOL    HW2 1346   1.549   2.923   0.760
  329SOL    HW3 1347   1.480   2.792   0.791
  329SOL    MW4 1348   1.550   2.836   0.763
  330SOL     OW 1349   1.548   3.122   0.823
  330SOL    HW2 1350   1.562   3.129   0.918
  330SOL    HW3 1351   1.475   3.181   0.805
  330SOL    MW4 1352   1.540   3.130   0.833
  331SOL     OW 1353   1.338   3.298   0.739
  331SOL    HW2 1354   1.263   3.249   0.773
  331SOL    HW3 1355   1.304   3.342   0.660
  331SOL    MW4 1356   1.324   3.298   0.733
  332SOL     OW 1357   1.379   3.543   0.865
  332SOL    HW2 1358   1.463   3.578   0.835
  332SOL    HW3 1359   1.373   3.457   0.823
  332SOL    MW4 1360   1.390   3.536   0.856
  333SOL     OW 1361   1.595   3.693   0.726
  333SOL    HW2 1362   1.665   3.628   0.718
  333SOL    HW3 1363   1.582   3.724   0.636
  333SOL    MW4 1364   1.603   3.688   0.713
  334SOL     OW 1365   1.533   3.954   0.853
  334SOL    HW2 1366   1.473   4.017   0.813
  334SOL    HW3 1367   1.501   3.869   0.824
  334SOL    MW4 1368   1.520   3.951   0.844
  335SOL     OW 1369   1.320   4.070   0.707
  335SOL    HW2 1370   1.274   3.999   0.751
  335SOL    HW3 1371   1.321   4.044   0.615
  335SOL    MW4 1372   1.314   4.057   0.701
  336SOL     OW 1373   1.386   4.302   0.853
  336SOL    HW2 1374   1.459   4.324   0.796
  336SOL    HW3 1375   1.357   4.216   0.823
  336SOL    MW4 1376   1.391   4.294   0.842
  337SOL     OW 1377   1.597   4.379   0.685
  337SOL    HW2 1378   1.662   4.336   0.740
  337SOL    HW3 1379   1.579   4.462   0.729
  337SOL    MW4 1380   1.603   4.384   0.698
  338SOL     OW 1381   1.761   0.118   0.754
  338SOL    HW2 1382   1.844   0.069   0.755
  338SOL    HW3 1383   1.695   0.054   0.781
  338SOL    MW4 1384   1.764   0.103   0.757
  339SOL     OW 1385   1.746   0.180   0.482
  339SOL    HW2 1386   1.659   0.154   0.454
  339SOL    HW3 1387   1.751   0.152   0.574
  339SOL    MW4 1388   1.736   0.173   0.491
  340SOL     OW 1389   1.761   0.381   0.840
  340SOL    HW2 1390   1.758   0.297   0.795
  340SOL    HW3 1391   1.829   0.431   0.795
  340SOL    MW4 1392   1.769   0.377   0.828
  341SOL     OW 1393   1.993   0.509   0.768
  341SOL    HW2 1394   2.023   0.511   0.677
  341SOL    HW3 1395   2.063   0.464   0.815
  341SOL    MW4 1396   2.007   0.503   0.762
  342SOL     OW 1397   1.945   0.759   0.854
  342SOL    HW2 1398   2.010   0.810   0.806
  342SOL    HW3 1399   1.955   0.670   0.821
  342SOL    MW4 1400   1.955   0.754   0.844
  343SOL     OW 1401   1.735   0.872   0.720
  343SOL    HW2 1402   1.733   0.952   0.773
  343SOL    HW3 1403   1.811   0.824   0.753
  343SOL    MW4 1404   1.745   0.876   0.731
  344SOL     OW 1405   1.742   1.117   0.840
  344SOL    HW2 1406   1.830   1.138   0.808
  344SOL    HW3 1407   1.689   1.193   0.815
  344SOL    MW4 1408   1.746   1.130   0.832
  345SOL     OW 1409   1.980   1.224   0.734
  345SOL    HW2 1410   2.067   1.209   0.773
  345SOL    HW3 1411   1.992   1.207   0.641
  345SOL    MW4 1412   1.993   1.220   0.727
  346SOL     OW 1413   1.973   1.460   0.878
  346SOL    HW2 1414   2.023   1.529   0.833
  346SOL    HW3 1415   1.990   1.381   0.827
  346SOL    MW4 1416   1.982   1.459   0.865
  347SOL     OW 1417   2.089   1.392   0.305
  347SOL    HW2 1418   2.037   1.469   0.326
  347SOL    HW3 1419   2.180   1.423   0.305
  347SOL    MW4 1420   2.095   1.406   0.308
  348SOL     OW 1421   1.823   1.906   0.843
  348SOL    HW2 1422   1.796   1.814   0.843
  348SOL    HW3 1423   1.750   1.952   0.800
  348SOL    MW4 1424   1.810   1.900   0.837
  349SOL     OW 1425   1.895   2.010   0.583
  349SOL    HW2 1426   1.916   2.103   0.590
  349SOL    HW3 1427   1.909   1.976   0.671
  349SOL    MW4 1428   1.900   2.018   0.596
  350SOL     OW 1429   2.030   2.218   0.827
  350SOL    HW2 1430   2.024   2.208   0.922
  350SOL    HW3 1431   1.955   2.272   0.803
  350SOL    MW4 1432   2.019   2.224   0.836
  351SOL     OW 1433   1.798   2.369   0.748
  351SOL    HW2 1434   1.710   2.361   0.784
  351SOL    HW3 1435   1.786   2.359   0.653
  351SOL    MW4 1436   1.785   2.367   0.740
  352SOL     OW 1437   1.800   2.653   0.759
  352SOL    HW2 1438   1.796   2.558   0.753
  352SOL    HW3 1439   1.711   2.682   0.742
  352SOL    MW4 1440   1.788   2.644   0.756
  353SOL     OW 1441   2.041   2.818   0.731
  353SOL    HW2 1442   2.110   2.758   0.758
  353SOL    HW3 1443   1.960   2.769   0.746
  353SOL    MW4 1444   2.039   2.804   0.736
  354SOL     OW 1445   2.010   3.112   0.814
  354SOL    HW2 1446   1.935   3.155   0.773
  354SOL    HW3 1447   2.007   3.022   0.782
  354SOL    MW4 1448   2.000   3.106   0.804
  355SOL     OW 1449   1.786   3.195   0.678
  355SOL    HW2 1450   1.712   3.174   0.735
  355SOL    HW3 1451   1.792   3.121   0.618
  355SOL    MW4 1452   1.777   3.182   0.678
  356SOL     OW 1453   1.778   3.486   0.822
  356SOL    HW2 1454   1.771   3.474   0.917
  356SOL    HW3 1455   1.727   3.414   0.785
  356SOL    MW4 1456   1.771   3.475   0.830
  357SOL     OW 1457   1.989   3.589   0.708
  357SOL    HW2 1458   1.972   3.669   0.756
  357SOL    HW3 1459   1.923   3.527   0.739
  357SOL    MW4 1460   1.978   3.591   0.718
  358SOL     OW 1461   1.994   3.843   0.843
  358SOL    HW2 1462   1.988   3.859   0.937
  358SOL    HW3 1463   1.916   3.884   0.806
  358SOL    MW4 1464   1.983   3.850   0.850
  359SOL     OW 1465   1.792   4.000   0.717
  359SOL    HW2 1466   1.702   3.971   0.732
  359SOL    HW3 1467   1.801   4.003   0.622
  359SOL    MW4 1468   1.781   3.996   0.707
  360SOL     OW 1469   1.787   4.254   0.829
  360SOL    HW2 1470   1.785   4.251   0.924
  360SOL    HW3 1471   1.793   4.162   0.802
  360SOL    MW4 1472   1.787   4.241   0.838
  361SOL     OW 1473   2.026   4.358   0.714
  361SOL    HW2 1474   1.946   4.331   0.759
  361SOL    HW3 1475   2.012   4.332   0.623
  361SOL    MW4 1476   2.014   4.351   0.708
  362SOL     OW 1477   2.438   4.644   0.869
  362SOL    HW2 1478   2.447   4.655   0.963
  362SOL    HW3 1479   2.517   4.683   0.832
  362SOL    MW4 1480   2.449   4.650   0.876
  363SOL     OW 1481   2.250   0.131   0.723
  363SOL    HW2 1482   2.318   0.082   0.769
  363SOL    HW3 1483   2.178   0.069   0.712
  363SOL    MW4 1484   2.250   0.116   0.727
  364SOL     OW 1485   2.215   0.377   0.865
  364SOL    HW2 1486   2.295   0.418   0.833
  364SOL    HW3 1487   2.208   0.295   0.816
  364SOL    MW4 1488   2.224   0.371   0.854
  365SOL     OW 1489   2.426   0.548   0.757
  365SOL    HW2 1490   2.391   0.529   0.671
  365SOL    HW3 1491   2.505   0.494   0.764
  365SOL    MW4 1492   2.432   0.539   0.747
  366SOL     OW 1493   2.426   0.816   0.703
  366SOL    HW2 1494   2.435   0.825   0.608
  366SOL    HW3 1495   2.431   0.722   0.719
  366SOL    MW4 1496   2.428   0.805   0.693
  367SOL     OW 1497   2.150   0.914   0.731
  367SOL    HW2 1498   2.238   0.876   0.732
  367SOL    HW3 1499   2.118   0.900   0.642
  367SOL    MW4 1500   2.157   0.907   0.720
  368SOL     OW 1501   2.211   1.162   0.834
  368SOL    HW2 1502   2.199   1.154   0.929
  368SOL    HW3 1503   2.195   1.074   0.800
  368SOL    MW4 1504   2.207   1.150   0.842
  369SOL     OW 1505   2.447   1.306   0.754
  369SOL    HW2 1506   2.361   1.268   0.772
  369SOL    HW3 1507   2.466   1.283   0.663
  369SOL    MW4 1508   2.438   1.298   0.745
  370SOL     OW 1509   2.439   1.576   0.837
  370SOL    HW2 1510   2.518   1.610   0.794
  370SOL    HW3 1511   2.438   1.483   0.814
  370SOL    MW4 1512   2.450   1.568   0.828
  371SOL     OW 1513   2.178   1.713   0.806
  371SOL    HW2 1514   2.267   1.686   0.832
  371SOL    HW3 1515   2.174   1.694   0.712
  371SOL    MW4 1516   2.189   1.707   0.797
  372SOL     OW 1517   2.211   1.984   0.818
  372SOL    HW2 1518   2.205   1.889   0.808
  372SOL    HW3 1519   2.120   2.014   0.814
  372SOL    MW4 1520   2.198   1.976   0.816
  373SOL     OW 1521   2.453   2.055   0.739
  373SOL    HW2 1522   2.367   2.024   0.769
  373SOL    HW3 1523   2.455   2.034   0.646
  373SOL    MW4 1524   2.442   2.048   0.731
  374SOL     OW 1525   2.453   2.298   0.874
  374SOL    HW2 1526   2.527   2.354   0.848
  374SOL    HW3 1527   2.460   2.222   0.816
  374SOL    MW4 1528   2.464   2.296   0.863
  375SOL     OW 1529   2.228   2.414   0.785
  375SOL    HW2 1530   2.305   2.373   0.825
  375SOL    HW3 1531   2.158   2.349   0.794
  375SOL    MW4 1532   2.229   2.400   0.791
  376SOL     OW 1533   2.251   2.679   0.835
  376SOL    HW2 1534   2.237   2.684   0.929
  376SOL    HW3 1535   2.247   2.585   0.815
  376SOL    MW4 1536   2.249   2.667   0.845
  377SOL     OW 1537   2.476   2.810   0.741
  377SOL    HW2 1538   2.541   2.765   0.795
  377SOL    HW3 1539   2.394   2.766   0.761
  377SOL    MW4 1540   2.474   2.798   0.751
  378SOL     OW 1541   2.483   3.068   0.840
  378SOL    HW2 1542   2.481   3.064   0.935
  378SOL    HW3 1543   2.479   2.977   0.811
  378SOL    MW4 1544   2.482   3.056   0.848
  379SOL     OW 1545   2.265   3.215   0.740
  379SOL    HW2 1546   2.185   3.175   0.772
  379SOL    HW3 1547   2.335   3.171   0.788
  379SOL    MW4 1548   2.264   3.204   0.750
  380SOL     OW 1549   2.221   3.479   0.827
  380SOL    HW2 1550   2.231   3.385   0.812
  380SOL    HW3 1551   2.146   3.504   0.773
  380SOL    MW4 1552   2.213   3.470   0.818
  381SOL     OW 1553   2.468   3.608   0.840
  381SOL    HW2 1554   2.537   3.546   0.866
  381SOL    HW3 1555   2.389   3.554   0.832
  381SOL    MW4 1556   2.467   3.593   0.843
  382SOL     OW 1557   2.464   3.902   0.822
  382SOL    HW2 1558   2.380   3.943   0.801
  382SOL    HW3 1559   2.448   3.808   0.809
  382SOL    MW4 1560   2.451   3.895   0.818
  383SOL     OW 1561   2.216   3.990   0.717
  383SOL    HW2 1562   2.140   3.956   0.764
  383SOL    HW3 1563   2.199   3.972   0.625
  383SOL    MW4 1564   2.204   3.984   0.711
  384SOL     OW 1565   2.238   4.243   0.837
  384SOL    HW2 1566   2.233   4.158   0.794
  384SOL    HW3 1567   2.162   4.292   0.803
  384SOL    MW4 1568   2.227   4.238   0.827
  385SOL     OW 1569   2.563   4.149   0.857
  385SOL    HW2 1570   2.552   4.054   0.848
  385SOL    HW3 1571   2.601   4.161   0.944
  385SOL    MW4 1572   2.567   4.138   0.867
  386SOL     OW 1573   2.865   4.607   0.799
  386SOL    HW2 1574   2.848   4.538   0.735
  386SOL    HW3 1575   2.796   4.672   0.784
  386SOL    MW4 1576   2.853   4.607   0.788
  387SOL     OW 1577   2.705   4.393   0.634
  387SOL    HW2 1578   2.691   4.447   0.556
  387SOL    HW3 1579   2.630   4.411   0.690
  387SOL    MW4 1580   2.693   4.402   0.631
  388SOL     OW 1581   2.653   0.393   0.809
  388SOL    HW2 1582   2.673   0.397   0.902
  388SOL    HW3 1583   2.732   0.428   0.766
  388SOL    MW4 1584   2.666   0.398   0.816
  389SOL     OW 1585   2.899   0.486   0.718
  389SOL    HW2 1586   2.954   0.437   0.778
  389SOL    HW3 1587   2.928   0.459   0.631
  389SOL    MW4 1588   2.910   0.476   0.714
  390SOL     OW 1589   2.896   0.741   0.803
  390SOL    HW2 1590   2.897   0.724   0.897
  390SOL    HW3 1591   2.911   0.655   0.763
  390SOL    MW4 1592   2.898   0.727   0.810
  391SOL     OW 1593   2.685   0.906   0.696
  391SOL    HW2 1594   2.751   0.846   0.732
  391SOL    HW3 1595   2.602   0.859   0.706
  391SOL    MW4 1596   2.683   0.892   0.702
  392SOL     OW 1597   2.657   1.134   0.874
  392SOL    HW2 1598   2.669   1.050   0.829
  392SOL    HW3 1599   2.572   1.166   0.843
  392SOL    MW4 1600   2.647   1.127   0.864
  393SOL     OW 1601   2.865   1.263   0.761
  393SOL    HW2 1602   2.946   1.225   0.796
  393SOL    HW3 1603   2.795   1.217   0.807
  393SOL    MW4 1604   2.867   1.252   0.772
  394SOL     OW 1605   2.893   1.521   0.833
  394SOL    HW2 1606   2.966   1.554   0.782
  394SOL    HW3 1607   2.880   1.431   0.803
  394SOL    MW4 1608   2.901   1.514   0.823
  395SOL     OW 1609   2.680   1.674   0.712
  395SOL    HW2 1610   2.680   1.758   0.759
  395SOL    HW3 1611   2.767   1.638   0.727
  395SOL    MW4 1612   2.691   1.680   0.720
  396SOL     OW 1613   2.658   1.918   0.826
  396SOL    HW2 1614   2.659   1.900   0.920
  396SOL    HW3 1615   2.575   1.963   0.811
  396SOL    MW4 1616   2.647   1.921   0.836
  397SOL     OW 1617   2.814   2.102   0.681
  397SOL    HW2 1618   2.833   2.168   0.747
  397SOL    HW3 1619   2.752   2.042   0.723
  397SOL    MW4 1620   2.808   2.103   0.695
  398SOL     OW 1621   2.901   2.327   0.825
  398SOL    HW2 1622   2.913   2.322   0.920
  398SOL    HW3 1623   2.815   2.368   0.815
  398SOL    MW4 1624   2.891   2.332   0.837
  399SOL     OW 1625   2.667   2.436   0.757
  399SOL    HW2 1626   2.691   2.455   0.667
  399SOL    HW3 1627   2.661   2.522   0.799
  399SOL    MW4 1628   2.669   2.450   0.751
  400SOL     OW 1629   2.678   2.698   0.869
  400SOL    HW2 1630   2.680   2.664   0.959
  400SOL    HW3 1631   2.762   2.743   0.859
  400SOL    MW4 1632   2.689   2.699   0.880
  401SOL     OW 1633   2.882   2.884   0.505
  401SOL    HW2 1634   2.915   2.808   0.458
  401SOL    HW3 1635   2.797   2.902   0.466
  401SOL    MW4 1636   2.875   2.876   0.494
  402SOL     OW 1637   2.958   3.094   0.855
  402SOL    HW2 1638   2.873   3.130   0.828
  402SOL    HW3 1639   2.949   3.000   0.843
  402SOL    MW4 1640   2.946   3.087   0.850
  403SOL     OW 1641   2.711   3.180   0.747
  403SOL    HW2 1642   2.695   3.264   0.791
  403SOL    HW3 1643   2.638   3.125   0.774
  403SOL    MW4 1644   2.699   3.184   0.757
  404SOL     OW 1645   2.679   3.424   0.872
  404SOL    HW2 1646   2.685   3.405   0.966
  404SOL    HW3 1647   2.758   3.473   0.852
  404SOL    MW4 1648   2.690   3.428   0.882
  405SOL     OW 1649   2.931   3.564   0.811
  405SOL    HW2 1650   2.946   3.636   0.873
  405SOL    HW3 1651   2.955   3.600   0.726
  405SOL    MW4 1652   2.936   3.578   0.808
  406SOL     OW 1653   2.966   3.839   0.892
  406SOL    HW2 1654   2.945   3.861   0.983
  406SOL    HW3 1655   2.886   3.858   0.844
  406SOL    MW4 1656   2.953   3.845   0.898
  407SOL     OW 1657   2.729   3.921   0.704
  407SOL    HW2 1658   2.643   3.883   0.721
  407SOL    HW3 1659   2.761   3.875   0.626
  407SOL    MW4 1660   2.722   3.910   0.696
  408SOL     OW 1661   2.861   4.207   0.895
  408SOL    HW2 1662   2.824   4.210   0.984
  408SOL    HW3 1663   2.945   4.252   0.903
  408SOL    MW4 1664   2.867   4.213   0.908
  409SOL     OW 1665   3.127   4.346   0.457
  409SOL    HW2 1666   3.192   4.367   0.524
  409SOL    HW3 1667   3.076   4.275   0.494
  409SOL    MW4 1668   3.129   4.339   0.470
  410SOL     OW 1669   3.354   4.627   0.802
  410SOL    HW2 1670   3.337   4.605   0.894
  410SOL    HW3 1671   3.277   4.678   0.775
  410SOL    MW4 1672   3.341   4.631   0.810
  411SOL     OW 1673   3.115   0.077   0.749
  411SOL    HW2 1674   3.102   0.166   0.781
  411SOL    HW3 1675   3.032   0.032   0.766
  411SOL    MW4 1676   3.102   0.082   0.756
  412SOL     OW 1677   3.114   0.350   0.862
  412SOL    HW2 1678   3.121   0.351   0.957
  412SOL    HW3 1679   3.196   0.389   0.831
  412SOL    MW4 1680   3.126   0.355   0.870
  413SOL     OW 1681   3.344   0.471   0.739
  413SOL    HW2 1682   3.430   0.429   0.739
  413SOL    HW3 1683   3.329   0.494   0.647
  413SOL    MW4 1684   3.353   0.469   0.727
  414SOL     OW 1685   3.374   0.732   0.834
  414SOL    HW2 1686   3.295   0.778   0.807
  414SOL    HW3 1687   3.358   0.640   0.811
  414SOL    MW4 1688   3.362   0.726   0.827
  415SOL     OW 1689   3.143   0.871   0.760
  415SOL    HW2 1690   3.123   0.964   0.771
  415SOL    HW3 1691   3.059   0.827   0.764
  415SOL    MW4 1692   3.129   0.877   0.762
  416SOL     OW 1693   3.103   1.134   0.813
  416SOL    HW2 1694   3.117   1.140   0.908
  416SOL    HW3 1695   3.187   1.159   0.775
  416SOL    MW4 1696   3.116   1.138   0.821
  417SOL     OW 1697   3.330   1.239   0.698
  417SOL    HW2 1698   3.414   1.199   0.722
  417SOL    HW3 1699   3.334   1.328   0.734
  417SOL    MW4 1700   3.342   1.246   0.706
  418SOL     OW 1701   3.357   1.487   0.806
  418SOL    HW2 1702   3.364   1.489   0.902
  418SOL    HW3 1703   3.413   1.559   0.777
  418SOL    MW4 1704   3.366   1.496   0.815
  419SOL     OW 1705   3.111   1.602   0.713
  419SOL    HW2 1706   3.191   1.554   0.733
  419SOL    HW3 1707   3.111   1.610   0.617
  419SOL    MW4 1708   3.122   1.597   0.703
  420SOL     OW 1709   3.163   1.851   0.820
  420SOL    HW2 1710   3.154   1.844   0.915
  420SOL    HW3 1711   3.159   1.761   0.788
  420SOL    MW4 1712   3.161   1.838   0.828
  421SOL     OW 1713   3.568   1.953   0.818
  421SOL    HW2 1714   3.516   2.033   0.814
  421SOL    HW3 1715   3.521   1.890   0.764
  421SOL    MW4 1716   3.555   1.956   0.810
  422SOL     OW 1717   3.435   2.201   0.820
  422SOL    HW2 1718   3.393   2.220   0.904
  422SOL    HW3 1719   3.526   2.228   0.832
  422SOL    MW4 1720   3.442   2.207   0.833
  423SOL     OW 1721   3.101   2.459   0.672
  423SOL    HW2 1722   3.174   2.402   0.648
  423SOL    HW3 1723   3.040   2.400   0.719
  423SOL    MW4 1724   3.102   2.443   0.675
  424SOL     OW 1725   3.155   2.702   0.828
  424SOL    HW2 1726   3.134   2.619   0.785
  424SOL    HW3 1727   3.240   2.727   0.791
  424SOL    MW4 1728   3.164   2.694   0.818
  425SOL     OW 1729   3.405   2.776   0.746
  425SOL    HW2 1730   3.379   2.789   0.655
  425SOL    HW3 1731   3.484   2.722   0.740
  425SOL    MW4 1732   3.412   2.770   0.733
  426SOL     OW 1733   3.404   3.042   0.809
  426SOL    HW2 1734   3.409   3.078   0.897
  426SOL    HW3 1735   3.423   2.949   0.819
  426SOL    MW4 1736   3.407   3.035   0.822
  427SOL     OW 1737   3.182   3.218   0.737
  427SOL    HW2 1738   3.266   3.173   0.750
  427SOL    HW3 1739   3.121   3.172   0.793
  427SOL    MW4 1740   3.185   3.206   0.746
  428SOL     OW 1741   3.208   3.482   0.822
  428SOL    HW2 1742   3.198   3.388   0.802
  428SOL    HW3 1743   3.118   3.516   0.822
  428SOL    MW4 1744   3.194   3.474   0.819
  429SOL     OW 1745   3.584   4.268   0.668
  429SOL    HW2 1746   3.587   4.224   0.583
  429SOL    HW3 1747   3.642   4.343   0.659
  429SOL    MW4 1748   3.592   4.272   0.656
  430SOL     OW 1749   3.476   3.865   0.854
  430SOL    HW2 1750   3.467   3.959   0.844
  430SOL    HW3 1751   3.443   3.846   0.942
  430SOL    MW4 1752   3.471   3.875   0.864
  431SOL     OW 1753   3.126   3.990   0.704
  431SOL    HW2 1754   3.181   3.933   0.652
  431SOL    HW3 1755   3.076   3.931   0.760
  431SOL    MW4 1756   3.126   3.975   0.705
  432SOL     OW 1757   3.176   4.250   0.897
  432SOL    HW2 1758   3.211   4.319   0.841
  432SOL    HW3 1759   3.142   4.185   0.836
  432SOL    MW4 1760   3.176   4.251   0.881
  433SOL     OW 1761   3.325   4.393   0.685
  433SOL    HW2 1762   3.323   4.484   0.713
  433SOL    HW3 1763   3.417   4.369   0.686
  433SOL    MW4 1764   3.337   4.402   0.689
  434SOL     OW 1765   3.816   4.631   0.820
  434SOL    HW2 1766   3.883   4.688   0.782
  434SOL    HW3 1767   3.734   4.678   0.807
  434SOL    MW4 1768   3.814   4.645   0.814
  435SOL     OW 1769   3.590   0.095   0.757
  435SOL    HW2 1770   3.510   0.052   0.786
  435SOL    HW3 1771   3.597   0.074   0.664
  435SOL    MW4 1772   3.580   0.087   0.749
  436SOL     OW 1773   3.595   0.362   0.823
  436SOL    HW2 1774   3.583   0.370   0.918
  436SOL    HW3 1775   3.601   0.268   0.807
  436SOL    MW4 1776   3.595   0.351   0.833
  437SOL     OW 1777   3.836   0.505   0.744
  437SOL    HW2 1778   3.831   0.601   0.748
  437SOL    HW3 1779   3.753   0.475   0.780
  437SOL    MW4 1780   3.824   0.514   0.750
  438SOL     OW 1781   3.834   0.792   0.822
  438SOL    HW2 1782   3.826   0.780   0.917
  438SOL    HW3 1783   3.918   0.837   0.811
  438SOL    MW4 1784   3.844   0.796   0.833
  439SOL     OW 1785   3.600   0.865   0.694
  439SOL    HW2 1786   3.677   0.830   0.740
  439SOL    HW3 1787   3.527   0.813   0.728
  439SOL    MW4 1788   3.601   0.853   0.705
  440SOL     OW 1789   3.567   1.121   0.788
  440SOL    HW2 1790   3.568   1.120   0.883
  440SOL    HW3 1791   3.584   1.030   0.762
  440SOL    MW4 1792   3.569   1.109   0.797
  441SOL     OW 1793   3.810   1.227   0.679
  441SOL    HW2 1794   3.742   1.185   0.732
  441SOL    HW3 1795   3.762   1.268   0.607
  441SOL    MW4 1796   3.795   1.227   0.677
  442SOL     OW 1797   3.886   1.472   0.821
  442SOL    HW2 1798   3.940   1.529   0.768
  442SOL    HW3 1799   3.887   1.387   0.776
  442SOL    MW4 1800   3.893   1.468   0.808
  443SOL     OW 1801   3.643   1.604   0.791
  443SOL    HW2 1802   3.640   1.638   0.880
  443SOL    HW3 1803   3.708   1.534   0.793
  443SOL    MW4 1804   3.651   1.600   0.803
  444SOL     OW 1805   3.807   1.959   0.662
  444SOL    HW2 1806   3.874   1.940   0.727
  444SOL    HW3 1807   3.725   1.963   0.712
  444SOL    MW4 1808   3.805   1.957   0.677
  445SOL     OW 1809   3.865   2.233   0.606
  445SOL    HW2 1810   3.822   2.292   0.669
  445SOL    HW3 1811   3.847   2.145   0.639
  445SOL    MW4 1812   3.857   2.229   0.619
  446SOL     OW 1813   3.799   1.792   0.450
  446SOL    HW2 1814   3.800   1.854   0.522
  446SOL    HW3 1815   3.729   1.730   0.472
  446SOL    MW4 1816   3.790   1.792   0.462
  447SOL     OW 1817   3.702   2.324   0.825
  447SOL    HW2 1818   3.675   2.416   0.829
  447SOL    HW3 1819   3.736   2.304   0.912
  447SOL    MW4 1820   3.703   2.333   0.837
  448SOL     OW 1821   3.637   2.625   0.789
  448SOL    HW2 1822   3.628   2.634   0.884
  448SOL    HW3 1823   3.699   2.693   0.764
  448SOL    MW4 1824   3.644   2.635   0.798
  449SOL     OW 1825   3.762   2.852   0.685
  449SOL    HW2 1826   3.759   2.938   0.726
  449SOL    HW3 1827   3.786   2.869   0.594
  449SOL    MW4 1828   3.765   2.865   0.678
  450SOL     OW 1829   3.757   3.126   0.773
  450SOL    HW2 1830   3.842   3.162   0.747
  450SOL    HW3 1831   3.694   3.192   0.744
  450SOL    MW4 1832   3.760   3.140   0.766
  451SOL     OW 1833   3.547   3.070   0.540
  451SOL    HW2 1834   3.536   3.023   0.623
  451SOL    HW3 1835   3.468   3.049   0.490
  451SOL    MW4 1836   3.535   3.061   0.545
  452SOL     OW 1837   3.504   3.460   0.880
  452SOL    HW2 1838   3.537   3.401   0.812
  452SOL    HW3 1839   3.409   3.447   0.880
  452SOL    MW4 1840   3.496   3.451   0.871
  453SOL     OW 1841   3.872   3.661   0.599
  453SOL    HW2 1842   3.800   3.674   0.661
  453SOL    HW3 1843   3.925   3.591   0.638
  453SOL    MW4 1844   3.870   3.653   0.612
  454SOL     OW 1845   3.657   3.676   0.760
  454SOL    HW2 1846   3.598   3.743   0.794
  454SOL    HW3 1847   3.612   3.594   0.777
  454SOL    MW4 1848   3.644   3.674   0.767
  455SOL     OW 1849   2.677   4.133   0.217
  455SOL    HW2 1850   2.706   4.197   0.152
  455SOL    HW3 1851   2.654   4.185   0.294
  455SOL    MW4 1852   2.677   4.148   0.218
  456SOL     OW 1853   3.440   4.154   0.883
  456SOL    HW2 1854   3.471   4.188   0.799
  456SOL    HW3 1855   3.348   4.180   0.887
  456SOL    MW4 1856   3.432   4.162   0.873
  457SOL     OW 1857   3.833   4.403   0.663
  457SOL    HW2 1858   3.888   4.348   0.718
  457SOL    HW3 1859   3.823   4.484   0.712
  457SOL    MW4 1860   3.839   4.406   0.677
  458SOL     OW 1861   4.286   0.018   0.786
  458SOL    HW2 1862   4.285   0.012   0.882
  458SOL    HW3 1863   4.199   0.050   0.763
  458SOL    MW4 1864   4.274   0.021   0.796
  459SOL     OW 1865   4.028   0.128   0.723
  459SOL    HW2 1866   4.058   0.209   0.765
  459SOL    HW3 1867   4.051   0.139   0.631
  459SOL    MW4 1868   4.035   0.140   0.716
  460SOL     OW 1869   4.073   0.375   0.816
  460SOL    HW2 1870   4.136   0.436   0.778
  460SOL    HW3 1871   3.989   0.420   0.809
  460SOL    MW4 1872   4.070   0.389   0.810
  461SOL     OW 1873   4.268   0.536   0.714
  461SOL    HW2 1874   4.334   0.485   0.761
  461SOL    HW3 1875   4.290   0.523   0.622
  461SOL    MW4 1876   4.280   0.527   0.708
  462SOL     OW 1877   4.268   0.779   0.870
  462SOL    HW2 1878   4.215   0.842   0.821
  462SOL    HW3 1879   4.250   0.695   0.827
  462SOL    MW4 1880   4.258   0.776   0.858
  463SOL     OW 1881   4.065   0.927   0.753
  463SOL    HW2 1882   4.061   1.018   0.783
  463SOL    HW3 1883   4.081   0.934   0.659
  463SOL    MW4 1884   4.067   0.940   0.745
  464SOL     OW 1885   4.063   1.194   0.815
  464SOL    HW2 1886   4.042   1.194   0.908
  464SOL    HW3 1887   3.978   1.181   0.772
  464SOL    MW4 1888   4.049   1.192   0.822
  465SOL     OW 1889   4.279   1.337   0.746
  465SOL    HW2 1890   4.205   1.279   0.763
  465SOL    HW3 1891   4.356   1.288   0.772
  465SOL    MW4 1892   4.279   1.323   0.752
  466SOL     OW 1893   4.315   1.567   0.891
  466SOL    HW2 1894   4.280   1.559   0.980
  466SOL    HW3 1895   4.299   1.482   0.851
  466SOL    MW4 1896   4.308   1.555   0.897
  467SOL     OW 1897   4.087   1.629   0.733
  467SOL    HW2 1898   4.155   1.613   0.798
  467SOL    HW3 1899   4.133   1.637   0.650
  467SOL    MW4 1900   4.102   1.628   0.731
  468SOL     OW 1901   4.024   1.878   0.820
  468SOL    HW2 1902   4.032   1.786   0.796
  468SOL    HW3 1903   4.110   1.915   0.801
  468SOL    MW4 1904   4.036   1.871   0.815
  469SOL     OW 1905   4.278   1.990   0.762
  469SOL    HW2 1906   4.357   1.955   0.801
  469SOL    HW3 1907   4.299   2.000   0.669
  469SOL    MW4 1908   4.291   1.987   0.755
  470SOL     OW 1909   4.277   2.273   0.818
  470SOL    HW2 1910   4.220   2.306   0.749
  470SOL    HW3 1911   4.280   2.179   0.805
  470SOL    MW4 1912   4.270   2.265   0.807
  471SOL     OW 1913   4.070   2.564   0.594
  471SOL    HW2 1914   4.038   2.623   0.662
  471SOL    HW3 1915   3.992   2.546   0.540
  471SOL    MW4 1916   4.055   2.569   0.596
  472SOL     OW 1917   3.999   2.744   0.789
  472SOL    HW2 1918   4.074   2.803   0.782
  472SOL    HW3 1919   3.923   2.798   0.769
  472SOL    MW4 1920   3.999   2.759   0.786
  473SOL     OW 1921   4.227   2.887   0.726
  473SOL    HW2 1922   4.281   2.816   0.760
  473SOL    HW3 1923   4.237   2.881   0.631
  473SOL    MW4 1924   4.236   2.877   0.718
  474SOL     OW 1925   4.268   3.143   0.826
  474SOL    HW2 1926   4.254   3.056   0.788
  474SOL    HW3 1927   4.350   3.174   0.788
  474SOL    MW4 1928   4.277   3.136   0.816
  475SOL     OW 1929   4.013   3.232   0.747
  475SOL    HW2 1930   4.015   3.327   0.765
  475SOL    HW3 1931   4.103   3.203   0.765
  475SOL    MW4 1932   4.025   3.241   0.752
  476SOL     OW 1933   4.028   3.494   0.795
  476SOL    HW2 1934   4.033   3.488   0.890
  476SOL    HW3 1935   4.117   3.518   0.768
  476SOL    MW4 1936   4.041   3.496   0.804
  477SOL     OW 1937   4.275   3.626   0.722
  477SOL    HW2 1938   4.235   3.699   0.769
  477SOL    HW3 1939   4.248   3.640   0.631
  477SOL    MW4 1940   4.266   3.638   0.716
  478SOL     OW 1941   4.146   3.853   0.844
  478SOL    HW2 1942   4.169   3.863   0.937
  478SOL    HW3 1943   4.050   3.848   0.844
  478SOL    MW4 1944   4.136   3.853   0.857
  479SOL     OW 1945   3.868   3.836   0.866
  479SOL    HW2 1946   3.819   3.761   0.832
  479SOL    HW3 1947   3.829   3.911   0.822
  479SOL    MW4 1948   3.856   3.836   0.855
  480SOL     OW 1949   4.006   4.229   0.800
  480SOL    HW2 1950   4.058   4.238   0.720
  480SOL    HW3 1951   3.942   4.161   0.780
  480SOL    MW4 1952   4.005   4.221   0.787
  481SOL     OW 1953   4.393   4.462   0.656
  481SOL    HW2 1954   4.341   4.529   0.701
  481SOL    HW3 1955   4.442   4.419   0.726
  481SOL    MW4 1956   4.392   4.465   0.671
  482SOL     OW 1957   0.286   0.019   1.096
  482SOL    HW2 1958   0.346   0.091   1.114
  482SOL    HW3 1959   0.264   0.028   1.003
  482SOL    MW4 1960   0.291   0.030   1.086
  483SOL     OW 1961   0.040   0.055   1.218
  483SOL    HW2 1962  -0.038   0.032   1.166
  483SOL    HW3 1963   0.113   0.013   1.173
  483SOL    MW4 1964   0.039   0.047   1.205
  484SOL     OW 1965   0.020   0.325   1.096
  484SOL    HW2 1966  -0.056   0.355   1.146
  484SOL    HW3 1967   0.033   0.235   1.124
  484SOL    MW4 1968   0.012   0.317   1.106
  485SOL     OW 1969   0.215   0.488   1.222
  485SOL    HW2 1970   0.189   0.570   1.180
  485SOL    HW3 1971   0.154   0.423   1.188
  485SOL    MW4 1972   0.204   0.490   1.212
  486SOL     OW 1973   0.188   0.749   1.128
  486SOL    HW2 1974   0.271   0.791   1.149
  486SOL    HW3 1975   0.121   0.810   1.161
  486SOL    MW4 1976   0.190   0.763   1.136
  487SOL     OW 1977   4.482   0.923   1.182
  487SOL    HW2 1978   4.503   0.936   1.275
  487SOL    HW3 1979   4.409   0.862   1.182
  487SOL    MW4 1980   4.475   0.917   1.194
  488SOL     OW 1981   0.019   1.178   1.089
  488SOL    HW2 1982  -0.061   1.223   1.117
  488SOL    HW3 1983   0.003   1.086   1.109
  488SOL    MW4 1984   0.006   1.172   1.095
  489SOL     OW 1985   0.212   1.318   1.224
  489SOL    HW2 1986   0.287   1.260   1.210
  489SOL    HW3 1987   0.137   1.268   1.192
  489SOL    MW4 1988   0.212   1.304   1.218
  490SOL     OW 1989   0.243   1.550   1.104
  490SOL    HW2 1990   0.237   1.460   1.136
  490SOL    HW3 1991   0.284   1.542   1.018
  490SOL    MW4 1992   0.247   1.537   1.097
  491SOL     OW 1993   4.486   1.663   1.222
  491SOL    HW2 1994   4.472   1.752   1.191
  491SOL    HW3 1995   4.574   1.640   1.191
  491SOL    MW4 1996   4.496   1.672   1.214
  492SOL     OW 1997   0.030   1.933   1.130
  492SOL    HW2 1998  -0.052   1.975   1.156
  492SOL    HW3 1999   0.018   1.910   1.038
  492SOL    MW4 2000   0.018   1.936   1.121
  493SOL     OW 2001   0.244   2.073   1.223
  493SOL    HW2 2002   0.252   2.150   1.166
  493SOL    HW3 2003   0.162   2.031   1.195
  493SOL    MW4 2004   0.234   2.078   1.212
  494SOL     OW 2005   0.278   2.331   1.118
  494SOL    HW2 2006   0.353   2.388   1.136
  494SOL    HW3 2007   0.202   2.381   1.148
  494SOL    MW4 2008   0.278   2.346   1.124
  495SOL     OW 2009   0.022   2.432   1.172
  495SOL    HW2 2010   0.013   2.429   1.267
  495SOL    HW3 2011  -0.052   2.381   1.139
  495SOL    MW4 2012   0.011   2.425   1.180
  496SOL     OW 2013   4.483   2.709   1.102
  496SOL    HW2 2014   4.405   2.756   1.129
  496SOL    HW3 2015   4.462   2.616   1.116
  496SOL    MW4 2016   4.470   2.703   1.107
  497SOL     OW 2017   0.213   2.831   1.233
  497SOL    HW2 2018   0.222   2.832   1.328
  497SOL    HW3 2019   0.136   2.775   1.217
  497SOL    MW4 2020   0.204   2.824   1.243
  498SOL     OW 2021   0.219   3.095   1.108
  498SOL    HW2 2022   0.286   3.150   1.149
  498SOL    HW3 2023   0.229   3.010   1.151
  498SOL    MW4 2024   0.229   3.091   1.119
  499SOL     OW 2025   0.013   3.222   1.229
  499SOL    HW2 2026  -0.060   3.163   1.206
  499SOL    HW3 2027   0.091   3.179   1.193
  499SOL    MW4 2028   0.014   3.209   1.221
  500SOL     OW 2029   4.428   3.483   1.109
  500SOL    HW2 2030   4.432   3.389   1.125
  500SOL    HW3 2031   4.444   3.492   1.015
  500SOL    MW4 2032   4.431   3.472   1.099
  501SOL     OW 2033   0.155   3.604   1.221
  501SOL    HW2 2034   0.151   3.603   1.317
  501SOL    HW3 2035   0.075   3.560   1.193
  501SOL    MW4 2036   0.144   3.598   1.230
  502SOL     OW 2037   0.190   3.863   1.111
  502SOL    HW2 2038   0.114   3.915   1.137
  502SOL    HW3 2039   0.179   3.780   1.158
  502SOL    MW4 2040   0.178   3.859   1.121
  503SOL     OW 2041   4.473   4.032   1.205
  503SOL    HW2 2042   4.470   4.021   1.300
  503SOL    HW3 2043   4.384   4.012   1.176
  503SOL    MW4 2044   4.461   4.028   1.214
  504SOL     OW 2045   4.459   4.296   1.139
  504SOL    HW2 2046   4.546   4.333   1.152
  504SOL    HW3 2047   4.467   4.205   1.169
  504SOL    MW4 2048   4.471   4.289   1.145
  505SOL     OW 2049   0.225   4.414   1.177
  505SOL    HW2 2050   0.239   4.414   1.272
  505SOL    HW3 2051   0.258   4.499   1.148
  505SOL    MW4 2052   0.231   4.425   1.186
  506SOL     OW 2053   0.660   4.657   1.095
  506SOL    HW2 2054   0.734   4.685   1.148
  506SOL    HW3 2055   0.646   4.565   1.119
  506SOL    MW4 2056   0.668   4.649   1.105
  507SOL     OW 2057   0.478   0.186   1.196
  507SOL    HW2 2058   0.472   0.271   1.153
  507SOL    HW3 2059   0.550   0.142   1.152
  507SOL    MW4 2060   0.486   0.191   1.185
  508SOL     OW 2061   0.457   0.442   1.112
  508SOL    HW2 2062   0.372   0.476   1.142
  508SOL    HW3 2063   0.453   0.448   1.016
  508SOL    MW4 2064   0.445   0.448   1.103
  509SOL     OW 2065   0.710   0.519   1.205
  509SOL    HW2 2066   0.710   0.613   1.187
  509SOL    HW3 2067   0.622   0.490   1.182
  509SOL    MW4 2068   0.698   0.528   1.200
  510SOL     OW 2069   0.672   0.799   1.153
  510SOL    HW2 2070   0.589   0.845   1.166
  510SOL    HW3 2071   0.688   0.806   1.059
  510SOL    MW4 2072   0.663   0.806   1.142
  511SOL     OW 2073   0.409   0.887   1.188
  511SOL    HW2 2074   0.401   0.879   1.283
  511SOL    HW3 2075   0.387   0.978   1.169
  511SOL    MW4 2076   0.405   0.898   1.198
  512SOL     OW 2077   0.412   1.159   1.134
  512SOL    HW2 2078   0.494   1.189   1.175
  512SOL    HW3 2079   0.416   1.196   1.046
  512SOL    MW4 2080   0.424   1.168   1.128
  513SOL     OW 2081   0.641   1.298   1.256
  513SOL    HW2 2082   0.723   1.270   1.217
  513SOL    HW3 2083   0.645   1.394   1.255
  513SOL    MW4 2084   0.652   1.307   1.251
  514SOL     OW 2085   0.670   1.555   1.162
  514SOL    HW2 2086   0.737   1.616   1.194
  514SOL    HW3 2087   0.588   1.602   1.173
  514SOL    MW4 2088   0.668   1.569   1.168
  515SOL     OW 2089   0.452   1.704   1.196
  515SOL    HW2 2090   0.449   1.697   1.291
  515SOL    HW3 2091   0.372   1.659   1.166
  515SOL    MW4 2092   0.441   1.697   1.204
  516SOL     OW 2093   0.469   1.958   1.117
  516SOL    HW2 2094   0.442   1.870   1.141
  516SOL    HW3 2095   0.397   2.014   1.148
  516SOL    MW4 2096   0.456   1.954   1.124
  517SOL     OW 2097   0.699   2.061   1.228
  517SOL    HW2 2098   0.691   2.063   1.323
  517SOL    HW3 2099   0.613   2.031   1.198
  517SOL    MW4 2100   0.687   2.057   1.237
  518SOL     OW 2101   0.710   2.313   1.112
  518SOL    HW2 2102   0.641   2.368   1.149
  518SOL    HW3 2103   0.711   2.235   1.167
  518SOL    MW4 2104   0.701   2.310   1.124
  519SOL     OW 2105   0.510   2.470   1.218
  519SOL    HW2 2106   0.496   2.461   1.312
  519SOL    HW3 2107   0.500   2.563   1.200
  519SOL    MW4 2108   0.507   2.481   1.228
  520SOL     OW 2109   0.464   2.731   1.149
  520SOL    HW2 2110   0.383   2.771   1.179
  520SOL    HW3 2111   0.454   2.726   1.054
  520SOL    MW4 2112   0.452   2.735   1.140
  521SOL     OW 2113   0.703   2.845   1.215
  521SOL    HW2 2114   0.702   2.923   1.160
  521SOL    HW3 2115   0.629   2.793   1.184
  521SOL    MW4 2116   0.693   2.849   1.204
  522SOL     OW 2117   0.629   3.102   1.125
  522SOL    HW2 2118   0.700   3.140   1.177
  522SOL    HW3 2119   0.654   3.120   1.035
  522SOL    MW4 2120   0.642   3.110   1.120
  523SOL     OW 2121   0.414   3.208   1.239
  523SOL    HW2 2122   0.401   3.298   1.212
  523SOL    HW3 2123   0.495   3.181   1.197
  523SOL    MW4 2124   0.423   3.216   1.230
  524SOL     OW 2125   0.366   3.445   1.108
  524SOL    HW2 2126   0.420   3.510   1.153
  524SOL    HW3 2127   0.276   3.473   1.124
  524SOL    MW4 2128   0.361   3.458   1.116
  525SOL     OW 2129   0.589   3.589   1.168
  525SOL    HW2 2130   0.607   3.598   1.262
  525SOL    HW3 2131   0.614   3.674   1.131
  525SOL    MW4 2132   0.595   3.602   1.176
  526SOL     OW 2133   0.679   3.846   1.113
  526SOL    HW2 2134   0.596   3.883   1.143
  526SOL    HW3 2135   0.678   3.858   1.018
  526SOL    MW4 2136   0.668   3.852   1.104
  527SOL     OW 2137   0.438   3.959   1.192
  527SOL    HW2 2138   0.425   4.049   1.160
  527SOL    HW3 2139   0.360   3.912   1.163
  527SOL    MW4 2140   0.426   3.965   1.184
  528SOL     OW 2141   0.443   4.235   1.124
  528SOL    HW2 2142   0.509   4.294   1.160
  528SOL    HW3 2143   0.360   4.277   1.143
  528SOL    MW4 2144   0.441   4.248   1.131
  529SOL     OW 2145   0.644   4.396   1.209
  529SOL    HW2 2146   0.648   4.404   1.304
  529SOL    HW3 2147   0.726   4.354   1.185
  529SOL    MW4 2148   0.655   4.391   1.218
  530SOL     OW 2149   1.111   4.650   1.075
  530SOL    HW2 2150   1.112   4.562   1.114
  530SOL    HW3 2151   1.088   4.635   0.983
  530SOL    MW4 2152   1.108   4.636   1.068
  531SOL     OW 2153   0.896   0.073   1.223
  531SOL    HW2 2154   0.919   0.084   1.315
  531SOL    HW3 2155   0.978   0.052   1.179
  531SOL    MW4 2156   0.910   0.071   1.229
  532SOL     OW 2157   0.936   0.354   1.176
  532SOL    HW2 2158   0.920   0.261   1.188
  532SOL    HW3 2159   0.856   0.397   1.206
  532SOL    MW4 2160   0.923   0.347   1.181
  533SOL     OW 2161   1.142   0.528   1.252
  533SOL    HW2 2162   1.130   0.521   1.346
  533SOL    HW3 2163   1.081   0.465   1.215
  533SOL    MW4 2164   1.133   0.519   1.259
  534SOL     OW 2165   1.123   0.789   1.146
  534SOL    HW2 2166   1.040   0.826   1.177
  534SOL    HW3 2167   1.125   0.701   1.183
  534SOL    MW4 2168   1.112   0.782   1.155
  535SOL     OW 2169   0.897   0.927   1.251
  535SOL    HW2 2170   0.891   1.013   1.211
  535SOL    HW3 2171   0.816   0.883   1.226
  535SOL    MW4 2172   0.886   0.932   1.242
  536SOL     OW 2173   0.871   1.176   1.143
  536SOL    HW2 2174   0.953   1.225   1.151
  536SOL    HW3 2175   0.872   1.143   1.053
  536SOL    MW4 2176   0.882   1.178   1.132
  537SOL     OW 2177   1.106   1.303   1.204
  537SOL    HW2 2178   1.104   1.290   1.298
  537SOL    HW3 2179   1.191   1.270   1.176
  537SOL    MW4 2180   1.117   1.297   1.212
  538SOL     OW 2181   1.148   1.565   1.125
  538SOL    HW2 2182   1.119   1.477   1.150
  538SOL    HW3 2183   1.158   1.560   1.030
  538SOL    MW4 2184   1.146   1.553   1.116
  539SOL     OW 2185   0.915   1.694   1.221
  539SOL    HW2 2186   0.917   1.788   1.206
  539SOL    HW3 2187   0.994   1.660   1.178
  539SOL    MW4 2188   0.926   1.702   1.214
  540SOL     OW 2189   0.937   1.956   1.132
  540SOL    HW2 2190   1.013   2.004   1.168
  540SOL    HW3 2191   0.861   2.006   1.162
  540SOL    MW4 2192   0.937   1.969   1.141
  541SOL     OW 2193   1.178   2.095   1.222
  541SOL    HW2 2194   1.159   2.090   1.315
  541SOL    HW3 2195   1.173   2.188   1.201
  541SOL    MW4 2196   1.175   2.107   1.231
  542SOL     OW 2197   1.168   2.355   1.137
  542SOL    HW2 2198   1.240   2.406   1.174
  542SOL    HW3 2199   1.089   2.397   1.170
  542SOL    MW4 2200   1.167   2.367   1.146
  543SOL     OW 2201   0.922   2.457   1.210
  543SOL    HW2 2202   0.921   2.437   1.304
  543SOL    HW3 2203   0.854   2.401   1.173
  543SOL    MW4 2204   0.913   2.447   1.218
  544SOL     OW 2205   0.903   2.695   1.071
  544SOL    HW2 2206   0.905   2.607   1.108
  544SOL    HW3 2207   0.822   2.733   1.104
  544SOL    MW4 2208   0.893   2.688   1.080
  545SOL     OW 2209   1.102   2.817   1.209
  545SOL    HW2 2210   1.087   2.824   1.304
  545SOL    HW3 2211   1.026   2.770   1.176
  545SOL    MW4 2212   1.090   2.812   1.218
  546SOL     OW 2213   1.059   3.087   1.136
  546SOL    HW2 2214   1.059   2.993   1.155
  546SOL    HW3 2215   1.083   3.093   1.043
  546SOL    MW4 2216   1.062   3.076   1.126
  547SOL     OW 2217   0.839   3.223   1.226
  547SOL    HW2 2218   0.855   3.314   1.200
  547SOL    HW3 2219   0.911   3.174   1.186
  547SOL    MW4 2220   0.851   3.228   1.217
  548SOL     OW 2221   0.853   3.496   1.161
  548SOL    HW2 2222   0.761   3.520   1.175
  548SOL    HW3 2223   0.861   3.489   1.066
  548SOL    MW4 2224   0.842   3.498   1.150
  549SOL     OW 2225   1.075   3.632   1.233
  549SOL    HW2 2226   1.145   3.578   1.195
  549SOL    HW3 2227   0.994   3.592   1.200
  549SOL    MW4 2228   1.073   3.619   1.223
  550SOL     OW 2229   1.087   3.875   1.129
  550SOL    HW2 2230   1.003   3.917   1.147
  550SOL    HW3 2231   1.081   3.790   1.172
  550SOL    MW4 2232   1.075   3.870   1.137
  551SOL     OW 2233   0.858   4.027   1.207
  551SOL    HW2 2234   0.866   4.011   1.301
  551SOL    HW3 2235   0.795   3.962   1.177
  551SOL    MW4 2236   0.851   4.016   1.215
  552SOL     OW 2237   0.890   4.294   1.152
  552SOL    HW2 2238   0.875   4.208   1.192
  552SOL    HW3 2239   0.898   4.277   1.058
  552SOL    MW4 2240   0.889   4.281   1.145
  553SOL     OW 2241   1.149   4.393   1.192
  553SOL    HW2 2242   1.143   4.391   1.288
  553SOL    HW3 2243   1.069   4.351   1.162
  553SOL    MW4 2244   1.138   4.387   1.201
  554SOL     OW 2245   1.555   4.655   1.097
  554SOL    HW2 2246   1.644   4.681   1.122
  554SOL    HW3 2247   1.550   4.562   1.123
  554SOL    MW4 2248   1.566   4.646   1.104
  555SOL     OW 2249   1.317   0.119   1.193
  555SOL    HW2 2250   1.397   0.076   1.163
  555SOL    HW3 2251   1.246   0.067   1.155
  555SOL    MW4 2252   1.318   0.106   1.184
  556SOL     OW 2253   1.336   0.382   1.102
  556SOL    HW2 2254   1.311   0.299   1.143
  556SOL    HW3 2255   1.274   0.446   1.139
  556SOL    MW4 2256   1.324   0.380   1.112
  557SOL     OW 2257   1.589   0.460   1.220
  557SOL    HW2 2258   1.596   0.550   1.188
  557SOL    HW3 2259   1.507   0.427   1.184
  557SOL    MW4 2260   1.579   0.468   1.211
  558SOL     OW 2261   1.554   0.754   1.153
  558SOL    HW2 2262   1.638   0.791   1.181
  558SOL    HW3 2263   1.551   0.772   1.059
  558SOL    MW4 2264   1.565   0.761   1.144
  559SOL     OW 2265   1.349   0.943   1.233
  559SOL    HW2 2266   1.416   0.879   1.209
  559SOL    HW3 2267   1.266   0.902   1.207
  559SOL    MW4 2268   1.347   0.929   1.227
  560SOL     OW 2269   1.325   1.174   1.103
  560SOL    HW2 2270   1.339   1.091   1.149
  560SOL    HW3 2271   1.340   1.153   1.011
  560SOL    MW4 2272   1.329   1.160   1.097
  561SOL     OW 2273   1.539   1.293   1.217
  561SOL    HW2 2274   1.611   1.239   1.186
  561SOL    HW3 2275   1.460   1.252   1.182
  561SOL    MW4 2276   1.538   1.281   1.209
  562SOL     OW 2277   1.581   1.548   1.090
  562SOL    HW2 2278   1.635   1.603   1.147
  562SOL    HW3 2279   1.580   1.463   1.135
  562SOL    MW4 2280   1.588   1.544   1.103
  563SOL     OW 2281   1.385   1.690   1.216
  563SOL    HW2 2282   1.440   1.642   1.154
  563SOL    HW3 2283   1.296   1.659   1.199
  563SOL    MW4 2284   1.381   1.680   1.206
  564SOL     OW 2285   1.386   1.946   1.088
  564SOL    HW2 2286   1.400   1.859   1.126
  564SOL    HW3 2287   1.321   1.987   1.145
  564SOL    MW4 2288   1.379   1.940   1.100
  565SOL     OW 2289   1.578   2.102   1.206
  565SOL    HW2 2290   1.573   2.192   1.172
  565SOL    HW3 2291   1.504   2.058   1.164
  565SOL    MW4 2292   1.567   2.108   1.196
  566SOL     OW 2293   1.586   2.351   1.113
  566SOL    HW2 2294   1.512   2.398   1.152
  566SOL    HW3 2295   1.561   2.340   1.021
  566SOL    MW4 2296   1.573   2.356   1.106
  567SOL     OW 2297   1.390   2.502   1.233
  567SOL    HW2 2298   1.407   2.494   1.326
  567SOL    HW3 2299   1.382   2.596   1.217
  567SOL    MW4 2300   1.391   2.513   1.243
  568SOL     OW 2301   1.347   2.747   1.099
  568SOL    HW2 2302   1.418   2.809   1.117
  568SOL    HW3 2303   1.278   2.771   1.160
  568SOL    MW4 2304   1.348   2.758   1.109
  569SOL     OW 2305   1.585   2.867   1.191
  569SOL    HW2 2306   1.660   2.817   1.161
  569SOL    HW3 2307   1.586   2.947   1.138
  569SOL    MW4 2308   1.595   2.871   1.180
  570SOL     OW 2309   1.539   3.124   1.092
  570SOL    HW2 2310   1.620   3.156   1.131
  570SOL    HW3 2311   1.470   3.169   1.140
  570SOL    MW4 2312   1.541   3.134   1.103
  571SOL     OW 2313   1.299   3.233   1.206
  571SOL    HW2 2314   1.313   3.229   1.301
  571SOL    HW3 2315   1.223   3.177   1.191
  571SOL    MW4 2316   1.291   3.225   1.217
  572SOL     OW 2317   1.280   3.505   1.116
  572SOL    HW2 2318   1.283   3.412   1.137
  572SOL    HW3 2319   1.308   3.510   1.024
  572SOL    MW4 2320   1.284   3.493   1.107
  573SOL     OW 2321   1.523   3.584   1.206
  573SOL    HW2 2322   1.544   3.672   1.174
  573SOL    HW3 2323   1.431   3.571   1.181
  573SOL    MW4 2324   1.514   3.594   1.198
  574SOL     OW 2325   1.553   3.849   1.138
  574SOL    HW2 2326   1.478   3.893   1.179
  574SOL    HW3 2327   1.541   3.864   1.044
  574SOL    MW4 2328   1.542   3.857   1.131
  575SOL     OW 2329   1.330   3.978   1.219
  575SOL    HW2 2330   1.359   4.056   1.173
  575SOL    HW3 2331   1.239   3.965   1.190
  575SOL    MW4 2332   1.322   3.986   1.210
  576SOL     OW 2333   1.387   4.245   1.126
  576SOL    HW2 2334   1.313   4.302   1.148
  576SOL    HW3 2335   1.408   4.267   1.036
  576SOL    MW4 2336   1.380   4.256   1.117
  577SOL     OW 2337   1.605   4.392   1.211
  577SOL    HW2 2338   1.613   4.390   1.306
  577SOL    HW3 2339   1.537   4.328   1.191
  577SOL    MW4 2340   1.597   4.383   1.221
  578SOL     OW 2341   2.011   4.618   1.085
  578SOL    HW2 2342   2.027   4.529   1.114
  578SOL    HW3 2343   2.084   4.638   1.026
  578SOL    MW4 2344   2.023   4.609   1.081
  579SOL     OW 2345   1.797   0.070   1.198
  579SOL    HW2 2346   1.801   0.161   1.167
  579SOL    HW3 2347   1.877   0.030   1.164
  579SOL    MW4 2348   1.808   0.077   1.189
  580SOL     OW 2349   1.815   0.342   1.103
  580SOL    HW2 2350   1.736   0.379   1.141
  580SOL    HW3 2351   1.808   0.360   1.010
  580SOL    MW4 2352   1.804   0.349   1.096
  581SOL     OW 2353   2.010   0.515   1.212
  581SOL    HW2 2354   1.996   0.489   1.303
  581SOL    HW3 2355   1.949   0.460   1.162
  581SOL    MW4 2356   2.000   0.504   1.217
  582SOL     OW 2357   1.993   0.789   1.147
  582SOL    HW2 2358   2.002   0.702   1.185
  582SOL    HW3 2359   1.982   0.773   1.053
  582SOL    MW4 2360   1.993   0.775   1.140
  583SOL     OW 2361   1.766   0.916   1.213
  583SOL    HW2 2362   1.775   0.916   1.309
  583SOL    HW3 2363   1.850   0.884   1.181
  583SOL    MW4 2364   1.778   0.912   1.222
  584SOL     OW 2365   1.760   1.162   1.113
  584SOL    HW2 2366   1.757   1.070   1.139
  584SOL    HW3 2367   1.742   1.161   1.019
  584SOL    MW4 2368   1.757   1.150   1.104
  585SOL     OW 2369   1.982   1.266   1.237
  585SOL    HW2 2370   2.053   1.229   1.185
  585SOL    HW3 2371   1.905   1.216   1.210
  585SOL    MW4 2372   1.981   1.255   1.227
  586SOL     OW 2373   2.036   1.517   1.145
  586SOL    HW2 2374   1.994   1.447   1.194
  586SOL    HW3 2375   2.021   1.495   1.053
  586SOL    MW4 2376   2.029   1.505   1.139
  587SOL     OW 2377   1.794   1.662   1.238
  587SOL    HW2 2378   1.790   1.752   1.205
  587SOL    HW3 2379   1.880   1.630   1.211
  587SOL    MW4 2380   1.804   1.669   1.230
  588SOL     OW 2381   1.782   1.908   1.125
  588SOL    HW2 2382   1.727   1.985   1.142
  588SOL    HW3 2383   1.797   1.911   1.030
  588SOL    MW4 2384   1.777   1.919   1.114
  589SOL     OW 2385   2.036   2.007   1.235
  589SOL    HW2 2386   2.015   2.017   1.328
  589SOL    HW3 2387   1.961   1.961   1.198
  589SOL    MW4 2388   2.024   2.002   1.242
  590SOL     OW 2389   2.064   2.254   1.118
  590SOL    HW2 2390   2.135   2.309   1.153
  590SOL    HW3 2391   2.061   2.179   1.177
  590SOL    MW4 2392   2.073   2.252   1.130
  591SOL     OW 2393   1.836   2.455   1.192
  591SOL    HW2 2394   1.905   2.398   1.158
  591SOL    HW3 2395   1.754   2.414   1.163
  591SOL    MW4 2396   1.834   2.442   1.184
  592SOL     OW 2397   1.802   2.695   1.045
  592SOL    HW2 2398   1.812   2.608   1.083
  592SOL    HW3 2399   1.799   2.679   0.951
  592SOL    MW4 2400   1.803   2.682   1.038
  593SOL     OW 2401   2.029   2.815   1.188
  593SOL    HW2 2402   2.034   2.901   1.146
  593SOL    HW3 2403   1.955   2.772   1.147
  593SOL    MW4 2404   2.020   2.821   1.177
  594SOL     OW 2405   2.043   3.070   1.096
  594SOL    HW2 2406   1.969   3.115   1.138
  594SOL    HW3 2407   2.034   3.091   1.003
  594SOL    MW4 2408   2.032   3.079   1.089
  595SOL     OW 2409   1.787   3.190   1.190
  595SOL    HW2 2410   1.787   3.190   1.286
  595SOL    HW3 2411   1.772   3.282   1.167
  595SOL    MW4 2412   1.785   3.202   1.200
  596SOL     OW 2413   1.757   3.447   1.117
  596SOL    HW2 2414   1.839   3.488   1.147
  596SOL    HW3 2415   1.689   3.506   1.149
  596SOL    MW4 2416   1.759   3.460   1.126
  597SOL     OW 2417   1.986   3.581   1.195
  597SOL    HW2 2418   2.006   3.620   1.280
  597SOL    HW3 2419   2.070   3.552   1.161
  597SOL    MW4 2420   2.000   3.582   1.202
  598SOL     OW 2421   2.021   3.889   1.112
  598SOL    HW2 2422   1.956   3.937   1.163
  598SOL    HW3 2423   2.005   3.797   1.133
  598SOL    MW4 2424   2.010   3.883   1.121
  599SOL     OW 2425   1.800   3.977   1.249
  599SOL    HW2 2426   1.790   3.982   1.344
  599SOL    HW3 2427   1.719   3.937   1.218
  599SOL    MW4 2428   1.788   3.972   1.257
  600SOL     OW 2429   1.801   4.241   1.108
  600SOL    HW2 2430   1.800   4.170   1.172
  600SOL    HW3 2431   1.727   4.296   1.133
  600SOL    MW4 2432   1.791   4.239   1.120
  601SOL     OW 2433   2.032   4.371   1.193
  601SOL    HW2 2434   2.028   4.365   1.288
  601SOL    HW3 2435   1.948   4.335   1.163
  601SOL    MW4 2436   2.020   4.365   1.201
  602SOL     OW 2437   2.448   4.662   1.149
  602SOL    HW2 2438   2.514   4.723   1.182
  602SOL    HW3 2439   2.364   4.701   1.174
  602SOL    MW4 2440   2.446   4.675   1.157
  603SOL     OW 2441   2.211   0.106   1.241
  603SOL    HW2 2442   2.202   0.196   1.211
  603SOL    HW3 2443   2.133   0.062   1.208
  603SOL    MW4 2444   2.199   0.112   1.233
  604SOL     OW 2445   2.236   0.382   1.147
  604SOL    HW2 2446   2.163   0.442   1.163
  604SOL    HW3 2447   2.232   0.364   1.053
  604SOL    MW4 2448   2.226   0.388   1.137
  605SOL     OW 2449   2.456   0.516   1.232
  605SOL    HW2 2450   2.466   0.499   1.326
  605SOL    HW3 2451   2.380   0.465   1.206
  605SOL    MW4 2452   2.447   0.507   1.241
  606SOL     OW 2453   2.445   0.756   1.092
  606SOL    HW2 2454   2.432   0.674   1.140
  606SOL    HW3 2455   2.454   0.729   1.001
  606SOL    MW4 2456   2.444   0.742   1.086
  607SOL     OW 2457   2.236   0.900   1.223
  607SOL    HW2 2458   2.302   0.852   1.173
  607SOL    HW3 2459   2.154   0.856   1.203
  607SOL    MW4 2460   2.234   0.888   1.214
  608SOL     OW 2461   2.215   1.147   1.102
  608SOL    HW2 2462   2.301   1.188   1.114
  608SOL    HW3 2463   2.219   1.067   1.154
  608SOL    MW4 2464   2.227   1.141   1.110
  609SOL     OW 2465   2.479   1.248   1.186
  609SOL    HW2 2466   2.563   1.207   1.167
  609SOL    HW3 2467   2.491   1.339   1.160
  609SOL    MW4 2468   2.492   1.255   1.180
  610SOL     OW 2469   2.493   1.516   1.129
  610SOL    HW2 2470   2.417   1.557   1.171
  610SOL    HW3 2471   2.474   1.519   1.035
  610SOL    MW4 2472   2.480   1.522   1.122
  611SOL     OW 2473   2.264   1.644   1.230
  611SOL    HW2 2474   2.268   1.726   1.181
  611SOL    HW3 2475   2.178   1.607   1.208
  611SOL    MW4 2476   2.253   1.650   1.221
  612SOL     OW 2477   2.254   1.896   1.111
  612SOL    HW2 2478   2.181   1.938   1.156
  612SOL    HW3 2479   2.241   1.917   1.018
  612SOL    MW4 2480   2.243   1.904   1.105
  613SOL     OW 2481   2.497   1.988   1.254
  613SOL    HW2 2482   2.568   1.952   1.202
  613SOL    HW3 2483   2.421   1.934   1.233
  613SOL    MW4 2484   2.496   1.976   1.245
  614SOL     OW 2485   2.455   2.228   1.159
  614SOL    HW2 2486   2.466   2.138   1.189
  614SOL    HW3 2487   2.440   2.221   1.065
  614SOL    MW4 2488   2.454   2.215   1.150
  615SOL     OW 2489   2.256   2.419   1.240
  615SOL    HW2 2490   2.269   2.433   1.334
  615SOL    HW3 2491   2.332   2.367   1.213
  615SOL    MW4 2492   2.268   2.414   1.249
  616SOL     OW 2493   2.232   2.667   1.103
  616SOL    HW2 2494   2.234   2.586   1.155
  616SOL    HW3 2495   2.165   2.720   1.145
  616SOL    MW4 2496   2.223   2.663   1.115
  617SOL     OW 2497   2.444   2.771   1.235
  617SOL    HW2 2498   2.409   2.783   1.324
  617SOL    HW3 2499   2.371   2.735   1.185
  617SOL    MW4 2500   2.430   2.768   1.240
  618SOL     OW 2501   2.470   3.017   1.108
  618SOL    HW2 2502   2.407   3.082   1.138
  618SOL    HW3 2503   2.448   2.937   1.156
  618SOL    MW4 2504   2.459   3.015   1.118
  619SOL     OW 2505   2.272   3.195   1.204
  619SOL    HW2 2506   2.258   3.279   1.160
  619SOL    HW3 2507   2.194   3.143   1.183
  619SOL    MW4 2508   2.260   3.199   1.195
  620SOL     OW 2509   2.217   3.461   1.107
  620SOL    HW2 2510   2.297   3.509   1.131
  620SOL    HW3 2511   2.217   3.463   1.011
  620SOL    MW4 2512   2.228   3.468   1.097
  621SOL     OW 2513   2.452   3.582   1.191
  621SOL    HW2 2514   2.486   3.598   1.279
  621SOL    HW3 2515   2.468   3.663   1.143
  621SOL    MW4 2516   2.459   3.595   1.196
  622SOL     OW 2517   2.476   3.847   1.114
  622SOL    HW2 2518   2.399   3.860   1.169
  622SOL    HW3 2519   2.447   3.871   1.026
  622SOL    MW4 2520   2.462   3.852   1.109
  623SOL     OW 2521   2.259   3.985   1.218
  623SOL    HW2 2522   2.270   4.071   1.178
  623SOL    HW3 2523   2.172   3.957   1.188
  623SOL    MW4 2524   2.249   3.993   1.209
  624SOL     OW 2525   2.281   4.232   1.097
  624SOL    HW2 2526   2.204   4.275   1.134
  624SOL    HW3 2527   2.269   4.239   1.002
  624SOL    MW4 2528   2.269   4.239   1.089
  625SOL     OW 2529   2.488   4.406   1.223
  625SOL    HW2 2530   2.412   4.365   1.182
  625SOL    HW3 2531   2.476   4.500   1.207
  625SOL    MW4 2532   2.476   4.413   1.215
  626SOL     OW 2533   2.906   4.613   1.127
  626SOL    HW2 2534   2.914   4.540   1.188
  626SOL    HW3 2535   2.897   4.571   1.041
  626SOL    MW4 2536   2.906   4.598   1.124
  627SOL     OW 2537   2.713   0.118   1.226
  627SOL    HW2 2538   2.728   0.125   1.320
  627SOL    HW3 2539   2.777   0.055   1.196
  627SOL    MW4 2540   2.723   0.111   1.234
  628SOL     OW 2541   2.641   0.356   1.085
  628SOL    HW2 2542   2.664   0.272   1.125
  628SOL    HW3 2543   2.592   0.402   1.152
  628SOL    MW4 2544   2.638   0.351   1.099
  629SOL     OW 2545   2.894   0.420   1.197
  629SOL    HW2 2546   2.904   0.505   1.155
  629SOL    HW3 2547   2.817   0.382   1.154
  629SOL    MW4 2548   2.885   0.426   1.186
  630SOL     OW 2549   2.921   0.692   1.091
  630SOL    HW2 2550   2.998   0.736   1.126
  630SOL    HW3 2551   2.848   0.749   1.115
  630SOL    MW4 2552   2.921   0.705   1.098
  631SOL     OW 2553   2.686   0.842   1.163
  631SOL    HW2 2554   2.687   0.938   1.165
  631SOL    HW3 2555   2.596   0.819   1.140
  631SOL    MW4 2556   2.674   0.852   1.160
  632SOL     OW 2557   2.722   1.112   1.153
  632SOL    HW2 2558   2.793   1.175   1.169
  632SOL    HW3 2559   2.707   1.117   1.058
  632SOL    MW4 2560   2.730   1.121   1.142
  633SOL     OW 2561   2.950   1.269   1.206
  633SOL    HW2 2562   2.940   1.270   1.301
  633SOL    HW3 2563   2.946   1.361   1.181
  633SOL    MW4 2564   2.948   1.281   1.215
  634SOL     OW 2565   2.935   1.523   1.119
  634SOL    HW2 2566   3.015   1.574   1.132
  634SOL    HW3 2567   2.920   1.525   1.024
  634SOL    MW4 2568   2.943   1.530   1.108
  635SOL     OW 2569   2.705   1.664   1.238
  635SOL    HW2 2570   2.781   1.612   1.212
  635SOL    HW3 2571   2.630   1.612   1.208
  635SOL    MW4 2572   2.705   1.650   1.230
  636SOL     OW 2573   2.709   1.905   1.096
  636SOL    HW2 2574   2.784   1.958   1.124
  636SOL    HW3 2575   2.724   1.819   1.134
  636SOL    MW4 2576   2.721   1.901   1.104
  637SOL     OW 2577   2.946   2.051   1.212
  637SOL    HW2 2578   2.932   2.061   1.306
  637SOL    HW3 2579   2.950   2.140   1.178
  637SOL    MW4 2580   2.944   2.064   1.220
  638SOL     OW 2581   2.923   2.304   1.098
  638SOL    HW2 2582   2.997   2.353   1.134
  638SOL    HW3 2583   2.851   2.319   1.160
  638SOL    MW4 2584   2.923   2.312   1.111
  639SOL     OW 2585   2.668   2.369   1.249
  639SOL    HW2 2586   2.671   2.388   1.342
  639SOL    HW3 2587   2.594   2.309   1.239
  639SOL    MW4 2588   2.659   2.364   1.260
  640SOL     OW 2589   2.665   2.618   1.134
  640SOL    HW2 2590   2.663   2.537   1.186
  640SOL    HW3 2591   2.593   2.670   1.168
  640SOL    MW4 2592   2.656   2.614   1.145
  641SOL     OW 2593   2.899   2.766   1.187
  641SOL    HW2 2594   2.898   2.800   1.276
  641SOL    HW3 2595   2.819   2.713   1.181
  641SOL    MW4 2596   2.888   2.763   1.198
  642SOL     OW 2597   2.910   3.041   1.126
  642SOL    HW2 2598   2.899   2.947   1.143
  642SOL    HW3 2599   2.920   3.048   1.031
  642SOL    MW4 2600   2.910   3.030   1.116
  643SOL     OW 2601   2.692   3.175   1.205
  643SOL    HW2 2602   2.771   3.126   1.185
  643SOL    HW3 2603   2.621   3.123   1.167
  643SOL    MW4 2604   2.693   3.162   1.197
  644SOL     OW 2605   2.690   3.433   1.136
  644SOL    HW2 2606   2.693   3.345   1.172
  644SOL    HW3 2607   2.600   3.463   1.152
  644SOL    MW4 2608   2.678   3.426   1.143
  645SOL     OW 2609   2.897   3.615   1.173
  645SOL    HW2 2610   2.979   3.580   1.138
  645SOL    HW3 2611   2.833   3.546   1.156
  645SOL    MW4 2612   2.900   3.601   1.166
  646SOL     OW 2613   2.878   3.893   1.152
  646SOL    HW2 2614   2.968   3.914   1.179
  646SOL    HW3 2615   2.870   3.799   1.167
  646SOL    MW4 2616   2.889   3.883   1.158
  647SOL     OW 2617   2.657   3.997   1.246
  647SOL    HW2 2618   2.736   3.959   1.208
  647SOL    HW3 2619   2.585   3.944   1.211
  647SOL    MW4 2620   2.658   3.985   1.237
  648SOL     OW 2621   2.694   4.234   1.132
  648SOL    HW2 2622   2.668   4.153   1.175
  648SOL    HW3 2623   2.626   4.297   1.155
  648SOL    MW4 2624   2.682   4.232   1.141
  649SOL     OW 2625   2.938   4.355   1.251
  649SOL    HW2 2626   3.008   4.297   1.223
  649SOL    HW3 2627   2.858   4.313   1.221
  649SOL    MW4 2628   2.937   4.342   1.244
  650SOL     OW 2629   3.356   4.586   1.103
  650SOL    HW2 2630   3.432   4.639   1.127
  650SOL    HW3 2631   3.281   4.634   1.137
  650SOL    MW4 2632   3.356   4.599   1.110
  651SOL     OW 2633   3.138   0.047   1.209
  651SOL    HW2 2634   3.125   0.053   1.304
  651SOL    HW3 2635   3.058   0.006   1.177
  651SOL    MW4 2636   3.126   0.042   1.217
  652SOL     OW 2637   3.143   0.318   1.140
  652SOL    HW2 2638   3.151   0.224   1.159
  652SOL    HW3 2639   3.056   0.342   1.173
  652SOL    MW4 2640   3.133   0.309   1.147
  653SOL     OW 2641   3.354   0.483   1.228
  653SOL    HW2 2642   3.349   0.568   1.184
  653SOL    HW3 2643   3.272   0.439   1.206
  653SOL    MW4 2644   3.342   0.488   1.219
  654SOL     OW 2645   3.356   0.726   1.104
  654SOL    HW2 2646   3.270   0.764   1.122
  654SOL    HW3 2647   3.365   0.729   1.009
  654SOL    MW4 2648   3.346   0.731   1.094
  655SOL     OW 2649   3.128   0.868   1.185
  655SOL    HW2 2650   3.135   0.878   1.279
  655SOL    HW3 2651   3.123   0.957   1.151
  655SOL    MW4 2652   3.128   0.881   1.193
  656SOL     OW 2653   3.146   1.119   1.089
  656SOL    HW2 2654   3.225   1.132   1.142
  656SOL    HW3 2655   3.077   1.166   1.138
  656SOL    MW4 2656   3.147   1.127   1.103
  657SOL     OW 2657   3.386   1.214   1.221
  657SOL    HW2 2658   3.384   1.238   1.313
  657SOL    HW3 2659   3.376   1.297   1.175
  657SOL    MW4 2660   3.385   1.228   1.227
  658SOL     OW 2661   3.374   1.471   1.086
  658SOL    HW2 2662   3.444   1.505   1.141
  658SOL    HW3 2663   3.299   1.528   1.104
  658SOL    MW4 2664   3.373   1.483   1.096
  659SOL     OW 2665   3.162   1.661   1.171
  659SOL    HW2 2666   3.161   1.669   1.267
  659SOL    HW3 2667   3.155   1.751   1.140
  659SOL    MW4 2668   3.161   1.674   1.180
  660SOL     OW 2669   3.164   1.921   1.103
  660SOL    HW2 2670   3.238   1.967   1.143
  660SOL    HW3 2671   3.086   1.962   1.141
  660SOL    MW4 2672   3.164   1.932   1.113
  661SOL     OW 2673   3.399   2.042   1.201
  661SOL    HW2 2674   3.461   1.980   1.164
  661SOL    HW3 2675   3.394   2.112   1.135
  661SOL    MW4 2676   3.407   2.043   1.187
  662SOL     OW 2677   3.354   2.277   1.068
  662SOL    HW2 2678   3.430   2.320   1.106
  662SOL    HW3 2679   3.279   2.320   1.110
  662SOL    MW4 2680   3.354   2.288   1.078
  663SOL     OW 2681   3.165   2.433   1.168
  663SOL    HW2 2682   3.163   2.441   1.263
  663SOL    HW3 2683   3.192   2.520   1.137
  663SOL    MW4 2684   3.168   2.446   1.177
  664SOL     OW 2685   3.172   2.707   1.100
  664SOL    HW2 2686   3.084   2.724   1.135
  664SOL    HW3 2687   3.161   2.710   1.005
  664SOL    MW4 2688   3.159   2.709   1.092
  665SOL     OW 2689   3.404   2.840   1.154
  665SOL    HW2 2690   3.380   2.932   1.140
  665SOL    HW3 2691   3.322   2.792   1.142
  665SOL    MW4 2692   3.390   2.846   1.151
  666SOL     OW 2693   3.376   3.109   1.093
  666SOL    HW2 2694   3.446   3.153   1.141
  666SOL    HW3 2695   3.298   3.123   1.146
  666SOL    MW4 2696   3.375   3.117   1.106
  667SOL     OW 2697   3.126   3.200   1.221
  667SOL    HW2 2698   3.102   3.284   1.184
  667SOL    HW3 2699   3.066   3.137   1.181
  667SOL    MW4 2700   3.115   3.203   1.211
  668SOL     OW 2701   3.123   3.454   1.102
  668SOL    HW2 2702   3.203   3.484   1.146
  668SOL    HW3 2703   3.151   3.437   1.012
  668SOL    MW4 2704   3.138   3.456   1.096
  669SOL     OW 2705   3.355   3.559   1.215
  669SOL    HW2 2706   3.360   3.569   1.310
  669SOL    HW3 2707   3.438   3.517   1.192
  669SOL    MW4 2708   3.367   3.555   1.225
  670SOL     OW 2709   3.393   3.817   1.125
  670SOL    HW2 2710   3.320   3.867   1.161
  670SOL    HW3 2711   3.377   3.727   1.153
  670SOL    MW4 2712   3.381   3.811   1.134
  671SOL     OW 2713   3.156   3.956   1.203
  671SOL    HW2 2714   3.167   3.964   1.298
  671SOL    HW3 2715   3.145   4.046   1.173
  671SOL    MW4 2716   3.156   3.969   1.212
  672SOL     OW 2717   3.177   4.229   1.179
  672SOL    HW2 2718   3.260   4.250   1.222
  672SOL    HW3 2719   3.186   4.265   1.091
  672SOL    MW4 2720   3.189   4.237   1.173
  673SOL     OW 2721   3.398   4.371   1.273
  673SOL    HW2 2722   3.465   4.321   1.227
  673SOL    HW3 2723   3.392   4.453   1.225
  673SOL    MW4 2724   3.406   4.375   1.261
  674SOL     OW 2725   3.827   4.632   1.111
  674SOL    HW2 2726   3.827   4.546   1.154
  674SOL    HW3 2727   3.827   4.612   1.017
  674SOL    MW4 2728   3.827   4.618   1.104
  675SOL     OW 2729   3.570   0.085   1.181
  675SOL    HW2 2730   3.566   0.178   1.159
  675SOL    HW3 2731   3.659   0.059   1.158
  675SOL    MW4 2732   3.581   0.094   1.175
  676SOL     OW 2733   3.578   0.355   1.123
  676SOL    HW2 2734   3.661   0.395   1.148
  676SOL    HW3 2735   3.512   0.413   1.161
  676SOL    MW4 2736   3.580   0.368   1.132
  677SOL     OW 2737   3.816   0.489   1.180
  677SOL    HW2 2738   3.895   0.450   1.143
  677SOL    HW3 2739   3.820   0.581   1.153
  677SOL    MW4 2740   3.827   0.496   1.171
  678SOL     OW 2741   3.846   0.745   1.105
  678SOL    HW2 2742   3.917   0.803   1.133
  678SOL    HW3 2743   3.768   0.782   1.146
  678SOL    MW4 2744   3.845   0.758   1.114
  679SOL     OW 2745   3.603   0.845   1.202
  679SOL    HW2 2746   3.606   0.930   1.158
  679SOL    HW3 2747   3.530   0.799   1.160
  679SOL    MW4 2748   3.594   0.850   1.190
  680SOL     OW 2749   3.581   1.095   1.070
  680SOL    HW2 2750   3.663   1.143   1.084
  680SOL    HW3 2751   3.517   1.141   1.124
  680SOL    MW4 2752   3.584   1.108   1.079
  681SOL     OW 2753   3.794   1.246   1.159
  681SOL    HW2 2754   3.790   1.256   1.254
  681SOL    HW3 2755   3.812   1.334   1.126
  681SOL    MW4 2756   3.796   1.259   1.167
  682SOL     OW 2757   3.831   1.515   1.083
  682SOL    HW2 2758   3.894   1.576   1.120
  682SOL    HW3 2759   3.850   1.514   0.989
  682SOL    MW4 2760   3.842   1.523   1.075
  683SOL     OW 2761   3.587   1.628   1.193
  683SOL    HW2 2762   3.577   1.705   1.138
  683SOL    HW3 2763   3.670   1.589   1.166
  683SOL    MW4 2764   3.597   1.633   1.182
  684SOL     OW 2765   3.576   1.876   1.077
  684SOL    HW2 2766   3.654   1.917   1.116
  684SOL    HW3 2767   3.582   1.897   0.984
  684SOL    MW4 2768   3.587   1.884   1.070
  685SOL     OW 2769   3.806   2.015   1.175
  685SOL    HW2 2770   3.814   2.031   1.269
  685SOL    HW3 2771   3.893   1.983   1.149
  685SOL    MW4 2772   3.819   2.013   1.184
  686SOL     OW 2773   3.772   2.284   1.091
  686SOL    HW2 2774   3.847   2.332   1.125
  686SOL    HW3 2775   3.782   2.195   1.126
  686SOL    MW4 2776   3.783   2.278   1.100
  687SOL     OW 2777   3.550   2.412   1.197
  687SOL    HW2 2778   3.572   2.438   1.287
  687SOL    HW3 2779   3.629   2.369   1.165
  687SOL    MW4 2780   3.563   2.410   1.205
  688SOL     OW 2781   3.593   2.663   1.055
  688SOL    HW2 2782   3.566   2.582   1.100
  688SOL    HW3 2783   3.526   2.727   1.079
  688SOL    MW4 2784   3.580   2.660   1.064
  689SOL     OW 2785   3.812   2.811   1.129
  689SOL    HW2 2786   3.797   2.817   1.224
  689SOL    HW3 2787   3.737   2.762   1.096
  689SOL    MW4 2788   3.800   2.806   1.137
  690SOL     OW 2789   3.808   3.079   1.050
  690SOL    HW2 2790   3.821   2.986   1.072
  690SOL    HW3 2791   3.770   3.077   0.962
  690SOL    MW4 2792   3.805   3.066   1.041
  691SOL     OW 2793   3.619   3.186   1.214
  691SOL    HW2 2794   3.618   3.278   1.187
  691SOL    HW3 2795   3.678   3.143   1.151
  691SOL    MW4 2796   3.626   3.192   1.202
  692SOL     OW 2797   3.594   3.457   1.155
  692SOL    HW2 2798   3.667   3.515   1.176
  692SOL    HW3 2799   3.580   3.470   1.061
  692SOL    MW4 2800   3.602   3.467   1.145
  693SOL     OW 2801   3.828   3.597   1.209
  693SOL    HW2 2802   3.822   3.596   1.304
  693SOL    HW3 2803   3.834   3.690   1.185
  693SOL    MW4 2804   3.828   3.609   1.218
  694SOL     OW 2805   3.841   3.862   1.135
  694SOL    HW2 2806   3.758   3.908   1.143
  694SOL    HW3 2807   3.853   3.850   1.041
  694SOL    MW4 2808   3.832   3.866   1.124
  695SOL     OW 2809   3.607   3.975   1.214
  695SOL    HW2 2810   3.579   3.978   1.306
  695SOL    HW3 2811   3.539   3.923   1.171
  695SOL    MW4 2812   3.594   3.968   1.221
  696SOL     OW 2813   3.592   4.234   1.119
  696SOL    HW2 2814   3.587   4.152   1.168
  696SOL    HW3 2815   3.546   4.216   1.038
  696SOL    MW4 2816   3.585   4.220   1.115
  697SOL     OW 2817   3.830   4.386   1.223
  697SOL    HW2 2818   3.827   4.388   1.318
  697SOL    HW3 2819   3.752   4.335   1.197
  697SOL    MW4 2820   3.819   4.379   1.232
  698SOL     OW 2821   4.296   4.641   1.087
  698SOL    HW2 2822   4.283   4.554   1.125
  698SOL    HW3 2823   4.227   4.695   1.127
  698SOL    MW4 2824   4.285   4.637   1.098
  699SOL     OW 2825   4.060   0.117   1.177
  699SOL    HW2 2826   4.050   0.115   1.272
  699SOL    HW3 2827   3.998   0.051   1.145
  699SOL    MW4 2828   4.051   0.108   1.185
  700SOL     OW 2829   4.041   0.380   1.084
  700SOL    HW2 2830   4.047   0.290   1.116
  700SOL    HW3 2831   4.067   0.375   0.992
  700SOL    MW4 2832   4.045   0.368   1.076
  701SOL     OW 2833   4.286   0.464   1.212
  701SOL    HW2 2834   4.286   0.467   1.307
  701SOL    HW3 2835   4.198   0.435   1.188
  701SOL    MW4 2836   4.274   0.460   1.221
  702SOL     OW 2837   4.275   0.737   1.143
  702SOL    HW2 2838   4.258   0.647   1.170
  702SOL    HW3 2839   4.274   0.734   1.047
  702SOL    MW4 2840   4.273   0.725   1.134
  703SOL     OW 2841   4.059   0.925   1.203
  703SOL    HW2 2842   4.034   0.929   1.295
  703SOL    HW3 2843   4.146   0.885   1.204
  703SOL    MW4 2844   4.067   0.920   1.215
  704SOL     OW 2845   4.053   1.180   1.085
  704SOL    HW2 2846   4.072   1.091   1.117
  704SOL    HW3 2847   3.960   1.193   1.104
  704SOL    MW4 2848   4.043   1.170   1.092
  705SOL     OW 2849   4.294   1.300   1.191
  705SOL    HW2 2850   4.293   1.291   1.287
  705SOL    HW3 2851   4.209   1.268   1.163
  705SOL    MW4 2852   4.283   1.295   1.200
  706SOL     OW 2853   4.252   1.561   1.175
  706SOL    HW2 2854   4.258   1.465   1.183
  706SOL    HW3 2855   4.335   1.593   1.209
  706SOL    MW4 2856   4.264   1.552   1.180
  707SOL     OW 2857   4.009   1.683   1.224
  707SOL    HW2 2858   3.985   1.678   1.316
  707SOL    HW3 2859   4.094   1.640   1.219
  707SOL    MW4 2860   4.017   1.677   1.235
  708SOL     OW 2861   4.054   1.924   1.098
  708SOL    HW2 2862   4.045   1.840   1.144
  708SOL    HW3 2863   4.041   1.902   1.006
  708SOL    MW4 2864   4.051   1.910   1.092
  709SOL     OW 2865   4.282   2.052   1.188
  709SOL    HW2 2866   4.287   2.139   1.148
  709SOL    HW3 2867   4.198   2.018   1.157
  709SOL    MW4 2868   4.271   2.059   1.179
  710SOL     OW 2869   4.271   2.310   1.088
  710SOL    HW2 2870   4.186   2.319   1.130
  710SOL    HW3 2871   4.251   2.299   0.995
  710SOL    MW4 2872   4.257   2.310   1.081
  711SOL     OW 2873   4.017   2.408   1.178
  711SOL    HW2 2874   4.031   2.428   1.271
  711SOL    HW3 2875   4.027   2.492   1.133
  711SOL    MW4 2876   4.020   2.421   1.184
  712SOL     OW 2877   4.037   2.668   1.075
  712SOL    HW2 2878   3.952   2.705   1.097
  712SOL    HW3 2879   4.042   2.675   0.979
  712SOL    MW4 2880   4.027   2.674   1.065
  713SOL     OW 2881   4.231   2.806   1.190
  713SOL    HW2 2882   4.238   2.895   1.156
  713SOL    HW3 2883   4.160   2.766   1.140
  713SOL    MW4 2884   4.223   2.812   1.179
  714SOL     OW 2885   4.264   3.067   1.100
  714SOL    HW2 2886   4.183   3.112   1.122
  714SOL    HW3 2887   4.275   3.082   1.006
  714SOL    MW4 2888   4.255   3.075   1.091
  715SOL     OW 2889   4.033   3.209   1.158
  715SOL    HW2 2890   4.018   3.224   1.251
  715SOL    HW3 2891   3.960   3.154   1.130
  715SOL    MW4 2892   4.022   3.204   1.167
  716SOL     OW 2893   4.025   3.475   1.071
  716SOL    HW2 2894   4.028   3.381   1.089
  716SOL    HW3 2895   3.942   3.504   1.110
  716SOL    MW4 2896   4.014   3.467   1.079
  717SOL     OW 2897   4.221   3.630   1.197
  717SOL    HW2 2898   4.145   3.584   1.163
  717SOL    HW3 2899   4.296   3.582   1.163
  717SOL    MW4 2900   4.221   3.618   1.188
  718SOL     OW 2901   4.247   3.889   1.100
  718SOL    HW2 2902   4.189   3.947   1.149
  718SOL    HW3 2903   4.252   3.810   1.153
  718SOL    MW4 2904   4.240   3.886   1.113
  719SOL     OW 2905   4.042   4.032   1.231
  719SOL    HW2 2906   4.042   4.117   1.187
  719SOL    HW3 2907   3.975   3.981   1.187
  719SOL    MW4 2908   4.033   4.037   1.220
  720SOL     OW 2909   4.024   4.247   1.086
  720SOL    HW2 2910   3.952   4.301   1.117
  720SOL    HW3 2911   4.018   4.252   0.990
  720SOL    MW4 2912   4.014   4.255   1.077
  721SOL     OW 2913   4.229   4.408   1.201
  721SOL    HW2 2914   4.162   4.346   1.170
  721SOL    HW3 2915   4.312   4.365   1.182
  721SOL    MW4 2916   4.231   4.394   1.194
  722SOL     OW 2917   0.284   4.661   1.558
  722SOL    HW2 2918   0.353   4.715   1.521
  722SOL    HW3 2919   0.203   4.695   1.519
  722SOL    MW4 2920   0.282   4.673   1.548
  723SOL     OW 2921   0.025   0.068   1.492
  723SOL    HW2 2922  -0.057   0.053   1.540
  723SOL    HW3 2923   0.001   0.059   1.400
  723SOL    MW4 2924   0.011   0.065   1.486
  724SOL     OW 2925   0.029   0.339   1.587
  724SOL    HW2 2926   0.011   0.345   1.681
  724SOL    HW3 2927   0.030   0.246   1.568
  724SOL    MW4 2928   0.027   0.328   1.597
  725SOL     OW 2929   0.250   0.498   1.508
  725SOL    HW2 2930   0.180   0.439   1.533
  725SOL    HW3 2931   0.248   0.498   1.412
  725SOL    MW4 2932   0.241   0.491   1.498
  726SOL     OW 2933   0.237   0.763   1.589
  726SOL    HW2 2934   0.322   0.789   1.552
  726SOL    HW3 2935   0.241   0.667   1.591
  726SOL    MW4 2936   0.249   0.754   1.584
  727SOL     OW 2937   0.047   0.910   1.461
  727SOL    HW2 2938   0.024   0.987   1.514
  727SOL    HW3 2939   0.110   0.862   1.514
  727SOL    MW4 2940   0.052   0.914   1.475
  728SOL     OW 2941   0.007   1.157   1.595
  728SOL    HW2 2942   0.018   1.166   1.690
  728SOL    HW3 2943   0.083   1.202   1.558
  728SOL    MW4 2944   0.019   1.164   1.603
  729SOL     OW 2945   0.225   1.289   1.486
  729SOL    HW2 2946   0.225   1.373   1.534
  729SOL    HW3 2947   0.223   1.314   1.394
  729SOL    MW4 2948   0.225   1.304   1.480
  730SOL     OW 2949   0.222   1.550   1.607
  730SOL    HW2 2950   0.202   1.542   1.700
  730SOL    HW3 2951   0.143   1.587   1.568
  730SOL    MW4 2952   0.209   1.554   1.614
  731SOL     OW 2953   4.471   1.636   1.500
  731SOL    HW2 2954   4.475   1.725   1.534
  731SOL    HW3 2955   4.482   1.645   1.406
  731SOL    MW4 2956   4.473   1.649   1.492
  732SOL     OW 2957   4.479   1.914   1.560
  732SOL    HW2 2958   4.478   1.930   1.655
  732SOL    HW3 2959   4.407   1.968   1.526
  732SOL    MW4 2960   4.469   1.923   1.568
  733SOL     OW 2961   0.223   2.026   1.501
  733SOL    HW2 2962   0.137   1.987   1.516
  733SOL    HW3 2963   0.231   2.033   1.406
  733SOL    MW4 2964   0.213   2.022   1.491
  734SOL     OW 2965   0.218   2.313   1.577
  734SOL    HW2 2966   0.216   2.307   1.673
  734SOL    HW3 2967   0.212   2.223   1.548
  734SOL    MW4 2968   0.217   2.301   1.586
  735SOL     OW 2969   4.470   2.409   1.463
  735SOL    HW2 2970   4.394   2.369   1.505
  735SOL    HW3 2971   4.546   2.377   1.511
  735SOL    MW4 2972   4.470   2.400   1.475
  736SOL     OW 2973   4.453   2.646   1.572
  736SOL    HW2 2974   4.381   2.696   1.534
  736SOL    HW3 2975   4.444   2.558   1.534
  736SOL    MW4 2976   4.442   2.641   1.562
  737SOL     OW 2977   0.208   2.814   1.509
  737SOL    HW2 2978   0.284   2.768   1.545
  737SOL    HW3 2979   0.135   2.754   1.524
  737SOL    MW4 2980   0.208   2.800   1.516
  738SOL     OW 2981   0.234   3.059   1.609
  738SOL    HW2 2982   0.149   3.093   1.582
  738SOL    HW3 2983   0.233   2.967   1.583
  738SOL    MW4 2984   0.223   3.051   1.602
  739SOL     OW 2985   0.003   3.178   1.503
  739SOL    HW2 2986  -0.008   3.259   1.552
  739SOL    HW3 2987   0.014   3.205   1.412
  739SOL    MW4 2988   0.003   3.192   1.498
  740SOL     OW 2989   4.464   3.435   1.612
  740SOL    HW2 2990   4.464   3.451   1.706
  740SOL    HW3 2991   4.384   3.479   1.580
  740SOL    MW4 2992   4.453   3.443   1.620
  741SOL     OW 2993   0.168   3.633   1.522
  741SOL    HW2 2994   0.175   3.717   1.567
  741SOL    HW3 2995   0.088   3.592   1.556
  741SOL    MW4 2996   0.158   3.638   1.532
  742SOL     OW 2997   0.214   3.902   1.593
  742SOL    HW2 2998   0.248   3.892   1.682
  742SOL    HW3 2999   0.289   3.933   1.542
  742SOL    MW4 3000   0.228   3.905   1.598
  743SOL     OW 3001   4.481   4.028   1.484
  743SOL    HW2 3002   4.489   4.120   1.509
  743SOL    HW3 3003   4.558   3.986   1.524
  743SOL    MW4 3004   4.493   4.035   1.493
  744SOL     OW 3005   0.011   4.307   1.552
  744SOL    HW2 3006   0.010   4.295   1.647
  744SOL    HW3 3007  -0.077   4.341   1.531
  744SOL    MW4 3008  -0.001   4.310   1.562
  745SOL     OW 3009   0.253   4.388   1.443
  745SOL    HW2 3010   0.168   4.359   1.478
  745SOL    HW3 3011   0.265   4.476   1.478
  745SOL    MW4 3012   0.243   4.396   1.452
  746SOL     OW 3013   0.709   0.010   1.589
  746SOL    HW2 3014   0.795   0.034   1.555
  746SOL    HW3 3015   0.647   0.063   1.539
  746SOL    MW4 3016   0.712   0.020   1.578
  747SOL     OW 3017   0.503   0.134   1.473
  747SOL    HW2 3018   0.492   0.221   1.511
  747SOL    HW3 3019   0.493   0.148   1.379
  747SOL    MW4 3020   0.500   0.147   1.465
  748SOL     OW 3021   0.478   0.392   1.614
  748SOL    HW2 3022   0.550   0.440   1.574
  748SOL    HW3 3023   0.400   0.426   1.570
  748SOL    MW4 3024   0.477   0.402   1.603
  749SOL     OW 3025   0.671   0.510   1.475
  749SOL    HW2 3026   0.661   0.600   1.506
  749SOL    HW3 3027   0.710   0.519   1.388
  749SOL    MW4 3028   0.675   0.523   1.468
  750SOL     OW 3029   0.691   0.783   1.570
  750SOL    HW2 3030   0.686   0.764   1.664
  750SOL    HW3 3031   0.771   0.835   1.560
  750SOL    MW4 3032   0.701   0.787   1.581
  751SOL     OW 3033   0.455   0.902   1.461
  751SOL    HW2 3034   0.428   0.976   1.517
  751SOL    HW3 3035   0.539   0.875   1.497
  751SOL    MW4 3036   0.462   0.908   1.473
  752SOL     OW 3037   0.434   1.157   1.580
  752SOL    HW2 3038   0.512   1.203   1.549
  752SOL    HW3 3039   0.361   1.213   1.554
  752SOL    MW4 3040   0.435   1.171   1.573
  753SOL     OW 3041   0.670   1.310   1.543
  753SOL    HW2 3042   0.656   1.398   1.577
  753SOL    HW3 3043   0.666   1.320   1.448
  753SOL    MW4 3044   0.668   1.323   1.535
  754SOL     OW 3045   0.629   1.561   1.649
  754SOL    HW2 3046   0.705   1.597   1.604
  754SOL    HW3 3047   0.555   1.585   1.593
  754SOL    MW4 3048   0.629   1.569   1.635
  755SOL     OW 3049   0.432   1.667   1.468
  755SOL    HW2 3050   0.435   1.758   1.500
  755SOL    HW3 3051   0.363   1.626   1.520
  755SOL    MW4 3052   0.423   1.674   1.479
  756SOL     OW 3053   0.449   1.912   1.588
  756SOL    HW2 3054   0.462   1.890   1.680
  756SOL    HW3 3055   0.360   1.950   1.585
  756SOL    MW4 3056   0.439   1.914   1.600
  757SOL     OW 3057   0.670   2.059   1.498
  757SOL    HW2 3058   0.742   2.010   1.536
  757SOL    HW3 3059   0.591   2.017   1.532
  757SOL    MW4 3060   0.669   2.047   1.507
  758SOL     OW 3061   0.687   2.321   1.588
  758SOL    HW2 3062   0.605   2.353   1.552
  758SOL    HW3 3063   0.682   2.226   1.578
  758SOL    MW4 3064   0.676   2.313   1.582
  759SOL     OW 3065   0.456   2.423   1.493
  759SOL    HW2 3066   0.455   2.517   1.508
  759SOL    HW3 3067   0.369   2.393   1.519
  759SOL    MW4 3068   0.445   2.431   1.498
  760SOL     OW 3069   0.446   2.701   1.572
  760SOL    HW2 3070   0.453   2.689   1.667
  760SOL    HW3 3071   0.517   2.761   1.550
  760SOL    MW4 3072   0.456   2.707   1.581
  761SOL     OW 3073   0.669   2.860   1.493
  761SOL    HW2 3074   0.692   2.950   1.519
  761SOL    HW3 3075   0.662   2.864   1.398
  761SOL    MW4 3076   0.671   2.873   1.484
  762SOL     OW 3077   0.680   3.114   1.607
  762SOL    HW2 3078   0.749   3.154   1.554
  762SOL    HW3 3079   0.600   3.158   1.580
  762SOL    MW4 3080   0.679   3.125   1.597
  763SOL     OW 3081   0.437   3.216   1.517
  763SOL    HW2 3082   0.367   3.159   1.550
  763SOL    HW3 3083   0.429   3.213   1.422
  763SOL    MW4 3084   0.427   3.208   1.509
  764SOL     OW 3085   0.428   3.486   1.595
  764SOL    HW2 3086   0.414   3.396   1.567
  764SOL    HW3 3087   0.342   3.527   1.588
  764SOL    MW4 3088   0.415   3.479   1.590
  765SOL     OW 3089   0.641   3.608   1.445
  765SOL    HW2 3090   0.715   3.589   1.503
  765SOL    HW3 3091   0.564   3.581   1.496
  765SOL    MW4 3092   0.641   3.602   1.460
  766SOL     OW 3093   0.636   3.825   1.614
  766SOL    HW2 3094   0.708   3.883   1.591
  766SOL    HW3 3095   0.648   3.748   1.559
  766SOL    MW4 3096   0.647   3.822   1.604
  767SOL     OW 3097   0.464   3.986   1.472
  767SOL    HW2 3098   0.517   3.917   1.510
  767SOL    HW3 3099   0.479   3.979   1.378
  767SOL    MW4 3100   0.473   3.976   1.465
  768SOL     OW 3101   0.460   4.241   1.580
  768SOL    HW2 3102   0.462   4.150   1.550
  768SOL    HW3 3103   0.382   4.278   1.539
  768SOL    MW4 3104   0.450   4.233   1.571
  769SOL     OW 3105   0.681   4.394   1.502
  769SOL    HW2 3106   0.595   4.363   1.528
  769SOL    HW3 3107   0.679   4.489   1.516
  769SOL    MW4 3108   0.670   4.403   1.507
  770SOL     OW 3109   1.131   4.639   1.628
  770SOL    HW2 3110   1.151   4.660   1.720
  770SOL    HW3 3111   1.202   4.679   1.578
  770SOL    MW4 3112   1.143   4.647   1.634
  771SOL     OW 3113   0.952   0.125   1.482
  771SOL    HW2 3114   0.950   0.211   1.523
  771SOL    HW3 3115   1.019   0.077   1.529
  771SOL    MW4 3116   0.960   0.130   1.493
  772SOL     OW 3117   0.896   0.385   1.572
  772SOL    HW2 3118   0.890   0.381   1.667
  772SOL    HW3 3119   0.820   0.435   1.545
  772SOL    MW4 3120   0.886   0.391   1.581
  773SOL     OW 3121   1.125   0.536   1.514
  773SOL    HW2 3122   1.119   0.626   1.547
  773SOL    HW3 3123   1.041   0.496   1.539
  773SOL    MW4 3124   1.113   0.543   1.522
  774SOL     OW 3125   1.114   0.804   1.590
  774SOL    HW2 3126   1.129   0.777   1.681
  774SOL    HW3 3127   1.196   0.845   1.564
  774SOL    MW4 3128   1.127   0.806   1.599
  775SOL     OW 3129   0.907   0.970   1.540
  775SOL    HW2 3130   0.985   0.925   1.573
  775SOL    HW3 3131   0.914   0.964   1.445
  775SOL    MW4 3132   0.918   0.963   1.532
  776SOL     OW 3133   0.907   1.226   1.650
  776SOL    HW2 3134   0.909   1.146   1.598
  776SOL    HW3 3135   0.821   1.265   1.631
  776SOL    MW4 3136   0.896   1.221   1.641
  777SOL     OW 3137   1.116   1.305   1.469
  777SOL    HW2 3138   1.196   1.288   1.520
  777SOL    HW3 3139   1.045   1.285   1.530
  777SOL    MW4 3140   1.117   1.300   1.484
  778SOL     OW 3141   1.100   1.531   1.609
  778SOL    HW2 3142   1.172   1.589   1.583
  778SOL    HW3 3143   1.102   1.459   1.546
  778SOL    MW4 3144   1.110   1.529   1.598
  779SOL     OW 3145   0.865   1.670   1.486
  779SOL    HW2 3146   0.949   1.632   1.511
  779SOL    HW3 3147   0.873   1.688   1.392
  779SOL    MW4 3148   0.877   1.668   1.477
  780SOL     OW 3149   0.872   1.939   1.610
  780SOL    HW2 3150   0.948   1.973   1.564
  780SOL    HW3 3151   0.861   1.850   1.576
  780SOL    MW4 3152   0.880   1.931   1.600
  781SOL     OW 3153   1.100   2.060   1.482
  781SOL    HW2 3154   1.177   2.015   1.516
  781SOL    HW3 3155   1.109   2.150   1.511
  781SOL    MW4 3156   1.111   2.066   1.490
  782SOL     OW 3157   1.174   2.335   1.585
  782SOL    HW2 3158   1.250   2.378   1.546
  782SOL    HW3 3159   1.098   2.380   1.546
  782SOL    MW4 3160   1.174   2.347   1.575
  783SOL     OW 3161   0.926   2.409   1.464
  783SOL    HW2 3162   0.910   2.499   1.493
  783SOL    HW3 3163   0.852   2.359   1.499
  783SOL    MW4 3164   0.914   2.414   1.472
  784SOL     OW 3165   0.877   2.678   1.568
  784SOL    HW2 3166   0.878   2.682   1.664
  784SOL    HW3 3167   0.799   2.728   1.543
  784SOL    MW4 3168   0.867   2.685   1.578
  785SOL     OW 3169   1.114   2.816   1.486
  785SOL    HW2 3170   1.105   2.901   1.529
  785SOL    HW3 3171   1.036   2.768   1.511
  785SOL    MW4 3172   1.103   2.821   1.495
  786SOL     OW 3173   1.114   3.085   1.577
  786SOL    HW2 3174   1.112   3.106   1.670
  786SOL    HW3 3175   1.181   3.143   1.540
  786SOL    MW4 3176   1.122   3.095   1.584
  787SOL     OW 3177   0.902   3.243   1.515
  787SOL    HW2 3178   0.968   3.181   1.544
  787SOL    HW3 3179   0.896   3.229   1.420
  787SOL    MW4 3180   0.910   3.233   1.506
  788SOL     OW 3181   0.855   3.504   1.599
  788SOL    HW2 3182   0.936   3.543   1.565
  788SOL    HW3 3183   0.858   3.413   1.569
  788SOL    MW4 3184   0.866   3.497   1.590
  789SOL     OW 3185   1.086   3.617   1.510
  789SOL    HW2 3186   1.172   3.586   1.536
  789SOL    HW3 3187   1.085   3.611   1.415
  789SOL    MW4 3188   1.097   3.612   1.501
  790SOL     OW 3189   1.097   3.873   1.623
  790SOL    HW2 3190   1.168   3.918   1.577
  790SOL    HW3 3191   1.094   3.786   1.583
  790SOL    MW4 3192   1.106   3.868   1.611
  791SOL     OW 3193   0.865   3.986   1.491
  791SOL    HW2 3194   0.884   4.074   1.521
  791SOL    HW3 3195   0.936   3.932   1.526
  791SOL    MW4 3196   0.877   3.990   1.499
  792SOL     OW 3197   0.899   4.255   1.585
  792SOL    HW2 3198   0.887   4.266   1.679
  792SOL    HW3 3199   0.829   4.307   1.545
  792SOL    MW4 3200   0.888   4.263   1.592
  793SOL     OW 3201   1.104   4.378   1.464
  793SOL    HW2 3202   1.032   4.338   1.512
  793SOL    HW3 3203   1.135   4.448   1.521
  793SOL    MW4 3204   1.099   4.382   1.478
  794SOL     OW 3205   1.563   4.620   1.612
  794SOL    HW2 3206   1.570   4.640   1.706
  794SOL    HW3 3207   1.488   4.671   1.582
  794SOL    MW4 3208   1.554   4.629   1.621
  795SOL     OW 3209   1.353   0.083   1.483
  795SOL    HW2 3210   1.371   0.166   1.525
  795SOL    HW3 3211   1.356   0.103   1.389
  795SOL    MW4 3212   1.356   0.096   1.476
  796SOL     OW 3213   1.350   0.373   1.575
  796SOL    HW2 3214   1.420   0.423   1.533
  796SOL    HW3 3215   1.272   0.428   1.563
  796SOL    MW4 3216   1.349   0.387   1.568
  797SOL     OW 3217   1.580   0.520   1.495
  797SOL    HW2 3218   1.638   0.457   1.538
  797SOL    HW3 3219   1.592   0.504   1.402
  797SOL    MW4 3220   1.589   0.510   1.489
  798SOL     OW 3221   1.599   0.787   1.581
  798SOL    HW2 3222   1.576   0.789   1.674
  798SOL    HW3 3223   1.598   0.695   1.558
  798SOL    MW4 3224   1.596   0.775   1.590
  799SOL     OW 3225   1.354   0.934   1.513
  799SOL    HW2 3226   1.427   0.877   1.538
  799SOL    HW3 3227   1.352   0.931   1.418
  799SOL    MW4 3228   1.363   0.926   1.504
  800SOL     OW 3229   1.327   1.205   1.612
  800SOL    HW2 3230   1.314   1.206   1.707
  800SOL    HW3 3231   1.319   1.113   1.587
  800SOL    MW4 3232   1.324   1.193   1.621
  801SOL     OW 3233   1.561   1.319   1.501
  801SOL    HW2 3234   1.490   1.263   1.533
  801SOL    HW3 3235   1.560   1.307   1.406
  801SOL    MW4 3236   1.552   1.310   1.492
  802SOL     OW 3237   1.560   1.574   1.630
  802SOL    HW2 3238   1.553   1.565   1.725
  802SOL    HW3 3239   1.569   1.484   1.598
  802SOL    MW4 3240   1.560   1.561   1.639
  803SOL     OW 3241   1.332   1.671   1.506
  803SOL    HW2 3242   1.403   1.628   1.552
  803SOL    HW3 3243   1.363   1.678   1.415
  803SOL    MW4 3244   1.345   1.666   1.500
  804SOL     OW 3245   1.306   1.930   1.593
  804SOL    HW2 3246   1.326   1.935   1.686
  804SOL    HW3 3247   1.305   1.836   1.574
  804SOL    MW4 3248   1.308   1.918   1.603
  805SOL     OW 3249   1.530   2.064   1.482
  805SOL    HW2 3250   1.451   2.026   1.521
  805SOL    HW3 3251   1.509   2.075   1.390
  805SOL    MW4 3252   1.517   2.061   1.475
  806SOL     OW 3253   1.608   2.346   1.581
  806SOL    HW2 3254   1.691   2.373   1.542
  806SOL    HW3 3255   1.588   2.262   1.541
  806SOL    MW4 3256   1.617   2.339   1.571
  807SOL     OW 3257   1.383   2.485   1.496
  807SOL    HW2 3258   1.383   2.577   1.524
  807SOL    HW3 3259   1.461   2.447   1.536
  807SOL    MW4 3260   1.393   2.492   1.505
  808SOL     OW 3261   1.363   2.730   1.603
  808SOL    HW2 3262   1.428   2.781   1.554
  808SOL    HW3 3263   1.279   2.759   1.568
  808SOL    MW4 3264   1.361   2.740   1.592
  809SOL     OW 3265   1.571   2.836   1.463
  809SOL    HW2 3266   1.654   2.811   1.503
  809SOL    HW3 3267   1.592   2.847   1.370
  809SOL    MW4 3268   1.585   2.834   1.456
  810SOL     OW 3269   1.579   3.100   1.591
  810SOL    HW2 3270   1.659   3.147   1.567
  810SOL    HW3 3271   1.583   3.018   1.542
  810SOL    MW4 3272   1.590   3.096   1.582
  811SOL     OW 3273   1.319   3.256   1.491
  811SOL    HW2 3274   1.323   3.348   1.519
  811SOL    HW3 3275   1.405   3.221   1.512
  811SOL    MW4 3276   1.331   3.264   1.497
  812SOL     OW 3277   1.321   3.503   1.589
  812SOL    HW2 3278   1.318   3.489   1.684
  812SOL    HW3 3279   1.408   3.540   1.574
  812SOL    MW4 3280   1.332   3.506   1.600
  813SOL     OW 3281   1.581   3.554   1.485
  813SOL    HW2 3282   1.579   3.649   1.499
  813SOL    HW3 3283   1.578   3.544   1.390
  813SOL    MW4 3284   1.580   3.565   1.474
  814SOL     OW 3285   1.570   3.811   1.576
  814SOL    HW2 3286   1.569   3.806   1.671
  814SOL    HW3 3287   1.484   3.845   1.553
  814SOL    MW4 3288   1.558   3.815   1.585
  815SOL     OW 3289   1.307   3.936   1.487
  815SOL    HW2 3290   1.308   4.028   1.514
  815SOL    HW3 3291   1.304   3.939   1.392
  815SOL    MW4 3292   1.307   3.949   1.478
  816SOL     OW 3293   1.316   4.219   1.568
  816SOL    HW2 3294   1.394   4.256   1.525
  816SOL    HW3 3295   1.249   4.286   1.557
  816SOL    MW4 3296   1.317   4.233   1.561
  817SOL     OW 3297   1.560   4.363   1.476
  817SOL    HW2 3298   1.641   4.322   1.506
  817SOL    HW3 3299   1.546   4.436   1.535
  817SOL    MW4 3300   1.569   4.367   1.487
  818SOL     OW 3301   1.971   4.591   1.606
  818SOL    HW2 3302   1.985   4.612   1.698
  818SOL    HW3 3303   1.899   4.647   1.579
  818SOL    MW4 3304   1.964   4.601   1.614
  819SOL     OW 3305   1.777   0.079   1.492
  819SOL    HW2 3306   1.718   0.019   1.539
  819SOL    HW3 3307   1.762   0.060   1.400
  819SOL    MW4 3308   1.767   0.068   1.486
  820SOL     OW 3309   1.757   0.337   1.576
  820SOL    HW2 3310   1.842   0.373   1.548
  820SOL    HW3 3311   1.759   0.246   1.548
  820SOL    MW4 3312   1.768   0.330   1.568
  821SOL     OW 3313   1.985   0.457   1.499
  821SOL    HW2 3314   2.073   0.431   1.527
  821SOL    HW3 3315   1.975   0.546   1.533
  821SOL    MW4 3316   1.996   0.466   1.507
  822SOL     OW 3317   2.005   0.738   1.540
  822SOL    HW2 3318   2.075   0.801   1.524
  822SOL    HW3 3319   1.925   0.785   1.518
  822SOL    MW4 3320   2.004   0.752   1.535
  823SOL     OW 3321   1.801   0.909   1.482
  823SOL    HW2 3322   1.804   0.995   1.525
  823SOL    HW3 3323   1.727   0.864   1.524
  823SOL    MW4 3324   1.792   0.914   1.493
  824SOL     OW 3325   1.768   1.169   1.588
  824SOL    HW2 3326   1.841   1.226   1.564
  824SOL    HW3 3327   1.690   1.221   1.568
  824SOL    MW4 3328   1.767   1.183   1.582
  825SOL     OW 3329   2.007   1.294   1.510
  825SOL    HW2 3330   2.016   1.381   1.549
  825SOL    HW3 3331   1.984   1.311   1.419
  825SOL    MW4 3332   2.006   1.308   1.503
  826SOL     OW 3333   1.999   1.549   1.620
  826SOL    HW2 3334   2.078   1.587   1.581
  826SOL    HW3 3335   1.926   1.594   1.578
  826SOL    MW4 3336   2.000   1.560   1.610
  827SOL     OW 3337   1.784   1.689   1.507
  827SOL    HW2 3338   1.705   1.649   1.544
  827SOL    HW3 3339   1.776   1.675   1.413
  827SOL    MW4 3340   1.773   1.682   1.499
  828SOL     OW 3341   1.775   1.964   1.584
  828SOL    HW2 3342   1.781   1.869   1.572
  828SOL    HW3 3343   1.697   1.990   1.534
  828SOL    MW4 3344   1.766   1.955   1.576
  829SOL     OW 3345   2.015   2.055   1.507
  829SOL    HW2 3346   2.074   2.025   1.576
  829SOL    HW3 3347   1.928   2.031   1.538
  829SOL    MW4 3348   2.011   2.048   1.520
  830SOL     OW 3349   2.042   2.312   1.622
  830SOL    HW2 3350   2.034   2.320   1.717
  830SOL    HW3 3351   2.042   2.218   1.605
  830SOL    MW4 3352   2.041   2.301   1.632
  831SOL     OW 3353   1.838   2.426   1.464
  831SOL    HW2 3354   1.919   2.393   1.504
  831SOL    HW3 3355   1.854   2.419   1.370
  831SOL    MW4 3356   1.851   2.420   1.457
  832SOL     OW 3357   1.782   2.674   1.615
  832SOL    HW2 3358   1.845   2.739   1.583
  832SOL    HW3 3359   1.790   2.601   1.553
  832SOL    MW4 3360   1.792   2.673   1.603
  833SOL     OW 3361   1.990   2.830   1.473
  833SOL    HW2 3362   2.004   2.922   1.494
  833SOL    HW3 3363   1.990   2.827   1.377
  833SOL    MW4 3364   1.992   2.842   1.463
  834SOL     OW 3365   2.020   3.084   1.564
  834SOL    HW2 3366   2.037   3.085   1.659
  834SOL    HW3 3367   2.096   3.127   1.526
  834SOL    MW4 3368   2.032   3.090   1.572
  835SOL     OW 3369   1.806   3.224   1.465
  835SOL    HW2 3370   1.811   3.314   1.496
  835SOL    HW3 3371   1.880   3.179   1.507
  835SOL    MW4 3372   1.817   3.230   1.474
  836SOL     OW 3373   1.835   3.487   1.575
  836SOL    HW2 3374   1.828   3.490   1.670
  836SOL    HW3 3375   1.753   3.525   1.544
  836SOL    MW4 3376   1.823   3.492   1.583
  837SOL     OW 3377   2.038   3.645   1.471
  837SOL    HW2 3378   2.119   3.599   1.494
  837SOL    HW3 3379   1.968   3.585   1.496
  837SOL    MW4 3380   2.039   3.631   1.477
  838SOL     OW 3381   2.022   3.862   1.611
  838SOL    HW2 3382   2.086   3.911   1.559
  838SOL    HW3 3383   2.015   3.777   1.567
  838SOL    MW4 3384   2.030   3.857   1.598
  839SOL     OW 3385   1.791   3.972   1.531
  839SOL    HW2 3386   1.864   3.919   1.562
  839SOL    HW3 3387   1.713   3.926   1.562
  839SOL    MW4 3388   1.790   3.959   1.539
  840SOL     OW 3389   1.794   4.258   1.579
  840SOL    HW2 3390   1.877   4.285   1.541
  840SOL    HW3 3391   1.795   4.162   1.573
  840SOL    MW4 3392   1.805   4.249   1.573
  841SOL     OW 3393   2.031   4.371   1.467
  841SOL    HW2 3394   2.108   4.336   1.513
  841SOL    HW3 3395   2.015   4.456   1.508
  841SOL    MW4 3396   2.039   4.377   1.479
  842SOL     OW 3397   2.464   0.015   1.576
  842SOL    HW2 3398   2.483   0.010   1.670
  842SOL    HW3 3399   2.371   0.036   1.572
  842SOL    MW4 3400   2.454   0.017   1.588
  843SOL     OW 3401   2.168   0.092   1.540
  843SOL    HW2 3402   2.090   0.039   1.557
  843SOL    HW3 3403   2.181   0.086   1.445
  843SOL    MW4 3404   2.160   0.084   1.530
  844SOL     OW 3405   2.232   0.353   1.596
  844SOL    HW2 3406   2.222   0.355   1.691
  844SOL    HW3 3407   2.200   0.267   1.570
  844SOL    MW4 3408   2.227   0.342   1.605
  845SOL     OW 3409   2.484   0.459   1.505
  845SOL    HW2 3410   2.562   0.418   1.542
  845SOL    HW3 3411   2.411   0.420   1.553
  845SOL    MW4 3412   2.485   0.449   1.516
  846SOL     OW 3413   2.502   0.734   1.573
  846SOL    HW2 3414   2.416   0.774   1.560
  846SOL    HW3 3415   2.493   0.646   1.535
  846SOL    MW4 3416   2.490   0.728   1.566
  847SOL     OW 3417   2.267   0.865   1.495
  847SOL    HW2 3418   2.236   0.940   1.547
  847SOL    HW3 3419   2.262   0.895   1.404
  847SOL    MW4 3420   2.262   0.879   1.490
  848SOL     OW 3421   2.220   1.129   1.593
  848SOL    HW2 3422   2.215   1.146   1.687
  848SOL    HW3 3423   2.140   1.167   1.557
  848SOL    MW4 3424   2.209   1.136   1.601
  849SOL     OW 3425   2.466   1.272   1.466
  849SOL    HW2 3426   2.385   1.229   1.496
  849SOL    HW3 3427   2.465   1.262   1.371
  849SOL    MW4 3428   2.455   1.265   1.458
  850SOL     OW 3429   2.466   1.532   1.610
  850SOL    HW2 3430   2.550   1.572   1.585
  850SOL    HW3 3431   2.471   1.443   1.574
  850SOL    MW4 3432   2.478   1.525   1.602
  851SOL     OW 3433   2.240   1.671   1.510
  851SOL    HW2 3434   2.309   1.618   1.551
  851SOL    HW3 3435   2.261   1.669   1.416
  851SOL    MW4 3436   2.252   1.664   1.503
  852SOL     OW 3437   2.241   1.924   1.641
  852SOL    HW2 3438   2.245   1.915   1.736
  852SOL    HW3 3439   2.253   1.835   1.608
  852SOL    MW4 3440   2.243   1.911   1.649
  853SOL     OW 3441   2.488   2.065   1.524
  853SOL    HW2 3442   2.406   2.034   1.561
  853SOL    HW3 3443   2.486   2.034   1.433
  853SOL    MW4 3444   2.477   2.057   1.517
  854SOL     OW 3445   2.463   2.333   1.594
  854SOL    HW2 3446   2.477   2.311   1.686
  854SOL    HW3 3447   2.476   2.250   1.548
  854SOL    MW4 3448   2.467   2.319   1.600
  855SOL     OW 3449   2.240   2.475   1.511
  855SOL    HW2 3450   2.315   2.433   1.554
  855SOL    HW3 3451   2.164   2.428   1.546
  855SOL    MW4 3452   2.240   2.463   1.522
  856SOL     OW 3453   2.205   2.716   1.649
  856SOL    HW2 3454   2.225   2.628   1.615
  856SOL    HW3 3455   2.133   2.746   1.594
  856SOL    MW4 3456   2.198   2.708   1.637
  857SOL     OW 3457   2.411   2.846   1.501
  857SOL    HW2 3458   2.416   2.935   1.537
  857SOL    HW3 3459   2.348   2.801   1.557
  857SOL    MW4 3460   2.403   2.852   1.513
  858SOL     OW 3461   2.474   3.100   1.604
  858SOL    HW2 3462   2.544   3.143   1.554
  858SOL    HW3 3463   2.393   3.136   1.569
  858SOL    MW4 3464   2.473   3.110   1.593
  859SOL     OW 3465   2.261   3.218   1.488
  859SOL    HW2 3466   2.253   3.312   1.504
  859SOL    HW3 3467   2.281   3.212   1.395
  859SOL    MW4 3468   2.263   3.230   1.478
  860SOL     OW 3469   2.254   3.499   1.536
  860SOL    HW2 3470   2.241   3.508   1.631
  860SOL    HW3 3471   2.322   3.564   1.515
  860SOL    MW4 3472   2.261   3.509   1.546
  861SOL     OW 3473   2.486   3.659   1.460
  861SOL    HW2 3474   2.538   3.595   1.508
  861SOL    HW3 3475   2.484   3.736   1.517
  861SOL    MW4 3476   2.492   3.661   1.474
  862SOL     OW 3477   2.440   3.892   1.599
  862SOL    HW2 3478   2.445   3.865   1.691
  862SOL    HW3 3479   2.514   3.952   1.587
  862SOL    MW4 3480   2.450   3.897   1.610
  863SOL     OW 3481   2.212   4.003   1.479
  863SOL    HW2 3482   2.293   3.971   1.519
  863SOL    HW3 3483   2.223   3.985   1.385
  863SOL    MW4 3484   2.224   3.997   1.472
  864SOL     OW 3485   2.237   4.256   1.611
  864SOL    HW2 3486   2.316   4.303   1.583
  864SOL    HW3 3487   2.243   4.171   1.568
  864SOL    MW4 3488   2.248   4.251   1.602
  865SOL     OW 3489   2.468   4.401   1.520
  865SOL    HW2 3490   2.461   4.489   1.558
  865SOL    HW3 3491   2.468   4.416   1.425
  865SOL    MW4 3492   2.467   4.415   1.512
  866SOL     OW 3493   2.903   4.592   1.598
  866SOL    HW2 3494   2.915   4.601   1.693
  866SOL    HW3 3495   2.843   4.663   1.575
  866SOL    MW4 3496   2.897   4.603   1.608
  867SOL     OW 3497   2.724   0.107   1.500
  867SOL    HW2 3498   2.732   0.196   1.532
  867SOL    HW3 3499   2.632   0.084   1.512
  867SOL    MW4 3500   2.713   0.116   1.506
  868SOL     OW 3501   2.696   0.355   1.635
  868SOL    HW2 3502   2.701   0.360   1.730
  868SOL    HW3 3503   2.760   0.419   1.604
  868SOL    MW4 3504   2.705   0.364   1.644
  869SOL     OW 3505   2.895   0.491   1.477
  869SOL    HW2 3506   2.930   0.580   1.484
  869SOL    HW3 3507   2.897   0.472   1.383
  869SOL    MW4 3508   2.900   0.500   1.466
  870SOL     OW 3509   2.929   0.749   1.580
  870SOL    HW2 3510   2.933   0.738   1.675
  870SOL    HW3 3511   2.847   0.796   1.565
  870SOL    MW4 3512   2.919   0.754   1.591
  871SOL     OW 3513   2.703   0.881   1.448
  871SOL    HW2 3514   2.624   0.836   1.479
  871SOL    HW3 3515   2.704   0.867   1.353
  871SOL    MW4 3516   2.693   0.873   1.440
  872SOL     OW 3517   2.706   1.141   1.573
  872SOL    HW2 3518   2.713   1.053   1.536
  872SOL    HW3 3519   2.621   1.173   1.544
  872SOL    MW4 3520   2.696   1.134   1.564
  873SOL     OW 3521   2.929   1.280   1.496
  873SOL    HW2 3522   2.999   1.224   1.531
  873SOL    HW3 3523   2.848   1.234   1.518
  873SOL    MW4 3524   2.928   1.266   1.504
  874SOL     OW 3525   2.938   1.556   1.578
  874SOL    HW2 3526   2.852   1.596   1.562
  874SOL    HW3 3527   2.926   1.464   1.556
  874SOL    MW4 3528   2.925   1.549   1.573
  875SOL     OW 3529   2.686   1.652   1.515
  875SOL    HW2 3530   2.691   1.741   1.550
  875SOL    HW3 3531   2.696   1.663   1.421
  875SOL    MW4 3532   2.688   1.666   1.507
  876SOL     OW 3533   2.695   1.911   1.595
  876SOL    HW2 3534   2.681   1.916   1.690
  876SOL    HW3 3535   2.617   1.951   1.557
  876SOL    MW4 3536   2.683   1.917   1.603
  877SOL     OW 3537   2.939   2.084   1.492
  877SOL    HW2 3538   2.920   2.169   1.531
  877SOL    HW3 3539   2.874   2.025   1.530
  877SOL    MW4 3540   2.928   2.088   1.502
  878SOL     OW 3541   2.933   2.352   1.609
  878SOL    HW2 3542   2.918   2.323   1.699
  878SOL    HW3 3543   2.852   2.395   1.583
  878SOL    MW4 3544   2.920   2.354   1.617
  879SOL     OW 3545   2.689   2.456   1.498
  879SOL    HW2 3546   2.681   2.551   1.502
  879SOL    HW3 3547   2.602   2.424   1.524
  879SOL    MW4 3548   2.676   2.464   1.502
  880SOL     OW 3549   2.675   2.739   1.564
  880SOL    HW2 3550   2.752   2.783   1.528
  880SOL    HW3 3551   2.602   2.797   1.541
  880SOL    MW4 3552   2.676   2.753   1.556
  881SOL     OW 3553   2.907   2.862   1.446
  881SOL    HW2 3554   2.981   2.813   1.480
  881SOL    HW3 3555   2.912   2.947   1.490
  881SOL    MW4 3556   2.917   2.867   1.456
  882SOL     OW 3557   2.932   3.104   1.576
  882SOL    HW2 3558   2.924   3.096   1.671
  882SOL    HW3 3559   3.018   3.144   1.562
  882SOL    MW4 3560   2.942   3.109   1.586
  883SOL     OW 3561   2.697   3.218   1.480
  883SOL    HW2 3562   2.783   3.195   1.515
  883SOL    HW3 3563   2.702   3.197   1.387
  883SOL    MW4 3564   2.709   3.212   1.472
  884SOL     OW 3565   2.671   3.475   1.555
  884SOL    HW2 3566   2.686   3.481   1.649
  884SOL    HW3 3567   2.679   3.382   1.535
  884SOL    MW4 3568   2.674   3.464   1.565
  885SOL     OW 3569   2.903   3.601   1.481
  885SOL    HW2 3570   2.820   3.554   1.489
  885SOL    HW3 3571   2.921   3.603   1.387
  885SOL    MW4 3572   2.895   3.595   1.469
  886SOL     OW 3573   2.919   3.860   1.593
  886SOL    HW2 3574   2.851   3.920   1.562
  886SOL    HW3 3575   2.895   3.775   1.556
  886SOL    MW4 3576   2.907   3.857   1.584
  887SOL     OW 3577   2.686   3.998   1.521
  887SOL    HW2 3578   2.681   4.088   1.552
  887SOL    HW3 3579   2.668   4.004   1.427
  887SOL    MW4 3580   2.683   4.011   1.513
  888SOL     OW 3581   2.705   4.251   1.636
  888SOL    HW2 3582   2.794   4.273   1.610
  888SOL    HW3 3583   2.650   4.315   1.590
  888SOL    MW4 3584   2.709   4.263   1.627
  889SOL     OW 3585   2.952   4.341   1.536
  889SOL    HW2 3586   2.953   4.434   1.560
  889SOL    HW3 3587   2.935   4.342   1.441
  889SOL    MW4 3588   2.950   4.353   1.527
  890SOL     OW 3589   3.327   4.653   1.607
  890SOL    HW2 3590   3.404   4.687   1.562
  890SOL    HW3 3591   3.319   4.563   1.576
  890SOL    MW4 3592   3.336   4.646   1.597
  891SOL     OW 3593   3.098   0.101   1.477
  891SOL    HW2 3594   3.177   0.076   1.524
  891SOL    HW3 3595   3.031   0.039   1.506
  891SOL    MW4 3596   3.099   0.089   1.487
  892SOL     OW 3597   3.098   0.360   1.595
  892SOL    HW2 3598   3.102   0.273   1.554
  892SOL    HW3 3599   3.022   0.402   1.555
  892SOL    MW4 3600   3.089   0.354   1.584
  893SOL     OW 3601   3.377   0.467   1.505
  893SOL    HW2 3602   3.290   0.440   1.537
  893SOL    HW3 3603   3.373   0.454   1.411
  893SOL    MW4 3604   3.365   0.462   1.497
  894SOL     OW 3605   3.360   0.748   1.580
  894SOL    HW2 3606   3.375   0.756   1.674
  894SOL    HW3 3607   3.359   0.653   1.564
  894SOL    MW4 3608   3.362   0.736   1.591
  895SOL     OW 3609   3.141   0.876   1.459
  895SOL    HW2 3610   3.215   0.826   1.492
  895SOL    HW3 3611   3.064   0.830   1.493
  895SOL    MW4 3612   3.140   0.863   1.468
  896SOL     OW 3613   3.164   1.125   1.587
  896SOL    HW2 3614   3.166   1.100   1.680
  896SOL    HW3 3615   3.158   1.041   1.540
  896SOL    MW4 3616   3.163   1.110   1.593
  897SOL     OW 3617   3.372   1.284   1.485
  897SOL    HW2 3618   3.456   1.264   1.526
  897SOL    HW3 3619   3.309   1.232   1.534
  897SOL    MW4 3620   3.375   1.275   1.497
  898SOL     OW 3621   3.351   1.532   1.582
  898SOL    HW2 3622   3.358   1.521   1.676
  898SOL    HW3 3623   3.351   1.443   1.547
  898SOL    MW4 3624   3.352   1.519   1.590
  899SOL     OW 3625   3.154   1.670   1.456
  899SOL    HW2 3626   3.222   1.627   1.508
  899SOL    HW3 3627   3.072   1.628   1.482
  899SOL    MW4 3628   3.152   1.659   1.466
  900SOL     OW 3629   3.152   1.939   1.589
  900SOL    HW2 3630   3.136   1.855   1.547
  900SOL    HW3 3631   3.077   1.993   1.563
  900SOL    MW4 3632   3.140   1.935   1.580
  901SOL     OW 3633   3.394   2.064   1.486
  901SOL    HW2 3634   3.309   2.029   1.514
  901SOL    HW3 3635   3.398   2.048   1.392
  901SOL    MW4 3636   3.383   2.057   1.477
  902SOL     OW 3637   3.355   2.334   1.526
  902SOL    HW2 3638   3.445   2.365   1.519
  902SOL    HW3 3639   3.359   2.242   1.500
  902SOL    MW4 3640   3.367   2.326   1.522
  903SOL     OW 3641   3.135   2.458   1.435
  903SOL    HW2 3642   3.217   2.420   1.468
  903SOL    HW3 3643   3.066   2.410   1.481
  903SOL    MW4 3644   3.137   2.446   1.445
  904SOL     OW 3645   3.129   2.704   1.558
  904SOL    HW2 3646   3.209   2.740   1.522
  904SOL    HW3 3647   3.124   2.615   1.522
  904SOL    MW4 3648   3.139   2.697   1.548
  905SOL     OW 3649   3.341   2.856   1.432
  905SOL    HW2 3650   3.360   2.941   1.473
  905SOL    HW3 3651   3.378   2.864   1.344
  905SOL    MW4 3652   3.349   2.868   1.426
  906SOL     OW 3653   3.393   3.093   1.552
  906SOL    HW2 3654   3.391   3.103   1.648
  906SOL    HW3 3655   3.479   3.127   1.527
  906SOL    MW4 3656   3.404   3.099   1.562
  907SOL     OW 3657   3.158   3.265   1.500
  907SOL    HW2 3658   3.235   3.216   1.531
  907SOL    HW3 3659   3.154   3.246   1.406
  907SOL    MW4 3660   3.168   3.256   1.492
  908SOL     OW 3661   3.133   3.528   1.617
  908SOL    HW2 3662   3.134   3.444   1.572
  908SOL    HW3 3663   3.062   3.577   1.576
  908SOL    MW4 3664   3.124   3.523   1.606
  909SOL     OW 3665   3.374   3.562   1.490
  909SOL    HW2 3666   3.445   3.529   1.545
  909SOL    HW3 3667   3.294   3.540   1.538
  909SOL    MW4 3668   3.373   3.554   1.503
  910SOL     OW 3669   3.372   3.817   1.582
  910SOL    HW2 3670   3.285   3.849   1.559
  910SOL    HW3 3671   3.377   3.730   1.544
  910SOL    MW4 3672   3.361   3.810   1.574
  911SOL     OW 3673   3.139   3.972   1.497
  911SOL    HW2 3674   3.141   4.054   1.547
  911SOL    HW3 3675   3.062   3.926   1.531
  911SOL    MW4 3676   3.129   3.977   1.508
  912SOL     OW 3677   3.172   4.216   1.639
  912SOL    HW2 3678   3.151   4.226   1.732
  912SOL    HW3 3679   3.101   4.262   1.594
  912SOL    MW4 3680   3.160   4.224   1.645
  913SOL     OW 3681   3.360   4.395   1.536
  913SOL    HW2 3682   3.312   4.319   1.566
  913SOL    HW3 3683   3.369   4.382   1.442
  913SOL    MW4 3684   3.355   4.383   1.527
  914SOL     OW 3685   3.831   4.650   1.594
  914SOL    HW2 3686   3.846   4.638   1.687
  914SOL    HW3 3687   3.894   4.718   1.568
  914SOL    MW4 3688   3.841   4.658   1.603
  915SOL     OW 3689   3.581   0.082   1.501
  915SOL    HW2 3690   3.669   0.061   1.533
  915SOL    HW3 3691   3.581   0.054   1.410
  915SOL    MW4 3692   3.593   0.076   1.493
  916SOL     OW 3693   3.609   0.353   1.575
  916SOL    HW2 3694   3.600   0.261   1.549
  916SOL    HW3 3695   3.522   0.391   1.563
  916SOL    MW4 3696   3.597   0.346   1.570
  917SOL     OW 3697   3.786   0.519   1.456
  917SOL    HW2 3698   3.707   0.476   1.488
  917SOL    HW3 3699   3.792   0.494   1.364
  917SOL    MW4 3700   3.777   0.510   1.448
  918SOL     OW 3701   3.833   0.761   1.575
  918SOL    HW2 3702   3.748   0.797   1.549
  918SOL    HW3 3703   3.843   0.682   1.522
  918SOL    MW4 3704   3.823   0.755   1.565
  919SOL     OW 3705   3.595   0.871   1.483
  919SOL    HW2 3706   3.512   0.826   1.500
  919SOL    HW3 3707   3.604   0.869   1.388
  919SOL    MW4 3708   3.585   0.865   1.473
  920SOL     OW 3709   3.596   1.138   1.591
  920SOL    HW2 3710   3.687   1.165   1.580
  920SOL    HW3 3711   3.589   1.055   1.543
  920SOL    MW4 3712   3.607   1.131   1.583
  921SOL     OW 3713   3.844   1.259   1.436
  921SOL    HW2 3714   3.924   1.240   1.485
  921SOL    HW3 3715   3.807   1.336   1.480
  921SOL    MW4 3716   3.850   1.267   1.448
  922SOL     OW 3717   3.753   1.499   1.569
  922SOL    HW2 3718   3.735   1.496   1.663
  922SOL    HW3 3719   3.696   1.569   1.536
  922SOL    MW4 3720   3.743   1.508   1.577
  923SOL     OW 3721   3.545   1.674   1.468
  923SOL    HW2 3722   3.469   1.624   1.497
  923SOL    HW3 3723   3.554   1.654   1.375
  923SOL    MW4 3724   3.536   1.665   1.460
  924SOL     OW 3725   3.603   1.902   1.593
  924SOL    HW2 3726   3.593   1.811   1.564
  924SOL    HW3 3727   3.536   1.950   1.544
  924SOL    MW4 3728   3.593   1.896   1.582
  925SOL     OW 3729   3.797   2.045   1.448
  925SOL    HW2 3730   3.788   2.135   1.480
  925SOL    HW3 3731   3.740   1.994   1.504
  925SOL    MW4 3732   3.789   2.050   1.459
  926SOL     OW 3733   3.816   2.315   1.551
  926SOL    HW2 3734   3.828   2.312   1.646
  926SOL    HW3 3735   3.891   2.365   1.519
  926SOL    MW4 3736   3.827   2.321   1.559
  927SOL     OW 3737   3.597   2.450   1.462
  927SOL    HW2 3738   3.605   2.531   1.513
  927SOL    HW3 3739   3.673   2.398   1.489
  927SOL    MW4 3740   3.608   2.454   1.472
  928SOL     OW 3741   3.568   2.716   1.594
  928SOL    HW2 3742   3.566   2.701   1.688
  928SOL    HW3 3743   3.485   2.760   1.575
  928SOL    MW4 3744   3.557   2.720   1.604
  929SOL     OW 3745   3.780   2.841   1.450
  929SOL    HW2 3746   3.851   2.786   1.483
  929SOL    HW3 3747   3.701   2.803   1.487
  929SOL    MW4 3748   3.779   2.829   1.459
  930SOL     OW 3749   3.857   3.065   1.593
  930SOL    HW2 3750   3.925   3.110   1.543
  930SOL    HW3 3751   3.835   2.988   1.540
  930SOL    MW4 3752   3.863   3.061   1.579
  931SOL     OW 3753   3.640   3.200   1.491
  931SOL    HW2 3754   3.718   3.150   1.514
  931SOL    HW3 3755   3.639   3.202   1.395
  931SOL    MW4 3756   3.650   3.194   1.481
  932SOL     OW 3757   3.597   3.448   1.610
  932SOL    HW2 3758   3.668   3.492   1.563
  932SOL    HW3 3759   3.609   3.355   1.591
  932SOL    MW4 3760   3.608   3.441   1.601
  933SOL     OW 3761   3.822   3.573   1.480
  933SOL    HW2 3762   3.903   3.540   1.519
  933SOL    HW3 3763   3.816   3.663   1.510
  933SOL    MW4 3764   3.832   3.580   1.489
  934SOL     OW 3765   3.770   3.832   1.570
  934SOL    HW2 3766   3.851   3.879   1.548
  934SOL    HW3 3767   3.700   3.889   1.539
  934SOL    MW4 3768   3.771   3.846   1.563
  935SOL     OW 3769   3.548   4.010   1.497
  935SOL    HW2 3770   3.542   4.085   1.556
  935SOL    HW3 3771   3.482   3.948   1.530
  935SOL    MW4 3772   3.538   4.012   1.509
  936SOL     OW 3773   3.582   4.261   1.595
  936SOL    HW2 3774   3.581   4.266   1.691
  936SOL    HW3 3775   3.503   4.308   1.568
  936SOL    MW4 3776   3.571   4.267   1.604
  937SOL     OW 3777   3.816   4.390   1.495
  937SOL    HW2 3778   3.741   4.353   1.542
  937SOL    HW3 3779   3.815   4.483   1.519
  937SOL    MW4 3780   3.806   4.397   1.505
  938SOL     OW 3781   4.240   0.006   1.591
  938SOL    HW2 3782   4.236  -0.004   1.686
  938SOL    HW3 3783   4.246  -0.084   1.558
  938SOL    MW4 3784   4.240  -0.007   1.599
  939SOL     OW 3785   4.017   0.140   1.452
  939SOL    HW2 3786   4.018   0.226   1.494
  939SOL    HW3 3787   4.092   0.094   1.489
  939SOL    MW4 3788   4.027   0.145   1.462
  940SOL     OW 3789   4.016   0.390   1.586
  940SOL    HW2 3790   4.004   0.404   1.679
  940SOL    HW3 3791   3.947   0.442   1.544
  940SOL    MW4 3792   4.006   0.399   1.593
  941SOL     OW 3793   4.279   0.461   1.507
  941SOL    HW2 3794   4.206   0.418   1.551
  941SOL    HW3 3795   4.357   0.418   1.542
  941SOL    MW4 3796   4.280   0.450   1.517
  942SOL     OW 3797   4.296   0.759   1.507
  942SOL    HW2 3798   4.319   0.667   1.493
  942SOL    HW3 3799   4.373   0.807   1.476
  942SOL    MW4 3800   4.309   0.753   1.501
  943SOL     OW 3801   4.039   0.917   1.482
  943SOL    HW2 3802   4.122   0.879   1.510
  943SOL    HW3 3803   3.973   0.854   1.512
  943SOL    MW4 3804   4.041   0.903   1.490
  944SOL     OW 3805   4.075   1.161   1.598
  944SOL    HW2 3806   4.069   1.157   1.694
  944SOL    HW3 3807   4.048   1.074   1.569
  944SOL    MW4 3808   4.070   1.149   1.607
  945SOL     OW 3809   4.286   1.292   1.475
  945SOL    HW2 3810   4.213   1.245   1.516
  945SOL    HW3 3811   4.364   1.256   1.518
  945SOL    MW4 3812   4.287   1.281   1.486
  946SOL     OW 3813   4.213   1.548   1.594
  946SOL    HW2 3814   4.233   1.457   1.570
  946SOL    HW3 3815   4.286   1.599   1.559
  946SOL    MW4 3816   4.225   1.543   1.586
  947SOL     OW 3817   3.974   1.661   1.503
  947SOL    HW2 3818   4.046   1.607   1.537
  947SOL    HW3 3819   3.895   1.619   1.536
  947SOL    MW4 3820   3.973   1.648   1.512
  948SOL     OW 3821   4.028   1.932   1.542
  948SOL    HW2 3822   4.011   1.839   1.523
  948SOL    HW3 3823   3.945   1.976   1.521
  948SOL    MW4 3824   4.015   1.925   1.536
  949SOL     OW 3825   4.272   2.056   1.459
  949SOL    HW2 3826   4.193   2.008   1.482
  949SOL    HW3 3827   4.277   2.051   1.363
  949SOL    MW4 3828   4.262   2.049   1.449
  950SOL     OW 3829   4.242   2.310   1.567
  950SOL    HW2 3830   4.256   2.291   1.660
  950SOL    HW3 3831   4.250   2.224   1.524
  950SOL    MW4 3832   4.245   2.296   1.573
  951SOL     OW 3833   4.029   2.464   1.479
  951SOL    HW2 3834   4.016   2.550   1.520
  951SOL    HW3 3835   4.101   2.425   1.528
  951SOL    MW4 3836   4.037   2.470   1.491
  952SOL     OW 3837   3.988   2.716   1.566
  952SOL    HW2 3838   3.967   2.745   1.655
  952SOL    HW3 3839   4.078   2.744   1.552
  952SOL    MW4 3840   3.997   2.724   1.576
  953SOL     OW 3841   4.242   2.788   1.472
  953SOL    HW2 3842   4.265   2.877   1.500
  953SOL    HW3 3843   4.215   2.798   1.381
  953SOL    MW4 3844   4.242   2.801   1.464
  954SOL     OW 3845   4.244   3.052   1.550
  954SOL    HW2 3846   4.229   3.054   1.645
  954SOL    HW3 3847   4.315   3.115   1.536
  954SOL    MW4 3848   4.252   3.061   1.561
  955SOL     OW 3849   4.038   3.218   1.438
  955SOL    HW2 3850   4.044   3.292   1.499
  955SOL    HW3 3851   4.117   3.166   1.456
  955SOL    MW4 3852   4.049   3.221   1.448
  956SOL     OW 3853   4.032   3.448   1.605
  956SOL    HW2 3854   4.014   3.448   1.699
  956SOL    HW3 3855   4.110   3.503   1.596
  956SOL    MW4 3856   4.040   3.455   1.616
  957SOL     OW 3857   4.266   3.583   1.476
  957SOL    HW2 3858   4.279   3.673   1.506
  957SOL    HW3 3859   4.241   3.592   1.384
  957SOL    MW4 3860   4.264   3.596   1.467
  958SOL     OW 3861   4.278   3.850   1.555
  958SOL    HW2 3862   4.197   3.892   1.527
  958SOL    HW3 3863   4.346   3.914   1.536
  958SOL    MW4 3864   4.276   3.864   1.549
  959SOL     OW 3865   4.015   3.971   1.502
  959SOL    HW2 3866   4.005   4.051   1.554
  959SOL    HW3 3867   4.018   4.002   1.412
  959SOL    MW4 3868   4.014   3.986   1.497
  960SOL     OW 3869   4.039   4.243   1.613
  960SOL    HW2 3870   4.030   4.248   1.708
  960SOL    HW3 3871   3.966   4.294   1.579
  960SOL    MW4 3872   4.028   4.250   1.621
  961SOL     OW 3873   4.256   4.404   1.485
  961SOL    HW2 3874   4.186   4.351   1.523
  961SOL    HW3 3875   4.239   4.403   1.390
  961SOL    MW4 3876   4.245   4.397   1.477
  962SOL     OW 3877   0.245   4.624   1.841
  962SOL    HW2 3878   0.296   4.689   1.891
  962SOL    HW3 3879   0.273   4.637   1.750
  962SOL    MW4 3880   0.256   4.635   1.836
  963SOL     OW 3881   0.006   0.068   1.955
  963SOL    HW2 3882   0.006   0.157   1.919
  963SOL    HW3 3883   0.082   0.026   1.915
  963SOL    MW4 3884   0.016   0.075   1.945
  964SOL     OW 3885   0.008   0.342   1.861
  964SOL    HW2 3886  -0.072   0.381   1.898
  964SOL    HW3 3887   0.079   0.397   1.894
  964SOL    MW4 3888   0.007   0.355   1.871
  965SOL     OW 3889   0.210   0.487   1.984
  965SOL    HW2 3890   0.270   0.431   1.936
  965SOL    HW3 3891   0.214   0.571   1.938
  965SOL    MW4 3892   0.218   0.491   1.972
  966SOL     OW 3893   0.209   0.764   1.868
  966SOL    HW2 3894   0.281   0.796   1.922
  966SOL    HW3 3895   0.241   0.774   1.778
  966SOL    MW4 3896   0.223   0.769   1.863
  967SOL     OW 3897   4.481   0.880   1.977
  967SOL    HW2 3898   4.408   0.824   1.950
  967SOL    HW3 3899   4.559   0.837   1.941
  967SOL    MW4 3900   4.482   0.867   1.969
  968SOL     OW 3901   0.029   1.129   1.873
  968SOL    HW2 3902  -0.053   1.165   1.906
  968SOL    HW3 3903   0.023   1.035   1.890
  968SOL    MW4 3904   0.017   1.121   1.880
  969SOL     OW 3905   0.261   1.264   1.950
  969SOL    HW2 3906   0.255   1.354   1.920
  969SOL    HW3 3907   0.177   1.225   1.927
  969SOL    MW4 3908   0.249   1.270   1.943
  970SOL     OW 3909   0.200   1.521   1.895
  970SOL    HW2 3910   0.272   1.564   1.941
  970SOL    HW3 3911   0.127   1.582   1.904
  970SOL    MW4 3912   0.200   1.535   1.902
  971SOL     OW 3913   4.476   1.684   1.956
  971SOL    HW2 3914   4.478   1.670   2.051
  971SOL    HW3 3915   4.398   1.636   1.927
  971SOL    MW4 3916   4.466   1.675   1.965
  972SOL     OW 3917   0.002   1.936   1.842
  972SOL    HW2 3918  -0.079   1.973   1.878
  972SOL    HW3 3919  -0.006   1.842   1.859
  972SOL    MW4 3920  -0.010   1.928   1.849
  973SOL     OW 3921   0.229   2.050   1.936
  973SOL    HW2 3922   0.230   2.134   1.889
  973SOL    HW3 3923   0.152   2.004   1.901
  973SOL    MW4 3924   0.219   2.055   1.925
  974SOL     OW 3925   0.223   2.310   1.853
  974SOL    HW2 3926   0.302   2.339   1.898
  974SOL    HW3 3927   0.151   2.347   1.904
  974SOL    MW4 3928   0.224   2.319   1.865
  975SOL     OW 3929   4.477   2.439   1.937
  975SOL    HW2 3930   4.475   2.458   2.031
  975SOL    HW3 3931   4.478   2.525   1.895
  975SOL    MW4 3932   4.477   2.453   1.944
  976SOL     OW 3933   4.471   2.715   1.847
  976SOL    HW2 3934   4.384   2.751   1.864
  976SOL    HW3 3935   4.468   2.684   1.756
  976SOL    MW4 3936   4.459   2.715   1.837
  977SOL     OW 3937   0.213   2.824   1.955
  977SOL    HW2 3938   0.207   2.912   1.917
  977SOL    HW3 3939   0.130   2.783   1.932
  977SOL    MW4 3940   0.201   2.830   1.947
  978SOL     OW 3941   0.201   3.097   1.886
  978SOL    HW2 3942   0.275   3.145   1.924
  978SOL    HW3 3943   0.218   3.098   1.792
  978SOL    MW4 3944   0.213   3.104   1.879
  979SOL     OW 3945   4.451   3.214   1.961
  979SOL    HW2 3946   4.387   3.176   1.901
  979SOL    HW3 3947   4.535   3.173   1.937
  979SOL    MW4 3948   4.454   3.204   1.950
  980SOL     OW 3949   4.437   3.474   1.878
  980SOL    HW2 3950   4.519   3.517   1.901
  980SOL    HW3 3951   4.447   3.384   1.906
  980SOL    MW4 3952   4.449   3.468   1.884
  981SOL     OW 3953   0.190   3.591   1.943
  981SOL    HW2 3954   0.206   3.607   2.036
  981SOL    HW3 3955   0.264   3.538   1.915
  981SOL    MW4 3956   0.202   3.586   1.952
  982SOL     OW 3957   0.237   3.862   1.860
  982SOL    HW2 3958   0.324   3.883   1.894
  982SOL    HW3 3959   0.222   3.771   1.887
  982SOL    MW4 3960   0.247   3.852   1.868
  983SOL     OW 3961   4.458   3.996   1.931
  983SOL    HW2 3962   4.476   4.087   1.907
  983SOL    HW3 3963   4.542   3.951   1.921
  983SOL    MW4 3964   4.471   4.002   1.927
  984SOL     OW 3965   0.021   4.267   1.827
  984SOL    HW2 3966  -0.048   4.307   1.879
  984SOL    HW3 3967   0.102   4.289   1.873
  984SOL    MW4 3968   0.023   4.275   1.840
  985SOL     OW 3969   0.251   4.362   1.965
  985SOL    HW2 3970   0.245   4.375   2.060
  985SOL    HW3 3971   0.270   4.449   1.930
  985SOL    MW4 3972   0.252   4.375   1.973
  986SOL     OW 3973   0.675   4.665   1.862
  986SOL    HW2 3974   0.694   4.572   1.873
  986SOL    HW3 3975   0.694   4.682   1.770
  986SOL    MW4 3976   0.680   4.655   1.851
  987SOL     OW 3977   0.465   0.123   1.987
  987SOL    HW2 3978   0.447   0.203   1.937
  987SOL    HW3 3979   0.536   0.080   1.940
  987SOL    MW4 3980   0.472   0.128   1.974
  988SOL     OW 3981   0.435   0.361   1.877
  988SOL    HW2 3982   0.504   0.405   1.925
  988SOL    HW3 3983   0.447   0.388   1.786
  988SOL    MW4 3984   0.446   0.370   1.871
  989SOL     OW 3985   0.672   0.485   1.966
  989SOL    HW2 3986   0.672   0.493   2.061
  989SOL    HW3 3987   0.756   0.444   1.945
  989SOL    MW4 3988   0.683   0.481   1.975
  990SOL     OW 3989   0.687   0.731   1.847
  990SOL    HW2 3990   0.754   0.782   1.891
  990SOL    HW3 3991   0.687   0.647   1.892
  990SOL    MW4 3992   0.696   0.727   1.858
  991SOL     OW 3993   0.444   0.866   1.963
  991SOL    HW2 3994   0.453   0.957   1.935
  991SOL    HW3 3995   0.525   0.824   1.935
  991SOL    MW4 3996   0.456   0.872   1.956
  992SOL     OW 3997   0.488   1.142   1.877
  992SOL    HW2 3998   0.405   1.176   1.911
  992SOL    HW3 3999   0.478   1.145   1.782
  992SOL    MW4 4000   0.475   1.147   1.869
  993SOL     OW 4001   0.673   1.321   2.012
  993SOL    HW2 4002   0.650   1.309   2.104
  993SOL    HW3 4003   0.619   1.257   1.966
  993SOL    MW4 4004   0.663   1.311   2.018
  994SOL     OW 4005   0.654   1.585   1.918
  994SOL    HW2 4006   0.673   1.493   1.932
  994SOL    HW3 4007   0.641   1.593   1.823
  994SOL    MW4 4008   0.654   1.574   1.907
  995SOL     OW 4009   0.401   1.657   2.021
  995SOL    HW2 4010   0.406   1.684   2.112
  995SOL    HW3 4011   0.487   1.619   2.003
  995SOL    MW4 4012   0.413   1.655   2.030
  996SOL     OW 4013   0.449   1.896   1.877
  996SOL    HW2 4014   0.430   1.814   1.921
  996SOL    HW3 4015   0.380   1.956   1.907
  996SOL    MW4 4016   0.437   1.893   1.887
  997SOL     OW 4017   0.662   2.059   1.955
  997SOL    HW2 4018   0.662   2.061   2.051
  997SOL    HW3 4019   0.592   1.999   1.932
  997SOL    MW4 4020   0.653   2.051   1.965
  998SOL     OW 4021   0.693   2.336   1.867
  998SOL    HW2 4022   0.687   2.245   1.896
  998SOL    HW3 4023   0.683   2.332   1.772
  998SOL    MW4 4024   0.691   2.324   1.858
  999SOL     OW 4025   0.442   2.429   1.958
  999SOL    HW2 4026   0.438   2.441   2.053
  999SOL    HW3 4027   0.531   2.397   1.942
  999SOL    MW4 4028   0.454   2.427   1.969
 1000SOL     OW 4029   0.446   2.697   1.841
 1000SOL    HW2 4030   0.453   2.611   1.882
 1000SOL    HW3 4031   0.372   2.739   1.886
 1000SOL    MW4 4032   0.437   2.692   1.852
 1001SOL     OW 4033   0.657   2.848   1.930
 1001SOL    HW2 4034   0.653   2.864   2.024
 1001SOL    HW3 4035   0.579   2.795   1.912
 1001SOL    MW4 4036   0.646   2.843   1.940
 1002SOL     OW 4037   0.670   3.119   1.879
 1002SOL    HW2 4038   0.659   3.025   1.893
 1002SOL    HW3 4039   0.668   3.130   1.784
 1002SOL    MW4 4040   0.668   3.108   1.869
 1003SOL     OW 4041   0.427   3.210   1.995
 1003SOL    HW2 4042   0.406   3.288   1.944
 1003SOL    HW3 4043   0.512   3.182   1.963
 1003SOL    MW4 4044   0.435   3.217   1.984
 1004SOL     OW 4045   0.432   3.457   1.873
 1004SOL    HW2 4046   0.509   3.486   1.921
 1004SOL    HW3 4047   0.451   3.478   1.782
 1004SOL    MW4 4048   0.444   3.464   1.868
 1005SOL     OW 4049   0.648   3.537   2.010
 1005SOL    HW2 4050   0.714   3.485   1.963
 1005SOL    HW3 4051   0.660   3.626   1.977
 1005SOL    MW4 4052   0.658   3.542   1.999
 1006SOL     OW 4053   0.666   3.786   1.886
 1006SOL    HW2 4054   0.743   3.833   1.916
 1006SOL    HW3 4055   0.668   3.795   1.790
 1006SOL    MW4 4056   0.676   3.793   1.877
 1007SOL     OW 4057   0.459   3.963   1.957
 1007SOL    HW2 4058   0.472   4.051   1.922
 1007SOL    HW3 4059   0.538   3.915   1.930
 1007SOL    MW4 4060   0.471   3.968   1.948
 1008SOL     OW 4061   0.476   4.229   1.877
 1008SOL    HW2 4062   0.393   4.268   1.905
 1008SOL    HW3 4063   0.468   4.220   1.782
 1008SOL    MW4 4064   0.464   4.233   1.868
 1009SOL     OW 4065   0.694   4.393   1.929
 1009SOL    HW2 4066   0.772   4.344   1.901
 1009SOL    HW3 4067   0.622   4.331   1.920
 1009SOL    MW4 4068   0.695   4.378   1.924
 1010SOL     OW 4069   1.130   4.656   1.915
 1010SOL    HW2 4070   1.211   4.691   1.954
 1010SOL    HW3 4071   1.137   4.561   1.927
 1010SOL    MW4 4072   1.142   4.648   1.922
 1011SOL     OW 4073   0.889   0.109   1.998
 1011SOL    HW2 4074   0.958   0.064   1.949
 1011SOL    HW3 4075   0.807   0.072   1.965
 1011SOL    MW4 4076   0.887   0.098   1.987
 1012SOL     OW 4077   0.917   0.351   1.870
 1012SOL    HW2 4078   0.970   0.404   1.929
 1012SOL    HW3 4079   0.893   0.274   1.922
 1012SOL    MW4 4080   0.920   0.348   1.885
 1013SOL     OW 4081   1.129   0.520   2.000
 1013SOL    HW2 4082   1.195   0.471   1.950
 1013SOL    HW3 4083   1.140   0.611   1.971
 1013SOL    MW4 4084   1.139   0.525   1.989
 1014SOL     OW 4085   1.118   0.779   1.879
 1014SOL    HW2 4086   1.188   0.826   1.924
 1014SOL    HW3 4087   1.037   0.815   1.916
 1014SOL    MW4 4088   1.117   0.790   1.890
 1015SOL     OW 4089   0.884   0.898   1.964
 1015SOL    HW2 4090   0.887   0.896   2.060
 1015SOL    HW3 4091   0.904   0.989   1.941
 1015SOL    MW4 4092   0.887   0.910   1.974
 1016SOL     OW 4093   0.913   1.187   1.920
 1016SOL    HW2 4094   0.840   1.232   1.964
 1016SOL    HW3 4095   0.902   1.208   1.827
 1016SOL    MW4 4096   0.902   1.196   1.914
 1017SOL     OW 4097   1.127   1.301   2.030
 1017SOL    HW2 4098   1.132   1.386   1.988
 1017SOL    HW3 4099   1.053   1.257   1.988
 1017SOL    MW4 4100   1.118   1.306   2.019
 1018SOL     OW 4101   1.107   1.535   1.891
 1018SOL    HW2 4102   1.034   1.581   1.934
 1018SOL    HW3 4103   1.089   1.544   1.798
 1018SOL    MW4 4104   1.095   1.542   1.885
 1019SOL     OW 4105   0.901   1.691   1.997
 1019SOL    HW2 4106   0.907   1.775   1.952
 1019SOL    HW3 4107   0.816   1.656   1.970
 1019SOL    MW4 4108   0.890   1.698   1.988
 1020SOL     OW 4109   0.891   1.924   1.879
 1020SOL    HW2 4110   0.811   1.974   1.899
 1020SOL    HW3 4111   0.906   1.939   1.786
 1020SOL    MW4 4112   0.882   1.932   1.870
 1021SOL     OW 4113   1.107   2.027   2.012
 1021SOL    HW2 4114   1.114   2.111   1.966
 1021SOL    HW3 4115   1.026   1.988   1.979
 1021SOL    MW4 4116   1.097   2.033   2.001
 1022SOL     OW 4117   1.152   2.271   1.875
 1022SOL    HW2 4118   1.221   2.316   1.924
 1022SOL    HW3 4119   1.169   2.293   1.783
 1022SOL    MW4 4120   1.163   2.279   1.869
 1023SOL     OW 4121   0.942   2.436   1.937
 1023SOL    HW2 4122   1.006   2.373   1.904
 1023SOL    HW3 4123   0.857   2.400   1.914
 1023SOL    MW4 4124   0.939   2.423   1.930
 1024SOL     OW 4125   0.892   2.721   1.860
 1024SOL    HW2 4126   0.902   2.633   1.895
 1024SOL    HW3 4127   0.805   2.749   1.890
 1024SOL    MW4 4128   0.882   2.713   1.869
 1025SOL     OW 4129   1.111   2.868   1.960
 1025SOL    HW2 4130   1.094   2.873   2.054
 1025SOL    HW3 4131   1.037   2.819   1.925
 1025SOL    MW4 4132   1.099   2.862   1.968
 1026SOL     OW 4133   1.141   3.128   1.839
 1026SOL    HW2 4134   1.067   3.164   1.888
 1026SOL    HW3 4135   1.152   3.040   1.875
 1026SOL    MW4 4136   1.133   3.121   1.851
 1027SOL     OW 4137   0.911   3.210   1.946
 1027SOL    HW2 4138   0.902   3.201   2.041
 1027SOL    HW3 4139   0.827   3.178   1.911
 1027SOL    MW4 4140   0.898   3.204   1.954
 1028SOL     OW 4141   0.894   3.479   1.874
 1028SOL    HW2 4142   0.912   3.385   1.875
 1028SOL    HW3 4143   0.870   3.498   1.784
 1028SOL    MW4 4144   0.893   3.469   1.863
 1029SOL     OW 4145   1.121   3.607   1.969
 1029SOL    HW2 4146   1.118   3.603   2.065
 1029SOL    HW3 4147   1.045   3.556   1.941
 1029SOL    MW4 4148   1.110   3.600   1.978
 1030SOL     OW 4149   1.113   3.880   1.894
 1030SOL    HW2 4150   1.109   3.788   1.921
 1030SOL    HW3 4151   1.092   3.878   1.800
 1030SOL    MW4 4152   1.110   3.867   1.885
 1031SOL     OW 4153   0.879   3.968   1.957
 1031SOL    HW2 4154   0.873   3.979   2.052
 1031SOL    HW3 4155   0.968   3.937   1.941
 1031SOL    MW4 4156   0.890   3.965   1.967
 1032SOL     OW 4157   0.920   4.246   1.883
 1032SOL    HW2 4158   0.983   4.296   1.934
 1032SOL    HW3 4159   0.926   4.156   1.916
 1032SOL    MW4 4160   0.929   4.241   1.894
 1033SOL     OW 4161   1.140   4.384   2.007
 1033SOL    HW2 4162   1.148   4.346   2.094
 1033SOL    HW3 4163   1.212   4.345   1.957
 1033SOL    MW4 4164   1.151   4.374   2.012
 1034SOL     OW 4165   1.578   4.658   1.874
 1034SOL    HW2 4166   1.653   4.703   1.913
 1034SOL    HW3 4167   1.591   4.566   1.896
 1034SOL    MW4 4168   1.590   4.652   1.882
 1035SOL     OW 4169   1.375   0.147   1.977
 1035SOL    HW2 4170   1.376   0.147   2.073
 1035SOL    HW3 4171   1.437   0.078   1.952
 1035SOL    MW4 4172   1.383   0.138   1.986
 1036SOL     OW 4173   1.331   0.401   1.852
 1036SOL    HW2 4174   1.341   0.310   1.879
 1036SOL    HW3 4175   1.320   0.396   1.756
 1036SOL    MW4 4176   1.331   0.388   1.843
 1037SOL     OW 4177   1.554   0.512   1.954
 1037SOL    HW2 4178   1.633   0.477   1.912
 1037SOL    HW3 4179   1.481   0.471   1.908
 1037SOL    MW4 4180   1.555   0.502   1.942
 1038SOL     OW 4181   1.592   0.769   1.865
 1038SOL    HW2 4182   1.674   0.800   1.903
 1038SOL    HW3 4183   1.578   0.683   1.904
 1038SOL    MW4 4184   1.601   0.762   1.875
 1039SOL     OW 4185   1.357   0.878   1.971
 1039SOL    HW2 4186   1.366   0.883   2.066
 1039SOL    HW3 4187   1.440   0.841   1.941
 1039SOL    MW4 4188   1.369   0.873   1.979
 1040SOL     OW 4189   1.342   1.158   1.904
 1040SOL    HW2 4190   1.332   1.064   1.911
 1040SOL    HW3 4191   1.262   1.194   1.943
 1040SOL    MW4 4192   1.330   1.151   1.910
 1041SOL     OW 4193   1.583   1.269   1.971
 1041SOL    HW2 4194   1.563   1.361   1.954
 1041SOL    HW3 4195   1.502   1.222   1.950
 1041SOL    MW4 4196   1.569   1.275   1.966
 1042SOL     OW 4197   1.589   1.544   1.898
 1042SOL    HW2 4198   1.664   1.590   1.936
 1042SOL    HW3 4199   1.513   1.585   1.938
 1042SOL    MW4 4200   1.589   1.555   1.908
 1043SOL     OW 4201   1.351   1.651   2.003
 1043SOL    HW2 4202   1.338   1.677   2.094
 1043SOL    HW3 4203   1.266   1.619   1.974
 1043SOL    MW4 4204   1.338   1.650   2.011
 1044SOL     OW 4205   1.335   1.919   1.879
 1044SOL    HW2 4206   1.340   1.825   1.898
 1044SOL    HW3 4207   1.251   1.947   1.914
 1044SOL    MW4 4208   1.325   1.910   1.886
 1045SOL     OW 4209   1.556   2.035   1.986
 1045SOL    HW2 4210   1.558   2.119   1.940
 1045SOL    HW3 4211   1.479   1.990   1.951
 1045SOL    MW4 4212   1.546   2.040   1.975
 1046SOL     OW 4213   1.581   2.295   1.854
 1046SOL    HW2 4214   1.648   2.353   1.890
 1046SOL    HW3 4215   1.583   2.312   1.760
 1046SOL    MW4 4216   1.590   2.305   1.846
 1047SOL     OW 4217   1.374   2.419   1.983
 1047SOL    HW2 4218   1.351   2.500   1.937
 1047SOL    HW3 4219   1.443   2.380   1.930
 1047SOL    MW4 4220   1.380   2.425   1.970
 1048SOL     OW 4221   1.309   2.678   1.881
 1048SOL    HW2 4222   1.255   2.747   1.918
 1048SOL    HW3 4223   1.315   2.699   1.788
 1048SOL    MW4 4224   1.303   2.690   1.873
 1049SOL     OW 4225   1.568   2.790   1.957
 1049SOL    HW2 4226   1.650   2.742   1.947
 1049SOL    HW3 4227   1.502   2.732   1.917
 1049SOL    MW4 4228   1.570   2.776   1.950
 1050SOL     OW 4229   1.583   3.062   1.870
 1050SOL    HW2 4230   1.573   2.968   1.887
 1050SOL    HW3 4231   1.579   3.070   1.775
 1050SOL    MW4 4232   1.581   3.051   1.860
 1051SOL     OW 4233   1.367   3.218   1.976
 1051SOL    HW2 4234   1.442   3.166   1.950
 1051SOL    HW3 4235   1.293   3.181   1.928
 1051SOL    MW4 4236   1.367   3.206   1.967
 1052SOL     OW 4237   1.349   3.479   1.873
 1052SOL    HW2 4238   1.324   3.395   1.912
 1052SOL    HW3 4239   1.288   3.542   1.910
 1052SOL    MW4 4240   1.338   3.476   1.883
 1053SOL     OW 4241   1.589   3.589   1.927
 1053SOL    HW2 4242   1.574   3.590   2.022
 1053SOL    HW3 4243   1.508   3.556   1.889
 1053SOL    MW4 4244   1.577   3.585   1.935
 1054SOL     OW 4245   1.566   3.848   1.862
 1054SOL    HW2 4246   1.641   3.899   1.893
 1054SOL    HW3 4247   1.585   3.758   1.889
 1054SOL    MW4 4248   1.579   3.843   1.870
 1055SOL     OW 4249   1.355   4.017   1.977
 1055SOL    HW2 4250   1.418   3.952   1.946
 1055SOL    HW3 4251   1.271   3.989   1.940
 1055SOL    MW4 4252   1.352   4.005   1.968
 1056SOL     OW 4253   1.346   4.269   1.840
 1056SOL    HW2 4254   1.344   4.182   1.881
 1056SOL    HW3 4255   1.340   4.252   1.746
 1056SOL    MW4 4256   1.345   4.255   1.833
 1057SOL     OW 4257   1.566   4.387   1.948
 1057SOL    HW2 4258   1.564   4.370   2.042
 1057SOL    HW3 4259   1.484   4.350   1.916
 1057SOL    MW4 4260   1.555   4.380   1.956
 1058SOL     OW 4261   2.046   4.633   1.879
 1058SOL    HW2 4262   2.122   4.677   1.917
 1058SOL    HW3 4263   2.060   4.540   1.900
 1058SOL    MW4 4264   2.058   4.626   1.887
 1059SOL     OW 4265   1.827   0.113   1.954
 1059SOL    HW2 4266   1.838   0.136   2.046
 1059SOL    HW3 4267   1.895   0.047   1.938
 1059SOL    MW4 4268   1.838   0.107   1.964
 1060SOL     OW 4269   1.790   0.377   1.851
 1060SOL    HW2 4270   1.809   0.294   1.894
 1060SOL    HW3 4271   1.779   0.355   1.759
 1060SOL    MW4 4272   1.791   0.363   1.845
 1061SOL     OW 4273   2.018   0.516   1.962
 1061SOL    HW2 4274   2.020   0.605   1.926
 1061SOL    HW3 4275   1.939   0.477   1.925
 1061SOL    MW4 4276   2.008   0.523   1.952
 1062SOL     OW 4277   2.038   0.759   1.839
 1062SOL    HW2 4278   2.123   0.792   1.870
 1062SOL    HW3 4279   2.048   0.755   1.744
 1062SOL    MW4 4280   2.051   0.763   1.831
 1063SOL     OW 4281   1.827   0.877   1.963
 1063SOL    HW2 4282   1.819   0.967   1.931
 1063SOL    HW3 4283   1.905   0.843   1.919
 1063SOL    MW4 4284   1.836   0.884   1.953
 1064SOL     OW 4285   1.797   1.139   1.868
 1064SOL    HW2 4286   1.726   1.186   1.912
 1064SOL    HW3 4287   1.783   1.156   1.775
 1064SOL    MW4 4288   1.786   1.148   1.862
 1065SOL     OW 4289   2.018   1.254   1.984
 1065SOL    HW2 4290   2.092   1.195   1.972
 1065SOL    HW3 4291   1.945   1.211   1.941
 1065SOL    MW4 4292   2.019   1.241   1.977
 1066SOL     OW 4293   2.027   1.522   1.890
 1066SOL    HW2 4294   2.028   1.427   1.894
 1066SOL    HW3 4295   2.014   1.543   1.798
 1066SOL    MW4 4296   2.026   1.512   1.878
 1067SOL     OW 4297   1.828   1.661   2.013
 1067SOL    HW2 4298   1.831   1.745   1.966
 1067SOL    HW3 4299   1.898   1.609   1.974
 1067SOL    MW4 4300   1.838   1.666   2.002
 1068SOL     OW 4301   1.799   1.914   1.873
 1068SOL    HW2 4302   1.726   1.965   1.908
 1068SOL    HW3 4303   1.803   1.937   1.780
 1068SOL    MW4 4304   1.790   1.924   1.865
 1069SOL     OW 4305   2.024   2.035   1.995
 1069SOL    HW2 4306   2.101   1.991   1.957
 1069SOL    HW3 4307   1.950   1.982   1.966
 1069SOL    MW4 4308   2.025   2.022   1.986
 1070SOL     OW 4309   2.009   2.303   1.888
 1070SOL    HW2 4310   2.084   2.340   1.935
 1070SOL    HW3 4311   2.003   2.213   1.920
 1070SOL    MW4 4312   2.018   2.296   1.898
 1071SOL     OW 4313   1.770   2.442   1.962
 1071SOL    HW2 4314   1.764   2.438   2.057
 1071SOL    HW3 4315   1.848   2.392   1.940
 1071SOL    MW4 4316   1.779   2.435   1.972
 1072SOL     OW 4317   1.855   2.689   1.890
 1072SOL    HW2 4318   1.824   2.607   1.928
 1072SOL    HW3 4319   1.834   2.681   1.797
 1072SOL    MW4 4320   1.848   2.677   1.883
 1073SOL     OW 4321   2.050   2.863   1.988
 1073SOL    HW2 4322   2.054   2.869   2.083
 1073SOL    HW3 4323   1.966   2.820   1.970
 1073SOL    MW4 4324   2.040   2.858   1.998
 1074SOL     OW 4325   2.056   3.097   1.845
 1074SOL    HW2 4326   1.969   3.134   1.861
 1074SOL    HW3 4327   2.060   3.020   1.901
 1074SOL    MW4 4328   2.045   3.092   1.855
 1075SOL     OW 4329   1.803   3.210   1.925
 1075SOL    HW2 4330   1.794   3.216   2.020
 1075SOL    HW3 4331   1.726   3.160   1.898
 1075SOL    MW4 4332   1.792   3.204   1.934
 1076SOL     OW 4333   1.832   3.470   1.862
 1076SOL    HW2 4334   1.830   3.378   1.886
 1076SOL    HW3 4335   1.746   3.503   1.886
 1076SOL    MW4 4336   1.821   3.462   1.868
 1077SOL     OW 4337   2.038   3.603   1.977
 1077SOL    HW2 4338   2.038   3.696   1.955
 1077SOL    HW3 4339   1.959   3.569   1.936
 1077SOL    MW4 4340   2.028   3.611   1.968
 1078SOL     OW 4341   2.010   3.877   1.899
 1078SOL    HW2 4342   2.090   3.918   1.932
 1078SOL    HW3 4343   2.012   3.894   1.805
 1078SOL    MW4 4344   2.021   3.884   1.891
 1079SOL     OW 4345   1.769   4.011   1.963
 1079SOL    HW2 4346   1.799   4.093   1.924
 1079SOL    HW3 4347   1.842   3.951   1.950
 1079SOL    MW4 4348   1.783   4.014   1.956
 1080SOL     OW 4349   1.796   4.267   1.845
 1080SOL    HW2 4350   1.715   4.311   1.869
 1080SOL    HW3 4351   1.802   4.276   1.750
 1080SOL    MW4 4352   1.786   4.274   1.835
 1081SOL     OW 4353   2.029   4.353   1.959
 1081SOL    HW2 4354   2.097   4.293   1.928
 1081SOL    HW3 4355   1.947   4.314   1.930
 1081SOL    MW4 4356   2.027   4.340   1.951
 1082SOL     OW 4357   2.476   4.662   1.866
 1082SOL    HW2 4358   2.558   4.698   1.900
 1082SOL    HW3 4359   2.464   4.579   1.913
 1082SOL    MW4 4360   2.485   4.656   1.877
 1083SOL     OW 4361   2.241   0.136   1.983
 1083SOL    HW2 4362   2.233   0.119   2.077
 1083SOL    HW3 4363   2.329   0.108   1.961
 1083SOL    MW4 4364   2.251   0.130   1.992
 1084SOL     OW 4365   2.241   0.392   1.861
 1084SOL    HW2 4366   2.239   0.313   1.914
 1084SOL    HW3 4367   2.172   0.448   1.897
 1084SOL    MW4 4368   2.232   0.389   1.873
 1085SOL     OW 4369   2.448   0.486   2.000
 1085SOL    HW2 4370   2.524   0.444   1.960
 1085SOL    HW3 4371   2.373   0.455   1.949
 1085SOL    MW4 4372   2.448   0.476   1.988
 1086SOL     OW 4373   2.461   0.720   1.855
 1086SOL    HW2 4374   2.469   0.632   1.893
 1086SOL    HW3 4375   2.479   0.708   1.762
 1086SOL    MW4 4376   2.464   0.707   1.848
 1087SOL     OW 4377   2.251   0.884   1.963
 1087SOL    HW2 4378   2.247   0.890   2.059
 1087SOL    HW3 4379   2.337   0.846   1.944
 1087SOL    MW4 4380   2.261   0.880   1.973
 1088SOL     OW 4381   2.250   1.140   1.868
 1088SOL    HW2 4382   2.327   1.178   1.912
 1088SOL    HW3 4383   2.250   1.049   1.894
 1088SOL    MW4 4384   2.260   1.133   1.877
 1089SOL     OW 4385   2.486   1.223   1.992
 1089SOL    HW2 4386   2.459   1.220   2.084
 1089SOL    HW3 4387   2.474   1.314   1.966
 1089SOL    MW4 4388   2.481   1.234   2.001
 1090SOL     OW 4389   2.463   1.472   1.884
 1090SOL    HW2 4390   2.393   1.529   1.914
 1090SOL    HW3 4391   2.470   1.489   1.790
 1090SOL    MW4 4392   2.455   1.481   1.875
 1091SOL     OW 4393   2.257   1.636   1.996
 1091SOL    HW2 4394   2.259   1.637   2.092
 1091SOL    HW3 4395   2.174   1.592   1.974
 1091SOL    MW4 4396   2.246   1.630   2.006
 1092SOL     OW 4397   2.257   1.891   1.914
 1092SOL    HW2 4398   2.322   1.944   1.961
 1092SOL    HW3 4399   2.266   1.804   1.952
 1092SOL    MW4 4400   2.267   1.887   1.925
 1093SOL     OW 4401   2.469   2.015   2.016
 1093SOL    HW2 4402   2.543   1.975   1.972
 1093SOL    HW3 4403   2.469   2.106   1.987
 1093SOL    MW4 4404   2.479   2.021   2.007
 1094SOL     OW 4405   2.468   2.303   1.878
 1094SOL    HW2 4406   2.547   2.352   1.901
 1094SOL    HW3 4407   2.398   2.346   1.927
 1094SOL    MW4 4408   2.469   2.315   1.888
 1095SOL     OW 4409   2.245   2.420   1.992
 1095SOL    HW2 4410   2.236   2.428   2.087
 1095SOL    HW3 4411   2.246   2.510   1.960
 1095SOL    MW4 4412   2.244   2.433   2.000
 1096SOL     OW 4413   2.261   2.698   1.912
 1096SOL    HW2 4414   2.196   2.756   1.952
 1096SOL    HW3 4415   2.249   2.710   1.818
 1096SOL    MW4 4416   2.251   2.707   1.905
 1097SOL     OW 4417   2.503   2.819   1.964
 1097SOL    HW2 4418   2.492   2.913   1.950
 1097SOL    HW3 4419   2.417   2.781   1.943
 1097SOL    MW4 4420   2.490   2.826   1.959
 1098SOL     OW 4421   2.482   3.094   1.886
 1098SOL    HW2 4422   2.420   3.160   1.916
 1098SOL    HW3 4423   2.487   3.107   1.791
 1098SOL    MW4 4424   2.474   3.104   1.877
 1099SOL     OW 4425   2.265   3.239   1.949
 1099SOL    HW2 4426   2.260   3.236   2.045
 1099SOL    HW3 4427   2.197   3.178   1.920
 1099SOL    MW4 4428   2.255   3.230   1.958
 1100SOL     OW 4429   2.226   3.478   1.821
 1100SOL    HW2 4430   2.224   3.394   1.868
 1100SOL    HW3 4431   2.159   3.531   1.864
 1100SOL    MW4 4432   2.217   3.474   1.833
 1101SOL     OW 4433   2.448   3.573   1.951
 1101SOL    HW2 4434   2.438   3.579   2.046
 1101SOL    HW3 4435   2.365   3.537   1.920
 1101SOL    MW4 4436   2.436   3.569   1.959
 1102SOL     OW 4437   2.466   3.831   1.876
 1102SOL    HW2 4438   2.404   3.883   1.926
 1102SOL    HW3 4439   2.450   3.741   1.903
 1102SOL    MW4 4440   2.456   3.826   1.886
 1103SOL     OW 4441   2.249   3.967   2.002
 1103SOL    HW2 4442   2.263   3.984   2.095
 1103SOL    HW3 4443   2.249   4.053   1.962
 1103SOL    MW4 4444   2.251   3.980   2.009
 1104SOL     OW 4445   2.261   4.216   1.897
 1104SOL    HW2 4446   2.317   4.285   1.933
 1104SOL    HW3 4447   2.267   4.228   1.802
 1104SOL    MW4 4448   2.269   4.227   1.889
 1105SOL     OW 4449   2.466   4.390   1.975
 1105SOL    HW2 4450   2.467   4.407   2.070
 1105SOL    HW3 4451   2.550   4.346   1.958
 1105SOL    MW4 4452   2.477   4.386   1.986
 1106SOL     OW 4453   2.941   4.622   1.879
 1106SOL    HW2 4454   3.009   4.677   1.917
 1106SOL    HW3 4455   2.950   4.537   1.924
 1106SOL    MW4 4456   2.951   4.618   1.890
 1107SOL     OW 4457   2.726   0.101   1.954
 1107SOL    HW2 4458   2.725   0.106   2.050
 1107SOL    HW3 4459   2.807   0.054   1.933
 1107SOL    MW4 4460   2.737   0.096   1.964
 1108SOL     OW 4461   2.690   0.381   1.915
 1108SOL    HW2 4462   2.770   0.415   1.953
 1108SOL    HW3 4463   2.694   0.286   1.930
 1108SOL    MW4 4464   2.701   0.373   1.922
 1109SOL     OW 4465   2.918   0.491   2.017
 1109SOL    HW2 4466   2.986   0.435   1.980
 1109SOL    HW3 4467   2.924   0.572   1.966
 1109SOL    MW4 4468   2.928   0.495   2.005
 1110SOL     OW 4469   2.904   0.727   1.852
 1110SOL    HW2 4470   2.978   0.777   1.888
 1110SOL    HW3 4471   2.827   0.762   1.897
 1110SOL    MW4 4472   2.904   0.738   1.863
 1111SOL     OW 4473   2.681   0.856   1.947
 1111SOL    HW2 4474   2.686   0.944   1.911
 1111SOL    HW3 4475   2.610   0.813   1.898
 1111SOL    MW4 4476   2.673   0.862   1.936
 1112SOL     OW 4477   2.709   1.112   1.866
 1112SOL    HW2 4478   2.623   1.144   1.892
 1112SOL    HW3 4479   2.715   1.132   1.772
 1112SOL    MW4 4480   2.699   1.119   1.857
 1113SOL     OW 4481   2.921   1.244   1.998
 1113SOL    HW2 4482   2.913   1.335   1.967
 1113SOL    HW3 4483   2.842   1.201   1.967
 1113SOL    MW4 4484   2.910   1.251   1.989
 1114SOL     OW 4485   2.924   1.499   1.864
 1114SOL    HW2 4486   2.997   1.543   1.907
 1114SOL    HW3 4487   2.929   1.526   1.773
 1114SOL    MW4 4488   2.934   1.508   1.858
 1115SOL     OW 4489   2.696   1.603   1.993
 1115SOL    HW2 4490   2.761   1.555   1.943
 1115SOL    HW3 4491   2.612   1.574   1.959
 1115SOL    MW4 4492   2.694   1.593   1.982
 1116SOL     OW 4493   2.684   1.869   1.879
 1116SOL    HW2 4494   2.754   1.928   1.908
 1116SOL    HW3 4495   2.700   1.787   1.926
 1116SOL    MW4 4496   2.696   1.866   1.889
 1117SOL     OW 4497   2.882   2.044   1.966
 1117SOL    HW2 4498   2.878   2.049   2.062
 1117SOL    HW3 4499   2.974   2.027   1.947
 1117SOL    MW4 4500   2.894   2.043   1.976
 1118SOL     OW 4501   2.911   2.314   1.867
 1118SOL    HW2 4502   2.986   2.352   1.912
 1118SOL    HW3 4503   2.907   2.223   1.898
 1118SOL    MW4 4504   2.920   2.307   1.877
 1119SOL     OW 4505   2.695   2.459   1.957
 1119SOL    HW2 4506   2.703   2.547   1.920
 1119SOL    HW3 4507   2.777   2.416   1.934
 1119SOL    MW4 4508   2.707   2.465   1.949
 1120SOL     OW 4509   2.715   2.698   1.826
 1120SOL    HW2 4510   2.644   2.747   1.867
 1120SOL    HW3 4511   2.697   2.704   1.732
 1120SOL    MW4 4512   2.704   2.705   1.819
 1121SOL     OW 4513   2.931   2.808   1.922
 1121SOL    HW2 4514   2.928   2.897   1.887
 1121SOL    HW3 4515   2.848   2.769   1.896
 1121SOL    MW4 4516   2.920   2.815   1.914
 1122SOL     OW 4517   2.919   3.077   1.851
 1122SOL    HW2 4518   2.995   3.112   1.898
 1122SOL    HW3 4519   2.847   3.136   1.873
 1122SOL    MW4 4520   2.920   3.090   1.860
 1123SOL     OW 4521   2.718   3.253   1.953
 1123SOL    HW2 4522   2.712   3.337   1.907
 1123SOL    HW3 4523   2.635   3.210   1.935
 1123SOL    MW4 4524   2.706   3.259   1.944
 1124SOL     OW 4525   2.699   3.516   1.833
 1124SOL    HW2 4526   2.755   3.536   1.907
 1124SOL    HW3 4527   2.610   3.536   1.863
 1124SOL    MW4 4528   2.694   3.521   1.847
 1125SOL     OW 4529   2.907   3.605   1.983
 1125SOL    HW2 4530   2.912   3.610   2.078
 1125SOL    HW3 4531   2.977   3.544   1.958
 1125SOL    MW4 4532   2.917   3.597   1.992
 1126SOL     OW 4533   2.927   3.878   1.890
 1126SOL    HW2 4534   2.915   3.789   1.924
 1126SOL    HW3 4535   2.912   3.871   1.796
 1126SOL    MW4 4536   2.924   3.865   1.882
 1127SOL     OW 4537   2.682   3.972   1.996
 1127SOL    HW2 4538   2.757   3.926   1.959
 1127SOL    HW3 4539   2.606   3.923   1.966
 1127SOL    MW4 4540   2.682   3.959   1.987
 1128SOL     OW 4541   2.686   4.232   1.917
 1128SOL    HW2 4542   2.689   4.139   1.939
 1128SOL    HW3 4543   2.704   4.235   1.823
 1128SOL    MW4 4544   2.689   4.220   1.907
 1129SOL     OW 4545   2.902   4.385   2.028
 1129SOL    HW2 4546   2.902   4.397   2.123
 1129SOL    HW3 4547   2.822   4.336   2.010
 1129SOL    MW4 4548   2.892   4.380   2.038
 1130SOL     OW 4549   3.368   4.661   1.881
 1130SOL    HW2 4550   3.357   4.574   1.919
 1130SOL    HW3 4551   3.356   4.648   1.787
 1130SOL    MW4 4552   3.365   4.648   1.874
 1131SOL     OW 4553   3.134   0.128   1.978
 1131SOL    HW2 4554   3.146   0.118   2.072
 1131SOL    HW3 4555   3.210   0.083   1.940
 1131SOL    MW4 4556   3.146   0.121   1.985
 1132SOL     OW 4557   3.137   0.388   1.874
 1132SOL    HW2 4558   3.143   0.300   1.910
 1132SOL    HW3 4559   3.121   0.375   1.781
 1132SOL    MW4 4560   3.136   0.375   1.867
 1133SOL     OW 4561   3.373   0.495   1.983
 1133SOL    HW2 4562   3.443   0.462   1.926
 1133SOL    HW3 4563   3.292   0.466   1.942
 1133SOL    MW4 4564   3.372   0.487   1.970
 1134SOL     OW 4565   3.386   0.745   1.866
 1134SOL    HW2 4566   3.304   0.790   1.881
 1134SOL    HW3 4567   3.380   0.665   1.918
 1134SOL    MW4 4568   3.374   0.740   1.875
 1135SOL     OW 4569   3.135   0.841   1.974
 1135SOL    HW2 4570   3.156   0.854   2.067
 1135SOL    HW3 4571   3.126   0.929   1.939
 1135SOL    MW4 4572   3.136   0.854   1.982
 1136SOL     OW 4573   3.129   1.101   1.876
 1136SOL    HW2 4574   3.205   1.151   1.907
 1136SOL    HW3 4575   3.055   1.137   1.925
 1136SOL    MW4 4576   3.129   1.113   1.886
 1137SOL     OW 4577   3.349   1.236   1.956
 1137SOL    HW2 4578   3.350   1.242   2.051
 1137SOL    HW3 4579   3.353   1.327   1.926
 1137SOL    MW4 4580   3.350   1.249   1.964
 1138SOL     OW 4581   3.336   1.501   1.872
 1138SOL    HW2 4582   3.408   1.547   1.914
 1138SOL    HW3 4583   3.257   1.542   1.907
 1138SOL    MW4 4584   3.335   1.513   1.882
 1139SOL     OW 4585   3.129   1.655   1.979
 1139SOL    HW2 4586   3.112   1.653   2.074
 1139SOL    HW3 4587   3.138   1.748   1.959
 1139SOL    MW4 4588   3.128   1.667   1.989
 1140SOL     OW 4589   3.121   1.949   1.867
 1140SOL    HW2 4590   3.200   1.982   1.909
 1140SOL    HW3 4591   3.138   1.956   1.773
 1140SOL    MW4 4592   3.133   1.954   1.860
 1141SOL     OW 4593   3.357   2.054   1.957
 1141SOL    HW2 4594   3.437   2.008   1.932
 1141SOL    HW3 4595   3.360   2.135   1.906
 1141SOL    MW4 4596   3.368   2.059   1.947
 1142SOL     OW 4597   3.382   2.279   1.808
 1142SOL    HW2 4598   3.308   2.326   1.847
 1142SOL    HW3 4599   3.370   2.291   1.713
 1142SOL    MW4 4600   3.371   2.287   1.800
 1143SOL     OW 4601   3.147   2.413   1.941
 1143SOL    HW2 4602   3.145   2.426   2.036
 1143SOL    HW3 4603   3.149   2.502   1.905
 1143SOL    MW4 4604   3.147   2.426   1.949
 1144SOL     OW 4605   3.130   2.651   1.819
 1144SOL    HW2 4606   3.042   2.674   1.851
 1144SOL    HW3 4607   3.126   2.668   1.725
 1144SOL    MW4 4608   3.117   2.657   1.811
 1145SOL     OW 4609   3.320   2.814   1.923
 1145SOL    HW2 4610   3.309   2.798   2.016
 1145SOL    HW3 4611   3.251   2.761   1.882
 1145SOL    MW4 4612   3.309   2.805   1.930
 1146SOL     OW 4613   3.369   3.101   1.838
 1146SOL    HW2 4614   3.439   3.155   1.875
 1146SOL    HW3 4615   3.389   3.012   1.868
 1146SOL    MW4 4616   3.381   3.096   1.847
 1147SOL     OW 4617   3.136   3.192   1.982
 1147SOL    HW2 4618   3.141   3.282   1.950
 1147SOL    HW3 4619   3.213   3.149   1.947
 1147SOL    MW4 4620   3.147   3.198   1.973
 1148SOL     OW 4621   3.122   3.445   1.890
 1148SOL    HW2 4622   3.188   3.500   1.932
 1148SOL    HW3 4623   3.123   3.472   1.798
 1148SOL    MW4 4624   3.131   3.456   1.883
 1149SOL     OW 4625   3.297   3.594   2.005
 1149SOL    HW2 4626   3.376   3.543   1.987
 1149SOL    HW3 4627   3.313   3.679   1.964
 1149SOL    MW4 4628   3.310   3.599   1.997
 1150SOL     OW 4629   3.356   3.831   1.873
 1150SOL    HW2 4630   3.293   3.894   1.908
 1150SOL    HW3 4631   3.348   3.839   1.778
 1150SOL    MW4 4632   3.347   3.840   1.865
 1151SOL     OW 4633   3.153   3.962   2.004
 1151SOL    HW2 4634   3.139   3.975   2.098
 1151SOL    HW3 4635   3.069   3.931   1.971
 1151SOL    MW4 4636   3.140   3.960   2.012
 1152SOL     OW 4637   3.136   4.225   1.923
 1152SOL    HW2 4638   3.126   4.134   1.952
 1152SOL    HW3 4639   3.060   4.271   1.957
 1152SOL    MW4 4640   3.125   4.219   1.931
 1153SOL     OW 4641   3.353   4.396   1.974
 1153SOL    HW2 4642   3.428   4.340   1.954
 1153SOL    HW3 4643   3.277   4.340   1.958
 1153SOL    MW4 4644   3.353   4.381   1.970
 1154SOL     OW 4645   3.838   4.654   1.873
 1154SOL    HW2 4646   3.825   4.563   1.900
 1154SOL    HW3 4647   3.761   4.700   1.904
 1154SOL    MW4 4648   3.826   4.648   1.881
 1155SOL     OW 4649   3.604   0.130   1.955
 1155SOL    HW2 4650   3.600   0.147   2.049
 1155SOL    HW3 4651   3.525   0.081   1.935
 1155SOL    MW4 4652   3.593   0.126   1.965
 1156SOL     OW 4653   3.607   0.391   1.846
 1156SOL    HW2 4654   3.618   0.307   1.889
 1156SOL    HW3 4655   3.617   0.373   1.753
 1156SOL    MW4 4656   3.610   0.378   1.840
 1157SOL     OW 4657   3.807   0.504   2.009
 1157SOL    HW2 4658   3.822   0.582   1.957
 1157SOL    HW3 4659   3.728   0.465   1.972
 1157SOL    MW4 4660   3.798   0.509   1.997
 1158SOL     OW 4661   3.851   0.730   1.849
 1158SOL    HW2 4662   3.780   0.782   1.886
 1158SOL    HW3 4663   3.841   0.740   1.754
 1158SOL    MW4 4664   3.840   0.738   1.841
 1159SOL     OW 4665   3.618   0.845   1.962
 1159SOL    HW2 4666   3.606   0.935   1.930
 1159SOL    HW3 4667   3.536   0.801   1.942
 1159SOL    MW4 4668   3.606   0.851   1.955
 1160SOL     OW 4669   3.590   1.104   1.868
 1160SOL    HW2 4670   3.510   1.138   1.906
 1160SOL    HW3 4671   3.574   1.103   1.773
 1160SOL    MW4 4672   3.578   1.108   1.860
 1161SOL     OW 4673   3.823   1.257   1.940
 1161SOL    HW2 4674   3.821   1.279   2.034
 1161SOL    HW3 4675   3.759   1.187   1.931
 1161SOL    MW4 4676   3.814   1.251   1.951
 1162SOL     OW 4677   3.778   1.515   1.842
 1162SOL    HW2 4678   3.853   1.569   1.866
 1162SOL    HW3 4679   3.792   1.432   1.887
 1162SOL    MW4 4680   3.790   1.511   1.851
 1163SOL     OW 4681   3.570   1.652   1.961
 1163SOL    HW2 4682   3.580   1.744   1.934
 1163SOL    HW3 4683   3.644   1.607   1.920
 1163SOL    MW4 4684   3.581   1.658   1.952
 1164SOL     OW 4685   3.588   1.917   1.886
 1164SOL    HW2 4686   3.671   1.961   1.904
 1164SOL    HW3 4687   3.588   1.905   1.791
 1164SOL    MW4 4688   3.599   1.921   1.875
 1165SOL     OW 4689   3.832   2.052   1.908
 1165SOL    HW2 4690   3.907   2.009   1.866
 1165SOL    HW3 4691   3.832   2.141   1.873
 1165SOL    MW4 4692   3.842   2.058   1.898
 1166SOL     OW 4693   3.839   2.313   1.836
 1166SOL    HW2 4694   3.908   2.368   1.874
 1166SOL    HW3 4695   3.758   2.349   1.871
 1166SOL    MW4 4696   3.838   2.325   1.846
 1167SOL     OW 4697   3.607   2.409   1.941
 1167SOL    HW2 4698   3.606   2.503   1.921
 1167SOL    HW3 4699   3.530   2.374   1.896
 1167SOL    MW4 4700   3.597   2.417   1.932
 1168SOL     OW 4701   3.542   2.652   1.857
 1168SOL    HW2 4702   3.612   2.704   1.896
 1168SOL    HW3 4703   3.461   2.696   1.886
 1168SOL    MW4 4704   3.540   2.665   1.866
 1169SOL     OW 4705   3.739   2.814   1.969
 1169SOL    HW2 4706   3.749   2.805   2.064
 1169SOL    HW3 4707   3.751   2.907   1.952
 1169SOL    MW4 4708   3.742   2.825   1.980
 1170SOL     OW 4709   3.812   3.049   1.869
 1170SOL    HW2 4710   3.740   3.112   1.866
 1170SOL    HW3 4711   3.846   3.047   1.780
 1170SOL    MW4 4712   3.807   3.057   1.857
 1171SOL     OW 4713   3.608   3.224   1.920
 1171SOL    HW2 4714   3.584   3.211   2.012
 1171SOL    HW3 4715   3.597   3.318   1.905
 1171SOL    MW4 4716   3.603   3.235   1.930
 1172SOL     OW 4717   3.554   3.492   1.886
 1172SOL    HW2 4718   3.615   3.562   1.907
 1172SOL    HW3 4719   3.564   3.479   1.792
 1172SOL    MW4 4720   3.563   3.499   1.876
 1173SOL     OW 4721   3.767   3.650   1.942
 1173SOL    HW2 4722   3.846   3.603   1.914
 1173SOL    HW3 4723   3.765   3.728   1.887
 1173SOL    MW4 4724   3.778   3.654   1.931
 1174SOL     OW 4725   3.798   3.921   1.852
 1174SOL    HW2 4726   3.722   3.956   1.899
 1174SOL    HW3 4727   3.766   3.904   1.764
 1174SOL    MW4 4728   3.784   3.924   1.847
 1175SOL     OW 4729   3.559   3.992   1.983
 1175SOL    HW2 4730   3.566   3.975   2.077
 1175SOL    HW3 4731   3.496   3.926   1.952
 1175SOL    MW4 4732   3.552   3.981   1.991
 1176SOL     OW 4733   3.572   4.248   1.878
 1176SOL    HW2 4734   3.648   4.288   1.920
 1176SOL    HW3 4735   3.569   4.159   1.913
 1176SOL    MW4 4736   3.581   4.241   1.888
 1177SOL     OW 4737   3.804   4.385   1.967
 1177SOL    HW2 4738   3.792   4.390   2.062
 1177SOL    HW3 4739   3.885   4.337   1.955
 1177SOL    MW4 4740   3.813   4.380   1.978
 1178SOL     OW 4741   4.268   4.620   1.874
 1178SOL    HW2 4742   4.191   4.677   1.878
 1178SOL    HW3 4743   4.340   4.675   1.905
 1178SOL    MW4 4744   4.267   4.635   1.879
 1179SOL     OW 4745   4.058   0.127   1.931
 1179SOL    HW2 4746   4.060   0.125   2.027
 1179SOL    HW3 4747   3.975   0.086   1.908
 1179SOL    MW4 4748   4.048   0.121   1.940
 1180SOL     OW 4749   4.035   0.402   1.879
 1180SOL    HW2 4750   4.049   0.309   1.897
 1180SOL    HW3 4751   3.954   0.424   1.925
 1180SOL    MW4 4752   4.027   0.393   1.888
 1181SOL     OW 4753   4.290   0.476   1.955
 1181SOL    HW2 4754   4.291   0.487   2.050
 1181SOL    HW3 4755   4.200   0.450   1.935
 1181SOL    MW4 4756   4.278   0.474   1.965
 1182SOL     OW 4757   4.277   0.727   1.842
 1182SOL    HW2 4758   4.285   0.637   1.874
 1182SOL    HW3 4759   4.287   0.719   1.747
 1182SOL    MW4 4760   4.279   0.714   1.834
 1183SOL     OW 4761   4.060   0.874   1.958
 1183SOL    HW2 4762   4.136   0.828   1.923
 1183SOL    HW3 4763   3.985   0.823   1.929
 1183SOL    MW4 4764   4.060   0.861   1.950
 1184SOL     OW 4765   4.052   1.136   1.865
 1184SOL    HW2 4766   4.050   1.053   1.912
 1184SOL    HW3 4767   3.970   1.180   1.889
 1184SOL    MW4 4768   4.041   1.131   1.874
 1185SOL     OW 4769   4.271   1.286   1.971
 1185SOL    HW2 4770   4.271   1.275   2.066
 1185SOL    HW3 4771   4.203   1.226   1.940
 1185SOL    MW4 4772   4.262   1.276   1.979
 1186SOL     OW 4773   4.255   1.532   1.868
 1186SOL    HW2 4774   4.280   1.445   1.898
 1186SOL    HW3 4775   4.251   1.525   1.773
 1186SOL    MW4 4776   4.258   1.520   1.859
 1187SOL     OW 4777   4.002   1.675   1.922
 1187SOL    HW2 4778   4.012   1.663   2.016
 1187SOL    HW3 4779   4.076   1.628   1.884
 1187SOL    MW4 4780   4.013   1.667   1.929
 1188SOL     OW 4781   4.055   1.928   1.820
 1188SOL    HW2 4782   4.030   1.842   1.854
 1188SOL    HW3 4783   4.048   1.919   1.725
 1188SOL    MW4 4784   4.051   1.915   1.812
 1189SOL     OW 4785   4.257   2.087   1.929
 1189SOL    HW2 4786   4.280   2.073   2.020
 1189SOL    HW3 4787   4.179   2.033   1.914
 1189SOL    MW4 4788   4.250   2.078   1.939
 1190SOL     OW 4789   4.244   2.342   1.851
 1190SOL    HW2 4790   4.253   2.253   1.884
 1190SOL    HW3 4791   4.322   2.387   1.881
 1190SOL    MW4 4792   4.255   2.336   1.859
 1191SOL     OW 4793   4.044   2.481   1.946
 1191SOL    HW2 4794   4.053   2.451   2.036
 1191SOL    HW3 4795   4.117   2.440   1.899
 1191SOL    MW4 4796   4.055   2.472   1.952
 1192SOL     OW 4797   3.996   2.737   1.870
 1192SOL    HW2 4798   4.007   2.653   1.914
 1192SOL    HW3 4799   3.910   2.768   1.899
 1192SOL    MW4 4800   3.986   2.730   1.880
 1193SOL     OW 4801   4.235   2.818   1.937
 1193SOL    HW2 4802   4.241   2.813   2.032
 1193SOL    HW3 4803   4.149   2.780   1.917
 1193SOL    MW4 4804   4.224   2.812   1.947
 1194SOL     OW 4805   4.240   3.066   1.828
 1194SOL    HW2 4806   4.181   3.126   1.873
 1194SOL    HW3 4807   4.244   2.989   1.885
 1194SOL    MW4 4808   4.232   3.063   1.841
 1195SOL     OW 4809   4.035   3.221   1.949
 1195SOL    HW2 4810   4.020   3.223   2.044
 1195SOL    HW3 4811   3.963   3.169   1.915
 1195SOL    MW4 4812   4.024   3.215   1.957
 1196SOL     OW 4813   4.010   3.485   1.886
 1196SOL    HW2 4814   4.083   3.521   1.936
 1196SOL    HW3 4815   4.014   3.391   1.901
 1196SOL    MW4 4816   4.020   3.478   1.894
 1197SOL     OW 4817   4.233   3.613   1.984
 1197SOL    HW2 4818   4.239   3.686   1.922
 1197SOL    HW3 4819   4.313   3.563   1.970
 1197SOL    MW4 4820   4.245   3.616   1.974
 1198SOL     OW 4821   4.237   3.840   1.836
 1198SOL    HW2 4822   4.319   3.880   1.864
 1198SOL    HW3 4823   4.247   3.828   1.741
 1198SOL    MW4 4824   4.249   3.843   1.827
 1199SOL     OW 4825   4.052   4.000   1.947
 1199SOL    HW2 4826   4.118   3.949   1.900
 1199SOL    HW3 4827   3.969   3.960   1.922
 1199SOL    MW4 4828   4.050   3.988   1.938
 1200SOL     OW 4829   4.032   4.256   1.884
 1200SOL    HW2 4830   4.102   4.305   1.926
 1200SOL    HW3 4831   4.049   4.165   1.906
 1200SOL    MW4 4832   4.043   4.251   1.892
 1201SOL     OW 4833   4.286   4.359   1.964
 1201SOL    HW2 4834   4.302   4.353   2.059
 1201SOL    HW3 4835   4.280   4.453   1.947
 1201SOL    MW4 4836   4.287   4.370   1.974
 1202SOL     OW 4837   0.227   4.648   2.351
 1202SOL    HW2 4838   0.225   4.648   2.446
 1202SOL    HW3 4839   0.315   4.679   2.328
 1202SOL    MW4 4840   0.238   4.652   2.360
 1203SOL     OW 4841   0.000   0.124   2.229
 1203SOL    HW2 4842   0.070   0.075   2.274
 1203SOL    HW3 4843   0.002   0.091   2.139
 1203SOL    MW4 4844   0.010   0.113   2.223
 1204SOL     OW 4845   4.457   0.374   2.361
 1204SOL    HW2 4846   4.533   0.420   2.326
 1204SOL    HW3 4847   4.454   0.292   2.312
 1204SOL    MW4 4848   4.467   0.369   2.350
 1205SOL     OW 4849   0.192   0.501   2.256
 1205SOL    HW2 4850   0.268   0.457   2.295
 1205SOL    HW3 4851   0.205   0.491   2.162
 1205SOL    MW4 4852   0.204   0.494   2.249
 1206SOL     OW 4853   0.208   0.765   2.334
 1206SOL    HW2 4854   0.224   0.757   2.428
 1206SOL    HW3 4855   0.195   0.675   2.304
 1206SOL    MW4 4856   0.209   0.752   2.342
 1207SOL     OW 4857   4.467   0.919   2.262
 1207SOL    HW2 4858   4.555   0.880   2.270
 1207SOL    HW3 4859   4.451   0.922   2.168
 1207SOL    MW4 4860   4.477   0.914   2.251
 1208SOL     OW 4861   4.475   1.180   2.351
 1208SOL    HW2 4862   4.492   1.174   2.445
 1208SOL    HW3 4863   4.473   1.089   2.321
 1208SOL    MW4 4864   4.477   1.167   2.359
 1209SOL     OW 4865   0.224   1.297   2.218
 1209SOL    HW2 4866   0.134   1.274   2.242
 1209SOL    HW3 4867   0.228   1.280   2.124
 1209SOL    MW4 4868   0.212   1.291   2.208
 1210SOL     OW 4869   0.204   1.554   2.330
 1210SOL    HW2 4870   0.216   1.543   2.424
 1210SOL    HW3 4871   0.219   1.467   2.293
 1210SOL    MW4 4872   0.207   1.541   2.338
 1211SOL     OW 4873   4.457   1.683   2.230
 1211SOL    HW2 4874   4.486   1.771   2.255
 1211SOL    HW3 4875   4.528   1.625   2.257
 1211SOL    MW4 4876   4.470   1.687   2.237
 1212SOL     OW 4877   0.009   1.932   2.338
 1212SOL    HW2 4878  -0.073   1.952   2.293
 1212SOL    HW3 4879   0.073   1.992   2.299
 1212SOL    MW4 4880   0.007   1.942   2.327
 1213SOL     OW 4881   0.178   2.109   2.207
 1213SOL    HW2 4882   0.261   2.073   2.238
 1213SOL    HW3 4883   0.182   2.101   2.112
 1213SOL    MW4 4884   0.190   2.103   2.199
 1214SOL     OW 4885   0.222   2.350   2.342
 1214SOL    HW2 4886   0.225   2.321   2.433
 1214SOL    HW3 4887   0.219   2.269   2.291
 1214SOL    MW4 4888   0.222   2.336   2.347
 1215SOL     OW 4889   4.484   2.467   2.213
 1215SOL    HW2 4890   4.467   2.553   2.252
 1215SOL    HW3 4891   4.560   2.433   2.261
 1215SOL    MW4 4892   4.492   2.474   2.224
 1216SOL     OW 4893   4.460   2.714   2.311
 1216SOL    HW2 4894   4.457   2.714   2.407
 1216SOL    HW3 4895   4.541   2.761   2.290
 1216SOL    MW4 4896   4.470   2.720   2.321
 1217SOL     OW 4897   0.216   2.812   2.244
 1217SOL    HW2 4898   0.296   2.770   2.273
 1217SOL    HW3 4899   0.217   2.802   2.149
 1217SOL    MW4 4900   0.226   2.805   2.235
 1218SOL     OW 4901   0.195   3.058   2.349
 1218SOL    HW2 4902   0.117   3.097   2.310
 1218SOL    HW3 4903   0.204   2.973   2.306
 1218SOL    MW4 4904   0.186   3.052   2.339
 1219SOL     OW 4905   4.476   3.208   2.228
 1219SOL    HW2 4906   4.471   3.292   2.274
 1219SOL    HW3 4907   4.446   3.227   2.140
 1219SOL    MW4 4908   4.471   3.221   2.223
 1220SOL     OW 4909   4.459   3.457   2.332
 1220SOL    HW2 4910   4.456   3.469   2.426
 1220SOL    HW3 4911   4.389   3.512   2.297
 1220SOL    MW4 4912   4.450   3.466   2.340
 1221SOL     OW 4913   0.186   3.590   2.222
 1221SOL    HW2 4914   0.252   3.533   2.261
 1221SOL    HW3 4915   0.102   3.551   2.246
 1221SOL    MW4 4916   0.183   3.578   2.230
 1222SOL     OW 4917   0.251   3.849   2.297
 1222SOL    HW2 4918   0.169   3.896   2.280
 1222SOL    HW3 4919   0.235   3.760   2.265
 1222SOL    MW4 4920   0.238   3.843   2.291
 1223SOL     OW 4921   0.027   3.970   2.231
 1223SOL    HW2 4922   0.029   4.060   2.264
 1223SOL    HW3 4923  -0.014   3.977   2.145
 1223SOL    MW4 4924   0.022   3.983   2.224
 1224SOL     OW 4925   0.029   4.221   2.348
 1224SOL    HW2 4926   0.027   4.225   2.443
 1224SOL    HW3 4927   0.098   4.283   2.323
 1224SOL    MW4 4928   0.038   4.230   2.357
 1225SOL     OW 4929   0.215   4.390   2.234
 1225SOL    HW2 4930   0.300   4.354   2.259
 1225SOL    HW3 4931   0.210   4.474   2.279
 1225SOL    MW4 4932   0.225   4.396   2.243
 1226SOL     OW 4933   0.729   4.646   2.316
 1226SOL    HW2 4934   0.722   4.644   2.412
 1226SOL    HW3 4935   0.809   4.696   2.299
 1226SOL    MW4 4936   0.738   4.653   2.327
 1227SOL     OW 4937   0.473   0.101   2.265
 1227SOL    HW2 4938   0.545   0.046   2.295
 1227SOL    HW3 4939   0.475   0.093   2.170
 1227SOL    MW4 4940   0.483   0.093   2.256
 1228SOL     OW 4941   0.424   0.359   2.350
 1228SOL    HW2 4942   0.421   0.366   2.445
 1228SOL    HW3 4943   0.441   0.267   2.333
 1228SOL    MW4 4944   0.426   0.348   2.360
 1229SOL     OW 4945   0.649   0.495   2.229
 1229SOL    HW2 4946   0.660   0.575   2.281
 1229SOL    HW3 4947   0.570   0.454   2.264
 1229SOL    MW4 4948   0.640   0.500   2.240
 1230SOL     OW 4949   0.667   0.743   2.351
 1230SOL    HW2 4950   0.676   0.759   2.445
 1230SOL    HW3 4951   0.597   0.802   2.324
 1230SOL    MW4 4952   0.659   0.753   2.360
 1231SOL     OW 4953   0.443   0.894   2.267
 1231SOL    HW2 4954   0.359   0.853   2.290
 1231SOL    HW3 4955   0.445   0.893   2.172
 1231SOL    MW4 4956   0.432   0.888   2.258
 1232SOL     OW 4957   0.427   1.137   2.383
 1232SOL    HW2 4958   0.421   1.047   2.351
 1232SOL    HW3 4959   0.350   1.181   2.346
 1232SOL    MW4 4960   0.416   1.131   2.374
 1233SOL     OW 4961   0.626   1.278   2.269
 1233SOL    HW2 4962   0.633   1.367   2.303
 1233SOL    HW3 4963   0.552   1.239   2.317
 1233SOL    MW4 4964   0.617   1.284   2.280
 1234SOL     OW 4965   0.641   1.538   2.361
 1234SOL    HW2 4966   0.641   1.539   2.457
 1234SOL    HW3 4967   0.730   1.564   2.337
 1234SOL    MW4 4968   0.653   1.542   2.371
 1235SOL     OW 4969   0.441   1.699   2.285
 1235SOL    HW2 4970   0.513   1.639   2.304
 1235SOL    HW3 4971   0.362   1.647   2.301
 1235SOL    MW4 4972   0.440   1.684   2.289
 1236SOL     OW 4973   0.408   1.982   2.310
 1236SOL    HW2 4974   0.493   2.018   2.284
 1236SOL    HW3 4975   0.420   1.887   2.304
 1236SOL    MW4 4976   0.421   1.974   2.306
 1237SOL     OW 4977   0.682   2.083   2.235
 1237SOL    HW2 4978   0.738   2.024   2.285
 1237SOL    HW3 4979   0.692   2.168   2.278
 1237SOL    MW4 4980   0.691   2.087   2.247
 1238SOL     OW 4981   0.681   2.337   2.316
 1238SOL    HW2 4982   0.685   2.347   2.411
 1238SOL    HW3 4983   0.744   2.401   2.282
 1238SOL    MW4 4984   0.690   2.347   2.324
 1239SOL     OW 4985   0.446   2.449   2.226
 1239SOL    HW2 4986   0.524   2.407   2.260
 1239SOL    HW3 4987   0.374   2.413   2.277
 1239SOL    MW4 4988   0.447   2.439   2.237
 1240SOL     OW 4989   0.446   2.696   2.331
 1240SOL    HW2 4990   0.426   2.695   2.425
 1240SOL    HW3 4991   0.445   2.604   2.305
 1240SOL    MW4 4992   0.443   2.684   2.340
 1241SOL     OW 4993   0.629   2.901   2.206
 1241SOL    HW2 4994   0.700   2.847   2.241
 1241SOL    HW3 4995   0.550   2.864   2.245
 1241SOL    MW4 4996   0.628   2.889   2.216
 1242SOL     OW 4997   0.683   3.093   2.384
 1242SOL    HW2 4998   0.611   3.156   2.379
 1242SOL    HW3 4999   0.654   3.020   2.329
 1242SOL    MW4 5000   0.670   3.091   2.376
 1243SOL     OW 5001   0.420   3.211   2.298
 1243SOL    HW2 5002   0.341   3.157   2.295
 1243SOL    HW3 5003   0.444   3.224   2.206
 1243SOL    MW4 5004   0.413   3.206   2.285
 1244SOL     OW 5005   0.391   3.471   2.377
 1244SOL    HW2 5006   0.470   3.517   2.350
 1244SOL    HW3 5007   0.404   3.381   2.348
 1244SOL    MW4 5008   0.403   3.465   2.369
 1245SOL     OW 5009   0.639   3.578   2.290
 1245SOL    HW2 5010   0.666   3.668   2.310
 1245SOL    HW3 5011   0.649   3.570   2.195
 1245SOL    MW4 5012   0.644   3.589   2.280
 1246SOL     OW 5013   0.686   3.845   2.322
 1246SOL    HW2 5014   0.684   3.856   2.417
 1246SOL    HW3 5015   0.607   3.892   2.292
 1246SOL    MW4 5016   0.675   3.853   2.331
 1247SOL     OW 5017   0.465   4.023   2.237
 1247SOL    HW2 5018   0.398   3.961   2.265
 1247SOL    HW3 5019   0.462   4.020   2.142
 1247SOL    MW4 5020   0.456   4.015   2.228
 1248SOL     OW 5021   0.456   4.281   2.328
 1248SOL    HW2 5022   0.541   4.315   2.302
 1248SOL    HW3 5023   0.462   4.186   2.314
 1248SOL    MW4 5024   0.468   4.273   2.323
 1249SOL     OW 5025   0.704   4.369   2.223
 1249SOL    HW2 5026   0.710   4.461   2.246
 1249SOL    HW3 5027   0.704   4.367   2.128
 1249SOL    MW4 5028   0.705   4.381   2.214
 1250SOL     OW 5029   1.155   4.610   2.354
 1250SOL    HW2 5030   1.158   4.613   2.450
 1250SOL    HW3 5031   1.081   4.666   2.330
 1250SOL    MW4 5032   1.146   4.618   2.364
 1251SOL     OW 5033   0.961   0.118   2.263
 1251SOL    HW2 5034   0.945   0.207   2.293
 1251SOL    HW3 5035   0.926   0.116   2.174
 1251SOL    MW4 5036   0.954   0.129   2.255
 1252SOL     OW 5037   0.915   0.382   2.339
 1252SOL    HW2 5038   0.983   0.446   2.316
 1252SOL    HW3 5039   0.839   0.411   2.289
 1252SOL    MW4 5040   0.914   0.395   2.329
 1253SOL     OW 5041   1.124   0.549   2.271
 1253SOL    HW2 5042   1.196   0.516   2.326
 1253SOL    HW3 5043   1.146   0.519   2.183
 1253SOL    MW4 5044   1.136   0.540   2.267
 1254SOL     OW 5045   1.099   0.829   2.364
 1254SOL    HW2 5046   1.019   0.850   2.317
 1254SOL    HW3 5047   1.116   0.737   2.343
 1254SOL    MW4 5048   1.091   0.820   2.355
 1255SOL     OW 5049   0.863   0.901   2.242
 1255SOL    HW2 5050   0.835   0.987   2.273
 1255SOL    HW3 5051   0.799   0.840   2.280
 1255SOL    MW4 5052   0.851   0.904   2.251
 1256SOL     OW 5053   0.844   1.146   2.375
 1256SOL    HW2 5054   0.929   1.182   2.350
 1256SOL    HW3 5055   0.781   1.213   2.349
 1256SOL    MW4 5056   0.847   1.160   2.368
 1257SOL     OW 5057   1.089   1.252   2.303
 1257SOL    HW2 5058   1.172   1.215   2.332
 1257SOL    HW3 5059   1.107   1.284   2.214
 1257SOL    MW4 5060   1.103   1.251   2.295
 1258SOL     OW 5061   1.105   1.501   2.394
 1258SOL    HW2 5062   1.021   1.538   2.368
 1258SOL    HW3 5063   1.100   1.410   2.365
 1258SOL    MW4 5064   1.093   1.494   2.387
 1259SOL     OW 5065   0.874   1.641   2.279
 1259SOL    HW2 5066   0.861   1.728   2.318
 1259SOL    HW3 5067   0.902   1.660   2.189
 1259SOL    MW4 5068   0.876   1.655   2.272
 1260SOL     OW 5069   0.854   1.918   2.374
 1260SOL    HW2 5070   0.855   1.901   2.468
 1260SOL    HW3 5071   0.929   1.976   2.360
 1260SOL    MW4 5072   0.864   1.923   2.385
 1261SOL     OW 5073   1.079   2.072   2.296
 1261SOL    HW2 5074   1.163   2.037   2.325
 1261SOL    HW3 5075   1.086   2.079   2.201
 1261SOL    MW4 5076   1.091   2.068   2.288
 1262SOL     OW 5077   1.078   2.350   2.364
 1262SOL    HW2 5078   1.165   2.379   2.335
 1262SOL    HW3 5079   1.081   2.255   2.356
 1262SOL    MW4 5080   1.090   2.341   2.359
 1263SOL     OW 5081   0.902   2.492   2.216
 1263SOL    HW2 5082   0.956   2.430   2.264
 1263SOL    HW3 5083   0.921   2.476   2.124
 1263SOL    MW4 5084   0.911   2.482   2.210
 1264SOL     OW 5085   0.810   2.742   2.328
 1264SOL    HW2 5086   0.816   2.730   2.423
 1264SOL    HW3 5087   0.833   2.656   2.292
 1264SOL    MW4 5088   0.814   2.729   2.336
 1265SOL     OW 5089   1.065   2.868   2.233
 1265SOL    HW2 5090   1.122   2.800   2.270
 1265SOL    HW3 5091   0.977   2.843   2.261
 1265SOL    MW4 5092   1.061   2.856   2.241
 1266SOL     OW 5093   1.112   3.100   2.350
 1266SOL    HW2 5094   1.036   3.148   2.315
 1266SOL    HW3 5095   1.102   3.011   2.316
 1266SOL    MW4 5096   1.101   3.095   2.341
 1267SOL     OW 5097   0.891   3.215   2.223
 1267SOL    HW2 5098   0.891   3.299   2.268
 1267SOL    HW3 5099   0.821   3.165   2.265
 1267SOL    MW4 5100   0.882   3.219   2.235
 1268SOL     OW 5101   0.892   3.455   2.353
 1268SOL    HW2 5102   0.890   3.458   2.448
 1268SOL    HW3 5103   0.810   3.497   2.326
 1268SOL    MW4 5104   0.881   3.461   2.362
 1269SOL     OW 5105   1.109   3.596   2.248
 1269SOL    HW2 5106   1.185   3.543   2.276
 1269SOL    HW3 5107   1.034   3.549   2.283
 1269SOL    MW4 5108   1.109   3.583   2.256
 1270SOL     OW 5109   1.099   3.863   2.361
 1270SOL    HW2 5110   1.182   3.899   2.328
 1270SOL    HW3 5111   1.090   3.779   2.316
 1270SOL    MW4 5112   1.109   3.857   2.351
 1271SOL     OW 5113   0.904   3.984   2.228
 1271SOL    HW2 5114   0.977   3.941   2.274
 1271SOL    HW3 5115   0.826   3.954   2.274
 1271SOL    MW4 5116   0.904   3.974   2.240
 1272SOL     OW 5117   0.897   4.226   2.361
 1272SOL    HW2 5118   0.900   4.141   2.317
 1272SOL    HW3 5119   0.823   4.271   2.320
 1272SOL    MW4 5120   0.887   4.221   2.350
 1273SOL     OW 5121   1.127   4.346   2.276
 1273SOL    HW2 5122   1.043   4.308   2.297
 1273SOL    HW3 5123   1.126   4.433   2.317
 1273SOL    MW4 5124   1.116   4.353   2.284
 1274SOL     OW 5125   1.580   4.637   2.319
 1274SOL    HW2 5126   1.657   4.683   2.286
 1274SOL    HW3 5127   1.508   4.698   2.304
 1274SOL    MW4 5128   1.581   4.651   2.313
 1275SOL     OW 5129   1.356   0.130   2.279
 1275SOL    HW2 5130   1.328   0.211   2.322
 1275SOL    HW3 5131   1.293   0.064   2.308
 1275SOL    MW4 5132   1.344   0.132   2.289
 1276SOL     OW 5133   1.331   0.394   2.370
 1276SOL    HW2 5134   1.325   0.393   2.466
 1276SOL    HW3 5135   1.419   0.428   2.352
 1276SOL    MW4 5136   1.342   0.398   2.380
 1277SOL     OW 5137   1.563   0.486   2.246
 1277SOL    HW2 5138   1.647   0.441   2.257
 1277SOL    HW3 5139   1.543   0.476   2.153
 1277SOL    MW4 5140   1.572   0.478   2.236
 1278SOL     OW 5141   1.586   0.738   2.348
 1278SOL    HW2 5142   1.661   0.782   2.307
 1278SOL    HW3 5143   1.588   0.649   2.313
 1278SOL    MW4 5144   1.596   0.732   2.338
 1279SOL     OW 5145   1.365   0.882   2.254
 1279SOL    HW2 5146   1.434   0.832   2.298
 1279SOL    HW3 5147   1.284   0.856   2.298
 1279SOL    MW4 5148   1.364   0.872   2.265
 1280SOL     OW 5149   1.337   1.131   2.356
 1280SOL    HW2 5150   1.328   1.105   2.448
 1280SOL    HW3 5151   1.331   1.049   2.307
 1280SOL    MW4 5152   1.335   1.117   2.362
 1281SOL     OW 5153   1.575   1.241   2.244
 1281SOL    HW2 5154   1.492   1.198   2.266
 1281SOL    HW3 5155   1.576   1.242   2.148
 1281SOL    MW4 5156   1.564   1.235   2.234
 1282SOL     OW 5157   1.530   1.499   2.345
 1282SOL    HW2 5158   1.614   1.543   2.336
 1282SOL    HW3 5159   1.548   1.407   2.326
 1282SOL    MW4 5160   1.543   1.493   2.341
 1283SOL     OW 5161   1.295   1.673   2.283
 1283SOL    HW2 5162   1.366   1.611   2.295
 1283SOL    HW3 5163   1.216   1.625   2.309
 1283SOL    MW4 5164   1.294   1.659   2.288
 1284SOL     OW 5165   1.308   1.931   2.379
 1284SOL    HW2 5166   1.389   1.966   2.342
 1284SOL    HW3 5167   1.296   1.846   2.335
 1284SOL    MW4 5168   1.317   1.924   2.369
 1285SOL     OW 5169   1.559   2.042   2.279
 1285SOL    HW2 5170   1.638   1.995   2.306
 1285SOL    HW3 5171   1.559   2.036   2.183
 1285SOL    MW4 5172   1.570   2.035   2.270
 1286SOL     OW 5173   1.557   2.322   2.359
 1286SOL    HW2 5174   1.572   2.339   2.452
 1286SOL    HW3 5175   1.568   2.228   2.350
 1286SOL    MW4 5176   1.561   2.312   2.370
 1287SOL     OW 5177   1.327   2.425   2.267
 1287SOL    HW2 5178   1.411   2.400   2.306
 1287SOL    HW3 5179   1.339   2.415   2.173
 1287SOL    MW4 5180   1.340   2.421   2.260
 1288SOL     OW 5181   1.279   2.708   2.287
 1288SOL    HW2 5182   1.360   2.752   2.261
 1288SOL    HW3 5183   1.298   2.615   2.278
 1288SOL    MW4 5184   1.292   2.702   2.283
 1289SOL     OW 5185   1.537   2.803   2.224
 1289SOL    HW2 5186   1.550   2.889   2.264
 1289SOL    HW3 5187   1.543   2.819   2.129
 1289SOL    MW4 5188   1.539   2.816   2.216
 1290SOL     OW 5189   1.595   3.051   2.327
 1290SOL    HW2 5190   1.592   3.057   2.423
 1290SOL    HW3 5191   1.521   3.104   2.298
 1290SOL    MW4 5192   1.585   3.059   2.336
 1291SOL     OW 5193   1.362   3.178   2.243
 1291SOL    HW2 5194   1.280   3.142   2.275
 1291SOL    HW3 5195   1.345   3.200   2.151
 1291SOL    MW4 5196   1.349   3.176   2.235
 1292SOL     OW 5197   1.351   3.456   2.317
 1292SOL    HW2 5198   1.351   3.469   2.411
 1292SOL    HW3 5199   1.352   3.360   2.306
 1292SOL    MW4 5200   1.351   3.445   2.328
 1293SOL     OW 5201   1.537   3.613   2.198
 1293SOL    HW2 5202   1.548   3.681   2.264
 1293SOL    HW3 5203   1.460   3.564   2.227
 1293SOL    MW4 5204   1.528   3.615   2.210
 1294SOL     OW 5205   1.583   3.835   2.360
 1294SOL    HW2 5206   1.603   3.828   2.453
 1294SOL    HW3 5207   1.647   3.898   2.327
 1294SOL    MW4 5208   1.594   3.842   2.368
 1295SOL     OW 5209   1.340   3.977   2.250
 1295SOL    HW2 5210   1.416   3.925   2.277
 1295SOL    HW3 5211   1.347   3.983   2.155
 1295SOL    MW4 5212   1.351   3.971   2.241
 1296SOL     OW 5213   1.364   4.236   2.360
 1296SOL    HW2 5214   1.362   4.146   2.326
 1296SOL    HW3 5215   1.282   4.274   2.330
 1296SOL    MW4 5216   1.353   4.229   2.351
 1297SOL     OW 5217   1.550   4.373   2.228
 1297SOL    HW2 5218   1.474   4.337   2.275
 1297SOL    HW3 5219   1.545   4.467   2.245
 1297SOL    MW4 5220   1.539   4.381   2.237
 1298SOL     OW 5221   2.027   4.625   2.330
 1298SOL    HW2 5222   2.101   4.674   2.294
 1298SOL    HW3 5223   2.043   4.535   2.303
 1298SOL    MW4 5224   2.039   4.620   2.322
 1299SOL     OW 5225   1.803   0.107   2.221
 1299SOL    HW2 5226   1.814   0.197   2.252
 1299SOL    HW3 5227   1.880   0.060   2.255
 1299SOL    MW4 5228   1.815   0.112   2.230
 1300SOL     OW 5229   1.788   0.371   2.318
 1300SOL    HW2 5230   1.764   0.371   2.410
 1300SOL    HW3 5231   1.872   0.418   2.315
 1300SOL    MW4 5232   1.796   0.377   2.330
 1301SOL     OW 5233   2.009   0.518   2.239
 1301SOL    HW2 5234   2.044   0.601   2.271
 1301SOL    HW3 5235   2.008   0.528   2.144
 1301SOL    MW4 5236   2.013   0.530   2.231
 1302SOL     OW 5237   2.059   0.764   2.372
 1302SOL    HW2 5238   2.129   0.817   2.334
 1302SOL    HW3 5239   1.979   0.799   2.334
 1302SOL    MW4 5240   2.058   0.776   2.362
 1303SOL     OW 5241   1.827   0.886   2.253
 1303SOL    HW2 5242   1.828   0.978   2.280
 1303SOL    HW3 5243   1.844   0.889   2.159
 1303SOL    MW4 5244   1.829   0.899   2.244
 1304SOL     OW 5245   1.799   1.142   2.346
 1304SOL    HW2 5246   1.863   1.203   2.308
 1304SOL    HW3 5247   1.717   1.164   2.303
 1304SOL    MW4 5248   1.797   1.153   2.335
 1305SOL     OW 5249   1.978   1.332   2.273
 1305SOL    HW2 5250   1.985   1.422   2.306
 1305SOL    HW3 5251   1.995   1.340   2.179
 1305SOL    MW4 5252   1.981   1.345   2.265
 1306SOL     OW 5253   2.009   1.588   2.370
 1306SOL    HW2 5254   1.999   1.583   2.465
 1306SOL    HW3 5255   1.928   1.630   2.340
 1306SOL    MW4 5256   1.997   1.593   2.379
 1307SOL     OW 5257   1.764   1.659   2.287
 1307SOL    HW2 5258   1.767   1.751   2.313
 1307SOL    HW3 5259   1.795   1.658   2.196
 1307SOL    MW4 5260   1.769   1.671   2.279
 1308SOL     OW 5261   1.788   1.923   2.355
 1308SOL    HW2 5262   1.796   1.912   2.450
 1308SOL    HW3 5263   1.869   1.966   2.328
 1308SOL    MW4 5264   1.799   1.927   2.364
 1309SOL     OW 5265   2.037   2.043   2.264
 1309SOL    HW2 5266   2.121   2.002   2.285
 1309SOL    HW3 5267   2.027   2.032   2.170
 1309SOL    MW4 5268   2.046   2.036   2.255
 1310SOL     OW 5269   1.986   2.297   2.329
 1310SOL    HW2 5270   2.066   2.334   2.292
 1310SOL    HW3 5271   1.997   2.202   2.321
 1310SOL    MW4 5272   1.998   2.290   2.323
 1311SOL     OW 5273   1.762   2.434   2.233
 1311SOL    HW2 5274   1.838   2.386   2.264
 1311SOL    HW3 5275   1.689   2.398   2.283
 1311SOL    MW4 5276   1.763   2.423   2.244
 1312SOL     OW 5277   1.775   2.702   2.327
 1312SOL    HW2 5278   1.772   2.607   2.324
 1312SOL    HW3 5279   1.692   2.730   2.287
 1312SOL    MW4 5280   1.764   2.693   2.321
 1313SOL     OW 5281   2.023   2.845   2.276
 1313SOL    HW2 5282   2.098   2.792   2.301
 1313SOL    HW3 5283   1.947   2.794   2.303
 1313SOL    MW4 5284   2.023   2.831   2.283
 1314SOL     OW 5285   1.987   3.121   2.359
 1314SOL    HW2 5286   2.061   3.158   2.311
 1314SOL    HW3 5287   1.980   3.031   2.325
 1314SOL    MW4 5288   1.996   3.114   2.348
 1315SOL     OW 5289   1.799   3.210   2.192
 1315SOL    HW2 5290   1.879   3.187   2.240
 1315SOL    HW3 5291   1.735   3.145   2.220
 1315SOL    MW4 5292   1.801   3.199   2.202
 1316SOL     OW 5293   1.737   3.474   2.307
 1316SOL    HW2 5294   1.738   3.384   2.275
 1316SOL    HW3 5295   1.669   3.517   2.255
 1316SOL    MW4 5296   1.728   3.468   2.296
 1317SOL     OW 5297   1.996   3.577   2.270
 1317SOL    HW2 5298   1.905   3.552   2.287
 1317SOL    HW3 5299   2.009   3.558   2.177
 1317SOL    MW4 5300   1.986   3.571   2.260
 1318SOL     OW 5301   2.013   3.858   2.326
 1318SOL    HW2 5302   2.016   3.863   2.421
 1318SOL    HW3 5303   2.025   3.765   2.307
 1318SOL    MW4 5304   2.015   3.846   2.336
 1319SOL     OW 5305   1.791   4.012   2.232
 1319SOL    HW2 5306   1.870   3.957   2.235
 1319SOL    HW3 5307   1.769   4.017   2.139
 1319SOL    MW4 5308   1.799   4.005   2.220
 1320SOL     OW 5309   1.789   4.266   2.324
 1320SOL    HW2 5310   1.785   4.176   2.291
 1320SOL    HW3 5311   1.705   4.304   2.299
 1320SOL    MW4 5312   1.777   4.259   2.317
 1321SOL     OW 5313   2.054   4.363   2.229
 1321SOL    HW2 5314   1.964   4.344   2.257
 1321SOL    HW3 5315   2.048   4.371   2.134
 1321SOL    MW4 5316   2.041   4.361   2.220
 1322SOL     OW 5317   2.492   0.019   2.336
 1322SOL    HW2 5318   2.573   0.036   2.289
 1322SOL    HW3 5319   2.472  -0.073   2.317
 1322SOL    MW4 5320   2.500   0.009   2.328
 1323SOL     OW 5321   2.239   0.107   2.240
 1323SOL    HW2 5322   2.216   0.194   2.274
 1323SOL    HW3 5323   2.331   0.097   2.263
 1323SOL    MW4 5324   2.248   0.117   2.248
 1324SOL     OW 5325   2.211   0.360   2.345
 1324SOL    HW2 5326   2.293   0.405   2.325
 1324SOL    HW3 5327   2.144   0.409   2.297
 1324SOL    MW4 5328   2.213   0.372   2.336
 1325SOL     OW 5329   2.432   0.518   2.273
 1325SOL    HW2 5330   2.508   0.467   2.299
 1325SOL    HW3 5331   2.435   0.519   2.177
 1325SOL    MW4 5332   2.442   0.512   2.263
 1326SOL     OW 5333   2.476   0.785   2.340
 1326SOL    HW2 5334   2.562   0.814   2.308
 1326SOL    HW3 5335   2.467   0.696   2.307
 1326SOL    MW4 5336   2.486   0.777   2.332
 1327SOL     OW 5337   2.250   0.911   2.244
 1327SOL    HW2 5338   2.228   0.992   2.290
 1327SOL    HW3 5339   2.341   0.894   2.269
 1327SOL    MW4 5340   2.259   0.920   2.253
 1328SOL     OW 5341   2.193   1.161   2.355
 1328SOL    HW2 5342   2.280   1.197   2.335
 1328SOL    HW3 5343   2.132   1.229   2.327
 1328SOL    MW4 5344   2.197   1.175   2.348
 1329SOL     OW 5345   2.441   1.236   2.288
 1329SOL    HW2 5346   2.533   1.212   2.304
 1329SOL    HW3 5347   2.437   1.330   2.306
 1329SOL    MW4 5348   2.453   1.245   2.292
 1330SOL     OW 5349   2.446   1.504   2.384
 1330SOL    HW2 5350   2.454   1.491   2.479
 1330SOL    HW3 5351   2.519   1.562   2.362
 1330SOL    MW4 5352   2.457   1.510   2.394
 1331SOL     OW 5353   2.250   1.665   2.278
 1331SOL    HW2 5354   2.316   1.615   2.326
 1331SOL    HW3 5355   2.166   1.631   2.309
 1331SOL    MW4 5356   2.248   1.654   2.288
 1332SOL     OW 5357   2.247   1.923   2.381
 1332SOL    HW2 5358   2.332   1.966   2.369
 1332SOL    HW3 5359   2.258   1.836   2.343
 1332SOL    MW4 5360   2.260   1.917   2.374
 1333SOL     OW 5361   2.494   2.047   2.310
 1333SOL    HW2 5362   2.577   2.002   2.324
 1333SOL    HW3 5363   2.480   2.043   2.215
 1333SOL    MW4 5364   2.503   2.040   2.299
 1334SOL     OW 5365   2.468   2.318   2.371
 1334SOL    HW2 5366   2.538   2.359   2.320
 1334SOL    HW3 5367   2.480   2.224   2.356
 1334SOL    MW4 5368   2.479   2.311   2.362
 1335SOL     OW 5369   2.224   2.425   2.264
 1335SOL    HW2 5370   2.220   2.517   2.290
 1335SOL    HW3 5371   2.310   2.395   2.294
 1335SOL    MW4 5372   2.235   2.433   2.272
 1336SOL     OW 5373   2.226   2.678   2.346
 1336SOL    HW2 5374   2.231   2.696   2.440
 1336SOL    HW3 5375   2.303   2.722   2.309
 1336SOL    MW4 5376   2.237   2.687   2.353
 1337SOL     OW 5377   2.461   2.798   2.238
 1337SOL    HW2 5378   2.534   2.755   2.281
 1337SOL    HW3 5379   2.487   2.803   2.146
 1337SOL    MW4 5380   2.474   2.793   2.231
 1338SOL     OW 5381   2.440   3.065   2.367
 1338SOL    HW2 5382   2.526   3.100   2.341
 1338SOL    HW3 5383   2.441   2.974   2.338
 1338SOL    MW4 5384   2.452   3.058   2.360
 1339SOL     OW 5385   2.210   3.224   2.253
 1339SOL    HW2 5386   2.209   3.313   2.289
 1339SOL    HW3 5387   2.284   3.181   2.297
 1339SOL    MW4 5388   2.219   3.230   2.264
 1340SOL     OW 5389   2.216   3.484   2.363
 1340SOL    HW2 5390   2.213   3.497   2.457
 1340SOL    HW3 5391   2.131   3.513   2.331
 1340SOL    MW4 5392   2.205   3.489   2.371
 1341SOL     OW 5393   2.445   3.579   2.226
 1341SOL    HW2 5394   2.485   3.649   2.277
 1341SOL    HW3 5395   2.361   3.563   2.268
 1341SOL    MW4 5396   2.439   3.586   2.238
 1342SOL     OW 5397   2.541   3.828   2.324
 1342SOL    HW2 5398   2.538   3.827   2.419
 1342SOL    HW3 5399   2.461   3.874   2.298
 1342SOL    MW4 5400   2.530   3.834   2.333
 1343SOL     OW 5401   2.281   3.951   2.275
 1343SOL    HW2 5402   2.279   4.042   2.304
 1343SOL    HW3 5403   2.200   3.913   2.309
 1343SOL    MW4 5404   2.270   3.958   2.283
 1344SOL     OW 5405   2.263   4.225   2.339
 1344SOL    HW2 5406   2.253   4.251   2.431
 1344SOL    HW3 5407   2.184   4.258   2.297
 1344SOL    MW4 5408   2.251   4.233   2.346
 1345SOL     OW 5409   2.457   4.426   2.256
 1345SOL    HW2 5410   2.532   4.395   2.305
 1345SOL    HW3 5411   2.385   4.370   2.284
 1345SOL    MW4 5412   2.457   4.414   2.266
 1346SOL     OW 5413   2.906   4.660   2.405
 1346SOL    HW2 5414   2.980   4.708   2.367
 1346SOL    HW3 5415   2.919   4.569   2.377
 1346SOL    MW4 5416   2.917   4.654   2.396
 1347SOL     OW 5417   2.730   0.121   2.230
 1347SOL    HW2 5418   2.710   0.210   2.260
 1347SOL    HW3 5419   2.791   0.087   2.295
 1347SOL    MW4 5420   2.735   0.128   2.243
 1348SOL     OW 5421   2.672   0.365   2.337
 1348SOL    HW2 5422   2.640   0.369   2.427
 1348SOL    HW3 5423   2.754   0.415   2.338
 1348SOL    MW4 5424   2.679   0.372   2.349
 1349SOL     OW 5425   2.916   0.488   2.295
 1349SOL    HW2 5426   2.938   0.577   2.325
 1349SOL    HW3 5427   2.925   0.492   2.200
 1349SOL    MW4 5428   2.920   0.500   2.286
 1350SOL     OW 5429   2.949   0.762   2.351
 1350SOL    HW2 5430   2.918   0.757   2.442
 1350SOL    HW3 5431   2.873   0.793   2.302
 1350SOL    MW4 5432   2.935   0.766   2.357
 1351SOL     OW 5433   2.723   0.870   2.245
 1351SOL    HW2 5434   2.709   0.962   2.269
 1351SOL    HW3 5435   2.707   0.868   2.150
 1351SOL    MW4 5436   2.719   0.882   2.235
 1352SOL     OW 5437   2.694   1.132   2.340
 1352SOL    HW2 5438   2.698   1.123   2.435
 1352SOL    HW3 5439   2.771   1.185   2.318
 1352SOL    MW4 5440   2.705   1.138   2.350
 1353SOL     OW 5441   2.922   1.292   2.276
 1353SOL    HW2 5442   2.984   1.239   2.326
 1353SOL    HW3 5443   2.933   1.263   2.186
 1353SOL    MW4 5444   2.932   1.282   2.271
 1354SOL     OW 5445   2.900   1.568   2.359
 1354SOL    HW2 5446   2.921   1.568   2.452
 1354SOL    HW3 5447   2.921   1.479   2.330
 1354SOL    MW4 5448   2.906   1.556   2.367
 1355SOL     OW 5449   2.655   1.642   2.284
 1355SOL    HW2 5450   2.738   1.618   2.325
 1355SOL    HW3 5451   2.675   1.643   2.190
 1355SOL    MW4 5452   2.669   1.639   2.277
 1356SOL     OW 5453   2.717   1.884   2.363
 1356SOL    HW2 5454   2.700   1.887   2.457
 1356SOL    HW3 5455   2.688   1.797   2.336
 1356SOL    MW4 5456   2.711   1.873   2.372
 1357SOL     OW 5457   2.897   2.042   2.245
 1357SOL    HW2 5458   2.979   2.011   2.283
 1357SOL    HW3 5459   2.830   1.990   2.288
 1357SOL    MW4 5460   2.899   2.031   2.256
 1358SOL     OW 5461   2.900   2.310   2.340
 1358SOL    HW2 5462   2.907   2.307   2.435
 1358SOL    HW3 5463   2.884   2.219   2.314
 1358SOL    MW4 5464   2.898   2.298   2.349
 1359SOL     OW 5465   2.689   2.458   2.239
 1359SOL    HW2 5466   2.763   2.401   2.259
 1359SOL    HW3 5467   2.691   2.467   2.143
 1359SOL    MW4 5468   2.699   2.451   2.229
 1360SOL     OW 5469   2.692   2.695   2.363
 1360SOL    HW2 5470   2.766   2.747   2.331
 1360SOL    HW3 5471   2.701   2.611   2.318
 1360SOL    MW4 5472   2.703   2.691   2.353
 1361SOL     OW 5473   2.893   2.836   2.211
 1361SOL    HW2 5474   2.875   2.926   2.241
 1361SOL    HW3 5475   2.913   2.846   2.118
 1361SOL    MW4 5476   2.893   2.849   2.203
 1362SOL     OW 5477   2.887   3.069   2.348
 1362SOL    HW2 5478   2.966   3.116   2.319
 1362SOL    HW3 5479   2.815   3.118   2.309
 1362SOL    MW4 5480   2.888   3.082   2.339
 1363SOL     OW 5481   2.672   3.207   2.243
 1363SOL    HW2 5482   2.671   3.290   2.290
 1363SOL    HW3 5483   2.685   3.231   2.151
 1363SOL    MW4 5484   2.673   3.221   2.237
 1364SOL     OW 5485   2.653   3.464   2.358
 1364SOL    HW2 5486   2.727   3.514   2.324
 1364SOL    HW3 5487   2.577   3.498   2.310
 1364SOL    MW4 5488   2.653   3.475   2.347
 1365SOL     OW 5489   2.879   3.587   2.259
 1365SOL    HW2 5490   2.947   3.524   2.283
 1365SOL    HW3 5491   2.909   3.670   2.297
 1365SOL    MW4 5492   2.892   3.590   2.267
 1366SOL     OW 5493   2.917   3.837   2.375
 1366SOL    HW2 5494   2.933   3.838   2.470
 1366SOL    HW3 5495   2.849   3.902   2.361
 1366SOL    MW4 5496   2.910   3.846   2.386
 1367SOL     OW 5497   2.729   4.017   2.280
 1367SOL    HW2 5498   2.670   3.946   2.306
 1367SOL    HW3 5499   2.714   4.026   2.186
 1367SOL    MW4 5500   2.719   4.009   2.271
 1368SOL     OW 5501   2.673   4.279   2.393
 1368SOL    HW2 5502   2.658   4.267   2.487
 1368SOL    HW3 5503   2.673   4.190   2.357
 1368SOL    MW4 5504   2.671   4.266   2.401
 1369SOL     OW 5505   2.921   4.400   2.309
 1369SOL    HW2 5506   2.994   4.343   2.332
 1369SOL    HW3 5507   2.846   4.361   2.354
 1369SOL    MW4 5508   2.921   4.388   2.318
 1370SOL     OW 5509   3.400   4.646   2.344
 1370SOL    HW2 5510   3.408   4.659   2.438
 1370SOL    HW3 5511   3.473   4.697   2.306
 1370SOL    MW4 5512   3.411   4.655   2.351
 1371SOL     OW 5513   3.151   0.076   2.259
 1371SOL    HW2 5514   3.157   0.161   2.303
 1371SOL    HW3 5515   3.235   0.034   2.276
 1371SOL    MW4 5516   3.163   0.082   2.267
 1372SOL     OW 5517   3.159   0.344   2.372
 1372SOL    HW2 5518   3.217   0.413   2.342
 1372SOL    HW3 5519   3.071   0.373   2.346
 1372SOL    MW4 5520   3.155   0.357   2.365
 1373SOL     OW 5521   3.342   0.527   2.272
 1373SOL    HW2 5522   3.410   0.475   2.315
 1373SOL    HW3 5523   3.363   0.521   2.179
 1373SOL    MW4 5524   3.354   0.520   2.266
 1374SOL     OW 5525   3.399   0.753   2.394
 1374SOL    HW2 5526   3.465   0.802   2.344
 1374SOL    HW3 5527   3.377   0.678   2.337
 1374SOL    MW4 5528   3.405   0.749   2.380
 1375SOL     OW 5529   3.176   0.872   2.263
 1375SOL    HW2 5530   3.256   0.834   2.298
 1375SOL    HW3 5531   3.105   0.830   2.312
 1375SOL    MW4 5532   3.177   0.861   2.274
 1376SOL     OW 5533   3.140   1.131   2.359
 1376SOL    HW2 5534   3.203   1.197   2.329
 1376SOL    HW3 5535   3.162   1.053   2.309
 1376SOL    MW4 5536   3.152   1.130   2.349
 1377SOL     OW 5537   3.339   1.290   2.232
 1377SOL    HW2 5538   3.415   1.253   2.277
 1377SOL    HW3 5539   3.335   1.381   2.260
 1377SOL    MW4 5540   3.348   1.297   2.242
 1378SOL     OW 5541   3.380   1.549   2.318
 1378SOL    HW2 5542   3.386   1.552   2.413
 1378SOL    HW3 5543   3.303   1.602   2.297
 1378SOL    MW4 5544   3.370   1.556   2.328
 1379SOL     OW 5545   3.135   1.666   2.261
 1379SOL    HW2 5546   3.139   1.760   2.281
 1379SOL    HW3 5547   3.055   1.635   2.303
 1379SOL    MW4 5548   3.125   1.674   2.270
 1380SOL     OW 5549   3.145   1.934   2.335
 1380SOL    HW2 5550   3.155   1.922   2.429
 1380SOL    HW3 5551   3.215   1.994   2.311
 1380SOL    MW4 5552   3.155   1.940   2.344
 1381SOL     OW 5553   3.370   2.066   2.248
 1381SOL    HW2 5554   3.439   2.014   2.288
 1381SOL    HW3 5555   3.378   2.049   2.154
 1381SOL    MW4 5556   3.380   2.057   2.241
 1382SOL     OW 5557   3.330   2.317   2.352
 1382SOL    HW2 5558   3.273   2.373   2.298
 1382SOL    HW3 5559   3.325   2.231   2.311
 1382SOL    MW4 5560   3.322   2.313   2.339
 1383SOL     OW 5561   3.092   2.439   2.201
 1383SOL    HW2 5562   3.097   2.519   2.253
 1383SOL    HW3 5563   3.024   2.388   2.243
 1383SOL    MW4 5564   3.083   2.443   2.213
 1384SOL     OW 5565   3.083   2.666   2.333
 1384SOL    HW2 5566   3.083   2.678   2.428
 1384SOL    HW3 5567   3.012   2.722   2.302
 1384SOL    MW4 5568   3.073   2.675   2.342
 1385SOL     OW 5569   3.303   2.820   2.211
 1385SOL    HW2 5570   3.311   2.911   2.242
 1385SOL    HW3 5571   3.225   2.787   2.255
 1385SOL    MW4 5572   3.294   2.828   2.221
 1386SOL     OW 5573   3.372   3.066   2.337
 1386SOL    HW2 5574   3.451   3.100   2.295
 1386SOL    HW3 5575   3.300   3.114   2.296
 1386SOL    MW4 5576   3.373   3.077   2.326
 1387SOL     OW 5577   3.120   3.196   2.263
 1387SOL    HW2 5578   3.095   3.284   2.290
 1387SOL    HW3 5579   3.112   3.197   2.167
 1387SOL    MW4 5580   3.116   3.208   2.254
 1388SOL     OW 5581   3.071   3.444   2.376
 1388SOL    HW2 5582   3.068   3.447   2.472
 1388SOL    HW3 5583   3.155   3.483   2.353
 1388SOL    MW4 5584   3.082   3.449   2.386
 1389SOL     OW 5585   3.318   3.564   2.294
 1389SOL    HW2 5586   3.399   3.520   2.319
 1389SOL    HW3 5587   3.328   3.582   2.200
 1389SOL    MW4 5588   3.330   3.560   2.285
 1390SOL     OW 5589   3.361   3.835   2.359
 1390SOL    HW2 5590   3.442   3.870   2.322
 1390SOL    HW3 5591   3.355   3.746   2.323
 1390SOL    MW4 5592   3.371   3.828   2.350
 1391SOL     OW 5593   3.147   3.989   2.297
 1391SOL    HW2 5594   3.224   3.935   2.318
 1391SOL    HW3 5595   3.072   3.937   2.325
 1391SOL    MW4 5596   3.148   3.975   2.304
 1392SOL     OW 5597   3.142   4.252   2.384
 1392SOL    HW2 5598   3.214   4.296   2.338
 1392SOL    HW3 5599   3.142   4.163   2.350
 1392SOL    MW4 5600   3.151   4.246   2.373
 1393SOL     OW 5601   3.329   4.391   2.254
 1393SOL    HW2 5602   3.343   4.480   2.286
 1393SOL    HW3 5603   3.339   4.398   2.159
 1393SOL    MW4 5604   3.332   4.404   2.245
 1394SOL     OW 5605   3.812   4.646   2.331
 1394SOL    HW2 5606   3.834   4.628   2.422
 1394SOL    HW3 5607   3.896   4.671   2.291
 1394SOL    MW4 5608   3.826   4.647   2.338
 1395SOL     OW 5609   3.600   0.150   2.250
 1395SOL    HW2 5610   3.591   0.229   2.303
 1395SOL    HW3 5611   3.672   0.102   2.290
 1395SOL    MW4 5612   3.608   0.154   2.262
 1396SOL     OW 5613   3.549   0.378   2.382
 1396SOL    HW2 5614   3.529   0.387   2.476
 1396SOL    HW3 5615   3.637   0.415   2.373
 1396SOL    MW4 5616   3.558   0.384   2.393
 1397SOL     OW 5617   3.822   0.460   2.288
 1397SOL    HW2 5618   3.824   0.551   2.319
 1397SOL    HW3 5619   3.827   0.467   2.193
 1397SOL    MW4 5620   3.823   0.473   2.280
 1398SOL     OW 5621   3.832   0.725   2.356
 1398SOL    HW2 5622   3.832   0.752   2.448
 1398SOL    HW3 5623   3.894   0.785   2.314
 1398SOL    MW4 5624   3.840   0.736   2.362
 1399SOL     OW 5625   3.599   0.860   2.230
 1399SOL    HW2 5626   3.665   0.801   2.267
 1399SOL    HW3 5627   3.607   0.847   2.135
 1399SOL    MW4 5628   3.609   0.850   2.222
 1400SOL     OW 5629   3.573   1.138   2.354
 1400SOL    HW2 5630   3.568   1.149   2.449
 1400SOL    HW3 5631   3.592   1.045   2.342
 1400SOL    MW4 5632   3.575   1.128   2.365
 1401SOL     OW 5633   3.779   1.271   2.226
 1401SOL    HW2 5634   3.769   1.356   2.269
 1401SOL    HW3 5635   3.724   1.211   2.277
 1401SOL    MW4 5636   3.771   1.274   2.238
 1402SOL     OW 5637   3.823   1.535   2.328
 1402SOL    HW2 5638   3.841   1.546   2.422
 1402SOL    HW3 5639   3.740   1.579   2.314
 1402SOL    MW4 5640   3.814   1.542   2.339
 1403SOL     OW 5641   3.606   1.669   2.248
 1403SOL    HW2 5642   3.518   1.638   2.269
 1403SOL    HW3 5643   3.612   1.660   2.152
 1403SOL    MW4 5644   3.595   1.664   2.238
 1404SOL     OW 5645   3.596   1.950   2.335
 1404SOL    HW2 5646   3.659   1.994   2.278
 1404SOL    HW3 5647   3.609   1.857   2.317
 1404SOL    MW4 5648   3.606   1.943   2.325
 1405SOL     OW 5649   3.798   2.082   2.183
 1405SOL    HW2 5650   3.877   2.045   2.222
 1405SOL    HW3 5651   3.820   2.090   2.090
 1405SOL    MW4 5652   3.812   2.078   2.176
 1406SOL     OW 5653   3.793   2.323   2.325
 1406SOL    HW2 5654   3.719   2.369   2.286
 1406SOL    HW3 5655   3.792   2.237   2.284
 1406SOL    MW4 5656   3.783   2.318   2.315
 1407SOL     OW 5657   3.561   2.453   2.227
 1407SOL    HW2 5658   3.493   2.396   2.263
 1407SOL    HW3 5659   3.566   2.428   2.135
 1407SOL    MW4 5660   3.552   2.442   2.220
 1408SOL     OW 5661   3.513   2.690   2.346
 1408SOL    HW2 5662   3.523   2.603   2.307
 1408SOL    HW3 5663   3.435   2.726   2.303
 1408SOL    MW4 5664   3.504   2.683   2.335
 1409SOL     OW 5665   3.755   2.805   2.242
 1409SOL    HW2 5666   3.769   2.894   2.275
 1409SOL    HW3 5667   3.669   2.780   2.278
 1409SOL    MW4 5668   3.745   2.813   2.251
 1410SOL     OW 5669   3.806   3.062   2.284
 1410SOL    HW2 5670   3.812   3.085   2.376
 1410SOL    HW3 5671   3.885   3.100   2.244
 1410SOL    MW4 5672   3.818   3.070   2.291
 1411SOL     OW 5673   3.578   3.189   2.189
 1411SOL    HW2 5674   3.587   3.274   2.232
 1411SOL    HW3 5675   3.662   3.145   2.206
 1411SOL    MW4 5676   3.590   3.194   2.197
 1412SOL     OW 5677   3.556   3.442   2.337
 1412SOL    HW2 5678   3.559   3.468   2.429
 1412SOL    HW3 5679   3.629   3.489   2.296
 1412SOL    MW4 5680   3.566   3.452   2.344
 1413SOL     OW 5681   3.780   3.595   2.216
 1413SOL    HW2 5682   3.790   3.679   2.260
 1413SOL    HW3 5683   3.773   3.617   2.123
 1413SOL    MW4 5684   3.781   3.609   2.209
 1414SOL     OW 5685   3.826   3.851   2.322
 1414SOL    HW2 5686   3.833   3.833   2.415
 1414SOL    HW3 5687   3.901   3.906   2.302
 1414SOL    MW4 5688   3.837   3.856   2.332
 1415SOL     OW 5689   3.587   3.966   2.257
 1415SOL    HW2 5690   3.591   4.054   2.294
 1415SOL    HW3 5691   3.666   3.923   2.290
 1415SOL    MW4 5692   3.598   3.972   2.266
 1416SOL     OW 5693   3.569   4.241   2.326
 1416SOL    HW2 5694   3.641   4.298   2.301
 1416SOL    HW3 5695   3.491   4.284   2.293
 1416SOL    MW4 5696   3.568   4.254   2.318
 1417SOL     OW 5697   3.776   4.400   2.235
 1417SOL    HW2 5698   3.856   4.355   2.262
 1417SOL    HW3 5699   3.785   4.488   2.271
 1417SOL    MW4 5700   3.787   4.405   2.244
 1418SOL     OW 5701   4.293   4.621   2.328
 1418SOL    HW2 5702   4.281   4.639   2.421
 1418SOL    HW3 5703   4.352   4.690   2.298
 1418SOL    MW4 5704   4.299   4.633   2.336
 1419SOL     OW 5705   4.070   0.081   2.203
 1419SOL    HW2 5706   4.072   0.145   2.275
 1419SOL    HW3 5707   4.153   0.034   2.211
 1419SOL    MW4 5708   4.081   0.084   2.214
 1420SOL     OW 5709   4.043   0.320   2.355
 1420SOL    HW2 5710   4.095   0.392   2.319
 1420SOL    HW3 5711   3.952   0.349   2.344
 1420SOL    MW4 5712   4.038   0.333   2.349
 1421SOL     OW 5713   4.228   0.502   2.260
 1421SOL    HW2 5714   4.228   0.590   2.299
 1421SOL    HW3 5715   4.313   0.465   2.283
 1421SOL    MW4 5716   4.239   0.509   2.268
 1422SOL     OW 5717   4.250   0.756   2.351
 1422SOL    HW2 5718   4.175   0.807   2.321
 1422SOL    HW3 5719   4.326   0.810   2.330
 1422SOL    MW4 5720   4.250   0.770   2.344
 1423SOL     OW 5721   4.029   0.896   2.229
 1423SOL    HW2 5722   4.037   0.988   2.253
 1423SOL    HW3 5723   4.039   0.894   2.134
 1423SOL    MW4 5724   4.031   0.908   2.220
 1424SOL     OW 5725   4.044   1.177   2.323
 1424SOL    HW2 5726   4.062   1.173   2.417
 1424SOL    HW3 5727   3.958   1.220   2.317
 1424SOL    MW4 5728   4.035   1.182   2.334
 1425SOL     OW 5729   4.264   1.294   2.238
 1425SOL    HW2 5730   4.185   1.261   2.281
 1425SOL    HW3 5731   4.336   1.256   2.287
 1425SOL    MW4 5732   4.263   1.285   2.250
 1426SOL     OW 5733   4.229   1.560   2.321
 1426SOL    HW2 5734   4.256   1.477   2.282
 1426SOL    HW3 5735   4.301   1.620   2.302
 1426SOL    MW4 5736   4.242   1.557   2.313
 1427SOL     OW 5737   4.011   1.689   2.211
 1427SOL    HW2 5738   4.086   1.644   2.249
 1427SOL    HW3 5739   3.935   1.645   2.247
 1427SOL    MW4 5740   4.011   1.677   2.221
 1428SOL     OW 5741   4.013   1.957   2.295
 1428SOL    HW2 5742   4.005   1.957   2.391
 1428SOL    HW3 5743   4.005   1.865   2.271
 1428SOL    MW4 5744   4.011   1.945   2.305
 1429SOL     OW 5745   4.275   2.041   2.207
 1429SOL    HW2 5746   4.296   2.123   2.252
 1429SOL    HW3 5747   4.188   2.017   2.239
 1429SOL    MW4 5748   4.266   2.049   2.217
 1430SOL     OW 5749   4.268   2.308   2.319
 1430SOL    HW2 5750   4.183   2.346   2.300
 1430SOL    HW3 5751   4.331   2.365   2.274
 1430SOL    MW4 5752   4.265   2.320   2.310
 1431SOL     OW 5753   4.025   2.439   2.220
 1431SOL    HW2 5754   4.020   2.526   2.261
 1431SOL    HW3 5755   3.949   2.393   2.253
 1431SOL    MW4 5756   4.015   2.445   2.230
 1432SOL     OW 5757   3.999   2.694   2.328
 1432SOL    HW2 5758   3.995   2.704   2.424
 1432SOL    HW3 5759   3.915   2.730   2.297
 1432SOL    MW4 5760   3.987   2.700   2.337
 1433SOL     OW 5761   4.218   2.832   2.225
 1433SOL    HW2 5762   4.139   2.785   2.251
 1433SOL    HW3 5763   4.290   2.780   2.261
 1433SOL    MW4 5764   4.217   2.819   2.233
 1434SOL     OW 5765   4.247   3.070   2.330
 1434SOL    HW2 5766   4.250   2.981   2.296
 1434SOL    HW3 5767   4.321   3.114   2.288
 1434SOL    MW4 5768   4.257   3.064   2.320
 1435SOL     OW 5769   4.022   3.215   2.230
 1435SOL    HW2 5770   3.993   3.294   2.275
 1435SOL    HW3 5771   4.103   3.191   2.275
 1435SOL    MW4 5772   4.029   3.222   2.242
 1436SOL     OW 5773   4.006   3.468   2.351
 1436SOL    HW2 5774   4.077   3.527   2.327
 1436SOL    HW3 5775   3.929   3.506   2.309
 1436SOL    MW4 5776   4.005   3.481   2.342
 1437SOL     OW 5777   4.233   3.612   2.262
 1437SOL    HW2 5778   4.255   3.700   2.292
 1437SOL    HW3 5779   4.208   3.623   2.170
 1437SOL    MW4 5780   4.233   3.625   2.254
 1438SOL     OW 5781   4.293   3.874   2.347
 1438SOL    HW2 5782   4.286   3.905   2.438
 1438SOL    HW3 5783   4.381   3.901   2.320
 1438SOL    MW4 5784   4.303   3.882   2.355
 1439SOL     OW 5785   4.052   3.981   2.226
 1439SOL    HW2 5786   4.136   3.944   2.255
 1439SOL    HW3 5787   4.055   3.977   2.131
 1439SOL    MW4 5788   4.064   3.976   2.217
 1440SOL     OW 5789   4.023   4.254   2.310
 1440SOL    HW2 5790   4.104   4.292   2.276
 1440SOL    HW3 5791   4.011   4.174   2.258
 1440SOL    MW4 5792   4.032   4.248   2.299
 1441SOL     OW 5793   4.286   4.355   2.259
 1441SOL    HW2 5794   4.300   4.448   2.276
 1441SOL    HW3 5795   4.366   4.312   2.289
 1441SOL    MW4 5796   4.298   4.361   2.265
 1442SOL     OW 5797   0.240   4.653   2.633
 1442SOL    HW2 5798   0.246   4.570   2.681
 1442SOL    HW3 5799   0.163   4.696   2.670
 1442SOL    MW4 5800   0.230   4.648   2.644
 1443SOL     OW 5801   0.026   0.115   2.739
 1443SOL    HW2 5802  -0.001   0.099   2.830
 1443SOL    HW3 5803   0.017   0.209   2.727
 1443SOL    MW4 5804   0.022   0.125   2.750
 1444SOL     OW 5805   4.471   0.365   2.629
 1444SOL    HW2 5806   4.558   0.405   2.643
 1444SOL    HW3 5807   4.466   0.354   2.534
 1444SOL    MW4 5808   4.482   0.369   2.618
 1445SOL     OW 5809   0.215   0.515   2.700
 1445SOL    HW2 5810   0.219   0.505   2.795
 1445SOL    HW3 5811   0.299   0.483   2.669
 1445SOL    MW4 5812   0.226   0.509   2.708
 1446SOL     OW 5813   0.208   0.770   2.606
 1446SOL    HW2 5814   0.289   0.795   2.650
 1446SOL    HW3 5815   0.195   0.678   2.627
 1446SOL    MW4 5816   0.217   0.761   2.615
 1447SOL     OW 5817   4.488   0.910   2.734
 1447SOL    HW2 5818   4.414   0.854   2.713
 1447SOL    HW3 5819   4.565   0.861   2.704
 1447SOL    MW4 5820   4.488   0.896   2.727
 1448SOL     OW 5821   0.017   1.165   2.624
 1448SOL    HW2 5822   0.092   1.210   2.664
 1448SOL    HW3 5823   0.020   1.076   2.660
 1448SOL    MW4 5824   0.027   1.159   2.634
 1449SOL     OW 5825   0.224   1.277   2.748
 1449SOL    HW2 5826   0.309   1.237   2.730
 1449SOL    HW3 5827   0.229   1.363   2.707
 1449SOL    MW4 5828   0.236   1.283   2.740
 1450SOL     OW 5829   0.229   1.516   2.610
 1450SOL    HW2 5830   0.302   1.568   2.644
 1450SOL    HW3 5831   0.152   1.570   2.624
 1450SOL    MW4 5832   0.229   1.530   2.616
 1451SOL     OW 5833   0.005   1.657   2.694
 1451SOL    HW2 5834   0.017   1.664   2.788
 1451SOL    HW3 5835   0.001   1.747   2.663
 1451SOL    MW4 5836   0.006   1.670   2.702
 1452SOL     OW 5837   4.456   1.942   2.625
 1452SOL    HW2 5838   4.539   1.968   2.666
 1452SOL    HW3 5839   4.472   1.949   2.531
 1452SOL    MW4 5840   4.469   1.947   2.618
 1453SOL     OW 5841   0.201   2.025   2.703
 1453SOL    HW2 5842   0.289   2.000   2.675
 1453SOL    HW3 5843   0.191   2.116   2.674
 1453SOL    MW4 5844   0.211   2.034   2.696
 1454SOL     OW 5845   0.221   2.302   2.612
 1454SOL    HW2 5846   0.303   2.334   2.651
 1454SOL    HW3 5847   0.156   2.368   2.636
 1454SOL    MW4 5848   0.223   2.315   2.620
 1455SOL     OW 5849   0.013   2.470   2.706
 1455SOL    HW2 5850   0.009   2.464   2.801
 1455SOL    HW3 5851  -0.069   2.429   2.676
 1455SOL    MW4 5852   0.001   2.464   2.714
 1456SOL     OW 5853   4.469   2.728   2.591
 1456SOL    HW2 5854   4.399   2.779   2.631
 1456SOL    HW3 5855   4.469   2.645   2.638
 1456SOL    MW4 5856   4.460   2.724   2.603
 1457SOL     OW 5857   0.222   2.825   2.714
 1457SOL    HW2 5858   0.235   2.914   2.680
 1457SOL    HW3 5859   0.137   2.798   2.678
 1457SOL    MW4 5860   0.212   2.833   2.705
 1458SOL     OW 5861   0.197   3.080   2.622
 1458SOL    HW2 5862   0.269   3.135   2.653
 1458SOL    HW3 5863   0.199   3.089   2.526
 1458SOL    MW4 5864   0.207   3.088   2.613
 1459SOL     OW 5865   4.466   3.240   2.704
 1459SOL    HW2 5866   4.397   3.192   2.658
 1459SOL    HW3 5867   4.546   3.189   2.688
 1459SOL    MW4 5868   4.468   3.227   2.696
 1460SOL     OW 5869   4.475   3.511   2.622
 1460SOL    HW2 5870   4.550   3.555   2.663
 1460SOL    HW3 5871   4.480   3.421   2.654
 1460SOL    MW4 5872   4.485   3.505   2.632
 1461SOL     OW 5873   0.222   3.640   2.747
 1461SOL    HW2 5874   0.231   3.645   2.842
 1461SOL    HW3 5875   0.294   3.584   2.719
 1461SOL    MW4 5876   0.233   3.633   2.756
 1462SOL     OW 5877   0.327   3.827   2.567
 1462SOL    HW2 5878   0.274   3.757   2.605
 1462SOL    HW3 5879   0.295   3.837   2.478
 1462SOL    MW4 5880   0.316   3.819   2.560
 1463SOL     OW 5881   0.081   3.963   2.683
 1463SOL    HW2 5882   0.075   4.058   2.684
 1463SOL    HW3 5883   0.166   3.944   2.644
 1463SOL    MW4 5884   0.091   3.973   2.678
 1464SOL     OW 5885   0.035   4.225   2.636
 1464SOL    HW2 5886  -0.049   4.269   2.650
 1464SOL    HW3 5887   0.101   4.286   2.670
 1464SOL    MW4 5888   0.033   4.239   2.642
 1465SOL     OW 5889   0.234   4.386   2.727
 1465SOL    HW2 5890   0.230   4.386   2.823
 1465SOL    HW3 5891   0.305   4.324   2.706
 1465SOL    MW4 5892   0.243   4.377   2.737
 1466SOL     OW 5893   0.675   4.653   2.605
 1466SOL    HW2 5894   0.750   4.704   2.635
 1466SOL    HW3 5895   0.599   4.695   2.645
 1466SOL    MW4 5896   0.675   4.665   2.614
 1467SOL     OW 5897   0.459   0.129   2.708
 1467SOL    HW2 5898   0.450   0.137   2.803
 1467SOL    HW3 5899   0.376   0.090   2.679
 1467SOL    MW4 5900   0.447   0.125   2.717
 1468SOL     OW 5901   0.441   0.402   2.621
 1468SOL    HW2 5902   0.524   0.440   2.651
 1468SOL    HW3 5903   0.445   0.311   2.650
 1468SOL    MW4 5904   0.453   0.395   2.629
 1469SOL     OW 5905   0.669   0.512   2.710
 1469SOL    HW2 5906   0.673   0.508   2.806
 1469SOL    HW3 5907   0.741   0.456   2.681
 1469SOL    MW4 5908   0.679   0.504   2.719
 1470SOL     OW 5909   0.661   0.758   2.625
 1470SOL    HW2 5910   0.722   0.809   2.679
 1470SOL    HW3 5911   0.665   0.670   2.662
 1470SOL    MW4 5912   0.670   0.753   2.637
 1471SOL     OW 5913   0.429   0.867   2.738
 1471SOL    HW2 5914   0.433   0.962   2.727
 1471SOL    HW3 5915   0.512   0.835   2.703
 1471SOL    MW4 5916   0.440   0.875   2.732
 1472SOL     OW 5917   0.440   1.134   2.674
 1472SOL    HW2 5918   0.520   1.185   2.691
 1472SOL    HW3 5919   0.439   1.123   2.579
 1472SOL    MW4 5920   0.451   1.140   2.664
 1473SOL     OW 5921   0.652   1.283   2.752
 1473SOL    HW2 5922   0.657   1.300   2.846
 1473SOL    HW3 5923   0.734   1.240   2.731
 1473SOL    MW4 5924   0.663   1.280   2.762
 1474SOL     OW 5925   0.649   1.538   2.627
 1474SOL    HW2 5926   0.580   1.583   2.675
 1474SOL    HW3 5927   0.665   1.458   2.676
 1474SOL    MW4 5928   0.642   1.534   2.639
 1475SOL     OW 5929   0.441   1.675   2.723
 1475SOL    HW2 5930   0.409   1.678   2.813
 1475SOL    HW3 5931   0.435   1.766   2.693
 1475SOL    MW4 5932   0.436   1.688   2.731
 1476SOL     OW 5933   0.454   1.944   2.631
 1476SOL    HW2 5934   0.530   1.997   2.650
 1476SOL    HW3 5935   0.447   1.944   2.535
 1476SOL    MW4 5936   0.463   1.951   2.621
 1477SOL     OW 5937   0.667   2.095   2.716
 1477SOL    HW2 5938   0.679   2.092   2.811
 1477SOL    HW3 5939   0.742   2.047   2.681
 1477SOL    MW4 5940   0.678   2.088   2.724
 1478SOL     OW 5941   0.665   2.348   2.586
 1478SOL    HW2 5942   0.730   2.404   2.627
 1478SOL    HW3 5943   0.676   2.263   2.627
 1478SOL    MW4 5944   0.675   2.344   2.597
 1479SOL     OW 5945   0.429   2.419   2.731
 1479SOL    HW2 5946   0.402   2.508   2.709
 1479SOL    HW3 5947   0.511   2.406   2.684
 1479SOL    MW4 5948   0.436   2.429   2.722
 1480SOL     OW 5949   0.421   2.677   2.605
 1480SOL    HW2 5950   0.492   2.736   2.632
 1480SOL    HW3 5951   0.341   2.720   2.635
 1480SOL    MW4 5952   0.420   2.691   2.612
 1481SOL     OW 5953   0.621   2.846   2.717
 1481SOL    HW2 5954   0.640   2.831   2.809
 1481SOL    HW3 5955   0.623   2.941   2.707
 1481SOL    MW4 5956   0.624   2.856   2.728
 1482SOL     OW 5957   0.661   3.115   2.663
 1482SOL    HW2 5958   0.735   3.160   2.704
 1482SOL    HW3 5959   0.693   3.088   2.577
 1482SOL    MW4 5960   0.675   3.117   2.657
 1483SOL     OW 5961   0.415   3.232   2.725
 1483SOL    HW2 5962   0.427   3.232   2.820
 1483SOL    HW3 5963   0.491   3.186   2.691
 1483SOL    MW4 5964   0.426   3.226   2.733
 1484SOL     OW 5965   0.416   3.486   2.646
 1484SOL    HW2 5966   0.425   3.395   2.673
 1484SOL    HW3 5967   0.412   3.482   2.551
 1484SOL    MW4 5968   0.417   3.474   2.637
 1485SOL     OW 5969   0.659   3.615   2.720
 1485SOL    HW2 5970   0.640   3.626   2.813
 1485SOL    HW3 5971   0.581   3.572   2.685
 1485SOL    MW4 5972   0.646   3.611   2.727
 1486SOL     OW 5973   0.688   3.843   2.601
 1486SOL    HW2 5974   0.613   3.883   2.644
 1486SOL    HW3 5975   0.696   3.756   2.641
 1486SOL    MW4 5976   0.679   3.837   2.612
 1487SOL     OW 5977   0.476   3.998   2.718
 1487SOL    HW2 5978   0.485   4.085   2.679
 1487SOL    HW3 5979   0.424   3.948   2.655
 1487SOL    MW4 5980   0.471   4.003   2.705
 1488SOL     OW 5981   0.445   4.249   2.603
 1488SOL    HW2 5982   0.515   4.306   2.636
 1488SOL    HW3 5983   0.427   4.282   2.515
 1488SOL    MW4 5984   0.452   4.261   2.596
 1489SOL     OW 5985   0.654   4.400   2.711
 1489SOL    HW2 5986   0.732   4.357   2.676
 1489SOL    HW3 5987   0.659   4.490   2.678
 1489SOL    MW4 5988   0.665   4.406   2.702
 1490SOL     OW 5989   1.165   4.608   2.637
 1490SOL    HW2 5990   1.234   4.641   2.695
 1490SOL    HW3 5991   1.144   4.521   2.671
 1490SOL    MW4 5992   1.171   4.601   2.649
 1491SOL     OW 5993   0.917   0.086   2.686
 1491SOL    HW2 5994   0.932   0.073   2.780
 1491SOL    HW3 5995   0.990   0.041   2.644
 1491SOL    MW4 5996   0.929   0.078   2.693
 1492SOL     OW 5997   0.884   0.349   2.635
 1492SOL    HW2 5998   0.906   0.260   2.663
 1492SOL    HW3 5999   0.904   0.351   2.542
 1492SOL    MW4 6000   0.889   0.337   2.626
 1493SOL     OW 6001   1.091   0.487   2.765
 1493SOL    HW2 6002   1.085   0.565   2.710
 1493SOL    HW3 6003   1.012   0.437   2.745
 1493SOL    MW4 6004   1.080   0.490   2.755
 1494SOL     OW 6005   1.075   0.730   2.631
 1494SOL    HW2 6006   1.153   0.772   2.667
 1494SOL    HW3 6007   1.073   0.758   2.540
 1494SOL    MW4 6008   1.085   0.739   2.624
 1495SOL     OW 6009   0.880   0.903   2.735
 1495SOL    HW2 6010   0.885   0.892   2.830
 1495SOL    HW3 6011   0.941   0.838   2.700
 1495SOL    MW4 6012   0.889   0.893   2.743
 1496SOL     OW 6013   0.866   1.159   2.640
 1496SOL    HW2 6014   0.875   1.068   2.669
 1496SOL    HW3 6015   0.852   1.152   2.546
 1496SOL    MW4 6016   0.866   1.146   2.632
 1497SOL     OW 6017   1.108   1.218   2.719
 1497SOL    HW2 6018   1.109   1.313   2.709
 1497SOL    HW3 6019   1.020   1.192   2.692
 1497SOL    MW4 6020   1.097   1.227   2.714
 1498SOL     OW 6021   1.121   1.508   2.674
 1498SOL    HW2 6022   1.048   1.568   2.690
 1498SOL    HW3 6023   1.134   1.511   2.579
 1498SOL    MW4 6024   1.113   1.516   2.663
 1499SOL     OW 6025   0.891   1.683   2.741
 1499SOL    HW2 6026   0.888   1.681   2.837
 1499SOL    HW3 6027   0.803   1.658   2.714
 1499SOL    MW4 6028   0.879   1.680   2.750
 1500SOL     OW 6029   0.872   1.942   2.651
 1500SOL    HW2 6030   0.952   1.983   2.684
 1500SOL    HW3 6031   0.881   1.850   2.674
 1500SOL    MW4 6032   0.884   1.935   2.658
 1501SOL     OW 6033   1.098   2.091   2.741
 1501SOL    HW2 6034   1.176   2.041   2.718
 1501SOL    HW3 6035   1.108   2.174   2.695
 1501SOL    MW4 6036   1.109   2.096   2.732
 1502SOL     OW 6037   1.077   2.362   2.657
 1502SOL    HW2 6038   1.160   2.399   2.686
 1502SOL    HW3 6039   1.075   2.379   2.563
 1502SOL    MW4 6040   1.087   2.369   2.648
 1503SOL     OW 6041   0.838   2.489   2.744
 1503SOL    HW2 6042   0.838   2.579   2.712
 1503SOL    HW3 6043   0.925   2.456   2.720
 1503SOL    MW4 6044   0.850   2.497   2.736
 1504SOL     OW 6045   0.851   2.724   2.600
 1504SOL    HW2 6046   0.934   2.758   2.635
 1504SOL    HW3 6047   0.784   2.779   2.641
 1504SOL    MW4 6048   0.853   2.736   2.610
 1505SOL     OW 6049   1.083   2.832   2.692
 1505SOL    HW2 6050   1.106   2.825   2.785
 1505SOL    HW3 6051   1.159   2.795   2.646
 1505SOL    MW4 6052   1.096   2.826   2.699
 1506SOL     OW 6053   1.148   3.096   2.628
 1506SOL    HW2 6054   1.122   3.007   2.651
 1506SOL    HW3 6055   1.136   3.101   2.533
 1506SOL    MW4 6056   1.143   3.085   2.619
 1507SOL     OW 6057   0.919   3.208   2.753
 1507SOL    HW2 6058   0.903   3.286   2.701
 1507SOL    HW3 6059   1.006   3.179   2.725
 1507SOL    MW4 6060   0.928   3.215   2.743
 1508SOL     OW 6061   0.887   3.462   2.627
 1508SOL    HW2 6062   0.961   3.508   2.668
 1508SOL    HW3 6063   0.810   3.512   2.655
 1508SOL    MW4 6064   0.887   3.475   2.636
 1509SOL     OW 6065   1.102   3.599   2.733
 1509SOL    HW2 6066   1.101   3.626   2.825
 1509SOL    HW3 6067   1.100   3.681   2.684
 1509SOL    MW4 6068   1.102   3.613   2.739
 1510SOL     OW 6069   1.098   3.851   2.628
 1510SOL    HW2 6070   1.178   3.889   2.666
 1510SOL    HW3 6071   1.110   3.859   2.534
 1510SOL    MW4 6072   1.110   3.857   2.621
 1511SOL     OW 6073   0.893   4.008   2.714
 1511SOL    HW2 6074   0.958   3.963   2.659
 1511SOL    HW3 6075   0.809   3.970   2.686
 1511SOL    MW4 6076   0.890   3.997   2.703
 1512SOL     OW 6077   0.888   4.266   2.646
 1512SOL    HW2 6078   0.892   4.174   2.671
 1512SOL    HW3 6079   0.884   4.265   2.550
 1512SOL    MW4 6080   0.888   4.254   2.637
 1513SOL     OW 6081   1.144   4.351   2.734
 1513SOL    HW2 6082   1.137   4.378   2.826
 1513SOL    HW3 6083   1.055   4.327   2.709
 1513SOL    MW4 6084   1.131   4.351   2.743
 1514SOL     OW 6085   1.552   4.622   2.604
 1514SOL    HW2 6086   1.559   4.531   2.631
 1514SOL    HW3 6087   1.567   4.621   2.509
 1514SOL    MW4 6088   1.555   4.610   2.595
 1515SOL     OW 6089   1.363   0.111   2.750
 1515SOL    HW2 6090   1.332   0.194   2.713
 1515SOL    HW3 6091   1.413   0.070   2.679
 1515SOL    MW4 6092   1.365   0.116   2.736
 1516SOL     OW 6093   1.303   0.370   2.644
 1516SOL    HW2 6094   1.383   0.417   2.666
 1516SOL    HW3 6095   1.234   0.415   2.694
 1516SOL    MW4 6096   1.304   0.382   2.654
 1517SOL     OW 6097   1.548   0.478   2.738
 1517SOL    HW2 6098   1.610   0.418   2.698
 1517SOL    HW3 6099   1.566   0.563   2.698
 1517SOL    MW4 6100   1.558   0.482   2.728
 1518SOL     OW 6101   1.567   0.741   2.626
 1518SOL    HW2 6102   1.475   0.763   2.641
 1518SOL    HW3 6103   1.577   0.744   2.531
 1518SOL    MW4 6104   1.556   0.744   2.615
 1519SOL     OW 6105   1.321   0.828   2.713
 1519SOL    HW2 6106   1.342   0.835   2.806
 1519SOL    HW3 6107   1.325   0.917   2.680
 1519SOL    MW4 6108   1.325   0.840   2.721
 1520SOL     OW 6109   1.348   1.084   2.618
 1520SOL    HW2 6110   1.419   1.140   2.648
 1520SOL    HW3 6111   1.269   1.125   2.653
 1520SOL    MW4 6112   1.347   1.097   2.627
 1521SOL     OW 6113   1.539   1.242   2.730
 1521SOL    HW2 6114   1.558   1.264   2.821
 1521SOL    HW3 6115   1.621   1.205   2.697
 1521SOL    MW4 6116   1.552   1.240   2.737
 1522SOL     OW 6117   1.525   1.509   2.626
 1522SOL    HW2 6118   1.528   1.417   2.651
 1522SOL    HW3 6119   1.525   1.508   2.530
 1522SOL    MW4 6120   1.525   1.497   2.616
 1523SOL     OW 6121   1.337   1.675   2.715
 1523SOL    HW2 6122   1.410   1.620   2.689
 1523SOL    HW3 6123   1.261   1.618   2.714
 1523SOL    MW4 6124   1.336   1.660   2.712
 1524SOL     OW 6125   1.331   1.956   2.649
 1524SOL    HW2 6126   1.333   1.866   2.682
 1524SOL    HW3 6127   1.330   1.947   2.554
 1524SOL    MW4 6128   1.331   1.943   2.641
 1525SOL     OW 6129   1.568   2.069   2.721
 1525SOL    HW2 6130   1.638   2.012   2.690
 1525SOL    HW3 6131   1.488   2.031   2.687
 1525SOL    MW4 6132   1.567   2.057   2.713
 1526SOL     OW 6133   1.552   2.340   2.657
 1526SOL    HW2 6134   1.638   2.379   2.672
 1526SOL    HW3 6135   1.562   2.248   2.682
 1526SOL    MW4 6136   1.564   2.333   2.662
 1527SOL     OW 6137   1.340   2.487   2.731
 1527SOL    HW2 6138   1.339   2.574   2.690
 1527SOL    HW3 6139   1.422   2.448   2.701
 1527SOL    MW4 6140   1.351   2.494   2.721
 1528SOL     OW 6141   1.320   2.732   2.571
 1528SOL    HW2 6142   1.409   2.759   2.593
 1528SOL    HW3 6143   1.316   2.739   2.476
 1528SOL    MW4 6144   1.331   2.737   2.561
 1529SOL     OW 6145   1.579   2.784   2.698
 1529SOL    HW2 6146   1.589   2.816   2.788
 1529SOL    HW3 6147   1.664   2.743   2.678
 1529SOL    MW4 6148   1.592   2.783   2.707
 1530SOL     OW 6149   1.588   3.040   2.605
 1530SOL    HW2 6150   1.669   3.080   2.637
 1530SOL    HW3 6151   1.597   2.947   2.627
 1530SOL    MW4 6152   1.600   3.033   2.612
 1531SOL     OW 6153   1.389   3.221   2.680
 1531SOL    HW2 6154   1.461   3.163   2.658
 1531SOL    HW3 6155   1.310   3.168   2.666
 1531SOL    MW4 6156   1.388   3.207   2.675
 1532SOL     OW 6157   1.312   3.466   2.593
 1532SOL    HW2 6158   1.322   3.378   2.627
 1532SOL    HW3 6159   1.227   3.496   2.626
 1532SOL    MW4 6160   1.302   3.459   2.602
 1533SOL     OW 6161   1.544   3.580   2.727
 1533SOL    HW2 6162   1.611   3.523   2.688
 1533SOL    HW3 6163   1.467   3.569   2.672
 1533SOL    MW4 6164   1.543   3.571   2.715
 1534SOL     OW 6165   1.595   3.835   2.653
 1534SOL    HW2 6166   1.515   3.876   2.684
 1534SOL    HW3 6167   1.586   3.743   2.677
 1534SOL    MW4 6168   1.583   3.828   2.660
 1535SOL     OW 6169   1.351   3.944   2.748
 1535SOL    HW2 6170   1.365   3.955   2.842
 1535SOL    HW3 6171   1.353   4.033   2.712
 1535SOL    MW4 6172   1.353   3.957   2.755
 1536SOL     OW 6173   1.352   4.198   2.636
 1536SOL    HW2 6174   1.278   4.244   2.674
 1536SOL    HW3 6175   1.349   4.219   2.543
 1536SOL    MW4 6176   1.342   4.207   2.629
 1537SOL     OW 6177   1.556   4.366   2.738
 1537SOL    HW2 6178   1.546   4.352   2.832
 1537SOL    HW3 6179   1.485   4.315   2.698
 1537SOL    MW4 6180   1.545   4.358   2.745
 1538SOL     OW 6181   1.972   0.023   2.584
 1538SOL    HW2 6182   2.048   0.073   2.612
 1538SOL    HW3 6183   1.992  -0.004   2.494
 1538SOL    MW4 6184   1.984   0.026   2.576
 1539SOL     OW 6185   1.742   0.104   2.742
 1539SOL    HW2 6186   1.822   0.072   2.699
 1539SOL    HW3 6187   1.672   0.050   2.705
 1539SOL    MW4 6188   1.743   0.093   2.732
 1540SOL     OW 6189   1.761   0.355   2.595
 1540SOL    HW2 6190   1.808   0.400   2.666
 1540SOL    HW3 6191   1.780   0.262   2.610
 1540SOL    MW4 6192   1.770   0.349   2.607
 1541SOL     OW 6193   1.953   0.484   2.760
 1541SOL    HW2 6194   2.028   0.449   2.712
 1541SOL    HW3 6195   1.948   0.575   2.734
 1541SOL    MW4 6196   1.963   0.491   2.750
 1542SOL     OW 6197   2.024   0.755   2.662
 1542SOL    HW2 6198   1.941   0.801   2.666
 1542SOL    HW3 6199   2.051   0.762   2.570
 1542SOL    MW4 6200   2.017   0.762   2.650
 1543SOL     OW 6201   1.766   0.877   2.741
 1543SOL    HW2 6202   1.771   0.964   2.703
 1543SOL    HW3 6203   1.686   0.839   2.705
 1543SOL    MW4 6204   1.756   0.883   2.732
 1544SOL     OW 6205   1.781   1.141   2.620
 1544SOL    HW2 6206   1.858   1.190   2.648
 1544SOL    HW3 6207   1.793   1.127   2.526
 1544SOL    MW4 6208   1.793   1.145   2.612
 1545SOL     OW 6209   1.990   1.284   2.698
 1545SOL    HW2 6210   1.983   1.277   2.794
 1545SOL    HW3 6211   2.071   1.238   2.677
 1545SOL    MW4 6212   2.000   1.277   2.708
 1546SOL     OW 6213   2.001   1.555   2.654
 1546SOL    HW2 6214   1.918   1.588   2.687
 1546SOL    HW3 6215   1.997   1.460   2.668
 1546SOL    MW4 6216   1.990   1.547   2.660
 1547SOL     OW 6217   1.744   1.675   2.740
 1547SOL    HW2 6218   1.743   1.673   2.836
 1547SOL    HW3 6219   1.681   1.608   2.714
 1547SOL    MW4 6220   1.736   1.665   2.749
 1548SOL     OW 6221   1.782   1.912   2.635
 1548SOL    HW2 6222   1.851   1.946   2.693
 1548SOL    HW3 6223   1.768   1.822   2.665
 1548SOL    MW4 6224   1.790   1.905   2.647
 1549SOL     OW 6225   2.004   2.038   2.769
 1549SOL    HW2 6226   2.009   2.032   2.865
 1549SOL    HW3 6227   1.980   2.129   2.752
 1549SOL    MW4 6228   2.001   2.049   2.780
 1550SOL     OW 6229   1.966   2.293   2.603
 1550SOL    HW2 6230   2.039   2.342   2.640
 1550SOL    HW3 6231   1.978   2.299   2.509
 1550SOL    MW4 6232   1.977   2.300   2.596
 1551SOL     OW 6233   1.783   2.464   2.721
 1551SOL    HW2 6234   1.808   2.465   2.813
 1551SOL    HW3 6235   1.840   2.399   2.681
 1551SOL    MW4 6236   1.794   2.456   2.727
 1552SOL     OW 6237   1.816   2.698   2.614
 1552SOL    HW2 6238   1.800   2.608   2.643
 1552SOL    HW3 6239   1.806   2.695   2.518
 1552SOL    MW4 6240   1.812   2.686   2.605
 1553SOL     OW 6241   2.035   2.847   2.714
 1553SOL    HW2 6242   2.108   2.800   2.673
 1553SOL    HW3 6243   1.957   2.805   2.679
 1553SOL    MW4 6244   2.035   2.835   2.704
 1554SOL     OW 6245   2.036   3.097   2.629
 1554SOL    HW2 6246   2.027   3.009   2.665
 1554SOL    HW3 6247   2.024   3.086   2.534
 1554SOL    MW4 6248   2.033   3.084   2.621
 1555SOL     OW 6249   1.801   3.198   2.707
 1555SOL    HW2 6250   1.786   3.284   2.669
 1555SOL    HW3 6251   1.893   3.179   2.691
 1555SOL    MW4 6252   1.811   3.207   2.700
 1556SOL     OW 6253   1.763   3.446   2.593
 1556SOL    HW2 6254   1.836   3.501   2.621
 1556SOL    HW3 6255   1.773   3.437   2.499
 1556SOL    MW4 6256   1.774   3.452   2.584
 1557SOL     OW 6257   1.965   3.601   2.675
 1557SOL    HW2 6258   1.963   3.598   2.771
 1557SOL    HW3 6259   2.051   3.568   2.651
 1557SOL    MW4 6260   1.976   3.596   2.685
 1558SOL     OW 6261   2.009   3.881   2.607
 1558SOL    HW2 6262   1.944   3.932   2.656
 1558SOL    HW3 6263   1.990   3.790   2.629
 1558SOL    MW4 6264   1.998   3.876   2.616
 1559SOL     OW 6265   1.793   4.011   2.744
 1559SOL    HW2 6266   1.790   4.084   2.683
 1559SOL    HW3 6267   1.729   3.948   2.711
 1559SOL    MW4 6268   1.785   4.012   2.732
 1560SOL     OW 6269   1.795   4.260   2.613
 1560SOL    HW2 6270   1.716   4.283   2.661
 1560SOL    HW3 6271   1.772   4.272   2.521
 1560SOL    MW4 6272   1.782   4.264   2.607
 1561SOL     OW 6273   2.017   4.419   2.686
 1561SOL    HW2 6274   1.943   4.363   2.661
 1561SOL    HW3 6275   1.990   4.507   2.658
 1561SOL    MW4 6276   2.004   4.423   2.679
 1562SOL     OW 6277   2.449   0.025   2.631
 1562SOL    HW2 6278   2.525   0.068   2.670
 1562SOL    HW3 6279   2.471   0.018   2.538
 1562SOL    MW4 6280   2.462   0.030   2.624
 1563SOL     OW 6281   2.211   0.129   2.701
 1563SOL    HW2 6282   2.219   0.126   2.796
 1563SOL    HW3 6283   2.294   0.093   2.669
 1563SOL    MW4 6284   2.223   0.124   2.709
 1564SOL     OW 6285   2.164   0.381   2.613
 1564SOL    HW2 6286   2.177   0.296   2.654
 1564SOL    HW3 6287   2.180   0.366   2.520
 1564SOL    MW4 6288   2.168   0.368   2.606
 1565SOL     OW 6289   2.412   0.496   2.727
 1565SOL    HW2 6290   2.440   0.578   2.686
 1565SOL    HW3 6291   2.331   0.473   2.682
 1565SOL    MW4 6292   2.405   0.504   2.716
 1566SOL     OW 6293   2.459   0.747   2.615
 1566SOL    HW2 6294   2.391   0.810   2.641
 1566SOL    HW3 6295   2.467   0.760   2.520
 1566SOL    MW4 6296   2.451   0.757   2.606
 1567SOL     OW 6297   2.242   0.906   2.747
 1567SOL    HW2 6298   2.257   0.912   2.841
 1567SOL    HW3 6299   2.164   0.851   2.738
 1567SOL    MW4 6300   2.233   0.900   2.758
 1568SOL     OW 6301   2.231   1.152   2.642
 1568SOL    HW2 6302   2.222   1.070   2.690
 1568SOL    HW3 6303   2.210   1.129   2.551
 1568SOL    MW4 6304   2.227   1.138   2.636
 1569SOL     OW 6305   2.485   1.235   2.757
 1569SOL    HW2 6306   2.552   1.201   2.698
 1569SOL    HW3 6307   2.403   1.200   2.723
 1569SOL    MW4 6308   2.483   1.226   2.745
 1570SOL     OW 6309   2.468   1.511   2.677
 1570SOL    HW2 6310   2.380   1.545   2.696
 1570SOL    HW3 6311   2.466   1.420   2.708
 1570SOL    MW4 6312   2.456   1.503   2.684
 1571SOL     OW 6313   2.243   1.656   2.764
 1571SOL    HW2 6314   2.248   1.745   2.732
 1571SOL    HW3 6315   2.158   1.624   2.732
 1571SOL    MW4 6316   2.232   1.663   2.756
 1572SOL     OW 6317   2.234   1.912   2.648
 1572SOL    HW2 6318   2.152   1.957   2.667
 1572SOL    HW3 6319   2.235   1.904   2.552
 1572SOL    MW4 6320   2.224   1.917   2.638
 1573SOL     OW 6321   2.443   2.064   2.748
 1573SOL    HW2 6322   2.429   2.150   2.709
 1573SOL    HW3 6323   2.369   2.011   2.719
 1573SOL    MW4 6324   2.432   2.068   2.739
 1574SOL     OW 6325   2.439   2.305   2.647
 1574SOL    HW2 6326   2.526   2.323   2.682
 1574SOL    HW3 6327   2.450   2.307   2.552
 1574SOL    MW4 6328   2.452   2.307   2.639
 1575SOL     OW 6329   2.203   2.454   2.717
 1575SOL    HW2 6330   2.226   2.461   2.810
 1575SOL    HW3 6331   2.264   2.389   2.682
 1575SOL    MW4 6332   2.214   2.446   2.725
 1576SOL     OW 6333   2.255   2.713   2.611
 1576SOL    HW2 6334   2.334   2.740   2.658
 1576SOL    HW3 6335   2.246   2.620   2.632
 1576SOL    MW4 6336   2.264   2.704   2.620
 1577SOL     OW 6337   2.477   2.817   2.740
 1577SOL    HW2 6338   2.560   2.772   2.728
 1577SOL    HW3 6339   2.489   2.903   2.700
 1577SOL    MW4 6340   2.489   2.822   2.733
 1578SOL     OW 6341   2.472   3.088   2.645
 1578SOL    HW2 6342   2.401   3.140   2.683
 1578SOL    HW3 6343   2.447   3.079   2.553
 1578SOL    MW4 6344   2.459   3.094   2.638
 1579SOL     OW 6345   2.246   3.233   2.738
 1579SOL    HW2 6346   2.234   3.218   2.832
 1579SOL    HW3 6347   2.178   3.180   2.696
 1579SOL    MW4 6348   2.236   3.224   2.745
 1580SOL     OW 6349   2.233   3.496   2.632
 1580SOL    HW2 6350   2.303   3.546   2.674
 1580SOL    HW3 6351   2.226   3.415   2.682
 1580SOL    MW4 6352   2.241   3.492   2.644
 1581SOL     OW 6353   2.441   3.638   2.729
 1581SOL    HW2 6354   2.446   3.624   2.823
 1581SOL    HW3 6355   2.462   3.731   2.717
 1581SOL    MW4 6356   2.445   3.648   2.740
 1582SOL     OW 6357   2.487   3.896   2.602
 1582SOL    HW2 6358   2.546   3.954   2.650
 1582SOL    HW3 6359   2.400   3.928   2.625
 1582SOL    MW4 6360   2.483   3.908   2.612
 1583SOL     OW 6361   2.263   4.025   2.678
 1583SOL    HW2 6362   2.242   4.005   2.770
 1583SOL    HW3 6363   2.183   4.004   2.631
 1583SOL    MW4 6364   2.249   4.020   2.684
 1584SOL     OW 6365   2.270   4.293   2.616
 1584SOL    HW2 6366   2.283   4.201   2.639
 1584SOL    HW3 6367   2.185   4.316   2.653
 1584SOL    MW4 6368   2.261   4.284   2.624
 1585SOL     OW 6369   2.444   4.434   2.789
 1585SOL    HW2 6370   2.386   4.383   2.733
 1585SOL    HW3 6371   2.449   4.520   2.746
 1585SOL    MW4 6372   2.437   4.439   2.776
 1586SOL     OW 6373   2.892   4.622   2.675
 1586SOL    HW2 6374   2.977   4.647   2.713
 1586SOL    HW3 6375   2.899   4.646   2.582
 1586SOL    MW4 6376   2.905   4.629   2.667
 1587SOL     OW 6377   2.667   0.125   2.758
 1587SOL    HW2 6378   2.667   0.144   2.852
 1587SOL    HW3 6379   2.748   0.075   2.744
 1587SOL    MW4 6380   2.678   0.121   2.768
 1588SOL     OW 6381   2.617   0.360   2.607
 1588SOL    HW2 6382   2.641   0.279   2.650
 1588SOL    HW3 6383   2.537   0.389   2.652
 1588SOL    MW4 6384   2.609   0.353   2.618
 1589SOL     OW 6385   2.863   0.481   2.710
 1589SOL    HW2 6386   2.878   0.566   2.670
 1589SOL    HW3 6387   2.778   0.453   2.676
 1589SOL    MW4 6388   2.854   0.488   2.701
 1590SOL     OW 6389   2.911   0.729   2.624
 1590SOL    HW2 6390   2.989   0.761   2.670
 1590SOL    HW3 6391   2.838   0.763   2.676
 1590SOL    MW4 6392   2.911   0.738   2.637
 1591SOL     OW 6393   2.696   0.860   2.733
 1591SOL    HW2 6394   2.704   0.845   2.827
 1591SOL    HW3 6395   2.613   0.820   2.708
 1591SOL    MW4 6396   2.686   0.853   2.742
 1592SOL     OW 6397   2.704   1.102   2.621
 1592SOL    HW2 6398   2.771   1.158   2.660
 1592SOL    HW3 6399   2.712   1.019   2.667
 1592SOL    MW4 6400   2.714   1.099   2.632
 1593SOL     OW 6401   2.910   1.264   2.725
 1593SOL    HW2 6402   2.892   1.273   2.818
 1593SOL    HW3 6403   3.001   1.235   2.720
 1593SOL    MW4 6404   2.920   1.262   2.737
 1594SOL     OW 6405   2.918   1.532   2.632
 1594SOL    HW2 6406   2.839   1.573   2.668
 1594SOL    HW3 6407   2.908   1.439   2.654
 1594SOL    MW4 6408   2.906   1.525   2.640
 1595SOL     OW 6409   2.695   1.650   2.729
 1595SOL    HW2 6410   2.710   1.645   2.824
 1595SOL    HW3 6411   2.614   1.602   2.714
 1595SOL    MW4 6412   2.687   1.643   2.740
 1596SOL     OW 6413   2.671   1.921   2.641
 1596SOL    HW2 6414   2.683   1.831   2.672
 1596SOL    HW3 6415   2.589   1.950   2.682
 1596SOL    MW4 6416   2.662   1.913   2.651
 1597SOL     OW 6417   2.902   2.048   2.752
 1597SOL    HW2 6418   2.902   2.134   2.712
 1597SOL    HW3 6419   2.819   2.009   2.724
 1597SOL    MW4 6420   2.891   2.054   2.743
 1598SOL     OW 6421   2.891   2.318   2.617
 1598SOL    HW2 6422   2.963   2.359   2.664
 1598SOL    HW3 6423   2.812   2.355   2.655
 1598SOL    MW4 6424   2.890   2.328   2.628
 1599SOL     OW 6425   2.667   2.414   2.743
 1599SOL    HW2 6426   2.658   2.415   2.838
 1599SOL    HW3 6427   2.656   2.505   2.717
 1599SOL    MW4 6428   2.664   2.426   2.752
 1600SOL     OW 6429   2.685   2.662   2.648
 1600SOL    HW2 6430   2.760   2.713   2.678
 1600SOL    HW3 6431   2.694   2.660   2.552
 1600SOL    MW4 6432   2.696   2.669   2.639
 1601SOL     OW 6433   2.884   2.840   2.703
 1601SOL    HW2 6434   2.900   2.854   2.796
 1601SOL    HW3 6435   2.872   2.928   2.667
 1601SOL    MW4 6436   2.884   2.854   2.710
 1602SOL     OW 6437   2.919   3.103   2.629
 1602SOL    HW2 6438   2.833   3.135   2.657
 1602SOL    HW3 6439   2.914   3.103   2.533
 1602SOL    MW4 6440   2.907   3.107   2.620
 1603SOL     OW 6441   2.693   3.203   2.732
 1603SOL    HW2 6442   2.680   3.296   2.713
 1603SOL    HW3 6443   2.609   3.163   2.709
 1603SOL    MW4 6444   2.680   3.210   2.726
 1604SOL     OW 6445   2.667   3.497   2.644
 1604SOL    HW2 6446   2.590   3.549   2.666
 1604SOL    HW3 6447   2.661   3.484   2.549
 1604SOL    MW4 6448   2.656   3.502   2.634
 1605SOL     OW 6449   2.886   3.612   2.781
 1605SOL    HW2 6450   2.869   3.613   2.875
 1605SOL    HW3 6451   2.806   3.578   2.743
 1605SOL    MW4 6452   2.873   3.608   2.789
 1606SOL     OW 6453   2.951   3.849   2.646
 1606SOL    HW2 6454   3.004   3.911   2.696
 1606SOL    HW3 6455   2.946   3.771   2.702
 1606SOL    MW4 6456   2.957   3.847   2.660
 1607SOL     OW 6457   2.720   3.990   2.746
 1607SOL    HW2 6458   2.722   4.074   2.700
 1607SOL    HW3 6459   2.793   3.940   2.709
 1607SOL    MW4 6460   2.730   3.994   2.735
 1608SOL     OW 6461   2.659   4.259   2.660
 1608SOL    HW2 6462   2.738   4.304   2.691
 1608SOL    HW3 6463   2.587   4.309   2.698
 1608SOL    MW4 6464   2.660   4.271   2.669
 1609SOL     OW 6465   2.896   4.354   2.752
 1609SOL    HW2 6466   2.901   4.363   2.847
 1609SOL    HW3 6467   2.888   4.444   2.719
 1609SOL    MW4 6468   2.895   4.367   2.760
 1610SOL     OW 6469   3.397   0.003   2.612
 1610SOL    HW2 6470   3.402  -0.077   2.665
 1610SOL    HW3 6471   3.317   0.046   2.640
 1610SOL    MW4 6472   3.387  -0.002   2.622
 1611SOL     OW 6473   3.138   0.072   2.731
 1611SOL    HW2 6474   3.146   0.068   2.826
 1611SOL    HW3 6475   3.116   0.164   2.713
 1611SOL    MW4 6476   3.137   0.084   2.741
 1612SOL     OW 6477   3.107   0.357   2.649
 1612SOL    HW2 6478   3.022   0.395   2.672
 1612SOL    HW3 6479   3.117   0.376   2.556
 1612SOL    MW4 6480   3.097   0.365   2.640
 1613SOL     OW 6481   3.338   0.443   2.775
 1613SOL    HW2 6482   3.349   0.526   2.727
 1613SOL    HW3 6483   3.258   0.405   2.740
 1613SOL    MW4 6484   3.329   0.449   2.764
 1614SOL     OW 6485   3.384   0.691   2.664
 1614SOL    HW2 6486   3.447   0.754   2.699
 1614SOL    HW3 6487   3.383   0.707   2.570
 1614SOL    MW4 6488   3.392   0.701   2.656
 1615SOL     OW 6489   3.136   0.850   2.743
 1615SOL    HW2 6490   3.144   0.854   2.838
 1615SOL    HW3 6491   3.214   0.803   2.714
 1615SOL    MW4 6492   3.147   0.844   2.752
 1616SOL     OW 6493   3.166   1.129   2.652
 1616SOL    HW2 6494   3.150   1.042   2.688
 1616SOL    HW3 6495   3.159   1.117   2.557
 1616SOL    MW4 6496   3.163   1.116   2.644
 1617SOL     OW 6497   3.375   1.334   2.705
 1617SOL    HW2 6498   3.392   1.337   2.799
 1617SOL    HW3 6499   3.304   1.272   2.695
 1617SOL    MW4 6500   3.368   1.326   2.716
 1618SOL     OW 6501   3.390   1.587   2.596
 1618SOL    HW2 6502   3.310   1.625   2.633
 1618SOL    HW3 6503   3.397   1.501   2.637
 1618SOL    MW4 6504   3.380   1.581   2.606
 1619SOL     OW 6505   3.163   1.675   2.724
 1619SOL    HW2 6506   3.160   1.768   2.702
 1619SOL    HW3 6507   3.080   1.641   2.691
 1619SOL    MW4 6508   3.152   1.683   2.717
 1620SOL     OW 6509   3.137   1.935   2.618
 1620SOL    HW2 6510   3.208   1.981   2.663
 1620SOL    HW3 6511   3.057   1.971   2.657
 1620SOL    MW4 6512   3.136   1.946   2.630
 1621SOL     OW 6513   3.368   2.064   2.724
 1621SOL    HW2 6514   3.368   2.054   2.819
 1621SOL    HW3 6515   3.348   2.157   2.710
 1621SOL    MW4 6516   3.365   2.075   2.735
 1622SOL     OW 6517   3.293   2.339   2.629
 1622SOL    HW2 6518   3.373   2.384   2.658
 1622SOL    HW3 6519   3.305   2.328   2.535
 1622SOL    MW4 6520   3.305   2.344   2.620
 1623SOL     OW 6521   3.080   2.464   2.773
 1623SOL    HW2 6522   3.085   2.546   2.725
 1623SOL    HW3 6523   3.160   2.417   2.748
 1623SOL    MW4 6524   3.091   2.468   2.764
 1624SOL     OW 6525   3.098   2.697   2.619
 1624SOL    HW2 6526   3.178   2.732   2.657
 1624SOL    HW3 6527   3.029   2.757   2.649
 1624SOL    MW4 6528   3.099   2.709   2.628
 1625SOL     OW 6529   3.325   2.809   2.733
 1625SOL    HW2 6530   3.330   2.789   2.827
 1625SOL    HW3 6531   3.407   2.775   2.697
 1625SOL    MW4 6532   3.336   2.802   2.741
 1626SOL     OW 6533   3.350   3.081   2.630
 1626SOL    HW2 6534   3.338   2.995   2.670
 1626SOL    HW3 6535   3.360   3.062   2.537
 1626SOL    MW4 6536   3.350   3.067   2.623
 1627SOL     OW 6537   3.127   3.212   2.765
 1627SOL    HW2 6538   3.195   3.177   2.708
 1627SOL    HW3 6539   3.045   3.178   2.729
 1627SOL    MW4 6540   3.125   3.203   2.753
 1628SOL     OW 6541   3.090   3.476   2.651
 1628SOL    HW2 6542   3.084   3.398   2.707
 1628SOL    HW3 6543   3.023   3.535   2.685
 1628SOL    MW4 6544   3.080   3.473   2.663
 1629SOL     OW 6545   3.322   3.586   2.725
 1629SOL    HW2 6546   3.325   3.589   2.820
 1629SOL    HW3 6547   3.245   3.533   2.705
 1629SOL    MW4 6548   3.312   3.579   2.735
 1630SOL     OW 6549   3.341   3.856   2.657
 1630SOL    HW2 6550   3.334   3.766   2.691
 1630SOL    HW3 6551   3.368   3.844   2.566
 1630SOL    MW4 6552   3.344   3.842   2.649
 1631SOL     OW 6553   3.141   4.010   2.770
 1631SOL    HW2 6554   3.146   4.104   2.751
 1631SOL    HW3 6555   3.213   3.972   2.721
 1631SOL    MW4 6556   3.151   4.018   2.761
 1632SOL     OW 6557   3.147   4.282   2.665
 1632SOL    HW2 6558   3.058   4.298   2.695
 1632SOL    HW3 6559   3.140   4.278   2.569
 1632SOL    MW4 6560   3.135   4.284   2.656
 1633SOL     OW 6561   3.397   4.389   2.715
 1633SOL    HW2 6562   3.400   4.379   2.810
 1633SOL    HW3 6563   3.310   4.359   2.690
 1633SOL    MW4 6564   3.386   4.384   2.724
 1634SOL     OW 6565   3.818   4.608   2.609
 1634SOL    HW2 6566   3.810   4.518   2.640
 1634SOL    HW3 6567   3.737   4.650   2.635
 1634SOL    MW4 6568   3.807   4.601   2.617
 1635SOL     OW 6569   3.624   0.122   2.722
 1635SOL    HW2 6570   3.626   0.212   2.691
 1635SOL    HW3 6571   3.545   0.085   2.682
 1635SOL    MW4 6572   3.613   0.129   2.713
 1636SOL     OW 6573   3.584   0.374   2.655
 1636SOL    HW2 6574   3.646   0.436   2.695
 1636SOL    HW3 6575   3.503   0.385   2.706
 1636SOL    MW4 6576   3.581   0.384   2.667
 1637SOL     OW 6577   3.817   0.497   2.743
 1637SOL    HW2 6578   3.824   0.510   2.838
 1637SOL    HW3 6579   3.882   0.430   2.723
 1637SOL    MW4 6580   3.826   0.490   2.753
 1638SOL     OW 6581   3.818   0.751   2.627
 1638SOL    HW2 6582   3.741   0.789   2.671
 1638SOL    HW3 6583   3.832   0.667   2.672
 1638SOL    MW4 6584   3.809   0.745   2.639
 1639SOL     OW 6585   3.591   0.875   2.711
 1639SOL    HW2 6586   3.610   0.889   2.804
 1639SOL    HW3 6587   3.582   0.964   2.675
 1639SOL    MW4 6588   3.593   0.889   2.719
 1640SOL     OW 6589   3.596   1.164   2.640
 1640SOL    HW2 6590   3.675   1.205   2.676
 1640SOL    HW3 6591   3.524   1.211   2.682
 1640SOL    MW4 6592   3.597   1.175   2.650
 1641SOL     OW 6593   3.822   1.280   2.731
 1641SOL    HW2 6594   3.874   1.216   2.683
 1641SOL    HW3 6595   3.836   1.362   2.683
 1641SOL    MW4 6596   3.831   1.282   2.718
 1642SOL     OW 6597   3.862   1.533   2.610
 1642SOL    HW2 6598   3.936   1.590   2.633
 1642SOL    HW3 6599   3.785   1.583   2.635
 1642SOL    MW4 6600   3.862   1.547   2.616
 1643SOL     OW 6601   3.621   1.683   2.715
 1643SOL    HW2 6602   3.636   1.774   2.687
 1643SOL    HW3 6603   3.547   1.654   2.662
 1643SOL    MW4 6604   3.613   1.691   2.704
 1644SOL     OW 6605   3.590   1.940   2.623
 1644SOL    HW2 6606   3.505   1.963   2.659
 1644SOL    HW3 6607   3.576   1.937   2.528
 1644SOL    MW4 6608   3.577   1.942   2.615
 1645SOL     OW 6609   3.800   2.087   2.725
 1645SOL    HW2 6610   3.883   2.056   2.689
 1645SOL    HW3 6611   3.733   2.033   2.683
 1645SOL    MW4 6612   3.802   2.076   2.715
 1646SOL     OW 6613   3.774   2.334   2.605
 1646SOL    HW2 6614   3.797   2.253   2.650
 1646SOL    HW3 6615   3.800   2.318   2.514
 1646SOL    MW4 6616   3.781   2.321   2.599
 1647SOL     OW 6617   3.542   2.445   2.712
 1647SOL    HW2 6618   3.564   2.425   2.802
 1647SOL    HW3 6619   3.613   2.408   2.660
 1647SOL    MW4 6620   3.554   2.438   2.717
 1648SOL     OW 6621   3.550   2.723   2.601
 1648SOL    HW2 6622   3.545   2.636   2.640
 1648SOL    HW3 6623   3.534   2.709   2.508
 1648SOL    MW4 6624   3.547   2.710   2.594
 1649SOL     OW 6625   3.784   2.861   2.682
 1649SOL    HW2 6626   3.859   2.801   2.677
 1649SOL    HW3 6627   3.709   2.808   2.654
 1649SOL    MW4 6628   3.784   2.846   2.678
 1650SOL     OW 6629   3.807   3.115   2.581
 1650SOL    HW2 6630   3.728   3.161   2.611
 1650SOL    HW3 6631   3.800   3.028   2.622
 1650SOL    MW4 6632   3.795   3.109   2.591
 1651SOL     OW 6633   3.584   3.238   2.713
 1651SOL    HW2 6634   3.565   3.330   2.698
 1651SOL    HW3 6635   3.502   3.193   2.693
 1651SOL    MW4 6636   3.571   3.244   2.708
 1652SOL     OW 6637   3.564   3.533   2.601
 1652SOL    HW2 6638   3.633   3.576   2.652
 1652SOL    HW3 6639   3.484   3.553   2.649
 1652SOL    MW4 6640   3.563   3.541   2.614
 1653SOL     OW 6641   3.798   3.584   2.747
 1653SOL    HW2 6642   3.869   3.530   2.714
 1653SOL    HW3 6643   3.810   3.669   2.704
 1653SOL    MW4 6644   3.809   3.588   2.737
 1654SOL     OW 6645   3.838   3.832   2.635
 1654SOL    HW2 6646   3.921   3.870   2.663
 1654SOL    HW3 6647   3.771   3.886   2.678
 1654SOL    MW4 6648   3.840   3.844   2.645
 1655SOL     OW 6649   3.596   3.975   2.742
 1655SOL    HW2 6650   3.577   4.054   2.692
 1655SOL    HW3 6651   3.515   3.923   2.737
 1655SOL    MW4 6652   3.583   3.978   2.735
 1656SOL     OW 6653   3.572   4.203   2.599
 1656SOL    HW2 6654   3.509   4.269   2.628
 1656SOL    HW3 6655   3.574   4.211   2.504
 1656SOL    MW4 6656   3.564   4.213   2.590
 1657SOL     OW 6657   3.788   4.351   2.700
 1657SOL    HW2 6658   3.866   4.323   2.651
 1657SOL    HW3 6659   3.722   4.285   2.679
 1657SOL    MW4 6660   3.789   4.338   2.691
 1658SOL     OW 6661   4.297   4.661   2.616
 1658SOL    HW2 6662   4.211   4.679   2.653
 1658SOL    HW3 6663   4.355   4.727   2.654
 1658SOL    MW4 6664   4.293   4.672   2.626
 1659SOL     OW 6665   4.035   0.075   2.704
 1659SOL    HW2 6666   4.022   0.079   2.799
 1659SOL    HW3 6667   3.965   0.018   2.673
 1659SOL    MW4 6668   4.024   0.068   2.713
 1660SOL     OW 6669   4.030   0.345   2.641
 1660SOL    HW2 6670   4.020   0.254   2.672
 1660SOL    HW3 6671   4.021   0.339   2.546
 1660SOL    MW4 6672   4.028   0.332   2.632
 1661SOL     OW 6673   4.237   0.496   2.746
 1661SOL    HW2 6674   4.160   0.447   2.716
 1661SOL    HW3 6675   4.312   0.445   2.714
 1661SOL    MW4 6676   4.237   0.483   2.738
 1662SOL     OW 6677   4.257   0.754   2.641
 1662SOL    HW2 6678   4.242   0.663   2.666
 1662SOL    HW3 6679   4.264   0.752   2.545
 1662SOL    MW4 6680   4.256   0.742   2.631
 1663SOL     OW 6681   4.038   0.890   2.737
 1663SOL    HW2 6682   4.114   0.846   2.699
 1663SOL    HW3 6683   3.963   0.841   2.705
 1663SOL    MW4 6684   4.038   0.878   2.728
 1664SOL     OW 6685   4.055   1.141   2.627
 1664SOL    HW2 6686   4.130   1.176   2.676
 1664SOL    HW3 6687   4.044   1.052   2.660
 1664SOL    MW4 6688   4.064   1.134   2.638
 1665SOL     OW 6689   4.278   1.276   2.733
 1665SOL    HW2 6690   4.261   1.357   2.686
 1665SOL    HW3 6691   4.355   1.239   2.689
 1665SOL    MW4 6692   4.286   1.282   2.721
 1666SOL     OW 6693   4.269   1.517   2.593
 1666SOL    HW2 6694   4.353   1.556   2.618
 1666SOL    HW3 6695   4.264   1.528   2.498
 1666SOL    MW4 6696   4.280   1.523   2.584
 1667SOL     OW 6697   4.070   1.699   2.691
 1667SOL    HW2 6698   4.080   1.698   2.786
 1667SOL    HW3 6699   4.147   1.652   2.659
 1667SOL    MW4 6700   4.082   1.693   2.699
 1668SOL     OW 6701   4.026   1.971   2.600
 1668SOL    HW2 6702   4.097   2.020   2.642
 1668SOL    HW3 6703   4.050   1.879   2.614
 1668SOL    MW4 6704   4.039   1.965   2.608
 1669SOL     OW 6705   4.255   2.100   2.756
 1669SOL    HW2 6706   4.291   2.182   2.721
 1669SOL    HW3 6707   4.317   2.033   2.728
 1669SOL    MW4 6708   4.268   2.102   2.748
 1670SOL     OW 6709   4.286   2.345   2.620
 1670SOL    HW2 6710   4.199   2.378   2.645
 1670SOL    HW3 6711   4.285   2.347   2.524
 1670SOL    MW4 6712   4.274   2.350   2.611
 1671SOL     OW 6713   4.008   2.445   2.678
 1671SOL    HW2 6714   4.008   2.459   2.773
 1671SOL    HW3 6715   3.920   2.415   2.658
 1671SOL    MW4 6716   3.997   2.443   2.688
 1672SOL     OW 6717   4.017   2.707   2.599
 1672SOL    HW2 6718   4.085   2.756   2.645
 1672SOL    HW3 6719   4.029   2.616   2.627
 1672SOL    MW4 6720   4.027   2.701   2.609
 1673SOL     OW 6721   4.235   2.825   2.704
 1673SOL    HW2 6722   4.257   2.826   2.798
 1673SOL    HW3 6723   4.250   2.915   2.675
 1673SOL    MW4 6724   4.240   2.837   2.713
 1674SOL     OW 6725   4.255   3.090   2.609
 1674SOL    HW2 6726   4.171   3.128   2.636
 1674SOL    HW3 6727   4.244   3.074   2.515
 1674SOL    MW4 6728   4.242   3.093   2.600
 1675SOL     OW 6729   4.033   3.226   2.701
 1675SOL    HW2 6730   4.037   3.318   2.674
 1675SOL    HW3 6731   3.946   3.197   2.675
 1675SOL    MW4 6732   4.022   3.234   2.694
 1676SOL     OW 6733   4.019   3.493   2.622
 1676SOL    HW2 6734   4.095   3.550   2.633
 1676SOL    HW3 6735   4.016   3.475   2.528
 1676SOL    MW4 6736   4.028   3.498   2.611
 1677SOL     OW 6737   4.244   3.640   2.674
 1677SOL    HW2 6738   4.238   3.649   2.769
 1677SOL    HW3 6739   4.328   3.597   2.659
 1677SOL    MW4 6740   4.254   3.636   2.684
 1678SOL     OW 6741   4.287   3.913   2.613
 1678SOL    HW2 6742   4.257   3.823   2.627
 1678SOL    HW3 6743   4.378   3.913   2.641
 1678SOL    MW4 6744   4.295   3.901   2.619
 1679SOL     OW 6745   4.043   4.017   2.692
 1679SOL    HW2 6746   4.037   4.017   2.787
 1679SOL    HW3 6747   4.133   3.988   2.674
 1679SOL    MW4 6748   4.054   4.013   2.702
 1680SOL     OW 6749   4.027   4.272   2.603
 1680SOL    HW2 6750   4.024   4.181   2.634
 1680SOL    HW3 6751   4.025   4.264   2.507
 1680SOL    MW4 6752   4.026   4.259   2.594
 1681SOL     OW 6753   4.293   4.359   2.671
 1681SOL    HW2 6754   4.203   4.345   2.640
 1681SOL    HW3 6755   4.310   4.452   2.654
 1681SOL    MW4 6756   4.283   4.370   2.664
 1682SOL     OW 6757   0.224   4.636   3.091
 1682SOL    HW2 6758   0.211   4.648   3.185
 1682SOL    HW3 6759   0.155   4.688   3.050
 1682SOL    MW4 6760   0.213   4.644   3.098
 1683SOL     OW 6761   4.481   0.104   3.011
 1683SOL    HW2 6762   4.397   0.065   3.035
 1683SOL    HW3 6763   4.483   0.188   3.056
 1683SOL    MW4 6764   4.471   0.110   3.020
 1684SOL     OW 6765   4.478   0.361   3.109
 1684SOL    HW2 6766   4.502   0.392   3.196
 1684SOL    HW3 6767   4.397   0.407   3.088
 1684SOL    MW4 6768   4.471   0.371   3.117
 1685SOL     OW 6769   0.201   0.478   2.986
 1685SOL    HW2 6770   0.278   0.456   3.039
 1685SOL    HW3 6771   0.129   0.430   3.026
 1685SOL    MW4 6772   0.202   0.469   2.998
 1686SOL     OW 6773   0.211   0.738   3.078
 1686SOL    HW2 6774   0.220   0.738   3.173
 1686SOL    HW3 6775   0.190   0.647   3.056
 1686SOL    MW4 6776   0.209   0.726   3.088
 1687SOL     OW 6777   0.017   0.935   3.008
 1687SOL    HW2 6778   0.081   0.866   3.024
 1687SOL    HW3 6779  -0.005   0.926   2.915
 1687SOL    MW4 6780   0.022   0.925   2.998
 1688SOL     OW 6781   4.486   1.169   3.161
 1688SOL    HW2 6782   4.410   1.212   3.121
 1688SOL    HW3 6783   4.486   1.082   3.122
 1688SOL    MW4 6784   4.476   1.163   3.151
 1689SOL     OW 6785   0.214   1.291   3.038
 1689SOL    HW2 6786   0.149   1.244   3.092
 1689SOL    HW3 6787   0.179   1.287   2.949
 1689SOL    MW4 6788   0.200   1.284   3.034
 1690SOL     OW 6789   0.184   1.560   3.098
 1690SOL    HW2 6790   0.102   1.589   3.057
 1690SOL    HW3 6791   0.192   1.468   3.072
 1690SOL    MW4 6792   0.174   1.552   3.089
 1691SOL     OW 6793   4.463   1.679   2.979
 1691SOL    HW2 6794   4.389   1.640   3.027
 1691SOL    HW3 6795   4.472   1.767   3.014
 1691SOL    MW4 6796   4.454   1.685   2.990
 1692SOL     OW 6797   4.477   1.936   3.102
 1692SOL    HW2 6798   4.407   1.989   3.064
 1692SOL    HW3 6799   4.555   1.961   3.053
 1692SOL    MW4 6800   4.478   1.946   3.090
 1693SOL     OW 6801   0.216   2.045   2.966
 1693SOL    HW2 6802   0.201   2.134   2.998
 1693SOL    HW3 6803   0.211   2.052   2.871
 1693SOL    MW4 6804   0.214   2.058   2.958
 1694SOL     OW 6805   0.219   2.293   3.075
 1694SOL    HW2 6806   0.225   2.304   3.170
 1694SOL    HW3 6807   0.294   2.341   3.040
 1694SOL    MW4 6808   0.230   2.301   3.083
 1695SOL     OW 6809   0.007   2.448   2.978
 1695SOL    HW2 6810   0.017   2.537   3.013
 1695SOL    HW3 6811   0.081   2.400   3.015
 1695SOL    MW4 6812   0.018   2.454   2.988
 1696SOL     OW 6813   4.486   2.699   3.095
 1696SOL    HW2 6814   4.491   2.716   3.189
 1696SOL    HW3 6815   4.547   2.764   3.057
 1696SOL    MW4 6816   4.495   2.710   3.102
 1697SOL     OW 6817   0.195   2.843   2.982
 1697SOL    HW2 6818   0.266   2.805   3.033
 1697SOL    HW3 6819   0.217   2.824   2.891
 1697SOL    MW4 6820   0.207   2.836   2.977
 1698SOL     OW 6821   0.182   3.100   3.094
 1698SOL    HW2 6822   0.109   3.156   3.068
 1698SOL    HW3 6823   0.179   3.027   3.032
 1698SOL    MW4 6824   0.172   3.097   3.083
 1699SOL     OW 6825   4.483   3.254   2.977
 1699SOL    HW2 6826   4.410   3.201   3.009
 1699SOL    HW3 6827   4.469   3.259   2.882
 1699SOL    MW4 6828   4.472   3.248   2.969
 1700SOL     OW 6829   0.007   3.501   3.069
 1700SOL    HW2 6830  -0.060   3.547   3.019
 1700SOL    HW3 6831   0.016   3.416   3.026
 1700SOL    MW4 6832  -0.001   3.496   3.057
 1701SOL     OW 6833   0.236   3.662   3.028
 1701SOL    HW2 6834   0.211   3.752   3.049
 1701SOL    HW3 6835   0.167   3.608   3.068
 1701SOL    MW4 6836   0.224   3.667   3.036
 1702SOL     OW 6837   0.206   3.933   3.091
 1702SOL    HW2 6838   0.206   3.922   3.186
 1702SOL    HW3 6839   0.288   3.979   3.072
 1702SOL    MW4 6840   0.217   3.938   3.101
 1703SOL     OW 6841   4.471   4.018   2.974
 1703SOL    HW2 6842   4.547   3.994   3.026
 1703SOL    HW3 6843   4.500   4.008   2.883
 1703SOL    MW4 6844   4.484   4.013   2.969
 1704SOL     OW 6845   4.447   4.266   3.112
 1704SOL    HW2 6846   4.470   4.248   3.203
 1704SOL    HW3 6847   4.450   4.180   3.069
 1704SOL    MW4 6848   4.450   4.252   3.119
 1705SOL     OW 6849   0.198   4.369   3.012
 1705SOL    HW2 6850   0.113   4.340   3.044
 1705SOL    HW3 6851   0.205   4.460   3.043
 1705SOL    MW4 6852   0.188   4.377   3.020
 1706SOL     OW 6853   0.690   0.016   3.091
 1706SOL    HW2 6854   0.698  -0.078   3.076
 1706SOL    HW3 6855   0.607   0.041   3.049
 1706SOL    MW4 6856   0.680   0.007   3.083
 1707SOL     OW 6857   0.440   0.113   3.003
 1707SOL    HW2 6858   0.446   0.193   3.055
 1707SOL    HW3 6859   0.369   0.063   3.043
 1707SOL    MW4 6860   0.431   0.117   3.015
 1708SOL     OW 6861   0.454   0.374   3.103
 1708SOL    HW2 6862   0.442   0.394   3.196
 1708SOL    HW3 6863   0.536   0.417   3.080
 1708SOL    MW4 6864   0.463   0.382   3.112
 1709SOL     OW 6865   0.669   0.509   2.993
 1709SOL    HW2 6866   0.744   0.459   3.026
 1709SOL    HW3 6867   0.673   0.592   3.039
 1709SOL    MW4 6868   0.679   0.514   3.003
 1710SOL     OW 6869   0.669   0.758   3.143
 1710SOL    HW2 6870   0.657   0.748   3.238
 1710SOL    HW3 6871   0.596   0.813   3.115
 1710SOL    MW4 6872   0.658   0.764   3.152
 1711SOL     OW 6873   0.461   0.898   3.018
 1711SOL    HW2 6874   0.387   0.844   3.047
 1711SOL    HW3 6875   0.460   0.891   2.922
 1711SOL    MW4 6876   0.451   0.890   3.009
 1712SOL     OW 6877   0.464   1.194   3.095
 1712SOL    HW2 6878   0.459   1.098   3.098
 1712SOL    HW3 6879   0.379   1.220   3.059
 1712SOL    MW4 6880   0.452   1.185   3.091
 1713SOL     OW 6881   0.694   1.323   3.030
 1713SOL    HW2 6882   0.762   1.257   3.046
 1713SOL    HW3 6883   0.612   1.278   3.050
 1713SOL    MW4 6884   0.692   1.309   3.035
 1714SOL     OW 6885   0.645   1.577   3.131
 1714SOL    HW2 6886   0.646   1.569   3.227
 1714SOL    HW3 6887   0.643   1.486   3.100
 1714SOL    MW4 6888   0.645   1.564   3.140
 1715SOL     OW 6889   0.443   1.679   2.993
 1715SOL    HW2 6890   0.519   1.645   3.040
 1715SOL    HW3 6891   0.368   1.646   3.042
 1715SOL    MW4 6892   0.443   1.670   3.006
 1716SOL     OW 6893   0.422   1.938   3.109
 1716SOL    HW2 6894   0.443   1.854   3.069
 1716SOL    HW3 6895   0.364   1.981   3.047
 1716SOL    MW4 6896   0.417   1.933   3.096
 1717SOL     OW 6897   0.625   2.084   3.000
 1717SOL    HW2 6898   0.703   2.051   3.045
 1717SOL    HW3 6899   0.552   2.040   3.043
 1717SOL    MW4 6900   0.625   2.074   3.012
 1718SOL     OW 6901   0.620   2.329   3.094
 1718SOL    HW2 6902   0.644   2.306   3.183
 1718SOL    HW3 6903   0.601   2.246   3.051
 1718SOL    MW4 6904   0.621   2.315   3.100
 1719SOL     OW 6905   0.407   2.471   2.999
 1719SOL    HW2 6906   0.477   2.424   3.045
 1719SOL    HW3 6907   0.419   2.448   2.907
 1719SOL    MW4 6908   0.418   2.462   2.993
 1720SOL     OW 6909   0.420   2.739   3.110
 1720SOL    HW2 6910   0.507   2.766   3.079
 1720SOL    HW3 6911   0.410   2.649   3.079
 1720SOL    MW4 6912   0.430   2.731   3.102
 1721SOL     OW 6913   0.671   2.849   3.005
 1721SOL    HW2 6914   0.743   2.794   3.034
 1721SOL    HW3 6915   0.696   2.938   3.031
 1721SOL    MW4 6916   0.684   2.854   3.012
 1722SOL     OW 6917   0.687   3.114   3.085
 1722SOL    HW2 6918   0.687   3.113   3.181
 1722SOL    HW3 6919   0.604   3.156   3.062
 1722SOL    MW4 6920   0.676   3.120   3.095
 1723SOL     OW 6921   0.432   3.217   3.020
 1723SOL    HW2 6922   0.413   3.310   3.034
 1723SOL    HW3 6923   0.351   3.172   3.043
 1723SOL    MW4 6924   0.419   3.223   3.025
 1724SOL     OW 6925   0.450   3.500   3.065
 1724SOL    HW2 6926   0.468   3.497   3.159
 1724SOL    HW3 6927   0.385   3.570   3.056
 1724SOL    MW4 6928   0.444   3.509   3.076
 1725SOL     OW 6929   0.687   3.619   3.003
 1725SOL    HW2 6930   0.754   3.569   3.050
 1725SOL    HW3 6931   0.604   3.579   3.031
 1725SOL    MW4 6932   0.685   3.607   3.013
 1726SOL     OW 6933   0.665   3.879   3.105
 1726SOL    HW2 6934   0.663   3.860   3.199
 1726SOL    HW3 6935   0.670   3.792   3.064
 1726SOL    MW4 6936   0.665   3.865   3.112
 1727SOL     OW 6937   0.454   4.017   2.998
 1727SOL    HW2 6938   0.520   3.957   3.032
 1727SOL    HW3 6939   0.447   3.994   2.905
 1727SOL    MW4 6940   0.461   4.006   2.990
 1728SOL     OW 6941   0.472   4.272   3.119
 1728SOL    HW2 6942   0.479   4.190   3.070
 1728SOL    HW3 6943   0.391   4.311   3.089
 1728SOL    MW4 6944   0.462   4.266   3.108
 1729SOL     OW 6945   0.680   4.416   3.000
 1729SOL    HW2 6946   0.613   4.359   3.037
 1729SOL    HW3 6947   0.661   4.417   2.906
 1729SOL    MW4 6948   0.669   4.408   2.993
 1730SOL     OW 6949   1.102   4.663   3.106
 1730SOL    HW2 6950   1.184   4.689   3.065
 1730SOL    HW3 6951   1.035   4.717   3.063
 1730SOL    MW4 6952   1.104   4.674   3.095
 1731SOL     OW 6953   0.910   0.141   2.973
 1731SOL    HW2 6954   0.908   0.226   3.016
 1731SOL    HW3 6955   0.832   0.096   3.004
 1731SOL    MW4 6956   0.900   0.146   2.983
 1732SOL     OW 6957   0.876   0.382   3.122
 1732SOL    HW2 6958   0.880   0.364   3.216
 1732SOL    HW3 6959   0.957   0.428   3.103
 1732SOL    MW4 6960   0.887   0.386   3.132
 1733SOL     OW 6961   1.112   0.485   3.035
 1733SOL    HW2 6962   1.197   0.446   3.055
 1733SOL    HW3 6963   1.106   0.483   2.940
 1733SOL    MW4 6964   1.122   0.480   3.025
 1734SOL     OW 6965   1.142   0.754   3.114
 1734SOL    HW2 6966   1.137   0.738   3.208
 1734SOL    HW3 6967   1.149   0.667   3.075
 1734SOL    MW4 6968   1.143   0.740   3.121
 1735SOL     OW 6969   0.901   0.875   3.026
 1735SOL    HW2 6970   0.978   0.820   3.041
 1735SOL    HW3 6971   0.832   0.834   3.078
 1735SOL    MW4 6972   0.902   0.862   3.035
 1736SOL     OW 6973   0.910   1.150   3.119
 1736SOL    HW2 6974   0.985   1.197   3.083
 1736SOL    HW3 6975   0.919   1.061   3.084
 1736SOL    MW4 6976   0.921   1.145   3.109
 1737SOL     OW 6977   1.125   1.253   2.997
 1737SOL    HW2 6978   1.187   1.188   3.030
 1737SOL    HW3 6979   1.126   1.242   2.902
 1737SOL    MW4 6980   1.133   1.243   2.989
 1738SOL     OW 6981   1.131   1.531   3.090
 1738SOL    HW2 6982   1.201   1.583   3.051
 1738SOL    HW3 6983   1.142   1.444   3.053
 1738SOL    MW4 6984   1.142   1.527   3.080
 1739SOL     OW 6985   0.878   1.713   3.032
 1739SOL    HW2 6986   0.953   1.657   3.055
 1739SOL    HW3 6987   0.802   1.662   3.058
 1739SOL    MW4 6988   0.878   1.699   3.038
 1740SOL     OW 6989   0.857   1.983   3.148
 1740SOL    HW2 6990   0.848   1.979   3.243
 1740SOL    HW3 6991   0.854   1.891   3.120
 1740SOL    MW4 6992   0.855   1.970   3.157
 1741SOL     OW 6993   1.111   2.093   3.033
 1741SOL    HW2 6994   1.034   2.040   3.052
 1741SOL    HW3 6995   1.117   2.092   2.937
 1741SOL    MW4 6996   1.101   2.086   3.023
 1742SOL     OW 6997   1.120   2.366   3.114
 1742SOL    HW2 6998   1.030   2.398   3.105
 1742SOL    HW3 6999   1.117   2.276   3.079
 1742SOL    MW4 7000   1.108   2.358   3.108
 1743SOL     OW 7001   0.867   2.420   3.033
 1743SOL    HW2 7002   0.781   2.384   3.054
 1743SOL    HW3 7003   0.863   2.440   2.940
 1743SOL    MW4 7004   0.855   2.418   3.024
 1744SOL     OW 7005   0.889   2.690   3.080
 1744SOL    HW2 7006   0.903   2.709   3.173
 1744SOL    HW3 7007   0.888   2.595   3.074
 1744SOL    MW4 7008   0.891   2.680   3.092
 1745SOL     OW 7009   1.118   2.803   2.983
 1745SOL    HW2 7010   1.101   2.891   3.019
 1745SOL    HW3 7011   1.047   2.749   3.017
 1745SOL    MW4 7012   1.106   2.808   2.992
 1746SOL     OW 7013   1.126   3.059   3.087
 1746SOL    HW2 7014   1.191   3.105   3.035
 1746SOL    HW3 7015   1.048   3.113   3.081
 1746SOL    MW4 7016   1.124   3.072   3.079
 1747SOL     OW 7017   0.929   3.227   3.040
 1747SOL    HW2 7018   0.836   3.207   3.048
 1747SOL    HW3 7019   0.947   3.221   2.946
 1747SOL    MW4 7020   0.919   3.224   3.029
 1748SOL     OW 7021   0.898   3.494   3.123
 1748SOL    HW2 7022   0.963   3.544   3.073
 1748SOL    HW3 7023   0.923   3.402   3.110
 1748SOL    MW4 7024   0.910   3.488   3.115
 1749SOL     OW 7025   1.113   3.637   3.015
 1749SOL    HW2 7026   1.174   3.579   3.062
 1749SOL    HW3 7027   1.128   3.723   3.054
 1749SOL    MW4 7028   1.123   3.641   3.026
 1750SOL     OW 7029   1.156   3.891   3.111
 1750SOL    HW2 7030   1.170   3.899   3.205
 1750SOL    HW3 7031   1.074   3.937   3.095
 1750SOL    MW4 7032   1.147   3.898   3.121
 1751SOL     OW 7033   0.909   4.003   3.005
 1751SOL    HW2 7034   0.825   3.961   3.027
 1751SOL    HW3 7035   0.912   4.002   2.910
 1751SOL    MW4 7036   0.898   3.997   2.996
 1752SOL     OW 7037   0.936   4.273   3.095
 1752SOL    HW2 7038   0.930   4.191   3.046
 1752SOL    HW3 7039   0.862   4.325   3.063
 1752SOL    MW4 7040   0.925   4.269   3.084
 1753SOL     OW 7041   1.161   4.410   3.006
 1753SOL    HW2 7042   1.089   4.349   3.023
 1753SOL    HW3 7043   1.146   4.483   3.065
 1753SOL    MW4 7044   1.150   4.411   3.016
 1754SOL     OW 7045   1.614   4.639   3.097
 1754SOL    HW2 7046   1.606   4.624   3.191
 1754SOL    HW3 7047   1.537   4.692   3.075
 1754SOL    MW4 7048   1.603   4.644   3.107
 1755SOL     OW 7049   1.358   0.075   3.019
 1755SOL    HW2 7050   1.350   0.156   3.070
 1755SOL    HW3 7051   1.375   0.105   2.929
 1755SOL    MW4 7052   1.359   0.090   3.014
 1756SOL     OW 7053   1.326   0.331   3.116
 1756SOL    HW2 7054   1.344   0.346   3.209
 1756SOL    HW3 7055   1.395   0.378   3.070
 1756SOL    MW4 7056   1.338   0.339   3.122
 1757SOL     OW 7057   1.565   0.456   3.024
 1757SOL    HW2 7058   1.591   0.545   3.048
 1757SOL    HW3 7059   1.580   0.452   2.929
 1757SOL    MW4 7060   1.570   0.467   3.015
 1758SOL     OW 7061   1.579   0.711   3.099
 1758SOL    HW2 7062   1.583   0.704   3.194
 1758SOL    HW3 7063   1.504   0.768   3.082
 1758SOL    MW4 7064   1.570   0.717   3.109
 1759SOL     OW 7065   1.374   0.860   3.006
 1759SOL    HW2 7066   1.368   0.946   3.049
 1759SOL    HW3 7067   1.295   0.814   3.035
 1759SOL    MW4 7068   1.362   0.865   3.015
 1760SOL     OW 7069   1.350   1.112   3.122
 1760SOL    HW2 7070   1.373   1.102   3.214
 1760SOL    HW3 7071   1.423   1.160   3.083
 1760SOL    MW4 7072   1.363   1.117   3.129
 1761SOL     OW 7073   1.554   1.276   3.010
 1761SOL    HW2 7074   1.639   1.257   3.050
 1761SOL    HW3 7075   1.535   1.366   3.038
 1761SOL    MW4 7076   1.562   1.286   3.019
 1762SOL     OW 7077   1.527   1.517   3.132
 1762SOL    HW2 7078   1.609   1.555   3.099
 1762SOL    HW3 7079   1.459   1.574   3.097
 1762SOL    MW4 7080   1.529   1.529   3.123
 1763SOL     OW 7081   1.362   1.692   2.995
 1763SOL    HW2 7082   1.356   1.782   3.026
 1763SOL    HW3 7083   1.383   1.700   2.902
 1763SOL    MW4 7084   1.364   1.705   2.987
 1764SOL     OW 7085   1.350   1.961   3.089
 1764SOL    HW2 7086   1.343   1.959   3.184
 1764SOL    HW3 7087   1.271   2.007   3.060
 1764SOL    MW4 7088   1.339   1.967   3.098
 1765SOL     OW 7089   1.585   2.082   2.982
 1765SOL    HW2 7090   1.501   2.041   3.003
 1765SOL    HW3 7091   1.585   2.088   2.886
 1765SOL    MW4 7092   1.574   2.077   2.972
 1766SOL     OW 7093   1.598   2.326   3.109
 1766SOL    HW2 7094   1.518   2.369   3.078
 1766SOL    HW3 7095   1.591   2.236   3.077
 1766SOL    MW4 7096   1.586   2.320   3.101
 1767SOL     OW 7097   1.361   2.456   3.013
 1767SOL    HW2 7098   1.275   2.426   3.043
 1767SOL    HW3 7099   1.353   2.463   2.918
 1767SOL    MW4 7100   1.349   2.453   3.005
 1768SOL     OW 7101   1.342   2.728   3.107
 1768SOL    HW2 7102   1.354   2.637   3.080
 1768SOL    HW3 7103   1.258   2.753   3.069
 1768SOL    MW4 7104   1.332   2.719   3.099
 1769SOL     OW 7105   1.586   2.843   2.979
 1769SOL    HW2 7106   1.658   2.806   3.029
 1769SOL    HW3 7107   1.507   2.806   3.018
 1769SOL    MW4 7108   1.585   2.833   2.991
 1770SOL     OW 7109   1.567   3.100   3.067
 1770SOL    HW2 7110   1.569   3.093   3.162
 1770SOL    HW3 7111   1.566   3.010   3.036
 1770SOL    MW4 7112   1.567   3.087   3.075
 1771SOL     OW 7113   1.335   3.208   2.953
 1771SOL    HW2 7114   1.408   3.163   2.997
 1771SOL    HW3 7115   1.364   3.217   2.862
 1771SOL    MW4 7116   1.349   3.203   2.947
 1772SOL     OW 7117   1.310   3.451   3.084
 1772SOL    HW2 7118   1.318   3.423   3.175
 1772SOL    HW3 7119   1.314   3.370   3.033
 1772SOL    MW4 7120   1.311   3.437   3.089
 1773SOL     OW 7121   1.524   3.619   3.000
 1773SOL    HW2 7122   1.470   3.548   3.035
 1773SOL    HW3 7123   1.520   3.608   2.905
 1773SOL    MW4 7124   1.516   3.608   2.992
 1774SOL     OW 7125   1.566   3.881   3.084
 1774SOL    HW2 7126   1.651   3.912   3.055
 1774SOL    HW3 7127   1.572   3.785   3.076
 1774SOL    MW4 7128   1.578   3.872   3.079
 1775SOL     OW 7129   1.366   4.043   3.014
 1775SOL    HW2 7130   1.436   3.983   3.037
 1775SOL    HW3 7131   1.286   3.995   3.035
 1775SOL    MW4 7132   1.364   4.029   3.020
 1776SOL     OW 7133   1.386   4.278   3.143
 1776SOL    HW2 7134   1.374   4.194   3.098
 1776SOL    HW3 7135   1.311   4.331   3.115
 1776SOL    MW4 7136   1.374   4.274   3.133
 1777SOL     OW 7137   1.615   4.379   3.026
 1777SOL    HW2 7138   1.540   4.351   3.078
 1777SOL    HW3 7139   1.618   4.474   3.038
 1777SOL    MW4 7140   1.606   4.388   3.034
 1778SOL     OW 7141   2.005   4.631   3.079
 1778SOL    HW2 7142   2.013   4.641   3.173
 1778SOL    HW3 7143   1.939   4.696   3.053
 1778SOL    MW4 7144   1.997   4.641   3.088
 1779SOL     OW 7145   1.804   0.132   3.016
 1779SOL    HW2 7146   1.745   0.063   3.045
 1779SOL    HW3 7147   1.799   0.130   2.920
 1779SOL    MW4 7148   1.796   0.123   3.007
 1780SOL     OW 7149   1.781   0.350   3.178
 1780SOL    HW2 7150   1.800   0.264   3.139
 1780SOL    HW3 7151   1.702   0.379   3.133
 1780SOL    MW4 7152   1.773   0.342   3.167
 1781SOL     OW 7153   1.977   0.479   3.047
 1781SOL    HW2 7154   1.903   0.439   3.092
 1781SOL    HW3 7155   1.950   0.483   2.955
 1781SOL    MW4 7156   1.963   0.474   3.041
 1782SOL     OW 7157   2.014   0.742   3.139
 1782SOL    HW2 7158   1.947   0.795   3.097
 1782SOL    HW3 7159   1.999   0.653   3.107
 1782SOL    MW4 7160   2.003   0.737   3.129
 1783SOL     OW 7161   1.791   0.862   3.020
 1783SOL    HW2 7162   1.714   0.812   3.045
 1783SOL    HW3 7163   1.788   0.864   2.925
 1783SOL    MW4 7164   1.780   0.856   3.011
 1784SOL     OW 7165   1.793   1.155   3.087
 1784SOL    HW2 7166   1.787   1.156   3.182
 1784SOL    HW3 7167   1.792   1.062   3.064
 1784SOL    MW4 7168   1.792   1.143   3.096
 1785SOL     OW 7169   1.996   1.258   2.971
 1785SOL    HW2 7170   2.072   1.214   3.009
 1785SOL    HW3 7171   1.921   1.208   3.002
 1785SOL    MW4 7172   1.996   1.246   2.980
 1786SOL     OW 7173   1.982   1.513   3.108
 1786SOL    HW2 7174   1.995   1.510   3.203
 1786SOL    HW3 7175   1.983   1.421   3.081
 1786SOL    MW4 7176   1.984   1.501   3.117
 1787SOL     OW 7177   1.762   1.664   3.019
 1787SOL    HW2 7178   1.758   1.747   3.067
 1787SOL    HW3 7179   1.843   1.623   3.047
 1787SOL    MW4 7180   1.772   1.669   3.029
 1788SOL     OW 7181   1.741   1.917   3.128
 1788SOL    HW2 7182   1.828   1.943   3.099
 1788SOL    HW3 7183   1.682   1.974   3.078
 1788SOL    MW4 7184   1.744   1.928   3.117
 1789SOL     OW 7185   1.979   2.027   3.056
 1789SOL    HW2 7186   2.060   1.984   3.084
 1789SOL    HW3 7187   1.991   2.119   3.079
 1789SOL    MW4 7188   1.991   2.033   3.063
 1790SOL     OW 7189   2.044   2.294   3.095
 1790SOL    HW2 7190   2.130   2.316   3.060
 1790SOL    HW3 7191   1.985   2.357   3.055
 1790SOL    MW4 7192   2.048   2.305   3.085
 1791SOL     OW 7193   1.832   2.468   3.001
 1791SOL    HW2 7194   1.827   2.556   3.039
 1791SOL    HW3 7195   1.759   2.421   3.041
 1791SOL    MW4 7196   1.822   2.474   3.011
 1792SOL     OW 7197   1.807   2.719   3.110
 1792SOL    HW2 7198   1.807   2.740   3.203
 1792SOL    HW3 7199   1.889   2.755   3.077
 1792SOL    MW4 7200   1.818   2.726   3.118
 1793SOL     OW 7201   2.045   2.800   3.012
 1793SOL    HW2 7202   2.046   2.891   3.043
 1793SOL    HW3 7203   2.062   2.806   2.918
 1793SOL    MW4 7204   2.048   2.813   3.004
 1794SOL     OW 7205   2.039   3.057   3.115
 1794SOL    HW2 7206   2.053   3.081   3.206
 1794SOL    HW3 7207   1.973   3.118   3.084
 1794SOL    MW4 7208   2.032   3.068   3.123
 1795SOL     OW 7209   1.792   3.237   2.981
 1795SOL    HW2 7210   1.714   3.192   3.013
 1795SOL    HW3 7211   1.792   3.220   2.887
 1795SOL    MW4 7212   1.782   3.229   2.973
 1796SOL     OW 7213   1.770   3.492   3.099
 1796SOL    HW2 7214   1.783   3.405   3.060
 1796SOL    HW3 7215   1.694   3.528   3.054
 1796SOL    MW4 7216   1.762   3.485   3.088
 1797SOL     OW 7217   2.000   3.585   2.963
 1797SOL    HW2 7218   2.005   3.672   3.001
 1797SOL    HW3 7219   1.935   3.539   3.016
 1797SOL    MW4 7220   1.992   3.590   2.975
 1798SOL     OW 7221   2.041   3.832   3.089
 1798SOL    HW2 7222   2.064   3.851   3.180
 1798SOL    HW3 7223   1.954   3.871   3.078
 1798SOL    MW4 7224   2.032   3.839   3.100
 1799SOL     OW 7225   1.815   3.978   3.028
 1799SOL    HW2 7226   1.815   4.069   3.059
 1799SOL    HW3 7227   1.815   3.985   2.933
 1799SOL    MW4 7228   1.815   3.991   3.020
 1800SOL     OW 7229   1.846   4.250   3.116
 1800SOL    HW2 7230   1.923   4.285   3.071
 1800SOL    HW3 7231   1.772   4.296   3.076
 1800SOL    MW4 7232   1.846   4.261   3.105
 1801SOL     OW 7233   2.061   4.384   2.980
 1801SOL    HW2 7234   2.047   4.474   3.008
 1801SOL    HW3 7235   2.054   4.387   2.884
 1801SOL    MW4 7236   2.058   4.396   2.971
 1802SOL     OW 7237   2.465   4.649   3.084
 1802SOL    HW2 7238   2.449   4.555   3.078
 1802SOL    HW3 7239   2.387   4.689   3.045
 1802SOL    MW4 7240   2.453   4.642   3.078
 1803SOL     OW 7241   2.230   0.109   2.992
 1803SOL    HW2 7242   2.231   0.192   3.038
 1803SOL    HW3 7243   2.154   0.063   3.026
 1803SOL    MW4 7244   2.220   0.114   3.002
 1804SOL     OW 7245   2.230   0.350   3.097
 1804SOL    HW2 7246   2.242   0.358   3.192
 1804SOL    HW3 7247   2.159   0.410   3.076
 1804SOL    MW4 7248   2.222   0.359   3.107
 1805SOL     OW 7249   2.444   0.492   3.001
 1805SOL    HW2 7250   2.367   0.449   3.039
 1805SOL    HW3 7251   2.422   0.501   2.908
 1805SOL    MW4 7252   2.431   0.488   2.993
 1806SOL     OW 7253   2.497   0.724   3.144
 1806SOL    HW2 7254   2.575   0.755   3.096
 1806SOL    HW3 7255   2.467   0.648   3.095
 1806SOL    MW4 7256   2.504   0.718   3.131
 1807SOL     OW 7257   2.262   0.865   3.026
 1807SOL    HW2 7258   2.341   0.836   3.071
 1807SOL    HW3 7259   2.190   0.828   3.077
 1807SOL    MW4 7260   2.263   0.856   3.038
 1808SOL     OW 7261   2.222   1.138   3.071
 1808SOL    HW2 7262   2.212   1.142   3.166
 1808SOL    HW3 7263   2.227   1.045   3.051
 1808SOL    MW4 7264   2.221   1.126   3.081
 1809SOL     OW 7265   2.493   1.244   3.049
 1809SOL    HW2 7266   2.404   1.210   3.059
 1809SOL    HW3 7267   2.503   1.257   2.955
 1809SOL    MW4 7268   2.482   1.241   3.038
 1810SOL     OW 7269   2.468   1.501   3.131
 1810SOL    HW2 7270   2.394   1.549   3.092
 1810SOL    HW3 7271   2.449   1.409   3.112
 1810SOL    MW4 7272   2.456   1.495   3.123
 1811SOL     OW 7273   2.232   1.628   3.048
 1811SOL    HW2 7274   2.149   1.584   3.065
 1811SOL    HW3 7275   2.236   1.635   2.952
 1811SOL    MW4 7276   2.222   1.623   3.038
 1812SOL     OW 7277   2.217   1.895   3.130
 1812SOL    HW2 7278   2.292   1.947   3.103
 1812SOL    HW3 7279   2.235   1.807   3.097
 1812SOL    MW4 7280   2.229   1.890   3.122
 1813SOL     OW 7281   2.430   2.023   3.029
 1813SOL    HW2 7282   2.516   2.000   3.064
 1813SOL    HW3 7283   2.442   2.026   2.934
 1813SOL    MW4 7284   2.443   2.020   3.021
 1814SOL     OW 7285   2.433   2.284   3.116
 1814SOL    HW2 7286   2.422   2.286   3.211
 1814SOL    HW3 7287   2.435   2.191   3.094
 1814SOL    MW4 7288   2.432   2.272   3.126
 1815SOL     OW 7289   2.260   2.440   2.978
 1815SOL    HW2 7290   2.254   2.519   3.033
 1815SOL    HW3 7291   2.334   2.391   3.015
 1815SOL    MW4 7292   2.269   2.444   2.990
 1816SOL     OW 7293   2.234   2.665   3.166
 1816SOL    HW2 7294   2.304   2.713   3.122
 1816SOL    HW3 7295   2.154   2.698   3.124
 1816SOL    MW4 7296   2.232   2.676   3.154
 1817SOL     OW 7297   2.434   2.803   3.016
 1817SOL    HW2 7298   2.455   2.884   3.062
 1817SOL    HW3 7299   2.447   2.823   2.924
 1817SOL    MW4 7300   2.438   2.816   3.010
 1818SOL     OW 7301   2.481   3.073   3.102
 1818SOL    HW2 7302   2.553   3.113   3.054
 1818SOL    HW3 7303   2.403   3.118   3.070
 1818SOL    MW4 7304   2.480   3.084   3.091
 1819SOL     OW 7305   2.252   3.196   3.007
 1819SOL    HW2 7306   2.237   3.285   3.041
 1819SOL    HW3 7307   2.178   3.145   3.040
 1819SOL    MW4 7308   2.240   3.201   3.016
 1820SOL     OW 7309   2.203   3.464   3.080
 1820SOL    HW2 7310   2.281   3.507   3.046
 1820SOL    HW3 7311   2.130   3.511   3.038
 1820SOL    MW4 7312   2.203   3.476   3.070
 1821SOL     OW 7313   2.436   3.597   2.997
 1821SOL    HW2 7314   2.503   3.548   3.044
 1821SOL    HW3 7315   2.437   3.684   3.037
 1821SOL    MW4 7316   2.445   3.602   3.008
 1822SOL     OW 7317   2.458   3.845   3.093
 1822SOL    HW2 7318   2.454   3.859   3.187
 1822SOL    HW3 7319   2.526   3.905   3.062
 1822SOL    MW4 7320   2.466   3.855   3.101
 1823SOL     OW 7321   2.243   3.966   2.964
 1823SOL    HW2 7322   2.318   3.932   3.013
 1823SOL    HW3 7323   2.170   3.911   2.992
 1823SOL    MW4 7324   2.243   3.955   2.974
 1824SOL     OW 7325   2.203   4.210   3.122
 1824SOL    HW2 7326   2.219   4.133   3.068
 1824SOL    HW3 7327   2.157   4.272   3.064
 1824SOL    MW4 7328   2.199   4.208   3.108
 1825SOL     OW 7329   2.413   4.374   3.073
 1825SOL    HW2 7330   2.353   4.302   3.090
 1825SOL    HW3 7331   2.414   4.382   2.977
 1825SOL    MW4 7332   2.405   4.366   3.062
 1826SOL     OW 7333   2.929   4.649   3.098
 1826SOL    HW2 7334   3.010   4.681   3.057
 1826SOL    HW3 7335   2.933   4.554   3.087
 1826SOL    MW4 7336   2.940   4.641   3.091
 1827SOL     OW 7337   2.697   0.131   3.052
 1827SOL    HW2 7338   2.777   0.081   3.069
 1827SOL    HW3 7339   2.627   0.065   3.054
 1827SOL    MW4 7340   2.698   0.115   3.055
 1828SOL     OW 7341   2.672   0.403   3.139
 1828SOL    HW2 7342   2.679   0.311   3.111
 1828SOL    HW3 7343   2.589   0.433   3.101
 1828SOL    MW4 7344   2.662   0.395   3.130
 1829SOL     OW 7345   2.904   0.465   3.008
 1829SOL    HW2 7346   2.816   0.445   3.039
 1829SOL    HW3 7347   2.895   0.474   2.913
 1829SOL    MW4 7348   2.891   0.463   2.999
 1830SOL     OW 7349   2.928   0.721   3.095
 1830SOL    HW2 7350   2.917   0.714   3.190
 1830SOL    HW3 7351   2.933   0.630   3.065
 1830SOL    MW4 7352   2.927   0.708   3.104
 1831SOL     OW 7353   2.701   0.821   2.997
 1831SOL    HW2 7354   2.712   0.910   3.029
 1831SOL    HW3 7355   2.777   0.773   3.029
 1831SOL    MW4 7356   2.712   0.826   3.005
 1832SOL     OW 7357   2.705   1.077   3.104
 1832SOL    HW2 7358   2.769   1.143   3.075
 1832SOL    HW3 7359   2.620   1.121   3.093
 1832SOL    MW4 7360   2.702   1.092   3.098
 1833SOL     OW 7361   2.900   1.288   3.006
 1833SOL    HW2 7362   2.980   1.240   3.025
 1833SOL    HW3 7363   2.910   1.372   3.050
 1833SOL    MW4 7364   2.912   1.292   3.014
 1834SOL     OW 7365   2.918   1.538   3.095
 1834SOL    HW2 7366   2.919   1.565   3.187
 1834SOL    HW3 7367   2.992   1.584   3.056
 1834SOL    MW4 7368   2.928   1.548   3.102
 1835SOL     OW 7369   2.691   1.638   3.009
 1835SOL    HW2 7370   2.773   1.604   3.046
 1835SOL    HW3 7371   2.624   1.581   3.047
 1835SOL    MW4 7372   2.693   1.626   3.019
 1836SOL     OW 7373   2.666   1.891   3.131
 1836SOL    HW2 7374   2.744   1.936   3.100
 1836SOL    HW3 7375   2.674   1.803   3.097
 1836SOL    MW4 7376   2.677   1.886   3.123
 1837SOL     OW 7377   2.885   2.004   3.029
 1837SOL    HW2 7378   2.870   2.093   3.059
 1837SOL    HW3 7379   2.890   2.011   2.934
 1837SOL    MW4 7380   2.884   2.016   3.020
 1838SOL     OW 7381   2.889   2.272   3.129
 1838SOL    HW2 7382   2.946   2.345   3.106
 1838SOL    HW3 7383   2.804   2.296   3.093
 1838SOL    MW4 7384   2.885   2.285   3.121
 1839SOL     OW 7385   2.658   2.400   3.018
 1839SOL    HW2 7386   2.667   2.494   3.037
 1839SOL    HW3 7387   2.584   2.372   3.071
 1839SOL    MW4 7388   2.649   2.409   3.027
 1840SOL     OW 7389   2.660   2.664   3.096
 1840SOL    HW2 7390   2.663   2.676   3.191
 1840SOL    HW3 7391   2.580   2.708   3.068
 1840SOL    MW4 7392   2.650   2.671   3.105
 1841SOL     OW 7393   2.923   2.845   2.988
 1841SOL    HW2 7394   3.000   2.795   3.018
 1841SOL    HW3 7395   2.849   2.799   3.027
 1841SOL    MW4 7396   2.923   2.832   2.997
 1842SOL     OW 7397   2.931   3.087   3.094
 1842SOL    HW2 7398   2.849   3.128   3.067
 1842SOL    HW3 7399   2.928   2.999   3.056
 1842SOL    MW4 7400   2.920   3.081   3.085
 1843SOL     OW 7401   2.685   3.216   3.006
 1843SOL    HW2 7402   2.670   3.308   3.026
 1843SOL    HW3 7403   2.686   3.212   2.911
 1843SOL    MW4 7404   2.683   3.227   2.996
 1844SOL     OW 7405   2.640   3.470   3.123
 1844SOL    HW2 7406   2.643   3.457   3.218
 1844SOL    HW3 7407   2.717   3.524   3.104
 1844SOL    MW4 7408   2.651   3.475   3.133
 1845SOL     OW 7409   2.877   3.621   3.055
 1845SOL    HW2 7410   2.962   3.581   3.074
 1845SOL    HW3 7411   2.893   3.715   3.063
 1845SOL    MW4 7412   2.891   3.628   3.059
 1846SOL     OW 7413   2.895   3.888   3.101
 1846SOL    HW2 7414   2.895   3.881   3.196
 1846SOL    HW3 7415   2.813   3.933   3.080
 1846SOL    MW4 7416   2.884   3.893   3.111
 1847SOL     OW 7417   2.664   4.013   3.031
 1847SOL    HW2 7418   2.673   4.102   3.066
 1847SOL    HW3 7419   2.704   4.017   2.944
 1847SOL    MW4 7420   2.671   4.025   3.025
 1848SOL     OW 7421   2.676   4.276   3.133
 1848SOL    HW2 7422   2.692   4.279   3.227
 1848SOL    HW3 7423   2.589   4.313   3.122
 1848SOL    MW4 7424   2.667   4.281   3.144
 1849SOL     OW 7425   2.913   4.379   3.020
 1849SOL    HW2 7426   2.983   4.321   3.050
 1849SOL    HW3 7427   2.835   4.348   3.065
 1849SOL    MW4 7428   2.912   4.367   3.030
 1850SOL     OW 7429   3.375   4.619   3.095
 1850SOL    HW2 7430   3.455   4.664   3.069
 1850SOL    HW3 7431   3.389   4.528   3.072
 1850SOL    MW4 7432   3.387   4.613   3.089
 1851SOL     OW 7433   3.153   0.093   3.002
 1851SOL    HW2 7434   3.156   0.179   3.044
 1851SOL    HW3 7435   3.223   0.043   3.044
 1851SOL    MW4 7436   3.162   0.098   3.013
 1852SOL     OW 7437   3.146   0.340   3.122
 1852SOL    HW2 7438   3.205   0.409   3.091
 1852SOL    HW3 7439   3.060   0.367   3.090
 1852SOL    MW4 7440   3.143   0.353   3.114
 1853SOL     OW 7441   3.364   0.509   3.051
 1853SOL    HW2 7442   3.429   0.444   3.075
 1853SOL    HW3 7443   3.358   0.502   2.955
 1853SOL    MW4 7444   3.371   0.499   3.041
 1854SOL     OW 7445   3.406   0.766   3.128
 1854SOL    HW2 7446   3.405   0.758   3.224
 1854SOL    HW3 7447   3.386   0.678   3.097
 1854SOL    MW4 7448   3.403   0.754   3.137
 1855SOL     OW 7449   3.165   0.886   3.032
 1855SOL    HW2 7450   3.243   0.860   3.081
 1855SOL    HW3 7451   3.094   0.838   3.072
 1855SOL    MW4 7452   3.166   0.876   3.043
 1856SOL     OW 7453   3.115   1.158   3.102
 1856SOL    HW2 7454   3.192   1.204   3.069
 1856SOL    HW3 7455   3.126   1.067   3.073
 1856SOL    MW4 7456   3.126   1.152   3.094
 1857SOL     OW 7457   3.339   1.270   2.974
 1857SOL    HW2 7458   3.408   1.222   3.019
 1857SOL    HW3 7459   3.338   1.356   3.015
 1857SOL    MW4 7460   3.348   1.275   2.986
 1858SOL     OW 7461   3.355   1.517   3.102
 1858SOL    HW2 7462   3.353   1.515   3.198
 1858SOL    HW3 7463   3.441   1.554   3.081
 1858SOL    MW4 7464   3.366   1.521   3.112
 1859SOL     OW 7465   3.165   1.663   3.001
 1859SOL    HW2 7466   3.232   1.603   3.034
 1859SOL    HW3 7467   3.183   1.669   2.907
 1859SOL    MW4 7468   3.176   1.656   2.993
 1860SOL     OW 7469   3.131   1.909   3.128
 1860SOL    HW2 7470   3.145   1.825   3.084
 1860SOL    HW3 7471   3.053   1.945   3.085
 1860SOL    MW4 7472   3.122   1.903   3.116
 1861SOL     OW 7473   3.340   2.033   3.016
 1861SOL    HW2 7474   3.420   1.990   3.046
 1861SOL    HW3 7475   3.269   1.982   3.054
 1861SOL    MW4 7476   3.341   2.021   3.025
 1862SOL     OW 7477   3.338   2.325   3.102
 1862SOL    HW2 7478   3.319   2.341   3.194
 1862SOL    HW3 7479   3.323   2.232   3.089
 1862SOL    MW4 7480   3.334   2.315   3.112
 1863SOL     OW 7481   3.068   2.464   3.055
 1863SOL    HW2 7482   3.154   2.422   3.064
 1863SOL    HW3 7483   3.057   2.476   2.960
 1863SOL    MW4 7484   3.078   2.460   3.044
 1864SOL     OW 7485   3.141   2.730   3.113
 1864SOL    HW2 7486   3.154   2.743   3.206
 1864SOL    HW3 7487   3.114   2.639   3.105
 1864SOL    MW4 7488   3.139   2.720   3.124
 1865SOL     OW 7489   3.391   2.823   3.012
 1865SOL    HW2 7490   3.395   2.914   3.041
 1865SOL    HW3 7491   3.309   2.790   3.050
 1865SOL    MW4 7492   3.381   2.830   3.021
 1866SOL     OW 7493   3.409   3.102   3.089
 1866SOL    HW2 7494   3.409   3.094   3.184
 1866SOL    HW3 7495   3.330   3.154   3.070
 1866SOL    MW4 7496   3.398   3.108   3.099
 1867SOL     OW 7497   3.158   3.230   3.034
 1867SOL    HW2 7498   3.089   3.171   3.065
 1867SOL    HW3 7499   3.152   3.226   2.939
 1867SOL    MW4 7500   3.148   3.222   3.026
 1868SOL     OW 7501   3.132   3.503   3.110
 1868SOL    HW2 7502   3.215   3.542   3.083
 1868SOL    HW3 7503   3.138   3.411   3.081
 1868SOL    MW4 7504   3.144   3.496   3.102
 1869SOL     OW 7505   3.373   3.603   3.017
 1869SOL    HW2 7506   3.438   3.557   3.071
 1869SOL    HW3 7507   3.367   3.690   3.055
 1869SOL    MW4 7508   3.381   3.608   3.029
 1870SOL     OW 7509   3.369   3.871   3.118
 1870SOL    HW2 7510   3.372   3.858   3.213
 1870SOL    HW3 7511   3.287   3.917   3.103
 1870SOL    MW4 7512   3.359   3.875   3.129
 1871SOL     OW 7513   3.148   4.007   3.043
 1871SOL    HW2 7514   3.064   3.971   3.072
 1871SOL    HW3 7515   3.139   4.016   2.948
 1871SOL    MW4 7516   3.135   4.003   3.034
 1872SOL     OW 7517   3.169   4.263   3.102
 1872SOL    HW2 7518   3.168   4.271   3.197
 1872SOL    HW3 7519   3.178   4.168   3.086
 1872SOL    MW4 7520   3.170   4.251   3.113
 1873SOL     OW 7521   3.395   4.362   2.985
 1873SOL    HW2 7522   3.457   4.310   3.036
 1873SOL    HW3 7523   3.309   4.337   3.019
 1873SOL    MW4 7524   3.392   4.352   2.997
 1874SOL     OW 7525   3.821   4.614   3.079
 1874SOL    HW2 7526   3.814   4.530   3.034
 1874SOL    HW3 7527   3.750   4.667   3.043
 1874SOL    MW4 7528   3.811   4.610   3.069
 1875SOL     OW 7529   3.606   0.109   3.006
 1875SOL    HW2 7530   3.598   0.194   3.050
 1875SOL    HW3 7531   3.614   0.131   2.913
 1875SOL    MW4 7532   3.606   0.123   3.000
 1876SOL     OW 7533   3.594   0.358   3.145
 1876SOL    HW2 7534   3.603   0.372   3.239
 1876SOL    HW3 7535   3.654   0.421   3.105
 1876SOL    MW4 7536   3.603   0.368   3.152
 1877SOL     OW 7537   3.799   0.508   3.021
 1877SOL    HW2 7538   3.876   0.461   3.052
 1877SOL    HW3 7539   3.816   0.599   3.046
 1877SOL    MW4 7540   3.811   0.514   3.029
 1878SOL     OW 7541   3.849   0.766   3.106
 1878SOL    HW2 7542   3.856   0.789   3.199
 1878SOL    HW3 7543   3.926   0.807   3.066
 1878SOL    MW4 7544   3.860   0.774   3.113
 1879SOL     OW 7545   3.621   0.883   2.973
 1879SOL    HW2 7546   3.696   0.845   3.019
 1879SOL    HW3 7547   3.545   0.842   3.014
 1879SOL    MW4 7548   3.621   0.873   2.984
 1880SOL     OW 7549   3.595   1.162   3.056
 1880SOL    HW2 7550   3.683   1.196   3.041
 1880SOL    HW3 7551   3.596   1.074   3.019
 1880SOL    MW4 7552   3.607   1.155   3.049
 1881SOL     OW 7553   3.833   1.285   3.001
 1881SOL    HW2 7554   3.827   1.377   3.028
 1881SOL    HW3 7555   3.840   1.288   2.906
 1881SOL    MW4 7556   3.833   1.298   2.992
 1882SOL     OW 7557   3.851   1.543   3.081
 1882SOL    HW2 7558   3.855   1.556   3.176
 1882SOL    HW3 7559   3.769   1.583   3.054
 1882SOL    MW4 7560   3.841   1.550   3.090
 1883SOL     OW 7561   3.612   1.639   2.990
 1883SOL    HW2 7562   3.632   1.728   3.020
 1883SOL    HW3 7563   3.629   1.641   2.895
 1883SOL    MW4 7564   3.617   1.651   2.981
 1884SOL     OW 7565   3.577   1.893   3.099
 1884SOL    HW2 7566   3.585   1.884   3.194
 1884SOL    HW3 7567   3.650   1.950   3.074
 1884SOL    MW4 7568   3.588   1.899   3.109
 1885SOL     OW 7569   3.826   2.068   2.998
 1885SOL    HW2 7570   3.835   2.160   3.021
 1885SOL    HW3 7571   3.819   2.068   2.902
 1885SOL    MW4 7572   3.826   2.080   2.988
 1886SOL     OW 7573   3.849   2.332   3.082
 1886SOL    HW2 7574   3.845   2.362   3.173
 1886SOL    HW3 7575   3.762   2.351   3.047
 1886SOL    MW4 7576   3.837   2.338   3.090
 1887SOL     OW 7577   3.604   2.448   2.999
 1887SOL    HW2 7578   3.588   2.537   3.031
 1887SOL    HW3 7579   3.547   2.393   3.053
 1887SOL    MW4 7580   3.594   2.452   3.010
 1888SOL     OW 7581   3.630   2.708   3.095
 1888SOL    HW2 7582   3.703   2.738   3.042
 1888SOL    HW3 7583   3.555   2.760   3.064
 1888SOL    MW4 7584   3.630   2.719   3.084
 1889SOL     OW 7585   3.844   2.841   2.965
 1889SOL    HW2 7586   3.844   2.928   3.006
 1889SOL    HW3 7587   3.830   2.859   2.872
 1889SOL    MW4 7588   3.842   2.855   2.959
 1890SOL     OW 7589   3.838   3.082   3.095
 1890SOL    HW2 7590   3.917   3.126   3.065
 1890SOL    HW3 7591   3.767   3.126   3.048
 1890SOL    MW4 7592   3.839   3.094   3.085
 1891SOL     OW 7593   3.619   3.232   2.993
 1891SOL    HW2 7594   3.537   3.194   3.025
 1891SOL    HW3 7595   3.612   3.226   2.898
 1891SOL    MW4 7596   3.607   3.226   2.985
 1892SOL     OW 7597   3.577   3.462   3.153
 1892SOL    HW2 7598   3.651   3.515   3.123
 1892SOL    HW3 7599   3.587   3.379   3.106
 1892SOL    MW4 7600   3.588   3.458   3.143
 1893SOL     OW 7601   3.769   3.607   3.020
 1893SOL    HW2 7602   3.805   3.694   3.041
 1893SOL    HW3 7603   3.786   3.597   2.926
 1893SOL    MW4 7604   3.776   3.617   3.010
 1894SOL     OW 7605   3.835   3.863   3.089
 1894SOL    HW2 7606   3.848   3.880   3.183
 1894SOL    HW3 7607   3.751   3.904   3.069
 1894SOL    MW4 7608   3.826   3.871   3.099
 1895SOL     OW 7609   3.606   3.976   3.021
 1895SOL    HW2 7610   3.525   3.933   3.047
 1895SOL    HW3 7611   3.597   3.988   2.926
 1895SOL    MW4 7612   3.594   3.972   3.012
 1896SOL     OW 7613   3.598   4.226   3.134
 1896SOL    HW2 7614   3.666   4.272   3.085
 1896SOL    HW3 7615   3.593   4.140   3.092
 1896SOL    MW4 7616   3.606   4.221   3.122
 1897SOL     OW 7617   3.799   4.346   2.968
 1897SOL    HW2 7618   3.887   4.318   2.993
 1897SOL    HW3 7619   3.801   4.348   2.872
 1897SOL    MW4 7620   3.811   4.342   2.959
 1898SOL     OW 7621   4.242   4.666   3.080
 1898SOL    HW2 7622   4.271   4.675   3.171
 1898SOL    HW3 7623   4.250   4.573   3.061
 1898SOL    MW4 7624   4.247   4.655   3.089
 1899SOL     OW 7625   4.011   0.114   2.971
 1899SOL    HW2 7626   4.089   0.064   2.993
 1899SOL    HW3 7627   3.939   0.066   3.011
 1899SOL    MW4 7628   4.012   0.101   2.979
 1900SOL     OW 7629   4.031   0.363   3.105
 1900SOL    HW2 7630   4.114   0.390   3.066
 1900SOL    HW3 7631   4.023   0.270   3.082
 1900SOL    MW4 7632   4.041   0.354   3.097
 1901SOL     OW 7633   4.250   0.482   3.015
 1901SOL    HW2 7634   4.244   0.574   3.041
 1901SOL    HW3 7635   4.231   0.482   2.921
 1901SOL    MW4 7636   4.246   0.494   3.006
 1902SOL     OW 7637   4.313   0.743   3.101
 1902SOL    HW2 7638   4.239   0.792   3.067
 1902SOL    HW3 7639   4.390   0.794   3.075
 1902SOL    MW4 7640   4.313   0.756   3.093
 1903SOL     OW 7641   4.082   0.883   3.010
 1903SOL    HW2 7642   4.070   0.970   3.048
 1903SOL    HW3 7643   4.070   0.896   2.916
 1903SOL    MW4 7644   4.079   0.896   3.003
 1904SOL     OW 7645   4.047   1.140   3.094
 1904SOL    HW2 7646   4.055   1.155   3.188
 1904SOL    HW3 7647   3.984   1.206   3.065
 1904SOL    MW4 7648   4.039   1.151   3.103
 1905SOL     OW 7649   4.261   1.293   3.017
 1905SOL    HW2 7650   4.185   1.237   3.028
 1905SOL    HW3 7651   4.264   1.312   2.923
 1905SOL    MW4 7652   4.252   1.288   3.006
 1906SOL     OW 7653   4.238   1.559   3.125
 1906SOL    HW2 7654   4.173   1.602   3.070
 1906SOL    HW3 7655   4.232   1.466   3.101
 1906SOL    MW4 7656   4.228   1.552   3.115
 1907SOL     OW 7657   4.066   1.706   2.960
 1907SOL    HW2 7658   4.079   1.780   3.021
 1907SOL    HW3 7659   3.982   1.669   2.986
 1907SOL    MW4 7660   4.057   1.711   2.972
 1908SOL     OW 7661   4.057   1.928   3.124
 1908SOL    HW2 7662   4.134   1.981   3.100
 1908SOL    HW3 7663   3.982   1.979   3.092
 1908SOL    MW4 7664   4.057   1.942   3.116
 1909SOL     OW 7665   4.255   2.094   3.040
 1909SOL    HW2 7666   4.256   2.181   3.078
 1909SOL    HW3 7667   4.252   2.108   2.945
 1909SOL    MW4 7668   4.255   2.107   3.032
 1910SOL     OW 7669   4.256   2.357   3.094
 1910SOL    HW2 7670   4.188   2.396   3.038
 1910SOL    HW3 7671   4.339   2.388   3.056
 1910SOL    MW4 7672   4.258   2.366   3.081
 1911SOL     OW 7673   4.038   2.480   2.958
 1911SOL    HW2 7674   4.042   2.564   3.004
 1911SOL    HW3 7675   3.974   2.429   3.007
 1911SOL    MW4 7676   4.030   2.484   2.971
 1912SOL     OW 7677   4.045   2.719   3.097
 1912SOL    HW2 7678   4.032   2.716   3.192
 1912SOL    HW3 7679   3.969   2.767   3.064
 1912SOL    MW4 7680   4.034   2.725   3.105
 1913SOL     OW 7681   4.262   2.824   2.988
 1913SOL    HW2 7682   4.184   2.787   3.030
 1913SOL    HW3 7683   4.336   2.785   3.035
 1913SOL    MW4 7684   4.261   2.814   3.000
 1914SOL     OW 7685   4.276   3.098   3.073
 1914SOL    HW2 7686   4.194   3.134   3.040
 1914SOL    HW3 7687   4.273   3.006   3.049
 1914SOL    MW4 7688   4.265   3.091   3.066
 1915SOL     OW 7689   4.056   3.222   2.975
 1915SOL    HW2 7690   4.055   3.316   2.996
 1915SOL    HW3 7691   4.057   3.219   2.879
 1915SOL    MW4 7692   4.056   3.234   2.965
 1916SOL     OW 7693   4.041   3.492   3.102
 1916SOL    HW2 7694   4.045   3.491   3.198
 1916SOL    HW3 7695   3.951   3.518   3.083
 1916SOL    MW4 7696   4.029   3.495   3.112
 1917SOL     OW 7697   4.275   3.647   2.971
 1917SOL    HW2 7698   4.277   3.736   3.007
 1917SOL    HW3 7699   4.208   3.602   3.022
 1917SOL    MW4 7700   4.267   3.653   2.983
 1918SOL     OW 7701   4.259   3.888   3.120
 1918SOL    HW2 7702   4.187   3.928   3.071
 1918SOL    HW3 7703   4.338   3.930   3.086
 1918SOL    MW4 7704   4.260   3.899   3.109
 1919SOL     OW 7705   4.042   4.003   2.977
 1919SOL    HW2 7706   4.029   4.088   3.019
 1919SOL    HW3 7707   3.975   3.946   3.016
 1919SOL    MW4 7708   4.031   4.007   2.988
 1920SOL     OW 7709   4.042   4.273   3.080
 1920SOL    HW2 7710   4.040   4.272   3.175
 1920SOL    HW3 7711   4.126   4.311   3.057
 1920SOL    MW4 7712   4.053   4.278   3.089
 1921SOL     OW 7713   4.264   4.406   2.967
 1921SOL    HW2 7714   4.336   4.358   3.009
 1921SOL    HW3 7715   4.279   4.396   2.873
 1921SOL    MW4 7716   4.275   4.399   2.960
 1922SOL     OW 7717   0.254   0.013   3.378
 1922SOL    HW2 7718   0.331   0.044   3.426
 1922SOL    HW3 7719   0.235  -0.072   3.417
 1922SOL    MW4 7720   0.261   0.006   3.389
 1923SOL     OW 7721   0.046   0.164   3.460
 1923SOL    HW2 7722   0.032   0.250   3.421
 1923SOL    HW3 7723   0.130   0.135   3.425
 1923SOL    MW4 7724   0.055   0.171   3.450
 1924SOL     OW 7725   0.042   0.425   3.375
 1924SOL    HW2 7726  -0.032   0.473   3.413
 1924SOL    HW3 7727   0.114   0.442   3.435
 1924SOL    MW4 7728   0.042   0.433   3.388
 1925SOL     OW 7729   0.234   0.501   3.534
 1925SOL    HW2 7730   0.316   0.470   3.496
 1925SOL    HW3 7731   0.223   0.590   3.499
 1925SOL    MW4 7732   0.243   0.509   3.524
 1926SOL     OW 7733   0.181   0.752   3.383
 1926SOL    HW2 7734   0.249   0.807   3.421
 1926SOL    HW3 7735   0.101   0.802   3.394
 1926SOL    MW4 7736   0.180   0.766   3.389
 1927SOL     OW 7737   4.452   0.892   3.479
 1927SOL    HW2 7738   4.482   0.877   3.569
 1927SOL    HW3 7739   4.445   0.987   3.471
 1927SOL    MW4 7740   4.455   0.902   3.490
 1928SOL     OW 7741   4.460   1.165   3.433
 1928SOL    HW2 7742   4.542   1.200   3.468
 1928SOL    HW3 7743   4.472   1.165   3.338
 1928SOL    MW4 7744   4.472   1.169   3.425
 1929SOL     OW 7745   0.228   1.273   3.519
 1929SOL    HW2 7746   0.287   1.220   3.465
 1929SOL    HW3 7747   0.222   1.356   3.473
 1929SOL    MW4 7748   0.235   1.277   3.506
 1930SOL     OW 7749   0.224   1.506   3.361
 1930SOL    HW2 7750   0.287   1.572   3.389
 1930SOL    HW3 7751   0.212   1.523   3.267
 1930SOL    MW4 7752   0.231   1.517   3.352
 1931SOL     OW 7753   0.031   1.691   3.470
 1931SOL    HW2 7754  -0.046   1.646   3.437
 1931SOL    HW3 7755   0.105   1.636   3.443
 1931SOL    MW4 7756   0.031   1.678   3.462
 1932SOL     OW 7757   0.019   1.958   3.386
 1932SOL    HW2 7758   0.033   1.870   3.421
 1932SOL    HW3 7759   0.001   1.944   3.293
 1932SOL    MW4 7760   0.018   1.945   3.378
 1933SOL     OW 7761   0.264   2.095   3.483
 1933SOL    HW2 7762   0.262   2.094   3.578
 1933SOL    HW3 7763   0.174   2.076   3.457
 1933SOL    MW4 7764   0.252   2.092   3.492
 1934SOL     OW 7765   0.230   2.340   3.354
 1934SOL    HW2 7766   0.152   2.390   3.376
 1934SOL    HW3 7767   0.218   2.256   3.398
 1934SOL    MW4 7768   0.218   2.336   3.363
 1935SOL     OW 7769   0.006   2.461   3.453
 1935SOL    HW2 7770  -0.003   2.462   3.548
 1935SOL    HW3 7771  -0.067   2.408   3.422
 1935SOL    MW4 7772  -0.005   2.454   3.462
 1936SOL     OW 7773   0.026   2.736   3.381
 1936SOL    HW2 7774   0.102   2.770   3.429
 1936SOL    HW3 7775   0.030   2.641   3.394
 1936SOL    MW4 7776   0.037   2.728   3.389
 1937SOL     OW 7777   0.248   2.851   3.509
 1937SOL    HW2 7778   0.326   2.799   3.490
 1937SOL    HW3 7779   0.255   2.927   3.451
 1937SOL    MW4 7780   0.259   2.854   3.499
 1938SOL     OW 7781   0.247   3.084   3.357
 1938SOL    HW2 7782   0.180   3.125   3.413
 1938SOL    HW3 7783   0.212   3.093   3.268
 1938SOL    MW4 7784   0.233   3.090   3.353
 1939SOL     OW 7785   0.007   3.216   3.458
 1939SOL    HW2 7786  -0.062   3.169   3.410
 1939SOL    HW3 7787   0.004   3.305   3.423
 1939SOL    MW4 7788  -0.003   3.222   3.447
 1940SOL     OW 7789   0.021   3.494   3.336
 1940SOL    HW2 7790  -0.067   3.512   3.369
 1940SOL    HW3 7791   0.008   3.478   3.242
 1940SOL    MW4 7792   0.008   3.494   3.328
 1941SOL     OW 7793   0.250   3.615   3.464
 1941SOL    HW2 7794   0.231   3.624   3.557
 1941SOL    HW3 7795   0.179   3.562   3.430
 1941SOL    MW4 7796   0.238   3.609   3.472
 1942SOL     OW 7797   0.252   3.881   3.369
 1942SOL    HW2 7798   0.195   3.931   3.428
 1942SOL    HW3 7799   0.247   3.791   3.400
 1942SOL    MW4 7800   0.244   3.876   3.381
 1943SOL     OW 7801   0.042   4.007   3.507
 1943SOL    HW2 7802   0.024   4.009   3.601
 1943SOL    HW3 7803   0.031   4.098   3.478
 1943SOL    MW4 7804   0.038   4.019   3.516
 1944SOL     OW 7805   0.023   4.260   3.383
 1944SOL    HW2 7806  -0.051   4.311   3.416
 1944SOL    HW3 7807   0.100   4.311   3.407
 1944SOL    MW4 7808   0.023   4.274   3.390
 1945SOL     OW 7809   0.226   4.417   3.460
 1945SOL    HW2 7810   0.226   4.425   3.555
 1945SOL    HW3 7811   0.309   4.373   3.439
 1945SOL    MW4 7812   0.237   4.412   3.470
 1946SOL     OW 7813   0.688   0.003   3.378
 1946SOL    HW2 7814   0.777   0.017   3.410
 1946SOL    HW3 7815   0.694   0.011   3.283
 1946SOL    MW4 7816   0.700   0.006   3.370
 1947SOL     OW 7817   0.464   0.154   3.487
 1947SOL    HW2 7818   0.471   0.147   3.583
 1947SOL    HW3 7819   0.543   0.113   3.454
 1947SOL    MW4 7820   0.475   0.148   3.495
 1948SOL     OW 7821   0.461   0.421   3.387
 1948SOL    HW2 7822   0.525   0.454   3.450
 1948SOL    HW3 7823   0.453   0.328   3.406
 1948SOL    MW4 7824   0.469   0.413   3.398
 1949SOL     OW 7825   0.687   0.515   3.518
 1949SOL    HW2 7826   0.678   0.511   3.614
 1949SOL    HW3 7827   0.754   0.449   3.499
 1949SOL    MW4 7828   0.695   0.506   3.528
 1950SOL     OW 7829   0.637   0.761   3.413
 1950SOL    HW2 7830   0.557   0.784   3.459
 1950SOL    HW3 7831   0.663   0.676   3.451
 1950SOL    MW4 7832   0.630   0.753   3.424
 1951SOL     OW 7833   0.396   0.876   3.491
 1951SOL    HW2 7834   0.428   0.879   3.581
 1951SOL    HW3 7835   0.432   0.955   3.450
 1951SOL    MW4 7836   0.405   0.887   3.498
 1952SOL     OW 7837   0.436   1.137   3.371
 1952SOL    HW2 7838   0.518   1.165   3.413
 1952SOL    HW3 7839   0.444   1.166   3.281
 1952SOL    MW4 7840   0.448   1.145   3.365
 1953SOL     OW 7841   0.658   1.263   3.485
 1953SOL    HW2 7842   0.743   1.238   3.450
 1953SOL    HW3 7843   0.645   1.353   3.456
 1953SOL    MW4 7844   0.667   1.271   3.477
 1954SOL     OW 7845   0.656   1.528   3.412
 1954SOL    HW2 7846   0.733   1.580   3.436
 1954SOL    HW3 7847   0.582   1.576   3.447
 1954SOL    MW4 7848   0.657   1.541   3.420
 1955SOL     OW 7849   0.413   1.677   3.493
 1955SOL    HW2 7850   0.401   1.692   3.587
 1955SOL    HW3 7851   0.431   1.764   3.457
 1955SOL    MW4 7852   0.414   1.691   3.501
 1956SOL     OW 7853   0.459   1.927   3.369
 1956SOL    HW2 7854   0.394   1.978   3.417
 1956SOL    HW3 7855   0.432   1.934   3.277
 1956SOL    MW4 7856   0.447   1.935   3.363
 1957SOL     OW 7857   0.663   2.061   3.489
 1957SOL    HW2 7858   0.652   2.050   3.583
 1957SOL    HW3 7859   0.601   2.000   3.450
 1957SOL    MW4 7860   0.654   2.051   3.496
 1958SOL     OW 7861   0.674   2.314   3.381
 1958SOL    HW2 7862   0.736   2.365   3.432
 1958SOL    HW3 7863   0.666   2.231   3.428
 1958SOL    MW4 7864   0.681   2.309   3.394
 1959SOL     OW 7865   0.444   2.455   3.463
 1959SOL    HW2 7866   0.516   2.403   3.430
 1959SOL    HW3 7867   0.366   2.414   3.426
 1959SOL    MW4 7868   0.443   2.443   3.454
 1960SOL     OW 7869   0.455   2.713   3.384
 1960SOL    HW2 7870   0.444   2.622   3.414
 1960SOL    HW3 7871   0.430   2.710   3.291
 1960SOL    MW4 7872   0.450   2.700   3.376
 1961SOL     OW 7873   0.687   2.831   3.479
 1961SOL    HW2 7874   0.760   2.784   3.439
 1961SOL    HW3 7875   0.609   2.783   3.449
 1961SOL    MW4 7876   0.686   2.818   3.470
 1962SOL     OW 7877   0.711   3.079   3.371
 1962SOL    HW2 7878   0.624   3.114   3.391
 1962SOL    HW3 7879   0.712   2.992   3.409
 1962SOL    MW4 7880   0.700   3.072   3.378
 1963SOL     OW 7881   0.475   3.219   3.425
 1963SOL    HW2 7882   0.455   3.233   3.518
 1963SOL    HW3 7883   0.398   3.175   3.390
 1963SOL    MW4 7884   0.462   3.215   3.433
 1964SOL     OW 7885   0.484   3.497   3.352
 1964SOL    HW2 7886   0.476   3.406   3.378
 1964SOL    HW3 7887   0.409   3.540   3.393
 1964SOL    MW4 7888   0.473   3.491   3.361
 1965SOL     OW 7889   0.651   3.633   3.517
 1965SOL    HW2 7890   0.733   3.585   3.501
 1965SOL    HW3 7891   0.586   3.590   3.462
 1965SOL    MW4 7892   0.653   3.621   3.507
 1966SOL     OW 7893   0.706   3.875   3.389
 1966SOL    HW2 7894   0.626   3.927   3.402
 1966SOL    HW3 7895   0.691   3.795   3.439
 1966SOL    MW4 7896   0.693   3.871   3.397
 1967SOL     OW 7897   0.480   4.015   3.490
 1967SOL    HW2 7898   0.468   4.105   3.459
 1967SOL    HW3 7899   0.398   3.971   3.469
 1967SOL    MW4 7900   0.468   4.021   3.483
 1968SOL     OW 7901   0.470   4.283   3.396
 1968SOL    HW2 7902   0.540   4.331   3.440
 1968SOL    HW3 7903   0.496   4.282   3.304
 1968SOL    MW4 7904   0.483   4.289   3.390
 1969SOL     OW 7905   0.695   4.406   3.504
 1969SOL    HW2 7906   0.773   4.362   3.471
 1969SOL    HW3 7907   0.698   4.494   3.465
 1969SOL    MW4 7908   0.705   4.412   3.495
 1970SOL     OW 7909   1.138   4.594   3.367
 1970SOL    HW2 7910   1.202   4.648   3.412
 1970SOL    HW3 7911   1.140   4.625   3.276
 1970SOL    MW4 7912   1.147   4.605   3.361
 1971SOL     OW 7913   0.942   0.073   3.467
 1971SOL    HW2 7914   0.937   0.050   3.559
 1971SOL    HW3 7915   1.012   0.016   3.432
 1971SOL    MW4 7916   0.951   0.062   3.474
 1972SOL     OW 7917   0.899   0.346   3.412
 1972SOL    HW2 7918   0.970   0.396   3.451
 1972SOL    HW3 7919   0.925   0.254   3.423
 1972SOL    MW4 7920   0.912   0.340   3.419
 1973SOL     OW 7921   1.138   0.473   3.487
 1973SOL    HW2 7922   1.157   0.476   3.581
 1973SOL    HW3 7923   1.150   0.563   3.457
 1973SOL    MW4 7924   1.142   0.485   3.495
 1974SOL     OW 7925   1.148   0.725   3.385
 1974SOL    HW2 7926   1.219   0.765   3.435
 1974SOL    HW3 7927   1.070   0.774   3.413
 1974SOL    MW4 7928   1.147   0.737   3.395
 1975SOL     OW 7929   0.894   0.857   3.490
 1975SOL    HW2 7930   0.882   0.949   3.465
 1975SOL    HW3 7931   0.811   0.815   3.468
 1975SOL    MW4 7932   0.882   0.864   3.484
 1976SOL     OW 7933   0.888   1.135   3.401
 1976SOL    HW2 7934   0.966   1.176   3.439
 1976SOL    HW3 7935   0.902   1.139   3.307
 1976SOL    MW4 7936   0.900   1.141   3.394
 1977SOL     OW 7937   1.133   1.251   3.465
 1977SOL    HW2 7938   1.132   1.249   3.561
 1977SOL    HW3 7939   1.143   1.343   3.443
 1977SOL    MW4 7940   1.134   1.263   3.475
 1978SOL     OW 7941   1.117   1.535   3.377
 1978SOL    HW2 7942   1.191   1.590   3.402
 1978SOL    HW3 7943   1.116   1.536   3.281
 1978SOL    MW4 7944   1.126   1.542   3.368
 1979SOL     OW 7945   0.890   1.659   3.487
 1979SOL    HW2 7946   0.897   1.750   3.456
 1979SOL    HW3 7947   0.966   1.615   3.450
 1979SOL    MW4 7948   0.901   1.665   3.478
 1980SOL     OW 7949   0.904   1.920   3.429
 1980SOL    HW2 7950   0.986   1.970   3.429
 1980SOL    HW3 7951   0.842   1.976   3.477
 1980SOL    MW4 7952   0.906   1.934   3.435
 1981SOL     OW 7953   1.129   2.089   3.496
 1981SOL    HW2 7954   1.194   2.047   3.439
 1981SOL    HW3 7955   1.105   2.169   3.450
 1981SOL    MW4 7956   1.135   2.094   3.483
 1982SOL     OW 7957   1.100   2.353   3.386
 1982SOL    HW2 7958   1.180   2.393   3.419
 1982SOL    HW3 7959   1.109   2.357   3.290
 1982SOL    MW4 7960   1.112   2.359   3.378
 1983SOL     OW 7961   0.877   2.481   3.483
 1983SOL    HW2 7962   0.889   2.474   3.577
 1983SOL    HW3 7963   0.953   2.436   3.445
 1983SOL    MW4 7964   0.889   2.474   3.490
 1984SOL     OW 7965   0.903   2.725   3.353
 1984SOL    HW2 7966   0.978   2.773   3.389
 1984SOL    HW3 7967   0.904   2.642   3.401
 1984SOL    MW4 7968   0.913   2.720   3.364
 1985SOL     OW 7969   1.098   2.875   3.495
 1985SOL    HW2 7970   1.105   2.885   3.590
 1985SOL    HW3 7971   1.177   2.828   3.470
 1985SOL    MW4 7972   1.109   2.870   3.504
 1986SOL     OW 7973   1.129   3.112   3.356
 1986SOL    HW2 7974   1.110   3.026   3.394
 1986SOL    HW3 7975   1.137   3.095   3.262
 1986SOL    MW4 7976   1.127   3.098   3.349
 1987SOL     OW 7977   0.911   3.229   3.478
 1987SOL    HW2 7978   0.997   3.205   3.444
 1987SOL    HW3 7979   0.850   3.168   3.436
 1987SOL    MW4 7980   0.914   3.218   3.468
 1988SOL     OW 7981   0.887   3.499   3.400
 1988SOL    HW2 7982   0.885   3.404   3.412
 1988SOL    HW3 7983   0.882   3.512   3.306
 1988SOL    MW4 7984   0.886   3.488   3.389
 1989SOL     OW 7985   1.126   3.596   3.491
 1989SOL    HW2 7986   1.124   3.584   3.586
 1989SOL    HW3 7987   1.041   3.566   3.461
 1989SOL    MW4 7988   1.115   3.590   3.499
 1990SOL     OW 7989   1.128   3.850   3.391
 1990SOL    HW2 7990   1.191   3.893   3.450
 1990SOL    HW3 7991   1.124   3.759   3.423
 1990SOL    MW4 7992   1.136   3.844   3.403
 1991SOL     OW 7993   0.932   4.026   3.475
 1991SOL    HW2 7994   0.999   3.968   3.439
 1991SOL    HW3 7995   0.850   3.996   3.434
 1991SOL    MW4 7996   0.930   4.014   3.465
 1992SOL     OW 7997   0.901   4.264   3.367
 1992SOL    HW2 7998   0.911   4.175   3.402
 1992SOL    HW3 7999   0.912   4.253   3.272
 1992SOL    MW4 8000   0.904   4.251   3.359
 1993SOL     OW 8001   1.124   4.369   3.501
 1993SOL    HW2 8002   1.049   4.326   3.460
 1993SOL    HW3 8003   1.139   4.447   3.448
 1993SOL    MW4 8004   1.116   4.374   3.489
 1994SOL     OW 8005   1.568   4.624   3.356
 1994SOL    HW2 8006   1.562   4.530   3.376
 1994SOL    HW3 8007   1.495   4.663   3.404
 1994SOL    MW4 8008   1.557   4.616   3.365
 1995SOL     OW 8009   1.342   0.074   3.468
 1995SOL    HW2 8010   1.336   0.097   3.560
 1995SOL    HW3 8011   1.360   0.157   3.424
 1995SOL    MW4 8012   1.344   0.088   3.474
 1996SOL     OW 8013   1.373   0.349   3.397
 1996SOL    HW2 8014   1.446   0.399   3.431
 1996SOL    HW3 8015   1.295   0.389   3.435
 1996SOL    MW4 8016   1.372   0.361   3.406
 1997SOL     OW 8017   1.594   0.495   3.553
 1997SOL    HW2 8018   1.578   0.512   3.646
 1997SOL    HW3 8019   1.665   0.431   3.552
 1997SOL    MW4 8020   1.601   0.489   3.565
 1998SOL     OW 8021   1.571   0.695   3.393
 1998SOL    HW2 8022   1.485   0.720   3.428
 1998SOL    HW3 8023   1.602   0.627   3.452
 1998SOL    MW4 8024   1.563   0.689   3.405
 1999SOL     OW 8025   1.376   0.828   3.514
 1999SOL    HW2 8026   1.380   0.849   3.607
 1999SOL    HW3 8027   1.366   0.913   3.471
 1999SOL    MW4 8028   1.376   0.842   3.520
 2000SOL     OW 8029   1.364   1.088   3.413
 2000SOL    HW2 8030   1.424   1.159   3.437
 2000SOL    HW3 8031   1.277   1.125   3.430
 2000SOL    MW4 8032   1.360   1.102   3.419
 2001SOL     OW 8033   1.534   1.278   3.479
 2001SOL    HW2 8034   1.532   1.280   3.575
 2001SOL    HW3 8035   1.611   1.226   3.458
 2001SOL    MW4 8036   1.544   1.272   3.489
 2002SOL     OW 8037   1.549   1.528   3.409
 2002SOL    HW2 8038   1.535   1.441   3.447
 2002SOL    HW3 8039   1.541   1.515   3.315
 2002SOL    MW4 8040   1.546   1.515   3.402
 2003SOL     OW 8041   1.319   1.704   3.462
 2003SOL    HW2 8042   1.300   1.686   3.554
 2003SOL    HW3 8043   1.398   1.653   3.443
 2003SOL    MW4 8044   1.327   1.695   3.472
 2004SOL     OW 8045   1.316   1.957   3.360
 2004SOL    HW2 8046   1.382   2.001   3.413
 2004SOL    HW3 8047   1.317   1.867   3.390
 2004SOL    MW4 8048   1.325   1.951   3.371
 2005SOL     OW 8049   1.534   2.073   3.495
 2005SOL    HW2 8050   1.610   2.022   3.466
 2005SOL    HW3 8051   1.561   2.164   3.483
 2005SOL    MW4 8052   1.548   2.078   3.489
 2006SOL     OW 8053   1.559   2.334   3.388
 2006SOL    HW2 8054   1.483   2.392   3.383
 2006SOL    HW3 8055   1.583   2.319   3.296
 2006SOL    MW4 8056   1.552   2.340   3.375
 2007SOL     OW 8057   1.326   2.481   3.460
 2007SOL    HW2 8058   1.312   2.490   3.555
 2007SOL    HW3 8059   1.325   2.570   3.427
 2007SOL    MW4 8060   1.324   2.494   3.468
 2008SOL     OW 8061   1.313   2.752   3.379
 2008SOL    HW2 8062   1.394   2.793   3.411
 2008SOL    HW3 8063   1.315   2.764   3.284
 2008SOL    MW4 8064   1.324   2.759   3.371
 2009SOL     OW 8065   1.544   2.864   3.478
 2009SOL    HW2 8066   1.626   2.817   3.466
 2009SOL    HW3 8067   1.558   2.949   3.437
 2009SOL    MW4 8068   1.557   2.869   3.471
 2010SOL     OW 8069   1.603   3.106   3.349
 2010SOL    HW2 8070   1.669   3.169   3.378
 2010SOL    HW3 8071   1.520   3.143   3.380
 2010SOL    MW4 8072   1.601   3.120   3.357
 2011SOL     OW 8073   1.371   3.161   3.493
 2011SOL    HW2 8074   1.345   3.181   3.583
 2011SOL    HW3 8075   1.289   3.139   3.449
 2011SOL    MW4 8076   1.357   3.161   3.499
 2012SOL     OW 8077   1.330   3.447   3.392
 2012SOL    HW2 8078   1.336   3.371   3.450
 2012SOL    HW3 8079   1.252   3.494   3.422
 2012SOL    MW4 8080   1.320   3.443   3.403
 2013SOL     OW 8081   1.570   3.597   3.479
 2013SOL    HW2 8082   1.561   3.593   3.575
 2013SOL    HW3 8083   1.487   3.562   3.446
 2013SOL    MW4 8084   1.558   3.592   3.487
 2014SOL     OW 8085   1.603   3.871   3.385
 2014SOL    HW2 8086   1.582   3.781   3.412
 2014SOL    HW3 8087   1.581   3.873   3.292
 2014SOL    MW4 8088   1.597   3.859   3.376
 2015SOL     OW 8089   1.348   3.976   3.498
 2015SOL    HW2 8090   1.361   4.068   3.473
 2015SOL    HW3 8091   1.429   3.932   3.471
 2015SOL    MW4 8092   1.360   3.983   3.491
 2016SOL     OW 8093   1.354   4.248   3.426
 2016SOL    HW2 8094   1.271   4.292   3.445
 2016SOL    HW3 8095   1.357   4.242   3.331
 2016SOL    MW4 8096   1.343   4.253   3.416
 2017SOL     OW 8097   1.598   4.372   3.477
 2017SOL    HW2 8098   1.675   4.321   3.451
 2017SOL    HW3 8099   1.523   4.318   3.452
 2017SOL    MW4 8100   1.598   4.358   3.470
 2018SOL     OW 8101   2.017   4.650   3.362
 2018SOL    HW2 8102   2.084   4.708   3.398
 2018SOL    HW3 8103   1.936   4.679   3.404
 2018SOL    MW4 8104   2.015   4.662   3.372
 2019SOL     OW 8105   1.780   0.070   3.502
 2019SOL    HW2 8106   1.787   0.057   3.597
 2019SOL    HW3 8107   1.696   0.030   3.479
 2019SOL    MW4 8108   1.770   0.063   3.512
 2020SOL     OW 8109   1.805   0.350   3.459
 2020SOL    HW2 8110   1.782   0.260   3.480
 2020SOL    HW3 8111   1.796   0.355   3.363
 2020SOL    MW4 8112   1.801   0.339   3.449
 2021SOL     OW 8113   2.018   0.511   3.492
 2021SOL    HW2 8114   2.006   0.601   3.462
 2021SOL    HW3 8115   1.938   0.466   3.464
 2021SOL    MW4 8116   2.006   0.517   3.484
 2022SOL     OW 8117   1.956   0.775   3.403
 2022SOL    HW2 8118   2.037   0.814   3.436
 2022SOL    HW3 8119   1.975   0.753   3.312
 2022SOL    MW4 8120   1.969   0.778   3.395
 2023SOL     OW 8121   1.727   0.893   3.505
 2023SOL    HW2 8122   1.809   0.856   3.472
 2023SOL    HW3 8123   1.659   0.835   3.470
 2023SOL    MW4 8124   1.729   0.880   3.496
 2024SOL     OW 8125   1.756   1.133   3.384
 2024SOL    HW2 8126   1.831   1.177   3.423
 2024SOL    HW3 8127   1.756   1.045   3.423
 2024SOL    MW4 8128   1.766   1.127   3.394
 2025SOL     OW 8129   1.979   1.278   3.465
 2025SOL    HW2 8130   1.974   1.274   3.561
 2025SOL    HW3 8131   1.982   1.372   3.445
 2025SOL    MW4 8132   1.979   1.290   3.475
 2026SOL     OW 8133   2.016   1.525   3.371
 2026SOL    HW2 8134   2.101   1.551   3.407
 2026SOL    HW3 8135   1.954   1.587   3.411
 2026SOL    MW4 8136   2.019   1.537   3.381
 2027SOL     OW 8137   1.789   1.647   3.475
 2027SOL    HW2 8138   1.779   1.740   3.453
 2027SOL    HW3 8139   1.709   1.606   3.444
 2027SOL    MW4 8140   1.777   1.654   3.468
 2028SOL     OW 8141   1.776   1.922   3.400
 2028SOL    HW2 8142   1.865   1.955   3.411
 2028SOL    HW3 8143   1.760   1.928   3.305
 2028SOL    MW4 8144   1.785   1.927   3.389
 2029SOL     OW 8145   2.001   2.052   3.483
 2029SOL    HW2 8146   2.087   2.011   3.476
 2029SOL    HW3 8147   2.013   2.141   3.448
 2029SOL    MW4 8148   2.014   2.059   3.478
 2030SOL     OW 8149   1.967   2.313   3.385
 2030SOL    HW2 8150   2.050   2.332   3.429
 2030SOL    HW3 8151   1.991   2.310   3.292
 2030SOL    MW4 8152   1.981   2.315   3.378
 2031SOL     OW 8153   1.778   2.483   3.496
 2031SOL    HW2 8154   1.846   2.428   3.459
 2031SOL    HW3 8155   1.698   2.456   3.451
 2031SOL    MW4 8156   1.776   2.472   3.485
 2032SOL     OW 8157   1.806   2.752   3.387
 2032SOL    HW2 8158   1.886   2.796   3.416
 2032SOL    HW3 8159   1.810   2.666   3.429
 2032SOL    MW4 8160   1.817   2.746   3.397
 2033SOL     OW 8161   2.037   2.851   3.489
 2033SOL    HW2 8162   2.029   2.859   3.584
 2033SOL    HW3 8163   2.020   2.939   3.456
 2033SOL    MW4 8164   2.034   2.864   3.497
 2034SOL     OW 8165   2.029   3.105   3.385
 2034SOL    HW2 8166   2.101   3.157   3.422
 2034SOL    HW3 8167   1.952   3.160   3.397
 2034SOL    MW4 8168   2.029   3.120   3.392
 2035SOL     OW 8169   1.809   3.257   3.449
 2035SOL    HW2 8170   1.805   3.256   3.545
 2035SOL    HW3 8171   1.808   3.350   3.426
 2035SOL    MW4 8172   1.809   3.269   3.459
 2036SOL     OW 8173   1.812   3.512   3.388
 2036SOL    HW2 8174   1.723   3.534   3.414
 2036SOL    HW3 8175   1.811   3.520   3.292
 2036SOL    MW4 8176   1.800   3.516   3.378
 2037SOL     OW 8177   2.052   3.627   3.474
 2037SOL    HW2 8178   2.110   3.567   3.427
 2037SOL    HW3 8179   1.964   3.595   3.456
 2037SOL    MW4 8180   2.048   3.615   3.465
 2038SOL     OW 8181   2.083   3.879   3.355
 2038SOL    HW2 8182   2.004   3.929   3.379
 2038SOL    HW3 8183   2.073   3.795   3.399
 2038SOL    MW4 8184   2.071   3.875   3.364
 2039SOL     OW 8185   1.843   4.003   3.451
 2039SOL    HW2 8186   1.846   3.998   3.546
 2039SOL    HW3 8187   1.761   3.960   3.427
 2039SOL    MW4 8188   1.833   3.997   3.460
 2040SOL     OW 8189   1.834   4.260   3.394
 2040SOL    HW2 8190   1.858   4.169   3.412
 2040SOL    HW3 8191   1.829   4.266   3.298
 2040SOL    MW4 8192   1.836   4.249   3.384
 2041SOL     OW 8193   2.046   4.407   3.500
 2041SOL    HW2 8194   1.963   4.369   3.469
 2041SOL    HW3 8195   2.046   4.495   3.464
 2041SOL    MW4 8196   2.035   4.413   3.491
 2042SOL     OW 8197   2.483   4.660   3.369
 2042SOL    HW2 8198   2.480   4.569   3.398
 2042SOL    HW3 8199   2.487   4.655   3.274
 2042SOL    MW4 8200   2.483   4.648   3.360
 2043SOL     OW 8201   2.251   0.116   3.450
 2043SOL    HW2 8202   2.267   0.203   3.413
 2043SOL    HW3 8203   2.327   0.064   3.423
 2043SOL    MW4 8204   2.263   0.121   3.442
 2044SOL     OW 8205   2.245   0.391   3.373
 2044SOL    HW2 8206   2.304   0.427   3.440
 2044SOL    HW3 8207   2.160   0.430   3.393
 2044SOL    MW4 8208   2.242   0.401   3.385
 2045SOL     OW 8209   2.463   0.503   3.532
 2045SOL    HW2 8210   2.540   0.455   3.502
 2045SOL    HW3 8211   2.459   0.580   3.475
 2045SOL    MW4 8212   2.473   0.507   3.520
 2046SOL     OW 8213   2.445   0.770   3.406
 2046SOL    HW2 8214   2.526   0.811   3.438
 2046SOL    HW3 8215   2.458   0.763   3.312
 2046SOL    MW4 8216   2.458   0.774   3.398
 2047SOL     OW 8217   2.193   0.874   3.474
 2047SOL    HW2 8218   2.195   0.962   3.437
 2047SOL    HW3 8219   2.279   0.838   3.454
 2047SOL    MW4 8220   2.205   0.881   3.467
 2048SOL     OW 8221   2.174   1.129   3.352
 2048SOL    HW2 8222   2.240   1.184   3.393
 2048SOL    HW3 8223   2.090   1.168   3.379
 2048SOL    MW4 8224   2.171   1.141   3.361
 2049SOL     OW 8225   2.375   1.270   3.459
 2049SOL    HW2 8226   2.393   1.242   3.549
 2049SOL    HW3 8227   2.452   1.243   3.409
 2049SOL    MW4 8228   2.387   1.263   3.464
 2050SOL     OW 8229   2.456   1.536   3.410
 2050SOL    HW2 8230   2.423   1.454   3.448
 2050SOL    HW3 8231   2.467   1.516   3.317
 2050SOL    MW4 8232   2.454   1.522   3.403
 2051SOL     OW 8233   2.237   1.667   3.517
 2051SOL    HW2 8234   2.231   1.686   3.611
 2051SOL    HW3 8235   2.319   1.620   3.507
 2051SOL    MW4 8236   2.247   1.663   3.528
 2052SOL     OW 8237   2.229   1.907   3.411
 2052SOL    HW2 8238   2.207   1.820   3.445
 2052SOL    HW3 8239   2.219   1.899   3.317
 2052SOL    MW4 8240   2.225   1.894   3.403
 2053SOL     OW 8241   2.458   2.056   3.496
 2053SOL    HW2 8242   2.439   2.059   3.590
 2053SOL    HW3 8243   2.388   2.003   3.459
 2053SOL    MW4 8244   2.446   2.050   3.504
 2054SOL     OW 8245   2.415   2.297   3.402
 2054SOL    HW2 8246   2.475   2.357   3.446
 2054SOL    HW3 8247   2.428   2.213   3.446
 2054SOL    MW4 8248   2.425   2.294   3.413
 2055SOL     OW 8249   2.181   2.403   3.522
 2055SOL    HW2 8250   2.190   2.497   3.504
 2055SOL    HW3 8251   2.253   2.362   3.472
 2055SOL    MW4 8252   2.192   2.410   3.513
 2056SOL     OW 8253   2.236   2.664   3.446
 2056SOL    HW2 8254   2.166   2.724   3.471
 2056SOL    HW3 8255   2.229   2.656   3.351
 2056SOL    MW4 8256   2.226   2.671   3.437
 2057SOL     OW 8257   2.482   2.795   3.518
 2057SOL    HW2 8258   2.467   2.883   3.483
 2057SOL    HW3 8259   2.403   2.746   3.497
 2057SOL    MW4 8260   2.470   2.800   3.511
 2058SOL     OW 8261   2.465   3.055   3.388
 2058SOL    HW2 8262   2.535   3.104   3.431
 2058SOL    HW3 8263   2.476   3.074   3.294
 2058SOL    MW4 8264   2.475   3.064   3.381
 2059SOL     OW 8265   2.274   3.242   3.437
 2059SOL    HW2 8266   2.274   3.252   3.533
 2059SOL    HW3 8267   2.342   3.176   3.421
 2059SOL    MW4 8268   2.283   3.234   3.448
 2060SOL     OW 8269   2.269   3.499   3.345
 2060SOL    HW2 8270   2.274   3.408   3.372
 2060SOL    HW3 8271   2.231   3.496   3.257
 2060SOL    MW4 8272   2.265   3.487   3.337
 2061SOL     OW 8273   2.484   3.634   3.465
 2061SOL    HW2 8274   2.480   3.720   3.425
 2061SOL    HW3 8275   2.408   3.587   3.430
 2061SOL    MW4 8276   2.474   3.639   3.455
 2062SOL     OW 8277   2.464   3.887   3.374
 2062SOL    HW2 8278   2.543   3.924   3.413
 2062SOL    HW3 8279   2.392   3.938   3.411
 2062SOL    MW4 8280   2.465   3.898   3.384
 2063SOL     OW 8281   2.248   4.044   3.499
 2063SOL    HW2 8282   2.242   4.124   3.448
 2063SOL    HW3 8283   2.185   3.984   3.457
 2063SOL    MW4 8284   2.239   4.046   3.487
 2064SOL     OW 8285   2.261   4.296   3.391
 2064SOL    HW2 8286   2.186   4.331   3.438
 2064SOL    HW3 8287   2.235   4.300   3.299
 2064SOL    MW4 8288   2.247   4.301   3.385
 2065SOL     OW 8289   2.495   4.412   3.456
 2065SOL    HW2 8290   2.494   4.436   3.549
 2065SOL    HW3 8291   2.411   4.368   3.442
 2065SOL    MW4 8292   2.484   4.409   3.466
 2066SOL     OW 8293   2.908   4.611   3.380
 2066SOL    HW2 8294   2.825   4.656   3.397
 2066SOL    HW3 8295   2.931   4.637   3.291
 2066SOL    MW4 8296   2.900   4.620   3.370
 2067SOL     OW 8297   2.707   0.116   3.493
 2067SOL    HW2 8298   2.715   0.205   3.459
 2067SOL    HW3 8299   2.626   0.082   3.455
 2067SOL    MW4 8300   2.697   0.123   3.483
 2068SOL     OW 8301   2.695   0.386   3.415
 2068SOL    HW2 8302   2.783   0.419   3.436
 2068SOL    HW3 8303   2.688   0.393   3.320
 2068SOL    MW4 8304   2.706   0.391   3.406
 2069SOL     OW 8305   2.923   0.499   3.488
 2069SOL    HW2 8306   2.912   0.518   3.581
 2069SOL    HW3 8307   2.919   0.584   3.445
 2069SOL    MW4 8308   2.921   0.513   3.494
 2070SOL     OW 8309   2.875   0.739   3.377
 2070SOL    HW2 8310   2.959   0.775   3.404
 2070SOL    HW3 8311   2.811   0.804   3.406
 2070SOL    MW4 8312   2.877   0.752   3.384
 2071SOL     OW 8313   2.672   0.918   3.465
 2071SOL    HW2 8314   2.680   0.917   3.560
 2071SOL    HW3 8315   2.674   1.011   3.442
 2071SOL    MW4 8316   2.674   0.930   3.474
 2072SOL     OW 8317   2.646   1.179   3.375
 2072SOL    HW2 8318   2.715   1.222   3.426
 2072SOL    HW3 8319   2.685   1.168   3.288
 2072SOL    MW4 8320   2.661   1.183   3.370
 2073SOL     OW 8321   2.891   1.263   3.492
 2073SOL    HW2 8322   2.884   1.267   3.587
 2073SOL    HW3 8323   2.964   1.203   3.475
 2073SOL    MW4 8324   2.900   1.255   3.502
 2074SOL     OW 8325   2.921   1.530   3.378
 2074SOL    HW2 8326   2.837   1.573   3.397
 2074SOL    HW3 8327   2.918   1.447   3.425
 2074SOL    MW4 8328   2.909   1.525   3.386
 2075SOL     OW 8329   2.697   1.674   3.477
 2075SOL    HW2 8330   2.701   1.765   3.446
 2075SOL    HW3 8331   2.608   1.645   3.454
 2075SOL    MW4 8332   2.686   1.682   3.470
 2076SOL     OW 8333   2.686   1.937   3.405
 2076SOL    HW2 8334   2.603   1.970   3.441
 2076SOL    HW3 8335   2.673   1.939   3.310
 2076SOL    MW4 8336   2.673   1.942   3.397
 2077SOL     OW 8337   2.914   2.040   3.504
 2077SOL    HW2 8338   2.902   2.031   3.599
 2077SOL    HW3 8339   2.839   1.995   3.466
 2077SOL    MW4 8340   2.902   2.033   3.512
 2078SOL     OW 8341   2.857   2.287   3.408
 2078SOL    HW2 8342   2.870   2.202   3.449
 2078SOL    HW3 8343   2.878   2.273   3.316
 2078SOL    MW4 8344   2.861   2.274   3.402
 2079SOL     OW 8345   2.643   2.431   3.500
 2079SOL    HW2 8346   2.652   2.433   3.595
 2079SOL    HW3 8347   2.705   2.364   3.471
 2079SOL    MW4 8348   2.652   2.423   3.508
 2080SOL     OW 8349   2.684   2.677   3.388
 2080SOL    HW2 8350   2.677   2.589   3.425
 2080SOL    HW3 8351   2.621   2.729   3.437
 2080SOL    MW4 8352   2.675   2.672   3.399
 2081SOL     OW 8353   2.900   2.819   3.458
 2081SOL    HW2 8354   2.920   2.804   3.550
 2081SOL    HW3 8355   2.820   2.769   3.442
 2081SOL    MW4 8356   2.892   2.811   3.468
 2082SOL     OW 8357   2.904   3.094   3.381
 2082SOL    HW2 8358   2.893   3.000   3.394
 2082SOL    HW3 8359   2.912   3.105   3.286
 2082SOL    MW4 8360   2.904   3.083   3.370
 2083SOL     OW 8361   2.672   3.209   3.508
 2083SOL    HW2 8362   2.682   3.206   3.603
 2083SOL    HW3 8363   2.749   3.165   3.474
 2083SOL    MW4 8364   2.683   3.203   3.516
 2084SOL     OW 8365   2.702   3.462   3.399
 2084SOL    HW2 8366   2.674   3.376   3.431
 2084SOL    HW3 8367   2.630   3.521   3.421
 2084SOL    MW4 8368   2.689   3.458   3.406
 2085SOL     OW 8369   2.943   3.598   3.470
 2085SOL    HW2 8370   2.935   3.690   3.448
 2085SOL    HW3 8371   2.875   3.555   3.418
 2085SOL    MW4 8372   2.933   3.604   3.460
 2086SOL     OW 8373   2.938   3.883   3.374
 2086SOL    HW2 8374   3.013   3.917   3.423
 2086SOL    HW3 8375   2.861   3.913   3.423
 2086SOL    MW4 8376   2.938   3.891   3.387
 2087SOL     OW 8377   2.684   4.011   3.470
 2087SOL    HW2 8378   2.690   3.999   3.564
 2087SOL    HW3 8379   2.696   4.105   3.457
 2087SOL    MW4 8380   2.686   4.022   3.480
 2088SOL     OW 8381   2.728   4.282   3.393
 2088SOL    HW2 8382   2.800   4.312   3.448
 2088SOL    HW3 8383   2.651   4.324   3.430
 2088SOL    MW4 8384   2.728   4.292   3.405
 2089SOL     OW 8385   2.935   4.388   3.533
 2089SOL    HW2 8386   2.919   4.402   3.626
 2089SOL    HW3 8387   2.926   4.475   3.493
 2089SOL    MW4 8388   2.932   4.401   3.540
 2090SOL     OW 8389   3.374   4.614   3.399
 2090SOL    HW2 8390   3.297   4.661   3.434
 2090SOL    HW3 8391   3.373   4.633   3.306
 2090SOL    MW4 8392   3.364   4.623   3.392
 2091SOL     OW 8393   3.149   0.074   3.505
 2091SOL    HW2 8394   3.145   0.165   3.475
 2091SOL    HW3 8395   3.073   0.033   3.464
 2091SOL    MW4 8396   3.138   0.081   3.496
 2092SOL     OW 8397   3.136   0.337   3.406
 2092SOL    HW2 8398   3.070   0.396   3.442
 2092SOL    HW3 8399   3.113   0.329   3.313
 2092SOL    MW4 8400   3.124   0.344   3.398
 2093SOL     OW 8401   3.352   0.497   3.461
 2093SOL    HW2 8402   3.357   0.496   3.557
 2093SOL    HW3 8403   3.283   0.434   3.440
 2093SOL    MW4 8404   3.343   0.489   3.471
 2094SOL     OW 8405   3.349   0.766   3.406
 2094SOL    HW2 8406   3.425   0.810   3.445
 2094SOL    HW3 8407   3.357   0.675   3.434
 2094SOL    MW4 8408   3.360   0.760   3.415
 2095SOL     OW 8409   3.102   0.886   3.462
 2095SOL    HW2 8410   3.101   0.979   3.439
 2095SOL    HW3 8411   3.191   0.857   3.442
 2095SOL    MW4 8412   3.113   0.894   3.456
 2096SOL     OW 8413   3.096   1.135   3.381
 2096SOL    HW2 8414   3.155   1.204   3.409
 2096SOL    HW3 8415   3.083   1.151   3.287
 2096SOL    MW4 8416   3.102   1.146   3.372
 2097SOL     OW 8417   3.307   1.296   3.449
 2097SOL    HW2 8418   3.370   1.248   3.395
 2097SOL    HW3 8419   3.319   1.388   3.424
 2097SOL    MW4 8420   3.317   1.302   3.438
 2098SOL     OW 8421   3.347   1.557   3.375
 2098SOL    HW2 8422   3.433   1.582   3.408
 2098SOL    HW3 8423   3.285   1.608   3.427
 2098SOL    MW4 8424   3.350   1.567   3.386
 2099SOL     OW 8425   3.126   1.669   3.523
 2099SOL    HW2 8426   3.107   1.760   3.497
 2099SOL    HW3 8427   3.055   1.618   3.486
 2099SOL    MW4 8428   3.114   1.675   3.515
 2100SOL     OW 8429   3.130   1.914   3.405
 2100SOL    HW2 8430   3.049   1.949   3.443
 2100SOL    HW3 8431   3.117   1.923   3.310
 2100SOL    MW4 8432   3.117   1.920   3.397
 2101SOL     OW 8433   3.341   2.075   3.479
 2101SOL    HW2 8434   3.336   2.165   3.448
 2101SOL    HW3 8435   3.265   2.031   3.440
 2101SOL    MW4 8436   3.331   2.081   3.469
 2102SOL     OW 8437   3.323   2.332   3.381
 2102SOL    HW2 8438   3.399   2.375   3.420
 2102SOL    HW3 8439   3.247   2.375   3.422
 2102SOL    MW4 8440   3.323   2.344   3.391
 2103SOL     OW 8441   3.088   2.415   3.502
 2103SOL    HW2 8442   3.081   2.507   3.474
 2103SOL    HW3 8443   3.007   2.374   3.469
 2103SOL    MW4 8444   3.076   2.422   3.494
 2104SOL     OW 8445   3.139   2.677   3.399
 2104SOL    HW2 8446   3.217   2.729   3.420
 2104SOL    HW3 8447   3.066   2.736   3.417
 2104SOL    MW4 8448   3.140   2.692   3.404
 2105SOL     OW 8449   3.366   2.839   3.469
 2105SOL    HW2 8450   3.451   2.807   3.440
 2105SOL    HW3 8451   3.361   2.928   3.434
 2105SOL    MW4 8452   3.376   2.847   3.460
 2106SOL     OW 8453   3.372   3.081   3.369
 2106SOL    HW2 8454   3.445   3.124   3.414
 2106SOL    HW3 8455   3.294   3.126   3.401
 2106SOL    MW4 8456   3.371   3.093   3.379
 2107SOL     OW 8457   3.140   3.193   3.472
 2107SOL    HW2 8458   3.161   3.275   3.428
 2107SOL    HW3 8459   3.053   3.171   3.439
 2107SOL    MW4 8460   3.131   3.201   3.462
 2108SOL     OW 8461   3.161   3.459   3.373
 2108SOL    HW2 8462   3.076   3.487   3.406
 2108SOL    HW3 8463   3.159   3.479   3.279
 2108SOL    MW4 8464   3.150   3.465   3.365
 2109SOL     OW 8465   3.372   3.614   3.521
 2109SOL    HW2 8466   3.377   3.702   3.484
 2109SOL    HW3 8467   3.296   3.574   3.480
 2109SOL    MW4 8468   3.363   3.620   3.511
 2110SOL     OW 8469   3.358   3.869   3.396
 2110SOL    HW2 8470   3.432   3.912   3.440
 2110SOL    HW3 8471   3.280   3.909   3.436
 2110SOL    MW4 8472   3.357   3.880   3.407
 2111SOL     OW 8473   3.143   4.002   3.506
 2111SOL    HW2 8474   3.150   4.021   3.599
 2111SOL    HW3 8475   3.133   4.087   3.464
 2111SOL    MW4 8476   3.143   4.016   3.513
 2112SOL     OW 8477   3.153   4.257   3.380
 2112SOL    HW2 8478   3.228   4.284   3.434
 2112SOL    HW3 8479   3.076   4.284   3.430
 2112SOL    MW4 8480   3.153   4.264   3.393
 2113SOL     OW 8481   3.372   4.361   3.520
 2113SOL    HW2 8482   3.384   4.377   3.613
 2113SOL    HW3 8483   3.376   4.448   3.479
 2113SOL    MW4 8484   3.374   4.374   3.527
 2114SOL     OW 8485   3.859   4.587   3.356
 2114SOL    HW2 8486   3.784   4.640   3.383
 2114SOL    HW3 8487   3.849   4.579   3.261
 2114SOL    MW4 8488   3.848   4.593   3.347
 2115SOL     OW 8489   3.633   0.062   3.486
 2115SOL    HW2 8490   3.613   0.151   3.458
 2115SOL    HW3 8491   3.558   0.010   3.455
 2115SOL    MW4 8492   3.621   0.067   3.478
 2116SOL     OW 8493   3.596   0.349   3.438
 2116SOL    HW2 8494   3.670   0.395   3.479
 2116SOL    HW3 8495   3.519   0.397   3.467
 2116SOL    MW4 8496   3.596   0.362   3.447
 2117SOL     OW 8497   3.817   0.515   3.501
 2117SOL    HW2 8498   3.817   0.516   3.597
 2117SOL    HW3 8499   3.890   0.457   3.478
 2117SOL    MW4 8500   3.827   0.507   3.511
 2118SOL     OW 8501   3.796   0.766   3.384
 2118SOL    HW2 8502   3.874   0.818   3.402
 2118SOL    HW3 8503   3.810   0.684   3.430
 2118SOL    MW4 8504   3.808   0.762   3.392
 2119SOL     OW 8505   3.589   0.936   3.461
 2119SOL    HW2 8506   3.590   0.926   3.556
 2119SOL    HW3 8507   3.667   0.889   3.432
 2119SOL    MW4 8508   3.599   0.928   3.470
 2120SOL     OW 8509   3.535   1.163   3.327
 2120SOL    HW2 8510   3.554   1.081   3.372
 2120SOL    HW3 8511   3.567   1.149   3.237
 2120SOL    MW4 8512   3.542   1.150   3.321
 2121SOL     OW 8513   3.794   1.259   3.448
 2121SOL    HW2 8514   3.783   1.277   3.542
 2121SOL    HW3 8515   3.719   1.204   3.425
 2121SOL    MW4 8516   3.783   1.254   3.457
 2122SOL     OW 8517   3.801   1.526   3.356
 2122SOL    HW2 8518   3.874   1.569   3.400
 2122SOL    HW3 8519   3.806   1.435   3.383
 2122SOL    MW4 8520   3.811   1.520   3.365
 2123SOL     OW 8521   3.571   1.632   3.493
 2123SOL    HW2 8522   3.571   1.724   3.467
 2123SOL    HW3 8523   3.635   1.591   3.435
 2123SOL    MW4 8524   3.579   1.639   3.482
 2124SOL     OW 8525   3.558   1.906   3.387
 2124SOL    HW2 8526   3.624   1.963   3.427
 2124SOL    HW3 8527   3.474   1.942   3.417
 2124SOL    MW4 8528   3.556   1.919   3.396
 2125SOL     OW 8529   3.768   2.063   3.460
 2125SOL    HW2 8530   3.776   2.086   3.553
 2125SOL    HW3 8531   3.838   2.000   3.445
 2125SOL    MW4 8532   3.778   2.058   3.470
 2126SOL     OW 8533   3.774   2.330   3.355
 2126SOL    HW2 8534   3.863   2.350   3.385
 2126SOL    HW3 8535   3.764   2.236   3.373
 2126SOL    MW4 8536   3.785   2.320   3.362
 2127SOL     OW 8537   3.537   2.444   3.493
 2127SOL    HW2 8538   3.541   2.537   3.472
 2127SOL    HW3 8539   3.618   2.408   3.457
 2127SOL    MW4 8540   3.548   2.452   3.486
 2128SOL     OW 8541   3.596   2.710   3.380
 2128SOL    HW2 8542   3.676   2.755   3.408
 2128SOL    HW3 8543   3.595   2.720   3.285
 2128SOL    MW4 8544   3.606   2.718   3.371
 2129SOL     OW 8545   3.815   2.841   3.492
 2129SOL    HW2 8546   3.789   2.853   3.583
 2129SOL    HW3 8547   3.808   2.929   3.454
 2129SOL    MW4 8548   3.811   2.854   3.499
 2130SOL     OW 8549   3.815   3.089   3.368
 2130SOL    HW2 8550   3.899   3.123   3.398
 2130SOL    HW3 8551   3.825   3.083   3.273
 2130SOL    MW4 8552   3.828   3.093   3.359
 2131SOL     OW 8553   3.575   3.207   3.499
 2131SOL    HW2 8554   3.576   3.299   3.475
 2131SOL    HW3 8555   3.646   3.167   3.449
 2131SOL    MW4 8556   3.584   3.214   3.490
 2132SOL     OW 8557   3.589   3.484   3.439
 2132SOL    HW2 8558   3.521   3.540   3.477
 2132SOL    HW3 8559   3.577   3.492   3.344
 2132SOL    MW4 8560   3.578   3.492   3.432
 2133SOL     OW 8561   3.832   3.638   3.480
 2133SOL    HW2 8562   3.816   3.668   3.569
 2133SOL    HW3 8563   3.758   3.579   3.461
 2133SOL    MW4 8564   3.820   3.634   3.489
 2134SOL     OW 8565   3.837   3.891   3.370
 2134SOL    HW2 8566   3.769   3.941   3.416
 2134SOL    HW3 8567   3.839   3.807   3.415
 2134SOL    MW4 8568   3.828   3.887   3.382
 2135SOL     OW 8569   3.604   3.976   3.492
 2135SOL    HW2 8570   3.611   3.982   3.587
 2135SOL    HW3 8571   3.606   4.067   3.462
 2135SOL    MW4 8572   3.605   3.988   3.500
 2136SOL     OW 8573   3.612   4.243   3.415
 2136SOL    HW2 8574   3.522   4.260   3.443
 2136SOL    HW3 8575   3.611   4.256   3.321
 2136SOL    MW4 8576   3.600   4.247   3.407
 2137SOL     OW 8577   3.832   4.365   3.536
 2137SOL    HW2 8578   3.748   4.326   3.510
 2137SOL    HW3 8579   3.842   4.440   3.477
 2137SOL    MW4 8580   3.822   4.370   3.525
 2138SOL     OW 8581   4.302   0.016   3.364
 2138SOL    HW2 8582   4.286  -0.071   3.403
 2138SOL    HW3 8583   4.387   0.042   3.399
 2138SOL    MW4 8584   4.311   0.008   3.374
 2139SOL     OW 8585   4.039   0.114   3.430
 2139SOL    HW2 8586   4.130   0.088   3.411
 2139SOL    HW3 8587   3.986   0.042   3.395
 2139SOL    MW4 8588   4.044   0.101   3.423
 2140SOL     OW 8589   4.018   0.376   3.380
 2140SOL    HW2 8590   4.019   0.286   3.412
 2140SOL    HW3 8591   4.025   0.369   3.285
 2140SOL    MW4 8592   4.019   0.363   3.372
 2141SOL     OW 8593   4.274   0.496   3.468
 2141SOL    HW2 8594   4.252   0.582   3.433
 2141SOL    HW3 8595   4.207   0.437   3.432
 2141SOL    MW4 8596   4.263   0.499   3.459
 2142SOL     OW 8597   4.245   0.750   3.366
 2142SOL    HW2 8598   4.312   0.805   3.405
 2142SOL    HW3 8599   4.270   0.743   3.274
 2142SOL    MW4 8600   4.257   0.756   3.359
 2143SOL     OW 8601   4.020   0.898   3.433
 2143SOL    HW2 8602   4.040   0.988   3.407
 2143SOL    HW3 8603   4.095   0.847   3.402
 2143SOL    MW4 8604   4.033   0.903   3.425
 2144SOL     OW 8605   4.056   1.167   3.369
 2144SOL    HW2 8606   4.111   1.229   3.417
 2144SOL    HW3 8607   3.966   1.198   3.384
 2144SOL    MW4 8608   4.051   1.179   3.377
 2145SOL     OW 8609   4.223   1.347   3.508
 2145SOL    HW2 8610   4.245   1.438   3.486
 2145SOL    HW3 8611   4.297   1.296   3.476
 2145SOL    MW4 8612   4.235   1.352   3.501
 2146SOL     OW 8613   4.265   1.605   3.413
 2146SOL    HW2 8614   4.179   1.643   3.428
 2146SOL    HW3 8615   4.268   1.588   3.319
 2146SOL    MW4 8616   4.254   1.608   3.403
 2147SOL     OW 8617   3.995   1.660   3.485
 2147SOL    HW2 8618   3.989   1.662   3.581
 2147SOL    HW3 8619   3.997   1.752   3.460
 2147SOL    MW4 8620   3.994   1.672   3.495
 2148SOL     OW 8621   4.025   1.915   3.405
 2148SOL    HW2 8622   4.099   1.972   3.428
 2148SOL    HW3 8623   4.028   1.909   3.310
 2148SOL    MW4 8624   4.035   1.922   3.396
 2149SOL     OW 8625   4.248   2.049   3.479
 2149SOL    HW2 8626   4.258   2.137   3.441
 2149SOL    HW3 8627   4.335   2.009   3.468
 2149SOL    MW4 8628   4.261   2.056   3.472
 2150SOL     OW 8629   4.261   2.311   3.386
 2150SOL    HW2 8630   4.179   2.335   3.428
 2150SOL    HW3 8631   4.247   2.329   3.293
 2150SOL    MW4 8632   4.248   2.316   3.379
 2151SOL     OW 8633   4.019   2.400   3.492
 2151SOL    HW2 8634   4.005   2.409   3.587
 2151SOL    HW3 8635   4.024   2.490   3.460
 2151SOL    MW4 8636   4.017   2.413   3.501
 2152SOL     OW 8637   4.028   2.665   3.392
 2152SOL    HW2 8638   4.114   2.700   3.418
 2152SOL    HW3 8639   3.966   2.710   3.449
 2152SOL    MW4 8640   4.032   2.676   3.403
 2153SOL     OW 8641   4.250   2.796   3.462
 2153SOL    HW2 8642   4.249   2.792   3.558
 2153SOL    HW3 8643   4.343   2.791   3.439
 2153SOL    MW4 8644   4.262   2.795   3.471
 2154SOL     OW 8645   4.303   3.070   3.350
 2154SOL    HW2 8646   4.289   2.978   3.371
 2154SOL    HW3 8647   4.314   3.072   3.255
 2154SOL    MW4 8648   4.303   3.058   3.340
 2155SOL     OW 8649   4.054   3.206   3.455
 2155SOL    HW2 8650   4.047   3.294   3.419
 2155SOL    HW3 8651   4.132   3.169   3.412
 2155SOL    MW4 8652   4.063   3.213   3.444
 2156SOL     OW 8653   4.045   3.465   3.387
 2156SOL    HW2 8654   4.126   3.508   3.412
 2156SOL    HW3 8655   3.976   3.525   3.415
 2156SOL    MW4 8656   4.046   3.478   3.394
 2157SOL     OW 8657   4.280   3.594   3.439
 2157SOL    HW2 8658   4.273   3.605   3.534
 2157SOL    HW3 8659   4.276   3.683   3.404
 2157SOL    MW4 8660   4.278   3.607   3.447
 2158SOL     OW 8661   4.304   3.892   3.402
 2158SOL    HW2 8662   4.393   3.912   3.429
 2158SOL    HW3 8663   4.309   3.884   3.306
 2158SOL    MW4 8664   4.316   3.894   3.393
 2159SOL     OW 8665   4.063   4.023   3.476
 2159SOL    HW2 8666   4.135   3.962   3.464
 2159SOL    HW3 8667   3.989   3.983   3.430
 2159SOL    MW4 8668   4.063   4.010   3.469
 2160SOL     OW 8669   4.067   4.275   3.381
 2160SOL    HW2 8670   4.066   4.185   3.413
 2160SOL    HW3 8671   3.996   4.318   3.428
 2160SOL    MW4 8672   4.058   4.269   3.392
 2161SOL     OW 8673   4.304   4.426   3.457
 2161SOL    HW2 8674   4.297   4.415   3.552
 2161SOL    HW3 8675   4.230   4.376   3.422
 2161SOL    MW4 8676   4.293   4.418   3.465
 2162SOL     OW 8677   0.200   4.654   3.835
 2162SOL    HW2 8678   0.190   4.646   3.930
 2162SOL    HW3 8679   0.123   4.704   3.807
 2162SOL    MW4 8680   0.189   4.660   3.844
 2163SOL     OW 8681   4.478   0.145   3.767
 2163SOL    HW2 8682   4.463   0.234   3.799
 2163SOL    HW3 8683   4.508   0.156   3.677
 2163SOL    MW4 8684   4.480   0.158   3.759
 2164SOL     OW 8685   4.479   0.420   3.888
 2164SOL    HW2 8686   4.409   0.463   3.839
 2164SOL    HW3 8687   4.560   0.457   3.852
 2164SOL    MW4 8688   4.480   0.430   3.877
 2165SOL     OW 8689   0.237   0.530   3.812
 2165SOL    HW2 8690   0.239   0.624   3.833
 2165SOL    HW3 8691   0.235   0.527   3.717
 2165SOL    MW4 8692   0.237   0.542   3.803
 2166SOL     OW 8693   0.283   0.815   3.877
 2166SOL    HW2 8694   0.274   0.818   3.972
 2166SOL    HW3 8695   0.201   0.852   3.844
 2166SOL    MW4 8696   0.271   0.820   3.885
 2167SOL     OW 8697   0.032   0.887   3.746
 2167SOL    HW2 8698  -0.052   0.851   3.777
 2167SOL    HW3 8699   0.023   0.982   3.758
 2167SOL    MW4 8700   0.019   0.895   3.752
 2168SOL     OW 8701   4.483   1.136   3.866
 2168SOL    HW2 8702   4.403   1.180   3.839
 2168SOL    HW3 8703   4.554   1.191   3.832
 2168SOL    MW4 8704   4.482   1.149   3.858
 2169SOL     OW 8705   0.204   1.267   3.785
 2169SOL    HW2 8706   0.222   1.357   3.812
 2169SOL    HW3 8707   0.207   1.270   3.689
 2169SOL    MW4 8708   0.207   1.279   3.776
 2170SOL     OW 8709   0.230   1.556   3.878
 2170SOL    HW2 8710   0.226   1.568   3.973
 2170SOL    HW3 8711   0.154   1.604   3.845
 2170SOL    MW4 8712   0.220   1.564   3.886
 2171SOL     OW 8713   0.008   1.680   3.758
 2171SOL    HW2 8714  -0.019   1.769   3.780
 2171SOL    HW3 8715   0.015   1.679   3.663
 2171SOL    MW4 8716   0.006   1.691   3.748
 2172SOL     OW 8717   4.471   1.944   3.854
 2172SOL    HW2 8718   4.463   1.964   3.947
 2172SOL    HW3 8719   4.389   1.978   3.816
 2172SOL    MW4 8720   4.459   1.951   3.861
 2173SOL     OW 8721   0.211   2.084   3.755
 2173SOL    HW2 8722   0.224   2.167   3.799
 2173SOL    HW3 8723   0.123   2.056   3.781
 2173SOL    MW4 8724   0.201   2.091   3.764
 2174SOL     OW 8725   0.214   2.351   3.829
 2174SOL    HW2 8726   0.216   2.358   3.925
 2174SOL    HW3 8727   0.140   2.406   3.803
 2174SOL    MW4 8728   0.205   2.359   3.838
 2175SOL     OW 8729   4.471   2.473   3.744
 2175SOL    HW2 8730   4.399   2.420   3.779
 2175SOL    HW3 8731   4.456   2.560   3.781
 2175SOL    MW4 8732   4.459   2.477   3.754
 2176SOL     OW 8733   4.438   2.713   3.869
 2176SOL    HW2 8734   4.437   2.728   3.963
 2176SOL    HW3 8735   4.525   2.743   3.841
 2176SOL    MW4 8736   4.449   2.719   3.878
 2177SOL     OW 8737   0.179   2.830   3.781
 2177SOL    HW2 8738   0.261   2.788   3.805
 2177SOL    HW3 8739   0.197   2.873   3.697
 2177SOL    MW4 8740   0.192   2.830   3.773
 2178SOL     OW 8741   0.215   3.123   3.857
 2178SOL    HW2 8742   0.228   3.123   3.951
 2178SOL    HW3 8743   0.185   3.034   3.837
 2178SOL    MW4 8744   0.213   3.111   3.867
 2179SOL     OW 8745   4.476   3.225   3.738
 2179SOL    HW2 8746   4.552   3.191   3.787
 2179SOL    HW3 8747   4.504   3.226   3.647
 2179SOL    MW4 8748   4.489   3.221   3.733
 2180SOL     OW 8749   4.485   3.490   3.841
 2180SOL    HW2 8750   4.564   3.528   3.803
 2180SOL    HW3 8751   4.478   3.404   3.799
 2180SOL    MW4 8752   4.495   3.484   3.830
 2181SOL     OW 8753   0.212   3.615   3.728
 2181SOL    HW2 8754   0.286   3.571   3.769
 2181SOL    HW3 8755   0.196   3.691   3.784
 2181SOL    MW4 8756   0.219   3.619   3.741
 2182SOL     OW 8757   0.200   3.850   3.891
 2182SOL    HW2 8758   0.199   3.869   3.985
 2182SOL    HW3 8759   0.279   3.893   3.859
 2182SOL    MW4 8760   0.211   3.858   3.899
 2183SOL     OW 8761   0.002   4.006   3.787
 2183SOL    HW2 8762  -0.078   3.953   3.794
 2183SOL    HW3 8763   0.072   3.949   3.817
 2183SOL    MW4 8764   0.000   3.992   3.792
 2184SOL     OW 8765   0.050   4.264   3.864
 2184SOL    HW2 8766   0.120   4.303   3.813
 2184SOL    HW3 8767   0.046   4.173   3.833
 2184SOL    MW4 8768   0.058   4.257   3.853
 2185SOL     OW 8769   0.262   4.416   3.740
 2185SOL    HW2 8770   0.337   4.373   3.782
 2185SOL    HW3 8771   0.258   4.502   3.781
 2185SOL    MW4 8772   0.271   4.421   3.751
 2186SOL     OW 8773   0.676   4.646   3.851
 2186SOL    HW2 8774   0.670   4.559   3.810
 2186SOL    HW3 8775   0.601   4.694   3.816
 2186SOL    MW4 8776   0.665   4.641   3.841
 2187SOL     OW 8777   0.444   0.113   3.770
 2187SOL    HW2 8778   0.470   0.194   3.814
 2187SOL    HW3 8779   0.360   0.090   3.811
 2187SOL    MW4 8780   0.436   0.120   3.781
 2188SOL     OW 8781   0.452   0.371   3.902
 2188SOL    HW2 8782   0.528   0.423   3.875
 2188SOL    HW3 8783   0.377   0.420   3.871
 2188SOL    MW4 8784   0.452   0.385   3.894
 2189SOL     OW 8785   0.655   0.529   3.808
 2189SOL    HW2 8786   0.736   0.478   3.811
 2189SOL    HW3 8787   0.678   0.612   3.851
 2189SOL    MW4 8788   0.669   0.534   3.814
 2190SOL     OW 8789   0.703   0.768   3.930
 2190SOL    HW2 8790   0.790   0.801   3.907
 2190SOL    HW3 8791   0.642   0.822   3.881
 2190SOL    MW4 8792   0.707   0.779   3.921
 2191SOL     OW 8793   0.519   0.883   3.761
 2191SOL    HW2 8794   0.525   0.979   3.765
 2191SOL    HW3 8795   0.440   0.862   3.810
 2191SOL    MW4 8796   0.509   0.893   3.768
 2192SOL     OW 8797   0.474   1.159   3.847
 2192SOL    HW2 8798   0.535   1.230   3.827
 2192SOL    HW3 8799   0.387   1.195   3.831
 2192SOL    MW4 8800   0.471   1.173   3.843
 2193SOL     OW 8801   0.699   1.312   3.760
 2193SOL    HW2 8802   0.761   1.248   3.796
 2193SOL    HW3 8803   0.701   1.297   3.665
 2193SOL    MW4 8804   0.707   1.301   3.752
 2194SOL     OW 8805   0.669   1.598   3.859
 2194SOL    HW2 8806   0.750   1.645   3.839
 2194SOL    HW3 8807   0.679   1.513   3.816
 2194SOL    MW4 8808   0.681   1.593   3.850
 2195SOL     OW 8809   0.441   1.690   3.767
 2195SOL    HW2 8810   0.522   1.649   3.798
 2195SOL    HW3 8811   0.371   1.638   3.805
 2195SOL    MW4 8812   0.442   1.678   3.776
 2196SOL     OW 8813   0.424   1.937   3.875
 2196SOL    HW2 8814   0.437   1.850   3.837
 2196SOL    HW3 8815   0.345   1.970   3.833
 2196SOL    MW4 8816   0.415   1.930   3.865
 2197SOL     OW 8817   0.641   2.047   3.763
 2197SOL    HW2 8818   0.634   2.136   3.798
 2197SOL    HW3 8819   0.579   1.995   3.814
 2197SOL    MW4 8820   0.632   2.052   3.774
 2198SOL     OW 8821   0.650   2.304   3.839
 2198SOL    HW2 8822   0.740   2.333   3.825
 2198SOL    HW3 8823   0.597   2.366   3.789
 2198SOL    MW4 8824   0.655   2.316   3.831
 2199SOL     OW 8825   0.451   2.474   3.746
 2199SOL    HW2 8826   0.377   2.418   3.768
 2199SOL    HW3 8827   0.453   2.475   3.651
 2199SOL    MW4 8828   0.442   2.467   3.737
 2200SOL     OW 8829   0.430   2.730   3.849
 2200SOL    HW2 8830   0.514   2.766   3.820
 2200SOL    HW3 8831   0.432   2.638   3.821
 2200SOL    MW4 8832   0.441   2.723   3.842
 2201SOL     OW 8833   0.685   2.844   3.767
 2201SOL    HW2 8834   0.770   2.802   3.782
 2201SOL    HW3 8835   0.669   2.833   3.674
 2201SOL    MW4 8836   0.694   2.837   3.757
 2202SOL     OW 8837   0.661   3.118   3.809
 2202SOL    HW2 8838   0.663   3.147   3.901
 2202SOL    HW3 8839   0.667   3.023   3.814
 2202SOL    MW4 8840   0.662   3.109   3.822
 2203SOL     OW 8841   0.424   3.252   3.711
 2203SOL    HW2 8842   0.506   3.219   3.748
 2203SOL    HW3 8843   0.358   3.190   3.742
 2203SOL    MW4 8844   0.426   3.239   3.720
 2204SOL     OW 8845   0.410   3.497   3.877
 2204SOL    HW2 8846   0.494   3.530   3.844
 2204SOL    HW3 8847   0.397   3.414   3.830
 2204SOL    MW4 8848   0.419   3.490   3.867
 2205SOL     OW 8849   0.652   3.594   3.777
 2205SOL    HW2 8850   0.669   3.685   3.803
 2205SOL    HW3 8851   0.652   3.597   3.681
 2205SOL    MW4 8852   0.654   3.607   3.768
 2206SOL     OW 8853   0.682   3.864   3.849
 2206SOL    HW2 8854   0.711   3.883   3.938
 2206SOL    HW3 8855   0.745   3.909   3.793
 2206SOL    MW4 8856   0.694   3.872   3.854
 2207SOL     OW 8857   0.434   3.963   3.786
 2207SOL    HW2 8858   0.512   3.914   3.812
 2207SOL    HW3 8859   0.445   3.977   3.692
 2207SOL    MW4 8860   0.446   3.958   3.777
 2208SOL     OW 8861   0.441   4.241   3.888
 2208SOL    HW2 8862   0.526   4.270   3.853
 2208SOL    HW3 8863   0.433   4.150   3.858
 2208SOL    MW4 8864   0.451   4.233   3.879
 2209SOL     OW 8865   0.672   4.368   3.783
 2209SOL    HW2 8866   0.757   4.340   3.817
 2209SOL    HW3 8867   0.683   4.367   3.687
 2209SOL    MW4 8868   0.685   4.364   3.774
 2210SOL     OW 8869   1.149   0.006   3.893
 2210SOL    HW2 8870   1.210   0.048   3.832
 2210SOL    HW3 8871   1.156  -0.088   3.873
 2210SOL    MW4 8872   1.158  -0.001   3.882
 2211SOL     OW 8873   0.920   0.083   3.746
 2211SOL    HW2 8874   0.976   0.039   3.810
 2211SOL    HW3 8875   0.831   0.076   3.783
 2211SOL    MW4 8876   0.915   0.077   3.760
 2212SOL     OW 8877   0.899   0.382   3.820
 2212SOL    HW2 8878   0.897   0.359   3.913
 2212SOL    HW3 8879   0.912   0.298   3.775
 2212SOL    MW4 8880   0.900   0.368   3.826
 2213SOL     OW 8881   1.159   0.466   3.782
 2213SOL    HW2 8882   1.215   0.418   3.844
 2213SOL    HW3 8883   1.070   0.439   3.804
 2213SOL    MW4 8884   1.155   0.456   3.794
 2214SOL     OW 8885   1.174   0.728   3.884
 2214SOL    HW2 8886   1.177   0.722   3.980
 2214SOL    HW3 8887   1.183   0.638   3.854
 2214SOL    MW4 8888   1.176   0.715   3.893
 2215SOL     OW 8889   0.928   0.866   3.794
 2215SOL    HW2 8890   1.009   0.820   3.814
 2215SOL    HW3 8891   0.922   0.864   3.698
 2215SOL    MW4 8892   0.938   0.860   3.784
 2216SOL     OW 8893   0.875   1.136   3.859
 2216SOL    HW2 8894   0.866   1.137   3.954
 2216SOL    HW3 8895   0.879   1.042   3.837
 2216SOL    MW4 8896   0.874   1.124   3.868
 2217SOL     OW 8897   1.113   1.244   3.746
 2217SOL    HW2 8898   1.119   1.330   3.789
 2217SOL    HW3 8899   1.026   1.211   3.771
 2217SOL    MW4 8900   1.102   1.251   3.755
 2218SOL     OW 8901   1.103   1.507   3.851
 2218SOL    HW2 8902   1.111   1.522   3.945
 2218SOL    HW3 8903   1.172   1.561   3.812
 2218SOL    MW4 8904   1.113   1.516   3.859
 2219SOL     OW 8905   0.922   1.697   3.765
 2219SOL    HW2 8906   0.983   1.628   3.789
 2219SOL    HW3 8907   0.911   1.687   3.670
 2219SOL    MW4 8908   0.928   1.686   3.755
 2220SOL     OW 8909   0.897   1.970   3.835
 2220SOL    HW2 8910   0.906   1.894   3.777
 2220SOL    HW3 8911   0.812   2.008   3.811
 2220SOL    MW4 8912   0.887   1.965   3.824
 2221SOL     OW 8913   1.155   2.082   3.792
 2221SOL    HW2 8914   1.062   2.057   3.798
 2221SOL    HW3 8915   1.170   2.093   3.698
 2221SOL    MW4 8916   1.145   2.080   3.781
 2222SOL     OW 8917   1.108   2.343   3.844
 2222SOL    HW2 8918   1.095   2.346   3.939
 2222SOL    HW3 8919   1.129   2.252   3.825
 2222SOL    MW4 8920   1.109   2.332   3.854
 2223SOL     OW 8921   0.878   2.468   3.752
 2223SOL    HW2 8922   0.897   2.557   3.782
 2223SOL    HW3 8923   0.954   2.417   3.780
 2223SOL    MW4 8924   0.891   2.473   3.760
 2224SOL     OW 8925   0.918   2.725   3.811
 2224SOL    HW2 8926   0.907   2.720   3.906
 2224SOL    HW3 8927   0.988   2.788   3.798
 2224SOL    MW4 8928   0.926   2.733   3.822
 2225SOL     OW 8929   1.135   2.886   3.768
 2225SOL    HW2 8930   1.207   2.845   3.815
 2225SOL    HW3 8931   1.127   2.974   3.806
 2225SOL    MW4 8932   1.143   2.892   3.779
 2226SOL     OW 8933   1.100   3.132   3.917
 2226SOL    HW2 8934   1.184   3.167   3.887
 2226SOL    HW3 8935   1.035   3.192   3.879
 2226SOL    MW4 8936   1.103   3.145   3.908
 2227SOL     OW 8937   0.895   3.223   3.752
 2227SOL    HW2 8938   0.809   3.181   3.757
 2227SOL    HW3 8939   0.913   3.230   3.658
 2227SOL    MW4 8940   0.886   3.218   3.740
 2228SOL     OW 8941   0.893   3.483   3.863
 2228SOL    HW2 8942   0.890   3.397   3.821
 2228SOL    HW3 8943   0.815   3.528   3.831
 2228SOL    MW4 8944   0.882   3.478   3.853
 2229SOL     OW 8945   1.124   3.604   3.779
 2229SOL    HW2 8946   1.112   3.695   3.806
 2229SOL    HW3 8947   1.053   3.556   3.822
 2229SOL    MW4 8948   1.113   3.609   3.788
 2230SOL     OW 8949   1.110   3.870   3.866
 2230SOL    HW2 8950   1.129   3.851   3.958
 2230SOL    HW3 8951   1.192   3.908   3.832
 2230SOL    MW4 8952   1.124   3.872   3.873
 2231SOL     OW 8953   0.901   4.032   3.756
 2231SOL    HW2 8954   0.971   3.977   3.791
 2231SOL    HW3 8955   0.922   4.040   3.663
 2231SOL    MW4 8956   0.913   4.026   3.748
 2232SOL     OW 8957   0.902   4.275   3.882
 2232SOL    HW2 8958   0.889   4.253   3.974
 2232SOL    HW3 8959   0.903   4.190   3.837
 2232SOL    MW4 8960   0.900   4.261   3.888
 2233SOL     OW 8961   1.127   4.399   3.785
 2233SOL    HW2 8962   1.047   4.362   3.823
 2233SOL    HW3 8963   1.120   4.379   3.692
 2233SOL    MW4 8964   1.115   4.392   3.778
 2234SOL     OW 8965   1.583   4.628   3.891
 2234SOL    HW2 8966   1.575   4.624   3.986
 2234SOL    HW3 8967   1.591   4.537   3.863
 2234SOL    MW4 8968   1.583   4.615   3.900
 2235SOL     OW 8969   1.374   0.110   3.759
 2235SOL    HW2 8970   1.381   0.187   3.815
 2235SOL    HW3 8971   1.442   0.051   3.791
 2235SOL    MW4 8972   1.384   0.112   3.770
 2236SOL     OW 8973   1.369   0.351   3.926
 2236SOL    HW2 8974   1.346   0.350   4.019
 2236SOL    HW3 8975   1.428   0.425   3.916
 2236SOL    MW4 8976   1.374   0.360   3.937
 2237SOL     OW 8977   1.576   0.519   3.821
 2237SOL    HW2 8978   1.654   0.468   3.845
 2237SOL    HW3 8979   1.594   0.607   3.855
 2237SOL    MW4 8980   1.589   0.524   3.829
 2238SOL     OW 8981   1.606   0.763   3.933
 2238SOL    HW2 8982   1.669   0.825   3.897
 2238SOL    HW3 8983   1.523   0.785   3.891
 2238SOL    MW4 8984   1.603   0.774   3.923
 2239SOL     OW 8985   1.389   0.857   3.788
 2239SOL    HW2 8986   1.375   0.948   3.813
 2239SOL    HW3 8987   1.313   0.811   3.823
 2239SOL    MW4 8988   1.377   0.863   3.796
 2240SOL     OW 8989   1.337   1.121   3.850
 2240SOL    HW2 8990   1.401   1.188   3.828
 2240SOL    HW3 8991   1.254   1.157   3.819
 2240SOL    MW4 8992   1.334   1.135   3.843
 2241SOL     OW 8993   1.528   1.302   3.752
 2241SOL    HW2 8994   1.591   1.262   3.813
 2241SOL    HW3 8995   1.528   1.394   3.775
 2241SOL    MW4 8996   1.536   1.309   3.763
 2242SOL     OW 8997   1.534   1.560   3.845
 2242SOL    HW2 8998   1.559   1.544   3.936
 2242SOL    HW3 8999   1.601   1.619   3.811
 2242SOL    MW4 9000   1.546   1.566   3.852
 2243SOL     OW 9001   1.302   1.665   3.725
 2243SOL    HW2 9002   1.304   1.739   3.785
 2243SOL    HW3 9003   1.384   1.618   3.742
 2243SOL    MW4 9004   1.313   1.668   3.735
 2244SOL     OW 9005   1.328   1.896   3.873
 2244SOL    HW2 9006   1.319   1.912   3.967
 2244SOL    HW3 9007   1.276   1.965   3.832
 2244SOL    MW4 9008   1.320   1.908   3.880
 2245SOL     OW 9009   1.521   2.066   3.779
 2245SOL    HW2 9010   1.483   1.984   3.809
 2245SOL    HW3 9011   1.508   2.065   3.684
 2245SOL    MW4 9012   1.515   2.055   3.771
 2246SOL     OW 9013   1.532   2.330   3.864
 2246SOL    HW2 9014   1.611   2.364   3.821
 2246SOL    HW3 9015   1.527   2.239   3.836
 2246SOL    MW4 9016   1.542   2.322   3.855
 2247SOL     OW 9017   1.307   2.505   3.742
 2247SOL    HW2 9018   1.384   2.462   3.779
 2247SOL    HW3 9019   1.233   2.458   3.781
 2247SOL    MW4 9020   1.307   2.493   3.752
 2248SOL     OW 9021   1.356   2.746   3.876
 2248SOL    HW2 9022   1.380   2.728   3.967
 2248SOL    HW3 9023   1.345   2.660   3.836
 2248SOL    MW4 9024   1.358   2.733   3.883
 2249SOL     OW 9025   1.591   2.865   3.750
 2249SOL    HW2 9026   1.514   2.824   3.790
 2249SOL    HW3 9027   1.571   2.864   3.656
 2249SOL    MW4 9028   1.578   2.859   3.743
 2250SOL     OW 9029   1.569   3.121   3.862
 2250SOL    HW2 9030   1.558   3.102   3.955
 2250SOL    HW3 9031   1.578   3.035   3.821
 2250SOL    MW4 9032   1.569   3.107   3.869
 2251SOL     OW 9033   1.321   3.232   3.754
 2251SOL    HW2 9034   1.306   3.319   3.791
 2251SOL    HW3 9035   1.401   3.202   3.797
 2251SOL    MW4 9036   1.330   3.240   3.764
 2252SOL     OW 9037   1.333   3.469   3.888
 2252SOL    HW2 9038   1.411   3.510   3.851
 2252SOL    HW3 9039   1.262   3.530   3.867
 2252SOL    MW4 9040   1.334   3.483   3.881
 2253SOL     OW 9041   1.548   3.599   3.757
 2253SOL    HW2 9042   1.626   3.555   3.790
 2253SOL    HW3 9043   1.564   3.692   3.775
 2253SOL    MW4 9044   1.561   3.606   3.764
 2254SOL     OW 9045   1.615   3.862   3.859
 2254SOL    HW2 9046   1.631   3.874   3.953
 2254SOL    HW3 9047   1.530   3.905   3.845
 2254SOL    MW4 9048   1.606   3.870   3.870
 2255SOL     OW 9049   1.376   3.967   3.769
 2255SOL    HW2 9050   1.368   4.058   3.799
 2255SOL    HW3 9051   1.374   3.972   3.673
 2255SOL    MW4 9052   1.374   3.979   3.760
 2256SOL     OW 9053   1.338   4.238   3.860
 2256SOL    HW2 9054   1.410   4.284   3.818
 2256SOL    HW3 9055   1.260   4.286   3.833
 2256SOL    MW4 9056   1.337   4.250   3.851
 2257SOL     OW 9057   1.564   4.385   3.756
 2257SOL    HW2 9058   1.630   4.319   3.778
 2257SOL    HW3 9059   1.562   4.385   3.660
 2257SOL    MW4 9060   1.572   4.376   3.746
 2258SOL     OW 9061   1.995   4.624   3.872
 2258SOL    HW2 9062   2.058   4.669   3.816
 2258SOL    HW3 9063   1.992   4.534   3.838
 2258SOL    MW4 9064   2.003   4.618   3.860
 2259SOL     OW 9065   1.792   0.112   3.800
 2259SOL    HW2 9066   1.860   0.055   3.836
 2259SOL    HW3 9067   1.710   0.075   3.832
 2259SOL    MW4 9068   1.790   0.099   3.809
 2260SOL     OW 9069   1.776   0.367   3.915
 2260SOL    HW2 9070   1.757   0.370   4.009
 2260SOL    HW3 9071   1.769   0.274   3.892
 2260SOL    MW4 9072   1.773   0.355   3.924
 2261SOL     OW 9073   2.016   0.481   3.788
 2261SOL    HW2 9074   1.934   0.433   3.803
 2261SOL    HW3 9075   2.024   0.485   3.693
 2261SOL    MW4 9076   2.006   0.475   3.777
 2262SOL     OW 9077   2.021   0.748   3.868
 2262SOL    HW2 9078   2.004   0.747   3.962
 2262SOL    HW3 9079   2.009   0.657   3.840
 2262SOL    MW4 9080   2.017   0.736   3.877
 2263SOL     OW 9081   1.799   0.900   3.779
 2263SOL    HW2 9082   1.879   0.849   3.793
 2263SOL    HW3 9083   1.785   0.898   3.684
 2263SOL    MW4 9084   1.808   0.893   3.768
 2264SOL     OW 9085   1.723   1.166   3.898
 2264SOL    HW2 9086   1.697   1.155   3.989
 2264SOL    HW3 9087   1.719   1.078   3.861
 2264SOL    MW4 9088   1.719   1.153   3.905
 2265SOL     OW 9089   1.960   1.229   3.743
 2265SOL    HW2 9090   2.039   1.182   3.771
 2265SOL    HW3 9091   1.889   1.190   3.793
 2265SOL    MW4 9092   1.961   1.218   3.753
 2266SOL     OW 9093   1.954   1.541   3.849
 2266SOL    HW2 9094   1.874   1.589   3.824
 2266SOL    HW3 9095   1.946   1.457   3.803
 2266SOL    MW4 9096   1.942   1.536   3.839
 2267SOL     OW 9097   1.738   1.688   3.749
 2267SOL    HW2 9098   1.761   1.778   3.769
 2267SOL    HW3 9099   1.764   1.676   3.658
 2267SOL    MW4 9100   1.744   1.698   3.740
 2268SOL     OW 9101   1.750   1.944   3.843
 2268SOL    HW2 9102   1.735   1.926   3.936
 2268SOL    HW3 9103   1.670   1.987   3.814
 2268SOL    MW4 9104   1.737   1.947   3.852
 2269SOL     OW 9105   1.967   2.090   3.771
 2269SOL    HW2 9106   1.900   2.025   3.794
 2269SOL    HW3 9107   1.973   2.085   3.676
 2269SOL    MW4 9108   1.959   2.081   3.762
 2270SOL     OW 9109   1.987   2.351   3.889
 2270SOL    HW2 9110   1.905   2.392   3.862
 2270SOL    HW3 9111   1.984   2.263   3.852
 2270SOL    MW4 9112   1.976   2.345   3.881
 2271SOL     OW 9113   1.750   2.482   3.781
 2271SOL    HW2 9114   1.769   2.564   3.826
 2271SOL    HW3 9115   1.781   2.496   3.691
 2271SOL    MW4 9116   1.756   2.494   3.775
 2272SOL     OW 9117   1.785   2.735   3.891
 2272SOL    HW2 9118   1.808   2.786   3.969
 2272SOL    HW3 9119   1.710   2.781   3.854
 2272SOL    MW4 9120   1.778   2.747   3.897
 2273SOL     OW 9121   1.998   2.856   3.757
 2273SOL    HW2 9122   2.072   2.807   3.792
 2273SOL    HW3 9123   1.921   2.813   3.794
 2273SOL    MW4 9124   1.998   2.844   3.766
 2274SOL     OW 9125   2.003   3.110   3.817
 2274SOL    HW2 9126   2.008   3.019   3.786
 2274SOL    HW3 9127   2.085   3.149   3.788
 2274SOL    MW4 9128   2.015   3.103   3.809
 2275SOL     OW 9129   1.779   3.250   3.727
 2275SOL    HW2 9130   1.853   3.193   3.748
 2275SOL    HW3 9131   1.704   3.207   3.767
 2275SOL    MW4 9132   1.779   3.237   3.735
 2276SOL     OW 9133   1.805   3.512   3.821
 2276SOL    HW2 9134   1.889   3.555   3.801
 2276SOL    HW3 9135   1.815   3.423   3.787
 2276SOL    MW4 9136   1.818   3.506   3.814
 2277SOL     OW 9137   2.045   3.651   3.758
 2277SOL    HW2 9138   2.115   3.594   3.788
 2277SOL    HW3 9139   2.045   3.642   3.663
 2277SOL    MW4 9140   2.054   3.642   3.749
 2278SOL     OW 9141   2.020   3.892   3.875
 2278SOL    HW2 9142   2.103   3.939   3.873
 2278SOL    HW3 9143   2.040   3.806   3.837
 2278SOL    MW4 9144   2.034   3.887   3.870
 2279SOL     OW 9145   1.823   3.981   3.722
 2279SOL    HW2 9146   1.899   3.960   3.777
 2279SOL    HW3 9147   1.750   3.935   3.762
 2279SOL    MW4 9148   1.824   3.973   3.734
 2280SOL     OW 9149   1.770   4.219   3.844
 2280SOL    HW2 9150   1.846   4.276   3.832
 2280SOL    HW3 9151   1.792   4.139   3.796
 2280SOL    MW4 9152   1.783   4.216   3.836
 2281SOL     OW 9153   2.000   4.365   3.777
 2281SOL    HW2 9154   2.093   4.352   3.792
 2281SOL    HW3 9155   1.993   4.379   3.682
 2281SOL    MW4 9156   2.011   4.365   3.766
 2282SOL     OW 9157   2.430   0.035   3.819
 2282SOL    HW2 9158   2.425   0.017   3.913
 2282SOL    HW3 9159   2.511   0.086   3.809
 2282SOL    MW4 9160   2.440   0.039   3.830
 2283SOL     OW 9161   2.186   0.116   3.748
 2283SOL    HW2 9162   2.272   0.082   3.774
 2283SOL    HW3 9163   2.195   0.135   3.655
 2283SOL    MW4 9164   2.199   0.114   3.739
 2284SOL     OW 9165   2.262   0.346   3.859
 2284SOL    HW2 9166   2.249   0.263   3.811
 2284SOL    HW3 9167   2.186   0.399   3.836
 2284SOL    MW4 9168   2.250   0.342   3.849
 2285SOL     OW 9169   2.477   0.509   3.806
 2285SOL    HW2 9170   2.406   0.447   3.825
 2285SOL    HW3 9171   2.479   0.513   3.710
 2285SOL    MW4 9172   2.468   0.501   3.796
 2286SOL     OW 9173   2.485   0.774   3.898
 2286SOL    HW2 9174   2.404   0.804   3.858
 2286SOL    HW3 9175   2.495   0.683   3.867
 2286SOL    MW4 9176   2.476   0.766   3.888
 2287SOL     OW 9177   2.247   0.859   3.759
 2287SOL    HW2 9178   2.166   0.822   3.794
 2287SOL    HW3 9179   2.233   0.861   3.664
 2287SOL    MW4 9180   2.234   0.855   3.751
 2288SOL     OW 9181   2.197   1.109   3.845
 2288SOL    HW2 9182   2.189   1.109   3.941
 2288SOL    HW3 9183   2.205   1.016   3.823
 2288SOL    MW4 9184   2.197   1.096   3.855
 2289SOL     OW 9185   2.410   1.240   3.731
 2289SOL    HW2 9186   2.395   1.334   3.745
 2289SOL    HW3 9187   2.329   1.199   3.759
 2289SOL    MW4 9188   2.397   1.247   3.737
 2290SOL     OW 9189   2.394   1.518   3.775
 2290SOL    HW2 9190   2.466   1.572   3.742
 2290SOL    HW3 9191   2.319   1.576   3.777
 2290SOL    MW4 9192   2.394   1.532   3.771
 2291SOL     OW 9193   2.189   1.689   3.792
 2291SOL    HW2 9194   2.182   1.778   3.827
 2291SOL    HW3 9195   2.112   1.644   3.825
 2291SOL    MW4 9196   2.178   1.695   3.801
 2292SOL     OW 9197   2.180   1.950   3.862
 2292SOL    HW2 9198   2.159   1.944   3.955
 2292SOL    HW3 9199   2.104   1.993   3.823
 2292SOL    MW4 9200   2.167   1.955   3.869
 2293SOL     OW 9201   2.392   2.062   3.759
 2293SOL    HW2 9202   2.400   2.142   3.811
 2293SOL    HW3 9203   2.318   2.015   3.798
 2293SOL    MW4 9204   2.384   2.066   3.771
 2294SOL     OW 9205   2.438   2.311   3.886
 2294SOL    HW2 9206   2.516   2.361   3.859
 2294SOL    HW3 9207   2.364   2.366   3.858
 2294SOL    MW4 9208   2.438   2.325   3.878
 2295SOL     OW 9209   2.218   2.437   3.786
 2295SOL    HW2 9210   2.143   2.384   3.813
 2295SOL    HW3 9211   2.226   2.421   3.692
 2295SOL    MW4 9212   2.209   2.428   3.777
 2296SOL     OW 9213   2.213   2.719   3.886
 2296SOL    HW2 9214   2.216   2.738   3.980
 2296SOL    HW3 9215   2.220   2.623   3.881
 2296SOL    MW4 9216   2.214   2.709   3.898
 2297SOL     OW 9217   2.473   2.854   3.789
 2297SOL    HW2 9218   2.401   2.803   3.826
 2297SOL    HW3 9219   2.468   2.838   3.695
 2297SOL    MW4 9220   2.463   2.845   3.782
 2298SOL     OW 9221   2.415   3.113   3.884
 2298SOL    HW2 9222   2.416   3.123   3.979
 2298SOL    HW3 9223   2.415   3.018   3.870
 2298SOL    MW4 9224   2.415   3.102   3.895
 2299SOL     OW 9225   2.236   3.244   3.721
 2299SOL    HW2 9226   2.254   3.335   3.745
 2299SOL    HW3 9227   2.292   3.192   3.779
 2299SOL    MW4 9228   2.246   3.249   3.732
 2300SOL     OW 9229   2.249   3.496   3.844
 2300SOL    HW2 9230   2.254   3.493   3.940
 2300SOL    HW3 9231   2.332   3.533   3.817
 2300SOL    MW4 9232   2.260   3.500   3.853
 2301SOL     OW 9233   2.469   3.624   3.734
 2301SOL    HW2 9234   2.537   3.563   3.762
 2301SOL    HW3 9235   2.473   3.622   3.638
 2301SOL    MW4 9236   2.479   3.616   3.725
 2302SOL     OW 9237   2.486   3.881   3.869
 2302SOL    HW2 9238   2.567   3.908   3.826
 2302SOL    HW3 9239   2.467   3.795   3.832
 2302SOL    MW4 9240   2.494   3.874   3.858
 2303SOL     OW 9241   2.252   4.021   3.774
 2303SOL    HW2 9242   2.332   3.985   3.814
 2303SOL    HW3 9243   2.266   4.011   3.680
 2303SOL    MW4 9244   2.265   4.015   3.767
 2304SOL     OW 9245   2.260   4.293   3.836
 2304SOL    HW2 9246   2.266   4.288   3.932
 2304SOL    HW3 9247   2.239   4.204   3.809
 2304SOL    MW4 9248   2.258   4.281   3.845
 2305SOL     OW 9249   2.486   4.425   3.734
 2305SOL    HW2 9250   2.404   4.380   3.755
 2305SOL    HW3 9251   2.474   4.513   3.769
 2305SOL    MW4 9252   2.473   4.431   3.741
 2306SOL     OW 9253   2.909   0.023   3.892
 2306SOL    HW2 9254   2.905   0.033   3.987
 2306SOL    HW3 9255   2.993   0.060   3.867
 2306SOL    MW4 9256   2.919   0.029   3.901
 2307SOL     OW 9257   2.688   0.149   3.777
 2307SOL    HW2 9258   2.761   0.098   3.813
 2307SOL    HW3 9259   2.700   0.144   3.682
 2307SOL    MW4 9260   2.699   0.141   3.769
 2308SOL     OW 9261   2.710   0.383   3.900
 2308SOL    HW2 9262   2.697   0.294   3.867
 2308SOL    HW3 9263   2.629   0.429   3.877
 2308SOL    MW4 9264   2.697   0.378   3.892
 2309SOL     OW 9265   2.913   0.541   3.770
 2309SOL    HW2 9266   2.993   0.497   3.798
 2309SOL    HW3 9267   2.843   0.496   3.817
 2309SOL    MW4 9268   2.914   0.530   3.780
 2310SOL     OW 9269   2.913   0.808   3.849
 2310SOL    HW2 9270   2.992   0.846   3.811
 2310SOL    HW3 9271   2.914   0.717   3.821
 2310SOL    MW4 9272   2.923   0.801   3.840
 2311SOL     OW 9273   2.675   0.900   3.754
 2311SOL    HW2 9274   2.753   0.855   3.787
 2311SOL    HW3 9275   2.602   0.856   3.797
 2311SOL    MW4 9276   2.676   0.888   3.764
 2312SOL     OW 9277   2.650   1.151   3.879
 2312SOL    HW2 9278   2.650   1.058   3.856
 2312SOL    HW3 9279   2.591   1.191   3.815
 2312SOL    MW4 9280   2.642   1.144   3.868
 2313SOL     OW 9281   2.878   1.284   3.762
 2313SOL    HW2 9282   2.886   1.376   3.790
 2313SOL    HW3 9283   2.798   1.253   3.805
 2313SOL    MW4 9284   2.869   1.292   3.771
 2314SOL     OW 9285   2.837   1.553   3.869
 2314SOL    HW2 9286   2.838   1.542   3.964
 2314SOL    HW3 9287   2.924   1.587   3.847
 2314SOL    MW4 9288   2.848   1.556   3.878
 2315SOL     OW 9289   2.621   1.670   3.742
 2315SOL    HW2 9290   2.696   1.642   3.795
 2315SOL    HW3 9291   2.655   1.674   3.653
 2315SOL    MW4 9292   2.635   1.667   3.737
 2316SOL     OW 9293   2.613   1.914   3.855
 2316SOL    HW2 9294   2.605   1.829   3.813
 2316SOL    HW3 9295   2.535   1.962   3.827
 2316SOL    MW4 9296   2.602   1.909   3.846
 2317SOL     OW 9297   2.870   2.002   3.792
 2317SOL    HW2 9298   2.856   2.079   3.847
 2317SOL    HW3 9299   2.794   1.947   3.807
 2317SOL    MW4 9300   2.858   2.005   3.801
 2318SOL     OW 9301   2.842   2.271   3.909
 2318SOL    HW2 9302   2.840   2.296   4.002
 2318SOL    HW3 9303   2.912   2.324   3.872
 2318SOL    MW4 9304   2.851   2.281   3.917
 2319SOL     OW 9305   2.651   2.423   3.776
 2319SOL    HW2 9306   2.667   2.508   3.816
 2319SOL    HW3 9307   2.714   2.364   3.818
 2319SOL    MW4 9308   2.662   2.426   3.787
 2320SOL     OW 9309   2.692   2.718   3.868
 2320SOL    HW2 9310   2.698   2.752   3.957
 2320SOL    HW3 9311   2.613   2.759   3.832
 2320SOL    MW4 9312   2.682   2.728   3.875
 2321SOL     OW 9313   2.941   2.782   3.734
 2321SOL    HW2 9314   2.943   2.872   3.765
 2321SOL    HW3 9315   2.858   2.747   3.767
 2321SOL    MW4 9316   2.930   2.789   3.742
 2322SOL     OW 9317   2.890   3.055   3.823
 2322SOL    HW2 9318   2.953   3.118   3.788
 2322SOL    HW3 9319   2.806   3.101   3.821
 2322SOL    MW4 9320   2.888   3.069   3.818
 2323SOL     OW 9321   2.658   3.198   3.792
 2323SOL    HW2 9322   2.643   3.291   3.808
 2323SOL    HW3 9323   2.574   3.156   3.812
 2323SOL    MW4 9324   2.645   3.205   3.797
 2324SOL     OW 9325   2.692   3.462   3.833
 2324SOL    HW2 9326   2.703   3.455   3.928
 2324SOL    HW3 9327   2.769   3.508   3.803
 2324SOL    MW4 9328   2.703   3.467   3.842
 2325SOL     OW 9329   2.935   3.593   3.753
 2325SOL    HW2 9330   3.006   3.536   3.783
 2325SOL    HW3 9331   2.934   3.581   3.658
 2325SOL    MW4 9332   2.944   3.584   3.745
 2326SOL     OW 9333   2.935   3.865   3.827
 2326SOL    HW2 9334   2.918   3.882   3.919
 2326SOL    HW3 9335   2.938   3.770   3.819
 2326SOL    MW4 9336   2.933   3.855   3.838
 2327SOL     OW 9337   2.701   3.988   3.749
 2327SOL    HW2 9338   2.709   4.076   3.786
 2327SOL    HW3 9339   2.779   3.941   3.782
 2327SOL    MW4 9340   2.713   3.993   3.758
 2328SOL     OW 9341   2.696   4.261   3.834
 2328SOL    HW2 9342   2.772   4.319   3.826
 2328SOL    HW3 9343   2.626   4.307   3.787
 2328SOL    MW4 9344   2.697   4.275   3.826
 2329SOL     OW 9345   2.911   4.427   3.801
 2329SOL    HW2 9346   2.991   4.384   3.831
 2329SOL    HW3 9347   2.917   4.516   3.834
 2329SOL    MW4 9348   2.922   4.433   3.809
 2330SOL     OW 9349   3.384   4.648   3.876
 2330SOL    HW2 9350   3.383   4.657   3.971
 2330SOL    HW3 9351   3.464   4.692   3.847
 2330SOL    MW4 9352   3.394   4.655   3.884
 2331SOL     OW 9353   3.165   0.090   3.774
 2331SOL    HW2 9354   3.243   0.043   3.805
 2331SOL    HW3 9355   3.162   0.073   3.680
 2331SOL    MW4 9356   3.175   0.081   3.766
 2332SOL     OW 9357   3.134   0.371   3.852
 2332SOL    HW2 9358   3.132   0.373   3.948
 2332SOL    HW3 9359   3.133   0.278   3.830
 2332SOL    MW4 9360   3.134   0.359   3.862
 2333SOL     OW 9361   3.375   0.504   3.745
 2333SOL    HW2 9362   3.445   0.449   3.782
 2333SOL    HW3 9363   3.295   0.471   3.785
 2333SOL    MW4 9364   3.374   0.493   3.755
 2334SOL     OW 9365   3.369   0.783   3.803
 2334SOL    HW2 9366   3.329   0.783   3.890
 2334SOL    HW3 9367   3.360   0.693   3.772
 2334SOL    MW4 9368   3.363   0.771   3.810
 2335SOL     OW 9369   3.136   0.924   3.738
 2335SOL    HW2 9370   3.214   0.874   3.759
 2335SOL    HW3 9371   3.120   0.907   3.645
 2335SOL    MW4 9372   3.144   0.915   3.728
 2336SOL     OW 9373   3.115   1.176   3.853
 2336SOL    HW2 9374   3.124   1.085   3.827
 2336SOL    HW3 9375   3.026   1.200   3.827
 2336SOL    MW4 9376   3.104   1.167   3.846
 2337SOL     OW 9377   3.328   1.287   3.741
 2337SOL    HW2 9378   3.252   1.237   3.772
 2337SOL    HW3 9379   3.331   1.270   3.647
 2337SOL    MW4 9380   3.318   1.278   3.733
 2338SOL     OW 9381   3.320   1.535   3.858
 2338SOL    HW2 9382   3.238   1.571   3.825
 2338SOL    HW3 9383   3.321   1.445   3.826
 2338SOL    MW4 9384   3.309   1.528   3.850
 2339SOL     OW 9385   3.085   1.669   3.788
 2339SOL    HW2 9386   3.111   1.754   3.823
 2339SOL    HW3 9387   3.103   1.675   3.694
 2339SOL    MW4 9388   3.091   1.681   3.780
 2340SOL     OW 9389   3.120   1.939   3.872
 2340SOL    HW2 9390   3.115   1.968   3.963
 2340SOL    HW3 9391   3.033   1.957   3.837
 2340SOL    MW4 9392   3.108   1.945   3.879
 2341SOL     OW 9393   3.344   2.062   3.784
 2341SOL    HW2 9394   3.270   2.010   3.816
 2341SOL    HW3 9395   3.331   2.065   3.689
 2341SOL    MW4 9396   3.332   2.055   3.775
 2342SOL     OW 9397   3.309   2.349   3.850
 2342SOL    HW2 9398   3.219   2.361   3.820
 2342SOL    HW3 9399   3.326   2.255   3.841
 2342SOL    MW4 9400   3.299   2.338   3.845
 2343SOL     OW 9401   3.044   2.398   3.773
 2343SOL    HW2 9402   3.049   2.485   3.813
 2343SOL    HW3 9403   3.072   2.412   3.683
 2343SOL    MW4 9404   3.048   2.412   3.767
 2344SOL     OW 9405   3.166   2.666   3.849
 2344SOL    HW2 9406   3.164   2.680   3.944
 2344SOL    HW3 9407   3.087   2.708   3.817
 2344SOL    MW4 9408   3.155   2.673   3.858
 2345SOL     OW 9409   3.369   2.828   3.749
 2345SOL    HW2 9410   3.295   2.771   3.769
 2345SOL    HW3 9411   3.372   2.831   3.653
 2345SOL    MW4 9412   3.360   2.821   3.739
 2346SOL     OW 9413   3.345   3.078   3.882
 2346SOL    HW2 9414   3.418   3.135   3.859
 2346SOL    HW3 9415   3.353   3.002   3.824
 2346SOL    MW4 9416   3.356   3.075   3.871
 2347SOL     OW 9417   3.140   3.195   3.750
 2347SOL    HW2 9418   3.213   3.144   3.786
 2347SOL    HW3 9419   3.149   3.184   3.655
 2347SOL    MW4 9420   3.151   3.186   3.742
 2348SOL     OW 9421   3.146   3.444   3.846
 2348SOL    HW2 9422   3.226   3.493   3.827
 2348SOL    HW3 9423   3.161   3.357   3.807
 2348SOL    MW4 9424   3.158   3.439   3.838
 2349SOL     OW 9425   3.378   3.597   3.793
 2349SOL    HW2 9426   3.385   3.692   3.807
 2349SOL    HW3 9427   3.397   3.585   3.700
 2349SOL    MW4 9428   3.382   3.608   3.783
 2350SOL     OW 9429   3.387   3.879   3.857
 2350SOL    HW2 9430   3.467   3.928   3.836
 2350SOL    HW3 9431   3.316   3.932   3.820
 2350SOL    MW4 9432   3.388   3.892   3.849
 2351SOL     OW 9433   3.167   4.019   3.771
 2351SOL    HW2 9434   3.163   4.107   3.808
 2351SOL    HW3 9435   3.081   3.981   3.791
 2351SOL    MW4 9436   3.155   4.025   3.779
 2352SOL     OW 9437   3.138   4.278   3.844
 2352SOL    HW2 9438   3.128   4.277   3.939
 2352SOL    HW3 9439   3.222   4.323   3.829
 2352SOL    MW4 9440   3.148   4.284   3.854
 2353SOL     OW 9441   3.400   4.389   3.794
 2353SOL    HW2 9442   3.471   4.334   3.825
 2353SOL    HW3 9443   3.425   4.478   3.818
 2353SOL    MW4 9444   3.413   4.393   3.801
 2354SOL     OW 9445   3.845   4.641   3.895
 2354SOL    HW2 9446   3.920   4.682   3.853
 2354SOL    HW3 9447   3.862   4.547   3.887
 2354SOL    MW4 9448   3.857   4.634   3.889
 2355SOL     OW 9449   3.607   0.082   3.771
 2355SOL    HW2 9450   3.680   0.028   3.801
 2355SOL    HW3 9451   3.606   0.070   3.676
 2355SOL    MW4 9452   3.617   0.073   3.763
 2356SOL     OW 9453   3.611   0.340   3.864
 2356SOL    HW2 9454   3.680   0.399   3.834
 2356SOL    HW3 9455   3.625   0.259   3.815
 2356SOL    MW4 9456   3.622   0.337   3.854
 2357SOL     OW 9457   3.798   0.506   3.769
 2357SOL    HW2 9458   3.873   0.460   3.806
 2357SOL    HW3 9459   3.811   0.597   3.794
 2357SOL    MW4 9460   3.810   0.512   3.777
 2358SOL     OW 9461   3.840   0.778   3.820
 2358SOL    HW2 9462   3.920   0.815   3.784
 2358SOL    HW3 9463   3.770   0.831   3.783
 2358SOL    MW4 9464   3.841   0.790   3.811
 2359SOL     OW 9465   3.608   0.907   3.733
 2359SOL    HW2 9466   3.599   0.994   3.772
 2359SOL    HW3 9467   3.529   0.861   3.760
 2359SOL    MW4 9468   3.596   0.913   3.741
 2360SOL     OW 9469   3.587   1.177   3.811
 2360SOL    HW2 9470   3.662   1.218   3.767
 2360SOL    HW3 9471   3.516   1.240   3.799
 2360SOL    MW4 9472   3.587   1.191   3.803
 2361SOL     OW 9473   3.801   1.309   3.722
 2361SOL    HW2 9474   3.873   1.260   3.762
 2361SOL    HW3 9475   3.795   1.389   3.773
 2361SOL    MW4 9476   3.810   1.313   3.734
 2362SOL     OW 9477   3.792   1.547   3.840
 2362SOL    HW2 9478   3.799   1.540   3.936
 2362SOL    HW3 9479   3.708   1.590   3.825
 2362SOL    MW4 9480   3.782   1.552   3.851
 2363SOL     OW 9481   3.555   1.642   3.762
 2363SOL    HW2 9482   3.477   1.606   3.804
 2363SOL    HW3 9483   3.538   1.635   3.668
 2363SOL    MW4 9484   3.543   1.636   3.755
 2364SOL     OW 9485   3.575   1.923   3.836
 2364SOL    HW2 9486   3.551   1.835   3.807
 2364SOL    HW3 9487   3.501   1.977   3.811
 2364SOL    MW4 9488   3.562   1.918   3.829
 2365SOL     OW 9489   3.799   2.049   3.733
 2365SOL    HW2 9490   3.877   2.007   3.771
 2365SOL    HW3 9491   3.726   1.996   3.765
 2365SOL    MW4 9492   3.800   2.036   3.742
 2366SOL     OW 9493   3.779   2.310   3.866
 2366SOL    HW2 9494   3.701   2.349   3.827
 2366SOL    HW3 9495   3.773   2.217   3.845
 2366SOL    MW4 9496   3.768   2.303   3.858
 2367SOL     OW 9497   3.557   2.451   3.759
 2367SOL    HW2 9498   3.473   2.417   3.790
 2367SOL    HW3 9499   3.548   2.453   3.663
 2367SOL    MW4 9500   3.545   2.447   3.750
 2368SOL     OW 9501   3.585   2.697   3.857
 2368SOL    HW2 9502   3.575   2.609   3.821
 2368SOL    HW3 9503   3.502   2.740   3.837
 2368SOL    MW4 9504   3.573   2.691   3.850
 2369SOL     OW 9505   3.801   2.858   3.769
 2369SOL    HW2 9506   3.871   2.800   3.798
 2369SOL    HW3 9507   3.720   2.809   3.786
 2369SOL    MW4 9508   3.799   2.844   3.775
 2370SOL     OW 9509   3.802   3.144   3.804
 2370SOL    HW2 9510   3.713   3.176   3.796
 2370SOL    HW3 9511   3.794   3.049   3.801
 2370SOL    MW4 9512   3.789   3.136   3.803
 2371SOL     OW 9513   3.538   3.228   3.770
 2371SOL    HW2 9514   3.554   3.321   3.786
 2371SOL    HW3 9515   3.536   3.219   3.675
 2371SOL    MW4 9516   3.540   3.239   3.759
 2372SOL     OW 9517   3.598   3.483   3.881
 2372SOL    HW2 9518   3.602   3.477   3.977
 2372SOL    HW3 9519   3.516   3.528   3.863
 2372SOL    MW4 9520   3.588   3.488   3.892
 2373SOL     OW 9521   3.815   3.625   3.762
 2373SOL    HW2 9522   3.812   3.705   3.814
 2373SOL    HW3 9523   3.749   3.568   3.801
 2373SOL    MW4 9524   3.806   3.628   3.774
 2374SOL     OW 9525   3.816   3.893   3.888
 2374SOL    HW2 9526   3.836   3.911   3.980
 2374SOL    HW3 9527   3.898   3.909   3.842
 2374SOL    MW4 9528   3.829   3.898   3.894
 2375SOL     OW 9529   3.613   4.023   3.762
 2375SOL    HW2 9530   3.603   4.108   3.804
 2375SOL    HW3 9531   3.685   3.982   3.809
 2375SOL    MW4 9532   3.621   4.029   3.774
 2376SOL     OW 9533   3.623   4.261   3.913
 2376SOL    HW2 9534   3.624   4.259   4.008
 2376SOL    HW3 9535   3.712   4.289   3.889
 2376SOL    MW4 9536   3.635   4.264   3.922
 2377SOL     OW 9537   3.868   4.374   3.829
 2377SOL    HW2 9538   3.954   4.344   3.860
 2377SOL    HW3 9539   3.879   4.384   3.734
 2377SOL    MW4 9540   3.881   4.372   3.820
 2378SOL     OW 9541   4.265   4.648   3.871
 2378SOL    HW2 9542   4.267   4.654   3.967
 2378SOL    HW3 9543   4.339   4.702   3.843
 2378SOL    MW4 9544   4.275   4.656   3.880
 2379SOL     OW 9545   4.051   0.108   3.736
 2379SOL    HW2 9546   4.132   0.067   3.766
 2379SOL    HW3 9547   4.052   0.098   3.641
 2379SOL    MW4 9548   4.062   0.101   3.728
 2380SOL     OW 9549   4.029   0.366   3.857
 2380SOL    HW2 9550   4.012   0.355   3.950
 2380SOL    HW3 9551   4.023   0.278   3.820
 2380SOL    MW4 9552   4.026   0.353   3.864
 2381SOL     OW 9553   4.246   0.514   3.751
 2381SOL    HW2 9554   4.169   0.474   3.792
 2381SOL    HW3 9555   4.236   0.494   3.658
 2381SOL    MW4 9556   4.234   0.506   3.744
 2382SOL     OW 9557   4.291   0.782   3.820
 2382SOL    HW2 9558   4.216   0.827   3.780
 2382SOL    HW3 9559   4.283   0.692   3.790
 2382SOL    MW4 9560   4.280   0.776   3.811
 2383SOL     OW 9561   4.077   0.916   3.717
 2383SOL    HW2 9562   4.064   1.003   3.754
 2383SOL    HW3 9563   4.070   0.928   3.623
 2383SOL    MW4 9564   4.074   0.929   3.710
 2384SOL     OW 9565   4.010   1.181   3.824
 2384SOL    HW2 9566   4.006   1.181   3.920
 2384SOL    HW3 9567   4.099   1.211   3.804
 2384SOL    MW4 9568   4.021   1.185   3.834
 2385SOL     OW 9569   4.264   1.267   3.773
 2385SOL    HW2 9570   4.257   1.345   3.828
 2385SOL    HW3 9571   4.258   1.301   3.684
 2385SOL    MW4 9572   4.263   1.282   3.769
 2386SOL     OW 9573   4.280   1.524   3.869
 2386SOL    HW2 9574   4.201   1.559   3.827
 2386SOL    HW3 9575   4.353   1.562   3.819
 2386SOL    MW4 9576   4.279   1.534   3.856
 2387SOL     OW 9577   4.036   1.623   3.760
 2387SOL    HW2 9578   4.029   1.717   3.774
 2387SOL    HW3 9579   3.950   1.588   3.785
 2387SOL    MW4 9580   4.024   1.630   3.765
 2388SOL     OW 9581   4.044   1.891   3.793
 2388SOL    HW2 9582   4.019   1.913   3.883
 2388SOL    HW3 9583   4.108   1.959   3.769
 2388SOL    MW4 9584   4.049   1.903   3.802
 2389SOL     OW 9585   4.255   2.065   3.750
 2389SOL    HW2 9586   4.253   2.159   3.765
 2389SOL    HW3 9587   4.254   2.056   3.654
 2389SOL    MW4 9588   4.255   2.076   3.739
 2390SOL     OW 9589   4.259   2.335   3.840
 2390SOL    HW2 9590   4.281   2.334   3.933
 2390SOL    HW3 9591   4.171   2.373   3.837
 2390SOL    MW4 9592   4.250   2.340   3.852
 2391SOL     OW 9593   4.003   2.433   3.767
 2391SOL    HW2 9594   3.991   2.528   3.772
 2391SOL    HW3 9595   3.917   2.397   3.790
 2391SOL    MW4 9596   3.990   2.441   3.771
 2392SOL     OW 9597   4.019   2.699   3.823
 2392SOL    HW2 9598   4.017   2.714   3.917
 2392SOL    HW3 9599   4.095   2.748   3.792
 2392SOL    MW4 9600   4.029   2.708   3.831
 2393SOL     OW 9601   4.230   2.842   3.735
 2393SOL    HW2 9602   4.224   2.923   3.787
 2393SOL    HW3 9603   4.298   2.790   3.778
 2393SOL    MW4 9604   4.238   2.846   3.748
 2394SOL     OW 9605   4.249   3.111   3.853
 2394SOL    HW2 9606   4.179   3.166   3.818
 2394SOL    HW3 9607   4.328   3.143   3.809
 2394SOL    MW4 9608   4.250   3.123   3.843
 2395SOL     OW 9609   4.063   3.247   3.733
 2395SOL    HW2 9610   3.973   3.219   3.754
 2395SOL    HW3 9611   4.071   3.235   3.639
 2395SOL    MW4 9612   4.052   3.242   3.723
 2396SOL     OW 9613   4.044   3.488   3.841
 2396SOL    HW2 9614   4.052   3.398   3.810
 2396SOL    HW3 9615   3.969   3.524   3.794
 2396SOL    MW4 9616   4.035   3.481   3.831
 2397SOL     OW 9617   4.257   3.599   3.716
 2397SOL    HW2 9618   4.183   3.556   3.759
 2397SOL    HW3 9619   4.334   3.562   3.758
 2397SOL    MW4 9620   4.258   3.588   3.727
 2398SOL     OW 9621   4.273   3.835   3.853
 2398SOL    HW2 9622   4.189   3.879   3.843
 2398SOL    HW3 9623   4.262   3.751   3.809
 2398SOL    MW4 9624   4.261   3.830   3.846
 2399SOL     OW 9625   4.042   4.006   3.767
 2399SOL    HW2 9626   4.066   4.091   3.804
 2399SOL    HW3 9627   4.045   4.018   3.673
 2399SOL    MW4 9628   4.046   4.019   3.760
 2400SOL     OW 9629   4.101   4.250   3.893
 2400SOL    HW2 9630   4.117   4.246   3.987
 2400SOL    HW3 9631   4.174   4.302   3.858
 2400SOL    MW4 9632   4.113   4.256   3.900
 2401SOL     OW 9633   4.303   4.391   3.750
 2401SOL    HW2 9634   4.289   4.480   3.782
 2401SOL    HW3 9635   4.377   4.359   3.802
 2401SOL    MW4 9636   4.311   4.399   3.761
 2402SOL     OW 9637   0.221   4.663   4.114
 2402SOL    HW2 9638   0.296   4.717   4.141
 2402SOL    HW3 9639   0.239   4.576   4.150
 2402SOL    MW4 9640   0.233   4.659   4.122
 2403SOL     OW 9641   0.025   0.133   4.239
 2403SOL    HW2 9642   0.051   0.149   4.329
 2403SOL    HW3 9643   0.098   0.085   4.200
 2403SOL    MW4 9644   0.038   0.129   4.245
 2404SOL     OW 9645   0.016   0.404   4.158
 2404SOL    HW2 9646   0.020   0.310   4.173
 2404SOL    HW3 9647   0.004   0.412   4.063
 2404SOL    MW4 9648   0.015   0.393   4.147
 2405SOL     OW 9649   0.242   0.565   4.257
 2405SOL    HW2 9650   0.314   0.522   4.210
 2405SOL    HW3 9651   0.168   0.506   4.246
 2405SOL    MW4 9652   0.242   0.551   4.249
 2406SOL     OW 9653   0.236   0.825   4.158
 2406SOL    HW2 9654   0.150   0.864   4.174
 2406SOL    HW3 9655   0.233   0.740   4.202
 2406SOL    MW4 9656   0.224   0.819   4.166
 2407SOL     OW 9657   4.465   0.898   4.261
 2407SOL    HW2 9658   4.390   0.849   4.227
 2407SOL    HW3 9659   4.455   0.986   4.224
 2407SOL    MW4 9660   4.454   0.903   4.252
 2408SOL     OW 9661   4.477   1.145   4.141
 2408SOL    HW2 9662   4.559   1.190   4.165
 2408SOL    HW3 9663   4.472   1.156   4.046
 2408SOL    MW4 9664   4.487   1.153   4.132
 2409SOL     OW 9665   0.222   1.275   4.224
 2409SOL    HW2 9666   0.244   1.277   4.318
 2409SOL    HW3 9667   0.302   1.243   4.182
 2409SOL    MW4 9668   0.236   1.271   4.231
 2410SOL     OW 9669   0.443   1.900   4.722
 2410SOL    HW2 9670   0.441   1.987   4.682
 2410SOL    HW3 9671   0.424   1.840   4.651
 2410SOL    MW4 9672   0.441   1.904   4.707
 2411SOL     OW 9673   0.019   1.688   4.235
 2411SOL    HW2 9674  -0.048   1.633   4.192
 2411SOL    HW3 9675   0.001   1.776   4.204
 2411SOL    MW4 9676   0.008   1.692   4.225
 2412SOL     OW 9677   0.140   2.115   4.242
 2412SOL    HW2 9678   0.149   2.131   4.336
 2412SOL    HW3 9679   0.218   2.065   4.219
 2412SOL    MW4 9680   0.151   2.111   4.251
 2413SOL     OW 9681   0.460   1.455   4.592
 2413SOL    HW2 9682   0.430   1.533   4.544
 2413SOL    HW3 9683   0.437   1.473   4.683
 2413SOL    MW4 9684   0.453   1.468   4.598
 2414SOL     OW 9685   0.190   2.344   4.104
 2414SOL    HW2 9686   0.252   2.390   4.161
 2414SOL    HW3 9687   0.179   2.258   4.145
 2414SOL    MW4 9688   0.197   2.339   4.117
 2415SOL     OW 9689   4.476   2.476   4.213
 2415SOL    HW2 9690   4.398   2.451   4.163
 2415SOL    HW3 9691   4.546   2.423   4.175
 2415SOL    MW4 9692   4.475   2.466   4.201
 2416SOL     OW 9693   4.476   2.757   4.128
 2416SOL    HW2 9694   4.548   2.813   4.154
 2416SOL    HW3 9695   4.480   2.682   4.188
 2416SOL    MW4 9696   4.486   2.754   4.139
 2417SOL     OW 9697   0.195   2.881   4.245
 2417SOL    HW2 9698   0.268   2.838   4.200
 2417SOL    HW3 9699   0.199   2.972   4.216
 2417SOL    MW4 9700   0.205   2.887   4.235
 2418SOL     OW 9701   0.209   3.133   4.128
 2418SOL    HW2 9702   0.284   3.185   4.158
 2418SOL    HW3 9703   0.133   3.177   4.166
 2418SOL    MW4 9704   0.209   3.146   4.137
 2419SOL     OW 9705   0.002   3.295   4.237
 2419SOL    HW2 9706  -0.074   3.262   4.188
 2419SOL    HW3 9707   0.017   3.383   4.202
 2419SOL    MW4 9708  -0.006   3.302   4.226
 2420SOL     OW 9709   4.489   3.543   4.111
 2420SOL    HW2 9710   4.399   3.561   4.141
 2420SOL    HW3 9711   4.480   3.526   4.017
 2420SOL    MW4 9712   4.476   3.543   4.102
 2421SOL     OW 9713   0.218   3.642   4.253
 2421SOL    HW2 9714   0.298   3.607   4.213
 2421SOL    HW3 9715   0.148   3.619   4.192
 2421SOL    MW4 9716   0.220   3.634   4.240
 2422SOL     OW 9717   0.229   3.901   4.178
 2422SOL    HW2 9718   0.157   3.937   4.229
 2422SOL    HW3 9719   0.234   3.809   4.206
 2422SOL    MW4 9720   0.220   3.893   4.188
 2423SOL     OW 9721   0.008   4.014   4.302
 2423SOL    HW2 9722   0.002   3.986   4.394
 2423SOL    HW3 9723  -0.050   3.954   4.255
 2423SOL    MW4 9724  -0.001   4.002   4.308
 2424SOL     OW 9725   0.061   4.284   4.156
 2424SOL    HW2 9726   0.054   4.206   4.211
 2424SOL    HW3 9727   0.046   4.252   4.067
 2424SOL    MW4 9728   0.058   4.269   4.152
 2425SOL     OW 9729   0.263   4.431   4.280
 2425SOL    HW2 9730   0.254   4.459   4.371
 2425SOL    HW3 9731   0.180   4.387   4.261
 2425SOL    MW4 9732   0.251   4.429   4.290
 2426SOL     OW 9733   0.681   4.631   4.126
 2426SOL    HW2 9734   0.605   4.683   4.152
 2426SOL    HW3 9735   0.677   4.629   4.030
 2426SOL    MW4 9736   0.670   4.638   4.117
 2427SOL     OW 9737   0.446   0.139   4.206
 2427SOL    HW2 9738   0.443   0.123   4.301
 2427SOL    HW3 9739   0.451   0.234   4.198
 2427SOL    MW4 9740   0.446   0.149   4.218
 2428SOL     OW 9741   0.465   0.414   4.176
 2428SOL    HW2 9742   0.554   0.425   4.210
 2428SOL    HW3 9743   0.475   0.424   4.081
 2428SOL    MW4 9744   0.478   0.417   4.168
 2429SOL     OW 9745   0.715   0.466   4.267
 2429SOL    HW2 9746   0.784   0.430   4.211
 2429SOL    HW3 9747   0.710   0.558   4.242
 2429SOL    MW4 9748   0.724   0.473   4.256
 2430SOL     OW 9749   0.689   0.714   4.196
 2430SOL    HW2 9750   0.622   0.773   4.229
 2430SOL    HW3 9751   0.698   0.737   4.104
 2430SOL    MW4 9752   0.681   0.725   4.188
 2431SOL     OW 9753   0.483   0.926   4.246
 2431SOL    HW2 9754   0.474   1.010   4.201
 2431SOL    HW3 9755   0.402   0.879   4.226
 2431SOL    MW4 9756   0.471   0.931   4.237
 2432SOL     OW 9757   0.461   1.175   4.125
 2432SOL    HW2 9758   0.528   1.240   4.148
 2432SOL    HW3 9759   0.481   1.151   4.034
 2432SOL    MW4 9760   0.473   1.180   4.116
 2433SOL     OW 9761   0.670   1.329   4.251
 2433SOL    HW2 9762   0.703   1.343   4.340
 2433SOL    HW3 9763   0.665   1.417   4.213
 2433SOL    MW4 9764   0.674   1.343   4.257
 2434SOL     OW 9765   0.677   1.588   4.125
 2434SOL    HW2 9766   0.765   1.600   4.160
 2434SOL    HW3 9767   0.688   1.594   4.030
 2434SOL    MW4 9768   0.690   1.590   4.117
 2435SOL     OW 9769   0.244   1.557   4.173
 2435SOL    HW2 9770   0.239   1.463   4.190
 2435SOL    HW3 9771   0.158   1.590   4.198
 2435SOL    MW4 9772   0.232   1.549   4.178
 2436SOL     OW 9773   0.392   1.995   4.159
 2436SOL    HW2 9774   0.413   1.903   4.169
 2436SOL    HW3 9775   0.394   2.011   4.065
 2436SOL    MW4 9776   0.395   1.985   4.148
 2437SOL     OW 9777   0.663   2.090   4.203
 2437SOL    HW2 9778   0.657   2.111   4.296
 2437SOL    HW3 9779   0.576   2.057   4.181
 2437SOL    MW4 9780   0.651   2.088   4.213
 2438SOL     OW 9781   0.617   2.338   4.111
 2438SOL    HW2 9782   0.623   2.249   4.146
 2438SOL    HW3 9783   0.599   2.325   4.017
 2438SOL    MW4 9784   0.616   2.324   4.103
 2439SOL     OW 9785   0.408   2.483   4.230
 2439SOL    HW2 9786   0.414   2.570   4.191
 2439SOL    HW3 9787   0.489   2.438   4.203
 2439SOL    MW4 9788   0.420   2.488   4.221
 2440SOL     OW 9789   0.407   2.740   4.128
 2440SOL    HW2 9790   0.485   2.794   4.143
 2440SOL    HW3 9791   0.397   2.738   4.033
 2440SOL    MW4 9792   0.416   2.747   4.117
 2441SOL     OW 9793   0.631   2.899   4.183
 2441SOL    HW2 9794   0.661   2.882   4.272
 2441SOL    HW3 9795   0.623   2.994   4.178
 2441SOL    MW4 9796   0.634   2.909   4.194
 2442SOL     OW 9797   0.628   3.169   4.073
 2442SOL    HW2 9798   0.711   3.185   4.118
 2442SOL    HW3 9799   0.563   3.211   4.128
 2442SOL    MW4 9800   0.631   3.177   4.086
 2443SOL     OW 9801   0.408   3.294   4.209
 2443SOL    HW2 9802   0.395   3.298   4.303
 2443SOL    HW3 9803   0.432   3.383   4.184
 2443SOL    MW4 9804   0.409   3.306   4.218
 2444SOL     OW 9805   0.455   3.560   4.146
 2444SOL    HW2 9806   0.538   3.596   4.178
 2444SOL    HW3 9807   0.465   3.559   4.051
 2444SOL    MW4 9808   0.467   3.565   4.138
 2445SOL     OW 9809   0.697   3.652   4.211
 2445SOL    HW2 9810   0.710   3.666   4.305
 2445SOL    HW3 9811   0.768   3.594   4.185
 2445SOL    MW4 9812   0.708   3.646   4.220
 2446SOL     OW 9813   0.737   3.916   4.117
 2446SOL    HW2 9814   0.653   3.957   4.134
 2446SOL    HW3 9815   0.729   3.828   4.156
 2446SOL    MW4 9816   0.725   3.910   4.125
 2447SOL     OW 9817   0.488   4.018   4.187
 2447SOL    HW2 9818   0.481   4.114   4.183
 2447SOL    HW3 9819   0.398   3.987   4.180
 2447SOL    MW4 9820   0.475   4.027   4.186
 2448SOL     OW 9821   0.455   4.274   4.162
 2448SOL    HW2 9822   0.385   4.330   4.196
 2448SOL    HW3 9823   0.436   4.266   4.069
 2448SOL    MW4 9824   0.443   4.280   4.154
 2449SOL     OW 9825   0.681   4.368   4.267
 2449SOL    HW2 9826   0.606   4.332   4.220
 2449SOL    HW3 9827   0.697   4.453   4.226
 2449SOL    MW4 9828   0.673   4.375   4.256
 2450SOL     OW 9829   1.117   0.006   4.153
 2450SOL    HW2 9830   1.124  -0.086   4.178
 2450SOL    HW3 9831   1.124   0.005   4.057
 2450SOL    MW4 9832   1.119  -0.006   4.144
 2451SOL     OW 9833   0.879   0.115   4.220
 2451SOL    HW2 9834   0.963   0.076   4.194
 2451SOL    HW3 9835   0.813   0.056   4.182
 2451SOL    MW4 9836   0.881   0.102   4.211
 2452SOL     OW 9837   0.897   0.354   4.095
 2452SOL    HW2 9838   0.967   0.398   4.142
 2452SOL    HW3 9839   0.900   0.263   4.126
 2452SOL    MW4 9840   0.906   0.348   4.105
 2453SOL     OW 9841   1.103   0.480   4.233
 2453SOL    HW2 9842   1.067   0.483   4.322
 2453SOL    HW3 9843   1.183   0.428   4.242
 2453SOL    MW4 9844   1.109   0.473   4.246
 2454SOL     OW 9845   1.132   0.748   4.152
 2454SOL    HW2 9846   1.203   0.778   4.209
 2454SOL    HW3 9847   1.118   0.657   4.177
 2454SOL    MW4 9848   1.139   0.740   4.163
 2455SOL     OW 9849   0.897   0.904   4.239
 2455SOL    HW2 9850   0.972   0.867   4.194
 2455SOL    HW3 9851   0.827   0.839   4.229
 2455SOL    MW4 9852   0.897   0.891   4.232
 2456SOL     OW 9853   0.873   1.169   4.150
 2456SOL    HW2 9854   0.862   1.083   4.190
 2456SOL    HW3 9855   0.808   1.224   4.194
 2456SOL    MW4 9856   0.863   1.165   4.161
 2457SOL     OW 9857   1.132   1.252   4.224
 2457SOL    HW2 9858   1.137   1.272   4.318
 2457SOL    HW3 9859   1.039   1.233   4.209
 2457SOL    MW4 9860   1.120   1.252   4.235
 2458SOL     OW 9861   1.136   1.551   4.127
 2458SOL    HW2 9862   1.065   1.589   4.180
 2458SOL    HW3 9863   1.139   1.459   4.154
 2458SOL    MW4 9864   1.127   1.544   4.137
 2459SOL     OW 9865   0.927   1.680   4.245
 2459SOL    HW2 9866   0.906   1.704   4.335
 2459SOL    HW3 9867   0.924   1.763   4.197
 2459SOL    MW4 9868   0.924   1.694   4.250
 2460SOL     OW 9869   0.867   1.903   4.097
 2460SOL    HW2 9870   0.809   1.971   4.131
 2460SOL    HW3 9871   0.883   1.928   4.006
 2460SOL    MW4 9872   0.861   1.915   4.090
 2461SOL     OW 9873   1.091   2.063   4.168
 2461SOL    HW2 9874   1.113   2.056   4.261
 2461SOL    HW3 9875   1.027   1.994   4.153
 2461SOL    MW4 9876   1.085   2.053   4.179
 2462SOL     OW 9877   1.085   2.339   4.127
 2462SOL    HW2 9878   1.166   2.371   4.168
 2462SOL    HW3 9879   1.085   2.245   4.144
 2462SOL    MW4 9880   1.096   2.331   4.135
 2463SOL     OW 9881   0.855   2.462   4.245
 2463SOL    HW2 9882   0.930   2.412   4.212
 2463SOL    HW3 9883   0.779   2.425   4.200
 2463SOL    MW4 9884   0.855   2.451   4.235
 2464SOL     OW 9885   0.847   2.703   4.088
 2464SOL    HW2 9886   0.856   2.629   4.147
 2464SOL    HW3 9887   0.771   2.751   4.119
 2464SOL    MW4 9888   0.838   2.700   4.100
 2465SOL     OW 9889   1.080   2.796   4.197
 2465SOL    HW2 9890   1.085   2.891   4.199
 2465SOL    HW3 9891   0.995   2.777   4.158
 2465SOL    MW4 9892   1.069   2.806   4.192
 2466SOL     OW 9893   1.066   3.079   4.218
 2466SOL    HW2 9894   1.145   3.109   4.263
 2466SOL    HW3 9895   1.088   3.086   4.125
 2466SOL    MW4 9896   1.079   3.084   4.212
 2467SOL     OW 9897   0.835   3.224   4.249
 2467SOL    HW2 9898   0.807   3.207   4.339
 2467SOL    HW3 9899   0.905   3.160   4.234
 2467SOL    MW4 9900   0.841   3.213   4.259
 2468SOL     OW 9901   0.896   3.473   4.138
 2468SOL    HW2 9902   0.891   3.384   4.173
 2468SOL    HW3 9903   0.895   3.462   4.043
 2468SOL    MW4 9904   0.895   3.459   4.130
 2469SOL     OW 9905   1.110   3.594   4.247
 2469SOL    HW2 9906   1.113   3.677   4.198
 2469SOL    HW3 9907   1.027   3.554   4.222
 2469SOL    MW4 9908   1.100   3.600   4.237
 2470SOL     OW 9909   1.188   3.846   4.123
 2470SOL    HW2 9910   1.267   3.884   4.160
 2470SOL    HW3 9911   1.117   3.901   4.156
 2470SOL    MW4 9912   1.189   3.858   4.132
 2471SOL     OW 9913   0.976   3.992   4.247
 2471SOL    HW2 9914   0.975   4.084   4.219
 2471SOL    HW3 9915   0.893   3.957   4.216
 2471SOL    MW4 9916   0.965   4.000   4.239
 2472SOL     OW 9917   0.919   4.274   4.179
 2472SOL    HW2 9918   0.975   4.342   4.217
 2472SOL    HW3 9919   0.831   4.296   4.208
 2472SOL    MW4 9920   0.915   4.286   4.188
 2473SOL     OW 9921   1.151   4.411   4.237
 2473SOL    HW2 9922   1.206   4.433   4.313
 2473SOL    HW3 9923   1.205   4.351   4.185
 2473SOL    MW4 9924   1.165   4.406   4.240
 2474SOL     OW 9925   1.554   4.605   4.159
 2474SOL    HW2 9926   1.637   4.646   4.185
 2474SOL    HW3 9927   1.486   4.661   4.197
 2474SOL    MW4 9928   1.556   4.618   4.168
 2475SOL     OW 9929   1.365   0.079   4.280
 2475SOL    HW2 9930   1.348   0.083   4.373
 2475SOL    HW3 9931   1.282   0.052   4.241
 2475SOL    MW4 9932   1.352   0.076   4.287
 2476SOL     OW 9933   1.358   0.335   4.199
 2476SOL    HW2 9934   1.426   0.384   4.245
 2476SOL    HW3 9935   1.371   0.244   4.227
 2476SOL    MW4 9936   1.369   0.329   4.208
 2477SOL     OW 9937   1.542   0.466   4.326
 2477SOL    HW2 9938   1.517   0.462   4.418
 2477SOL    HW3 9939   1.563   0.558   4.311
 2477SOL    MW4 9940   1.541   0.477   4.336
 2478SOL     OW 9941   1.569   0.719   4.206
 2478SOL    HW2 9942   1.653   0.731   4.251
 2478SOL    HW3 9943   1.585   0.746   4.116
 2478SOL    MW4 9944   1.582   0.725   4.200
 2479SOL     OW 9945   1.328   0.896   4.282
 2479SOL    HW2 9946   1.327   0.972   4.225
 2479SOL    HW3 9947   1.409   0.849   4.260
 2479SOL    MW4 9948   1.338   0.900   4.272
 2480SOL     OW 9949   1.347   1.129   4.121
 2480SOL    HW2 9950   1.265   1.160   4.160
 2480SOL    HW3 9951   1.329   1.130   4.026
 2480SOL    MW4 9952   1.334   1.133   4.113
 2481SOL     OW 9953   1.610   1.339   4.353
 2481SOL    HW2 9954   1.681   1.318   4.414
 2481SOL    HW3 9955   1.534   1.294   4.389
 2481SOL    MW4 9956   1.609   1.330   4.366
 2482SOL     OW 9957   1.535   1.511   4.129
 2482SOL    HW2 9958   1.472   1.565   4.177
 2482SOL    HW3 9959   1.552   1.437   4.187
 2482SOL    MW4 9960   1.529   1.508   4.143
 2483SOL     OW 9961   1.352   1.644   4.272
 2483SOL    HW2 9962   1.361   1.735   4.242
 2483SOL    HW3 9963   1.286   1.606   4.213
 2483SOL    MW4 9964   1.345   1.651   4.260
 2484SOL     OW 9965   1.330   1.904   4.144
 2484SOL    HW2 9966   1.389   1.973   4.174
 2484SOL    HW3 9967   1.243   1.944   4.150
 2484SOL    MW4 9968   1.326   1.919   4.149
 2485SOL     OW 9969   1.551   2.065   4.262
 2485SOL    HW2 9970   1.597   2.002   4.206
 2485SOL    HW3 9971   1.560   2.149   4.217
 2485SOL    MW4 9972   1.558   2.067   4.248
 2486SOL     OW 9973   1.569   2.316   4.145
 2486SOL    HW2 9974   1.645   2.371   4.162
 2486SOL    HW3 9975   1.551   2.327   4.052
 2486SOL    MW4 9976   1.577   2.325   4.135
 2487SOL     OW 9977   1.504   2.834   4.332
 2487SOL    HW2 9978   1.479   2.880   4.412
 2487SOL    HW3 9979   1.571   2.772   4.361
 2487SOL    MW4 9980   1.510   2.832   4.346
 2488SOL     OW 9981   1.331   2.684   4.151
 2488SOL    HW2 9982   1.393   2.723   4.214
 2488SOL    HW3 9983   1.248   2.727   4.170
 2488SOL    MW4 9984   1.328   2.695   4.162
 2489SOL     OW 9985   1.570   2.301   4.735
 2489SOL    HW2 9986   1.606   2.368   4.794
 2489SOL    HW3 9987   1.646   2.268   4.687
 2489SOL    MW4 9988   1.584   2.306   4.737
 2490SOL     OW 9989   1.566   3.069   4.148
 2490SOL    HW2 9990   1.631   3.124   4.192
 2490SOL    HW3 9991   1.554   2.994   4.206
 2490SOL    MW4 9992   1.573   3.066   4.161
 2491SOL     OW 9993   1.328   3.197   4.233
 2491SOL    HW2 9994   1.405   3.151   4.201
 2491SOL    HW3 9995   1.341   3.288   4.206
 2491SOL    MW4 9996   1.340   3.203   4.225
 2492SOL     OW 9997   1.348   3.465   4.159
 2492SOL    HW2 9998   1.263   3.499   4.187
 2492SOL    HW3 9999   1.347   3.475   4.064
 2492SOL    MW410000   1.336   3.471   4.150
 2493SOL     OW10001   1.605   3.559   4.232
 2493SOL    HW210002   1.597   3.566   4.328
 2493SOL    HW310003   1.522   3.521   4.205
 2493SOL    MW410004   1.593   3.555   4.241
 2494SOL     OW10005   1.618   3.837   4.155
 2494SOL    HW210006   1.537   3.880   4.181
 2494SOL    HW310007   1.610   3.748   4.191
 2494SOL    MW410008   1.606   3.831   4.163
 2495SOL     OW10009   1.399   3.951   4.256
 2495SOL    HW210010   1.415   3.934   4.349
 2495SOL    HW310011   1.374   4.043   4.252
 2495SOL    MW410012   1.398   3.961   4.268
 2496SOL     OW10013   1.315   4.218   4.136
 2496SOL    HW210014   1.399   4.253   4.167
 2496SOL    HW310015   1.320   4.227   4.041
 2496SOL    MW410016   1.327   4.224   4.127
 2497SOL     OW10017   1.554   4.339   4.249
 2497SOL    HW210018   1.549   4.431   4.223
 2497SOL    HW310019   1.624   4.302   4.196
 2497SOL    MW410020   1.563   4.346   4.239
 2498SOL     OW10021   2.008   4.627   4.164
 2498SOL    HW210022   1.929   4.676   4.186
 2498SOL    HW310023   2.004   4.617   4.069
 2498SOL    MW410024   1.997   4.632   4.154
 2499SOL     OW10025   1.782   0.086   4.239
 2499SOL    HW210026   1.794   0.081   4.334
 2499SOL    HW310027   1.765   0.178   4.222
 2499SOL    MW410028   1.782   0.097   4.249
 2500SOL     OW10029   1.735   0.348   4.192
 2500SOL    HW210030   1.822   0.386   4.204
 2500SOL    HW310031   1.678   0.401   4.247
 2500SOL    MW410032   1.739   0.360   4.201
 2501SOL     OW10033   2.001   0.507   4.267
 2501SOL    HW210034   1.981   0.445   4.337
 2501SOL    HW310035   2.085   0.476   4.231
 2501SOL    MW410036   2.010   0.495   4.271
 2502SOL     OW10037   2.041   0.767   4.147
 2502SOL    HW210038   2.116   0.806   4.193
 2502SOL    HW310039   2.037   0.677   4.180
 2502SOL    MW410040   2.050   0.760   4.158
 2503SOL     OW10041   1.817   0.868   4.272
 2503SOL    HW210042   1.773   0.932   4.216
 2503SOL    HW310043   1.889   0.835   4.219
 2503SOL    MW410044   1.821   0.872   4.258
 2504SOL     OW10045   1.616   1.089   4.147
 2504SOL    HW210046   1.645   1.152   4.214
 2504SOL    HW310047   1.521   1.101   4.143
 2504SOL    MW410048   1.607   1.099   4.156
 2505SOL     OW10049   1.966   1.200   4.247
 2505SOL    HW210050   2.049   1.158   4.226
 2505SOL    HW310051   1.972   1.288   4.209
 2505SOL    MW410052   1.978   1.206   4.239
 2506SOL     OW10053   2.009   1.464   4.128
 2506SOL    HW210054   2.084   1.510   4.165
 2506SOL    HW310055   2.023   1.465   4.033
 2506SOL    MW410056   2.021   1.470   4.120
 2507SOL     OW10057   1.785   1.646   4.155
 2507SOL    HW210058   1.854   1.581   4.143
 2507SOL    HW310059   1.704   1.596   4.148
 2507SOL    MW410060   1.783   1.631   4.152
 2508SOL     OW10061   1.741   1.905   4.118
 2508SOL    HW210062   1.761   1.817   4.148
 2508SOL    HW310063   1.803   1.961   4.164
 2508SOL    MW410064   1.752   1.901   4.128
 2509SOL     OW10065   1.817   2.458   4.229
 2509SOL    HW210066   1.878   2.529   4.209
 2509SOL    HW310067   1.872   2.385   4.257
 2509SOL    MW410068   1.832   2.458   4.230
 2510SOL     OW10069   2.475   2.313   4.172
 2510SOL    HW210070   2.428   2.237   4.207
 2510SOL    HW310071   2.471   2.303   4.077
 2510SOL    MW410072   2.469   2.302   4.164
 2511SOL     OW10073   1.838   2.910   4.393
 2511SOL    HW210074   1.843   2.904   4.298
 2511SOL    HW310075   1.928   2.901   4.423
 2511SOL    MW410076   1.850   2.908   4.384
 2512SOL     OW10077   1.868   2.876   4.127
 2512SOL    HW210078   1.917   2.797   4.148
 2512SOL    HW310079   1.933   2.937   4.093
 2512SOL    MW410080   1.883   2.874   4.126
 2513SOL     OW10081   1.991   3.187   4.347
 2513SOL    HW210082   2.016   3.107   4.394
 2513SOL    HW310083   2.027   3.175   4.259
 2513SOL    MW410084   1.999   3.175   4.341
 2514SOL     OW10085   2.257   2.873   4.115
 2514SOL    HW210086   2.346   2.905   4.131
 2514SOL    HW310087   2.234   2.827   4.196
 2514SOL    MW410088   2.266   2.871   4.128
 2515SOL     OW10089   1.739   3.240   4.267
 2515SOL    HW210090   1.763   3.285   4.186
 2515SOL    HW310091   1.822   3.207   4.303
 2515SOL    MW410092   1.753   3.242   4.261
 2516SOL     OW10093   1.814   3.447   4.094
 2516SOL    HW210094   1.739   3.498   4.126
 2516SOL    HW310095   1.813   3.459   3.999
 2516SOL    MW410096   1.804   3.455   4.086
 2517SOL     OW10097   2.039   3.611   4.230
 2517SOL    HW210098   2.039   3.701   4.198
 2517SOL    HW310099   1.966   3.569   4.185
 2517SOL    MW410100   2.030   3.617   4.220
 2518SOL     OW10101   2.060   3.879   4.147
 2518SOL    HW210102   1.977   3.917   4.173
 2518SOL    HW310103   2.061   3.887   4.052
 2518SOL    MW410104   2.049   3.885   4.138
 2519SOL     OW10105   1.833   3.978   4.244
 2519SOL    HW210106   1.821   4.062   4.201
 2519SOL    HW310107   1.754   3.928   4.224
 2519SOL    MW410108   1.821   3.982   4.236
 2520SOL     OW10109   1.762   4.217   4.128
 2520SOL    HW210110   1.827   4.279   4.160
 2520SOL    HW310111   1.778   4.212   4.034
 2520SOL    MW410112   1.772   4.225   4.120
 2521SOL     OW10113   1.976   4.362   4.236
 2521SOL    HW210114   1.972   4.344   4.329
 2521SOL    HW310115   1.977   4.458   4.230
 2521SOL    MW410116   1.975   4.372   4.247
 2522SOL     OW10117   2.424   4.647   4.085
 2522SOL    HW210118   2.511   4.672   4.117
 2522SOL    HW310119   2.405   4.564   4.128
 2522SOL    MW410120   2.433   4.639   4.095
 2523SOL     OW10121   2.241   0.102   4.257
 2523SOL    HW210122   2.313   0.068   4.204
 2523SOL    HW310123   2.162   0.064   4.218
 2523SOL    MW410124   2.240   0.093   4.245
 2524SOL     OW10125   2.205   0.350   4.155
 2524SOL    HW210126   2.220   0.264   4.195
 2524SOL    HW310127   2.199   0.332   4.061
 2524SOL    MW410128   2.206   0.336   4.148
 2525SOL     OW10129   2.428   0.488   4.233
 2525SOL    HW210130   2.419   0.466   4.325
 2525SOL    HW310131   2.354   0.445   4.190
 2525SOL    MW410132   2.417   0.480   4.239
 2526SOL     OW10133   2.481   0.750   4.172
 2526SOL    HW210134   2.450   0.661   4.185
 2526SOL    HW310135   2.503   0.755   4.079
 2526SOL    MW410136   2.480   0.739   4.162
 2527SOL     OW10137   2.249   0.874   4.313
 2527SOL    HW210138   2.263   0.843   4.403
 2527SOL    HW310139   2.322   0.838   4.264
 2527SOL    MW410140   2.260   0.865   4.319
 2528SOL     OW10141   2.207   1.090   4.140
 2528SOL    HW210142   2.280   1.144   4.170
 2528SOL    HW310143   2.204   1.017   4.201
 2528SOL    MW410144   2.216   1.087   4.152
 2529SOL     OW10145   2.418   1.297   4.190
 2529SOL    HW210146   2.403   1.279   4.283
 2529SOL    HW310147   2.507   1.264   4.174
 2529SOL    MW410148   2.428   1.290   4.200
 2530SOL     OW10149   2.427   1.547   4.050
 2530SOL    HW210150   2.432   1.454   4.070
 2530SOL    HW310151   2.416   1.551   3.955
 2530SOL    MW410152   2.426   1.536   4.040
 2531SOL     OW10153   2.201   1.663   4.184
 2531SOL    HW210154   2.278   1.645   4.131
 2531SOL    HW310155   2.181   1.755   4.169
 2531SOL    MW410156   2.208   1.673   4.175
 2532SOL     OW10157   2.159   1.946   4.140
 2532SOL    HW210158   2.235   1.984   4.185
 2532SOL    HW310159   2.083   1.987   4.182
 2532SOL    MW410160   2.159   1.957   4.151
 2533SOL     OW10161   2.388   2.062   4.241
 2533SOL    HW210162   2.380   2.051   4.336
 2533SOL    HW310163   2.474   2.027   4.219
 2533SOL    MW410164   2.398   2.056   4.251
 2534SOL     OW10165   2.728   2.534   4.308
 2534SOL    HW210166   2.686   2.467   4.362
 2534SOL    HW310167   2.766   2.596   4.371
 2534SOL    MW410168   2.727   2.533   4.323
 2535SOL     OW10169   2.358   2.456   4.597
 2535SOL    HW210170   2.329   2.480   4.509
 2535SOL    HW310171   2.351   2.537   4.647
 2535SOL    MW410172   2.353   2.470   4.592
 2536SOL     OW10173   2.008   2.662   4.204
 2536SOL    HW210174   2.074   2.706   4.258
 2536SOL    HW310175   2.059   2.620   4.135
 2536SOL    MW410176   2.023   2.662   4.202
 2537SOL     OW10177   2.498   2.733   4.391
 2537SOL    HW210178   2.485   2.641   4.368
 2537SOL    HW310179   2.410   2.765   4.410
 2537SOL    MW410180   2.485   2.725   4.391
 2538SOL     OW10181   2.296   3.215   4.134
 2538SOL    HW210182   2.207   3.193   4.107
 2538SOL    HW310183   2.302   3.184   4.225
 2538SOL    MW410184   2.285   3.208   4.143
 2539SOL     OW10185   2.065   3.085   4.085
 2539SOL    HW210186   2.046   3.100   3.992
 2539SOL    HW310187   2.128   3.013   4.085
 2539SOL    MW410188   2.071   3.077   4.073
 2540SOL     OW10189   2.276   3.500   4.129
 2540SOL    HW210190   2.290   3.408   4.150
 2540SOL    HW310191   2.199   3.525   4.180
 2540SOL    MW410192   2.268   3.491   4.138
 2541SOL     OW10193   2.517   3.624   4.230
 2541SOL    HW210194   2.430   3.599   4.197
 2541SOL    HW310195   2.529   3.714   4.201
 2541SOL    MW410196   2.507   3.632   4.222
 2542SOL     OW10197   2.484   3.888   4.144
 2542SOL    HW210198   2.555   3.947   4.171
 2542SOL    HW310199   2.493   3.881   4.049
 2542SOL    MW410200   2.494   3.895   4.135
 2543SOL     OW10201   2.258   4.035   4.232
 2543SOL    HW210202   2.341   4.000   4.200
 2543SOL    HW310203   2.193   3.968   4.211
 2543SOL    MW410204   2.261   4.022   4.225
 2544SOL     OW10205   2.193   4.266   4.095
 2544SOL    HW210206   2.210   4.183   4.140
 2544SOL    HW310207   2.118   4.303   4.141
 2544SOL    MW410208   2.185   4.260   4.107
 2545SOL     OW10209   2.391   4.408   4.199
 2545SOL    HW210210   2.462   4.347   4.179
 2545SOL    HW310211   2.313   4.364   4.167
 2545SOL    MW410212   2.390   4.394   4.192
 2546SOL     OW10213   2.878   0.006   4.159
 2546SOL    HW210214   2.962   0.021   4.203
 2546SOL    HW310215   2.874  -0.089   4.145
 2546SOL    MW410216   2.888  -0.005   4.163
 2547SOL     OW10217   2.637   0.110   4.206
 2547SOL    HW210218   2.655   0.201   4.184
 2547SOL    HW310219   2.720   0.065   4.188
 2547SOL    MW410220   2.651   0.116   4.201
 2548SOL     OW10221   2.671   0.379   4.192
 2548SOL    HW210222   2.579   0.405   4.206
 2548SOL    HW310223   2.681   0.380   4.097
 2548SOL    MW410224   2.660   0.383   4.181
 2549SOL     OW10225   3.230   0.728   4.053
 2549SOL    HW210226   3.279   0.698   4.129
 2549SOL    HW310227   3.146   0.759   4.089
 2549SOL    MW410228   3.225   0.728   4.068
 2550SOL     OW10229   2.975   0.847   4.119
 2550SOL    HW210230   3.000   0.936   4.145
 2550SOL    HW310231   2.935   0.857   4.033
 2550SOL    MW410232   2.973   0.860   4.111
 2551SOL     OW10233   2.661   0.951   4.297
 2551SOL    HW210234   2.745   0.917   4.329
 2551SOL    HW310235   2.625   0.880   4.244
 2551SOL    MW410236   2.668   0.937   4.294
 2552SOL     OW10237   2.674   1.191   4.158
 2552SOL    HW210238   2.680   1.103   4.196
 2552SOL    HW310239   2.668   1.175   4.064
 2552SOL    MW410240   2.674   1.177   4.151
 2553SOL     OW10241   2.905   1.303   4.250
 2553SOL    HW210242   2.974   1.247   4.216
 2553SOL    HW310243   2.824   1.263   4.218
 2553SOL    MW410244   2.903   1.291   4.241
 2554SOL     OW10245   2.840   1.559   4.158
 2554SOL    HW210246   2.918   1.604   4.190
 2554SOL    HW310247   2.849   1.469   4.191
 2554SOL    MW410248   2.852   1.553   4.167
 2555SOL     OW10249   2.617   1.710   4.198
 2555SOL    HW210250   2.705   1.681   4.175
 2555SOL    HW310251   2.559   1.658   4.142
 2555SOL    MW410252   2.621   1.699   4.188
 2556SOL     OW10253   2.642   1.983   4.140
 2556SOL    HW210254   2.632   1.898   4.183
 2556SOL    HW310255   2.649   1.962   4.047
 2556SOL    MW410256   2.642   1.969   4.134
 2557SOL     OW10257   2.867   2.092   4.232
 2557SOL    HW210258   2.860   2.185   4.211
 2557SOL    HW310259   2.792   2.051   4.187
 2557SOL    MW410260   2.856   2.099   4.223
 2558SOL     OW10261   2.882   2.363   4.182
 2558SOL    HW210262   2.971   2.399   4.181
 2558SOL    HW310263   2.828   2.434   4.217
 2558SOL    MW410264   2.886   2.377   4.187
 2559SOL     OW10265   2.728   2.808   4.139
 2559SOL    HW210266   2.649   2.859   4.155
 2559SOL    HW310267   2.728   2.742   4.208
 2559SOL    MW410268   2.717   2.806   4.150
 2560SOL     OW10269   2.517   2.975   4.211
 2560SOL    HW210270   2.496   2.919   4.285
 2560SOL    HW310271   2.563   3.050   4.249
 2560SOL    MW410272   2.521   2.977   4.225
 2561SOL     OW10273   2.972   2.953   4.064
 2561SOL    HW210274   2.890   2.911   4.090
 2561SOL    HW310275   2.951   2.995   3.980
 2561SOL    MW410276   2.958   2.953   4.056
 2562SOL     OW10277   2.948   3.132   4.273
 2562SOL    HW210278   2.930   3.071   4.344
 2562SOL    HW310279   2.969   3.077   4.197
 2562SOL    MW410280   2.949   3.117   4.272
 2563SOL     OW10281   2.657   3.189   4.297
 2563SOL    HW210282   2.645   3.249   4.371
 2563SOL    HW310283   2.751   3.171   4.296
 2563SOL    MW410284   2.668   3.194   4.307
 2564SOL     OW10285   2.671   3.414   4.109
 2564SOL    HW210286   2.655   3.347   4.175
 2564SOL    HW310287   2.618   3.489   4.138
 2564SOL    MW410288   2.662   3.415   4.121
 2565SOL     OW10289   2.868   3.622   4.162
 2565SOL    HW210290   2.869   3.633   4.257
 2565SOL    HW310291   2.812   3.546   4.147
 2565SOL    MW410292   2.861   3.614   4.173
 2566SOL     OW10293   2.871   3.895   4.099
 2566SOL    HW210294   2.963   3.919   4.108
 2566SOL    HW310295   2.866   3.804   4.128
 2566SOL    MW410296   2.883   3.886   4.104
 2567SOL     OW10297   2.699   4.047   4.248
 2567SOL    HW210298   2.703   4.141   4.227
 2567SOL    HW310299   2.767   4.008   4.195
 2567SOL    MW410300   2.708   4.055   4.238
 2568SOL     OW10301   2.652   4.302   4.115
 2568SOL    HW210302   2.734   4.350   4.129
 2568SOL    HW310303   2.648   4.287   4.021
 2568SOL    MW410304   2.662   4.306   4.105
 2569SOL     OW10305   2.891   4.401   4.173
 2569SOL    HW210306   2.882   4.403   4.269
 2569SOL    HW310307   2.977   4.362   4.159
 2569SOL    MW410308   2.901   4.396   4.184
 2570SOL     OW10309   3.403   4.644   4.175
 2570SOL    HW210310   3.480   4.675   4.223
 2570SOL    HW310311   3.391   4.554   4.205
 2570SOL    MW410312   3.411   4.636   4.185
 2571SOL     OW10313   3.137   0.049   4.235
 2571SOL    HW210314   3.120   0.060   4.329
 2571SOL    HW310315   3.229   0.025   4.230
 2571SOL    MW410316   3.147   0.047   4.247
 2572SOL     OW10317   3.164   0.305   4.146
 2572SOL    HW210318   3.152   0.214   4.174
 2572SOL    HW310319   3.112   0.356   4.209
 2572SOL    MW410320   3.155   0.300   4.158
 2573SOL     OW10321   3.379   0.329   4.321
 2573SOL    HW210322   3.457   0.305   4.270
 2573SOL    HW310323   3.308   0.328   4.257
 2573SOL    MW410324   3.380   0.326   4.306
 2574SOL     OW10325   3.373   0.635   4.268
 2574SOL    HW210326   3.307   0.668   4.329
 2574SOL    HW310327   3.366   0.540   4.274
 2574SOL    MW410328   3.363   0.627   4.277
 2575SOL     OW10329   3.172   0.647   4.494
 2575SOL    HW210330   3.228   0.591   4.547
 2575SOL    HW310331   3.121   0.586   4.440
 2575SOL    MW410332   3.173   0.631   4.494
 2576SOL     OW10333   3.099   1.111   4.151
 2576SOL    HW210334   3.184   1.113   4.194
 2576SOL    HW310335   3.119   1.130   4.059
 2576SOL    MW410336   3.113   1.113   4.144
 2577SOL     OW10337   3.368   1.112   4.260
 2577SOL    HW210338   3.431   1.071   4.320
 2577SOL    HW310339   3.358   1.201   4.293
 2577SOL    MW410340   3.375   1.118   4.272
 2578SOL     OW10341   3.320   1.378   4.327
 2578SOL    HW210342   3.321   1.448   4.262
 2578SOL    HW310343   3.386   1.403   4.391
 2578SOL    MW410344   3.329   1.390   4.327
 2579SOL     OW10345   3.080   1.707   4.233
 2579SOL    HW210346   3.078   1.722   4.328
 2579SOL    HW310347   3.085   1.795   4.195
 2579SOL    MW410348   3.080   1.721   4.241
 2580SOL     OW10349   3.111   1.966   4.162
 2580SOL    HW210350   3.187   2.006   4.204
 2580SOL    HW310351   3.036   2.010   4.202
 2580SOL    MW410352   3.111   1.977   4.173
 2581SOL     OW10353   3.347   2.100   4.258
 2581SOL    HW210354   3.415   2.052   4.209
 2581SOL    HW310355   3.344   2.186   4.216
 2581SOL    MW410356   3.355   2.105   4.246
 2582SOL     OW10357   3.317   2.345   4.119
 2582SOL    HW210358   3.404   2.383   4.131
 2582SOL    HW310359   3.302   2.348   4.025
 2582SOL    MW410360   3.327   2.350   4.108
 2583SOL     OW10361   3.117   2.483   4.241
 2583SOL    HW210362   3.137   2.576   4.232
 2583SOL    HW310363   3.196   2.439   4.210
 2583SOL    MW410364   3.130   2.489   4.235
 2584SOL     OW10365   3.153   2.732   4.120
 2584SOL    HW210366   3.235   2.775   4.144
 2584SOL    HW310367   3.087   2.802   4.125
 2584SOL    MW410368   3.155   2.747   4.124
 2585SOL     OW10369   3.387   2.805   4.228
 2585SOL    HW210370   3.472   2.788   4.187
 2585SOL    HW310371   3.370   2.898   4.210
 2585SOL    MW410372   3.396   2.815   4.220
 2586SOL     OW10373   3.360   3.080   4.152
 2586SOL    HW210374   3.290   3.125   4.199
 2586SOL    HW310375   3.330   3.078   4.061
 2586SOL    MW410376   3.347   3.086   4.146
 2587SOL     OW10377   3.176   3.247   4.276
 2587SOL    HW210378   3.141   3.319   4.224
 2587SOL    HW310379   3.101   3.190   4.292
 2587SOL    MW410380   3.161   3.249   4.271
 2588SOL     OW10381   3.081   3.462   4.118
 2588SOL    HW210382   3.014   3.529   4.126
 2588SOL    HW310383   3.099   3.457   4.025
 2588SOL    MW410384   3.074   3.470   4.107
 2589SOL     OW10385   3.284   3.578   4.246
 2589SOL    HW210386   3.265   3.592   4.339
 2589SOL    HW310387   3.211   3.525   4.215
 2589SOL    MW410388   3.272   3.573   4.255
 2590SOL     OW10389   3.331   3.852   4.129
 2590SOL    HW210390   3.336   3.759   4.153
 2590SOL    HW310391   3.342   3.853   4.034
 2590SOL    MW410392   3.333   3.839   4.120
 2591SOL     OW10393   3.109   3.997   4.204
 2591SOL    HW210394   3.083   3.990   4.296
 2591SOL    HW310395   3.175   3.929   4.192
 2591SOL    MW410396   3.115   3.987   4.215
 2592SOL     OW10397   3.152   4.258   4.140
 2592SOL    HW210398   3.221   4.296   4.194
 2592SOL    HW310399   3.145   4.168   4.169
 2592SOL    MW410400   3.160   4.251   4.151
 2593SOL     OW10401   3.358   4.388   4.256
 2593SOL    HW210402   3.370   4.409   4.348
 2593SOL    HW310403   3.443   4.353   4.228
 2593SOL    MW410404   3.371   4.387   4.264
 2594SOL     OW10405   3.888   4.613   4.188
 2594SOL    HW210406   3.934   4.686   4.230
 2594SOL    HW310407   3.885   4.637   4.096
 2594SOL    MW410408   3.894   4.625   4.182
 2595SOL     OW10409   3.661   0.060   4.288
 2595SOL    HW210410   3.634   0.138   4.241
 2595SOL    HW310411   3.740   0.031   4.242
 2595SOL    MW410412   3.668   0.066   4.276
 2596SOL     OW10413   3.617   0.297   4.151
 2596SOL    HW210414   3.678   0.370   4.163
 2596SOL    HW310415   3.584   0.308   4.062
 2596SOL    MW410416   3.621   0.308   4.141
 2597SOL     OW10417   3.786   0.483   4.274
 2597SOL    HW210418   3.778   0.452   4.364
 2597SOL    HW310419   3.749   0.571   4.276
 2597SOL    MW410420   3.780   0.491   4.286
 2598SOL     OW10421   3.766   0.851   4.081
 2598SOL    HW210422   3.722   0.935   4.073
 2598SOL    HW310423   3.791   0.828   3.991
 2598SOL    MW410424   3.764   0.859   4.068
 2599SOL     OW10425   3.648   0.720   4.282
 2599SOL    HW210426   3.557   0.696   4.263
 2599SOL    HW310427   3.677   0.768   4.204
 2599SOL    MW410428   3.640   0.723   4.269
 2600SOL     OW10429   3.614   1.091   4.077
 2600SOL    HW210430   3.529   1.092   4.122
 2600SOL    HW310431   3.598   1.133   3.993
 2600SOL    MW410432   3.601   1.097   4.072
 2601SOL     OW10433   3.805   1.260   4.216
 2601SOL    HW210434   3.737   1.196   4.194
 2601SOL    HW310435   3.794   1.276   4.309
 2601SOL    MW410436   3.794   1.254   4.225
 2602SOL     OW10437   3.759   1.532   4.128
 2602SOL    HW210438   3.765   1.443   4.163
 2602SOL    HW310439   3.830   1.579   4.172
 2602SOL    MW410440   3.769   1.526   4.139
 2603SOL     OW10441   3.565   1.968   4.119
 2603SOL    HW210442   3.563   1.947   4.025
 2603SOL    HW310443   3.558   1.882   4.162
 2603SOL    MW410444   3.564   1.954   4.112
 2604SOL     OW10445   3.326   1.601   4.141
 2604SOL    HW210446   3.314   1.560   4.055
 2604SOL    HW310447   3.242   1.644   4.159
 2604SOL    MW410448   3.313   1.601   4.132
 2605SOL     OW10449   3.810   2.062   4.199
 2605SOL    HW210450   3.819   2.051   4.294
 2605SOL    HW310451   3.730   2.013   4.177
 2605SOL    MW410452   3.800   2.054   4.209
 2606SOL     OW10453   3.835   2.331   4.141
 2606SOL    HW210454   3.842   2.239   4.168
 2606SOL    HW310455   3.823   2.326   4.046
 2606SOL    MW410456   3.835   2.318   4.132
 2607SOL     OW10457   3.592   2.455   4.184
 2607SOL    HW210458   3.591   2.483   4.275
 2607SOL    HW310459   3.673   2.405   4.175
 2607SOL    MW410460   3.603   2.452   4.195
 2608SOL     OW10461   3.646   2.735   4.113
 2608SOL    HW210462   3.637   2.644   4.139
 2608SOL    HW310463   3.634   2.735   4.018
 2608SOL    MW410464   3.643   2.723   4.104
 2609SOL     OW10465   3.835   2.894   4.245
 2609SOL    HW210466   3.849   2.873   4.337
 2609SOL    HW310467   3.759   2.841   4.219
 2609SOL    MW410468   3.827   2.884   4.253
 2610SOL     OW10469   3.795   3.134   4.097
 2610SOL    HW210470   3.802   3.046   4.133
 2610SOL    HW310471   3.799   3.122   4.002
 2610SOL    MW410472   3.797   3.121   4.089
 2611SOL     OW10473   3.568   3.223   4.234
 2611SOL    HW210474   3.641   3.187   4.183
 2611SOL    HW310475   3.493   3.169   4.209
 2611SOL    MW410476   3.568   3.211   4.224
 2612SOL     OW10477   3.566   3.486   4.167
 2612SOL    HW210478   3.567   3.394   4.194
 2612SOL    HW310479   3.481   3.519   4.196
 2612SOL    MW410480   3.555   3.478   4.174
 2613SOL     OW10481   3.799   3.592   4.277
 2613SOL    HW210482   3.867   3.547   4.227
 2613SOL    HW310483   3.723   3.534   4.272
 2613SOL    MW410484   3.798   3.578   4.270
 2614SOL     OW10485   3.813   3.856   4.182
 2614SOL    HW210486   3.729   3.901   4.190
 2614SOL    HW310487   3.793   3.765   4.203
 2614SOL    MW410488   3.799   3.850   4.186
 2615SOL     OW10489   3.562   3.983   4.210
 2615SOL    HW210490   3.561   4.000   4.304
 2615SOL    HW310491   3.478   3.943   4.191
 2615SOL    MW410492   3.551   3.980   4.220
 2616SOL     OW10493   3.583   4.255   4.188
 2616SOL    HW210494   3.670   4.283   4.218
 2616SOL    HW310495   3.579   4.162   4.208
 2616SOL    MW410496   3.594   4.247   4.194
 2617SOL     OW10497   3.833   4.359   4.262
 2617SOL    HW210498   3.911   4.321   4.222
 2617SOL    HW310499   3.838   4.452   4.242
 2617SOL    MW410500   3.844   4.366   4.254
 2618SOL     OW10501   4.240   0.028   4.188
 2618SOL    HW210502   4.262  -0.060   4.216
 2618SOL    HW310503   4.321   0.078   4.201
 2618SOL    MW410504   4.254   0.023   4.193
 2619SOL     OW10505   4.020   0.145   4.287
 2619SOL    HW210506   4.012   0.229   4.242
 2619SOL    HW310507   4.102   0.109   4.254
 2619SOL    MW410508   4.029   0.151   4.276
 2620SOL     OW10509   4.038   0.378   4.145
 2620SOL    HW210510   4.126   0.410   4.166
 2620SOL    HW310511   3.979   0.438   4.190
 2620SOL    MW410512   4.042   0.390   4.154
 2621SOL     OW10513   4.261   0.512   4.223
 2621SOL    HW210514   4.257   0.603   4.193
 2621SOL    HW310515   4.349   0.483   4.199
 2621SOL    MW410516   4.272   0.521   4.216
 2622SOL     OW10517   4.228   0.778   4.107
 2622SOL    HW210518   4.150   0.832   4.122
 2622SOL    HW310519   4.247   0.789   4.014
 2622SOL    MW410520   4.220   0.786   4.096
 2623SOL     OW10521   4.011   0.911   4.205
 2623SOL    HW210522   4.031   0.998   4.171
 2623SOL    HW310523   3.941   0.878   4.148
 2623SOL    MW410524   4.005   0.918   4.193
 2624SOL     OW10525   4.025   1.161   4.098
 2624SOL    HW210526   4.103   1.213   4.118
 2624SOL    HW310527   3.957   1.196   4.156
 2624SOL    MW410528   4.027   1.172   4.108
 2625SOL     OW10529   4.249   1.293   4.199
 2625SOL    HW210530   4.244   1.297   4.294
 2625SOL    HW310531   4.333   1.251   4.180
 2625SOL    MW410532   4.259   1.288   4.209
 2626SOL     OW10533   4.278   1.570   4.125
 2626SOL    HW210534   4.262   1.480   4.151
 2626SOL    HW310535   4.285   1.567   4.029
 2626SOL    MW410536   4.277   1.558   4.116
 2627SOL     OW10537   4.161   1.794   4.247
 2627SOL    HW210538   4.201   1.822   4.330
 2627SOL    HW310539   4.220   1.726   4.214
 2627SOL    MW410540   4.174   1.789   4.253
 2628SOL     OW10541   4.030   1.963   4.065
 2628SOL    HW210542   4.078   1.900   4.119
 2628SOL    HW310543   3.944   1.970   4.107
 2628SOL    MW410544   4.025   1.955   4.078
 2629SOL     OW10545   4.430   1.938   4.136
 2629SOL    HW210546   4.492   1.991   4.186
 2629SOL    HW310547   4.344   1.971   4.161
 2629SOL    MW410548   4.426   1.949   4.146
 2630SOL     OW10549   4.248   2.356   4.117
 2630SOL    HW210550   4.175   2.408   4.151
 2630SOL    HW310551   4.236   2.269   4.155
 2630SOL    MW410552   4.236   2.351   4.126
 2631SOL     OW10553   4.048   2.507   4.229
 2631SOL    HW210554   4.054   2.512   4.324
 2631SOL    HW310555   3.975   2.447   4.212
 2631SOL    MW410556   4.039   2.500   4.239
 2632SOL     OW10557   4.031   2.753   4.082
 2632SOL    HW210558   4.037   2.669   4.127
 2632SOL    HW310559   3.975   2.806   4.139
 2632SOL    MW410560   4.024   2.749   4.096
 2633SOL     OW10561   4.249   2.871   4.226
 2633SOL    HW210562   4.181   2.841   4.165
 2633SOL    HW310563   4.329   2.828   4.195
 2633SOL    MW410564   4.251   2.861   4.214
 2634SOL     OW10565   4.270   3.149   4.130
 2634SOL    HW210566   4.281   3.059   4.161
 2634SOL    HW310567   4.265   3.142   4.035
 2634SOL    MW410568   4.271   3.136   4.122
 2635SOL     OW10569   4.029   3.235   4.231
 2635SOL    HW210570   4.109   3.207   4.186
 2635SOL    HW310571   3.959   3.185   4.188
 2635SOL    MW410572   4.031   3.224   4.219
 2636SOL     OW10573   4.002   3.492   4.122
 2636SOL    HW210574   4.024   3.408   4.161
 2636SOL    HW310575   4.008   3.477   4.027
 2636SOL    MW410576   4.006   3.479   4.114
 2637SOL     OW10577   4.234   3.608   4.193
 2637SOL    HW210578   4.225   3.697   4.158
 2637SOL    HW310579   4.150   3.567   4.176
 2637SOL    MW410580   4.222   3.614   4.186
 2638SOL     OW10581   4.320   3.884   4.130
 2638SOL    HW210582   4.230   3.903   4.156
 2638SOL    HW310583   4.320   3.895   4.035
 2638SOL    MW410584   4.308   3.888   4.121
 2639SOL     OW10585   4.061   3.948   4.239
 2639SOL    HW210586   4.066   3.953   4.335
 2639SOL    HW310587   3.981   3.900   4.221
 2639SOL    MW410588   4.051   3.943   4.250
 2640SOL     OW10589   4.080   4.232   4.163
 2640SOL    HW210590   4.158   4.268   4.205
 2640SOL    HW310591   4.069   4.146   4.202
 2640SOL    MW410592   4.089   4.225   4.174
 2641SOL     OW10593   4.108   4.238   4.613
 2641SOL    HW210594   4.089   4.197   4.697
 2641SOL    HW310595   4.023   4.273   4.583
 2641SOL    MW410596   4.094   4.237   4.620
 2642SOL     OW10597   4.035   4.070   4.834
 2642SOL    HW210598   3.943   4.091   4.822
 2642SOL    HW310599   4.037   3.975   4.844
 2642SOL    MW410600   4.023   4.060   4.834
 2643SOL     OW10601   4.313   4.451   4.603
 2643SOL    HW210602   4.267   4.533   4.618
 2643SOL    HW310603   4.244   4.385   4.599
 2643SOL    MW410604   4.298   4.453   4.605
 2644SOL     OW10605   4.245   0.105   4.659
 2644SOL    HW210606   4.257   0.157   4.738
 2644SOL    HW310607   4.184   0.156   4.606
 2644SOL    MW410608   4.239   0.118   4.662
 2645SOL     OW10609   4.223   1.848   4.506
 2645SOL    HW210610   4.305   1.881   4.543
 2645SOL    HW310611   4.206   1.767   4.553
 2645SOL    MW410612   4.231   1.842   4.517
 2646SOL     OW10613   0.430   0.041   4.485
 2646SOL    HW210614   0.345   0.001   4.501
 2646SOL    HW310615   0.493  -0.031   4.495
 2646SOL    MW410616   0.427   0.026   4.488
 2647SOL     OW10617   0.256   0.795   4.609
 2647SOL    HW210618   0.274   0.704   4.583
 2647SOL    HW310619   0.261   0.795   4.704
 2647SOL    MW410620   0.259   0.783   4.618
 2648SOL     OW10621   4.290   0.796   4.555
 2648SOL    HW210622   4.321   0.706   4.557
 2648SOL    HW310623   4.366   0.848   4.583
 2648SOL    MW410624   4.304   0.791   4.559
 2649SOL     OW10625   0.737   1.415   4.523
 2649SOL    HW210626   0.759   1.506   4.504
 2649SOL    HW310627   0.647   1.419   4.555
 2649SOL    MW410628   0.728   1.427   4.525
 2650SOL     OW10629   1.190   2.021   4.457
 2650SOL    HW210630   1.285   2.015   4.466
 2650SOL    HW310631   1.161   2.068   4.535
 2650SOL    MW410632   1.199   2.026   4.468
 2651SOL     OW10633   4.202   1.241   4.480
 2651SOL    HW210634   4.176   1.149   4.479
 2651SOL    HW310635   4.294   1.241   4.507
 2651SOL    MW410636   4.210   1.229   4.483
 2652SOL     OW10637   0.110   1.694   4.507
 2652SOL    HW210638   0.082   1.694   4.416
 2652SOL    HW310639   0.072   1.774   4.544
 2652SOL    MW410640   0.101   1.705   4.500
 2653SOL     OW10641   0.455   1.722   4.233
 2653SOL    HW210642   0.382   1.664   4.211
 2653SOL    HW310643   0.533   1.674   4.206
 2653SOL    MW410644   0.455   1.708   4.226
 2654SOL     OW10645   0.002   1.910   4.609
 2654SOL    HW210646   0.054   1.978   4.566
 2654SOL    HW310647   0.038   1.905   4.698
 2654SOL    MW410648   0.013   1.918   4.615
 2655SOL     OW10649   4.271   2.291   4.517
 2655SOL    HW210650   4.366   2.301   4.524
 2655SOL    HW310651   4.237   2.380   4.527
 2655SOL    MW410652   4.279   2.304   4.519
 2656SOL     OW10653   0.659   2.985   4.623
 2656SOL    HW210654   0.672   2.918   4.556
 2656SOL    HW310655   0.713   2.956   4.696
 2656SOL    MW410656   0.668   2.972   4.624
 2657SOL     OW10657   0.366   3.031   4.586
 2657SOL    HW210658   0.460   3.014   4.592
 2657SOL    HW310659   0.359   3.125   4.575
 2657SOL    MW410660   0.377   3.041   4.585
 2658SOL     OW10661   0.053   2.355   4.464
 2658SOL    HW210662   0.018   2.385   4.380
 2658SOL    HW310663   0.124   2.417   4.484
 2658SOL    MW410664   0.058   2.367   4.455
 2659SOL     OW10665   4.095   3.483   4.606
 2659SOL    HW210666   4.072   3.393   4.584
 2659SOL    HW310667   4.052   3.499   4.690
 2659SOL    MW410668   4.087   3.473   4.614
 2660SOL     OW10669   0.408   3.314   4.490
 2660SOL    HW210670   0.486   3.361   4.517
 2660SOL    HW310671   0.336   3.377   4.501
 2660SOL    MW410672   0.408   3.328   4.495
 2661SOL     OW10673   4.254   3.794   4.623
 2661SOL    HW210674   4.214   3.859   4.565
 2661SOL    HW310675   4.301   3.734   4.565
 2661SOL    MW410676   4.255   3.795   4.608
 2662SOL     OW10677   0.011   0.150   4.519
 2662SOL    HW210678  -0.067   0.124   4.570
 2662SOL    HW310679   0.048   0.223   4.568
 2662SOL    MW410680   0.005   0.156   4.532
 2663SOL     OW10681   3.719   0.373   4.539
 2663SOL    HW210682   3.789   0.310   4.556
 2663SOL    HW310683   3.638   0.321   4.544
 2663SOL    MW410684   3.717   0.358   4.542
 2664SOL     OW10685   3.891   3.497   4.812
 2664SOL    HW210686   3.849   3.413   4.832
 2664SOL    HW310687   3.835   3.537   4.745
 2664SOL    MW410688   3.878   3.491   4.806
 2665SOL     OW10689   3.748   3.886   4.638
 2665SOL    HW210690   3.782   3.801   4.609
 2665SOL    HW310691   3.787   3.899   4.725
 2665SOL    MW410692   3.758   3.877   4.646
 2666SOL     OW10693   0.645   4.482   4.539
 2666SOL    HW210694   0.655   4.428   4.460
 2666SOL    HW310695   0.647   4.418   4.611
 2666SOL    MW410696   0.646   4.466   4.538
 2667SOL     OW10697   4.074   0.639   4.670
 2667SOL    HW210698   4.016   0.710   4.698
 2667SOL    HW310699   4.153   0.683   4.639
 2667SOL    MW410700   4.076   0.654   4.669
 2668SOL     OW10701   1.079   0.831   4.626
 2668SOL    HW210702   1.022   0.903   4.599
 2668SOL    HW310703   1.020   0.768   4.667
 2668SOL    MW410704   1.064   0.832   4.628
 2669SOL     OW10705   0.763   0.389   4.648
 2669SOL    HW210706   0.823   0.359   4.579
 2669SOL    HW310707   0.707   0.313   4.666
 2669SOL    MW410708   0.763   0.375   4.641
 2670SOL     OW10709   0.874   0.990   4.502
 2670SOL    HW210710   0.894   0.949   4.417
 2670SOL    HW310711   0.784   0.963   4.521
 2670SOL    MW410712   0.865   0.981   4.493
 2671SOL     OW10713   0.428   0.996   4.514
 2671SOL    HW210714   0.366   0.930   4.543
 2671SOL    HW310715   0.451   0.971   4.425
 2671SOL    MW410716   0.423   0.984   4.506
 2672SOL     OW10717   2.018   1.334   4.485
 2672SOL    HW210718   2.012   1.281   4.406
 2672SOL    HW310719   2.069   1.281   4.547
 2672SOL    MW410720   2.024   1.320   4.483
 2673SOL     OW10721   0.388   1.716   4.510
 2673SOL    HW210722   0.292   1.720   4.512
 2673SOL    HW310723   0.411   1.725   4.417
 2673SOL    MW410724   0.378   1.718   4.498
 2674SOL     OW10725   1.389   1.225   4.487
 2674SOL    HW210726   1.376   1.131   4.501
 2674SOL    HW310727   1.301   1.258   4.467
 2674SOL    MW410728   1.376   1.217   4.486
 2675SOL     OW10729   0.836   1.683   4.522
 2675SOL    HW210730   0.795   1.759   4.562
 2675SOL    HW310731   0.919   1.673   4.569
 2675SOL    MW410732   0.842   1.692   4.533
 2676SOL     OW10733   0.664   2.147   4.469
 2676SOL    HW210734   0.739   2.202   4.490
 2676SOL    HW310735   0.692   2.059   4.496
 2676SOL    MW410736   0.678   2.142   4.476
 2677SOL     OW10737   1.106   1.790   4.589
 2677SOL    HW210738   1.181   1.730   4.591
 2677SOL    HW310739   1.134   1.861   4.531
 2677SOL    MW410740   1.119   1.791   4.581
 2678SOL     OW10741   0.417   2.175   4.622
 2678SOL    HW210742   0.501   2.164   4.579
 2678SOL    HW310743   0.411   2.269   4.641
 2678SOL    MW410744   0.427   2.186   4.619
 2679SOL     OW10745   0.927   2.640   4.678
 2679SOL    HW210746   0.965   2.682   4.600
 2679SOL    HW310747   0.845   2.601   4.647
 2679SOL    MW410748   0.922   2.641   4.664
 2680SOL     OW10749   0.694   2.547   4.547
 2680SOL    HW210750   0.618   2.502   4.583
 2680SOL    HW310751   0.743   2.480   4.500
 2680SOL    MW410752   0.690   2.532   4.546
 2681SOL     OW10753   0.803   3.206   4.526
 2681SOL    HW210754   0.754   3.288   4.519
 2681SOL    HW310755   0.737   3.140   4.548
 2681SOL    MW410756   0.788   3.208   4.528
 2682SOL     OW10757   0.631   3.435   4.578
 2682SOL    HW210758   0.643   3.524   4.544
 2682SOL    HW310759   0.599   3.447   4.667
 2682SOL    MW410760   0.628   3.449   4.585
 2683SOL     OW10761   1.354   0.080   4.565
 2683SOL    HW210762   1.387  -0.003   4.601
 2683SOL    HW310763   1.423   0.144   4.586
 2683SOL    MW410764   1.368   0.077   4.572
 2684SOL     OW10765   0.257   2.554   4.483
 2684SOL    HW210766   0.317   2.566   4.409
 2684SOL    HW310767   0.219   2.641   4.497
 2684SOL    MW410768   0.260   2.567   4.475
 2685SOL     OW10769   4.486   3.355   4.494
 2685SOL    HW210770   4.417   3.420   4.506
 2685SOL    HW310771   4.491   3.342   4.400
 2685SOL    MW410772   4.478   3.362   4.483
 2686SOL     OW10773   1.362   3.433   4.532
 2686SOL    HW210774   1.454   3.427   4.509
 2686SOL    HW310775   1.333   3.342   4.538
 2686SOL    MW410776   1.370   3.420   4.530
 2687SOL     OW10777   0.111   4.450   4.741
 2687SOL    HW210778   0.132   4.452   4.834
 2687SOL    HW310779   0.016   4.461   4.737
 2687SOL    MW410780   0.101   4.452   4.753
 2688SOL     OW10781   0.003   3.961   4.576
 2688SOL    HW210782   0.061   3.886   4.568
 2688SOL    HW310783  -0.080   3.924   4.610
 2688SOL    MW410784  -0.001   3.946   4.580
 2689SOL     OW10785   0.170   4.583   4.503
 2689SOL    HW210786   0.115   4.661   4.498
 2689SOL    HW310787   0.142   4.539   4.583
 2689SOL    MW410788   0.159   4.588   4.513
 2690SOL     OW10789   0.592   0.169   4.651
 2690SOL    HW210790   0.662   0.103   4.655
 2690SOL    HW310791   0.528   0.131   4.591
 2690SOL    MW410792   0.593   0.155   4.643
 2691SOL     OW10793   1.266   4.456   4.519
 2691SOL    HW210794   1.355   4.422   4.527
 2691SOL    HW310795   1.219   4.420   4.594
 2691SOL    MW410796   1.271   4.447   4.530
 2692SOL     OW10797   0.594   0.561   4.515
 2692SOL    HW210798   0.628   0.536   4.430
 2692SOL    HW310799   0.644   0.508   4.577
 2692SOL    MW410800   0.605   0.550   4.512
 2693SOL     OW10801   1.368   0.926   4.555
 2693SOL    HW210802   1.343   0.907   4.465
 2693SOL    HW310803   1.291   0.904   4.607
 2693SOL    MW410804   1.355   0.921   4.550
 2694SOL     OW10805   1.611   0.862   4.661
 2694SOL    HW210806   1.524   0.877   4.625
 2694SOL    HW310807   1.610   0.906   4.746
 2694SOL    MW410808   1.599   0.870   4.667
 2695SOL     OW10809   0.292   1.249   4.492
 2695SOL    HW210810   0.335   1.165   4.508
 2695SOL    HW310811   0.357   1.314   4.521
 2695SOL    MW410812   0.307   1.246   4.498
 2696SOL     OW10813   0.933   1.946   4.772
 2696SOL    HW210814   0.972   2.033   4.764
 2696SOL    HW310815   0.994   1.888   4.727
 2696SOL    MW410816   0.946   1.950   4.765
 2697SOL     OW10817   0.929   1.238   4.643
 2697SOL    HW210818   0.863   1.298   4.607
 2697SOL    HW310819   0.904   1.152   4.610
 2697SOL    MW410820   0.917   1.235   4.634
 2698SOL     OW10821   1.779   1.193   4.545
 2698SOL    HW210822   1.795   1.103   4.515
 2698SOL    HW310823   1.862   1.239   4.528
 2698SOL    MW410824   1.792   1.187   4.539
 2699SOL     OW10825   1.143   1.335   4.487
 2699SOL    HW210826   1.068   1.312   4.542
 2699SOL    HW310827   1.172   1.419   4.521
 2699SOL    MW410828   1.137   1.343   4.499
 2700SOL     OW10829   1.105   2.412   4.650
 2700SOL    HW210830   1.057   2.485   4.689
 2700SOL    HW310831   1.193   2.446   4.635
 2700SOL    MW410832   1.110   2.426   4.653
 2701SOL     OW10833   1.638   2.522   4.910
 2701SOL    HW210834   1.718   2.542   4.959
 2701SOL    HW310835   1.613   2.605   4.871
 2701SOL    MW410836   1.645   2.536   4.912
 2702SOL     OW10837   1.450   2.965   4.573
 2702SOL    HW210838   1.453   2.884   4.625
 2702SOL    HW310839   1.540   2.998   4.574
 2702SOL    MW410840   1.462   2.959   4.580
 2703SOL     OW10841   1.644   3.348   4.503
 2703SOL    HW210842   1.666   3.284   4.570
 2703SOL    HW310843   1.672   3.308   4.420
 2703SOL    MW410844   1.651   3.334   4.501
 2704SOL     OW10845   0.747   2.811   4.426
 2704SOL    HW210846   0.842   2.807   4.432
 2704SOL    HW310847   0.717   2.729   4.466
 2704SOL    MW410848   0.755   2.800   4.432
 2705SOL     OW10849   0.397   4.084   4.649
 2705SOL    HW210850   0.337   4.134   4.594
 2705SOL    HW310851   0.342   4.018   4.691
 2705SOL    MW410852   0.382   4.082   4.648
 2706SOL     OW10853   1.026   2.781   4.470
 2706SOL    HW210854   1.054   2.776   4.379
 2706SOL    HW310855   1.029   2.874   4.491
 2706SOL    MW410856   1.030   2.792   4.461
 2707SOL     OW10857   0.881   2.917   4.767
 2707SOL    HW210858   0.906   2.825   4.753
 2707SOL    HW310859   0.939   2.966   4.709
 2707SOL    MW410860   0.892   2.911   4.758
 2708SOL     OW10861   1.653   3.637   4.505
 2708SOL    HW210862   1.742   3.671   4.495
 2708SOL    HW310863   1.664   3.553   4.549
 2708SOL    MW410864   1.666   3.631   4.510
 2709SOL     OW10865   0.478   3.875   4.463
 2709SOL    HW210866   0.470   3.944   4.529
 2709SOL    HW310867   0.461   3.920   4.380
 2709SOL    MW410868   0.475   3.890   4.461
 2710SOL     OW10869   0.226   3.794   4.579
 2710SOL    HW210870   0.218   3.700   4.563
 2710SOL    HW310871   0.304   3.820   4.530
 2710SOL    MW410872   0.235   3.785   4.570
 2711SOL     OW10873   0.830   0.026   4.484
 2711SOL    HW210874   0.839   0.040   4.390
 2711SOL    HW310875   0.770  -0.049   4.491
 2711SOL    MW410876   0.823   0.018   4.473
 2712SOL     OW10877   0.175   4.236   4.564
 2712SOL    HW210878   0.153   4.293   4.637
 2712SOL    HW310879   0.118   4.160   4.574
 2712SOL    MW410880   0.165   4.234   4.575
 2713SOL     OW10881   2.285   4.024   4.527
 2713SOL    HW210882   2.280   4.032   4.432
 2713SOL    HW310883   2.373   3.991   4.544
 2713SOL    MW410884   2.296   4.021   4.517
 2714SOL     OW10885   1.753   4.521   4.617
 2714SOL    HW210886   1.802   4.454   4.570
 2714SOL    HW310887   1.662   4.495   4.609
 2714SOL    MW410888   1.748   4.509   4.610
 2715SOL     OW10889   1.511   4.350   4.527
 2715SOL    HW210890   1.518   4.261   4.561
 2715SOL    HW310891   1.535   4.342   4.435
 2715SOL    MW410892   1.515   4.337   4.519
 2716SOL     OW10893   0.866   0.655   4.660
 2716SOL    HW210894   0.794   0.714   4.641
 2716SOL    HW310895   0.824   0.570   4.674
 2716SOL    MW410896   0.851   0.651   4.659
 2717SOL     OW10897   1.775   0.110   4.529
 2717SOL    HW210898   1.777   0.022   4.564
 2717SOL    HW310899   1.702   0.153   4.574
 2717SOL    MW410900   1.765   0.104   4.539
 2718SOL     OW10901   1.009   0.458   4.484
 2718SOL    HW210902   0.965   0.507   4.554
 2718SOL    HW310903   1.013   0.368   4.517
 2718SOL    MW410904   1.004   0.452   4.498
 2719SOL     OW10905   1.561   1.701   4.593
 2719SOL    HW210906   1.588   1.644   4.666
 2719SOL    HW310907   1.624   1.681   4.523
 2719SOL    MW410908   1.573   1.691   4.594
 2720SOL     OW10909   0.656   0.825   4.560
 2720SOL    HW210910   0.577   0.878   4.554
 2720SOL    HW310911   0.627   0.736   4.538
 2720SOL    MW410912   0.642   0.820   4.556
 2721SOL     OW10913   1.471   0.516   4.607
 2721SOL    HW210914   1.520   0.597   4.593
 2721SOL    HW310915   1.382   0.538   4.580
 2721SOL    MW410916   1.466   0.530   4.602
 2722SOL     OW10917   1.562   1.238   4.705
 2722SOL    HW210918   1.488   1.241   4.645
 2722SOL    HW310919   1.636   1.213   4.650
 2722SOL    MW410920   1.562   1.235   4.690
 2723SOL     OW10921   1.299   1.577   4.533
 2723SOL    HW210922   1.373   1.604   4.586
 2723SOL    HW310923   1.328   1.587   4.442
 2723SOL    MW410924   1.312   1.582   4.528
 2724SOL     OW10925   1.514   2.718   4.681
 2724SOL    HW210926   1.445   2.652   4.675
 2724SOL    HW310927   1.565   2.708   4.601
 2724SOL    MW410928   1.512   2.708   4.670
 2725SOL     OW10929   2.336   2.512   4.334
 2725SOL    HW210930   2.330   2.483   4.243
 2725SOL    HW310931   2.278   2.588   4.339
 2725SOL    MW410932   2.328   2.518   4.322
 2726SOL     OW10933   0.884   2.320   4.484
 2726SOL    HW210934   0.959   2.356   4.532
 2726SOL    HW310935   0.885   2.367   4.400
 2726SOL    MW410936   0.894   2.331   4.479
 2727SOL     OW10937   1.442   3.824   4.485
 2727SOL    HW210938   1.512   3.761   4.497
 2727SOL    HW310939   1.365   3.784   4.527
 2727SOL    MW410940   1.441   3.811   4.492
 2728SOL     OW10941   1.322   2.434   4.307
 2728SOL    HW210942   1.311   2.522   4.272
 2728SOL    HW310943   1.401   2.400   4.263
 2728SOL    MW410944   1.331   2.441   4.296
 2729SOL     OW10945   1.368   2.478   4.584
 2729SOL    HW210946   1.352   2.455   4.492
 2729SOL    HW310947   1.435   2.416   4.613
 2729SOL    MW410948   1.375   2.467   4.576
 2730SOL     OW10949   1.263   3.151   4.493
 2730SOL    HW210950   1.330   3.096   4.534
 2730SOL    HW310951   1.296   3.166   4.405
 2730SOL    MW410952   1.276   3.145   4.487
 2731SOL     OW10953   1.027   3.026   4.559
 2731SOL    HW210954   1.104   3.079   4.542
 2731SOL    HW310955   0.954   3.088   4.555
 2731SOL    MW410956   1.027   3.041   4.556
 2732SOL     OW10957   0.700   3.700   4.481
 2732SOL    HW210958   0.632   3.768   4.478
 2732SOL    HW310959   0.780   3.747   4.506
 2732SOL    MW410960   0.702   3.715   4.484
 2733SOL     OW10961   2.315   3.386   4.527
 2733SOL    HW210962   2.222   3.382   4.546
 2733SOL    HW310963   2.332   3.309   4.472
 2733SOL    MW410964   2.305   3.375   4.522
 2734SOL     OW10965   2.026   3.355   4.573
 2734SOL    HW210966   2.014   3.283   4.636
 2734SOL    HW310967   2.022   3.313   4.487
 2734SOL    MW410968   2.024   3.340   4.570
 2735SOL     OW10969   2.308   3.128   4.392
 2735SOL    HW210970   2.235   3.069   4.408
 2735SOL    HW310971   2.385   3.081   4.426
 2735SOL    MW410972   2.309   3.114   4.398
 2736SOL     OW10973   0.952   3.845   4.511
 2736SOL    HW210974   0.976   3.875   4.424
 2736SOL    HW310975   1.033   3.811   4.549
 2736SOL    MW410976   0.966   3.844   4.505
 2737SOL     OW10977   1.812   4.036   4.503
 2737SOL    HW210978   1.810   4.009   4.411
 2737SOL    HW310979   1.887   3.989   4.540
 2737SOL    MW410980   1.821   4.026   4.496
 2738SOL     OW10981   1.955   0.314   4.473
 2738SOL    HW210982   1.897   0.244   4.504
 2738SOL    HW310983   2.043   0.283   4.493
 2738SOL    MW410984   1.959   0.301   4.480
 2739SOL     OW10985   1.054   0.184   4.559
 2739SOL    HW210986   0.984   0.121   4.547
 2739SOL    HW310987   1.130   0.131   4.585
 2739SOL    MW410988   1.055   0.169   4.561
 2740SOL     OW10989   1.555   0.244   4.644
 2740SOL    HW210990   1.539   0.240   4.738
 2740SOL    HW310991   1.524   0.331   4.619
 2740SOL    MW410992   1.549   0.255   4.653
 2741SOL     OW10993   2.454   0.036   4.621
 2741SOL    HW210994   2.428  -0.051   4.590
 2741SOL    HW310995   2.374   0.088   4.617
 2741SOL    MW410996   2.440   0.031   4.616
 2742SOL     OW10997   1.850   0.896   4.541
 2742SOL    HW210998   1.759   0.881   4.564
 2742SOL    HW310999   1.852   0.884   4.446
 2742SOL    MW411000   1.838   0.892   4.531
 2743SOL     OW11001   1.240   0.619   4.515
 2743SOL    HW211002   1.201   0.702   4.543
 2743SOL    HW311003   1.166   0.562   4.497
 2743SOL    MW411004   1.225   0.623   4.516
 2744SOL     OW11005   1.800   1.702   4.424
 2744SOL    HW211006   1.884   1.668   4.452
 2744SOL    HW311007   1.795   1.681   4.330
 2744SOL    MW411008   1.810   1.695   4.415
 2745SOL     OW11009   0.703   1.915   4.634
 2745SOL    HW211010   0.765   1.941   4.702
 2745SOL    HW311011   0.619   1.909   4.679
 2745SOL    MW411012   0.700   1.918   4.649
 2746SOL     OW11013   1.696   1.476   4.745
 2746SOL    HW211014   1.641   1.400   4.728
 2746SOL    HW311015   1.786   1.445   4.733
 2746SOL    MW411016   1.701   1.462   4.741
 2747SOL     OW11017   1.145   2.137   4.717
 2747SOL    HW211018   1.229   2.125   4.761
 2747SOL    HW311019   1.131   2.231   4.716
 2747SOL    MW411020   1.154   2.148   4.722
 2748SOL     OW11021   1.454   1.957   4.512
 2748SOL    HW211022   1.503   1.990   4.437
 2748SOL    HW311023   1.485   1.867   4.523
 2748SOL    MW411024   1.465   1.949   4.503
 2749SOL     OW11025   2.170   2.483   4.061
 2749SOL    HW211026   2.109   2.445   3.998
 2749SOL    HW311027   2.167   2.425   4.137
 2749SOL    MW411028   2.162   2.470   4.063
 2750SOL     OW11029   1.416   2.079   4.783
 2750SOL    HW211030   1.430   2.022   4.707
 2750SOL    HW311031   1.478   2.151   4.771
 2750SOL    MW411032   1.426   2.081   4.772
 2751SOL     OW11033   2.522   3.009   4.556
 2751SOL    HW211034   2.584   2.944   4.521
 2751SOL    HW311035   2.440   2.961   4.566
 2751SOL    MW411036   2.519   2.994   4.553
 2752SOL     OW11037   1.723   3.070   4.580
 2752SOL    HW211038   1.747   3.025   4.499
 2752SOL    HW311039   1.801   3.066   4.635
 2752SOL    MW411040   1.736   3.064   4.577
 2753SOL     OW11041   2.041   3.888   4.596
 2753SOL    HW211042   2.131   3.906   4.569
 2753SOL    HW311043   2.020   3.804   4.555
 2753SOL    MW411044   2.050   3.879   4.587
 2754SOL     OW11045   2.909   3.138   4.706
 2754SOL    HW211046   2.952   3.215   4.669
 2754SOL    HW311047   2.967   3.109   4.776
 2754SOL    MW411048   2.922   3.145   4.711
 2755SOL     OW11049   2.643   3.174   4.757
 2755SOL    HW211050   2.608   3.111   4.693
 2755SOL    HW311051   2.731   3.140   4.777
 2755SOL    MW411052   2.650   3.161   4.751
 2756SOL     OW11053   2.715   3.941   4.498
 2756SOL    HW211054   2.699   3.954   4.404
 2756SOL    HW311055   2.630   3.918   4.534
 2756SOL    MW411056   2.702   3.940   4.490
 2757SOL     OW11057   2.496   3.827   4.612
 2757SOL    HW211058   2.474   3.742   4.573
 2757SOL    HW311059   2.516   3.806   4.703
 2757SOL    MW411060   2.496   3.813   4.619
 2758SOL     OW11061   2.513   3.567   4.510
 2758SOL    HW211062   2.441   3.504   4.502
 2758SOL    HW311063   2.531   3.595   4.421
 2758SOL    MW411064   2.506   3.562   4.498
 2759SOL     OW11065   1.949   3.618   4.508
 2759SOL    HW211066   1.967   3.528   4.536
 2759SOL    HW311067   1.980   3.622   4.418
 2759SOL    MW411068   1.956   3.607   4.500
 2760SOL     OW11069   1.936   4.296   4.492
 2760SOL    HW211070   1.893   4.212   4.507
 2760SOL    HW311071   2.027   4.281   4.517
 2760SOL    MW411072   1.942   4.283   4.497
 2761SOL     OW11073   1.196   3.678   4.533
 2761SOL    HW211074   1.247   3.600   4.555
 2761SOL    HW311075   1.187   3.675   4.437
 2761SOL    MW411076   1.202   3.667   4.523
 2762SOL     OW11077   2.227   0.202   4.530
 2762SOL    HW211078   2.218   0.167   4.442
 2762SOL    HW311079   2.274   0.285   4.519
 2762SOL    MW411080   2.232   0.208   4.517
 2763SOL     OW11081   2.306   0.713   4.539
 2763SOL    HW211082   2.387   0.763   4.548
 2763SOL    HW311083   2.240   0.764   4.585
 2763SOL    MW411084   2.308   0.726   4.546
 2764SOL     OW11085   2.047   1.603   4.508
 2764SOL    HW211086   2.041   1.509   4.491
 2764SOL    HW311087   2.140   1.623   4.494
 2764SOL    MW411088   2.059   1.593   4.504
 2765SOL     OW11089   2.628   0.179   4.473
 2765SOL    HW211090   2.547   0.136   4.500
 2765SOL    HW311091   2.637   0.159   4.380
 2765SOL    MW411092   2.618   0.171   4.464
 2766SOL     OW11093   2.878   0.800   4.375
 2766SOL    HW211094   2.832   0.717   4.384
 2766SOL    HW311095   2.920   0.796   4.289
 2766SOL    MW411096   2.878   0.789   4.365
 2767SOL     OW11097   3.148   0.865   4.695
 2767SOL    HW211098   3.156   0.797   4.628
 2767SOL    HW311099   3.207   0.934   4.665
 2767SOL    MW411100   3.157   0.865   4.682
 2768SOL     OW11101   2.170   1.162   4.630
 2768SOL    HW211102   2.246   1.167   4.571
 2768SOL    HW311103   2.148   1.069   4.634
 2768SOL    MW411104   2.177   1.151   4.622
 2769SOL     OW11105   2.607   1.293   4.509
 2769SOL    HW211106   2.614   1.387   4.492
 2769SOL    HW311107   2.696   1.260   4.497
 2769SOL    MW411108   2.620   1.301   4.505
 2770SOL     OW11109   2.588   1.575   4.454
 2770SOL    HW211110   2.604   1.620   4.371
 2770SOL    HW311111   2.600   1.642   4.521
 2770SOL    MW411112   2.591   1.590   4.452
 2771SOL     OW11113   2.303   1.705   4.444
 2771SOL    HW211114   2.383   1.658   4.470
 2771SOL    HW311115   2.280   1.667   4.359
 2771SOL    MW411116   2.311   1.694   4.437
 2772SOL     OW11117   2.212   2.208   4.613
 2772SOL    HW211118   2.271   2.282   4.624
 2772SOL    HW311119   2.171   2.223   4.528
 2772SOL    MW411120   2.214   2.220   4.603
 2773SOL     OW11121   2.395   1.974   4.515
 2773SOL    HW211122   2.339   1.897   4.512
 2773SOL    HW311123   2.342   2.040   4.560
 2773SOL    MW411124   2.381   1.973   4.521
 2774SOL     OW11125   2.574   2.346   4.435
 2774SOL    HW211126   2.519   2.405   4.487
 2774SOL    HW311127   2.527   2.334   4.353
 2774SOL    MW411128   2.561   2.353   4.431
 2775SOL     OW11129   1.698   2.687   4.470
 2775SOL    HW211130   1.758   2.756   4.441
 2775SOL    HW311131   1.754   2.625   4.517
 2775SOL    MW411132   1.713   2.688   4.472
 2776SOL     OW11133   2.253   3.001   4.810
 2776SOL    HW211134   2.294   3.085   4.789
 2776SOL    HW311135   2.268   2.947   4.733
 2776SOL    MW411136   2.260   3.005   4.797
 2777SOL     OW11137   2.683   3.352   4.530
 2777SOL    HW211138   2.659   3.299   4.605
 2777SOL    HW311139   2.628   3.430   4.537
 2777SOL    MW411140   2.673   3.355   4.540
 2778SOL     OW11141   2.368   3.259   4.770
 2778SOL    HW211142   2.461   3.239   4.777
 2778SOL    HW311143   2.364   3.336   4.713
 2778SOL    MW411144   2.379   3.267   4.763
 2779SOL     OW11145   1.545   4.089   4.598
 2779SOL    HW211146   1.502   4.008   4.569
 2779SOL    HW311147   1.638   4.067   4.601
 2779SOL    MW411148   1.551   4.075   4.595
 2780SOL     OW11149   2.676   4.390   4.576
 2780SOL    HW211150   2.590   4.397   4.534
 2780SOL    HW311151   2.657   4.391   4.670
 2780SOL    MW411152   2.662   4.391   4.583
 2781SOL     OW11153   2.024   3.099   4.672
 2781SOL    HW211154   2.053   3.044   4.599
 2781SOL    HW311155   2.092   3.089   4.738
 2781SOL    MW411156   2.037   3.090   4.671
 2782SOL     OW11157   3.297   3.912   4.507
 2782SOL    HW211158   3.211   3.949   4.526
 2782SOL    HW311159   3.281   3.817   4.503
 2782SOL    MW411160   3.283   3.904   4.509
 2783SOL     OW11161   3.009   4.033   4.467
 2783SOL    HW211162   2.929   3.994   4.501
 2783SOL    HW311163   2.988   4.127   4.459
 2783SOL    MW411164   2.996   4.040   4.470
 2784SOL     OW11165   2.192   4.268   4.585
 2784SOL    HW211166   2.156   4.268   4.674
 2784SOL    HW311167   2.234   4.183   4.576
 2784SOL    MW411168   2.193   4.257   4.596
 2785SOL     OW11169   2.401   4.446   4.486
 2785SOL    HW211170   2.327   4.394   4.517
 2785SOL    HW311171   2.389   4.450   4.391
 2785SOL    MW411172   2.390   4.440   4.478
 2786SOL     OW11173   2.770   0.543   4.392
 2786SOL    HW211174   2.749   0.474   4.328
 2786SOL    HW311175   2.730   0.513   4.473
 2786SOL    MW411176   2.762   0.530   4.394
 2787SOL     OW11177   2.653   0.425   4.606
 2787SOL    HW211178   2.657   0.337   4.567
 2787SOL    HW311179   2.698   0.415   4.690
 2787SOL    MW411180   2.659   0.412   4.612
 2788SOL     OW11181   2.717   0.095   4.790
 2788SOL    HW211182   2.777   0.042   4.739
 2788SOL    HW311183   2.636   0.096   4.738
 2788SOL    MW411184   2.714   0.088   4.777
 2789SOL     OW11185   2.929   0.990   4.591
 2789SOL    HW211186   3.010   0.952   4.624
 2789SOL    HW311187   2.901   0.930   4.522
 2789SOL    MW411188   2.936   0.977   4.586
 2790SOL     OW11189   3.558   0.539   4.711
 2790SOL    HW211190   3.619   0.482   4.665
 2790SOL    HW311191   3.583   0.627   4.683
 2790SOL    MW411192   3.570   0.543   4.701
 2791SOL     OW11193   2.093   0.884   4.667
 2791SOL    HW211194   2.090   0.910   4.759
 2791SOL    HW311195   2.001   0.885   4.639
 2791SOL    MW411196   2.080   0.888   4.675
 2792SOL     OW11197   2.500   0.925   4.535
 2792SOL    HW211198   2.546   0.918   4.452
 2792SOL    HW311199   2.567   0.954   4.598
 2792SOL    MW411200   2.515   0.928   4.532
 2793SOL     OW11201   3.119   1.436   4.531
 2793SOL    HW211202   3.040   1.382   4.522
 2793SOL    HW311203   3.165   1.423   4.448
 2793SOL    MW411204   3.114   1.427   4.519
 2794SOL     OW11205   3.084   1.743   4.501
 2794SOL    HW211206   3.001   1.776   4.535
 2794SOL    HW311207   3.078   1.648   4.511
 2794SOL    MW411208   3.072   1.735   4.507
 2795SOL     OW11209   2.824   1.875   4.582
 2795SOL    HW211210   2.741   1.834   4.607
 2795SOL    HW311211   2.804   1.967   4.573
 2795SOL    MW411212   2.811   1.881   4.584
 2796SOL     OW11213   2.553   1.785   4.643
 2796SOL    HW211214   2.550   1.780   4.739
 2796SOL    HW311215   2.493   1.857   4.621
 2796SOL    MW411216   2.544   1.794   4.653
 2797SOL     OW11217   2.826   2.172   4.495
 2797SOL    HW211218   2.748   2.227   4.495
 2797SOL    HW311219   2.837   2.146   4.404
 2797SOL    MW411220   2.817   2.176   4.483
 2798SOL     OW11221   3.089   2.202   4.592
 2798SOL    HW211222   3.092   2.138   4.663
 2798SOL    HW311223   3.000   2.196   4.558
 2798SOL    MW411224   3.078   2.192   4.597
 2799SOL     OW11225   2.341   2.670   4.765
 2799SOL    HW211226   2.360   2.733   4.835
 2799SOL    HW311227   2.309   2.723   4.692
 2799SOL    MW411228   2.340   2.685   4.765
 2800SOL     OW11229   3.403   3.224   4.644
 2800SOL    HW211230   3.357   3.144   4.671
 2800SOL    HW311231   3.458   3.196   4.570
 2800SOL    MW411232   3.405   3.209   4.638
 2801SOL     OW11233   2.601   2.704   4.641
 2801SOL    HW211234   2.530   2.702   4.705
 2801SOL    HW311235   2.559   2.691   4.556
 2801SOL    MW411236   2.586   2.702   4.638
 2802SOL     OW11237   2.919   3.478   4.571
 2802SOL    HW211238   2.993   3.423   4.545
 2802SOL    HW311239   2.842   3.424   4.555
 2802SOL    MW411240   2.919   3.464   4.565
 2803SOL     OW11241   2.838   2.961   4.480
 2803SOL    HW211242   2.851   2.999   4.568
 2803SOL    HW311243   2.838   2.867   4.495
 2803SOL    MW411244   2.840   2.954   4.494
 2804SOL     OW11245   3.065   0.054   4.498
 2804SOL    HW211246   2.978   0.015   4.509
 2804SOL    HW311247   3.056   0.143   4.531
 2804SOL    MW411248   3.052   0.060   4.504
 2805SOL     OW11249   3.769   4.143   4.812
 2805SOL    HW211250   3.710   4.187   4.751
 2805SOL    HW311251   3.727   4.154   4.897
 2805SOL    MW411252   3.755   4.151   4.815
 2806SOL     OW11253   3.861   3.663   4.533
 2806SOL    HW211254   3.928   3.599   4.555
 2806SOL    HW311255   3.831   3.637   4.446
 2806SOL    MW411256   3.866   3.651   4.524
 2807SOL     OW11257   2.838   3.696   4.427
 2807SOL    HW211258   2.853   3.623   4.488
 2807SOL    HW311259   2.787   3.760   4.478
 2807SOL    MW411260   2.834   3.695   4.442
 2808SOL     OW11261   2.922   4.304   4.447
 2808SOL    HW211262   2.837   4.307   4.491
 2808SOL    HW311263   2.984   4.338   4.511
 2808SOL    MW411264   2.919   4.309   4.461
 2809SOL     OW11265   3.036   0.454   4.354
 2809SOL    HW211266   3.040   0.407   4.437
 2809SOL    HW311267   2.945   0.484   4.348
 2809SOL    MW411268   3.024   0.452   4.364
 2810SOL     OW11269   3.167   0.683   4.909
 2810SOL    HW211270   3.104   0.717   4.972
 2810SOL    HW311271   3.172   0.750   4.841
 2810SOL    MW411272   3.160   0.696   4.908
 2811SOL     OW11273   2.382   0.440   4.510
 2811SOL    HW211274   2.459   0.450   4.568
 2811SOL    HW311275   2.333   0.521   4.521
 2811SOL    MW411276   2.386   0.452   4.519
 2812SOL     OW11277   2.362   1.162   4.428
 2812SOL    HW211278   2.402   1.078   4.450
 2812SOL    HW311279   2.422   1.227   4.465
 2812SOL    MW411280   2.375   1.159   4.436
 2813SOL     OW11281   2.807   4.626   4.553
 2813SOL    HW211282   2.777   4.536   4.543
 2813SOL    HW311283   2.740   4.679   4.509
 2813SOL    MW411284   2.794   4.621   4.546
 2814SOL     OW11285   3.047   0.338   4.604
 2814SOL    HW211286   3.127   0.374   4.642
 2814SOL    HW311287   2.979   0.355   4.669
 2814SOL    MW411288   3.049   0.345   4.617
 2815SOL     OW11289   3.309   1.356   4.715
 2815SOL    HW211290   3.230   1.377   4.666
 2815SOL    HW311291   3.285   1.367   4.807
 2815SOL    MW411292   3.296   1.360   4.720
 2816SOL     OW11293   2.875   1.270   4.528
 2816SOL    HW211294   2.881   1.179   4.556
 2816SOL    HW311295   2.887   1.266   4.433
 2816SOL    MW411296   2.877   1.258   4.519
 2817SOL     OW11297   4.105   0.975   4.466
 2817SOL    HW211298   4.070   0.943   4.383
 2817SOL    HW311299   4.176   0.915   4.487
 2817SOL    MW411300   4.109   0.963   4.458
 2818SOL     OW11301   3.497   1.428   4.523
 2818SOL    HW211302   3.520   1.520   4.536
 2818SOL    HW311303   3.441   1.406   4.597
 2818SOL    MW411304   3.492   1.437   4.534
 2819SOL     OW11305   3.380   1.856   4.579
 2819SOL    HW211306   3.380   1.951   4.567
 2819SOL    HW311307   3.293   1.828   4.552
 2819SOL    MW411308   3.369   1.865   4.574
 2820SOL     OW11309   3.379   2.143   4.518
 2820SOL    HW211310   3.291   2.173   4.543
 2820SOL    HW311311   3.374   2.129   4.424
 2820SOL    MW411312   3.367   2.145   4.509
 2821SOL     OW11313   3.593   1.686   4.509
 2821SOL    HW211314   3.527   1.737   4.555
 2821SOL    HW311315   3.569   1.695   4.417
 2821SOL    MW411316   3.581   1.694   4.503
 2822SOL     OW11317   2.872   2.688   4.522
 2822SOL    HW211318   2.799   2.660   4.578
 2822SOL    HW311319   2.938   2.619   4.532
 2822SOL    MW411320   2.871   2.675   4.530
 2823SOL     OW11321   3.358   2.573   4.551
 2823SOL    HW211322   3.264   2.556   4.546
 2823SOL    HW311323   3.366   2.668   4.541
 2823SOL    MW411324   3.347   2.583   4.549
 2824SOL     OW11325   3.087   2.489   4.516
 2824SOL    HW211326   3.105   2.476   4.423
 2824SOL    HW311327   3.091   2.401   4.554
 2824SOL    MW411328   3.090   2.475   4.508
 2825SOL     OW11329   3.841   3.074   4.621
 2825SOL    HW211330   3.921   3.124   4.607
 2825SOL    HW311331   3.862   2.986   4.588
 2825SOL    MW411332   3.854   3.069   4.615
 2826SOL     OW11333   3.235   3.004   4.680
 2826SOL    HW211334   3.172   3.052   4.627
 2826SOL    HW311335   3.284   2.952   4.616
 2826SOL    MW411336   3.233   3.003   4.664
 2827SOL     OW11337   3.582   3.101   4.477
 2827SOL    HW211338   3.588   3.137   4.389
 2827SOL    HW311339   3.673   3.090   4.505
 2827SOL    MW411340   3.595   3.105   4.470
 2828SOL     OW11341   3.894   2.831   4.512
 2828SOL    HW211342   3.989   2.840   4.512
 2828SOL    HW311343   3.877   2.747   4.553
 2828SOL    MW411344   3.904   2.821   4.517
 2829SOL     OW11345   3.704   3.292   4.758
 2829SOL    HW211346   3.609   3.287   4.769
 2829SOL    HW311347   3.725   3.218   4.702
 2829SOL    MW411348   3.694   3.282   4.752
 2830SOL     OW11349   3.598   4.255   4.618
 2830SOL    HW211350   3.679   4.280   4.573
 2830SOL    HW311351   3.580   4.166   4.587
 2830SOL    MW411352   3.606   4.247   4.608
 2831SOL     OW11353   3.147   4.448   4.574
 2831SOL    HW211354   3.131   4.541   4.559
 2831SOL    HW311355   3.243   4.439   4.574
 2831SOL    MW411356   3.158   4.459   4.572
 2832SOL     OW11357   3.470   0.240   4.571
 2832SOL    HW211358   3.422   0.299   4.629
 2832SOL    HW311359   3.433   0.256   4.485
 2832SOL    MW411360   3.459   0.249   4.568
 2833SOL     OW11361   3.433   4.461   4.512
 2833SOL    HW211362   3.474   4.389   4.561
 2833SOL    HW311363   3.499   4.530   4.511
 2833SOL    MW411364   3.447   4.461   4.518
 2834SOL     OW11365   3.557   4.014   4.481
 2834SOL    HW211366   3.618   3.959   4.530
 2834SOL    HW311367   3.471   3.979   4.502
 2834SOL    MW411368   3.554   4.002   4.490
 2835SOL     OW11369   3.879   4.596   4.672
 2835SOL    HW211370   3.897   4.616   4.764
 2835SOL    HW311371   3.784   4.597   4.665
 2835SOL    MW411372   3.869   4.599   4.683
 2836SOL     OW11373   3.295   1.091   4.611
 2836SOL    HW211374   3.360   1.077   4.543
 2836SOL    HW311375   3.310   1.181   4.641
 2836SOL    MW411376   3.305   1.101   4.606
 2837SOL     OW11377   2.847   0.340   4.806
 2837SOL    HW211378   2.868   0.350   4.899
 2837SOL    HW311379   2.791   0.262   4.803
 2837SOL    MW411380   2.842   0.331   4.818
 2838SOL     OW11381   4.156   1.600   4.600
 2838SOL    HW211382   4.092   1.532   4.581
 2838SOL    HW311383   4.241   1.558   4.587
 2838SOL    MW411384   4.159   1.585   4.596
 2839SOL     OW11385   3.874   0.905   4.639
 2839SOL    HW211386   3.872   0.986   4.690
 2839SOL    HW311387   3.939   0.921   4.570
 2839SOL    MW411388   3.883   0.918   4.637
 2840SOL     OW11389   0.045   0.943   4.518
 2840SOL    HW211390   0.036   0.921   4.425
 2840SOL    HW311391   0.122   0.895   4.547
 2840SOL    MW411392   0.054   0.934   4.509
 2841SOL     OW11393   4.323   0.526   4.492
 2841SOL    HW211394   4.317   0.519   4.397
 2841SOL    HW311395   4.246   0.480   4.525
 2841SOL    MW411396   4.312   0.519   4.484
 2842SOL     OW11397   3.556   1.721   4.232
 2842SOL    HW211398   3.625   1.664   4.198
 2842SOL    HW311399   3.475   1.679   4.204
 2842SOL    MW411400   3.555   1.708   4.224
 2843SOL     OW11401   3.954   1.609   4.319
 2843SOL    HW211402   4.035   1.640   4.280
 2843SOL    HW311403   3.930   1.676   4.383
 2843SOL    MW411404   3.961   1.622   4.323
 2844SOL     OW11405   3.650   2.272   4.585
 2844SOL    HW211406   3.566   2.227   4.599
 2844SOL    HW311407   3.708   2.204   4.553
 2844SOL    MW411408   3.646   2.257   4.583
 2845SOL     OW11409   3.858   1.783   4.532
 2845SOL    HW211410   3.777   1.731   4.534
 2845SOL    HW311411   3.904   1.761   4.613
 2845SOL    MW411412   3.853   1.773   4.543
 2846SOL     OW11413   0.177   1.878   4.838
 2846SOL    HW211414   0.262   1.877   4.795
 2846SOL    HW311415   0.195   1.904   4.928
 2846SOL    MW411416   0.190   1.881   4.844
 2847SOL     OW11417   3.811   2.062   4.498
 2847SOL    HW211418   3.904   2.085   4.502
 2847SOL    HW311419   3.809   1.969   4.522
 2847SOL    MW411420   3.823   2.053   4.502
 2848SOL     OW11421   3.850   2.585   4.623
 2848SOL    HW211422   3.836   2.566   4.716
 2848SOL    HW311423   3.766   2.565   4.581
 2848SOL    MW411424   3.837   2.580   4.630
 2849SOL     OW11425   4.114   2.523   4.519
 2849SOL    HW211426   4.029   2.533   4.561
 2849SOL    HW311427   4.144   2.613   4.503
 2849SOL    MW411428   4.107   2.536   4.522
 2850SOL     OW11429   4.319   3.144   4.598
 2850SOL    HW211430   4.386   3.203   4.564
 2850SOL    HW311431   4.360   3.058   4.599
 2850SOL    MW411432   4.333   3.140   4.594
 2851SOL     OW11433   3.127   3.290   4.556
 2851SOL    HW211434   3.215   3.275   4.590
 2851SOL    HW311435   3.139   3.292   4.461
 2851SOL    MW411436   3.140   3.289   4.548
 2852SOL     OW11437   4.072   3.224   4.539
 2852SOL    HW211438   4.160   3.188   4.555
 2852SOL    HW311439   4.062   3.217   4.444
 2852SOL    MW411440   4.083   3.218   4.528
 2853SOL     OW11441   3.232   3.641   4.516
 2853SOL    HW211442   3.144   3.665   4.546
 2853SOL    HW311443   3.277   3.611   4.595
 2853SOL    MW411444   3.226   3.640   4.530
 2854SOL     OW11445   4.328   3.573   4.473
 2854SOL    HW211446   4.297   3.596   4.385
 2854SOL    HW311447   4.250   3.538   4.518
 2854SOL    MW411448   4.313   3.572   4.467
 2855SOL     OW11449   0.203   2.814   4.508
 2855SOL    HW211450   0.180   2.839   4.418
 2855SOL    HW311451   0.256   2.887   4.540
 2855SOL    MW411452   0.207   2.827   4.500
 2856SOL     OW11453   4.082   3.982   4.506
 2856SOL    HW211454   4.100   4.071   4.536
 2856SOL    HW311455   3.993   3.964   4.534
 2856SOL    MW411456   4.073   3.991   4.513
 2857SOL     OW11457   3.865   4.340   4.536
 2857SOL    HW211458   3.855   4.331   4.441
 2857SOL    HW311459   3.878   4.434   4.549
 2857SOL    MW411460   3.865   4.352   4.525
 2858SOL     OW11461   3.631   0.013   4.554
 2858SOL    HW211462   3.649   0.028   4.462
 2858SOL    HW311463   3.558   0.072   4.575
 2858SOL    MW411464   3.623   0.023   4.545
 2859SOL     OW11465   3.535   1.050   4.452
 2859SOL    HW211466   3.618   1.097   4.458
 2859SOL    HW311467   3.554   0.962   4.484
 2859SOL    MW411468   3.549   1.045   4.457
 2860SOL     OW11469   3.619   0.801   4.544
 2860SOL    HW211470   3.704   0.830   4.576
 2860SOL    HW311471   3.638   0.760   4.459
 2860SOL    MW411472   3.633   0.799   4.537
 2861SOL     OW11473   0.053   0.398   4.647
 2861SOL    HW211474   0.137   0.439   4.628
 2861SOL    HW311475  -0.010   0.445   4.592
 2861SOL    MW411476   0.056   0.410   4.637
 2862SOL     OW11477   0.290   0.537   4.539
 2862SOL    HW211478   0.385   0.525   4.533
 2862SOL    HW311479   0.260   0.534   4.448
 2862SOL    MW411480   0.299   0.535   4.526
 2863SOL     OW11481   4.099   0.362   4.671
 2863SOL    HW211482   4.079   0.455   4.685
 2863SOL    HW311483   4.022   0.327   4.627
 2863SOL    MW411484   4.086   0.370   4.667
 2864SOL     OW11485   3.722   1.259   4.474
 2864SOL    HW211486   3.638   1.304   4.487
 2864SOL    HW311487   3.786   1.313   4.520
 2864SOL    MW411488   3.719   1.272   4.482
 2865SOL     OW11489   4.487   1.215   4.509
 2865SOL    HW211490   4.580   1.228   4.489
 2865SOL    HW311491   4.476   1.120   4.509
 2865SOL    MW411492   4.498   1.204   4.506
 2866SOL     OW11493   4.404   1.506   4.551
 2866SOL    HW211494   4.433   1.418   4.573
 2866SOL    HW311495   4.484   1.557   4.545
 2866SOL    MW411496   4.418   1.501   4.553
 2867SOL     OW11497   3.973   1.401   4.518
 2867SOL    HW211498   4.056   1.354   4.509
 2867SOL    HW311499   3.965   1.450   4.436
 2867SOL    MW411500   3.983   1.402   4.506
 2868SOL     OW11501   3.397   2.884   4.484
 2868SOL    HW211502   3.397   2.844   4.397
 2868SOL    HW311503   3.464   2.952   4.480
 2868SOL    MW411504   3.406   2.887   4.472
 2869SOL     OW11505   4.210   2.105   4.225
 2869SOL    HW211506   4.149   2.067   4.162
 2869SOL    HW311507   4.160   2.114   4.306
 2869SOL    MW411508   4.196   2.101   4.227
 2870SOL     OW11509   0.174   2.110   4.516
 2870SOL    HW211510   0.263   2.127   4.546
 2870SOL    HW311511   0.132   2.196   4.515
 2870SOL    MW411512   0.180   2.123   4.520
 2871SOL     OW11513   4.083   2.092   4.489
 2871SOL    HW211514   4.135   2.019   4.524
 2871SOL    HW311515   4.133   2.170   4.512
 2871SOL    MW411516   4.096   2.093   4.497
 2872SOL     OW11517   3.619   2.510   4.447
 2872SOL    HW211518   3.529   2.534   4.469
 2872SOL    HW311519   3.631   2.423   4.484
 2872SOL    MW411520   3.609   2.502   4.455
 2873SOL     OW11521   0.442   2.456   4.674
 2873SOL    HW211522   0.380   2.518   4.635
 2873SOL    HW311523   0.433   2.468   4.768
 2873SOL    MW411524   0.433   2.466   4.681
 2874SOL     OW11525   4.173   2.811   4.487
 2874SOL    HW211526   4.256   2.830   4.530
 2874SOL    HW311527   4.183   2.843   4.398
 2874SOL    MW411528   4.185   2.818   4.481
 2875SOL     OW11529   4.421   2.874   4.592
 2875SOL    HW211530   4.417   2.865   4.687
 2875SOL    HW311531   4.514   2.863   4.571
 2875SOL    MW411532   4.433   2.871   4.601
 2876SOL     OW11533   0.213   3.517   4.509
 2876SOL    HW211534   0.209   3.557   4.422
 2876SOL    HW311535   0.139   3.456   4.510
 2876SOL    MW411536   0.203   3.514   4.497
 2877SOL     OW11537   4.312   0.300   4.856
 2877SOL    HW211538   4.378   0.334   4.794
 2877SOL    HW311539   4.229   0.328   4.819
 2877SOL    MW411540   4.310   0.308   4.843
 2878SOL     OW11541   3.927   0.191   4.541
 2878SOL    HW211542   3.969   0.166   4.459
 2878SOL    HW311543   3.903   0.108   4.582
 2878SOL    MW411544   3.929   0.177   4.536
 2879SOL     OW11545   3.999   3.772   4.819
 2879SOL    HW211546   3.965   3.687   4.846
 2879SOL    HW311547   4.074   3.751   4.763
 2879SOL    MW411548   4.004   3.758   4.815
 2880SOL     OW11549   3.287   0.483   4.725
 2880SOL    HW211550   3.380   0.502   4.713
 2880SOL    HW311551   3.260   0.541   4.796
 2880SOL    MW411552   3.296   0.493   4.733
 2881SOL     OW11553   4.329   4.436   4.282
 2881SOL    HW211554   4.408   4.390   4.255
 2881SOL    HW311555   4.332   4.433   4.378
 2881SOL    MW411556   4.340   4.430   4.291
 2882NA      NA11557   2.743   4.160   0.695
 2883NA      NA11558   0.637   2.281   0.408
   4.49070   4.66690  10.00000
