Gravel Rubs Often Many Awfully Cauterized Sores in water
11693
    1G      O5'    1   2.630   2.910   4.494  0.3539 -0.1060  0.0937
    1G      H5T    2   2.628   2.988   4.551  2.7397  1.8665 -2.4036
    1G      C5'    3   2.670   2.797   4.571 -0.1222 -0.0280  0.1894
    1G     H5'1    4   2.742   2.826   4.647 -0.9192  1.4823  0.3865
    1G     H5'2    5   2.716   2.726   4.502 -1.8788  0.6400 -1.7427
    1G      C4'    6   2.547   2.732   4.643 -0.0809 -0.3282  0.0239
    1G      H4'    7   2.573   2.639   4.694 -0.5879 -1.3078 -1.4692
    1G      O4'    8   2.461   2.813   4.726 -0.1592 -0.3938  0.0101
    1G      C1'    9   2.329   2.778   4.705 -0.0535 -0.1827  0.1315
    1G      H1'   10   2.279   2.745   4.796 -2.2443 -1.8141 -1.5873
    1G       N9   11   2.248   2.890   4.654  0.1842  0.4092  0.4674
    1G       C8   12   2.271   2.980   4.549 -0.5231 -0.0824 -0.0553
    1G       H8   13   2.365   2.984   4.495 -1.1056  1.2111 -1.0131
    1G       N7   14   2.172   3.056   4.520 -0.4257  0.0387  0.1096
    1G       C5   15   2.069   3.011   4.610 -0.3825  0.3206  0.0534
    1G       C6   16   1.939   3.069   4.636  0.0359 -0.1366  0.3343
    1G       O6   17   1.889   3.169   4.582 -0.1491  0.1065  0.4893
    1G       N1   18   1.871   3.002   4.734 -0.0252 -0.2964  0.1715
    1G       H1   19   1.771   3.015   4.729  0.3608  2.2342 -1.7312
    1G       C2   20   1.920   2.894   4.802 -0.2399 -0.2357  0.2297
    1G       N2   21   1.835   2.824   4.874  0.1790 -0.5610 -0.2056
    1G      H21   22   1.739   2.849   4.889  0.4346  0.2500  0.1440
    1G      H22   23   1.883   2.761   4.937 -1.6829 -2.7414 -0.9131
    1G       N3   24   2.041   2.844   4.788  0.2272  0.6266  0.6451
    1G       C4   25   2.113   2.905   4.685  0.2347  0.3352 -0.2145
    1G      C3'   26   2.452   2.682   4.524 -0.2554 -0.1305 -0.1779
    1G      H3'   27   2.443   2.768   4.458 -0.6636 -0.2928 -0.3333
    1G      C2'   28   2.321   2.658   4.603 -0.3305 -0.6715  0.3182
    1G     H2'1   29   2.233   2.683   4.544  1.2525  0.4577 -1.6384
    1G      O2'   30   2.303   2.536   4.669  0.1159  0.4370 -0.5771
    1G     HO'2   31   2.294   2.471   4.599 -1.9951  0.9631 -0.8512
    1G      O3'   32   2.503   2.562   4.463 -0.4223 -0.0633 -0.2417
    2G        P   33   2.440   2.506   4.332 -0.1174  0.2081  0.1381
    2G      O1P   34   2.536   2.398   4.287  0.2721 -0.1276  0.2880
    2G      O2P   35   2.403   2.615   4.240  0.2122 -0.1674  0.3868
    2G      O5'   36   2.301   2.435   4.363  0.7212  0.2067 -0.2069
    2G      C5'   37   2.302   2.307   4.425 -0.0400 -0.9032 -0.4190
    2G     H5'1   38   2.371   2.301   4.509  0.8166 -1.2478 -1.1320
    2G     H5'2   39   2.340   2.230   4.358 -1.1873 -3.1543  1.4430
    2G      C4'   40   2.164   2.263   4.476 -0.0462 -0.0007  0.2683
    2G      H4'   41   2.178   2.172   4.535 -0.2589  0.6083  1.2697
    2G      O4'   42   2.110   2.360   4.564  0.5593 -0.1088 -0.0787
    2G      C1'   43   1.962   2.362   4.557  0.1028 -0.7174 -0.3282
    2G      H1'   44   1.925   2.356   4.660  0.7002  0.6244 -0.0289
    2G       N9   45   1.927   2.494   4.509  0.1960  0.2634  0.1052
    2G       C8   46   2.004   2.572   4.429 -0.5141  0.9283  0.6615
    2G       H8   47   2.095   2.542   4.379 -0.0689  2.9023  0.2373
    2G       N7   48   1.966   2.698   4.411 -0.7303  0.1752  0.2354
    2G       C5   49   1.849   2.697   4.489 -0.7861  0.5367  0.3036
    2G       C6   50   1.753   2.797   4.515  0.0203  0.3589  0.1060
    2G       O6   51   1.750   2.917   4.482  0.3236 -0.2980  0.0163
    2G       N1   52   1.654   2.758   4.597  0.5325  0.7722  0.3284
    2G       H1   53   1.587   2.830   4.620  2.1379  2.7999 -1.1304
    2G       C2   54   1.643   2.636   4.657  0.4259  0.1498 -0.6410
    2G       N2   55   1.549   2.615   4.749  0.0023 -0.2248  0.3717
    2G      H21   56   1.467   2.674   4.748  1.0599  1.3264  1.7415
    2G      H22   57   1.544   2.519   4.780 -0.1069 -0.4350 -0.2844
    2G       N3   58   1.726   2.536   4.640  0.4881 -0.7053  0.1641
    2G       C4   59   1.823   2.577   4.552  0.4351 -0.1342  0.2287
    2G      C3'   60   2.052   2.240   4.383 -0.2982 -0.0365  0.7012
    2G      H3'   61   2.050   2.319   4.307 -1.2188 -0.2565  0.4912
    2G      C2'   62   1.927   2.239   4.474 -0.0186 -0.2647  0.2461
    2G     H2'1   63   1.836   2.254   4.416  0.0019 -1.4215 -0.0867
    2G      O2'   64   1.914   2.129   4.559  0.2557  0.1466  0.2865
    2G     HO'2   65   1.827   2.089   4.548  0.4067 -0.2825  0.5978
    2G      O3'   66   2.081   2.116   4.321  0.6333  0.4277 -0.2104
    3G        P   67   2.085   2.109   4.168 -0.1886 -0.3454  0.0276
    3G      O1P   68   2.115   1.971   4.135 -0.4375  0.2429  0.5350
    3G      O2P   69   2.167   2.217   4.119  0.0043 -0.0354  0.3667
    3G      O5'   70   1.938   2.144   4.122  0.2077 -0.2351  0.0596
    3G      C5'   71   1.831   2.056   4.155 -0.1456  0.3575  0.2642
    3G     H5'1   72   1.840   2.038   4.262 -0.3469  0.7893  0.3548
    3G     H5'2   73   1.846   1.960   4.105  2.2867  0.3309  0.9863
    3G      C4'   74   1.695   2.117   4.123 -0.3086 -0.3378  0.5701
    3G      H4'   75   1.628   2.032   4.133 -0.9266  0.3464  2.5145
    3G      O4'   76   1.648   2.210   4.223  0.0299 -0.3232  0.4895
    3G      C1'   77   1.587   2.319   4.148  0.1476  0.5491 -0.4740
    3G      H1'   78   1.486   2.294   4.114  0.2529  2.4417 -2.3690
    3G       N9   79   1.576   2.456   4.216  0.2544  0.5691  0.3599
    3G       C8   80   1.653   2.570   4.206 -0.2313  0.0084  0.4138
    3G       H8   81   1.750   2.578   4.159  0.1953  0.3390  1.3452
    3G       N7   82   1.608   2.668   4.274  0.5275  0.0218 -0.2794
    3G       C5   83   1.490   2.617   4.332  0.7050  0.1146  0.2111
    3G       C6   84   1.393   2.677   4.421 -0.1565 -0.6337 -0.3678
    3G       O6   85   1.387   2.794   4.454  0.1668 -0.1885 -0.1566
    3G       N1   86   1.295   2.590   4.463 -0.0132  0.0094  0.2274
    3G       H1   87   1.219   2.636   4.511  0.7882  0.5161  1.0163
    3G       C2   88   1.294   2.461   4.430  0.0181 -0.1347 -0.4359
    3G       N2   89   1.196   2.391   4.483 -0.1442  0.0712  0.1162
    3G      H21   90   1.127   2.429   4.545  1.1311  1.6307  0.6185
    3G      H22   91   1.194   2.291   4.467 -0.1996 -0.3342  2.4653
    3G       N3   92   1.380   2.401   4.346  0.4470  0.0895 -0.5241
    3G       C4   93   1.476   2.486   4.301 -0.0495 -0.2732  0.3876
    3G      C3'   94   1.698   2.185   3.985 -0.3182 -0.4795  0.4960
    3G      H3'   95   1.792   2.174   3.931  1.0549 -0.3082  2.7784
    3G      C2'   96   1.670   2.332   4.024 -0.2032 -0.7504 -0.0183
    3G     H2'1   97   1.761   2.386   4.049 -0.2934 -0.9086  0.6624
    3G      O2'   98   1.605   2.405   3.924 -0.3891  0.6928  0.0730
    3G     HO'2   99   1.529   2.349   3.905  0.3961 -0.6257  0.7828
    3G      O3'  100   1.604   2.125   3.896 -0.0295 -0.3572  0.4317
    4G        P  101   1.618   1.973   3.844  0.1502  0.0055  0.0543
    4G      O1P  102   1.752   1.940   3.804 -0.4162  0.5965 -0.4845
    4G      O2P  103   1.516   1.970   3.736  0.1524 -0.0117 -0.3484
    4G      O5'  104   1.582   1.869   3.957 -0.1422  0.0563  0.0427
    4G      C5'  105   1.452   1.864   4.018 -0.6975  0.1224 -0.9785
    4G     H5'1  106   1.382   1.832   3.942 -0.9254 -2.6123  0.3289
    4G     H5'2  107   1.426   1.963   4.055 -1.5570 -0.5671  0.3044
    4G      C4'  108   1.442   1.760   4.136  0.0943 -0.0786 -0.0174
    4G      H4'  109   1.514   1.680   4.118 -0.1370 -0.0034 -1.3702
    4G      O4'  110   1.464   1.825   4.259 -0.3403  0.0824  0.1854
    4G      C1'  111   1.395   1.772   4.368 -0.1673 -0.0435 -0.2757
    4G      H1'  112   1.464   1.743   4.448 -0.7507  2.3076  1.1283
    4G       N9  113   1.298   1.873   4.420 -0.1226 -0.3227 -0.8274
    4G       C8  114   1.294   2.009   4.395 -0.5983 -0.0596 -0.3057
    4G       H8  115   1.361   2.063   4.329 -2.4707 -1.5778 -3.5782
    4G       N7  116   1.203   2.076   4.458 -0.4343 -0.0916  0.4121
    4G       C5  117   1.132   1.976   4.530 -0.0341  0.4938 -0.6730
    4G       C6  118   1.032   1.992   4.626  0.0541  1.0232  0.0241
    4G       O6  119   0.975   2.095   4.664  0.3995  0.4445  0.1363
    4G       N1  120   0.993   1.868   4.673  0.4263  0.1446 -0.3605
    4G       H1  121   0.919   1.869   4.742 -0.2785  0.4638 -1.1191
    4G       C2  122   1.063   1.755   4.656  0.7991 -0.2125  0.3111
    4G       N2  123   1.010   1.654   4.722  0.0003  0.0697  0.0243
    4G      H21  124   0.930   1.680   4.778 -0.5596  0.3890 -0.9232
    4G      H22  125   1.046   1.559   4.726  0.9050  0.4499  1.3652
    4G       N3  126   1.167   1.742   4.582 -0.0177  0.4357 -0.1824
    4G       C4  127   1.195   1.854   4.510  0.0785 -0.1097  0.1219
    4G      C3'  128   1.303   1.699   4.162 -0.1549  0.1815  0.3013
    4G      H3'  129   1.224   1.772   4.176 -0.8377 -0.5586  0.3388
    4G      C2'  130   1.326   1.648   4.304 -0.3513 -0.1896  0.1351
    4G     H2'1  131   1.232   1.624   4.353 -0.0012 -2.0304 -0.0694
    4G      O2'  132   1.410   1.531   4.312  0.4108  0.2281 -0.6120
    4G     HO'2  133   1.379   1.459   4.256 -0.4720 -1.0916  1.5274
    4G      O3'  134   1.270   1.598   4.077 -0.2707 -0.0590 -0.1423
    5G        P  135   1.124   1.537   4.063 -0.3173 -0.0115  0.2800
    5G      O1P  136   1.111   1.423   4.156 -0.3229 -0.0892 -0.1512
    5G      O2P  137   1.109   1.507   3.917 -0.3338  0.1624  0.0078
    5G      O5'  138   1.020   1.647   4.096 -0.5046 -0.1981 -0.4180
    5G      C5'  139   0.940   1.646   4.222 -0.4401  0.6435 -0.6187
    5G     H5'1  140   1.001   1.623   4.309 -0.3301  0.9345 -0.6206
    5G     H5'2  141   0.860   1.572   4.213  1.0664 -1.2745  1.2578
    5G      C4'  142   0.876   1.785   4.247 -0.2685 -0.4372 -0.0057
    5G      H4'  143   0.815   1.789   4.337  0.2031  0.7790  0.2693
    5G      O4'  144   0.976   1.885   4.258  0.4792 -0.0881  0.0586
    5G      C1'  145   0.922   2.004   4.205 -0.7137  0.4249  0.3836
    5G      H1'  146   0.877   2.055   4.290 -0.7964  0.7184  0.1662
    5G       N9  147   1.036   2.094   4.155  0.0090 -0.0640 -0.2226
    5G       C8  148   1.149   2.057   4.087 -0.1200  0.8459 -0.5096
    5G       H8  149   1.161   1.956   4.051 -0.5092  2.0533 -4.2063
    5G       N7  150   1.223   2.156   4.047 -0.3649 -0.0840 -0.2052
    5G       C5  151   1.160   2.269   4.101  0.3303 -0.4527  0.1606
    5G       C6  152   1.188   2.409   4.090  0.8565  0.4889 -0.3834
    5G       O6  153   1.276   2.471   4.029  0.2495 -0.0750 -0.1692
    5G       N1  154   1.103   2.486   4.165 -0.3989  0.3322 -0.5699
    5G       H1  155   1.125   2.585   4.166  1.4191 -0.0413 -1.4819
    5G       C2  156   1.002   2.442   4.237 -0.1627  0.2230 -0.3285
    5G       N2  157   0.919   2.524   4.291  0.6882  0.1369 -0.2519
    5G      H21  158   0.935   2.622   4.305  0.6574 -0.0715  1.3032
    5G      H22  159   0.842   2.485   4.344  0.7496  0.1917 -0.1215
    5G       N3  160   0.967   2.316   4.239  0.1409 -0.2282 -0.4190
    5G       C4  161   1.049   2.233   4.172 -0.3742 -0.1856  0.2131
    5G      C3'  162   0.789   1.824   4.124  0.3309  0.1421  0.3503
    5G      H3'  163   0.817   1.772   4.032  1.5502  2.4233 -0.6174
    5G      C2'  164   0.805   1.974   4.106 -0.3429  0.0403 -0.0074
    5G     H2'1  165   0.833   2.000   4.004  1.2484  0.3208  0.4717
    5G      O2'  166   0.685   2.040   4.156 -0.0612  0.3019  0.0158
    5G     HO'2  167   0.641   1.967   4.200  0.2994  1.1922  1.9050
    5G      O3'  168   0.656   1.786   4.139  0.2246  0.1662 -0.1679
    5G      H3T  169   0.609   1.793   4.055 -0.5386 -1.3521  0.1138
   11SOL     OW  170   4.189   2.640   0.440 -0.0027  0.1065 -0.1494
   11SOL    HW2  171   4.172   2.613   0.531 -0.6225  0.6597 -0.1011
   11SOL    HW3  172   4.118   2.701   0.419  0.0283 -0.1744 -1.0768
   11SOL    MW4  173   4.177   2.644   0.450 -0.0806  0.1423 -0.2654
   12SOL     OW  174   2.477   0.001   1.062 -0.0917 -0.0846 -0.3269
   12SOL    HW2  175   2.531   0.068   1.103  0.9092 -0.6194 -0.7384
   12SOL    HW3  176   2.529  -0.029   0.988 -0.8935 -0.7276 -0.6402
   12SOL    MW4  177   2.491   0.006   1.057 -0.0656 -0.2400 -0.4226
   13SOL     OW  178   3.469   1.961   0.815  0.1402 -0.4994  0.3592
   13SOL    HW2  179   3.470   2.052   0.844  0.3704 -0.7837  1.2616
   13SOL    HW3  180   3.486   1.966   0.721  1.2845  0.3300  0.5885
   13SOL    MW4  181   3.472   1.974   0.806  0.3216 -0.4274  0.5085
   14SOL     OW  182   0.537   3.528   0.513 -0.3187 -0.1355 -0.0653
   14SOL    HW2  183   0.575   3.488   0.434  0.3850  1.4225 -0.5425
   14SOL    HW3  184   0.457   3.570   0.482 -0.0809  0.4131  0.0526
   14SOL    MW4  185   0.532   3.529   0.498 -0.1944  0.1426 -0.1127
   15SOL     OW  186   1.526   0.454   0.891  0.0831  0.3612  0.0389
   15SOL    HW2  187   1.476   0.446   0.972 -0.9526 -0.1065 -0.6296
   15SOL    HW3  188   1.514   0.369   0.847  1.7539  0.1192  0.0314
   15SOL    MW4  189   1.518   0.442   0.896  0.1668  0.2676 -0.0503
   16SOL     OW  190   1.666   2.916   0.742 -0.0441  0.2667  0.5328
   16SOL    HW2  191   1.714   2.848   0.790 -0.1268 -1.0338 -1.1708
   16SOL    HW3  192   1.733   2.981   0.720  0.7446 -0.9069 -0.6918
   16SOL    MW4  193   1.681   2.915   0.745  0.0491 -0.0596  0.1465
   17SOL     OW  194   3.845   4.482   0.416 -0.3235 -0.5130 -0.0690
   17SOL    HW2  195   3.931   4.489   0.373 -0.0427  0.0732  0.5878
   17SOL    HW3  196   3.795   4.556   0.382 -0.9660 -1.4801 -1.3116
   17SOL    MW4  197   3.850   4.492   0.406 -0.3712 -0.5636 -0.1463
   18SOL     OW  198   2.154   3.214   0.647 -0.3374 -0.0754 -0.0735
   18SOL    HW2  199   2.130   3.154   0.577  1.5341  0.3693 -1.0939
   18SOL    HW3  200   2.095   3.289   0.636  0.7617  0.5352 -1.9275
   18SOL    MW4  201   2.143   3.216   0.637  0.0544  0.0639 -0.4528
   19SOL     OW  202   3.886   3.651   0.626  0.1544 -0.8993 -0.2429
   19SOL    HW2  203   3.903   3.616   0.539  1.6787  1.4452 -0.9196
   19SOL    HW3  204   3.961   3.623   0.678  0.0349 -0.9296 -0.0871
   19SOL    MW4  205   3.898   3.643   0.621  0.3397 -0.5941 -0.3116
   20SOL     OW  206   4.237   0.714   0.834  0.0622 -0.2995  0.0670
   20SOL    HW2  207   4.256   0.625   0.804 -0.6018 -1.1926  2.2059
   20SOL    HW3  208   4.287   0.770   0.774  1.5229 -2.1512 -0.5104
   20SOL    MW4  209   4.246   0.709   0.822  0.1674 -0.6616  0.2730
   21SOL     OW  210   1.039   3.296   0.853  0.4324 -0.6418 -0.3576
   21SOL    HW2  211   0.983   3.228   0.815 -0.2768  0.3799 -1.1871
   21SOL    HW3  212   1.079   3.254   0.930 -0.0764 -1.9494 -0.7855
   21SOL    MW4  213   1.037   3.281   0.858  0.2716 -0.6795 -0.5236
   22SOL     OW  214   2.333   0.040   0.760 -0.3383  0.1515 -0.2508
   22SOL    HW2  215   2.339   0.128   0.797 -0.8948  0.2104 -0.2851
   22SOL    HW3  216   2.275  -0.007   0.820 -1.4327  0.3153 -1.1612
   22SOL    MW4  217   2.326   0.045   0.773 -0.5560  0.1809 -0.3754
   23SOL     OW  218   0.512   2.605   0.447  0.7662 -0.2757 -0.0641
   23SOL    HW2  219   0.535   2.599   0.539 -0.1576  0.9842  0.2612
   23SOL    HW3  220   0.565   2.537   0.404  0.3131 -1.6504  1.5426
   23SOL    MW4  221   0.522   2.596   0.453  0.5845 -0.2909  0.1908
   24SOL     OW  222   3.147   2.585   0.539 -0.2946  0.3911 -0.5430
   24SOL    HW2  223   3.136   2.623   0.452  1.3449 -0.4481 -1.1377
   24SOL    HW3  224   3.239   2.556   0.541  0.2913  2.2669  2.2148
   24SOL    MW4  225   3.158   2.586   0.528 -0.0010  0.5276 -0.2576
   25SOL     OW  226   3.459   4.657   0.417  0.0761  0.6311  0.1542
   25SOL    HW2  227   3.443   4.563   0.425  1.4241  0.3940  0.1774
   25SOL    HW3  228   3.373   4.694   0.396 -0.6367 -0.4920  1.0118
   25SOL    MW4  229   3.445   4.650   0.415  0.1600  0.4516  0.2704
   26SOL     OW  230   0.441   1.901   0.842  0.0674  0.0928  0.0995
   26SOL    HW2  231   0.441   1.912   0.937 -1.4616  1.4354 -0.0348
   26SOL    HW3  232   0.358   1.859   0.823 -0.6345  1.8450 -0.8421
   26SOL    MW4  233   0.430   1.897   0.852 -0.2269  0.5012 -0.0424
   27SOL     OW  234   4.228   2.222   0.128  0.2361  0.6356 -0.7740
   27SOL    HW2  235   4.280   2.164   0.073 -0.4500  0.1143 -0.8758
   27SOL    HW3  236   4.139   2.214   0.094 -0.4630 -0.8187  1.3530
   27SOL    MW4  237   4.223   2.213   0.116  0.0534  0.3750 -0.5068
   28SOL     OW  238   0.282   3.183   0.853  0.1846  0.4724  0.0016
   28SOL    HW2  239   0.311   3.101   0.814 -0.6272  1.0619 -1.9038
   28SOL    HW3  240   0.362   3.236   0.859  0.4164  0.1672 -0.3623
   28SOL    MW4  241   0.296   3.179   0.849  0.1081  0.5100 -0.2978
   29SOL     OW  242   2.939   1.332   0.711  0.3391 -0.3579 -0.4947
   29SOL    HW2  243   2.941   1.359   0.619 -0.9741  0.3865 -0.3204
   29SOL    HW3  244   2.851   1.297   0.724 -0.1663  1.3812  0.9696
   29SOL    MW4  245   2.928   1.331   0.701  0.0992 -0.0302 -0.2785
   30SOL     OW  246   2.967   3.822   0.798  0.0757 -0.2190 -0.1528
   30SOL    HW2  247   2.931   3.849   0.882  0.3308 -0.0262 -0.1055
   30SOL    HW3  248   3.057   3.797   0.817  0.6610  1.4275 -0.6519
   30SOL    MW4  249   2.974   3.822   0.811  0.1867  0.0236 -0.2124
   31SOL     OW  250   3.419   0.116   0.676  0.2045  0.0052 -0.3895
   31SOL    HW2  251   3.431   0.061   0.598  2.2336 -0.4271  0.2151
   31SOL    HW3  252   3.414   0.054   0.749 -1.2682  0.4378 -0.0989
   31SOL    MW4  253   3.420   0.100   0.675  0.2778  0.0052 -0.2713
   32SOL     OW  254   4.325   2.898   0.723  0.2403 -0.2883  0.4415
   32SOL    HW2  255   4.366   2.843   0.790 -0.7405 -0.9148  0.5381
   32SOL    HW3  256   4.361   2.866   0.640 -0.5047 -1.2551  0.4786
   32SOL    MW4  257   4.335   2.886   0.721  0.0114 -0.4983  0.4591
   33SOL     OW  258   0.582   3.235   0.569  0.3467  0.1224  0.3907
   33SOL    HW2  259   0.572   3.192   0.484 -0.0312 -1.1177  1.0589
   33SOL    HW3  260   0.543   3.322   0.556 -1.6313 -0.8039 -0.1184
   33SOL    MW4  261   0.575   3.241   0.556  0.0359 -0.1636  0.4116
   34SOL     OW  262   3.790   3.279   0.397 -0.4527  0.4885 -0.1290
   34SOL    HW2  263   3.832   3.356   0.360  0.1231 -0.2591 -1.0550
   34SOL    HW3  264   3.842   3.205   0.364 -0.7365 -0.2704  1.0885
   34SOL    MW4  265   3.803   3.279   0.388 -0.4141  0.2897 -0.0905
   35SOL     OW  266   1.508   2.082   0.028  0.3428 -0.3303 -0.0408
   35SOL    HW2  267   1.567   2.022   0.075  1.4447  0.8489  0.1023
   35SOL    HW3  268   1.530   2.069  -0.064  0.9987  0.2858  0.0271
   35SOL    MW4  269   1.519   2.072   0.022  0.5747 -0.0932 -0.0129
   36SOL     OW  270   2.217   3.519   0.851 -0.0906 -0.0535 -0.2925
   36SOL    HW2  271   2.262   3.527   0.767  1.6488  0.4935  0.6429
   36SOL    HW3  272   2.284   3.542   0.916 -1.5359  0.0362  1.2146
   36SOL    MW4  273   2.232   3.523   0.849 -0.0520  0.0303  0.0297
   37SOL     OW  274   0.209   1.731   0.293  0.3990 -0.0762 -0.2875
   37SOL    HW2  275   0.297   1.758   0.265 -0.0387 -0.3350 -1.9378
   37SOL    HW3  276   0.175   1.680   0.219 -2.0279  1.9223 -0.5974
   37SOL    MW4  277   0.216   1.728   0.280  0.0210  0.1533 -0.5461
   38SOL     OW  278   2.850   3.470   0.804  0.1197 -0.1153  0.7066
   38SOL    HW2  279   2.846   3.529   0.728  1.5413 -3.4754 -2.0792
   38SOL    HW3  280   2.941   3.471   0.831 -0.1016 -0.0842  1.4699
   38SOL    MW4  281   2.861   3.478   0.797  0.2782 -0.5543  0.4398
   39SOL     OW  282   0.108   3.929   0.667 -0.0372  0.7159  0.5736
   39SOL    HW2  283   0.164   3.915   0.743  1.6725 -0.4406 -0.8492
   39SOL    HW3  284   0.169   3.934   0.593 -1.5516  3.1216 -0.5931
   39SOL    MW4  285   0.123   3.928   0.667 -0.0115  0.8807  0.2320
   40SOL     OW  286   1.101   3.689   0.427  0.0897  0.0604 -0.0904
   40SOL    HW2  287   1.064   3.634   0.497  1.4792  0.6241  1.1016
   40SOL    HW3  288   1.181   3.643   0.401  0.7906  1.0418  0.3042
   40SOL    MW4  289   1.106   3.676   0.433  0.3655  0.2642  0.1190
   41SOL     OW  290   1.396   4.665   0.482  0.4033  0.2867 -0.0269
   41SOL    HW2  291   1.318   4.638   0.433 -1.4876  2.3215  1.7266
   41SOL    HW3  292   1.414   4.592   0.541 -1.0400  0.3357  0.5049
   41SOL    MW4  293   1.388   4.652   0.483 -0.0364  0.5617  0.2746
   42SOL     OW  294   3.285   3.212   0.503 -0.1510  0.0374  0.2877
   42SOL    HW2  295   3.370   3.253   0.485 -0.1838  0.4983  1.1857
   42SOL    HW3  296   3.306   3.138   0.560 -0.5024  1.0081  1.7074
   42SOL    MW4  297   3.299   3.208   0.508 -0.2017  0.2263  0.5935
   43SOL     OW  298   0.074   2.003   0.251 -0.3610 -0.2755  0.4872
   43SOL    HW2  299   0.120   2.080   0.285 -0.0718 -0.2708  0.0853
   43SOL    HW3  300   0.124   1.929   0.283 -0.9437 -0.3165  1.3218
   43SOL    MW4  301   0.086   2.004   0.260 -0.3997 -0.2801  0.5443
   44SOL     OW  302   2.342   0.987   0.780 -0.1559 -0.4409 -0.3173
   44SOL    HW2  303   2.416   0.935   0.813  0.1159  0.0630 -0.1255
   44SOL    HW3  304   2.267   0.929   0.786  0.2433 -0.9932 -0.5971
   44SOL    MW4  305   2.342   0.973   0.785 -0.0672 -0.4473 -0.3290
   45SOL     OW  306   1.862   2.738   0.879  0.1880  0.3211  0.3931
   45SOL    HW2  307   1.948   2.770   0.853 -0.1371 -0.1718 -1.3746
   45SOL    HW3  308   1.851   2.656   0.831 -2.1690  1.5023 -1.1670
   45SOL    MW4  309   1.872   2.732   0.869 -0.1659  0.4115 -0.0460
   46SOL     OW  310   2.545   3.756   0.642 -0.7464  0.1711 -0.0047
   46SOL    HW2  311   2.639   3.739   0.650 -0.9458 -0.7183  0.4540
   46SOL    HW3  312   2.505   3.670   0.632 -1.5600  0.5161  0.2204
   46SOL    MW4  313   2.552   3.743   0.642 -0.8800  0.0994  0.0855
   47SOL     OW  314   0.300   0.027   0.656  0.0454  0.4627  0.1056
   47SOL    HW2  315   0.234   0.036   0.587 -1.1906  2.2597  1.5007
   47SOL    HW3  316   0.294  -0.065   0.682 -1.6895  0.5116 -0.0274
   47SOL    MW4  317   0.290   0.016   0.650 -0.3466  0.7062  0.2722
   48SOL     OW  318   2.495   3.836   0.376 -0.4501  0.0964 -0.1027
   48SOL    HW2  319   2.524   3.769   0.314 -1.0124 -0.8004  0.5876
   48SOL    HW3  320   2.500   3.793   0.461 -0.0818  1.1831  0.4373
   48SOL    MW4  321   2.500   3.822   0.379 -0.4756  0.1216  0.0596
   49SOL     OW  322   1.751   4.537   0.383  0.2508 -0.0610 -0.7743
   49SOL    HW2  323   1.821   4.537   0.319 -0.0497  0.4766 -1.1088
   49SOL    HW3  324   1.740   4.629   0.407 -0.9182 -0.0295 -1.3769
   49SOL    MW4  325   1.759   4.549   0.378  0.0570  0.0138 -0.8979
   50SOL     OW  326   2.946   0.123   0.574  0.2405  0.0385  0.6756
   50SOL    HW2  327   2.993   0.043   0.551  0.2342 -0.0915  1.1113
   50SOL    HW3  328   3.014   0.186   0.596  0.2823  0.4276 -0.5238
   50SOL    MW4  329   2.961   0.121   0.574  0.2451  0.0727  0.5748
   51SOL     OW  330   3.177   2.784   1.157  0.2155  0.4942 -0.6521
   51SOL    HW2  331   3.178   2.805   1.064 -0.7034 -1.8851 -1.2481
   51SOL    HW3  332   3.098   2.826   1.191  1.7858  3.3370 -0.4156
   51SOL    MW4  333   3.167   2.792   1.150  0.3016  0.5553 -0.6996
   52SOL     OW  334   3.424   2.245   0.881 -0.1583  0.2339 -0.3131
   52SOL    HW2  335   3.501   2.299   0.860  0.1357 -0.4470 -1.0286
   52SOL    HW3  336   3.403   2.268   0.972  0.3973  1.0188 -0.3709
   52SOL    MW4  337   3.432   2.256   0.890 -0.0463  0.2477 -0.4151
   53SOL     OW  338   0.419   1.270   0.351 -0.0644  0.3797  0.0078
   53SOL    HW2  339   0.348   1.208   0.368  1.3692 -1.4669 -0.7227
   53SOL    HW3  340   0.397   1.309   0.266 -0.0354 -0.4243 -0.3689
   53SOL    MW4  341   0.406   1.267   0.342  0.1286  0.0300 -0.1383
   54SOL     OW  342   0.166   2.569   0.792  0.2362 -0.0727  0.1266
   54SOL    HW2  343   0.095   2.606   0.845 -0.8959 -0.7797 -0.8775
   54SOL    HW3  344   0.131   2.568   0.703  1.1567 -1.3412 -0.2220
   54SOL    MW4  345   0.152   2.574   0.788  0.2083 -0.3333 -0.0519
   55SOL     OW  346   4.222   1.313   1.174 -0.1534  0.0377  0.7060
   55SOL    HW2  347   4.152   1.260   1.136 -1.7973  0.8738  2.4842
   55SOL    HW3  348   4.210   1.304   1.269  0.5629  2.2347  1.0260
   55SOL    MW4  349   4.211   1.305   1.181 -0.2761  0.4379  0.9829
   56SOL     OW  350   4.101   0.066   0.744  0.0529 -0.1045  0.0084
   56SOL    HW2  351   4.194   0.051   0.759  0.0325  0.0408  0.2840
   56SOL    HW3  352   4.092   0.068   0.649  0.1729 -1.0634 -0.0242
   56SOL    MW4  353   4.112   0.064   0.734  0.0658 -0.2118  0.0405
   57SOL     OW  354   3.728   3.872   0.277  0.0928  0.2029  0.2787
   57SOL    HW2  355   3.724   3.889   0.182  0.1095  1.0067  0.4192
   57SOL    HW3  356   3.807   3.918   0.305 -0.0610  0.1842  0.7348
   57SOL    MW4  357   3.738   3.880   0.268  0.0749  0.3066  0.3574
   58SOL     OW  358   0.043   3.509   0.491  0.0239 -0.0423  0.2299
   58SOL    HW2  359   0.070   3.452   0.563 -0.0505 -0.0094  0.2837
   58SOL    HW3  360   0.113   3.573   0.483  0.8980 -1.1078 -0.8902
   58SOL    MW4  361   0.056   3.510   0.499  0.1294 -0.1786  0.0893
   59SOL     OW  362   1.717   3.309   0.512  0.2474  0.4282 -0.5811
   59SOL    HW2  363   1.806   3.333   0.534  0.1276 -0.2237  0.6303
   59SOL    HW3  364   1.666   3.331   0.590 -0.2921 -1.2170 -0.4405
   59SOL    MW4  365   1.722   3.315   0.525  0.1605  0.1252 -0.4027
   60SOL     OW  366   0.968   2.846   0.680  0.2111  0.1506  0.2857
   60SOL    HW2  367   0.990   2.800   0.600 -0.6636  0.7352 -0.3000
   60SOL    HW3  368   0.930   2.779   0.738  0.5316 -0.2023  0.0846
   60SOL    MW4  369   0.966   2.831   0.677  0.1380  0.1810  0.1819
   61SOL     OW  370   2.809   2.382   0.474 -0.4443  0.7377  0.5499
   61SOL    HW2  371   2.842   2.300   0.439 -0.9936  1.0587 -0.7488
   61SOL    HW3  372   2.882   2.444   0.462 -0.7758  0.9461 -0.4133
   61SOL    MW4  373   2.823   2.380   0.468 -0.5610  0.8073  0.2515
   62SOL     OW  374   2.673   1.260   0.702 -0.3289 -0.4378  0.4141
   62SOL    HW2  375   2.619   1.243   0.625 -1.0377  1.4408  0.4852
   62SOL    HW3  376   2.614   1.303   0.764  0.5455 -0.8669  1.5523
   62SOL    MW4  377   2.658   1.263   0.700 -0.3071 -0.2466  0.5737
   63SOL     OW  378   1.596   3.483   0.342  0.3716  0.6999  0.0955
   63SOL    HW2  379   1.601   3.446   0.253  1.4981  1.7431 -0.2846
   63SOL    HW3  380   1.633   3.415   0.398 -2.9795 -1.1828  0.1665
   63SOL    MW4  381   1.601   3.469   0.337  0.0782  0.5894  0.0547
   64SOL     OW  382   0.018   2.716   1.184  0.0370  0.3580 -0.4180
   64SOL    HW2  383   0.011   2.624   1.208 -0.5110  0.3440 -0.6098
   64SOL    HW3  384   0.108   2.741   1.206 -0.1964  0.1213  0.8443
   64SOL    MW4  385   0.029   2.707   1.190 -0.0660  0.3247 -0.2768
   65SOL     OW  386   0.834   1.377   0.460 -0.1018 -0.0150 -0.1997
   65SOL    HW2  387   0.889   1.306   0.426 -0.7689 -0.3883 -0.5031
   65SOL    HW3  388   0.857   1.383   0.552  0.8496  0.1976 -0.4455
   65SOL    MW4  389   0.844   1.369   0.467 -0.0644 -0.0362 -0.2721
   66SOL     OW  390   2.707   0.138   0.702 -0.2632 -0.2353 -0.1779
   66SOL    HW2  391   2.697   0.224   0.743 -0.4271 -1.0698  1.5525
   66SOL    HW3  392   2.801   0.131   0.684  0.1784 -0.8542  2.2778
   66SOL    MW4  393   2.719   0.149   0.705 -0.2267 -0.4271  0.3744
   67SOL     OW  394   2.420   3.237   0.615 -0.2259  0.5984  0.2290
   67SOL    HW2  395   2.425   3.238   0.519  0.9223  1.7486  0.2962
   67SOL    HW3  396   2.326   3.238   0.634 -0.4844 -0.6502 -0.8863
   67SOL    MW4  397   2.408   3.237   0.605 -0.1082  0.5853  0.0907
   68SOL     OW  398   0.371   2.925   0.761  0.0198 -0.0545 -0.1182
   68SOL    HW2  399   0.385   2.912   0.667 -3.0509 -2.2159 -0.3633
   68SOL    HW3  400   0.381   2.838   0.799  0.9444  0.7561  1.5472
   68SOL    MW4  401   0.374   2.912   0.753 -0.2634 -0.2329  0.0692
   69SOL     OW  402   2.458   1.288   1.241  0.7731 -0.2531 -0.1575
   69SOL    HW2  403   2.543   1.253   1.215  0.3203 -0.2984 -1.6166
   69SOL    HW3  404   2.461   1.380   1.215  0.4240 -0.2181 -0.0737
   69SOL    MW4  405   2.469   1.296   1.234  0.6676 -0.2545 -0.3389
   70SOL     OW  406   1.131   1.304   0.396  0.1964  0.0186  0.0084
   70SOL    HW2  407   1.215   1.349   0.405 -0.1985  0.7081  0.2540
   70SOL    HW3  408   1.131   1.272   0.305 -0.3519  2.2206 -0.8098
   70SOL    MW4  409   1.142   1.306   0.385  0.0719  0.3999 -0.0672
   71SOL     OW  410   2.229   1.888   1.072  0.0057 -0.7258  0.0858
   71SOL    HW2  411   2.214   1.874   0.979  1.1225 -0.2019 -0.1869
   71SOL    HW3  412   2.151   1.933   1.103  0.3152  0.5461 -0.9415
   71SOL    MW4  413   2.217   1.892   1.064  0.1938 -0.4888 -0.0857
   72SOL     OW  414   0.162   2.309   0.878 -0.1209  0.2987 -0.5641
   72SOL    HW2  415   0.173   2.402   0.858  0.7855  0.1978 -0.5657
   72SOL    HW3  416   0.240   2.267   0.841 -1.0771 -0.6234 -1.5739
   72SOL    MW4  417   0.174   2.316   0.871 -0.1275  0.1640 -0.6976
   73SOL     OW  418   0.965   4.400   0.458  0.1114  0.8441 -0.1930
   73SOL    HW2  419   1.003   4.400   0.546 -0.4978  1.6152  0.0710
   73SOL    HW3  420   0.932   4.311   0.446  0.1357  0.7570  0.3865
   73SOL    MW4  421   0.966   4.388   0.468  0.0343  0.9341 -0.0817
   74SOL     OW  422   0.617   3.110   1.068 -0.4349 -0.0082 -0.1176
   74SOL    HW2  423   0.703   3.146   1.089 -1.6702  2.3081  1.2110
   74SOL    HW3  424   0.620   3.096   0.973  0.8166  1.7479 -0.3717
   74SOL    MW4  425   0.629   3.113   1.058 -0.4327  0.5293  0.0242
   75SOL     OW  426   0.335   4.420   0.708  0.1731  0.1636 -0.0384
   75SOL    HW2  427   0.255   4.384   0.746 -0.0869  1.1979  0.4267
   75SOL    HW3  428   0.334   4.392   0.617  1.0468 -2.7610  0.8076
   75SOL    MW4  429   0.324   4.412   0.701  0.2541 -0.0863  0.1345
   76SOL     OW  430   1.589   3.847   1.159  0.1907 -0.2278 -0.2867
   76SOL    HW2  431   1.603   3.841   1.065 -0.6758  1.0722 -0.5127
   76SOL    HW3  432   1.581   3.757   1.188 -1.4572 -0.5846 -1.7591
   76SOL    MW4  433   1.590   3.834   1.151 -0.1410 -0.1035 -0.5108
   77SOL     OW  434   3.254   1.759   0.842 -0.0183 -0.0918  0.3886
   77SOL    HW2  435   3.212   1.799   0.918 -0.3139 -1.1311  0.7888
   77SOL    HW3  436   3.327   1.816   0.821 -0.3711  0.5879  1.0143
   77SOL    MW4  437   3.258   1.772   0.849 -0.1040 -0.1392  0.5239
   78SOL     OW  438   2.027   3.338   0.891  0.3740 -0.5579 -0.2919
   78SOL    HW2  439   1.958   3.386   0.936  0.5645 -2.2354  1.8986
   78SOL    HW3  440   2.102   3.397   0.891  0.3486 -0.4981  1.5838
   78SOL    MW4  441   2.028   3.352   0.897  0.3958 -0.7713  0.2446
   79SOL     OW  442   0.503   3.195   0.300 -0.1444 -0.1021  0.2114
   79SOL    HW2  443   0.558   3.269   0.277 -0.6597  0.6295  1.2741
   79SOL    HW3  444   0.413   3.227   0.289 -0.3826 -1.2604 -1.4489
   79SOL    MW4  445   0.498   3.209   0.295 -0.2438 -0.1585  0.1325
   80SOL     OW  446   0.186   1.799   0.785 -0.3614 -0.1479  0.2233
   80SOL    HW2  447   0.158   1.794   0.694  0.7699 -0.5619 -0.1051
   80SOL    HW3  448   0.195   1.708   0.813  0.4257 -0.0197  0.3957
   80SOL    MW4  449   0.183   1.786   0.777 -0.1083 -0.1856  0.2028
   81SOL     OW  450   2.919   2.139   0.426 -0.0799 -0.2505 -0.1415
   81SOL    HW2  451   2.903   2.050   0.395  2.4134 -0.2260 -1.6515
   81SOL    HW3  452   2.949   2.127   0.516  1.5459 -1.0799 -0.7646
   81SOL    MW4  453   2.921   2.126   0.434  0.4637 -0.3569 -0.4230
   82SOL     OW  454   0.161   4.148   0.330  0.3482  0.0481  0.5612
   82SOL    HW2  455   0.077   4.107   0.352  0.2528  0.0630  0.2364
   82SOL    HW3  456   0.137   4.233   0.291  0.4392 -0.6665 -1.1057
   82SOL    MW4  457   0.147   4.154   0.328  0.3476 -0.0448  0.2984
   83SOL     OW  458   1.182   3.975   0.429 -0.3658 -0.0331 -0.8944
   83SOL    HW2  459   1.203   4.004   0.517 -0.7864 -0.6086 -0.6011
   83SOL    HW3  460   1.141   3.889   0.441 -3.7224  1.4441 -1.3524
   83SOL    MW4  461   1.179   3.968   0.442 -0.8640  0.0856 -0.9161
   84SOL     OW  462   1.032   3.082   0.434 -0.0640 -0.7726 -0.2199
   84SOL    HW2  463   1.046   3.011   0.498  0.9504 -1.6096 -1.3567
   84SOL    HW3  464   1.000   3.038   0.356 -3.6236  0.4941  0.3984
   84SOL    MW4  465   1.029   3.067   0.432 -0.3999 -0.7162 -0.2883
   85SOL     OW  466   3.842   0.499   0.809 -0.1505 -0.0275  0.1280
   85SOL    HW2  467   3.756   0.462   0.825  0.3056 -0.7744  0.8824
   85SOL    HW3  468   3.903   0.430   0.832  0.6694  0.6007 -0.1069
   85SOL    MW4  469   3.839   0.485   0.814  0.0179 -0.0432  0.1965
   86SOL     OW  470   3.238   3.770   0.865  0.0448  0.2673 -0.0733
   86SOL    HW2  471   3.302   3.803   0.802 -0.2013  0.2747 -0.3198
   86SOL    HW3  472   3.259   3.816   0.946  0.9435 -0.4216  0.0930
   86SOL    MW4  473   3.249   3.781   0.868  0.1309  0.1774 -0.0839
   87SOL     OW  474   2.251   2.450   1.207  0.1063  0.4297 -0.3570
   87SOL    HW2  475   2.257   2.447   1.302 -2.0748 -1.1349 -0.2352
   87SOL    HW3  476   2.323   2.394   1.176 -0.5019 -0.7992  0.4348
   87SOL    MW4  477   2.261   2.442   1.215 -0.2618  0.0613 -0.2364
   88SOL     OW  478   2.124   4.552   0.870 -0.0266  0.2631 -0.5283
   88SOL    HW2  479   2.159   4.484   0.812  1.2794  1.0166 -0.6508
   88SOL    HW3  480   2.048   4.587   0.823  0.0286 -0.2723 -1.0286
   88SOL    MW4  481   2.119   4.548   0.856  0.1531  0.2918 -0.6105
   89SOL     OW  482   3.092   1.305   0.943  0.2272  0.1108 -0.4027
   89SOL    HW2  483   3.033   1.305   0.867  0.9462  0.3877 -0.9743
   89SOL    HW3  484   3.158   1.371   0.922  0.5446  0.0506  0.3833
   89SOL    MW4  485   3.093   1.314   0.930  0.3641  0.1392 -0.3744
   90SOL     OW  486   4.287   0.455   0.728  0.2053  0.8237  0.2810
   90SOL    HW2  487   4.290   0.407   0.645  0.3296 -0.1399  0.8374
   90SOL    HW3  488   4.203   0.430   0.767 -0.3334  2.1027 -0.0422
   90SOL    MW4  489   4.276   0.446   0.722  0.1507  0.8653  0.3117
   91SOL     OW  490   2.426   4.443   0.507  0.1796  0.2691 -0.1733
   91SOL    HW2  491   2.459   4.523   0.547 -2.0781  0.2729  1.7909
   91SOL    HW3  492   2.357   4.472   0.447  1.0406 -0.0370 -1.3402
   91SOL    MW4  493   2.421   4.457   0.504 -0.0048  0.2294 -0.0681
   92SOL     OW  494   4.264   3.098   1.025 -0.0892  0.4554 -0.1009
   92SOL    HW2  495   4.202   3.165   1.054  0.7708  0.8960  0.7488
   92SOL    HW3  496   4.291   3.127   0.938 -0.5246  0.6415 -0.1793
   92SOL    MW4  497   4.259   3.110   1.018 -0.0339  0.5381  0.0008
   93SOL     OW  498   3.454   1.527   0.495  0.2700 -0.3021 -0.2474
   93SOL    HW2  499   3.454   1.620   0.471 -0.3574 -0.2616 -0.1063
   93SOL    HW3  500   3.486   1.526   0.586  3.3604 -0.5237 -1.2923
   93SOL    MW4  501   3.458   1.539   0.504  0.5953 -0.3260 -0.3666
   94SOL     OW  502   2.357   1.872   0.362 -0.4084  0.3607  0.2284
   94SOL    HW2  503   2.313   1.827   0.434 -0.4335  0.7126  0.4316
   94SOL    HW3  504   2.403   1.802   0.315 -1.7542 -0.1193 -0.4049
   94SOL    MW4  505   2.358   1.857   0.365 -0.5891  0.3437  0.1716
   95SOL     OW  506   4.425   2.058   0.012  0.2728  0.1980  0.0730
   95SOL    HW2  507   4.391   1.968   0.008 -0.4948  0.4883  0.0152
   95SOL    HW3  508   4.486   2.057   0.086 -0.1383 -0.2382  0.4131
   95SOL    MW4  509   4.429   2.046   0.021  0.1178  0.1788  0.1103
   96SOL     OW  510   1.602   2.334   1.090 -0.0890 -0.1453  0.5521
   96SOL    HW2  511   1.607   2.247   1.131 -1.3854 -0.2080  0.5984
   96SOL    HW3  512   1.678   2.381   1.124  0.4216 -1.1410  0.8130
   96SOL    MW4  513   1.613   2.329   1.100 -0.1926 -0.2849  0.5926
   97SOL     OW  514   2.475   3.954   0.820 -0.0377 -0.4543 -0.0780
   97SOL    HW2  515   2.541   4.018   0.793 -1.0639  0.4921 -0.3907
   97SOL    HW3  516   2.481   3.884   0.756 -1.0331  0.8035 -1.5915
   97SOL    MW4  517   2.484   3.953   0.808 -0.3042 -0.1633 -0.3188
   98SOL     OW  518   1.681   0.572   0.419  0.0819  0.2906  0.3957
   98SOL    HW2  519   1.593   0.539   0.435 -0.3571  0.4536 -1.5935
   98SOL    HW3  520   1.717   0.515   0.352  1.5201  0.2020  1.2138
   98SOL    MW4  521   1.674   0.560   0.412  0.2136  0.3004  0.2412
   99SOL     OW  522   0.409   2.685   0.866  0.0414 -0.0330 -0.0186
   99SOL    HW2  523   0.331   2.638   0.836  0.3732 -0.8983  0.4721
   99SOL    HW3  524   0.482   2.640   0.824  0.2368  1.3618 -1.2369
   99SOL    MW4  525   0.408   2.673   0.857  0.1110  0.0370 -0.1146
  100SOL     OW  526   3.553   2.001   0.557 -0.7636  0.1559  0.2837
  100SOL    HW2  527   3.647   1.984   0.561 -0.6710  0.5879 -0.0006
  100SOL    HW3  528   3.518   1.932   0.500 -0.6483 -0.1161  0.5411
  100SOL    MW4  529   3.561   1.990   0.550 -0.7360  0.1770  0.2800
  101SOL     OW  530   1.256   3.142   0.587  0.2842 -0.1692 -0.2758
  101SOL    HW2  531   1.183   3.142   0.525  0.0811 -0.0822 -0.0350
  101SOL    HW3  532   1.255   3.229   0.626  1.0934  0.1553 -0.9482
  101SOL    MW4  533   1.246   3.153   0.584  0.3642 -0.1149 -0.3327
  102SOL     OW  534   2.694   1.149   1.149 -0.0147  0.5281  0.1326
  102SOL    HW2  535   2.714   1.113   1.063 -0.7028  1.0916 -0.2690
  102SOL    HW3  536   2.760   1.217   1.162  1.2811 -0.8565  0.8903
  102SOL    MW4  537   2.705   1.153   1.139  0.0658  0.4200  0.1798
  103SOL     OW  538   2.046   2.074   0.719 -0.9856  0.5861 -0.0740
  103SOL    HW2  539   1.964   2.029   0.742 -0.3981  0.4314  1.8391
  103SOL    HW3  540   2.041   2.157   0.766  0.2219  0.3177  0.5358
  103SOL    MW4  541   2.035   2.079   0.728 -0.7484  0.5300  0.2589
  104SOL     OW  542   1.580   1.118   0.636 -0.0909  0.6284  0.3803
  104SOL    HW2  543   1.577   1.137   0.542  1.1664  0.5339  0.3099
  104SOL    HW3  544   1.512   1.174   0.674 -1.2156 -0.0008 -0.6926
  104SOL    MW4  545   1.571   1.128   0.628 -0.0733  0.5331  0.2295
  105SOL     OW  546   0.603   2.578   0.719  0.2776  0.4871  0.1105
  105SOL    HW2  547   0.681   2.625   0.747  0.8446 -0.2804 -0.1412
  105SOL    HW3  548   0.612   2.491   0.759  0.4247 -0.1787 -1.3481
  105SOL    MW4  549   0.614   2.572   0.728  0.3718  0.2980 -0.1151
  106SOL     OW  550   3.832   0.755   1.190  0.3468 -0.1349 -0.7011
  106SOL    HW2  551   3.757   0.798   1.231  0.1416 -0.5227 -0.6595
  106SOL    HW3  552   3.908   0.808   1.215  0.2481 -0.4618  0.3387
  106SOL    MW4  553   3.832   0.768   1.199  0.3066 -0.2291 -0.5585
  107SOL     OW  554   0.214   1.538   0.856  0.0074  0.3996  0.1871
  107SOL    HW2  555   0.294   1.501   0.817  1.6212  2.2654  1.6213
  107SOL    HW3  556   0.152   1.465   0.857  1.5467 -0.9897 -1.3389
  107SOL    MW4  557   0.216   1.523   0.851  0.4234  0.4627  0.1750
  108SOL     OW  558   0.252   0.515   1.244  0.5439 -0.1082  0.4351
  108SOL    HW2  559   0.256   0.603   1.207  1.4459 -0.0097  0.7385
  108SOL    HW3  560   0.172   0.477   1.208  1.2857  0.0603 -1.4590
  108SOL    MW4  561   0.242   0.522   1.234  0.7608 -0.0730  0.2252
  109SOL     OW  562   0.900   0.785   0.422  0.4270  0.1246  0.1587
  109SOL    HW2  563   0.841   0.799   0.496  0.3449  0.4048  0.0440
  109SOL    HW3  564   0.966   0.854   0.431 -0.4086  1.0716 -0.8412
  109SOL    MW4  565   0.901   0.796   0.433  0.3060  0.2865  0.0117
  110SOL     OW  566   1.962   3.420   0.590 -0.5653  0.7152  0.5120
  110SOL    HW2  567   2.029   3.445   0.526  1.5411 -3.4102  0.9234
  110SOL    HW3  568   1.961   3.492   0.653  2.5031  1.5475 -0.2958
  110SOL    MW4  569   1.971   3.433   0.590  0.1174  0.2809  0.4597
  111SOL     OW  570   2.031   1.328   0.719 -0.1501 -0.3082  0.0262
  111SOL    HW2  571   2.098   1.292   0.777  0.4258  0.6686 -0.0191
  111SOL    HW3  572   2.015   1.416   0.753 -0.8079 -0.2332 -0.4702
  111SOL    MW4  573   2.038   1.335   0.731 -0.1609 -0.1694 -0.0452
  112SOL     OW  574   3.655   1.824   0.226  0.0159 -0.2126 -0.1113
  112SOL    HW2  575   3.739   1.847   0.186 -1.1502 -0.5693 -2.8755
  112SOL    HW3  576   3.652   1.729   0.222 -0.7299 -0.1769 -0.5079
  112SOL    MW4  577   3.665   1.815   0.220 -0.2363 -0.2548 -0.5284
  113SOL     OW  578   2.781   1.635   0.429  0.3424  0.1479 -0.3629
  113SOL    HW2  579   2.839   1.560   0.442  0.9536  0.5490 -0.7060
  113SOL    HW3  580   2.756   1.662   0.517  0.1044 -0.4698 -0.2382
  113SOL    MW4  581   2.786   1.629   0.442  0.3915  0.1193 -0.3916
  114SOL     OW  582   1.026   1.638   0.432  0.1661  0.5455  0.1884
  114SOL    HW2  583   1.044   1.551   0.396 -0.0748  0.7831 -0.5241
  114SOL    HW3  584   0.931   1.649   0.422  0.3329  1.3027 -0.6901
  114SOL    MW4  585   1.016   1.628   0.426  0.1564  0.6769 -0.0215
  115SOL     OW  586   0.885   0.595   0.781  0.6818 -0.1193 -0.5280
  115SOL    HW2  587   0.837   0.669   0.743  0.2867  0.1818  0.5116
  115SOL    HW3  588   0.973   0.628   0.794  0.6895 -0.0624 -0.7256
  115SOL    MW4  589   0.890   0.609   0.778  0.6307 -0.0721 -0.4169
  116SOL     OW  590   0.105   4.317   0.835  0.0983 -0.0031  0.2413
  116SOL    HW2  591   0.052   4.246   0.799 -0.5654  0.5170  0.1627
  116SOL    HW3  592   0.077   4.322   0.927 -0.8415  1.0243 -0.0856
  116SOL    MW4  593   0.094   4.308   0.842 -0.1133  0.2007  0.1879
  117SOL     OW  594   1.167   0.349   0.462  0.3874 -0.0754 -0.0479
  117SOL    HW2  595   1.251   0.392   0.445 -0.0818  0.4312 -1.1496
  117SOL    HW3  596   1.105   0.420   0.475  0.0951 -0.4482  0.6123
  117SOL    MW4  597   1.170   0.364   0.461  0.2871 -0.0578 -0.1061
  118SOL     OW  598   4.420   4.120   0.737  0.1880 -0.2431 -0.5471
  118SOL    HW2  599   4.371   4.132   0.656 -0.8212 -1.8870 -0.2018
  118SOL    HW3  600   4.485   4.052   0.716 -0.3143 -0.9364  0.0977
  118SOL    MW4  601   4.423   4.112   0.724 -0.0114 -0.5517 -0.4165
  119SOL     OW  602   0.860   0.040   0.607 -0.0584  0.0529  0.2342
  119SOL    HW2  603   0.920   0.059   0.535 -0.4811  1.5695  0.2582
  119SOL    HW3  604   0.788  -0.009   0.566 -0.2007  0.7366 -0.3474
  119SOL    MW4  605   0.858   0.036   0.592 -0.1330  0.3432  0.1606
  120SOL     OW  606   0.468   3.398   0.873 -0.2008 -0.1588  0.0533
  120SOL    HW2  607   0.470   3.418   0.967  0.6795  0.5652 -0.1184
  120SOL    HW3  608   0.560   3.397   0.847 -0.4207 -0.8051 -0.7175
  120SOL    MW4  609   0.480   3.400   0.882 -0.1137 -0.1485 -0.0711
  121SOL     OW  610   2.747   4.382   0.857  0.5814 -0.0442 -0.0363
  121SOL    HW2  611   2.726   4.354   0.946  0.9646  1.0386  0.4013
  121SOL    HW3  612   2.695   4.461   0.843  0.3734 -0.3168 -0.8460
  121SOL    MW4  613   2.738   4.389   0.867  0.6044  0.0629 -0.0855
  122SOL     OW  614   2.221   1.199   1.136 -0.4307  0.0755 -0.5318
  122SOL    HW2  615   2.233   1.221   1.043 -1.9511  0.0475 -0.7419
  122SOL    HW3  616   2.300   1.232   1.178  0.6743 -0.6905 -1.9665
  122SOL    MW4  617   2.233   1.206   1.129 -0.4859 -0.0292 -0.7488
  123SOL     OW  618   1.798   2.712   1.161 -0.2108 -0.0766 -0.0442
  123SOL    HW2  619   1.832   2.708   1.071 -0.7149 -0.7579 -0.2112
  123SOL    HW3  620   1.814   2.625   1.196 -0.0985  0.1640  0.5010
  123SOL    MW4  621   1.804   2.700   1.154 -0.2624 -0.1345  0.0056
  124SOL     OW  622   0.734   0.813   0.648 -0.3590  0.0073 -0.2844
  124SOL    HW2  623   0.659   0.758   0.672 -0.1907 -0.0454  0.1168
  124SOL    HW3  624   0.704   0.902   0.664 -1.5070  0.2034 -3.2722
  124SOL    MW4  625   0.720   0.818   0.653 -0.4882  0.0262 -0.6257
  125SOL     OW  626   3.876   0.521   0.530  0.1465 -0.1733  0.0408
  125SOL    HW2  627   3.829   0.600   0.506  0.8175  0.4726  0.7968
  125SOL    HW3  628   3.871   0.519   0.626  2.5450  0.4950  0.2181
  125SOL    MW4  629   3.869   0.531   0.540  0.5515  0.0000  0.1639
  126SOL     OW  630   3.608   2.731   1.167  0.0812 -0.1919 -0.4445
  126SOL    HW2  631   3.601   2.641   1.197  1.9293 -0.0364  0.5469
  126SOL    HW3  632   3.529   2.774   1.201  0.0699 -1.0313  0.6006
  126SOL    MW4  633   3.597   2.725   1.176  0.3235 -0.2823 -0.1758
  127SOL     OW  634   0.249   0.273   0.287 -0.0380  0.8080 -0.2235
  127SOL    HW2  635   0.238   0.307   0.198 -0.1861  0.1169 -0.4744
  127SOL    HW3  636   0.171   0.218   0.301  2.0057 -2.5148 -1.2623
  127SOL    MW4  637   0.237   0.270   0.277  0.2121  0.2784 -0.3937
  128SOL     OW  638   4.232   3.943   0.839 -0.8412 -0.2238  0.0560
  128SOL    HW2  639   4.301   3.994   0.796  0.3339 -2.2549 -0.5772
  128SOL    HW3  640   4.249   3.953   0.932 -0.0145 -0.2413 -0.0838
  128SOL    MW4  641   4.244   3.951   0.845 -0.5770 -0.4945 -0.0459
  129SOL     OW  642   0.936   1.387   0.731  0.1149 -0.3517 -0.3754
  129SOL    HW2  643   0.911   1.307   0.777 -0.5682 -0.5521 -1.0939
  129SOL    HW3  644   1.015   1.416   0.776  0.4382 -1.4952 -0.1732
  129SOL    MW4  645   0.943   1.380   0.743  0.0675 -0.5291 -0.4435
  130SOL     OW  646   2.985   4.453   0.765 -0.0289  0.2852  0.5437
  130SOL    HW2  647   3.012   4.524   0.823  1.1625 -2.1345  3.0548
  130SOL    HW3  648   2.899   4.426   0.799  0.4053 -0.7439  0.8451
  130SOL    MW4  649   2.977   4.459   0.777  0.1855 -0.1698  0.9147
  131SOL     OW  650   4.076   0.395   1.116  0.1148 -0.2675 -0.1537
  131SOL    HW2  651   4.090   0.313   1.164  0.7406 -0.9809 -1.5260
  131SOL    HW3  652   4.147   0.452   1.145  1.1025 -1.0534 -0.9814
  131SOL    MW4  653   4.087   0.392   1.126  0.3281 -0.4653 -0.4439
  132SOL     OW  654   2.218   4.275   1.046 -0.3558  0.1074 -0.1976
  132SOL    HW2  655   2.152   4.307   1.108  1.1059  1.2557  0.7921
  132SOL    HW3  656   2.193   4.312   0.962 -0.0317  1.9105  0.4956
  132SOL    MW4  657   2.206   4.284   1.043 -0.1202  0.4973  0.0244
  133SOL     OW  658   4.232   1.685   0.844 -0.9359  0.1852  0.4309
  133SOL    HW2  659   4.294   1.757   0.832  0.0696 -0.9112 -1.2053
  133SOL    HW3  660   4.258   1.643   0.926 -0.8922  1.0420  0.8606
  133SOL    MW4  661   4.243   1.689   0.853 -0.7977  0.1537  0.2717
  134SOL     OW  662   2.713   0.872   1.278 -0.2896  0.2482  0.6231
  134SOL    HW2  663   2.715   0.967   1.262  0.0040  0.2371  0.5908
  134SOL    HW3  664   2.637   0.841   1.228  1.9198 -0.1082 -2.6870
  134SOL    MW4  665   2.703   0.881   1.269  0.0408  0.1997  0.1820
  135SOL     OW  666   4.230   4.097   0.517 -0.4114  0.1637 -0.1239
  135SOL    HW2  667   4.166   4.046   0.468 -0.3975 -0.2515  0.2827
  135SOL    HW3  668   4.198   4.187   0.511  0.1036  0.2547 -1.6678
  135SOL    MW4  669   4.217   4.102   0.510 -0.3419  0.1211 -0.2740
  136SOL     OW  670   2.565   1.225   0.438 -0.2167  0.0761 -0.5993
  136SOL    HW2  671   2.512   1.301   0.418  0.1382  0.9419  1.6783
  136SOL    HW3  672   2.502   1.154   0.452 -0.5942  0.2296 -1.4953
  136SOL    MW4  673   2.550   1.226   0.437 -0.2198  0.2105 -0.4170
  137SOL     OW  674   4.125   4.543   0.325 -0.1924  0.0067 -0.2677
  137SOL    HW2  675   4.159   4.479   0.388  0.4769 -0.8845 -1.5024
  137SOL    HW3  676   4.107   4.621   0.377 -1.4723 -1.3165  1.3722
  137SOL    MW4  677   4.127   4.545   0.340 -0.2728 -0.2856 -0.2142
  138SOL     OW  678   1.159   1.541   1.110 -0.1191 -0.3228 -0.1692
  138SOL    HW2  679   1.077   1.587   1.131  0.1100 -0.3156  0.7386
  138SOL    HW3  680   1.155   1.461   1.162  0.5684 -0.2035  0.0598
  138SOL    MW4  681   1.147   1.537   1.120  0.0020 -0.3060 -0.0193
  139SOL     OW  682   0.307   1.352   0.082 -0.2134  0.0054  0.4164
  139SOL    HW2  683   0.253   1.431   0.074 -0.5011 -0.3489 -1.3670
  139SOL    HW3  684   0.380   1.366   0.022  1.6847  0.4310  2.7232
  139SOL    MW4  685   0.310   1.364   0.073 -0.0009  0.0148  0.4854
  140SOL     OW  686   2.466   2.271   1.148  0.2851 -0.6307  0.7036
  140SOL    HW2  687   2.482   2.177   1.153 -1.1062 -0.9356 -0.2030
  140SOL    HW3  688   2.473   2.291   1.054 -0.4827 -0.0336  0.7708
  140SOL    MW4  689   2.469   2.261   1.136  0.0002 -0.5922  0.5928
  141SOL     OW  690   0.862   3.307   0.536 -0.4453  0.4440 -0.0980
  141SOL    HW2  691   0.909   3.239   0.488 -1.4570  0.1018 -0.6043
  141SOL    HW3  692   0.807   3.260   0.598 -0.1533  0.8496  0.4848
  141SOL    MW4  693   0.861   3.292   0.538 -0.5403  0.4523 -0.0879
  142SOL     OW  694   3.096   0.020   0.865 -0.2968  0.1459 -0.1319
  142SOL    HW2  695   3.103   0.104   0.820  0.1021  0.0343 -0.2733
  142SOL    HW3  696   3.186  -0.009   0.876 -0.4431 -0.3316 -0.2080
  142SOL    MW4  697   3.109   0.028   0.860 -0.2635  0.0681 -0.1606
  143SOL     OW  698   2.775   2.657   0.851 -0.4483 -0.5019  0.1974
  143SOL    HW2  699   2.870   2.657   0.841 -0.4130  1.8573  0.1425
  143SOL    HW3  700   2.761   2.677   0.944 -0.8941 -0.3898  0.1071
  143SOL    MW4  701   2.786   2.660   0.862 -0.5026 -0.1760  0.1782
  144SOL     OW  702   2.929   3.154   1.078 -0.8581  0.4175  0.5426
  144SOL    HW2  703   2.860   3.207   1.120 -1.1833 -1.0915  1.9569
  144SOL    HW3  704   2.935   3.075   1.132  0.9523 -0.1452 -0.4384
  144SOL    MW4  705   2.920   3.151   1.091 -0.6621  0.1440  0.5996
  145SOL     OW  706   1.078   2.017   0.557  0.1085 -0.5030  0.3025
  145SOL    HW2  707   1.077   1.940   0.614  1.2466 -1.0165 -0.3433
  145SOL    HW3  708   1.098   1.982   0.470 -1.2206  0.3135 -0.3471
  145SOL    MW4  709   1.080   2.002   0.553  0.0832 -0.4630  0.1316
  146SOL     OW  710   2.312   2.511   0.789 -0.1185 -0.2955  0.3608
  146SOL    HW2  711   2.305   2.602   0.818 -0.1608 -0.2728  0.2791
  146SOL    HW3  712   2.304   2.516   0.694 -0.0714 -0.3803  0.3529
  146SOL    MW4  713   2.310   2.524   0.781 -0.1178 -0.3040  0.3490
  147SOL     OW  714   2.806   3.656   0.599  0.1697  0.0041  0.1131
  147SOL    HW2  715   2.854   3.715   0.657  1.1028  0.3226 -0.9643
  147SOL    HW3  716   2.865   3.643   0.524 -1.5174  0.5897 -1.3436
  147SOL    MW4  717   2.821   3.662   0.597  0.0703  0.1233 -0.2213
  148SOL     OW  718   4.357   0.857   0.627 -0.3728  0.2248 -0.4080
  148SOL    HW2  719   4.339   0.823   0.540 -1.3914 -1.8564  0.5775
  148SOL    HW3  720   4.451   0.844   0.639 -0.4838 -0.7946 -0.6486
  148SOL    MW4  721   4.367   0.851   0.617 -0.5221 -0.1842 -0.3098
  149SOL     OW  722   1.823   0.145   0.498  0.4474 -0.7353  0.1889
  149SOL    HW2  723   1.853   0.120   0.586  0.4010  0.9719  0.7028
  149SOL    HW3  724   1.899   0.187   0.458 -0.1159  0.2061  0.1086
  149SOL    MW4  725   1.837   0.147   0.504  0.3670 -0.3858  0.2460
  150SOL     OW  726   0.680   2.864   1.192  0.1706 -0.1450 -0.2305
  150SOL    HW2  727   0.641   2.940   1.150  0.7571 -0.1876 -0.8623
  150SOL    HW3  728   0.617   2.793   1.177 -0.6577  0.3404  0.8751
  150SOL    MW4  729   0.666   2.865   1.185  0.1387 -0.0868 -0.1680
  151SOL     OW  730   1.006   2.235   0.229  0.7379 -0.2490 -0.1630
  151SOL    HW2  731   0.991   2.327   0.250  1.6020 -0.4613  1.4508
  151SOL    HW3  732   0.940   2.187   0.279 -0.7000 -0.4464 -2.1692
  151SOL    MW4  733   0.995   2.241   0.238  0.6623 -0.3028 -0.2148
  152SOL     OW  734   3.184   1.162   1.157 -0.7476 -0.3176 -0.3594
  152SOL    HW2  735   3.266   1.202   1.187 -0.9844  0.2467 -0.4506
  152SOL    HW3  736   3.161   1.213   1.079 -1.8881  0.4060  0.4320
  152SOL    MW4  737   3.192   1.174   1.151 -0.9291 -0.1476 -0.2669
  153SOL     OW  738   2.822   1.191   0.325  0.1094  0.1519  0.1822
  153SOL    HW2  739   2.734   1.198   0.362  0.3608 -1.7594  1.1852
  153SOL    HW3  740   2.808   1.158   0.236 -0.1048 -2.0937  1.0129
  153SOL    MW4  741   2.808   1.188   0.318  0.1144 -0.3965  0.4241
  154SOL     OW  742   0.084   4.613   0.489 -0.2611 -0.1755 -0.4535
  154SOL    HW2  743   0.081   4.544   0.424  0.6057 -0.4353 -0.2239
  154SOL    HW3  744   0.035   4.579   0.563 -1.9518  0.4434 -1.2647
  154SOL    MW4  745   0.078   4.600   0.490 -0.3698 -0.1278 -0.5302
  155SOL     OW  746   4.278   1.573   1.115  0.0697 -0.6473 -0.2012
  155SOL    HW2  747   4.365   1.592   1.149 -0.1898  0.2825 -0.0401
  155SOL    HW3  748   4.259   1.484   1.144  0.1940 -0.1605  1.3819
  155SOL    MW4  749   4.287   1.564   1.123  0.0520 -0.4603  0.0290
  156SOL     OW  750   3.674   0.197   0.730 -0.4253  0.1480 -0.2530
  156SOL    HW2  751   3.586   0.173   0.700 -0.8875  0.6479  0.6662
  156SOL    HW3  752   3.659   0.267   0.794  0.7130  1.0302 -0.9284
  156SOL    MW4  753   3.660   0.203   0.734 -0.3362  0.3304 -0.2208
  157SOL     OW  754   0.698   3.615   1.251 -0.0364  0.2834 -0.0880
  157SOL    HW2  755   0.690   3.705   1.221 -2.3216 -0.0666 -0.6070
  157SOL    HW3  756   0.691   3.621   1.346  0.2011  0.6840 -0.0934
  157SOL    MW4  757   0.696   3.628   1.260 -0.3065  0.2904 -0.1571
  158SOL     OW  758   3.870   3.918   0.613  0.0763  0.0782  0.1938
  158SOL    HW2  759   3.871   3.822   0.610  0.8618 -0.0750  3.2430
  158SOL    HW3  760   3.777   3.941   0.612 -0.1341 -0.7531  0.2500
  158SOL    MW4  761   3.858   3.908   0.612  0.1523 -0.0520  0.6034
  159SOL     OW  762   3.804   0.762   0.912 -0.0591  0.0933 -0.0311
  159SOL    HW2  763   3.837   0.678   0.879  1.7734  0.7446  0.0613
  159SOL    HW3  764   3.813   0.755   1.007  2.3817  1.2670 -0.1374
  159SOL    MW4  765   3.810   0.750   0.920  0.5047  0.3341 -0.0330
  160SOL     OW  766   0.451   1.443   0.749  0.1477 -0.6703  0.0473
  160SOL    HW2  767   0.446   1.468   0.657  1.9916 -0.8964 -0.1313
  160SOL    HW3  768   0.537   1.476   0.778  0.1743 -1.8287  1.3029
  160SOL    MW4  769   0.462   1.451   0.741  0.3945 -0.8528  0.1894
  161SOL     OW  770   3.669   1.520   0.331  0.2957 -0.1927  0.1882
  161SOL    HW2  771   3.704   1.438   0.367  0.0439 -0.1858  0.4482
  161SOL    HW3  772   3.591   1.538   0.384  2.2490  2.0144  2.4540
  161SOL    MW4  773   3.664   1.512   0.343  0.5200  0.0993  0.5215
  162SOL     OW  774   1.831   3.833   0.522  0.0545 -0.1403 -0.3798
  162SOL    HW2  775   1.900   3.897   0.537  0.4911 -0.6332 -0.2719
  162SOL    HW3  776   1.750   3.883   0.530  0.3820  0.3364  0.0101
  162SOL    MW4  777   1.829   3.848   0.525  0.1554 -0.1423 -0.3141
  163SOL     OW  778   1.936   1.563   0.825 -0.5270  0.2289  0.5076
  163SOL    HW2  779   1.959   1.593   0.913  0.2335  1.4537 -0.0930
  163SOL    HW3  780   1.964   1.634   0.767  0.3211 -1.1636 -0.8536
  163SOL    MW4  781   1.943   1.576   0.829 -0.3148  0.2068  0.2487
  164SOL     OW  782   3.929   2.248   0.322  0.4773 -0.0091 -0.7267
  164SOL    HW2  783   4.012   2.286   0.348 -0.2166  1.2020 -0.2697
  164SOL    HW3  784   3.929   2.161   0.361  0.9721  0.4676  0.3326
  164SOL    MW4  785   3.940   2.241   0.330  0.4508  0.2134 -0.5266
  165SOL     OW  786   0.709   3.399   0.330 -0.0203  0.7064  0.5886
  165SOL    HW2  787   0.767   3.459   0.283  0.1125  0.0918 -0.0328
  165SOL    HW3  788   0.764   3.360   0.398  0.9324 -1.5980 -1.4371
  165SOL    MW4  789   0.724   3.402   0.333  0.1230  0.3209  0.2393
  166SOL     OW  790   1.650   4.646   0.847  0.8110 -0.1423  0.0427
  166SOL    HW2  791   1.619   4.641   0.937  0.1650 -1.4304 -0.2271
  166SOL    HW3  792   1.603   4.575   0.802  1.1984  0.4236 -1.2753
  166SOL    MW4  793   1.640   4.636   0.853  0.7769 -0.2370 -0.1668
  167SOL     OW  794   1.915   0.054   0.752  0.0211 -0.0108 -0.0629
  167SOL    HW2  795   1.837   0.011   0.786  0.9380 -1.5303  0.1148
  167SOL    HW3  796   1.911   0.142   0.789 -0.9694 -0.4500  0.9021
  167SOL    MW4  797   1.904   0.060   0.761  0.0113 -0.2692  0.0879
  168SOL     OW  798   4.126   3.304   0.695 -0.0642  0.3962 -0.0616
  168SOL    HW2  799   4.096   3.385   0.736 -0.8261  0.7596 -1.2977
  168SOL    HW3  800   4.046   3.256   0.675  0.3390 -0.1757 -0.3192
  168SOL    MW4  801   4.112   3.308   0.698 -0.1116  0.3686 -0.2587
  169SOL     OW  802   1.354   3.559   0.452 -0.2795 -0.0928 -0.4792
  169SOL    HW2  803   1.317   3.507   0.525 -0.6915 -0.2445 -0.7914
  169SOL    HW3  804   1.419   3.501   0.413  0.1068  0.0771 -0.0845
  169SOL    MW4  805   1.357   3.544   0.457 -0.2830 -0.0904 -0.4683
  170SOL     OW  806   4.196   2.341   0.400  1.0267  0.1541 -0.5050
  170SOL    HW2  807   4.187   2.436   0.409  1.4067  0.1454 -0.0105
  170SOL    HW3  808   4.239   2.328   0.316  0.4457  0.3926 -0.8467
  170SOL    MW4  809   4.200   2.352   0.390  0.9999  0.1843 -0.4849
  171SOL     OW  810   3.398   1.163   0.604 -0.1362  0.0649 -0.1833
  171SOL    HW2  811   3.423   1.080   0.564 -1.6541  0.5585 -2.2274
  171SOL    HW3  812   3.481   1.208   0.619  0.6282 -1.3833 -0.0210
  171SOL    MW4  813   3.412   1.158   0.601 -0.2356 -0.0612 -0.4317
  172SOL     OW  814   1.651   2.363   0.415  0.5708  0.3365  0.6212
  172SOL    HW2  815   1.683   2.273   0.423 -0.0834  0.2305  2.3123
  172SOL    HW3  816   1.568   2.362   0.462  0.4926  1.7882  0.5119
  172SOL    MW4  817   1.644   2.351   0.422  0.4743  0.5140  0.8299
  173SOL     OW  818   2.599   3.093   0.750 -0.2776 -0.1393 -0.4300
  173SOL    HW2  819   2.547   3.151   0.695  0.9267  0.6903 -0.7256
  173SOL    HW3  820   2.690   3.117   0.730  0.2394 -2.0889 -0.5087
  173SOL    MW4  821   2.604   3.104   0.740 -0.0508 -0.2868 -0.4794
  174SOL     OW  822   3.347   4.395   0.489  0.4733 -0.0094 -0.0300
  174SOL    HW2  823   3.359   4.372   0.581  0.3310 -2.6622 -0.6309
  174SOL    HW3  824   3.253   4.415   0.482  0.4824  0.1924  0.4145
  174SOL    MW4  825   3.336   4.394   0.500  0.4561 -0.3324 -0.0507
  175SOL     OW  826   1.132   4.390   0.688  0.2881  0.0345 -0.1661
  175SOL    HW2  827   1.209   4.340   0.713 -0.0141  0.2861  1.2777
  175SOL    HW3  828   1.131   4.465   0.747 -1.5709 -0.4592  0.4781
  175SOL    MW4  829   1.142   4.393   0.699  0.0029  0.0029  0.1094
  176SOL     OW  830   0.761   3.737   0.506  0.1529  0.0811  0.0329
  176SOL    HW2  831   0.683   3.686   0.526 -1.2673  1.8077 -1.0629
  176SOL    HW3  832   0.793   3.700   0.424  0.9678 -1.1349  0.8686
  176SOL    MW4  833   0.755   3.725   0.498  0.0730  0.1485 -0.0014
  177SOL     OW  834   0.879   3.608   0.256 -0.0041 -0.0831 -0.1297
  177SOL    HW2  835   0.863   3.676   0.191  0.6260  0.4669  0.2810
  177SOL    HW3  836   0.969   3.623   0.285  0.0662 -0.9652  0.1151
  177SOL    MW4  837   0.889   3.619   0.251  0.0883 -0.1266 -0.0432
  178SOL     OW  838   0.522   4.251   0.825  0.0357 -0.2321  0.1326
  178SOL    HW2  839   0.538   4.165   0.787  0.4313 -0.7011  1.3489
  178SOL    HW3  840   0.451   4.288   0.771  0.4368 -0.9680 -0.9067
  178SOL    MW4  841   0.514   4.245   0.813  0.1408 -0.3915  0.1560
  179SOL     OW  842   3.034   4.540   0.496  0.1251  0.5014 -0.0967
  179SOL    HW2  843   2.941   4.531   0.476  0.2779 -0.6038 -0.3223
  179SOL    HW3  844   3.040   4.527   0.591  0.1092  0.1599 -0.1447
  179SOL    MW4  845   3.022   4.537   0.506  0.1433  0.3104 -0.1327
  180SOL     OW  846   3.555   1.495   0.761  0.1228  0.2144 -0.3367
  180SOL    HW2  847   3.495   1.485   0.835  1.3267 -0.6106  0.5410
  180SOL    HW3  848   3.591   1.407   0.747  3.3493  1.2558  1.0707
  180SOL    MW4  849   3.551   1.482   0.769  0.7074  0.2431 -0.0352
  181SOL     OW  850   3.679   2.379   0.889  0.2436 -0.0798 -0.0092
  181SOL    HW2  851   3.710   2.369   0.979  1.1226 -0.4321 -0.3465
  181SOL    HW3  852   3.737   2.445   0.850  0.4757 -0.6285 -0.6021
  181SOL    MW4  853   3.691   2.386   0.896  0.3903 -0.1988 -0.1320
  182SOL     OW  854   2.270   0.375   1.102  0.0818  0.0078 -0.1911
  182SOL    HW2  855   2.185   0.418   1.109 -0.0322 -0.7393  3.8045
  182SOL    HW3  856   2.331   0.433   1.146  1.1459 -0.7473 -0.6394
  182SOL    MW4  857   2.267   0.388   1.109  0.2069 -0.1904  0.2769
  183SOL     OW  858   0.024   1.332   0.864 -0.6225  0.3393 -0.0375
  183SOL    HW2  859   0.014   1.284   0.946  0.4010 -1.4578 -0.9381
  183SOL    HW3  860  -0.063   1.332   0.825 -0.6219 -0.7943 -0.0318
  183SOL    MW4  861   0.011   1.326   0.870 -0.4873 -0.0474 -0.1556
  184SOL     OW  862   2.912   1.876   0.346  0.4345  0.5988 -0.1950
  184SOL    HW2  863   2.994   1.850   0.307  0.3314 -0.7895  0.4848
  184SOL    HW3  864   2.874   1.795   0.379 -0.8181  1.3368  0.2207
  184SOL    MW4  865   2.918   1.862   0.346  0.2558  0.5131 -0.0505
  185SOL     OW  866   3.856   0.011   0.834  0.1574  0.4120  0.5119
  185SOL    HW2  867   3.802   0.078   0.792  0.3446  0.5328  0.4686
  185SOL    HW3  868   3.939   0.014   0.788  0.2132  0.2433  0.6009
  185SOL    MW4  869   3.860   0.020   0.822  0.1893  0.4053  0.5179
  186SOL     OW  870   1.140   0.689   0.812  0.3562 -0.0053  0.0535
  186SOL    HW2  871   1.136   0.785   0.808 -1.3505 -0.1339 -1.9042
  186SOL    HW3  872   1.226   0.668   0.777  0.3689  0.7788 -0.4189
  186SOL    MW4  873   1.151   0.699   0.807  0.1327  0.0811 -0.2672
  187SOL     OW  874   3.604   3.560   1.087  0.4226 -0.2125  0.0031
  187SOL    HW2  875   3.615   3.542   0.994  0.2314 -0.8066  0.0964
  187SOL    HW3  876   3.686   3.602   1.113  0.2034  0.6109 -0.5859
  187SOL    MW4  877   3.616   3.563   1.078  0.3684 -0.1822 -0.0623
  188SOL     OW  878   4.035   4.287   0.801 -0.6260 -0.3097 -0.2043
  188SOL    HW2  879   3.948   4.323   0.784 -0.2887  0.1263 -1.0249
  188SOL    HW3  880   4.022   4.192   0.801 -1.2104 -0.2283  0.2565
  188SOL    MW4  881   4.022   4.279   0.799 -0.6590 -0.2408 -0.2518
  189SOL     OW  882   1.229   3.021   0.836  0.1003  0.0674  0.0568
  189SOL    HW2  883   1.232   3.063   0.750  0.5390 -0.6308 -0.2702
  189SOL    HW3  884   1.188   3.086   0.893 -1.1383  0.1549 -0.8995
  189SOL    MW4  885   1.224   3.035   0.833 -0.0052 -0.0131 -0.1125
  190SOL     OW  886   4.063   0.319   0.840  0.1426 -0.4418 -0.9149
  190SOL    HW2  887   4.089   0.236   0.801  0.1246 -0.5346 -0.7279
  190SOL    HW3  888   4.075   0.307   0.934 -1.0139 -0.6301 -0.7856
  190SOL    MW4  889   4.068   0.307   0.847 -0.0124 -0.4789 -0.8731
  191SOL     OW  890   2.124   0.381   0.706  0.2539 -0.5763 -0.4015
  191SOL    HW2  891   2.042   0.371   0.755  0.3691  0.6780  0.0402
  191SOL    HW3  892   2.110   0.328   0.627 -0.2981 -1.8081  0.4958
  191SOL    MW4  893   2.111   0.372   0.702  0.1965 -0.5733 -0.2248
  192SOL     OW  894   3.901   3.567   0.366  0.0995  0.0696 -0.6383
  192SOL    HW2  895   3.991   3.563   0.333 -0.4467 -1.4429 -1.9885
  192SOL    HW3  896   3.852   3.613   0.298 -0.2843  0.2452 -0.2448
  192SOL    MW4  897   3.906   3.572   0.353 -0.0231 -0.1068 -0.7645
  193SOL     OW  898   0.763   0.212   0.327  0.1974 -0.0641  0.7132
  193SOL    HW2  899   0.749   0.280   0.393 -0.3676  0.4819  0.0462
  193SOL    HW3  900   0.846   0.172   0.351  0.1845  0.3883  1.5329
  193SOL    MW4  901   0.772   0.216   0.338  0.1211  0.0677  0.7333
  194SOL     OW  902   2.268   1.253   0.872  0.0950  0.5136  0.0566
  194SOL    HW2  903   2.338   1.315   0.891  1.4789 -0.2755 -2.3108
  194SOL    HW3  904   2.312   1.172   0.848 -1.6417 -0.2852 -0.5363
  194SOL    MW4  905   2.283   1.251   0.871  0.0482  0.3041 -0.3339
  195SOL     OW  906   1.547   0.254   0.498  0.0721  0.0643  0.2315
  195SOL    HW2  907   1.641   0.235   0.499  0.1826  0.3915 -1.8122
  195SOL    HW3  908   1.507   0.177   0.459 -0.5069  0.0065  0.9226
  195SOL    MW4  909   1.554   0.241   0.493  0.0103  0.0999  0.0531
  196SOL     OW  910   3.954   2.205   0.064 -0.4266  0.0508 -0.0862
  196SOL    HW2  911   3.957   2.287   0.016  1.1083  0.4876  0.7412
  196SOL    HW3  912   3.924   2.229   0.152  1.9001  0.0129  0.7333
  196SOL    MW4  913   3.950   2.219   0.070  0.0832  0.1035  0.1311
  197SOL     OW  914   1.591   1.747   0.702  0.0851 -0.6252  0.0096
  197SOL    HW2  915   1.511   1.781   0.742  0.8783 -0.2916  1.3314
  197SOL    HW3  916   1.615   1.671   0.756  0.5327 -0.8542 -0.5053
  197SOL    MW4  917   1.584   1.742   0.714  0.2489 -0.6114  0.1160
  198SOL     OW  918   0.932   3.760   0.863  0.0203 -0.2958 -0.3363
  198SOL    HW2  919   0.991   3.778   0.936 -0.4681  1.9247 -0.4732
  198SOL    HW3  920   0.844   3.773   0.899 -0.1797  2.1757 -1.6545
  198SOL    MW4  921   0.928   3.764   0.877 -0.0705  0.3231 -0.5283
  199SOL     OW  922   4.437   2.154   0.737  0.2903  0.1265 -0.1443
  199SOL    HW2  923   4.499   2.194   0.798  1.4622 -0.8377 -0.6981
  199SOL    HW3  924   4.351   2.185   0.766  0.9548  0.7172  1.1972
  199SOL    MW4  925   4.434   2.163   0.749  0.5322  0.0772 -0.0404
  200SOL     OW  926   1.176   3.579   0.859  0.0801  0.5895  0.0122
  200SOL    HW2  927   1.213   3.659   0.821  0.7885  0.3982  0.2866
  200SOL    HW3  928   1.211   3.577   0.948 -0.3912  0.2690  0.1898
  200SOL    MW4  929   1.185   3.590   0.865  0.1112  0.5219  0.0719
  201SOL     OW  930   4.191   2.612   0.955  0.0675 -0.5879 -0.4478
  201SOL    HW2  931   4.134   2.662   1.014  0.3541  0.1089 -0.7620
  201SOL    HW3  932   4.209   2.531   1.003  0.2217 -0.0665  0.3843
  201SOL    MW4  933   4.186   2.608   0.969  0.1264 -0.4272 -0.3794
  202SOL     OW  934   3.175   0.244   0.678  0.0228 -0.6245  0.0829
  202SOL    HW2  935   3.197   0.334   0.703 -2.0939  0.0674 -0.4497
  202SOL    HW3  936   3.259   0.201   0.668  1.0829  1.3727  0.0943
  202SOL    MW4  937   3.189   0.251   0.680 -0.1163 -0.2697  0.0141
  203SOL     OW  938   3.619   4.269   1.093  0.3887  0.5610 -0.5585
  203SOL    HW2  939   3.617   4.263   0.998  0.3169  2.3693 -0.6843
  203SOL    HW3  940   3.601   4.180   1.123 -0.9479  0.2414 -2.2265
  203SOL    MW4  941   3.616   4.256   1.084  0.2029  0.7577 -0.7952
  204SOL     OW  942   1.613   4.022   0.525  0.3059  0.2733 -0.0599
  204SOL    HW2  943   1.558   3.964   0.473  2.0476 -0.4172 -1.1994
  204SOL    HW3  944   1.617   4.103   0.474 -0.3066  0.6141  0.4262
  204SOL    MW4  945   1.606   4.025   0.511  0.4548  0.2275 -0.1461
  205SOL     OW  946   1.185   4.541   0.329  0.3681  0.1630 -0.6870
  205SOL    HW2  947   1.201   4.510   0.240  0.4166 -2.0689  0.0824
  205SOL    HW3  948   1.144   4.467   0.374  0.7708  1.0989  1.2790
  205SOL    MW4  949   1.182   4.527   0.323  0.4276 -0.0086 -0.3261
  206SOL     OW  950   2.300   3.090   0.866 -0.2460  0.2894  0.1951
  206SOL    HW2  951   2.363   3.114   0.934 -0.6280 -1.0414  1.0333
  206SOL    HW3  952   2.355   3.067   0.790  0.2279  0.3645  0.5115
  206SOL    MW4  953   2.316   3.090   0.865 -0.2337  0.1240  0.3474
  207SOL     OW  954   2.486   1.419   0.866  0.1835 -0.0872  0.1904
  207SOL    HW2  955   2.503   1.453   0.953 -0.8371 -0.2784  0.4710
  207SOL    HW3  956   2.482   1.497   0.810 -1.1908  0.1883  0.6656
  207SOL    MW4  957   2.488   1.434   0.870 -0.1328 -0.0761  0.2902
  208SOL     OW  958   2.574   3.624   0.230 -0.0803  0.6937  0.1225
  208SOL    HW2  959   2.652   3.569   0.242 -0.1941  0.4124 -0.4383
  208SOL    HW3  960   2.501   3.569   0.260 -0.2082  0.4955 -0.5578
  208SOL    MW4  961   2.575   3.610   0.236 -0.1123  0.6304 -0.0413
  209SOL     OW  962   1.673   1.935   0.190  0.5658 -0.2279  0.1063
  209SOL    HW2  963   1.589   1.914   0.231 -1.2775  2.2979 -2.1513
  209SOL    HW3  964   1.720   1.985   0.257 -0.1284 -0.8490  1.0728
  209SOL    MW4  965   1.668   1.939   0.204  0.2310  0.0235 -0.0641
  210SOL     OW  966   4.465   1.174   1.100 -0.0037  0.2157  0.3668
  210SOL    HW2  967   4.375   1.200   1.117 -0.2483  0.6657 -1.5013
  210SOL    HW3  968   4.473   1.087   1.139 -0.4615  1.2396  2.8234
  210SOL    MW4  969   4.455   1.166   1.107 -0.0963  0.4101  0.4444
  211SOL     OW  970   3.916   1.319   0.686 -0.2389 -0.0358  0.4771
  211SOL    HW2  971   3.977   1.265   0.736  0.5029  0.9353  0.6390
  211SOL    HW3  972   3.957   1.405   0.683 -1.2225  0.4248 -0.1110
  211SOL    MW4  973   3.929   1.323   0.692 -0.2706  0.1532  0.4209
  212SOL     OW  974   2.200   4.642   0.497  0.2584  0.3292 -0.4899
  212SOL    HW2  975   2.250   4.659   0.577  1.1393 -0.9963 -0.7450
  212SOL    HW3  976   2.132   4.580   0.524  0.5074 -0.0581 -0.7467
  212SOL    MW4  977   2.197   4.636   0.511  0.4075  0.1032 -0.5575
  213SOL     OW  978   3.694   0.748   0.501 -0.2263 -0.5407  0.1398
  213SOL    HW2  979   3.756   0.817   0.521 -0.1833 -0.7960  0.9012
  213SOL    HW3  980   3.615   0.794   0.473  1.2619 -0.2393 -3.8618
  213SOL    MW4  981   3.691   0.763   0.500 -0.0243 -0.5346 -0.2877
  214SOL     OW  982   1.858   2.488   0.766 -0.0728 -0.2127  0.3640
  214SOL    HW2  983   1.846   2.499   0.672  1.6729 -0.6399  0.0602
  214SOL    HW3  984   1.772   2.462   0.799 -1.2581  2.1101 -0.7500
  214SOL    MW4  985   1.845   2.486   0.758  0.0012  0.0372  0.1770
  215SOL     OW  986   3.618   3.341   1.269  0.2543 -0.2807 -0.1228
  215SOL    HW2  987   3.695   3.294   1.235 -0.2792 -0.5066 -1.0243
  215SOL    HW3  988   3.613   3.419   1.215 -0.3672 -0.4438 -0.2989
  215SOL    MW4  989   3.628   3.345   1.258  0.1020 -0.3319 -0.2651
  216SOL     OW  990   2.058   4.024   0.530 -0.0708 -0.0119  0.6633
  216SOL    HW2  991   2.106   3.984   0.458 -1.4814  0.6760 -0.6910
  216SOL    HW3  992   2.118   4.020   0.604  1.9904  0.6430 -0.9206
  216SOL    MW4  993   2.072   4.018   0.530  0.0150  0.1650  0.2756
  217SOL     OW  994   0.381   1.500   0.482 -0.5682  0.1641 -0.5408
  217SOL    HW2  995   0.286   1.491   0.491 -0.6072  0.4102 -0.7043
  217SOL    HW3  996   0.409   1.420   0.437 -0.6412 -0.1088 -0.1113
  217SOL    MW4  997   0.372   1.488   0.477 -0.5830  0.1606 -0.5057
  218SOL     OW  998   3.856   2.548   0.767 -0.1629  0.1249 -0.2487
  218SOL    HW2  999   3.944   2.521   0.741  1.1609  3.4412  0.4492
  218SOL    HW3 1000   3.816   2.580   0.686 -1.0647 -2.0807 -0.7168
  218SOL    MW4 1001   3.863   2.549   0.753 -0.1070  0.2713 -0.2184
  219SOL     OW 1002   0.311   3.609   0.757  0.3711  0.1744  0.1302
  219SOL    HW2 1003   0.368   3.544   0.799 -0.3897  0.4341  1.5905
  219SOL    HW3 1004   0.223   3.588   0.789 -0.3381  0.0134 -1.8116
  219SOL    MW4 1005   0.307   3.597   0.766  0.1771  0.1872  0.0666
  220SOL     OW 1006   0.498   0.100   0.307  0.3985  0.7453  0.6639
  220SOL    HW2 1007   0.453   0.184   0.299 -1.7907 -0.5246 -0.8747
  220SOL    HW3 1008   0.588   0.119   0.282 -0.3371  2.4278 -0.8759
  220SOL    MW4 1009   0.504   0.114   0.302  0.0126  0.7997  0.2577
  221SOL     OW 1010   1.078   2.721   0.430 -0.2566  0.1268  0.3262
  221SOL    HW2 1011   1.035   2.638   0.408 -0.2241 -0.1543  1.3148
  221SOL    HW3 1012   1.168   2.697   0.451 -0.1642  0.4530  0.3121
  221SOL    MW4 1013   1.085   2.707   0.430 -0.2401  0.1328  0.4547
  222SOL     OW 1014   1.075   1.018   0.480 -0.1405 -0.0297 -0.6813
  222SOL    HW2 1015   1.088   1.107   0.447  1.4266 -0.3080 -0.8424
  222SOL    HW3 1016   1.081   1.027   0.575 -3.0540  0.5075 -0.4850
  222SOL    MW4 1017   1.077   1.031   0.488 -0.3181  0.0044 -0.6767
  223SOL     OW 1018   0.353   4.306   0.440  0.2846  0.0259  0.5706
  223SOL    HW2 1019   0.331   4.390   0.401 -0.1828 -0.0589  0.6495
  223SOL    HW3 1020   0.283   4.247   0.410  0.0412 -0.0901  1.3669
  223SOL    MW4 1021   0.341   4.309   0.431  0.1909  0.0000  0.6860
  224SOL     OW 1022   3.603   4.014   0.645 -0.4691  0.2467  0.2141
  224SOL    HW2 1023   3.531   3.960   0.678 -0.2398  0.9045  1.8176
  224SOL    HW3 1024   3.563   4.066   0.575 -1.3718  0.0396  0.5693
  224SOL    MW4 1025   3.588   4.014   0.640 -0.5581  0.3066  0.4725
  225SOL     OW 1026   2.351   0.304   0.856 -0.0834 -0.4371 -0.3232
  225SOL    HW2 1027   2.279   0.333   0.800 -2.1177 -1.3127  1.7722
  225SOL    HW3 1028   2.335   0.347   0.940  2.4376  0.1626 -0.1216
  225SOL    MW4 1029   2.339   0.313   0.860 -0.0191 -0.4735 -0.0201
  226SOL     OW 1030   0.875   1.165   0.863  0.6390 -0.0389  0.1909
  226SOL    HW2 1031   0.787   1.127   0.853  0.0247  1.5821 -0.8042
  226SOL    HW3 1032   0.894   1.156   0.957 -1.0042  0.4725  0.5991
  226SOL    MW4 1033   0.866   1.158   0.874  0.3412  0.2425  0.1135
  227SOL     OW 1034   4.046   2.956   0.697 -0.6061  0.1852 -0.3421
  227SOL    HW2 1035   4.136   2.925   0.710 -0.5235  0.1722 -0.9254
  227SOL    HW3 1036   3.996   2.917   0.768  0.0094  0.8481  0.4730
  227SOL    MW4 1037   4.052   2.947   0.708 -0.5145  0.2711 -0.3115
  228SOL     OW 1038   4.373   1.127   0.519  0.4531 -0.4251 -0.2813
  228SOL    HW2 1039   4.366   1.042   0.562  0.8668 -0.7082 -0.7662
  228SOL    HW3 1040   4.353   1.109   0.427 -0.0741  0.1113 -0.2739
  228SOL    MW4 1041   4.369   1.114   0.513  0.4382 -0.3917 -0.3443
  229SOL     OW 1042   1.203   2.716   0.809  0.4076  0.0938 -0.2816
  229SOL    HW2 1043   1.138   2.786   0.802 -0.1614 -0.2198  1.7375
  229SOL    HW3 1044   1.261   2.743   0.880  1.4902 -0.4666 -0.9203
  229SOL    MW4 1045   1.202   2.729   0.817  0.4754 -0.0215 -0.0995
  230SOL     OW 1046   3.650   1.015   0.847  0.4187 -0.1622  0.5379
  230SOL    HW2 1047   3.639   1.067   0.927  1.7703  1.8765 -0.5268
  230SOL    HW3 1048   3.702   0.940   0.875  1.9765  1.1776  1.3812
  230SOL    MW4 1049   3.656   1.012   0.861  0.8025  0.2836  0.5087
  231SOL     OW 1050   4.002   1.179   0.462  0.1811 -0.2549  0.5077
  231SOL    HW2 1051   3.928   1.200   0.405  0.3743  1.0351  0.7212
  231SOL    HW3 1052   3.993   1.238   0.536  1.0722 -0.5252  0.8366
  231SOL    MW4 1053   3.991   1.190   0.464  0.3242 -0.1204  0.5792
  232SOL     OW 1054   4.317   2.062   0.341  0.1254  0.1642  0.2260
  232SOL    HW2 1055   4.409   2.043   0.320 -0.4301  0.1710 -2.3748
  232SOL    HW3 1056   4.284   2.108   0.264 -1.3514  2.6201  2.2225
  232SOL    MW4 1057   4.325   2.066   0.328 -0.1426  0.4890  0.1463
  233SOL     OW 1058   4.454   2.333   0.525  0.1690 -0.1416  0.2193
  233SOL    HW2 1059   4.362   2.328   0.498  0.4193  0.5967 -0.8198
  233SOL    HW3 1060   4.461   2.273   0.598 -1.0545 -0.5191  0.0389
  233SOL    MW4 1061   4.442   2.325   0.531  0.0401 -0.0939  0.0584
  234SOL     OW 1062   1.569   4.661   1.124  0.4122  0.5047 -0.4693
  234SOL    HW2 1063   1.568   4.570   1.151 -1.0246  1.3534  2.5400
  234SOL    HW3 1064   1.656   4.693   1.147  0.3131  0.3494  0.1234
  234SOL    MW4 1065   1.580   4.653   1.130  0.2097  0.5965  0.0061
  235SOL     OW 1066   1.395   1.420   0.472  0.3022 -0.2550  0.1084
  235SOL    HW2 1067   1.386   1.414   0.568  0.5446 -0.1537  0.1392
  235SOL    HW3 1068   1.454   1.494   0.459  0.0196 -0.0703 -0.1323
  235SOL    MW4 1069   1.402   1.429   0.483  0.2970 -0.2173  0.0807
  236SOL     OW 1070   1.100   0.991   0.780  0.2195  0.1641 -0.3996
  236SOL    HW2 1071   1.175   1.040   0.814  0.2027  0.9891 -1.5478
  236SOL    HW3 1072   1.026   1.051   0.790 -0.0195 -0.0832 -0.6944
  236SOL    MW4 1073   1.100   1.006   0.786  0.1857  0.2404 -0.5900
  237SOL     OW 1074   2.226   3.872   0.358 -0.1348  0.3675  0.1343
  237SOL    HW2 1075   2.321   3.874   0.342 -0.2628  2.5614 -0.6353
  237SOL    HW3 1076   2.188   3.863   0.270 -0.6371 -0.3199  0.4260
  237SOL    MW4 1077   2.234   3.871   0.344 -0.2177  0.5662  0.0713
  238SOL     OW 1078   0.654   1.966   0.682 -0.1577  0.0639  0.6543
  238SOL    HW2 1079   0.587   1.943   0.746 -0.5329 -2.4252 -0.5825
  238SOL    HW3 1080   0.712   1.889   0.678 -0.2652  0.0776 -2.1126
  238SOL    MW4 1081   0.653   1.953   0.690 -0.2214 -0.2626  0.1261
  239SOL     OW 1082   2.100   2.877   0.774  0.2250  0.3103  0.3590
  239SOL    HW2 1083   2.092   2.816   0.701 -0.1044 -0.3381  0.9338
  239SOL    HW3 1084   2.177   2.847   0.823 -0.6696 -0.4127  1.3478
  239SOL    MW4 1085   2.109   2.865   0.771  0.0637  0.1292  0.5653
  240SOL     OW 1086   3.454   0.925   0.426 -0.3492  0.0383 -0.2480
  240SOL    HW2 1087   3.496   0.977   0.357  0.7364  1.4294  1.4009
  240SOL    HW3 1088   3.368   0.903   0.391 -0.3119  1.8425 -1.5294
  240SOL    MW4 1089   3.448   0.929   0.412 -0.2010  0.4598 -0.1995
  241SOL     OW 1090   4.424   4.478   0.681  0.1303  0.0679 -0.0174
  241SOL    HW2 1091   4.413   4.552   0.740  0.9517  1.0322 -1.0686
  241SOL    HW3 1092   4.469   4.412   0.734 -1.1850  0.0390  1.1151
  241SOL    MW4 1093   4.428   4.479   0.696  0.0653  0.1912 -0.0066
  242SOL     OW 1094   4.175   4.372   0.570 -0.3823  0.0047 -0.4724
  242SOL    HW2 1095   4.259   4.404   0.603 -0.5764  0.2331 -0.1972
  242SOL    HW3 1096   4.121   4.361   0.648 -0.1275 -1.5668 -0.4991
  242SOL    MW4 1097   4.179   4.375   0.585 -0.3743 -0.1726 -0.4396
  243SOL     OW 1098   3.619   2.757   0.863 -0.5436  0.0945 -0.4155
  243SOL    HW2 1099   3.606   2.742   0.957 -0.6036  3.0074  0.0779
  243SOL    HW3 1100   3.704   2.800   0.857 -0.4147 -0.3263 -1.7171
  243SOL    MW4 1101   3.628   2.761   0.875 -0.5345  0.4232 -0.5221
  244SOL     OW 1102   0.373   2.163   0.811 -0.0285  0.2275  0.4679
  244SOL    HW2 1103   0.388   2.169   0.717  1.1581  1.0502  0.6963
  244SOL    HW3 1104   0.393   2.072   0.833 -1.2430 -0.2164 -0.2222
  244SOL    MW4 1105   0.378   2.152   0.802 -0.0322  0.2773  0.4070
  245SOL     OW 1106   3.655   1.241   0.684  0.2346  0.7714 -0.4151
  245SOL    HW2 1107   3.746   1.269   0.684  0.2466  0.7223  0.5972
  245SOL    HW3 1108   3.655   1.157   0.730 -0.2918  0.6549 -0.6199
  245SOL    MW4 1109   3.667   1.233   0.690  0.1669  0.7495 -0.3085
  246SOL     OW 1110   2.565   2.813   0.772 -0.2090 -0.1538 -0.1304
  246SOL    HW2 1111   2.582   2.906   0.781  0.2873 -0.3902  1.6112
  246SOL    HW3 1112   2.649   2.771   0.790 -0.3670 -0.9440 -1.1415
  246SOL    MW4 1113   2.578   2.819   0.775 -0.1645 -0.2890 -0.0340
  247SOL     OW 1114   3.178   2.875   0.870 -0.0530  0.0968  0.1271
  247SOL    HW2 1115   3.246   2.898   0.807  2.4094 -2.5789  1.7127
  247SOL    HW3 1116   3.145   2.790   0.840  0.6353 -0.8563  1.9594
  247SOL    MW4 1117   3.183   2.867   0.858  0.3624 -0.3817  0.5780
  248SOL     OW 1118   1.428   2.390   0.588  0.1364  0.1817  0.2966
  248SOL    HW2 1119   1.475   2.390   0.671  0.6082  1.6865  0.0564
  248SOL    HW3 1120   1.376   2.471   0.590  0.2083  0.2705 -0.8828
  248SOL    MW4 1121   1.428   2.401   0.599  0.2081  0.3917  0.1094
  249SOL     OW 1122   2.220   1.870   0.785  0.5298  0.2689 -0.2934
  249SOL    HW2 1123   2.145   1.923   0.757 -0.0860 -0.3805  0.1167
  249SOL    HW3 1124   2.296   1.927   0.773 -0.1314  1.2414  0.1510
  249SOL    MW4 1125   2.220   1.884   0.779  0.3612  0.3115 -0.1807
  250SOL     OW 1126   1.470   3.091   0.418  0.4014 -0.1977  0.1852
  250SOL    HW2 1127   1.531   3.155   0.456 -0.4612  0.3839  0.6030
  250SOL    HW3 1128   1.390   3.100   0.470 -0.0445 -0.9562 -0.3593
  250SOL    MW4 1129   1.467   3.101   0.430  0.2288 -0.2210  0.1685
  251SOL     OW 1130   1.867   3.108   0.716 -0.1009 -0.1830 -0.4133
  251SOL    HW2 1131   1.835   3.197   0.701  1.3704  0.3726 -0.3669
  251SOL    HW3 1132   1.875   3.070   0.629 -0.1818 -0.0629 -0.4738
  251SOL    MW4 1133   1.864   3.115   0.703  0.0825 -0.0937 -0.4153
  252SOL     OW 1134   2.491   1.606   0.663  0.3031  0.4261 -0.4062
  252SOL    HW2 1135   2.411   1.655   0.646  0.1716  0.9409  1.5454
  252SOL    HW3 1136   2.561   1.670   0.651  0.2340  0.6897  0.5378
  252SOL    MW4 1137   2.490   1.621   0.660  0.2766  0.5288 -0.0242
  253SOL     OW 1138   0.614   3.050   0.785  0.1019 -0.6412  0.2904
  253SOL    HW2 1139   0.594   3.111   0.713  1.9623 -1.2314 -0.7692
  253SOL    HW3 1140   0.546   2.983   0.779 -0.6539  0.1369  0.0473
  253SOL    MW4 1141   0.603   3.049   0.775  0.2477 -0.6161  0.1186
  254SOL     OW 1142   0.290   0.715   0.881  0.0759 -0.7150 -0.0902
  254SOL    HW2 1143   0.289   0.621   0.867 -1.0145 -0.8620  0.9198
  254SOL    HW3 1144   0.270   0.726   0.974 -1.6907  0.5923 -0.6113
  254SOL    MW4 1145   0.287   0.704   0.891 -0.3010 -0.5620 -0.0256
  255SOL     OW 1146   0.232   1.068   0.439  0.7853 -0.2416 -0.2778
  255SOL    HW2 1147   0.205   1.079   0.530  1.8190  0.3567 -0.0308
  255SOL    HW3 1148   0.157   1.099   0.388  0.6193  0.4544  0.3765
  255SOL    MW4 1149   0.219   1.073   0.444  0.8998 -0.0708 -0.1589
  256SOL     OW 1150   0.077   3.299   0.704  0.7202  0.1668 -0.1299
  256SOL    HW2 1151   0.151   3.254   0.746  0.7206  0.2768 -0.0142
  256SOL    HW3 1152   0.000   3.251   0.735  0.8374 -0.8168 -1.3380
  256SOL    MW4 1153   0.077   3.286   0.714  0.7357  0.0517 -0.2741
  257SOL     OW 1154   2.488   2.313   0.872  0.0111 -0.0026 -0.2287
  257SOL    HW2 1155   2.567   2.340   0.825 -0.3448  0.7296 -0.4211
  257SOL    HW3 1156   2.426   2.384   0.856 -0.1452  0.2086  1.2988
  257SOL    MW4 1157   2.490   2.326   0.863 -0.0565  0.1218 -0.0526
  258SOL     OW 1158   1.410   0.481   0.467  0.4586 -0.1579 -0.2327
  258SOL    HW2 1159   1.459   0.399   0.478  2.4257  0.9608 -0.3720
  258SOL    HW3 1160   1.403   0.517   0.555  0.6304  0.0972 -0.3226
  258SOL    MW4 1161   1.416   0.475   0.480  0.7406  0.0233 -0.2629
  259SOL     OW 1162   4.001   1.976   1.102  0.1464  0.1602  0.6769
  259SOL    HW2 1163   4.009   1.883   1.124  0.7096 -0.3125 -1.4124
  259SOL    HW3 1164   3.912   1.999   1.127  0.0175 -0.9322  1.2476
  259SOL    MW4 1165   3.991   1.966   1.108  0.2038 -0.0461  0.4766
  260SOL     OW 1166   0.745   1.661   0.433  0.0836 -0.2901 -0.2478
  260SOL    HW2 1167   0.755   1.566   0.433 -0.0331 -0.3038  0.5722
  260SOL    HW3 1168   0.762   1.687   0.523 -0.5102  0.4004 -0.3276
  260SOL    MW4 1169   0.748   1.652   0.445 -0.0101 -0.2010 -0.1501
  261SOL     OW 1170   2.159   3.030   0.441 -0.3344  0.1612  0.0284
  261SOL    HW2 1171   2.196   2.945   0.464 -0.3327  0.5473  1.5549
  261SOL    HW3 1172   2.082   3.010   0.388 -1.8572 -0.9184  2.5509
  261SOL    MW4 1173   2.154   3.016   0.437 -0.5350  0.0699  0.5626
  262SOL     OW 1174   1.169   1.503   0.829 -0.0667  0.2819 -0.1692
  262SOL    HW2 1175   1.252   1.457   0.813  0.1033  0.9067 -1.1271
  262SOL    HW3 1176   1.160   1.504   0.924  1.5298  1.0662 -0.0061
  262SOL    MW4 1177   1.179   1.497   0.839  0.1664  0.4678 -0.2741
  263SOL     OW 1178   3.733   0.051   0.334 -0.1036 -0.0034  0.4583
  263SOL    HW2 1179   3.642   0.041   0.364 -0.4966  1.0715 -0.3628
  263SOL    HW3 1180   3.763   0.132   0.375 -0.8000  1.7507 -2.3720
  263SOL    MW4 1181   3.725   0.060   0.344 -0.2475  0.3698 -0.0234
  264SOL     OW 1182   3.066   3.140   0.822 -0.1538  0.6541 -0.2214
  264SOL    HW2 1183   3.009   3.137   0.899 -1.7536  0.5458 -1.3760
  264SOL    HW3 1184   3.094   3.049   0.809 -0.5559  0.5318 -0.2432
  264SOL    MW4 1185   3.062   3.128   0.830 -0.4179  0.6237 -0.3766
  265SOL     OW 1186   1.553   4.049   0.799 -0.0630  0.2129  0.2681
  265SOL    HW2 1187   1.564   3.961   0.835 -1.3671  0.8545  2.2984
  265SOL    HW3 1188   1.555   4.036   0.704  0.3421 -1.9168  0.5432
  265SOL    MW4 1189   1.555   4.035   0.791 -0.1816  0.0167  0.5723
  266SOL     OW 1190   4.335   1.046   0.245  0.0871 -0.5174 -0.1078
  266SOL    HW2 1191   4.414   1.083   0.205 -0.8516  0.2746 -1.2508
  266SOL    HW3 1192   4.267   1.110   0.228 -0.4412 -0.3224  2.4760
  266SOL    MW4 1193   4.337   1.059   0.238 -0.1063 -0.3873  0.0823
  267SOL     OW 1194   2.025   2.325   1.113  0.2899 -0.7456 -0.2200
  267SOL    HW2 1195   2.035   2.326   1.018  0.2678  1.3276 -0.2269
  267SOL    HW3 1196   2.104   2.369   1.146  0.2437 -1.3484  0.7126
  267SOL    MW4 1197   2.037   2.331   1.105  0.2809 -0.5517 -0.0979
  268SOL     OW 1198   0.502   0.182   0.591  0.8720  0.0568  0.6519
  268SOL    HW2 1199   0.433   0.122   0.620  0.4259  1.0806  1.7705
  268SOL    HW3 1200   0.519   0.157   0.501 -1.3821  0.1478  0.1799
  268SOL    MW4 1201   0.495   0.171   0.583  0.5158  0.2039  0.7372
  269SOL     OW 1202   3.443   3.878   0.335 -0.2521 -0.2312  0.0122
  269SOL    HW2 1203   3.534   3.905   0.320 -0.7919  0.8059 -1.5614
  269SOL    HW3 1204   3.450   3.789   0.368  1.4399  0.6454  2.1439
  269SOL    MW4 1205   3.456   3.870   0.337 -0.1004  0.0212  0.0859
  270SOL     OW 1206   0.070   4.447   0.275  0.5516 -0.2001 -0.2030
  270SOL    HW2 1207   0.011   4.512   0.237  0.6722  0.6334  1.0173
  270SOL    HW3 1208   0.158   4.479   0.254  0.6290  0.5168  1.1585
  270SOL    MW4 1209   0.074   4.460   0.267  0.5777  0.0048  0.1376
  271SOL     OW 1210   0.958   3.543   0.597 -0.3100 -0.2133  0.1643
  271SOL    HW2 1211   0.892   3.604   0.565  1.7752  1.0063 -1.9759
  271SOL    HW3 1212   0.931   3.458   0.561 -1.0806  0.1399 -0.1107
  271SOL    MW4 1213   0.946   3.540   0.588 -0.1366 -0.0057 -0.1544
  272SOL     OW 1214   2.561   2.976   0.372 -0.2654 -0.7292  0.2148
  272SOL    HW2 1215   2.631   3.041   0.382 -0.2275 -0.5744 -1.0082
  272SOL    HW3 1216   2.608   2.895   0.349 -0.3629 -1.0510  1.1113
  272SOL    MW4 1217   2.577   2.974   0.370 -0.2732 -0.7515  0.1718
  273SOL     OW 1218   3.469   1.184   0.296  0.0725 -0.0878 -0.6446
  273SOL    HW2 1219   3.409   1.249   0.332  0.5499 -0.0390  0.0779
  273SOL    HW3 1220   3.455   1.187   0.201 -0.9751  0.0014 -0.4853
  273SOL    MW4 1221   3.459   1.193   0.288 -0.0026 -0.0695 -0.5282
  274SOL     OW 1222   0.053   3.517   0.859 -0.6037  0.1123  0.5913
  274SOL    HW2 1223  -0.019   3.566   0.817 -0.7650 -0.5737  0.0532
  274SOL    HW3 1224   0.057   3.435   0.810  0.7535  0.2770  0.4306
  274SOL    MW4 1225   0.044   3.513   0.847 -0.4459  0.0436  0.4991
  275SOL     OW 1226   4.350   1.724   9.973  0.1342 -0.5463  0.1544
  275SOL    HW2 1227   4.293   1.741  10.048  1.4296 -1.5919  1.4058
  275SOL    HW3 1228   4.290   1.720   9.898 -1.3385 -0.8334  1.3155
  275SOL    MW4 1229   4.334   1.726   9.973  0.1106 -0.7222  0.4730
  276SOL     OW 1230   4.329   3.714   0.459  0.1529 -0.0104 -0.8106
  276SOL    HW2 1231   4.274   3.670   0.395 -1.4831  2.5191 -1.2347
  276SOL    HW3 1232   4.408   3.660   0.466 -1.7905 -2.9587 -1.2147
  276SOL    MW4 1233   4.332   3.701   0.452 -0.3190 -0.0658 -0.9199
  277SOL     OW 1234   3.587   0.338   1.158  0.2563 -0.1485 -0.6155
  277SOL    HW2 1235   3.522   0.404   1.184 -0.2920 -0.3724 -1.4065
  277SOL    HW3 1236   3.671   0.383   1.165  0.1298 -0.1988  1.5303
  277SOL    MW4 1237   3.589   0.353   1.163  0.1674 -0.1846 -0.4368
  278SOL     OW 1238   0.006   0.304   0.860  0.4132  0.1626  0.1286
  278SOL    HW2 1239   0.075   0.360   0.825  0.5833 -0.0249  0.1665
  278SOL    HW3 1240  -0.075   0.343   0.827  0.4737  1.0085  0.9417
  278SOL    MW4 1241   0.005   0.317   0.851  0.4436  0.2495  0.2409
  279SOL     OW 1242   3.797   4.423   0.696 -0.7296  0.3595 -0.1652
  279SOL    HW2 1243   3.813   4.438   0.603 -0.4741 -0.3400 -0.2341
  279SOL    HW3 1244   3.812   4.509   0.737 -0.4497  0.5736 -0.7151
  279SOL    MW4 1245   3.801   4.436   0.690 -0.6590  0.2956 -0.2469
  280SOL     OW 1246   0.720   0.406   0.508 -0.2627 -0.0437  0.3248
  280SOL    HW2 1247   0.655   0.468   0.476  0.5182  0.2085 -0.8123
  280SOL    HW3 1248   0.800   0.458   0.518 -0.3756 -0.2036  2.3187
  280SOL    MW4 1249   0.722   0.421   0.505 -0.1746 -0.0315  0.4379
  281SOL     OW 1250   3.012   3.597   0.402  0.1935  0.0796  0.0021
  281SOL    HW2 1251   3.059   3.534   0.456 -1.0794  0.0281  1.0835
  281SOL    HW3 1252   3.061   3.679   0.412  0.5977 -0.2080  0.3606
  281SOL    MW4 1253   3.025   3.600   0.411  0.0792  0.0348  0.1921
  282SOL     OW 1254   0.671   0.916   0.323 -0.0691  0.7410 -0.1678
  282SOL    HW2 1255   0.683   1.005   0.353 -0.2629  0.6035  0.3201
  282SOL    HW3 1256   0.752   0.871   0.346 -0.1348  0.6881 -0.0394
  282SOL    MW4 1257   0.683   0.921   0.330 -0.1034  0.7159 -0.0865
  283SOL     OW 1258   2.087   2.351   0.842  0.1276 -0.4165  0.3926
  283SOL    HW2 1259   2.007   2.403   0.827  0.0637 -0.4000  0.7971
  283SOL    HW3 1260   2.158   2.413   0.827  0.1106 -0.8317 -1.5800
  283SOL    MW4 1261   2.086   2.366   0.838  0.1168 -0.4692  0.1857
  284SOL     OW 1262   1.456   0.198   0.756  0.0021  0.5879 -0.2868
  284SOL    HW2 1263   1.485   0.196   0.665 -0.4491  0.0227 -0.4246
  284SOL    HW3 1264   1.509   0.131   0.799 -1.1115 -0.4910 -0.5527
  284SOL    MW4 1265   1.466   0.189   0.750 -0.2042  0.3710 -0.3400
  285SOL     OW 1266   1.905   4.233   0.604 -0.1153  0.1255  0.6438
  285SOL    HW2 1267   1.898   4.209   0.697  1.7572 -0.6891  0.6080
  285SOL    HW3 1268   1.959   4.163   0.566  0.2893  1.1947 -0.7678
  285SOL    MW4 1269   1.912   4.220   0.611  0.1851  0.1588  0.4528
  286SOL     OW 1270   3.396   0.885   0.857 -0.3843 -0.0071 -0.3907
  286SOL    HW2 1271   3.321   0.945   0.854 -0.2271  0.1509 -1.4971
  286SOL    HW3 1272   3.470   0.939   0.829 -0.1345 -0.5648 -0.8075
  286SOL    MW4 1273   3.396   0.900   0.853 -0.3307 -0.0597 -0.5916
  287SOL     OW 1274   2.831   3.234   0.666  0.5639 -0.3236  0.4528
  287SOL    HW2 1275   2.917   3.206   0.697 -0.4160 -0.5439  3.1633
  287SOL    HW3 1276   2.819   3.321   0.704 -1.4518 -1.3702  2.4151
  287SOL    MW4 1277   2.840   3.242   0.675  0.1683 -0.4904  1.0693
  288SOL     OW 1278   0.650   1.170   0.490 -0.1287  0.2165  0.2153
  288SOL    HW2 1279   0.702   1.249   0.476 -0.0808  0.1056 -0.2220
  288SOL    HW3 1280   0.563   1.193   0.455 -0.0556  0.0014 -0.1065
  288SOL    MW4 1281   0.645   1.184   0.484 -0.1128  0.1734  0.1152
  289SOL     OW 1282   2.490   2.369   0.495 -0.1989 -0.0168  0.4879
  289SOL    HW2 1283   2.432   2.293   0.501 -0.8794  0.2249 -2.3340
  289SOL    HW3 1284   2.578   2.332   0.492 -0.4413 -0.6022  0.5673
  289SOL    MW4 1285   2.494   2.354   0.496 -0.3204 -0.0622  0.1261
  290SOL     OW 1286   3.844   0.253   0.508 -0.3485 -0.1417  0.4248
  290SOL    HW2 1287   3.854   0.348   0.503  0.1653 -0.1056  1.9134
  290SOL    HW3 1288   3.789   0.239   0.585 -2.2976 -0.9510 -1.0693
  290SOL    MW4 1289   3.838   0.264   0.517 -0.5376 -0.2437  0.4241
  291SOL     OW 1290   3.178   3.452   0.583 -0.2528 -0.1756 -0.3916
  291SOL    HW2 1291   3.153   3.444   0.675  0.8339 -0.6192 -0.1233
  291SOL    HW3 1292   3.194   3.362   0.554  1.8755  0.1502 -0.2922
  291SOL    MW4 1293   3.177   3.439   0.591  0.1714 -0.1910 -0.3431
  292SOL     OW 1294   2.040   4.659   1.106 -0.4390 -0.6730 -0.1574
  292SOL    HW2 1295   2.119   4.705   1.134 -0.9188 -1.0666  1.9122
  292SOL    HW3 1296   2.059   4.632   1.016  1.8919 -1.0032  0.3972
  292SOL    MW4 1297   2.053   4.661   1.098 -0.1948 -0.7687  0.1888
  293SOL     OW 1298   0.863   0.376   1.106  0.0367  0.0795  0.1769
  293SOL    HW2 1299   0.807   0.371   1.028  0.5941  0.4748 -0.2494
  293SOL    HW3 1300   0.884   0.284   1.126  0.0056 -0.0156 -0.2197
  293SOL    MW4 1301   0.858   0.363   1.098  0.1062  0.1191  0.0682
  294SOL     OW 1302   2.534   3.111   1.051 -0.4569 -0.3092  0.4147
  294SOL    HW2 1303   2.578   3.100   0.967  2.0236  0.5997  1.5675
  294SOL    HW3 1304   2.548   3.029   1.097  1.6592  0.6085  1.4872
  294SOL    MW4 1305   2.541   3.099   1.046  0.1497 -0.0684  0.7082
  295SOL     OW 1306   4.161   2.522   0.691  0.0509  0.3549  0.1519
  295SOL    HW2 1307   4.184   2.440   0.735 -0.0312  0.6759  0.7935
  295SOL    HW3 1308   4.167   2.589   0.759  1.4077  1.0934 -0.6796
  295SOL    MW4 1309   4.164   2.520   0.706  0.2193  0.4947  0.1269
  296SOL     OW 1310   3.293   0.720   0.640 -0.3878 -0.6628 -0.0051
  296SOL    HW2 1311   3.330   0.778   0.706 -1.6897  0.5530 -0.3119
  296SOL    HW3 1312   3.252   0.649   0.689  2.2941 -2.0404  0.3389
  296SOL    MW4 1313   3.293   0.718   0.655 -0.2058 -0.6842 -0.0002
  297SOL     OW 1314   1.612   2.344   0.793 -0.4783 -0.3468 -0.0922
  297SOL    HW2 1315   1.608   2.307   0.881 -4.1159 -1.5970 -0.6887
  297SOL    HW3 1316   1.645   2.272   0.738  1.7611  0.4234  0.1894
  297SOL    MW4 1317   1.616   2.330   0.797 -0.6627 -0.4098 -0.1337
  298SOL     OW 1318   3.192   0.517   0.795 -0.1401 -0.0621 -0.0302
  298SOL    HW2 1319   3.175   0.463   0.872 -0.2360  1.7999  1.3091
  298SOL    HW3 1320   3.112   0.567   0.782 -0.1019 -0.3254 -1.3101
  298SOL    MW4 1321   3.179   0.517   0.803 -0.1478  0.1488 -0.0223
  299SOL     OW 1322   1.100   4.618   1.087  0.4683 -0.3025 -0.1998
  299SOL    HW2 1323   1.086   4.526   1.109  0.2391  0.0550  1.2347
  299SOL    HW3 1324   1.086   4.623   0.993 -2.0911 -1.2659  0.0935
  299SOL    MW4 1325   1.096   4.607   1.078  0.1004 -0.3824  0.0280
  300SOL     OW 1326   2.951   0.976   0.438  0.3586 -0.0143 -0.0782
  300SOL    HW2 1327   3.044   0.960   0.427  0.5013  0.7067  0.0104
  300SOL    HW3 1328   2.935   1.057   0.390 -0.0251  0.3890  0.7132
  300SOL    MW4 1329   2.961   0.985   0.430  0.3269  0.1341  0.0379
  301SOL     OW 1330   4.199   1.784   0.214  0.4268 -0.0222  0.1685
  301SOL    HW2 1331   4.121   1.828   0.180  0.5383 -0.8877 -1.2222
  301SOL    HW3 1332   4.228   1.840   0.286 -1.2709  0.4926  0.4711
  301SOL    MW4 1333   4.193   1.797   0.219  0.2179 -0.0684  0.0249
  302SOL     OW 1334   0.337   0.415   0.553 -0.4483 -0.2265  0.0111
  302SOL    HW2 1335   0.299   0.399   0.466  0.7508 -0.8866 -0.4075
  302SOL    HW3 1336   0.397   0.342   0.566  0.0624  0.3643  1.0110
  302SOL    MW4 1337   0.339   0.403   0.543 -0.2227 -0.2356  0.0878
  303SOL     OW 1338   0.420   0.861   0.432 -0.2352  0.0611  0.0628
  303SOL    HW2 1339   0.503   0.873   0.385  0.0158  0.1551  0.5296
  303SOL    HW3 1340   0.373   0.944   0.417 -0.8076 -0.4911 -1.3067
  303SOL    MW4 1341   0.425   0.874   0.424 -0.2777  0.0007 -0.0563
  304SOL     OW 1342   3.498   4.181   0.438 -0.0084 -0.1614  0.4008
  304SOL    HW2 1343   3.434   4.252   0.446 -0.7415 -0.7128 -0.5405
  304SOL    HW3 1344   3.461   4.122   0.372  1.8761 -0.0372 -0.8086
  304SOL    MW4 1345   3.485   4.183   0.430  0.1438 -0.2174  0.1170
  305SOL     OW 1346   3.716   1.252   0.408  0.5576 -0.1552  0.2338
  305SOL    HW2 1347   3.629   1.236   0.371 -0.0744 -0.4965  1.8589
  305SOL    HW3 1348   3.708   1.231   0.501  2.2483  0.2921  0.5056
  305SOL    MW4 1349   3.703   1.247   0.415  0.6971 -0.1413  0.4841
  306SOL     OW 1350   3.206   2.232   0.708 -0.6009  0.6294 -0.5035
  306SOL    HW2 1351   3.141   2.278   0.761 -1.4961 -1.8917  0.6641
  306SOL    HW3 1352   3.278   2.214   0.768  0.4808  1.9803 -1.3831
  306SOL    MW4 1353   3.207   2.235   0.723 -0.5763  0.4749 -0.4655
  307SOL     OW 1354   3.916   1.590   0.446  0.3659 -0.2303  0.2396
  307SOL    HW2 1355   3.841   1.565   0.391 -1.6613  0.7282  2.4650
  307SOL    HW3 1356   3.991   1.586   0.387 -1.7003  0.6297 -2.5656
  307SOL    MW4 1357   3.916   1.586   0.431 -0.1743  0.0095  0.1631
  308SOL     OW 1358   0.970   2.902   0.204 -0.5130 -0.2067 -0.0593
  308SOL    HW2 1359   0.991   2.825   0.257 -0.7423 -0.1629  0.0937
  308SOL    HW3 1360   0.954   2.868   0.116  1.8239 -0.0895 -0.5823
  308SOL    MW4 1361   0.971   2.888   0.199 -0.2350 -0.1855 -0.1081
  309SOL     OW 1362   1.654   4.303   0.494  0.3685  0.6518 -0.1890
  309SOL    HW2 1363   1.739   4.269   0.519 -0.5323 -0.3393  1.5592
  309SOL    HW3 1364   1.674   4.379   0.439  2.3602  0.1300 -0.2131
  309SOL    MW4 1365   1.668   4.309   0.490  0.5124  0.4530  0.0385
  310SOL     OW 1366   2.666   4.150   0.726  0.4331 -0.2482 -0.0033
  310SOL    HW2 1367   2.677   4.236   0.767 -0.1180 -1.2043  2.1808
  310SOL    HW3 1368   2.755   4.122   0.704  0.7804  0.0894  0.9450
  310SOL    MW4 1369   2.679   4.158   0.728  0.4063 -0.3304  0.4100
  311SOL     OW 1370   1.420   1.852   0.338 -0.2295 -0.6362  0.2638
  311SOL    HW2 1371   1.449   1.765   0.363 -1.0084 -0.9131  0.2093
  311SOL    HW3 1372   1.333   1.839   0.300 -0.4999  0.2030  0.5691
  311SOL    MW4 1373   1.412   1.839   0.336 -0.3680 -0.5622  0.2969
  312SOL     OW 1374   3.457   2.245   0.399 -0.4562  0.6474 -0.1566
  312SOL    HW2 1375   3.500   2.166   0.431  0.1859  0.8159 -0.5758
  312SOL    HW3 1376   3.367   2.219   0.381 -0.0649 -0.1749 -0.9865
  312SOL    MW4 1377   3.451   2.231   0.401 -0.3195  0.5612 -0.3214
  313SOL     OW 1378   0.898   2.692   1.117  0.2764  0.4840 -0.2893
  313SOL    HW2 1379   0.881   2.609   1.161  0.7872  1.9591  2.8033
  313SOL    HW3 1380   0.826   2.749   1.143  0.8353  1.5368 -0.9803
  313SOL    MW4 1381   0.887   2.688   1.126  0.4175  0.8175  0.0277
  314SOL     OW 1382   0.157   1.112   0.705  0.5461 -0.7782 -0.3225
  314SOL    HW2 1383   0.081   1.151   0.749  0.8049 -1.6154  0.8845
  314SOL    HW3 1384   0.150   1.019   0.722  1.1568 -1.0165 -1.3038
  314SOL    MW4 1385   0.146   1.105   0.713  0.6608 -0.9201 -0.2927
  315SOL     OW 1386   3.996   1.589   0.718  0.3623  0.1112  0.0697
  315SOL    HW2 1387   3.989   1.613   0.626 -0.9531 -0.1165  0.1032
  315SOL    HW3 1388   4.060   1.651   0.754 -1.9642  2.7268 -0.1571
  315SOL    MW4 1389   4.003   1.600   0.711 -0.1183  0.4263  0.0442
  316SOL     OW 1390   2.226   4.068   0.753 -0.2624 -0.0545 -0.4498
  316SOL    HW2 1391   2.168   4.012   0.804 -0.9890 -0.4163 -1.6550
  316SOL    HW3 1392   2.313   4.035   0.771 -0.5555 -0.5305  0.1174
  316SOL    MW4 1393   2.230   4.057   0.762 -0.3970 -0.1655 -0.5340
  317SOL     OW 1394   2.961   2.034   0.690  0.4663 -0.2413  0.1653
  317SOL    HW2 1395   3.019   2.068   0.758  1.7939  0.0229 -1.0508
  317SOL    HW3 1396   2.989   1.944   0.677  0.5388 -0.1510 -0.3404
  317SOL    MW4 1397   2.972   2.027   0.697  0.6509 -0.1945 -0.0619
  318SOL     OW 1398   2.979   0.968   0.708  0.0741  0.1076 -0.1194
  318SOL    HW2 1399   3.059   1.016   0.728  0.7483 -0.5333 -1.2157
  318SOL    HW3 1400   2.963   0.986   0.615 -0.4649 -0.6006 -0.1669
  318SOL    MW4 1401   2.988   0.977   0.698  0.0918 -0.0704 -0.2704
  319SOL     OW 1402   0.075   1.765   0.546 -0.4892  0.1788  0.0214
  319SOL    HW2 1403   0.105   1.731   0.461  0.3314  0.2657  0.2752
  319SOL    HW3 1404  -0.020   1.769   0.537 -0.6004 -2.0127 -0.0952
  319SOL    MW4 1405   0.067   1.761   0.533 -0.3956 -0.0988  0.0394
  320SOL     OW 1406   4.344   3.687   0.745 -0.1411 -0.0642  0.1068
  320SOL    HW2 1407   4.352   3.706   0.651  1.8643 -0.3235  0.1989
  320SOL    HW3 1408   4.318   3.771   0.784 -0.2227  0.2379 -0.5883
  320SOL    MW4 1409   4.342   3.700   0.737  0.1125 -0.0584  0.0273
  321SOL     OW 1410   4.191   1.538   0.348  0.2028 -0.2919  0.1543
  321SOL    HW2 1411   4.234   1.546   0.433  0.0941 -0.1935  0.1997
  321SOL    HW3 1412   4.193   1.626   0.311 -1.5326  0.0980  0.9171
  321SOL    MW4 1413   4.197   1.551   0.354 -0.0401 -0.2275  0.2609
  322SOL     OW 1414   2.717   3.202   0.400 -0.1560  0.2068  0.2236
  322SOL    HW2 1415   2.731   3.280   0.347 -0.7781  0.4062  0.3500
  322SOL    HW3 1416   2.752   3.224   0.486 -0.6337  0.4708  0.3540
  322SOL    MW4 1417   2.723   3.215   0.404 -0.3011  0.2680  0.2575
  323SOL     OW 1418   4.460   1.427   0.260  0.0047  0.0767 -0.3335
  323SOL    HW2 1419   4.513   1.447   0.337 -1.6738  0.7234  0.7076
  323SOL    HW3 1420   4.370   1.424   0.294 -0.5784 -1.5578 -1.9187
  323SOL    MW4 1421   4.455   1.429   0.275 -0.2937 -0.0536 -0.4053
  324SOL     OW 1422   3.390   1.499   1.184 -0.2412 -0.3499  0.4999
  324SOL    HW2 1423   3.314   1.550   1.212 -0.1152  0.5663 -0.7671
  324SOL    HW3 1424   3.465   1.553   1.207 -0.0774 -0.2249 -0.3226
  324SOL    MW4 1425   3.390   1.513   1.190 -0.2029 -0.2126  0.2241
  325SOL     OW 1426   3.970   3.988   0.863  0.3224  0.2769  0.7045
  325SOL    HW2 1427   4.065   3.981   0.856  0.2967  0.6215 -0.0321
  325SOL    HW3 1428   3.937   3.960   0.778 -0.1157  2.2111  0.2049
  325SOL    MW4 1429   3.978   3.984   0.851  0.2611  0.5777  0.5414
  326SOL     OW 1430   2.969   0.696   0.837 -0.1549 -0.5793 -0.1674
  326SOL    HW2 1431   2.969   0.721   0.929 -0.6625 -0.3569 -0.2270
  326SOL    HW3 1432   2.985   0.778   0.789  0.9846 -0.8373 -0.2430
  326SOL    MW4 1433   2.971   0.710   0.843 -0.0715 -0.5840 -0.1852
  327SOL     OW 1434   3.771   2.111   0.835  0.1572 -0.2679 -0.0066
  327SOL    HW2 1435   3.758   2.200   0.803  0.1598 -0.4900 -0.6182
  327SOL    HW3 1436   3.732   2.112   0.923 -0.0599  0.2674 -0.1070
  327SOL    MW4 1437   3.764   2.123   0.843  0.1290 -0.2265 -0.1006
  328SOL     OW 1438   4.368   0.030   0.829 -0.4082 -0.3201  0.0708
  328SOL    HW2 1439   4.333   0.022   0.918  0.4898 -0.3522  0.4197
  328SOL    HW3 1440   4.436   0.096   0.835 -0.6567  0.0163 -0.6953
  328SOL    MW4 1441   4.372   0.037   0.841 -0.3223 -0.2800  0.0158
  329SOL     OW 1442   4.231   1.908   0.544  0.1337  0.3128  0.4812
  329SOL    HW2 1443   4.225   1.955   0.627  0.0415  0.3875  0.4321
  329SOL    HW3 1444   4.261   1.974   0.481 -1.0847  0.5790  0.1758
  329SOL    MW4 1445   4.234   1.923   0.547 -0.0396  0.3579  0.4345
  330SOL     OW 1446   1.300   1.967   1.055  0.3304  0.3254  0.2483
  330SOL    HW2 1447   1.231   1.993   1.117  1.2750  1.4321  0.8481
  330SOL    HW3 1448   1.329   1.882   1.086 -0.8114 -0.1756 -0.0395
  330SOL    MW4 1449   1.294   1.960   1.067  0.3043  0.4054  0.2894
  331SOL     OW 1450   0.443   2.914   0.471  0.2550  0.0829  0.2431
  331SOL    HW2 1451   0.476   2.957   0.392  1.6301  1.4416  1.5316
  331SOL    HW3 1452   0.457   2.821   0.455 -1.5904  0.1662 -2.0482
  331SOL    MW4 1453   0.449   2.907   0.459  0.1929  0.2732  0.1108
  332SOL     OW 1454   2.339   2.126   0.471 -0.0118  0.7986  0.3152
  332SOL    HW2 1455   2.342   2.042   0.425 -0.9844  0.4937  0.7999
  332SOL    HW3 1456   2.247   2.153   0.468  0.3219  1.9509 -0.0160
  332SOL    MW4 1457   2.327   2.119   0.465 -0.0958  0.9103  0.3355
  333SOL     OW 1458   2.405   1.449   0.422  0.0467 -0.3915  0.4476
  333SOL    HW2 1459   2.433   1.519   0.363  0.5434  0.1957  1.3639
  333SOL    HW3 1460   2.428   1.481   0.510  0.7088 -1.8901  0.8471
  333SOL    MW4 1461   2.412   1.462   0.426  0.1996 -0.5118  0.6212
  334SOL     OW 1462   1.116   2.125   1.213 -0.1979 -0.2036 -0.3105
  334SOL    HW2 1463   1.131   2.211   1.172  0.1137 -0.4871 -0.8054
  334SOL    HW3 1464   1.136   2.139   1.305 -0.4640  0.3388 -0.3319
  334SOL    MW4 1465   1.121   2.139   1.220 -0.1919 -0.1693 -0.3785
  335SOL     OW 1466   2.109   0.630   0.603  0.6517 -0.3384 -0.6769
  335SOL    HW2 1467   2.189   0.646   0.553  1.4733 -0.8422  0.4492
  335SOL    HW3 1468   2.118   0.540   0.634 -0.5884 -0.5658 -0.9499
  335SOL    MW4 1469   2.121   0.620   0.600  0.5963 -0.4349 -0.5643
  336SOL     OW 1470   2.711   0.648   0.741 -0.3145  0.1517  0.2096
  336SOL    HW2 1471   2.674   0.563   0.767  0.5485 -0.3605 -0.2219
  336SOL    HW3 1472   2.797   0.650   0.781 -0.1224  0.5968 -0.2199
  336SOL    MW4 1473   2.717   0.637   0.750 -0.1755  0.1428  0.0959
  337SOL     OW 1474   0.741   4.085   0.213  0.4009  0.1213 -0.1880
  337SOL    HW2 1475   0.814   4.106   0.271  0.4126  0.3529 -0.2882
  337SOL    HW3 1476   0.688   4.164   0.211  0.7694  0.3482 -1.0490
  337SOL    MW4 1477   0.743   4.098   0.221  0.4511  0.1817 -0.3149
  338SOL     OW 1478   1.178   0.201   0.699 -0.2632  0.0000 -0.1863
  338SOL    HW2 1479   1.268   0.191   0.729 -0.3874 -0.7815 -0.0384
  338SOL    HW3 1480   1.184   0.253   0.619  0.2115  0.8600  0.3999
  338SOL    MW4 1481   1.191   0.206   0.693 -0.2168  0.0104 -0.0894
  339SOL     OW 1482   2.619   0.386   0.831  0.0083 -0.3967  0.4023
  339SOL    HW2 1483   2.643   0.384   0.924  0.2611 -2.3888  0.3208
  339SOL    HW3 1484   2.526   0.366   0.830 -0.2490  0.8064  0.3007
  339SOL    MW4 1485   2.610   0.383   0.843  0.0079 -0.5008  0.3783
  340SOL     OW 1486   0.695   4.496   0.511  0.1346 -0.3290 -0.2246
  340SOL    HW2 1487   0.685   4.483   0.605 -0.3500  0.5965 -0.1397
  340SOL    HW3 1488   0.784   4.465   0.491  0.1552 -0.7319  0.4952
  340SOL    MW4 1489   0.706   4.490   0.521  0.0733 -0.2599 -0.1184
  341SOL     OW 1490   3.261   1.337   0.445 -0.1271 -0.0535 -0.4353
  341SOL    HW2 1491   3.315   1.411   0.472  0.0384 -0.3304 -0.0086
  341SOL    HW3 1492   3.285   1.266   0.504  0.0439 -0.5851 -1.1366
  341SOL    MW4 1493   3.271   1.337   0.456 -0.0830 -0.1602 -0.4716
  342SOL     OW 1494   0.544   0.632   0.837 -0.0582  0.2385 -0.0374
  342SOL    HW2 1495   0.516   0.598   0.752 -0.4349  1.3086 -0.3544
  342SOL    HW3 1496   0.469   0.684   0.867  0.0707 -0.1429  0.9516
  342SOL    MW4 1497   0.530   0.635   0.830 -0.0910  0.3293  0.0513
  343SOL     OW 1498   0.872   3.104   0.746 -0.0865  0.4148 -0.0917
  343SOL    HW2 1499   0.781   3.080   0.757  0.0206  0.0530  0.0078
  343SOL    HW3 1500   0.918   3.022   0.729  0.1865  0.6223 -0.3756
  343SOL    MW4 1501   0.866   3.090   0.745 -0.0364  0.3946 -0.1159
  344SOL     OW 1502   3.435   3.550   0.599 -0.1622  0.7852  0.0028
  344SOL    HW2 1503   3.344   3.519   0.597 -0.1664  0.6861  1.4468
  344SOL    HW3 1504   3.485   3.479   0.559 -0.5529  0.2194  0.5070
  344SOL    MW4 1505   3.430   3.536   0.593 -0.2143  0.6974  0.2599
  345SOL     OW 1506   4.261   1.296   0.716  0.5056  0.1779 -0.0583
  345SOL    HW2 1507   4.304   1.234   0.658  1.1313 -1.2126  1.8464
  345SOL    HW3 1508   4.200   1.244   0.768  0.8701  1.1592  1.4142
  345SOL    MW4 1509   4.259   1.281   0.715  0.6361  0.1239  0.3873
  346SOL     OW 1510   4.039   2.020   0.789  0.0527 -0.5295 -0.5820
  346SOL    HW2 1511   4.025   2.000   0.882  0.5926 -1.3155 -0.6693
  346SOL    HW3 1512   3.951   2.021   0.752 -0.1667 -0.2278 -0.0707
  346SOL    MW4 1513   4.026   2.018   0.797  0.0944 -0.5934 -0.5261
  347SOL     OW 1514   2.287   0.119   1.196  0.2567  0.4336  0.1478
  347SOL    HW2 1515   2.280   0.201   1.149  0.5815  0.5653  0.3228
  347SOL    HW3 1516   2.343   0.064   1.140  0.0981  0.3574  0.0643
  347SOL    MW4 1517   2.294   0.122   1.182  0.2789  0.4409  0.1600
  348SOL     OW 1518   1.135   1.864   0.319  0.0650  0.4292  0.5610
  348SOL    HW2 1519   1.122   1.896   0.230  1.8577  1.0590  0.5131
  348SOL    HW3 1520   1.073   1.791   0.327  0.3974 -0.1069 -1.4448
  348SOL    MW4 1521   1.125   1.858   0.309  0.3455  0.4417  0.2900
  349SOL     OW 1522   0.296   3.925   0.466 -0.5849  0.0667 -0.1970
  349SOL    HW2 1523   0.387   3.927   0.437 -0.1546  1.2299  1.1915
  349SOL    HW3 1524   0.250   3.980   0.403 -0.1076  0.4665 -0.2050
  349SOL    MW4 1525   0.302   3.932   0.454 -0.4651  0.2728 -0.0148
  350SOL     OW 1526   1.431   3.831   0.432 -0.1559  0.1188 -0.0126
  350SOL    HW2 1527   1.366   3.863   0.371  1.2303 -0.0747 -1.6182
  350SOL    HW3 1528   1.424   3.736   0.428  0.2005  0.0986 -0.1467
  350SOL    MW4 1529   1.422   3.822   0.424  0.0740  0.0908 -0.2422
  351SOL     OW 1530   3.347   2.956   0.662 -0.3413  0.1012 -0.0915
  351SOL    HW2 1531   3.414   3.015   0.695 -0.5375  1.0383 -1.3099
  351SOL    HW3 1532   3.395   2.878   0.633  0.0585  0.2000  0.3025
  351SOL    MW4 1533   3.362   2.953   0.662 -0.3142  0.2379 -0.2003
  352SOL     OW 1534   1.113   3.125   1.097 -0.3616  0.0104  0.4465
  352SOL    HW2 1535   1.124   3.031   1.110  0.1590  0.1471  0.9979
  352SOL    HW3 1536   1.191   3.164   1.135  0.2635  0.5491 -1.3654
  352SOL    MW4 1537   1.124   3.118   1.104 -0.2104  0.0997  0.2801
  353SOL     OW 1538   1.802   1.905   0.783  0.0011  0.8206 -0.0939
  353SOL    HW2 1539   1.731   1.842   0.772 -0.6853  1.8248 -1.6764
  353SOL    HW3 1540   1.807   1.920   0.877  0.3506 -1.7761  0.3252
  353SOL    MW4 1541   1.793   1.899   0.794 -0.0434  0.6106 -0.2474
  354SOL     OW 1542   1.945   1.754   0.603  0.4207 -0.0196  1.0255
  354SOL    HW2 1543   1.874   1.794   0.654 -0.7912  1.4377 -1.6713
  354SOL    HW3 1544   1.899   1.701   0.538  1.8179  0.6039 -0.4839
  354SOL    MW4 1545   1.929   1.752   0.601  0.4451  0.2550  0.4706
  355SOL     OW 1546   3.499   2.725   0.615 -0.2383 -0.2687  0.3706
  355SOL    HW2 1547   3.462   2.638   0.628 -0.5103 -0.2699 -0.3465
  355SOL    HW3 1548   3.540   2.747   0.698 -0.4752 -0.9359  0.6670
  355SOL    MW4 1549   3.499   2.717   0.627 -0.3057 -0.3569  0.3151
  356SOL     OW 1550   1.597   1.541   1.129  0.0734  0.0553 -0.1110
  356SOL    HW2 1551   1.516   1.589   1.143  0.6061  0.7607  0.5805
  356SOL    HW3 1552   1.665   1.594   1.171  0.7464 -1.0178  0.1965
  356SOL    MW4 1553   1.595   1.554   1.136  0.2323  0.0067  0.0209
  357SOL     OW 1554   3.190   3.830   0.418  0.2037  0.0500 -0.0785
  357SOL    HW2 1555   3.267   3.857   0.369 -0.8578  0.1917 -1.6975
  357SOL    HW3 1556   3.123   3.895   0.396 -0.8769 -1.0273 -0.0454
  357SOL    MW4 1557   3.191   3.842   0.409 -0.0787 -0.0732 -0.2878
  358SOL     OW 1558   4.001   0.882   0.501 -0.1752 -0.0027 -0.0350
  358SOL    HW2 1559   3.990   0.887   0.596  0.0157  1.3270 -0.0759
  358SOL    HW3 1560   3.999   0.973   0.471  1.5707 -0.2833 -1.0981
  358SOL    MW4 1561   4.000   0.895   0.509  0.0808  0.1357 -0.1806
  359SOL     OW 1562   2.057   3.075   1.082 -0.0235 -0.7096 -0.0939
  359SOL    HW2 1563   2.049   2.984   1.113  0.9126 -0.8377 -0.2185
  359SOL    HW3 1564   1.980   3.119   1.119  0.2690 -1.2175  1.1726
  359SOL    MW4 1565   2.046   3.068   1.091  0.1388 -0.7935  0.0566
  360SOL     OW 1566   4.154   0.520   0.400 -0.1396  0.2250 -0.1209
  360SOL    HW2 1567   4.184   0.607   0.375 -1.8515  0.3530 -1.7998
  360SOL    HW3 1568   4.071   0.535   0.445  0.4916 -0.4197  1.3298
  360SOL    MW4 1569   4.147   0.533   0.403 -0.2823  0.1568 -0.1510
  361SOL     OW 1570   3.402   3.830   0.634  0.4737  0.5878 -0.2986
  361SOL    HW2 1571   3.407   3.735   0.627 -0.8138  0.3327  1.8247
  361SOL    HW3 1572   3.345   3.856   0.560  1.7348 -0.1460 -1.5508
  361SOL    MW4 1573   3.395   3.821   0.623  0.4702  0.4575 -0.1836
  362SOL     OW 1574   1.792   2.425   1.517  0.2837  0.4300  0.7076
  362SOL    HW2 1575   1.869   2.379   1.552  2.0417  3.1169  0.5338
  362SOL    HW3 1576   1.718   2.376   1.552  2.0459 -1.3981  2.0819
  362SOL    MW4 1577   1.793   2.412   1.527  0.7482  0.5431  0.8661
  363SOL     OW 1578   3.604   0.402   0.895  1.0937  0.2923 -0.0316
  363SOL    HW2 1579   3.574   0.394   0.985  2.2812 -0.6377  0.3050
  363SOL    HW3 1580   3.560   0.480   0.861  0.5831  0.6047  1.3271
  363SOL    MW4 1581   3.595   0.411   0.902  1.1833  0.2109  0.1921
  364SOL     OW 1582   1.110   3.610   1.227  0.0431 -0.1688  0.0311
  364SOL    HW2 1583   1.030   3.566   1.198  0.3170 -1.3286  0.9785
  364SOL    HW3 1584   1.106   3.606   1.323  0.1227  1.8128  0.1271
  364SOL    MW4 1585   1.099   3.603   1.236  0.0898 -0.0603  0.1687
  365SOL     OW 1586   3.962   1.915   0.156  0.4762  0.0884  0.4934
  365SOL    HW2 1587   3.980   1.999   0.113 -0.6357  0.0940  0.0001
  365SOL    HW3 1588   3.937   1.939   0.245  0.2250  0.2866  0.3721
  365SOL    MW4 1589   3.961   1.930   0.162  0.2961  0.1153  0.4123
  366SOL     OW 1590   2.773   1.083   0.874 -0.3711 -0.3790  0.1890
  366SOL    HW2 1591   2.726   1.124   0.802  0.2836 -1.2354 -0.7456
  366SOL    HW3 1592   2.853   1.050   0.834 -0.0925 -1.0363  1.2728
  366SOL    MW4 1593   2.777   1.084   0.859 -0.2480 -0.5788  0.2088
  367SOL     OW 1594   2.064   1.880   0.322 -0.2542 -0.5858 -0.8754
  367SOL    HW2 1595   2.147   1.858   0.280  1.4170  1.5507  1.0971
  367SOL    HW3 1596   2.060   1.823   0.399 -2.0460 -2.6622 -2.4283
  367SOL    MW4 1597   2.074   1.870   0.327 -0.2704 -0.5778 -0.8200
  368SOL     OW 1598   0.611   0.049   0.855  0.9770 -0.3464 -0.2297
  368SOL    HW2 1599   0.638   0.032   0.945 -1.1204 -1.4292  0.2542
  368SOL    HW3 1600   0.523   0.087   0.864  0.4315 -1.1854 -1.8185
  368SOL    MW4 1601   0.603   0.051   0.868  0.6283 -0.5999 -0.3755
  369SOL     OW 1602   2.379   3.193   0.347  0.0342 -0.1985 -0.4741
  369SOL    HW2 1603   2.310   3.138   0.387 -0.1787  1.3017  1.2655
  369SOL    HW3 1604   2.450   3.132   0.330 -1.1788 -1.5149 -0.9514
  369SOL    MW4 1605   2.379   3.177   0.350 -0.1540 -0.1745 -0.3076
  370SOL     OW 1606   3.980   2.809   0.461  0.6232 -0.2431  0.1431
  370SOL    HW2 1607   3.905   2.750   0.468  0.5106 -0.0255  0.8203
  370SOL    HW3 1608   3.983   2.854   0.545  1.9026 -0.7083  0.3628
  370SOL    MW4 1609   3.970   2.807   0.473  0.7770 -0.2759  0.2614
  371SOL     OW 1610   3.977   1.980   0.428 -0.1319 -0.0570 -0.0961
  371SOL    HW2 1611   3.902   1.959   0.484 -0.3230 -0.4767 -0.5020
  371SOL    HW3 1612   4.053   1.945   0.474 -0.1570  0.5742  0.4288
  371SOL    MW4 1613   3.977   1.973   0.441 -0.1602 -0.0290 -0.0803
  372SOL     OW 1614   2.440   0.996   0.522 -0.1458 -0.1763 -0.1931
  372SOL    HW2 1615   2.401   1.003   0.610 -1.4787 -0.3357 -0.7655
  372SOL    HW3 1616   2.525   0.954   0.537  0.3383  1.1982  1.2133
  372SOL    MW4 1617   2.446   0.992   0.536 -0.2577 -0.0160 -0.0831
  373SOL     OW 1618   0.600   2.326   0.835  0.0457  0.1379 -0.5008
  373SOL    HW2 1619   0.618   2.303   0.926  0.1019 -0.3519 -0.6305
  373SOL    HW3 1620   0.517   2.282   0.815  0.2953 -0.1838 -0.8404
  373SOL    MW4 1621   0.592   2.317   0.844  0.0861  0.0310 -0.5627
  374SOL     OW 1622   2.262   4.360   0.738  0.5812 -0.0134 -0.0574
  374SOL    HW2 1623   2.308   4.377   0.656  1.4225 -0.4890  0.3120
  374SOL    HW3 1624   2.252   4.265   0.741 -1.0552  0.1271 -0.4665
  374SOL    MW4 1625   2.267   4.350   0.728  0.4764 -0.0567 -0.0626
  375SOL     OW 1626   2.932   0.531   1.174  0.1933 -0.4743 -0.3047
  375SOL    HW2 1627   2.919   0.525   1.268  0.5494 -0.8239 -0.2787
  375SOL    HW3 1628   2.939   0.625   1.157  1.4783 -0.4797  0.1981
  375SOL    MW4 1629   2.931   0.543   1.184  0.4098 -0.5211 -0.2350
  376SOL     OW 1630   1.709   0.674   0.867  0.4482  0.1513 -0.2682
  376SOL    HW2 1631   1.677   0.583   0.871  1.4552 -0.1778  0.2869
  376SOL    HW3 1632   1.764   0.677   0.789  0.5842  0.2408 -0.1676
  376SOL    MW4 1633   1.712   0.662   0.857  0.5990  0.1197 -0.1817
  377SOL     OW 1634   1.262   2.204   0.351 -0.5730  0.3695 -0.4484
  377SOL    HW2 1635   1.331   2.235   0.292  0.6504 -1.1361  0.1407
  377SOL    HW3 1636   1.181   2.220   0.303  0.3702 -0.3317 -2.3363
  377SOL    MW4 1637   1.261   2.210   0.337 -0.2872  0.0784 -0.6198
  378SOL     OW 1638   1.491   3.091   0.874  0.0979  0.0975 -0.0458
  378SOL    HW2 1639   1.399   3.071   0.855 -0.1183  0.8102  0.2604
  378SOL    HW3 1640   1.540   3.030   0.818 -0.5566  0.4700 -1.0513
  378SOL    MW4 1641   1.485   3.080   0.864 -0.0169  0.2406 -0.1381
  379SOL     OW 1642   1.558   1.633   0.444 -0.3207 -0.0016 -0.0605
  379SOL    HW2 1643   1.566   1.679   0.527 -1.4557 -1.0231  0.6252
  379SOL    HW3 1644   1.641   1.586   0.434 -0.7776 -1.1354  1.2771
  379SOL    MW4 1645   1.570   1.633   0.453 -0.5308 -0.2860  0.2065
  380SOL     OW 1646   1.318   2.646   0.552 -0.4860  0.1613  0.0667
  380SOL    HW2 1647   1.412   2.664   0.542 -0.5806  0.1904 -0.8757
  380SOL    HW3 1648   1.298   2.669   0.642  0.3784  0.3290  0.2208
  380SOL    MW4 1649   1.328   2.651   0.562 -0.3844  0.1876 -0.0373
  381SOL     OW 1650   2.130   1.485   0.483 -0.3740 -0.1832  0.1346
  381SOL    HW2 1651   2.218   1.462   0.452 -0.5446 -1.4910  0.5987
  381SOL    HW3 1652   2.107   1.415   0.543 -0.8925  1.2652  1.6544
  381SOL    MW4 1653   2.139   1.473   0.487 -0.4649 -0.1647  0.3963
  382SOL     OW 1654   2.691   0.870   0.562 -0.1742 -0.2836 -0.2230
  382SOL    HW2 1655   2.777   0.884   0.522 -0.8216  0.0366 -1.5575
  382SOL    HW3 1656   2.698   0.785   0.605  0.6358 -0.5353 -0.8316
  382SOL    MW4 1657   2.703   0.860   0.562 -0.1526 -0.2746 -0.4793
  383SOL     OW 1658   2.693   2.460   1.172  0.1013  0.2431 -0.2846
  383SOL    HW2 1659   2.624   2.392   1.173  0.9723 -0.6546 -0.4138
  383SOL    HW3 1660   2.727   2.460   1.262  1.8120 -1.2721 -0.9095
  383SOL    MW4 1661   2.688   2.451   1.184  0.4423 -0.0749 -0.3841
  384SOL     OW 1662   2.741   2.399   0.728 -0.8052 -0.3451 -0.3577
  384SOL    HW2 1663   2.732   2.487   0.763  3.5137 -0.1288  0.4709
  384SOL    HW3 1664   2.752   2.411   0.634 -0.0612  0.0306 -0.2258
  384SOL    MW4 1665   2.741   2.412   0.721 -0.1373 -0.2668 -0.2310
  385SOL     OW 1666   0.518   0.631   0.546 -0.1814  0.2955  0.1002
  385SOL    HW2 1667   0.439   0.578   0.548  0.9792 -1.4857 -0.2417
  385SOL    HW3 1668   0.489   0.716   0.513 -1.5321 -1.1339 -2.5718
  385SOL    MW4 1669   0.504   0.636   0.542 -0.2065 -0.1281 -0.2974
  386SOL     OW 1670   4.184   1.269   0.269 -0.0449 -0.0742 -0.0167
  386SOL    HW2 1671   4.129   1.226   0.335  1.3412 -0.2633  1.0293
  386SOL    HW3 1672   4.173   1.363   0.286  1.0255 -0.1447  1.0750
  386SOL    MW4 1673   4.175   1.276   0.280  0.2794 -0.1085  0.2653
  387SOL     OW 1674   1.600   3.557   1.221 -0.1490 -0.3961 -0.3215
  387SOL    HW2 1675   1.673   3.506   1.186 -0.3039 -0.7982 -0.0647
  387SOL    HW3 1676   1.523   3.525   1.174 -0.6187 -2.1487  1.5552
  387SOL    MW4 1677   1.599   3.546   1.210 -0.2314 -0.6802 -0.0399
  388SOL     OW 1678   4.247   0.789   0.379 -0.0295 -0.1914  0.1332
  388SOL    HW2 1679   4.161   0.820   0.407  0.7927  0.5760  1.8893
  388SOL    HW3 1680   4.274   0.851   0.312 -0.1312  0.5875  0.7939
  388SOL    MW4 1681   4.239   0.802   0.374  0.0653  0.0126  0.4521
  389SOL     OW 1682   3.356   4.583   0.874 -0.3812 -0.0171  0.2454
  389SOL    HW2 1683   3.380   4.490   0.866  1.2100  0.4508 -0.5813
  389SOL    HW3 1684   3.361   4.601   0.968  1.0006 -0.3313  0.2363
  389SOL    MW4 1685   3.360   4.573   0.885  0.0112  0.0029  0.1351
  390SOL     OW 1686   3.884   3.187   0.651  0.0774  0.5245  0.0357
  390SOL    HW2 1687   3.854   3.206   0.563  1.6900  0.1741 -0.6238
  390SOL    HW3 1688   3.941   3.110   0.641  1.2683  1.2229  1.1801
  390SOL    MW4 1689   3.888   3.179   0.638  0.4478  0.5708  0.0997
  391SOL     OW 1690   0.856   3.226   1.186  0.1055 -0.4461  0.3559
  391SOL    HW2 1691   0.848   3.225   1.281  0.0655  0.8343  0.3747
  391SOL    HW3 1692   0.938   3.180   1.168 -0.2649 -1.3506  0.9646
  391SOL    MW4 1693   0.866   3.220   1.196  0.0514 -0.3967  0.4386
  392SOL     OW 1694   0.701   1.505   0.822  0.2045  0.4668  0.3259
  392SOL    HW2 1695   0.789   1.470   0.808  0.2958  1.2646 -1.2282
  392SOL    HW3 1696   0.691   1.509   0.917  0.9623 -1.8260  0.5183
  392SOL    MW4 1697   0.711   1.501   0.833  0.3166  0.2697  0.1463
  393SOL     OW 1698   1.084   2.459   0.831 -0.7922 -0.3026 -0.5433
  393SOL    HW2 1699   1.137   2.538   0.820 -2.1121  0.7170  0.3192
  393SOL    HW3 1700   1.105   2.427   0.919  1.9359 -2.6118 -1.9223
  393SOL    MW4 1701   1.094   2.465   0.841 -0.6063 -0.4728 -0.6115
  394SOL     OW 1702   2.990   2.331   0.838  0.2865 -0.3782 -0.0748
  394SOL    HW2 1703   2.976   2.309   0.930 -0.3027  2.4932  0.5560
  394SOL    HW3 1704   2.902   2.340   0.801  0.5185 -1.2166 -0.8617
  394SOL    MW4 1705   2.976   2.329   0.845  0.2394 -0.1099 -0.0954
  395SOL     OW 1706   3.186   0.821   0.415 -0.3500 -0.3532  0.1699
  395SOL    HW2 1707   3.220   0.780   0.495  1.0031 -0.6294 -0.5324
  395SOL    HW3 1708   3.175   0.749   0.354  1.4264  0.2180 -0.8595
  395SOL    MW4 1709   3.189   0.806   0.418  0.0629 -0.3142 -0.0585
  396SOL     OW 1710   1.017   2.104   0.861  0.4162  0.3616  0.1346
  396SOL    HW2 1711   0.942   2.121   0.804 -0.3040  0.6931  1.1611
  396SOL    HW3 1712   0.979   2.058   0.936  1.5000 -0.9596 -0.0977
  396SOL    MW4 1713   1.002   2.100   0.863  0.4642  0.2308  0.2394
  397SOL     OW 1714   2.710   0.383   1.093 -0.4149  0.0686  0.1461
  397SOL    HW2 1715   2.800   0.414   1.101 -0.5987  0.7601 -0.4587
  397SOL    HW3 1716   2.711   0.297   1.136 -0.0961  1.2480  2.5756
  397SOL    MW4 1717   2.722   0.375   1.100 -0.3972  0.3154  0.3868
  398SOL     OW 1718   3.126   4.216   0.815 -0.4428  0.1734  0.2752
  398SOL    HW2 1719   3.080   4.299   0.813 -0.4011  0.2310  1.5621
  398SOL    HW3 1720   3.060   4.151   0.788 -0.4861  0.6032 -0.6750
  398SOL    MW4 1721   3.111   4.218   0.811 -0.4430  0.2379  0.3196
  399SOL     OW 1722   3.060   2.613   0.797  0.0717  0.1795 -0.0878
  399SOL    HW2 1723   3.089   2.612   0.706  0.0681 -0.0029 -0.0858
  399SOL    HW3 1724   3.041   2.522   0.818 -0.2477  0.2631 -0.0087
  399SOL    MW4 1725   3.061   2.601   0.788  0.0288  0.1664 -0.0771
  400SOL     OW 1726   1.405   1.353   0.782  0.1773 -0.0691 -0.1826
  400SOL    HW2 1727   1.479   1.401   0.819 -0.3155 -0.1798  0.9806
  400SOL    HW3 1728   1.387   1.283   0.846 -0.4712 -0.4818 -0.8006
  400SOL    MW4 1729   1.412   1.350   0.796  0.0268 -0.1380 -0.1107
  401SOL     OW 1730   0.860   2.659   0.850 -0.5251 -0.3302 -0.1936
  401SOL    HW2 1731   0.925   2.590   0.839 -0.4050 -0.4577  1.1784
  401SOL    HW3 1732   0.868   2.685   0.942 -0.9426  1.1304 -0.5465
  401SOL    MW4 1733   0.870   2.653   0.861 -0.5644 -0.1543 -0.0592
  402SOL     OW 1734   3.302   1.482   0.908 -0.5696  0.0580 -0.0820
  402SOL    HW2 1735   3.328   1.498   0.999  0.1246 -2.0340  0.1193
  402SOL    HW3 1736   3.289   1.569   0.871  1.1286  1.0128  1.4590
  402SOL    MW4 1737   3.304   1.496   0.915 -0.2539 -0.0920  0.1479
  403SOL     OW 1738   4.423   4.010   0.360 -0.2582 -0.0221 -0.5687
  403SOL    HW2 1739   4.413   3.917   0.379  0.1372 -0.0396 -0.4534
  403SOL    HW3 1740   4.358   4.053   0.416 -0.3512 -0.2171 -0.5265
  403SOL    MW4 1741   4.413   4.003   0.370 -0.2174 -0.0501 -0.5479
  404SOL     OW 1742   1.589   3.110   1.129  0.2028  0.4880 -0.5020
  404SOL    HW2 1743   1.587   3.030   1.181 -1.6994  0.6984 -0.2321
  404SOL    HW3 1744   1.553   3.084   1.044 -1.5474  1.3106 -0.0266
  404SOL    MW4 1745   1.584   3.096   1.125 -0.2791  0.6244 -0.4036
  405SOL     OW 1746   3.768   4.221   0.370  0.3522 -0.0826  0.0929
  405SOL    HW2 1747   3.789   4.314   0.368  0.7646 -0.1853 -0.4400
  405SOL    HW3 1748   3.673   4.218   0.384  0.5788  0.3983  1.8136
  405SOL    MW4 1749   3.758   4.233   0.372  0.4365 -0.0324  0.2496
  406SOL     OW 1750   2.040   2.119   0.436  0.8380  0.7880 -0.1609
  406SOL    HW2 1751   2.060   2.102   0.528 -1.9207  0.5943  0.4242
  406SOL    HW3 1752   2.040   2.033   0.395  0.4265  0.7168 -0.0090
  406SOL    MW4 1753   2.043   2.106   0.443  0.4196  0.7529 -0.0637
  407SOL     OW 1754   0.699   4.461   0.772  0.4512 -0.2874  0.1876
  407SOL    HW2 1755   0.643   4.390   0.806  0.4134 -0.7938 -0.9255
  407SOL    HW3 1756   0.648   4.540   0.786  0.0802 -0.5857  0.5410
  407SOL    MW4 1757   0.685   4.462   0.779  0.3973 -0.3934  0.0874
  408SOL     OW 1758   0.478   1.735   0.363 -0.1165 -0.2515  0.4027
  408SOL    HW2 1759   0.570   1.725   0.388  0.3083 -0.2684 -1.0663
  408SOL    HW3 1760   0.435   1.657   0.397  0.3771 -0.1719  1.2332
  408SOL    MW4 1761   0.485   1.723   0.371  0.0047 -0.2432  0.3185
  409SOL     OW 1762   0.373   0.183   0.884  0.3783 -0.2739 -0.6996
  409SOL    HW2 1763   0.341   0.141   0.805 -2.2789  1.3648 -0.5405
  409SOL    HW3 1764   0.326   0.140   0.955  0.1159  0.6425 -0.2995
  409SOL    MW4 1765   0.363   0.172   0.883 -0.0069  0.0632 -0.6258
  410SOL     OW 1766   2.735   2.710   1.122  0.1976 -0.0758  0.3372
  410SOL    HW2 1767   2.652   2.755   1.139 -0.2099  0.9520 -3.8255
  410SOL    HW3 1768   2.715   2.618   1.136 -1.9350  0.0767 -1.3715
  410SOL    MW4 1769   2.722   2.704   1.126 -0.1376  0.0799 -0.4375
  411SOL     OW 1770   3.747   1.691   0.766 -0.3554  0.2008 -0.2076
  411SOL    HW2 1771   3.674   1.629   0.763 -1.2117  1.1143  0.7772
  411SOL    HW3 1772   3.822   1.642   0.734 -1.2492 -0.9944 -0.5303
  411SOL    MW4 1773   3.747   1.677   0.761 -0.5860  0.1634 -0.1202
  412SOL     OW 1774   2.110   3.610   0.416  0.0127  0.1724 -0.1916
  412SOL    HW2 1775   2.026   3.615   0.372 -0.2710  1.7395  0.4926
  412SOL    HW3 1776   2.148   3.697   0.407  1.0193 -0.1670  0.5653
  412SOL    MW4 1777   2.104   3.622   0.409  0.1082  0.3343 -0.0015
  413SOL     OW 1778   1.348   3.492   1.107 -0.2135  0.5107  0.3388
  413SOL    HW2 1779   1.295   3.535   1.174  0.7573 -0.8057  2.0059
  413SOL    HW3 1780   1.337   3.399   1.124  0.1471  0.1503 -1.2799
  413SOL    MW4 1781   1.340   3.485   1.118 -0.0378  0.2892  0.3451
  414SOL     OW 1782   4.343   4.597   0.177  0.1570 -0.1650  0.2465
  414SOL    HW2 1783   4.328   4.560   0.090 -0.3167 -0.5482  0.4864
  414SOL    HW3 1784   4.264   4.573   0.226  0.4303  0.0409  0.7812
  414SOL    MW4 1785   4.330   4.589   0.172  0.1302 -0.1879  0.3487
  415SOL     OW 1786   1.350   3.223   1.196 -0.2530 -0.5891  0.1849
  415SOL    HW2 1787   1.430   3.176   1.171 -0.6463 -1.2481  0.1629
  415SOL    HW3 1788   1.351   3.223   1.292  2.0805  3.3300  0.2644
  415SOL    MW4 1789   1.361   3.217   1.205  0.0029 -0.1590  0.1925
  416SOL     OW 1790   2.312   2.576   0.522 -0.2960 -0.3202  0.0334
  416SOL    HW2 1791   2.378   2.513   0.493  0.0552 -0.4162  1.0042
  416SOL    HW3 1792   2.358   2.660   0.524  0.2302 -0.6377  2.1605
  416SOL    MW4 1793   2.327   2.578   0.518 -0.1800 -0.3750  0.4420
  417SOL     OW 1794   1.338   4.249   1.089 -0.1757  0.2294  0.0876
  417SOL    HW2 1795   1.260   4.291   1.126 -0.0354  0.1406  0.4874
  417SOL    HW3 1796   1.411   4.298   1.126 -0.0656  1.0002 -1.1246
  417SOL    MW4 1797   1.338   4.261   1.099 -0.1428  0.3195 -0.0197
  418SOL     OW 1798   1.859   1.586   0.394  0.4254 -0.4410  0.0406
  418SOL    HW2 1799   1.867   1.619   0.304  1.7358 -0.2378  0.2192
  418SOL    HW3 1800   1.942   1.542   0.410  1.2130  1.6611  2.0089
  418SOL    MW4 1801   1.871   1.585   0.384  0.7023 -0.1369  0.3238
  419SOL     OW 1802   4.439   2.723   0.910 -0.0469 -0.6679  0.3208
  419SOL    HW2 1803   4.352   2.684   0.918 -1.1725  1.8311  0.8151
  419SOL    HW3 1804   4.470   2.733   1.001 -1.1808  2.4999  0.4344
  419SOL    MW4 1805   4.432   2.719   0.923 -0.3448  0.0796  0.4011
  420SOL     OW 1806   2.376   2.853   0.555 -0.3605 -0.4993 -0.1146
  420SOL    HW2 1807   2.429   2.899   0.490 -0.0754 -2.1663 -1.0879
  420SOL    HW3 1808   2.437   2.834   0.626  0.1878 -1.7243 -0.8939
  420SOL    MW4 1809   2.391   2.857   0.556 -0.2506 -0.8810 -0.3459
  421SOL     OW 1810   0.727   3.519   0.792  0.1848  0.4220  0.2699
  421SOL    HW2 1811   0.736   3.507   0.697 -0.6477 -0.0584  0.2400
  421SOL    HW3 1812   0.712   3.613   0.803  0.7598  0.5489 -0.0347
  421SOL    MW4 1813   0.726   3.530   0.781  0.1508  0.3753  0.2258
  422SOL     OW 1814   1.345   4.262   0.803  0.1554 -0.6266 -0.2594
  422SOL    HW2 1815   1.334   4.275   0.898 -0.0015  1.5518 -0.5410
  422SOL    HW3 1816   1.426   4.213   0.795 -0.1909 -1.4499  1.0410
  422SOL    MW4 1817   1.354   4.257   0.815  0.0889 -0.4482 -0.1249
  423SOL     OW 1818   3.218   1.095   0.811 -0.4089 -0.1215 -0.2028
  423SOL    HW2 1819   3.185   1.174   0.854 -1.3667 -0.8273  0.3524
  423SOL    HW3 1820   3.288   1.127   0.754 -1.2419  1.2141 -0.4885
  423SOL    MW4 1821   3.223   1.110   0.809 -0.6454 -0.0386 -0.1674
  424SOL     OW 1822   0.813   2.127   0.407  0.1615  0.1345 -0.4529
  424SOL    HW2 1823   0.746   2.060   0.398  0.6051 -0.1523 -1.7642
  424SOL    HW3 1824   0.849   2.114   0.495 -1.7708  0.5731  0.4303
  424SOL    MW4 1825   0.809   2.116   0.418 -0.0349  0.1545 -0.5094
  425SOL     OW 1826   2.240   1.724   0.565  0.0192  0.0242 -0.0471
  425SOL    HW2 1827   2.207   1.756   0.650  0.3038 -1.1044  0.4964
  425SOL    HW3 1828   2.203   1.637   0.557 -0.0494  0.1501 -1.1284
  425SOL    MW4 1829   2.231   1.717   0.575  0.0477 -0.1080 -0.1181
  426SOL     OW 1830   2.133   0.780   0.830 -0.8518  0.0800 -0.0832
  426SOL    HW2 1831   2.126   0.734   0.747 -0.5052  1.4901 -0.9161
  426SOL    HW3 1832   2.044   0.809   0.849 -1.5889 -3.2315  1.8271
  426SOL    MW4 1833   2.120   0.778   0.822 -0.9034 -0.1708  0.0589
  427SOL     OW 1834   1.692   3.538   0.875 -0.0180  0.4545 -0.4577
  427SOL    HW2 1835   1.735   3.536   0.961  0.9658 -3.4786 -0.9906
  427SOL    HW3 1836   1.752   3.587   0.819  1.2840 -0.4784  0.1051
  427SOL    MW4 1837   1.705   3.544   0.879  0.2836 -0.1874 -0.4538
  428SOL     OW 1838   1.899   0.324   0.832  0.0035 -0.1682 -0.2319
  428SOL    HW2 1839   1.872   0.333   0.923 -2.0305  0.1083 -0.8234
  428SOL    HW3 1840   1.857   0.398   0.788 -0.2533 -1.1336 -1.6422
  428SOL    MW4 1841   1.890   0.335   0.838 -0.2987 -0.2590 -0.4960
  429SOL     OW 1842   1.516   0.881   0.788 -0.2754 -0.2190 -0.0545
  429SOL    HW2 1843   1.540   0.954   0.731  1.3919 -0.9946 -0.3859
  429SOL    HW3 1844   1.597   0.830   0.797 -0.5353 -0.2015  2.8910
  429SOL    MW4 1845   1.530   0.884   0.782 -0.0895 -0.3191  0.2905
  430SOL     OW 1846   4.314   1.551   0.613 -0.0513 -0.2476 -0.0449
  430SOL    HW2 1847   4.293   1.460   0.635  1.4001 -0.2810  1.2838
  430SOL    HW3 1848   4.294   1.600   0.692  0.8190  0.3352 -0.1801
  430SOL    MW4 1849   4.309   1.546   0.626  0.2546 -0.1751  0.1125
  431SOL     OW 1850   0.920   3.981   0.699 -0.1586  0.5923  0.1318
  431SOL    HW2 1851   0.872   4.036   0.761  0.5775  1.0856  0.2613
  431SOL    HW3 1852   0.917   3.893   0.738  0.6473  0.9753  1.0730
  431SOL    MW4 1853   0.913   3.976   0.712  0.0449  0.7079  0.2732
  432SOL     OW 1854   2.628   4.244   0.452  0.2099 -0.2383  0.4055
  432SOL    HW2 1855   2.644   4.222   0.544 -0.2986  0.2109  0.6054
  432SOL    HW3 1856   2.559   4.310   0.455  0.1478 -0.2654 -0.3046
  432SOL    MW4 1857   2.621   4.250   0.464  0.1347 -0.1826  0.3382
  433SOL     OW 1858   2.116   0.248   0.456 -0.1178 -0.6420 -0.4017
  433SOL    HW2 1859   2.161   0.278   0.377  0.8651  0.1302  0.4197
  433SOL    HW3 1860   2.144   0.157   0.466 -0.2696 -0.7524 -0.9592
  433SOL    MW4 1861   2.126   0.240   0.447 -0.0081 -0.5547 -0.3669
  434SOL     OW 1862   4.377   3.068   0.411  0.4677  0.0309  0.2427
  434SOL    HW2 1863   4.465   3.102   0.395  0.7880 -0.2146  1.3955
  434SOL    HW3 1864   4.389   2.973   0.421 -0.0685 -0.1245 -0.5556
  434SOL    MW4 1865   4.390   3.060   0.411  0.4387 -0.0222  0.2894
  435SOL     OW 1866   2.560   0.021   0.475  0.0651  0.0146 -0.4712
  435SOL    HW2 1867   2.597   0.092   0.528 -0.1705  0.1251 -0.4509
  435SOL    HW3 1868   2.502   0.065   0.413 -0.5886 -0.2093 -0.0291
  435SOL    MW4 1869   2.557   0.036   0.474 -0.0520 -0.0003 -0.4102
  436SOL     OW 1870   2.310   2.760   0.898 -0.5670 -0.3064 -0.1847
  436SOL    HW2 1871   2.326   2.725   0.986 -1.5119 -1.7512 -0.5645
  436SOL    HW3 1872   2.397   2.781   0.864 -0.1943  0.2764  1.0877
  436SOL    MW4 1873   2.324   2.758   0.905 -0.6425 -0.4201 -0.0669
  437SOL     OW 1874   3.552   0.615   0.736  0.0382  0.0669  0.5477
  437SOL    HW2 1875   3.588   0.640   0.651 -0.3056 -0.1822  0.3261
  437SOL    HW3 1876   3.465   0.655   0.738 -0.1419 -0.3275  0.5830
  437SOL    MW4 1877   3.545   0.623   0.725 -0.0308 -0.0179  0.5231
  438SOL     OW 1878   0.274   3.659   0.477  0.1010 -0.1249 -0.1100
  438SOL    HW2 1879   0.273   3.754   0.466  3.3659  0.0605  0.7840
  438SOL    HW3 1880   0.294   3.646   0.570 -0.7201 -1.6826 -0.1436
  438SOL    MW4 1881   0.277   3.670   0.488  0.4235 -0.3059  0.0035
  439SOL     OW 1882   3.314   3.259   0.896 -0.4561  0.5286  0.0200
  439SOL    HW2 1883   3.239   3.206   0.869  0.3587 -1.4681  1.5525
  439SOL    HW3 1884   3.345   3.218   0.977  1.7587  1.8402 -0.1159
  439SOL    MW4 1885   3.309   3.247   0.903 -0.0565  0.4385  0.2042
  440SOL     OW 1886   1.054   2.324   0.592  0.0450 -0.3901  0.3184
  440SOL    HW2 1887   1.064   2.367   0.676  0.0299  0.6076 -0.1815
  440SOL    HW3 1888   0.989   2.255   0.607 -0.8371  0.5480  0.8408
  440SOL    MW4 1889   1.047   2.320   0.605 -0.0734 -0.1347  0.3214
  441SOL     OW 1890   1.983   4.492   0.545 -0.0417  0.1502  0.1835
  441SOL    HW2 1891   1.903   4.534   0.513 -0.5426 -0.4545  0.6408
  441SOL    HW3 1892   1.958   4.401   0.561  1.4236 -0.7005 -2.2157
  441SOL    MW4 1893   1.969   4.486   0.543  0.0855 -0.0415 -0.0727
  442SOL     OW 1894   3.628   4.235   0.830  0.0294  0.2882 -0.0091
  442SOL    HW2 1895   3.625   4.165   0.764  1.4639 -0.9495  1.2087
  442SOL    HW3 1896   3.693   4.296   0.796  1.0145 -0.5172  0.4089
  442SOL    MW4 1897   3.636   4.234   0.817  0.3486  0.0191  0.2066
  443SOL     OW 1898   0.924   4.124   0.433  0.2918  0.2011  0.3725
  443SOL    HW2 1899   1.016   4.100   0.420  0.1826  0.1478 -0.3392
  443SOL    HW3 1900   0.902   4.090   0.519  0.7968 -0.2405  0.3300
  443SOL    MW4 1901   0.933   4.117   0.442  0.3439  0.1359  0.2730
  444SOL     OW 1902   0.567   1.992   0.427 -0.6268  0.3260 -0.1341
  444SOL    HW2 1903   0.529   1.915   0.384 -0.3457  0.3797 -0.4765
  444SOL    HW3 1904   0.578   1.965   0.518 -2.3562  0.6159  0.1787
  444SOL    MW4 1905   0.563   1.978   0.434 -0.8179  0.3712 -0.1380
  445SOL     OW 1906   1.762   4.269   1.103  0.2359 -0.2656 -0.6133
  445SOL    HW2 1907   1.791   4.184   1.137  1.3513  0.1142 -0.6075
  445SOL    HW3 1908   1.836   4.327   1.117 -0.9206  0.9832  0.3645
  445SOL    MW4 1909   1.775   4.265   1.109  0.2306 -0.0505 -0.4833
  446SOL     OW 1910   1.813   4.133   0.853  0.0112 -0.1234  0.2650
  446SOL    HW2 1911   1.785   4.202   0.913 -0.3574 -1.9002  2.1750
  446SOL    HW3 1912   1.731   4.096   0.820  0.1888 -0.3153  0.0375
  446SOL    MW4 1913   1.798   4.137   0.856 -0.0139 -0.3829  0.4870
  447SOL     OW 1914   0.155   3.103   0.479  0.1417 -0.1423 -0.3471
  447SOL    HW2 1915   0.128   3.154   0.555 -0.0937 -0.0979 -0.4617
  447SOL    HW3 1916   0.223   3.044   0.514 -0.1194 -0.2729 -0.0575
  447SOL    MW4 1917   0.161   3.102   0.494  0.0762 -0.1538 -0.3240
  448SOL     OW 1918   3.778   3.272   0.902  0.1577  0.0873 -0.1050
  448SOL    HW2 1919   3.819   3.248   0.819  1.4445  0.0146  0.5516
  448SOL    HW3 1920   3.761   3.366   0.893 -0.5719 -0.0977 -0.8049
  448SOL    MW4 1921   3.781   3.281   0.890  0.2313  0.0532 -0.1107
  449SOL     OW 1922   3.547   3.312   0.526 -0.0741 -0.0910 -0.4660
  449SOL    HW2 1923   3.562   3.242   0.590 -1.7138  1.4588  1.6790
  449SOL    HW3 1924   3.627   3.313   0.472  2.3347  0.0168  2.9636
  449SOL    MW4 1925   3.560   3.303   0.527  0.0274  0.1276  0.2695
  450SOL     OW 1926   0.095   1.449   0.517  0.0107  0.4137 -0.1288
  450SOL    HW2 1927   0.057   1.528   0.555 -0.9554 -0.4692  0.7693
  450SOL    HW3 1928   0.087   1.383   0.585  1.6912 -0.2276 -0.5152
  450SOL    MW4 1929   0.089   1.450   0.531  0.1049  0.2127 -0.0613
  451SOL     OW 1930   0.804   3.835   0.085 -0.4834 -0.1371  0.2115
  451SOL    HW2 1931   0.763   3.842  -0.001 -0.0491 -0.1989  0.0016
  451SOL    HW3 1932   0.755   3.897   0.140  0.3267  1.1570 -0.4913
  451SOL    MW4 1933   0.792   3.844   0.081 -0.3192  0.0253  0.0910
  452SOL     OW 1934   2.331   0.725   0.465 -0.3143  0.1491 -0.3632
  452SOL    HW2 1935   2.364   0.801   0.512 -2.4988 -0.0652  1.6041
  452SOL    HW3 1936   2.285   0.761   0.390 -2.7779  0.9185  1.4582
  452SOL    MW4 1937   2.329   0.740   0.462 -0.9277  0.2224  0.1367
  453SOL     OW 1938   3.964   4.026   0.373 -0.2332  0.7841 -0.5216
  453SOL    HW2 1939   3.939   4.001   0.462  0.5255 -0.3911 -0.6234
  453SOL    HW3 1940   3.912   4.104   0.354  0.0970  1.4507  1.2067
  453SOL    MW4 1941   3.954   4.033   0.383 -0.0894  0.7172 -0.3069
  454SOL     OW 1942   1.794   1.176   0.836 -0.3413 -0.6999  0.1117
  454SOL    HW2 1943   1.859   1.237   0.801 -0.7189 -0.8435 -0.8570
  454SOL    HW3 1944   1.734   1.161   0.763 -2.8350  1.2855  1.7019
  454SOL    MW4 1945   1.795   1.182   0.822 -0.7201 -0.4569  0.1937
  455SOL     OW 1946   0.817   1.728   0.692 -0.0397 -0.4151  0.3580
  455SOL    HW2 1947   0.775   1.663   0.748  0.0704 -0.9683 -0.1927
  455SOL    HW3 1948   0.910   1.717   0.707 -0.0680  0.6305  1.3766
  455SOL    MW4 1949   0.823   1.718   0.701 -0.0288 -0.3501  0.4197
  456SOL     OW 1950   0.597   3.957   0.430 -0.1726  0.7151 -0.1234
  456SOL    HW2 1951   0.634   4.021   0.369 -0.7065  1.5605  0.4100
  456SOL    HW3 1952   0.670   3.901   0.455  0.6351  2.0329  0.5144
  456SOL    MW4 1953   0.611   3.958   0.425 -0.1364  1.0006  0.0311
  457SOL     OW 1954   2.763   4.494   0.425  0.3596  0.1667 -0.0629
  457SOL    HW2 1955   2.728   4.405   0.422  1.6933 -0.3884  0.2953
  457SOL    HW3 1956   2.689   4.549   0.450 -0.3167 -0.9282  0.3482
  457SOL    MW4 1957   2.749   4.490   0.428  0.4466 -0.0510  0.0386
  458SOL     OW 1958   1.758   1.176   1.114 -0.7206  0.4594 -0.2344
  458SOL    HW2 1959   1.747   1.164   1.020  1.1941  1.2043 -0.5737
  458SOL    HW3 1960   1.778   1.089   1.147 -2.1708  0.0503 -0.3744
  458SOL    MW4 1961   1.759   1.163   1.106 -0.6592  0.5037 -0.2975
  459SOL     OW 1962   4.098   0.118   0.466  0.0006 -0.6103  0.2539
  459SOL    HW2 1963   4.157   0.194   0.470  0.7423 -1.2017  0.8481
  459SOL    HW3 1964   4.010   0.156   0.463  0.4275  0.2956 -1.3668
  459SOL    MW4 1965   4.094   0.133   0.466  0.1550 -0.5688  0.1184
  460SOL     OW 1966   0.108   1.186   0.215 -0.2223 -0.6966 -0.0622
  460SOL    HW2 1967   0.177   1.226   0.163 -0.9253 -0.7098 -1.0394
  460SOL    HW3 1968   0.043   1.255   0.228 -0.0331 -0.6830  0.8386
  460SOL    MW4 1969   0.108   1.200   0.210 -0.2901 -0.6964 -0.0723
  461SOL     OW 1970   3.912   2.792   0.872  0.2900 -0.1678  0.2437
  461SOL    HW2 1971   3.901   2.702   0.843  1.1608 -0.0907 -0.3608
  461SOL    HW3 1972   3.919   2.786   0.968 -0.6779 -0.6234  0.2871
  461SOL    MW4 1973   3.912   2.779   0.881  0.2773 -0.2177  0.1697
  462SOL     OW 1974   4.322   0.312   0.474 -0.4278  0.3593 -0.0354
  462SOL    HW2 1975   4.375   0.269   0.408  0.6460  2.8908 -0.8855
  462SOL    HW3 1976   4.277   0.383   0.427 -0.7363  1.3062  1.6284
  462SOL    MW4 1977   4.323   0.316   0.459 -0.3271  0.8183  0.0719
  463SOL     OW 1978   2.054   2.742   0.532  0.1756 -0.2348  0.3129
  463SOL    HW2 1979   2.135   2.691   0.525 -0.5489 -1.5485  1.0739
  463SOL    HW3 1980   1.985   2.679   0.508 -0.5126  1.2961 -1.8596
  463SOL    MW4 1981   2.055   2.727   0.528 -0.0107 -0.2062  0.1267
  464SOL     OW 1982   1.108   2.028   0.082  0.0045  0.4957  0.0852
  464SOL    HW2 1983   1.173   2.072   0.028  1.1518  0.1480  1.1498
  464SOL    HW3 1984   1.078   2.096   0.143  2.9255 -0.5293  2.7645
  464SOL    MW4 1985   1.112   2.043   0.083  0.5412  0.3147  0.5792
  465SOL     OW 1986   2.692   3.997   0.313  0.1826 -0.9750  0.4995
  465SOL    HW2 1987   2.669   4.082   0.350  0.2491 -0.2474 -1.0692
  465SOL    HW3 1988   2.622   3.938   0.340 -0.8721  0.0425 -0.0096
  465SOL    MW4 1989   2.680   4.000   0.321  0.0522 -0.7453  0.2253
  466SOL     OW 1990   0.115   1.574   0.067  0.0239 -0.2833 -0.0073
  466SOL    HW2 1991   0.052   1.534   0.127  0.3990 -0.0340  0.5572
  466SOL    HW3 1992   0.061   1.613  -0.002 -0.3949 -0.7924  0.0282
  466SOL    MW4 1993   0.100   1.574   0.065  0.0181 -0.3176  0.0718
  467SOL     OW 1994   0.638   1.062   0.726  0.8018  0.2433 -0.5980
  467SOL    HW2 1995   0.637   1.105   0.640 -1.0242 -0.4640 -0.9572
  467SOL    HW3 1996   0.560   1.096   0.770  1.4642  0.2227  0.6004
  467SOL    MW4 1997   0.628   1.072   0.721  0.6483  0.1472 -0.4873
  468SOL     OW 1998   2.976   4.042   0.394 -0.6885 -0.1825  0.0912
  468SOL    HW2 1999   2.887   4.017   0.369 -0.5842  0.1133 -0.5978
  468SOL    HW3 2000   2.983   4.134   0.369  0.4694 -0.7339 -1.7424
  468SOL    MW4 2001   2.966   4.051   0.388 -0.5219 -0.2165 -0.2416
  469SOL     OW 2002   0.657   0.358   0.921 -0.2876 -0.2311  0.0593
  469SOL    HW2 2003   0.576   0.340   0.969 -0.9408 -0.7422 -1.1906
  469SOL    HW3 2004   0.650   0.450   0.896 -0.5789 -0.3247 -0.2105
  469SOL    MW4 2005   0.645   0.368   0.924 -0.4122 -0.3109 -0.1411
  470SOL     OW 2006   4.062   1.131   0.826  0.3158  0.8911  0.3201
  470SOL    HW2 2007   4.068   1.133   0.921 -1.1819  0.0700  0.4579
  470SOL    HW3 2008   4.056   1.037   0.805  0.3852  1.0810 -0.5575
  470SOL    MW4 2009   4.062   1.119   0.836  0.1273  0.8078  0.2224
  471SOL     OW 2010   1.624   2.891   0.296 -0.5330  0.6272  0.2549
  471SOL    HW2 2011   1.566   2.946   0.348 -1.0127 -0.6635  1.1062
  471SOL    HW3 2012   1.580   2.881   0.212 -0.6969  1.0818  0.2845
  471SOL    MW4 2013   1.611   2.897   0.292 -0.6180  0.5169  0.3711
  472SOL     OW 2014   1.333   1.874   0.784  0.1121  0.4248  0.2199
  472SOL    HW2 2015   1.252   1.837   0.749  0.3863 -0.1979  0.2425
  472SOL    HW3 2016   1.308   1.913   0.868 -0.1956  0.3776  0.1476
  472SOL    MW4 2017   1.319   1.874   0.791  0.1078  0.3364  0.2134
  473SOL     OW 2018   2.740   1.734   0.674 -0.1910  0.0057 -0.1436
  473SOL    HW2 2019   2.776   1.661   0.725  0.6688 -0.0174 -0.7703
  473SOL    HW3 2020   2.742   1.808   0.734  1.9164  0.2637 -0.4637
  473SOL    MW4 2021   2.745   1.734   0.689  0.2005  0.0367 -0.2686
  474SOL     OW 2022   4.182   3.512   0.319  0.1770 -0.5194  0.1015
  474SOL    HW2 2023   4.228   3.513   0.235 -0.2350 -1.2322 -0.1442
  474SOL    HW3 2024   4.195   3.423   0.352  1.2627  0.0867  1.3202
  474SOL    MW4 2025   4.190   3.500   0.312  0.2656 -0.5333  0.2299
  475SOL     OW 2026   3.731   2.347   0.482  0.2984  0.2054  0.1914
  475SOL    HW2 2027   3.807   2.322   0.431  1.0218  1.7606  0.4970
  475SOL    HW3 2028   3.656   2.318   0.429  1.0772 -3.0902  0.7827
  475SOL    MW4 2029   3.731   2.340   0.468  0.4966 -0.0238  0.3097
  476SOL     OW 2030   0.079   2.582   0.532  0.0352  0.2831  0.1767
  476SOL    HW2 2031   0.032   2.499   0.524  0.7466 -0.1449  0.4438
  476SOL    HW3 2032   0.147   2.577   0.465  0.0722  0.6635  0.1858
  476SOL    MW4 2033   0.082   2.571   0.522  0.1339  0.2768  0.2132
  477SOL     OW 2034   0.822   2.183   0.699  0.3171 -0.0247  0.0719
  477SOL    HW2 2035   0.771   2.252   0.741 -1.1095 -0.3508 -1.0693
  477SOL    HW3 2036   0.765   2.106   0.699  1.0319 -0.5761 -0.6806
  477SOL    MW4 2037   0.808   2.182   0.704  0.2233 -0.1407 -0.1780
  478SOL     OW 2038   2.810   3.439   0.260 -0.1023  0.5311  0.0557
  478SOL    HW2 2039   2.858   3.445   0.177  0.3826 -0.6245  0.2481
  478SOL    HW3 2040   2.858   3.498   0.318  0.9571 -0.4303  0.1742
  478SOL    MW4 2041   2.823   3.448   0.257  0.1013  0.2520  0.0967
  479SOL     OW 2042   3.063   1.778   0.629 -0.0563 -0.0853  0.0622
  479SOL    HW2 2043   3.005   1.702   0.638  0.0656 -0.0847  0.9559
  479SOL    HW3 2044   3.129   1.764   0.697  0.8858  0.0007 -0.8337
  479SOL    MW4 2045   3.064   1.766   0.639  0.0842 -0.0739  0.0619
  480SOL     OW 2046   1.458   2.303   0.186  0.5540 -0.6200  0.1591
  480SOL    HW2 2047   1.536   2.319   0.240  1.2474  0.1082 -1.0555
  480SOL    HW3 2048   1.486   2.237   0.123  0.2651 -0.1583 -0.4519
  480SOL    MW4 2049   1.472   2.296   0.185  0.6075 -0.4628 -0.0817
  481SOL     OW 2050   0.177   2.224   0.390 -0.4327 -0.2432 -0.3450
  481SOL    HW2 2051   0.107   2.266   0.440  0.7495  0.2523  0.9637
  481SOL    HW3 2052   0.223   2.297   0.349  0.6210 -0.3556  0.5886
  481SOL    MW4 2053   0.174   2.240   0.391 -0.1377 -0.1926 -0.0491
  482SOL     OW 2054   1.276   2.192   0.825 -0.3877 -0.5102  0.5660
  482SOL    HW2 2055   1.185   2.172   0.847 -0.3697 -0.3725  0.7646
  482SOL    HW3 2056   1.325   2.171   0.904 -0.4349  0.8222  0.9657
  482SOL    MW4 2057   1.270   2.187   0.838 -0.3915 -0.3164  0.6450
  483SOL     OW 2058   0.405   1.184   0.836 -0.0803  0.0439 -0.3323
  483SOL    HW2 2059   0.420   1.274   0.806 -0.1499  0.1872  0.0517
  483SOL    HW3 2060   0.317   1.162   0.806 -0.8189  0.7986  1.2197
  483SOL    MW4 2061   0.396   1.193   0.828 -0.1870  0.1624 -0.0768
  484SOL     OW 2062   3.162   3.475   0.855 -0.0832  0.3328  0.3046
  484SOL    HW2 2063   3.211   3.394   0.868 -1.3891 -0.5115  0.0810
  484SOL    HW3 2064   3.228   3.544   0.857  0.8872 -0.6222  1.7997
  484SOL    MW4 2065   3.177   3.473   0.857 -0.1276  0.0954  0.4724
  485SOL     OW 2066   4.350   3.171   0.787  0.1982  0.1102 -0.1257
  485SOL    HW2 2067   4.346   3.080   0.759 -0.5601  0.0998  0.0164
  485SOL    HW3 2068   4.272   3.212   0.750  1.5295  1.1788 -1.8386
  485SOL    MW4 2069   4.339   3.164   0.779  0.2742  0.2501 -0.3329
  486SOL     OW 2070   2.969   1.404   0.434  0.3106 -0.2821  0.1421
  486SOL    HW2 2071   3.063   1.391   0.429  0.4702  1.2902 -1.2156
  486SOL    HW3 2072   2.931   1.323   0.399  1.1668 -0.3115 -0.7156
  486SOL    MW4 2073   2.976   1.391   0.429  0.4444 -0.0787 -0.1502
  487SOL     OW 2074   2.598   4.606   0.834 -0.1205 -0.0774  0.3633
  487SOL    HW2 2075   2.513   4.620   0.794 -0.1845  1.3002  0.9620
  487SOL    HW3 2076   2.652   4.679   0.803  0.0509  0.5692  2.1286
  487SOL    MW4 2077   2.594   4.618   0.825 -0.1061  0.1893  0.6751
  488SOL     OW 2078   1.663   2.117   0.657 -0.4707 -0.5196 -0.1056
  488SOL    HW2 2079   1.698   2.039   0.701 -0.6231 -0.3407  0.3365
  488SOL    HW3 2080   1.573   2.092   0.634 -0.4024 -0.6002 -0.2863
  488SOL    MW4 2081   1.655   2.103   0.660 -0.4816 -0.5064 -0.0711
  489SOL     OW 2082   1.647   1.520   0.848 -0.1425  0.1326 -0.2596
  489SOL    HW2 2083   1.646   1.530   0.944  0.5230 -1.1531 -0.1153
  489SOL    HW3 2084   1.739   1.528   0.824 -0.2844  0.2128 -0.7715
  489SOL    MW4 2085   1.659   1.522   0.858 -0.0734 -0.0263 -0.3081
  490SOL     OW 2086   1.126   2.846   1.175  0.0040 -0.6899 -0.6498
  490SOL    HW2 2087   1.121   2.851   1.271 -0.7635 -1.0576 -0.6671
  490SOL    HW3 2088   1.063   2.778   1.152  0.7922 -1.1992 -1.3556
  490SOL    MW4 2089   1.117   2.837   1.185  0.0069 -0.8054 -0.7453
  491SOL     OW 2090   4.425   1.897   0.839  0.0283  0.1301  0.0190
  491SOL    HW2 2091   4.418   1.984   0.801 -0.1954 -0.2741 -0.8772
  491SOL    HW3 2092   4.513   1.867   0.816  0.4681  0.5045  1.1717
  491SOL    MW4 2093   4.435   1.904   0.831  0.0567  0.1262  0.0529
  492SOL     OW 2094   0.046   0.128   1.210 -0.1376 -0.1346 -0.3317
  492SOL    HW2 2095  -0.031   0.093   1.164 -0.3379 -0.6615  0.4007
  492SOL    HW3 2096   0.121   0.095   1.161 -0.3331 -1.3502  0.1807
  492SOL    MW4 2097   0.045   0.119   1.198 -0.1898 -0.3645 -0.1675
  493SOL     OW 2098   0.648   2.361   0.405  0.1826 -0.0942 -0.3452
  493SOL    HW2 2099   0.569   2.320   0.439  0.1748  2.0165  2.3928
  493SOL    HW3 2100   0.710   2.289   0.394 -0.8076 -1.2578  1.4337
  493SOL    MW4 2101   0.646   2.346   0.408  0.0510  0.0308  0.2508
  494SOL     OW 2102   2.346   3.496   0.338  0.2451  0.0269  0.1487
  494SOL    HW2 2103   2.333   3.406   0.311  0.5323  0.3911 -1.2195
  494SOL    HW3 2104   2.258   3.529   0.357  0.0515 -0.2634 -0.2434
  494SOL    MW4 2105   2.333   3.489   0.337  0.2573  0.0370 -0.0835
  495SOL     OW 2106   0.229   0.760   1.140  0.2102 -0.4568 -0.0831
  495SOL    HW2 2107   0.158   0.822   1.158  0.0958 -0.4309 -0.6435
  495SOL    HW3 2108   0.309   0.812   1.151  0.1800 -0.7015  1.4287
  495SOL    MW4 2109   0.231   0.775   1.144  0.1911 -0.4857  0.0426
  496SOL     OW 2110   0.974   0.539   0.527 -0.4529 -0.0113 -0.3123
  496SOL    HW2 2111   0.963   0.562   0.619 -0.7951 -1.1835 -0.0485
  496SOL    HW3 2112   0.964   0.621   0.480 -2.2581  0.2719  0.5509
  496SOL    MW4 2113   0.971   0.553   0.533 -0.7362 -0.1286 -0.1636
  497SOL     OW 2114   4.488   0.923   1.220  0.4571 -0.0535 -0.5438
  497SOL    HW2 2115   4.418   0.878   1.172  0.0386  0.6740 -0.6171
  497SOL    HW3 2116   4.483   0.887   1.309 -0.0775  0.0681 -0.5216
  497SOL    MW4 2117   4.478   0.912   1.225  0.3314  0.0586 -0.5506
  498SOL     OW 2118   0.185   1.326   1.223 -0.0185  0.3215  0.1799
  498SOL    HW2 2119   0.106   1.277   1.201 -0.2250  0.6386  0.2092
  498SOL    HW3 2120   0.256   1.278   1.182 -0.3198  0.5065 -0.5670
  498SOL    MW4 2121   0.184   1.313   1.215 -0.0855  0.3878  0.0851
  499SOL     OW 2122   0.271   1.595   1.128 -0.4683  0.2747  0.3826
  499SOL    HW2 2123   0.257   1.506   1.161  0.8103  0.3887  1.2359
  499SOL    HW3 2124   0.227   1.595   1.043 -0.8886 -1.0302  0.5781
  499SOL    MW4 2125   0.263   1.583   1.121 -0.3551  0.1177  0.5208
  500SOL     OW 2126   4.450   1.919   1.109 -0.2978 -0.2627 -0.1706
  500SOL    HW2 2127   4.379   1.975   1.140 -0.6839 -0.6692 -0.3003
  500SOL    HW3 2128   4.427   1.901   1.017 -0.7598 -1.5047  0.1719
  500SOL    MW4 2129   4.437   1.924   1.101 -0.4098 -0.4803 -0.1426
  501SOL     OW 2130   0.149   0.817   0.665 -0.0137 -0.2024  0.2214
  501SOL    HW2 2131   0.194   0.778   0.739 -0.1184  1.4978  1.2033
  501SOL    HW3 2132   0.205   0.796   0.589 -0.0351 -2.1370  0.7326
  501SOL    MW4 2133   0.162   0.809   0.664 -0.0303 -0.2334  0.4184
  502SOL     OW 2134   0.188   2.040   1.206  0.0874 -0.3864 -0.3391
  502SOL    HW2 2135   0.172   2.133   1.190  0.3201 -0.2795  0.0443
  502SOL    HW3 2136   0.119   1.995   1.157  0.8741 -0.0752 -1.7887
  502SOL    MW4 2137   0.177   2.046   1.197  0.2219 -0.3312 -0.4798
  503SOL     OW 2138   0.162   2.307   1.156  0.3900 -0.2461  0.3610
  503SOL    HW2 2139   0.159   2.295   1.061 -1.4564 -0.4232  0.4193
  503SOL    HW3 2140   0.255   2.322   1.176  0.9534 -1.3493 -1.3190
  503SOL    MW4 2141   0.174   2.307   1.146  0.2207 -0.4148  0.1471
  504SOL     OW 2142   4.430   2.443   1.234  0.1751  0.1838  0.1389
  504SOL    HW2 2143   4.438   2.452   1.329  0.6925  0.1582  0.0991
  504SOL    HW3 2144   4.511   2.400   1.207  1.2029  2.4996 -0.6162
  504SOL    MW4 2145   4.442   2.439   1.243  0.3791  0.4859  0.0341
  505SOL     OW 2146   1.048   4.645   0.789 -0.5816 -0.1561 -0.2618
  505SOL    HW2 2147   1.101   4.721   0.766  0.2496 -0.4299  0.6910
  505SOL    HW3 2148   0.967   4.656   0.740  0.1061  0.6007 -1.2336
  505SOL    MW4 2149   1.044   4.657   0.780 -0.3812 -0.0925 -0.2642
  506SOL     OW 2150   0.272   2.851   1.234 -0.4547 -0.4198 -0.1439
  506SOL    HW2 2151   0.250   2.869   1.326 -0.9991 -0.1100 -0.3320
  506SOL    HW3 2152   0.251   2.933   1.188  0.7718 -0.2398 -0.3871
  506SOL    MW4 2153   0.266   2.864   1.240 -0.3647 -0.3555 -0.2007
  507SOL     OW 2154   0.222   3.107   1.114  0.5699  0.6007 -0.3691
  507SOL    HW2 2155   0.246   3.126   1.023  0.0865 -0.4378 -0.7226
  507SOL    HW3 2156   0.289   3.150   1.166  0.0163  2.4841 -1.1773
  507SOL    MW4 2157   0.234   3.115   1.109  0.4331  0.7119 -0.5224
  508SOL     OW 2158   4.467   3.212   1.183 -0.0665  0.3127  0.0066
  508SOL    HW2 2159   4.397   3.175   1.129  0.3371  0.1734 -0.4364
  508SOL    HW3 2160   4.544   3.159   1.160  0.4147  1.1474 -0.3055
  508SOL    MW4 2161   4.468   3.200   1.173  0.0501  0.4044 -0.0930
  509SOL     OW 2162   0.010   3.484   1.128 -0.0290  0.3199 -0.2688
  509SOL    HW2 2163   0.002   3.391   1.150  0.4292  0.2978 -0.1783
  509SOL    HW3 2164   0.014   3.486   1.033 -1.0646  0.3337 -0.3131
  509SOL    MW4 2165   0.010   3.472   1.119 -0.1052  0.3188 -0.2626
  510SOL     OW 2166   0.260   3.598   1.190 -0.3373  0.3350 -0.1586
  510SOL    HW2 2167   0.241   3.615   1.282 -0.3547  0.1548 -0.1284
  510SOL    HW3 2168   0.182   3.554   1.157 -0.2536  0.2215 -0.2092
  510SOL    MW4 2169   0.248   3.594   1.198 -0.3285  0.2966 -0.1612
  511SOL     OW 2170   1.559   3.784   0.884 -0.9945 -0.2995  1.1305
  511SOL    HW2 2171   1.607   3.700   0.884  2.1646  1.3978 -0.6320
  511SOL    HW3 2172   1.479   3.766   0.836 -0.8474 -2.5635  1.6717
  511SOL    MW4 2173   1.555   3.770   0.878 -0.5581 -0.3743  0.9694
  512SOL     OW 2174   0.038   4.068   1.214 -0.1416  0.0586 -0.1473
  512SOL    HW2 2175   0.046   4.070   1.309 -1.6197  1.7427 -0.0440
  512SOL    HW3 2176  -0.048   4.030   1.197  0.6256 -1.4215 -0.8687
  512SOL    MW4 2177   0.028   4.063   1.224 -0.2354  0.0854 -0.2289
  513SOL     OW 2178   0.047   4.318   1.104 -0.1299 -0.0212  0.3766
  513SOL    HW2 2179   0.055   4.228   1.135  1.0708  0.2648  0.9401
  513SOL    HW3 2180   0.117   4.365   1.149  1.7351  0.4060 -2.7637
  513SOL    MW4 2181   0.057   4.312   1.114  0.2746  0.0725  0.0367
  514SOL     OW 2182   0.287   0.055   1.121  0.5689  0.6638 -0.0498
  514SOL    HW2 2183   0.284  -0.041   1.124 -1.8244  0.7560  2.1848
  514SOL    HW3 2184   0.359   0.079   1.179  0.1192  0.2451  0.6927
  514SOL    MW4 2185   0.296   0.045   1.129  0.1938  0.6207  0.3428
  515SOL     OW 2186   0.347   4.529   0.251  0.0583 -0.1977  0.6752
  515SOL    HW2 2187   0.414   4.488   0.197 -0.7659 -0.5021 -0.1315
  515SOL    HW3 2188   0.382   4.616   0.270  0.4814 -0.1853 -0.1186
  515SOL    MW4 2189   0.361   4.535   0.246  0.0053 -0.2365  0.4640
  516SOL     OW 2190   0.655   0.028   1.129 -0.0163  0.5839  0.0270
  516SOL    HW2 2191   0.746   0.058   1.133  0.0021  0.9680 -2.3627
  516SOL    HW3 2192   0.661  -0.067   1.122  0.3165  0.7226 -2.0182
  516SOL    MW4 2193   0.668   0.020   1.129  0.0301  0.6529 -0.5580
  517SOL     OW 2194   0.016   0.394   1.138  0.2876  0.2101  0.4569
  517SOL    HW2 2195   0.005   0.391   1.043  0.1536  0.3977  0.4666
  517SOL    HW3 2196   0.024   0.302   1.164  0.8285  0.1851  0.2063
  517SOL    MW4 2197   0.015   0.382   1.129  0.3409  0.2315  0.4251
  518SOL     OW 2198   0.466   0.377   1.150 -0.0423 -0.0034 -0.0080
  518SOL    HW2 2199   0.539   0.427   1.188 -0.0940  0.6233 -0.7066
  518SOL    HW3 2200   0.388   0.429   1.170 -0.2413 -0.4130  0.2930
  518SOL    MW4 2201   0.465   0.391   1.158 -0.0754  0.0252 -0.0604
  519SOL     OW 2202   0.658   0.726   1.084  0.0093 -0.0527 -0.4809
  519SOL    HW2 2203   0.642   0.713   0.991 -0.5087 -1.1627 -0.2358
  519SOL    HW3 2204   0.593   0.791   1.111 -0.1597 -0.0970 -0.7816
  519SOL    MW4 2205   0.648   0.733   1.075 -0.0814 -0.2050 -0.4882
  520SOL     OW 2206   0.475   0.918   1.162 -0.5286 -0.2269 -0.5203
  520SOL    HW2 2207   0.474   0.914   1.258 -0.1313 -0.4823 -0.5274
  520SOL    HW3 2208   0.458   1.010   1.142 -0.0035 -0.0570 -0.1904
  520SOL    MW4 2209   0.473   0.930   1.172 -0.4070 -0.2382 -0.4777
  521SOL     OW 2210   0.393   1.173   1.108  0.0640 -0.0752  0.2082
  521SOL    HW2 2211   0.477   1.213   1.131  0.3032 -0.4802  0.0365
  521SOL    HW3 2212   0.392   1.171   1.013 -1.0799  1.9181  0.1464
  521SOL    MW4 2213   0.404   1.178   1.099 -0.0553  0.1343  0.1775
  522SOL     OW 2214   0.668   1.295   1.182  0.2676 -0.4371  0.3988
  522SOL    HW2 2215   0.696   1.385   1.163 -0.1201  0.0309  1.9727
  522SOL    HW3 2216   0.746   1.242   1.163  1.1595  0.4727  1.4246
  522SOL    MW4 2217   0.682   1.300   1.177  0.3341 -0.2553  0.7417
  523SOL     OW 2218   0.729   1.551   1.088 -0.1549 -0.0083  0.2615
  523SOL    HW2 2219   0.805   1.600   1.119 -0.4966  2.0404 -1.9649
  523SOL    HW3 2220   0.654   1.594   1.128 -0.3197 -0.0736  0.0287
  523SOL    MW4 2221   0.729   1.563   1.097 -0.2217  0.2534 -0.0631
  524SOL     OW 2222   0.523   1.696   1.232 -0.2657  0.1420  0.1731
  524SOL    HW2 2223   0.514   1.683   1.326 -0.8345  3.3764  0.6193
  524SOL    HW3 2224   0.443   1.657   1.195 -1.9842  2.3375  1.4372
  524SOL    MW4 2225   0.511   1.689   1.239 -0.5675  0.8584  0.3988
  525SOL     OW 2226   0.465   1.946   1.127 -0.2916 -0.5800  0.1523
  525SOL    HW2 2227   0.492   1.870   1.179 -0.4088 -1.3340 -0.8731
  525SOL    HW3 2228   0.374   1.961   1.153  0.1177  0.0116  1.2915
  525SOL    MW4 2229   0.457   1.938   1.137 -0.2530 -0.6015  0.1674
  526SOL     OW 2230   0.706   2.073   1.201 -0.4050 -0.0437 -0.0219
  526SOL    HW2 2231   0.689   2.096   1.293  0.8725  0.6241  0.0574
  526SOL    HW3 2232   0.628   2.024   1.174 -1.0483  0.2519  1.2460
  526SOL    MW4 2233   0.693   2.070   1.210 -0.3213  0.0832  0.1558
  527SOL     OW 2234   0.667   2.324   1.113 -0.4295  0.2093  0.1930
  527SOL    HW2 2235   0.581   2.351   1.145 -0.7672  1.2615 -1.5523
  527SOL    HW3 2236   0.677   2.235   1.146 -2.3232 -0.0353  0.2048
  527SOL    MW4 2237   0.657   2.316   1.121 -0.7240  0.3159 -0.0358
  528SOL     OW 2238   0.423   2.418   1.190 -0.4424 -0.3823  0.3137
  528SOL    HW2 2239   0.414   2.433   1.285 -1.7083 -0.2603  0.1787
  528SOL    HW3 2240   0.423   2.506   1.153 -1.5384 -0.4738  0.0716
  528SOL    MW4 2241   0.422   2.432   1.198 -0.7540 -0.3784  0.2639
  529SOL     OW 2242   0.903   4.264   0.796 -0.1380  0.1939  0.2824
  529SOL    HW2 2243   0.829   4.324   0.784 -0.4471 -0.3113 -0.4045
  529SOL    HW3 2244   0.977   4.310   0.758 -0.7750 -0.6774 -2.1597
  529SOL    MW4 2245   0.903   4.278   0.789 -0.2628  0.0124 -0.1304
  530SOL     OW 2246   0.468   2.677   1.132  0.1689  0.1499  0.3668
  530SOL    HW2 2247   0.438   2.681   1.041 -0.0743  0.0164  0.4403
  530SOL    HW3 2248   0.406   2.733   1.180 -0.5511 -0.8877  0.6741
  530SOL    MW4 2249   0.456   2.685   1.127  0.0419 -0.0043  0.4172
  531SOL     OW 2250   1.284   3.411   0.680 -0.3985  0.0469 -0.4193
  531SOL    HW2 2251   1.375   3.409   0.710 -0.2287  0.1143 -0.9145
  531SOL    HW3 2252   1.242   3.477   0.735 -0.5699 -1.1796  0.9591
  531SOL    MW4 2253   1.291   3.419   0.691 -0.3985 -0.1059 -0.3028
  532SOL     OW 2254   0.450   3.224   1.246 -0.0425 -0.1608 -0.1721
  532SOL    HW2 2255   0.450   3.318   1.227 -1.7518 -0.2741 -0.8347
  532SOL    HW3 2256   0.509   3.186   1.182  0.4308  0.4305 -0.0896
  532SOL    MW4 2257   0.457   3.231   1.235 -0.2056 -0.0978 -0.2487
  533SOL     OW 2258   0.600   4.309   0.276  0.1846 -0.6164 -0.3399
  533SOL    HW2 2259   0.651   4.375   0.323 -1.0487  1.5731 -1.9996
  533SOL    HW3 2260   0.524   4.294   0.332  0.4518 -0.5956  0.0313
  533SOL    MW4 2261   0.597   4.316   0.290  0.0571 -0.3242 -0.5099
  534SOL     OW 2262   0.481   3.474   1.127  0.1794 -0.1107  0.3096
  534SOL    HW2 2263   0.405   3.520   1.164  0.5577 -0.0845  1.0682
  534SOL    HW3 2264   0.557   3.516   1.168  0.6050 -0.2374 -0.3311
  534SOL    MW4 2265   0.481   3.486   1.137  0.2854 -0.1237  0.3252
  535SOL     OW 2266   0.637   3.865   1.142 -0.3376 -0.4495  0.4925
  535SOL    HW2 2267   0.721   3.910   1.151 -1.3267  1.3340  1.1526
  535SOL    HW3 2268   0.573   3.926   1.180 -2.1929 -0.8330 -1.8516
  535SOL    MW4 2269   0.640   3.879   1.148 -0.7130 -0.2646  0.2705
  536SOL     OW 2270   0.447   4.260   1.093  0.6827 -1.1838  0.4415
  536SOL    HW2 2271   0.449   4.237   1.001 -0.6544 -0.9767  0.3392
  536SOL    HW3 2272   0.522   4.317   1.106 -0.1041  0.2107 -0.9226
  536SOL    MW4 2273   0.457   4.264   1.083  0.4025 -0.9727  0.2480
  537SOL     OW 2274   0.276   4.453   1.192 -0.2810 -0.6195 -0.1878
  537SOL    HW2 2275   0.323   4.381   1.149  0.2408 -0.0856 -0.5334
  537SOL    HW3 2276   0.271   4.427   1.284 -0.2813 -1.1943 -0.3483
  537SOL    MW4 2277   0.282   4.440   1.198 -0.2122 -0.6247 -0.2546
  538SOL     OW 2278   0.679   4.421   1.127 -0.3740 -0.2926  0.1375
  538SOL    HW2 2279   0.671   4.442   1.220 -0.1044  1.2257 -0.1669
  538SOL    HW3 2280   0.753   4.361   1.122  0.2303  0.3956  0.7906
  538SOL    MW4 2281   0.687   4.416   1.139 -0.2587 -0.0019  0.1835
  539SOL     OW 2282   1.327   0.123   1.184  0.0847  0.1725  0.0359
  539SOL    HW2 2283   1.250   0.071   1.161 -0.7940  0.6593  1.7418
  539SOL    HW3 2284   1.401   0.074   1.148 -0.8552 -1.3380  0.1023
  539SOL    MW4 2285   1.327   0.110   1.176 -0.1552  0.0374  0.2695
  540SOL     OW 2286   0.907   0.126   1.184 -0.8826 -0.5389  0.1167
  540SOL    HW2 2287   0.931   0.145   1.274  0.1500 -0.9693 -0.0645
  540SOL    HW3 2288   0.982   0.079   1.148 -1.1965 -0.1759 -1.0311
  540SOL    MW4 2289   0.920   0.122   1.191 -0.7877 -0.5478 -0.0587
  541SOL     OW 2290   0.679   0.516   1.269  0.6808 -0.2458  0.3671
  541SOL    HW2 2291   0.740   0.465   1.215  0.0647  0.4877 -1.0319
  541SOL    HW3 2292   0.665   0.597   1.220 -0.3790  0.1615  1.3279
  541SOL    MW4 2293   0.685   0.520   1.255  0.4597 -0.0952  0.3095
  542SOL     OW 2294   1.118   0.467   1.209 -0.0371  0.3266  0.0202
  542SOL    HW2 2295   1.088   0.490   1.297 -0.2295  0.8326 -0.1695
  542SOL    HW3 2296   1.042   0.426   1.168  0.1406 -0.1603  0.1857
  542SOL    MW4 2297   1.104   0.465   1.215 -0.0391  0.3292  0.0169
  543SOL     OW 2298   1.116   0.728   1.096  0.1439  0.5509  0.2056
  543SOL    HW2 2299   1.107   0.636   1.118  0.6307  0.5315  0.3210
  543SOL    HW3 2300   1.108   0.731   1.001  0.7716  0.3173  0.1479
  543SOL    MW4 2301   1.114   0.716   1.087  0.2910  0.5175  0.2131
  544SOL     OW 2302   0.877   0.847   1.190 -0.1133 -0.5242  0.3267
  544SOL    HW2 2303   0.958   0.810   1.156 -0.2226 -0.7796  0.3377
  544SOL    HW3 2304   0.808   0.807   1.136 -0.1411  0.6962 -0.5403
  544SOL    MW4 2305   0.879   0.837   1.178 -0.1313 -0.3968  0.2137
  545SOL     OW 2306   0.899   1.134   1.139  0.1509  0.2897 -0.0768
  545SOL    HW2 2307   0.905   1.039   1.149 -0.4282  0.1322 -1.1731
  545SOL    HW3 2308   0.979   1.168   1.179  0.0457 -0.6179  0.8930
  545SOL    MW4 2309   0.910   1.126   1.145  0.0607  0.1491 -0.0935
  546SOL     OW 2310   1.127   1.297   1.239 -0.1375 -0.1251  0.3001
  546SOL    HW2 2311   1.123   1.290   1.335  0.1658 -2.0798  0.1726
  546SOL    HW3 2312   1.201   1.242   1.213 -0.3777  0.1886 -1.0907
  546SOL    MW4 2313   1.136   1.289   1.249 -0.1292 -0.3415  0.0999
  547SOL     OW 2314   1.827   2.564   0.490 -0.4062  0.6557  0.7302
  547SOL    HW2 2315   1.758   2.625   0.514  0.2423  1.9821 -0.6469
  547SOL    HW3 2316   1.782   2.490   0.449 -1.0537  1.2392  0.3844
  547SOL    MW4 2317   1.812   2.562   0.488 -0.4060  0.9077  0.5029
  548SOL     OW 2318   0.935   1.700   1.198 -0.3561  0.1928 -0.4823
  548SOL    HW2 2319   0.935   1.792   1.169 -0.1295  0.3313 -0.0604
  548SOL    HW3 2320   0.926   1.706   1.294  0.2929 -0.2020 -0.3971
  548SOL    MW4 2321   0.934   1.713   1.207 -0.2407  0.1590 -0.4153
  549SOL     OW 2322   0.429   2.211   0.544  0.5151 -0.0431  0.1356
  549SOL    HW2 2323   0.344   2.222   0.501  0.0356 -0.2352  1.0385
  549SOL    HW3 2324   0.473   2.142   0.492  0.3152  0.3855 -0.6111
  549SOL    MW4 2325   0.424   2.203   0.531  0.4255 -0.0117  0.1562
  550SOL     OW 2326   0.925   1.954   1.089  0.0894 -0.2847  0.0404
  550SOL    HW2 2327   0.994   2.009   1.127  0.3728  0.0688 -0.9660
  550SOL    HW3 2328   0.844   1.986   1.129  0.3138  0.5128 -0.1284
  550SOL    MW4 2329   0.924   1.966   1.099  0.1564 -0.1328 -0.1146
  551SOL     OW 2330   1.146   2.377   1.094  0.1115 -0.1111 -0.0560
  551SOL    HW2 2331   1.215   2.421   1.144 -0.2545  0.1045  0.2662
  551SOL    HW3 2332   1.066   2.399   1.140 -0.0887 -1.0280  0.0326
  551SOL    MW4 2333   1.145   2.386   1.106  0.0368 -0.2034 -0.0018
  552SOL     OW 2334   0.911   2.442   1.236  0.3368 -0.2510  0.3253
  552SOL    HW2 2335   0.891   2.436   1.330  0.8388  0.0755  0.4536
  552SOL    HW3 2336   0.838   2.396   1.193  0.2415 -0.6279  0.8875
  552SOL    MW4 2337   0.898   2.436   1.243  0.3904 -0.2577  0.4164
  553SOL     OW 2338   1.104   2.838   1.447  0.1026 -0.6397  0.5173
  553SOL    HW2 2339   1.090   2.928   1.475  0.5797 -0.3205 -0.2482
  553SOL    HW3 2340   1.035   2.788   1.491 -0.4573  0.1701  0.5708
  553SOL    MW4 2341   1.093   2.843   1.456  0.0916 -0.4911  0.4233
  554SOL     OW 2342   1.362   2.748   1.066  0.1003 -0.0288 -0.7528
  554SOL    HW2 2343   1.427   2.811   1.097 -1.1785  0.6031  0.7047
  554SOL    HW3 2344   1.278   2.784   1.095 -0.6993 -2.1521 -0.3592
  554SOL    MW4 2345   1.360   2.761   1.074 -0.1739 -0.2255 -0.5085
  555SOL     OW 2346   1.194   4.011   0.706 -0.0220 -0.3854 -0.5111
  555SOL    HW2 2347   1.232   4.090   0.744  0.7638 -0.7287 -0.5655
  555SOL    HW3 2348   1.099   4.026   0.707  0.2002  1.2373 -2.0514
  555SOL    MW4 2349   1.186   4.023   0.711  0.1110 -0.2170 -0.7215
  556SOL     OW 2350   4.480   0.129   0.309 -0.2250 -0.8157  0.2950
  556SOL    HW2 2351   4.432   0.072   0.250 -0.9127 -0.7827  0.8133
  556SOL    HW3 2352   4.500   0.074   0.385 -1.9299 -0.0594  1.3173
  556SOL    MW4 2353   4.476   0.114   0.312 -0.5407 -0.7115  0.4983
  557SOL     OW 2354   0.329   3.877   0.839 -0.0273 -0.1804  0.0209
  557SOL    HW2 2355   0.315   3.783   0.823 -1.5779 -0.3427  2.1010
  557SOL    HW3 2356   0.306   3.889   0.931  2.0373  1.9030  0.3073
  557SOL    MW4 2357   0.324   3.866   0.849  0.0405  0.0732  0.3332
  558SOL     OW 2358   0.891   3.476   1.093 -0.3055  0.4004 -0.0534
  558SOL    HW2 2359   0.892   3.389   1.132 -0.1513  0.4186 -0.0173
  558SOL    HW3 2360   0.823   3.523   1.140  0.4054  0.6662  0.7156
  558SOL    MW4 2361   0.882   3.471   1.104 -0.1914  0.4380  0.0528
  559SOL     OW 2362   3.658   3.509   0.804  0.0308 -0.1310  0.2100
  559SOL    HW2 2363   3.573   3.515   0.759 -0.7909 -0.9368  1.6501
  559SOL    HW3 2364   3.720   3.549   0.742 -1.3983  0.5311 -0.8267
  559SOL    MW4 2365   3.655   3.515   0.790 -0.2661 -0.1497  0.2632
  560SOL     OW 2366   0.271   0.435   0.813  0.1326 -0.1803 -0.0513
  560SOL    HW2 2367   0.275   0.423   0.718  0.5378  0.9282 -0.1769
  560SOL    HW3 2368   0.309   0.355   0.849 -0.7211 -0.9391 -0.8103
  560SOL    MW4 2369   0.276   0.423   0.805  0.0735 -0.1341 -0.1680
  561SOL     OW 2370   0.888   3.975   1.188  0.4072  0.2038 -0.0259
  561SOL    HW2 2371   0.977   3.944   1.170  0.6270 -0.0386  1.4251
  561SOL    HW3 2372   0.889   3.999   1.281 -0.4444  2.2588 -0.5390
  561SOL    MW4 2373   0.900   3.974   1.198  0.3239  0.4430  0.0979
  562SOL     OW 2374   0.881   4.227   1.084 -0.1727 -0.0636 -0.1946
  562SOL    HW2 2375   0.887   4.222   0.989  0.4141 -1.3153 -0.1025
  562SOL    HW3 2376   0.890   4.137   1.114 -1.1626  0.2196  1.0131
  562SOL    MW4 2377   0.883   4.215   1.076 -0.2260 -0.1907 -0.0231
  563SOL     OW 2378   1.996   4.388   1.198 -0.4948  0.0785 -0.9008
  563SOL    HW2 2379   2.014   4.481   1.192 -0.9021  0.0708 -2.6624
  563SOL    HW3 2380   2.002   4.368   1.291 -0.1621  1.8057 -0.5334
  563SOL    MW4 2381   1.999   4.397   1.209 -0.5047  0.3057 -1.0848
  564SOL     OW 2382   1.812   0.092   1.212  0.1993 -0.0669 -0.0877
  564SOL    HW2 2383   1.891   0.059   1.170  0.4977  0.2672  0.2081
  564SOL    HW3 2384   1.799   0.179   1.173  0.4246  0.2054  0.4384
  564SOL    MW4 2385   1.821   0.099   1.201  0.2683  0.0131  0.0206
  565SOL     OW 2386   1.395   0.398   1.136 -0.0727  0.2802  0.5986
  565SOL    HW2 2387   1.383   0.306   1.160  0.2184 -0.0400 -0.4536
  565SOL    HW3 2388   1.312   0.440   1.160 -1.3550 -0.8609 -1.6469
  565SOL    MW4 2389   1.382   0.391   1.142 -0.2035  0.0874  0.1633
  566SOL     OW 2390   1.620   0.532   1.257 -0.0720 -0.6070  0.4141
  566SOL    HW2 2391   1.622   0.621   1.222  0.7808 -0.6370  0.3611
  566SOL    HW3 2392   1.540   0.494   1.222 -0.7882  0.3595  0.9871
  566SOL    MW4 2393   1.610   0.539   1.248 -0.0539 -0.4835  0.4828
  567SOL     OW 2394   1.622   0.785   1.105 -0.2983 -0.3454 -0.3412
  567SOL    HW2 2395   1.700   0.815   1.151  0.1542 -0.2415 -1.1724
  567SOL    HW3 2396   1.655   0.749   1.022 -1.1808  0.2365 -0.9584
  567SOL    MW4 2397   1.637   0.784   1.100 -0.3549 -0.2550 -0.5324
  568SOL     OW 2398   1.362   0.816   1.216 -0.0445 -0.0926 -0.0361
  568SOL    HW2 2399   1.451   0.808   1.180 -0.1452 -0.8155 -0.1435
  568SOL    HW3 2400   1.306   0.779   1.148 -0.3744 -0.1261  0.2540
  568SOL    MW4 2401   1.367   0.810   1.202 -0.1012 -0.1923 -0.0119
  569SOL     OW 2402   2.923   1.579   0.805  0.2534  0.3983  0.0857
  569SOL    HW2 2403   2.953   1.567   0.895  0.3880 -1.3382 -0.1687
  569SOL    HW3 2404   2.935   1.493   0.764  0.6323  1.2817 -1.7218
  569SOL    MW4 2405   2.929   1.566   0.811  0.3211  0.2857 -0.1863
  570SOL     OW 2406   1.795   1.963   1.058 -0.0799  0.4800  0.4762
  570SOL    HW2 2407   1.716   1.990   1.104 -0.4518  0.4348 -0.1373
  570SOL    HW3 2408   1.867   1.996   1.112 -0.5200  1.5343  0.4197
  570SOL    MW4 2409   1.794   1.971   1.071 -0.1872  0.6131  0.3878
  571SOL     OW 2410   1.894   0.904   0.865  0.6202 -0.1526 -0.3646
  571SOL    HW2 2411   1.824   0.886   0.928 -0.5593 -0.2487 -1.6516
  571SOL    HW3 2412   1.886   0.998   0.848  0.6839 -0.2002 -0.6555
  571SOL    MW4 2413   1.883   0.914   0.871  0.4730 -0.1715 -0.5729
  572SOL     OW 2414   1.347   1.694   1.455  0.0785  0.0732  0.4346
  572SOL    HW2 2415   1.347   1.781   1.496 -0.2859  0.3535 -0.1583
  572SOL    HW3 2416   1.421   1.648   1.496 -0.3682  0.3075  1.4934
  572SOL    MW4 2417   1.357   1.700   1.466 -0.0284  0.1411  0.4960
  573SOL     OW 2418   1.139   2.134   1.493  0.0186  0.2167  0.3466
  573SOL    HW2 2419   1.223   2.101   1.527  0.0020  0.3747  0.5425
  573SOL    HW3 2420   1.123   2.213   1.544 -0.4164  0.0034  0.5391
  573SOL    MW4 2421   1.148   2.140   1.504 -0.0410  0.2093  0.3978
  574SOL     OW 2422   1.574   2.060   1.185 -0.0459 -0.1236  0.3180
  574SOL    HW2 2423   1.568   2.056   1.280 -0.6788 -0.6488  0.2613
  574SOL    HW3 2424   1.485   2.079   1.156  0.6392  2.7613 -0.0400
  574SOL    MW4 2425   1.561   2.062   1.193 -0.0390  0.1874  0.2633
  575SOL     OW 2426   1.888   3.678   0.753 -0.2547  0.2643  0.3572
  575SOL    HW2 2427   1.860   3.729   0.676 -0.7580 -0.5979 -0.0373
  575SOL    HW3 2428   1.964   3.725   0.786 -1.4338  1.9818  0.7217
  575SOL    MW4 2429   1.894   3.691   0.747 -0.4767  0.3769  0.3533
  576SOL     OW 2430   1.391   2.495   1.195 -0.2859  0.4455  0.5431
  576SOL    HW2 2431   1.387   2.586   1.163 -0.8009  0.0038 -0.6708
  576SOL    HW3 2432   1.458   2.454   1.142 -1.7703 -0.5374 -0.6079
  576SOL    MW4 2433   1.399   2.502   1.184 -0.5497  0.2575  0.2310
  577SOL     OW 2434   1.595   2.742   0.526  0.3854  0.2557 -0.0974
  577SOL    HW2 2435   1.601   2.765   0.433 -1.8563 -0.2994 -0.4103
  577SOL    HW3 2436   1.606   2.825   0.572 -1.4245  1.0149 -0.9829
  577SOL    MW4 2437   1.597   2.756   0.520 -0.1493  0.2823 -0.2555
  578SOL     OW 2438   1.586   2.871   1.506  0.5351  0.4032  0.5029
  578SOL    HW2 2439   1.504   2.822   1.518  0.8016 -0.6396 -1.6588
  578SOL    HW3 2440   1.654   2.810   1.534  0.7013  0.4256  0.1572
  578SOL    MW4 2441   1.584   2.856   1.511  0.5924  0.2685  0.1721
  579SOL     OW 2442   1.848   3.207   1.182 -0.1697 -0.3540 -0.3386
  579SOL    HW2 2443   1.849   3.209   1.278 -0.6288 -0.7116 -0.3281
  579SOL    HW3 2444   1.772   3.155   1.159 -1.6286  1.9583 -0.9324
  579SOL    MW4 2445   1.838   3.201   1.192 -0.4228 -0.0963 -0.4154
  580SOL     OW 2446   1.847   3.476   1.105 -0.1879  0.5325 -0.0984
  580SOL    HW2 2447   1.862   3.386   1.134 -1.2389 -0.0469 -1.3365
  580SOL    HW3 2448   1.910   3.528   1.156  1.4358 -1.0546 -0.4471
  580SOL    MW4 2449   1.857   3.471   1.116 -0.1123  0.2470 -0.3077
  581SOL     OW 2450   0.547   3.997   0.709 -0.0250  0.0270  0.4581
  581SOL    HW2 2451   0.562   4.007   0.615 -0.1949 -1.3996  0.2676
  581SOL    HW3 2452   0.462   3.952   0.715 -0.3961  0.8291  1.3138
  581SOL    MW4 2453   0.538   3.992   0.698 -0.0964 -0.0556  0.5459
  582SOL     OW 2454   1.485   4.461   0.661  0.1849 -0.0799  0.2577
  582SOL    HW2 2455   1.428   4.403   0.713  0.3101  0.3449  0.8723
  582SOL    HW3 2456   1.515   4.406   0.589  0.6450 -0.9075  1.0737
  582SOL    MW4 2457   1.481   4.446   0.659  0.2621 -0.1335  0.4464
  583SOL     OW 2458   0.257   3.356   0.300  0.2072 -0.5733 -0.2115
  583SOL    HW2 2459   0.199   3.432   0.304 -1.6502 -2.0038  1.0979
  583SOL    HW3 2460   0.212   3.289   0.352  3.1976 -1.6386  1.1015
  583SOL    MW4 2461   0.244   3.357   0.308  0.3567 -0.9024  0.1345
  584SOL     OW 2462   1.389   0.628   0.715  0.2009  0.0129  0.0266
  584SOL    HW2 2463   1.440   0.709   0.719  0.7750 -0.3214 -0.4630
  584SOL    HW3 2464   1.436   0.568   0.773 -0.2139  0.0267  0.3736
  584SOL    MW4 2465   1.402   0.631   0.723  0.2218 -0.0294  0.0077
  585SOL     OW 2466   2.571   0.862   0.862 -0.5866  0.5835 -0.0776
  585SOL    HW2 2467   2.644   0.924   0.871  0.1984 -0.4308  0.6734
  585SOL    HW3 2468   2.610   0.785   0.822 -1.4548  0.3801 -0.5339
  585SOL    MW4 2469   2.586   0.860   0.858 -0.5975  0.4228 -0.0388
  586SOL     OW 2470   1.839   0.565   0.641 -0.5655 -0.4350  0.1665
  586SOL    HW2 2471   1.773   0.567   0.571 -0.4896 -1.2091  0.0718
  586SOL    HW3 2472   1.919   0.595   0.599 -0.1538 -2.3812 -0.4769
  586SOL    MW4 2473   1.841   0.569   0.626 -0.5013 -0.7939  0.0691
  587SOL     OW 2474   0.276   2.500   0.311  0.0851 -0.0117  0.2423
  587SOL    HW2 2475   0.350   2.529   0.364 -0.8733  0.2704  1.4542
  587SOL    HW3 2476   0.279   2.557   0.234  2.2350 -1.2690 -0.6354
  587SOL    MW4 2477   0.286   2.511   0.308  0.2423 -0.1407  0.2864
  588SOL     OW 2478   1.810   0.358   1.127  0.3734 -0.2982 -0.1826
  588SOL    HW2 2479   1.885   0.417   1.122  0.9020 -1.0385 -1.2141
  588SOL    HW3 2480   1.741   0.410   1.169  0.5296  1.3932 -1.9284
  588SOL    MW4 2481   1.811   0.373   1.132  0.4637 -0.1727 -0.5491
  589SOL     OW 2482   3.024   4.313   0.324 -0.2580 -0.0373  0.4100
  589SOL    HW2 2483   3.056   4.366   0.397 -1.0577  0.5897  0.3133
  589SOL    HW3 2484   2.952   4.364   0.287 -1.1917 -1.2892  0.4681
  589SOL    MW4 2485   3.018   4.327   0.329 -0.4869 -0.1192  0.4049
  590SOL     OW 2486   3.798   1.940   0.634 -0.0527  0.4786 -0.0735
  590SOL    HW2 2487   3.782   1.853   0.673  0.8156  0.8846  1.2274
  590SOL    HW3 2488   3.764   2.002   0.699 -2.1703  1.0807 -1.7444
  590SOL    MW4 2489   3.792   1.936   0.648 -0.2174  0.6115 -0.1224
  591SOL     OW 2490   2.230   0.732   1.081 -0.2415  0.1947 -0.2785
  591SOL    HW2 2491   2.215   0.744   0.988 -0.4823 -1.7628 -0.5137
  591SOL    HW3 2492   2.322   0.755   1.094  0.1069 -0.6556 -1.2140
  591SOL    MW4 2493   2.240   0.737   1.071 -0.2275 -0.1758 -0.4330
  592SOL     OW 2494   1.822   0.931   1.222 -0.6332  0.2373  0.3643
  592SOL    HW2 2495   1.800   0.928   1.315  0.0575 -0.8040  0.4968
  592SOL    HW3 2496   1.917   0.939   1.220 -0.6716  0.5899 -0.2596
  592SOL    MW4 2497   1.832   0.932   1.234 -0.5472  0.1465  0.2993
  593SOL     OW 2498   1.547   1.286   1.230  0.3215  0.3345  0.0058
  593SOL    HW2 2499   1.552   1.379   1.206 -0.0443  0.5591  0.7976
  593SOL    HW3 2500   1.618   1.245   1.180  1.2469  1.2417  0.5385
  593SOL    MW4 2501   1.557   1.293   1.220  0.3952  0.4839  0.1805
  594SOL     OW 2502   1.987   1.333   1.187 -1.0955 -0.0444 -0.1341
  594SOL    HW2 2503   2.073   1.296   1.167 -0.9034 -0.4879  1.4915
  594SOL    HW3 2504   1.925   1.265   1.162 -0.9196 -0.1714 -0.2284
  594SOL    MW4 2505   1.990   1.319   1.181 -1.0470 -0.1197  0.0679
  595SOL     OW 2506   1.996   1.592   1.096 -0.3093  0.2822  0.1278
  595SOL    HW2 2507   2.080   1.617   1.136  1.1138 -0.7935 -2.0566
  595SOL    HW3 2508   1.987   1.499   1.117 -0.4161  0.1408 -0.5284
  595SOL    MW4 2509   2.006   1.583   1.104 -0.1354  0.1217 -0.2470
  596SOL     OW 2510   1.792   1.676   1.484  0.1599  0.1540  0.3633
  596SOL    HW2 2511   1.721   1.627   1.524  0.0368 -1.0081 -1.2255
  596SOL    HW3 2512   1.770   1.680   1.391  1.4321  1.0443  0.0749
  596SOL    MW4 2513   1.780   1.671   1.477  0.3115  0.1183  0.1156
  597SOL     OW 2514   0.477   0.142   1.299 -0.3256 -0.3209 -0.4972
  597SOL    HW2 2515   0.543   0.110   1.238 -1.2042 -0.3890 -1.4276
  597SOL    HW3 2516   0.455   0.229   1.266 -0.9932 -0.4653 -0.4418
  597SOL    MW4 2517   0.483   0.149   1.287 -0.5296 -0.3489 -0.6126
  598SOL     OW 2518   2.035   2.057   1.196  0.6909 -0.2955 -0.2620
  598SOL    HW2 2519   2.052   2.063   1.290  3.0389  0.5470 -0.7171
  598SOL    HW3 2520   2.015   2.147   1.170 -1.1924 -0.7268 -0.3633
  598SOL    MW4 2521   2.034   2.070   1.205  0.7522 -0.2413 -0.3353
  599SOL     OW 2522   3.374   4.339   0.755  0.2323  0.0052 -0.0369
  599SOL    HW2 2523   3.307   4.273   0.774 -0.4213  0.6917  0.0660
  599SOL    HW3 2524   3.457   4.292   0.765 -0.2368 -0.9393 -0.5004
  599SOL    MW4 2525   3.376   4.324   0.759  0.0842 -0.0286 -0.0845
  600SOL     OW 2526   2.533   1.660   0.268 -0.1946 -0.3526  0.2147
  600SOL    HW2 2527   2.609   1.669   0.325 -0.8488  1.4320  0.8259
  600SOL    HW3 2528   2.564   1.687   0.182  0.1234 -0.5930  0.2533
  600SOL    MW4 2529   2.547   1.665   0.264 -0.2389 -0.1488  0.3004
  601SOL     OW 2530   1.570   2.854   1.239  0.1430  0.0584 -0.4187
  601SOL    HW2 2531   1.580   2.874   1.332 -1.8313 -0.8332  0.0076
  601SOL    HW3 2532   1.646   2.800   1.217 -0.2340 -1.0877  1.0750
  601SOL    MW4 2533   1.581   2.850   1.248 -0.1671 -0.2103 -0.1653
  602SOL     OW 2534   1.811   2.458   1.228 -0.4144  0.4137  0.2272
  602SOL    HW2 2535   1.795   2.446   1.322  0.5010 -1.6994  0.1304
  602SOL    HW3 2536   1.899   2.424   1.213 -0.9523 -0.2567 -1.5827
  602SOL    MW4 2537   1.820   2.452   1.239 -0.3644  0.0467 -0.0243
  603SOL     OW 2538   4.191   2.263   0.815 -0.2407 -0.5919  0.3802
  603SOL    HW2 2539   4.133   2.187   0.804 -0.9371  0.0282 -0.3530
  603SOL    HW3 2540   4.194   2.278   0.909 -0.4119 -1.2914  0.5011
  603SOL    MW4 2541   4.183   2.255   0.826 -0.3548 -0.6022  0.2994
  604SOL     OW 2542   2.054   3.616   1.264 -0.5052  0.2615  0.0193
  604SOL    HW2 2543   2.049   3.639   1.357  0.2498 -0.4320  0.2394
  604SOL    HW3 2544   2.144   3.585   1.252 -0.1557  1.7237 -1.2626
  604SOL    MW4 2545   2.066   3.615   1.275 -0.3595  0.3631 -0.1209
  605SOL     OW 2546   2.038   3.651   1.527 -0.6076  0.4033  0.2484
  605SOL    HW2 2547   2.100   3.578   1.532  0.9734  1.6436 -0.6030
  605SOL    HW3 2548   1.958   3.618   1.567  0.3884 -1.4758  0.7392
  605SOL    MW4 2549   2.036   3.637   1.533 -0.2675  0.3190  0.2009
  606SOL     OW 2550   1.325   3.778   0.721  0.2515 -0.0183  0.3814
  606SOL    HW2 2551   1.370   3.763   0.638  0.3765 -1.5703  0.7162
  606SOL    HW3 2552   1.285   3.864   0.711  0.8279  0.1014 -1.0329
  606SOL    MW4 2553   1.326   3.787   0.709  0.3442 -0.2074  0.2390
  607SOL     OW 2554   1.031   0.098   0.395 -0.1548 -0.6124  0.2399
  607SOL    HW2 2555   1.090   0.172   0.408 -1.0153 -0.3155  2.8422
  607SOL    HW3 2556   1.089   0.025   0.371  0.8301  0.5944 -1.1036
  607SOL    MW4 2557   1.047   0.098   0.394 -0.1383 -0.4140  0.4060
  608SOL     OW 2558   1.300   3.983   1.180  0.1999  0.0466  0.3141
  608SOL    HW2 2559   1.318   4.072   1.150 -1.2517  1.0190  2.2526
  608SOL    HW3 2560   1.386   3.943   1.191  0.8859  1.5884  0.5906
  608SOL    MW4 2561   1.313   3.989   1.177  0.0989  0.3786  0.6063
  609SOL     OW 2562   1.535   4.404   1.191 -0.2028 -0.2372 -0.0418
  609SOL    HW2 2563   1.609   4.344   1.179 -1.6308 -1.7773 -1.4043
  609SOL    HW3 2564   1.540   4.430   1.283  1.6296 -0.8660  0.0570
  609SOL    MW4 2565   1.545   4.399   1.201 -0.1494 -0.5236 -0.2086
  610SOL     OW 2566   1.876   1.713   0.155  0.6024 -0.4163  0.4267
  610SOL    HW2 2567   1.935   1.781   0.188  1.1059 -1.3967  1.6185
  610SOL    HW3 2568   1.796   1.759   0.132  1.7623  0.9022 -0.9928
  610SOL    MW4 2569   1.873   1.728   0.157  0.8219 -0.3716  0.3967
  611SOL     OW 2570   3.196   2.129   0.410  0.0887 -0.3936 -0.2207
  611SOL    HW2 2571   3.212   2.163   0.498  1.7909  0.7231 -0.9374
  611SOL    HW3 2572   3.102   2.137   0.397  0.1533  1.8605  0.5353
  611SOL    MW4 2573   3.186   2.135   0.420  0.3219  0.0513 -0.2155
  612SOL     OW 2574   2.038   0.523   1.160 -0.1630 -0.6472 -0.1063
  612SOL    HW2 2575   2.030   0.516   1.255 -1.0467  1.0528 -0.0223
  612SOL    HW3 2576   2.103   0.592   1.147 -1.1252  0.1603 -0.7145
  612SOL    MW4 2577   2.046   0.532   1.171 -0.4065 -0.3163 -0.1755
  613SOL     OW 2578   2.396   3.514   0.631  0.0912  0.1413 -0.2194
  613SOL    HW2 2579   2.428   3.425   0.647  1.5818  0.6104 -0.5271
  613SOL    HW3 2580   2.374   3.516   0.538  0.3902  0.1987 -0.2887
  613SOL    MW4 2581   2.397   3.503   0.621  0.3273  0.2108 -0.2691
  614SOL     OW 2582   2.492   0.517   1.183 -0.2428  0.1902 -0.2635
  614SOL    HW2 2583   2.498   0.521   1.278 -1.4303 -0.6447 -0.1512
  614SOL    HW3 2584   2.568   0.466   1.156 -0.6911 -0.8068  0.3414
  614SOL    MW4 2585   2.503   0.511   1.192 -0.4585 -0.0515 -0.1689
  615SOL     OW 2586   2.014   3.919   0.850  0.1419 -0.5668 -0.3096
  615SOL    HW2 2587   2.028   3.886   0.939 -0.3624 -2.6133 -0.9687
  615SOL    HW3 2588   1.946   3.986   0.860  0.2341 -0.6312  0.8614
  615SOL    MW4 2589   2.007   3.924   0.863  0.0873 -0.8457 -0.2421
  616SOL     OW 2590   1.417   2.020   0.564  0.1154  0.2271  0.5501
  616SOL    HW2 2591   1.402   1.962   0.638  2.1126 -0.6890  0.2612
  616SOL    HW3 2592   1.412   1.964   0.487  0.4910  0.7134  0.1652
  616SOL    MW4 2593   1.415   2.005   0.564  0.4283  0.1705  0.4612
  617SOL     OW 2594   2.499   0.792   1.130  0.4565  0.2744  0.1381
  617SOL    HW2 2595   2.510   0.700   1.154  0.2004  0.2417  0.1309
  617SOL    HW3 2596   2.524   0.796   1.038  2.0949  0.5230  0.5706
  617SOL    MW4 2597   2.504   0.780   1.121  0.6387  0.3029  0.1943
  618SOL     OW 2598   2.506   1.538   1.137  0.4267  0.2093  0.5219
  618SOL    HW2 2599   2.580   1.579   1.182 -0.1337  3.0454 -1.0160
  618SOL    HW3 2600   2.429   1.585   1.170 -0.1251  1.3501 -2.2268
  618SOL    MW4 2601   2.505   1.550   1.147  0.2799  0.7340 -0.0437
  619SOL     OW 2602   2.927   4.065   0.684  0.0566 -0.2831  0.0449
  619SOL    HW2 2603   2.952   4.055   0.592  0.2868 -2.0264  0.2771
  619SOL    HW3 2604   2.941   3.978   0.722  1.3405  0.7714  2.0634
  619SOL    MW4 2605   2.932   4.052   0.677  0.2568 -0.3734  0.3419
  620SOL     OW 2606   2.751   1.697   1.225  0.0867 -0.0915 -0.3169
  620SOL    HW2 2607   2.804   1.643   1.167 -0.7327 -0.7598 -0.4488
  620SOL    HW3 2608   2.746   1.783   1.182 -0.5202 -0.5852 -1.2272
  620SOL    MW4 2609   2.757   1.702   1.212 -0.1013 -0.2449 -0.4544
  621SOL     OW 2610   2.254   1.650   1.205  0.4147  0.2808 -0.1718
  621SOL    HW2 2611   2.260   1.734   1.160  0.0361 -0.2194 -1.1688
  621SOL    HW3 2612   2.244   1.674   1.298  0.2357  1.3309 -0.4498
  621SOL    MW4 2613   2.253   1.664   1.212  0.3412  0.3535 -0.3399
  622SOL     OW 2614   2.470   2.005   1.173  0.1597  0.0238  0.1291
  622SOL    HW2 2615   2.548   1.975   1.127  0.4788 -0.3460  0.9013
  622SOL    HW3 2616   2.397   1.976   1.118  0.5829  1.7726 -1.4303
  622SOL    MW4 2617   2.471   1.997   1.160  0.2575  0.2058  0.0252
  623SOL     OW 2618   2.292   2.710   1.178  0.1880  0.2307  0.8081
  623SOL    HW2 2619   2.286   2.616   1.198 -0.3401 -0.0648 -0.6545
  623SOL    HW3 2620   2.209   2.746   1.207 -0.3224 -0.0784 -0.2690
  623SOL    MW4 2621   2.281   2.702   1.185  0.0513  0.1514  0.4731
  624SOL     OW 2622   1.862   2.961   0.466  0.5036  0.5254  0.4325
  624SOL    HW2 2623   1.908   2.879   0.484 -0.8546 -0.3593  0.0210
  624SOL    HW3 2624   1.793   2.936   0.403  0.3886  2.0780 -0.0825
  624SOL    MW4 2625   1.859   2.947   0.460  0.3091  0.6135  0.3103
  625SOL     OW 2626   1.563   3.334   0.737 -0.0930 -0.2595 -0.2286
  625SOL    HW2 2627   1.601   3.397   0.799  0.7216  0.3117 -1.2905
  625SOL    HW3 2628   1.532   3.262   0.792  1.6870 -0.3035  0.7504
  625SOL    MW4 2629   1.564   3.333   0.752  0.2494 -0.1900 -0.2395
  626SOL     OW 2630   3.397   2.442   0.610 -0.0866 -0.0322  0.3481
  626SOL    HW2 2631   3.424   2.393   0.532 -2.6983  1.5629 -1.6554
  626SOL    HW3 2632   3.365   2.376   0.671 -0.6078 -1.0721 -1.0453
  626SOL    MW4 2633   3.396   2.427   0.608 -0.5002  0.0410 -0.1000
  627SOL     OW 2634   2.505   2.875   1.206 -0.0320 -0.2258 -0.3052
  627SOL    HW2 2635   2.503   2.885   1.301  1.9291 -3.4549  0.1121
  627SOL    HW3 2636   2.429   2.820   1.186  1.9006 -3.0068 -0.1230
  627SOL    MW4 2637   2.494   2.869   1.216  0.4818 -1.0188 -0.2261
  628SOL     OW 2638   2.288   3.207   1.219  0.2932 -0.3655 -0.1963
  628SOL    HW2 2639   2.206   3.178   1.180 -0.3669  0.4791  0.5352
  628SOL    HW3 2640   2.355   3.185   1.154 -0.5789 -0.5216 -1.0541
  628SOL    MW4 2641   2.286   3.200   1.205  0.0908 -0.2749 -0.2130
  629SOL     OW 2642   0.947   2.475   0.375 -0.0217 -0.3426  0.1180
  629SOL    HW2 2643   0.996   2.426   0.441  0.1985  2.4712  2.1535
  629SOL    HW3 2644   0.862   2.491   0.416  0.0524  1.2848 -0.3264
  629SOL    MW4 2645   0.942   2.471   0.389  0.0172  0.2432  0.3279
  630SOL     OW 2646   2.421   3.590   1.024  0.1241 -0.3860  0.0410
  630SOL    HW2 2647   2.384   3.533   1.092  0.6889 -0.1837  0.5208
  630SOL    HW3 2648   2.405   3.679   1.055  1.6701 -0.2902  0.6284
  630SOL    MW4 2649   2.414   3.594   1.037  0.4027 -0.3467  0.1818
  631SOL     OW 2650   2.438   3.863   1.082 -0.2037 -0.5179 -0.1258
  631SOL    HW2 2651   2.375   3.923   1.122  0.4048  0.8447 -1.1629
  631SOL    HW3 2652   2.436   3.885   0.989  1.2647 -0.9411 -0.2709
  631SOL    MW4 2653   2.429   3.874   1.075  0.0699 -0.3941 -0.2818
  632SOL     OW 2654   4.161   3.240   0.416  0.1035 -0.0995 -0.0708
  632SOL    HW2 2655   4.237   3.183   0.414 -0.2225 -0.5283 -0.4965
  632SOL    HW3 2656   4.147   3.259   0.509  0.2781 -0.6298  0.0653
  632SOL    MW4 2657   4.169   3.235   0.428  0.0839 -0.2260 -0.1090
  633SOL     OW 2658   2.246   4.032   1.186  0.5612 -0.4125 -0.4894
  633SOL    HW2 2659   2.171   3.980   1.160 -0.1941  0.3771  0.0771
  633SOL    HW3 2660   2.241   4.110   1.131  1.0121 -0.3943 -0.5064
  633SOL    MW4 2661   2.236   4.036   1.175  0.5209 -0.3061 -0.4169
  634SOL     OW 2662   2.441   4.413   1.156  0.4371 -0.2608  0.5582
  634SOL    HW2 2663   2.367   4.383   1.103  0.7947 -1.0792  0.5188
  634SOL    HW3 2664   2.453   4.504   1.131  0.1753 -0.4552 -0.2899
  634SOL    MW4 2665   2.433   4.421   1.146  0.4499 -0.3943  0.4412
  635SOL     OW 2666   2.947   0.027   1.100  0.2302  0.1035  0.3942
  635SOL    HW2 2667   2.989   0.018   1.014 -0.8509  0.7307 -0.2055
  635SOL    HW3 2668   2.936  -0.062   1.132  0.2337 -0.1462 -0.3088
  635SOL    MW4 2669   2.951   0.014   1.093  0.0877  0.1531  0.2222
  636SOL     OW 2670   2.686   0.120   1.191 -0.4358 -0.2775 -0.3804
  636SOL    HW2 2671   2.696   0.112   1.286  1.7252  3.9376 -0.1401
  636SOL    HW3 2672   2.764   0.077   1.156 -0.1158  0.0967 -0.1340
  636SOL    MW4 2673   2.698   0.113   1.199 -0.1085  0.3280 -0.3163
  637SOL     OW 2674   1.107   4.342   1.193 -0.2908  0.1014  0.2604
  637SOL    HW2 2675   1.036   4.296   1.149  0.1981  1.4101 -2.0000
  637SOL    HW3 2676   1.084   4.339   1.286 -2.5079 -0.8110 -0.2875
  637SOL    MW4 2677   1.095   4.336   1.199 -0.5187  0.1535 -0.1100
  638SOL     OW 2678   2.918   0.804   1.097  0.5280 -0.4560  0.4051
  638SOL    HW2 2679   2.997   0.821   1.148 -0.0147  1.1641  0.7307
  638SOL    HW3 2680   2.846   0.828   1.156 -0.1630 -0.6876 -0.3408
  638SOL    MW4 2681   2.919   0.810   1.112  0.3650 -0.2728  0.3496
  639SOL     OW 2682   1.841   3.643   0.325  0.1871 -0.0296 -0.3192
  639SOL    HW2 2683   1.758   3.594   0.320  0.1348  0.0985 -0.6797
  639SOL    HW3 2684   1.826   3.708   0.394  0.8068 -1.5831  1.3143
  639SOL    MW4 2685   1.828   3.645   0.333  0.2619 -0.2179 -0.1512
  640SOL     OW 2686   2.102   0.943   1.221  0.4611 -0.4769  0.0450
  640SOL    HW2 2687   2.133   0.885   1.152  1.4594 -0.0557  0.1298
  640SOL    HW3 2688   2.142   1.028   1.201  0.2382 -0.1912  0.7746
  640SOL    MW4 2689   2.112   0.947   1.209  0.5636 -0.3836  0.1523
  641SOL     OW 2690   2.924   1.265   1.220 -0.4480 -0.5089 -0.1819
  641SOL    HW2 2691   2.949   1.278   1.311 -0.4860  0.8634 -0.3553
  641SOL    HW3 2692   3.000   1.223   1.180 -0.1742 -0.5036  0.3280
  641SOL    MW4 2693   2.937   1.261   1.227 -0.4168 -0.3271 -0.1373
  642SOL     OW 2694   3.470   1.794   0.410  0.3113 -0.5457  0.1327
  642SOL    HW2 2695   3.523   1.817   0.334  0.4773 -2.1447 -0.2494
  642SOL    HW3 2696   3.380   1.809   0.382  0.4518  0.3394  0.1428
  642SOL    MW4 2697   3.465   1.799   0.396  0.3514 -0.6399  0.0836
  643SOL     OW 2698   2.438   2.075   0.738 -0.1973  0.2636  0.2672
  643SOL    HW2 2699   2.433   2.152   0.795 -0.5775 -0.8492  1.7820
  643SOL    HW3 2700   2.410   2.106   0.652 -0.2819  1.8268  0.8432
  643SOL    MW4 2701   2.434   2.089   0.735 -0.2587  0.3233  0.5431
  644SOL     OW 2702   2.929   1.547   1.096 -0.1134  0.2237 -0.1512
  644SOL    HW2 2703   2.995   1.586   1.153  0.6014 -0.0807 -0.7449
  644SOL    HW3 2704   2.948   1.453   1.099  0.2875  0.2551 -1.3034
  644SOL    MW4 2705   2.940   1.539   1.104  0.0339  0.1878 -0.3816
  645SOL     OW 2706   2.722   1.925   1.081 -0.0280 -0.2959  0.1167
  645SOL    HW2 2707   2.786   1.980   1.126 -0.1185  0.7982 -1.0526
  645SOL    HW3 2708   2.720   1.959   0.992 -0.5110 -1.8457 -0.4846
  645SOL    MW4 2709   2.730   1.937   1.075 -0.1040 -0.3560 -0.1169
  646SOL     OW 2710   2.919   2.066   1.189  0.1704  0.0928  0.0692
  646SOL    HW2 2711   2.917   2.056   1.284 -0.5947 -1.7324 -0.1195
  646SOL    HW3 2712   2.919   2.161   1.175 -1.6941  0.4001  1.8723
  646SOL    MW4 2713   2.919   2.078   1.199 -0.1764 -0.1073  0.2823
  647SOL     OW 2714   2.930   2.344   1.120  0.1463  0.3538  0.6116
  647SOL    HW2 2715   2.996   2.411   1.140  0.1797  1.4160 -2.7444
  647SOL    HW3 2716   2.846   2.389   1.131  0.1687  1.0067 -1.6331
  647SOL    MW4 2717   2.928   2.359   1.124  0.1535  0.5798 -0.1272
  648SOL     OW 2718   2.920   2.888   1.241  0.1536  0.2821  0.0138
  648SOL    HW2 2719   2.909   2.862   1.333 -0.5541  1.2442  0.2097
  648SOL    HW3 2720   2.861   2.830   1.193 -2.1071  2.0793  0.5417
  648SOL    MW4 2721   2.911   2.877   1.247 -0.2379  0.6459  0.1093
  649SOL     OW 2722   0.660   3.781   0.877  0.1496 -0.7456  0.0744
  649SOL    HW2 2723   0.639   3.814   0.964 -2.4175 -2.8423  0.3042
  649SOL    HW3 2724   0.623   3.846   0.817  1.2926  0.3357  0.5271
  649SOL    MW4 2725   0.652   3.794   0.880 -0.0383 -0.8798  0.1644
  650SOL     OW 2726   2.727   3.284   1.198  0.2929  0.0522  0.2107
  650SOL    HW2 2727   2.724   3.376   1.170  1.4268 -0.2468 -0.9637
  650SOL    HW3 2728   2.661   3.241   1.144  1.1293 -0.1707 -0.6479
  650SOL    MW4 2729   2.718   3.290   1.187  0.5529 -0.0167 -0.0576
  651SOL     OW 2730   3.950   3.061   0.345  0.1729 -0.5532  0.0498
  651SOL    HW2 2731   3.967   2.973   0.378  0.9987 -0.5871 -0.4633
  651SOL    HW3 2732   4.033   3.107   0.353  0.0951 -0.2216 -0.9067
  651SOL    MW4 2733   3.963   3.056   0.350  0.2713 -0.5140 -0.1441
  652SOL     OW 2734   2.310   3.470   1.243 -0.5319 -0.2556  0.1892
  652SOL    HW2 2735   2.382   3.484   1.305  0.9447 -1.2380 -1.2609
  652SOL    HW3 2736   2.307   3.376   1.230 -0.6656 -0.0410 -1.4276
  652SOL    MW4 2737   2.319   3.460   1.250 -0.3548 -0.3569 -0.2155
  653SOL     OW 2738   2.698   3.540   1.078  0.1692  0.1387 -0.1049
  653SOL    HW2 2739   2.604   3.560   1.078 -0.2566 -1.6302 -2.1728
  653SOL    HW3 2740   2.724   3.549   0.987  1.7403 -0.6012  0.2568
  653SOL    MW4 2741   2.689   3.543   1.066  0.3204 -0.1924 -0.3299
  654SOL     OW 2742   2.896   3.665   1.239  0.0876  0.4899 -0.2469
  654SOL    HW2 2743   2.983   3.636   1.209 -0.0384 -0.8918  0.6659
  654SOL    HW3 2744   2.836   3.598   1.205 -0.2652 -0.1320  1.5568
  654SOL    MW4 2745   2.900   3.652   1.230  0.0243  0.2255  0.1115
  655SOL     OW 2746   2.869   3.909   1.067  0.1964 -0.4346 -0.1268
  655SOL    HW2 2747   2.943   3.950   1.112 -0.5660 -0.0887  0.8358
  655SOL    HW3 2748   2.859   3.824   1.111 -0.2910 -0.2728  0.0659
  655SOL    MW4 2749   2.878   3.903   1.079  0.0317 -0.3676  0.0257
  656SOL     OW 2750   2.649   4.014   1.183 -0.2179  0.0176 -1.1663
  656SOL    HW2 2751   2.720   3.977   1.131 -1.4845 -0.4619 -2.5846
  656SOL    HW3 2752   2.571   3.967   1.154 -1.1381  0.6259  0.2822
  656SOL    MW4 2753   2.648   4.003   1.172 -0.5064  0.0348 -1.1623
  657SOL     OW 2754   2.690   4.286   1.105 -0.0851  0.1699  0.3819
  657SOL    HW2 2755   2.690   4.193   1.127 -0.3249  0.3840  1.3185
  657SOL    HW3 2756   2.602   4.316   1.130  0.0188  0.6632  0.1618
  657SOL    MW4 2757   2.678   4.278   1.112 -0.1028  0.2632  0.4765
  658SOL     OW 2758   2.922   4.432   1.205 -0.1181 -0.4171  0.7395
  658SOL    HW2 2759   2.986   4.375   1.160 -1.1614 -0.5457 -0.6169
  658SOL    HW3 2760   2.837   4.399   1.176 -0.7939  0.0058  2.2322
  658SOL    MW4 2761   2.919   4.420   1.195 -0.3448 -0.3781  0.7575
  659SOL     OW 2762   3.355   4.625   1.143  0.1523  0.2831  0.1354
  659SOL    HW2 2763   3.438   4.658   1.177 -0.1763  0.7090  0.5344
  659SOL    HW3 2764   3.291   4.693   1.165 -0.1406  0.3755 -0.9891
  659SOL    MW4 2765   3.357   4.638   1.151  0.0703  0.3510  0.0397
  660SOL     OW 2766   3.171   0.157   1.201 -0.0474  0.0365  0.5229
  660SOL    HW2 2767   3.178   0.163   1.297  0.4918  1.2402  0.4187
  660SOL    HW3 2768   3.087   0.115   1.186  0.1259 -0.6831  1.5421
  660SOL    MW4 2769   3.161   0.152   1.212  0.0465  0.1003  0.6436
  661SOL     OW 2770   3.136   0.384   1.044 -0.2993 -0.9874 -0.6499
  661SOL    HW2 2771   3.146   0.303   1.092  0.6415 -0.4963 -0.0047
  661SOL    HW3 2772   3.063   0.429   1.087  0.1565 -0.8119 -0.0650
  661SOL    MW4 2773   3.128   0.379   1.056 -0.1152 -0.8994 -0.4877
  662SOL     OW 2774   3.379   0.511   1.178 -0.1150 -0.3377  0.6401
  662SOL    HW2 2775   3.373   0.604   1.155 -0.1122 -0.6975 -0.8488
  662SOL    HW3 2776   3.306   0.470   1.131  0.0954 -1.1491  1.0124
  662SOL    MW4 2777   3.369   0.518   1.169 -0.0870 -0.4922  0.4928
  663SOL     OW 2778   3.368   0.775   1.122 -0.3988  0.0279 -0.1915
  663SOL    HW2 2779   3.285   0.814   1.151 -1.7780 -1.8874 -1.3648
  663SOL    HW3 2780   3.373   0.797   1.029 -1.0898 -2.2881 -0.8203
  663SOL    MW4 2781   3.357   0.783   1.113 -0.6721 -0.5304 -0.4292
  664SOL     OW 2782   3.146   0.899   1.216  0.4171  0.1682 -0.3938
  664SOL    HW2 2783   3.152   0.897   1.312 -1.1509 -1.1850 -0.3025
  664SOL    HW3 2784   3.167   0.989   1.192  0.8486  0.5107  1.2257
  664SOL    MW4 2785   3.150   0.910   1.226  0.2673  0.0349 -0.1682
  665SOL     OW 2786   2.707   1.982   0.814 -0.5262 -0.2736  0.4613
  665SOL    HW2 2787   2.632   2.019   0.768 -1.6557  0.2725  2.7006
  665SOL    HW3 2788   2.783   2.029   0.779 -1.3901  0.3153 -0.6260
  665SOL    MW4 2789   2.707   1.993   0.803 -0.7892 -0.1239  0.6134
  666SOL     OW 2790   3.432   1.237   1.259 -0.2897 -0.3724 -0.1393
  666SOL    HW2 2791   3.450   1.327   1.231 -0.2712 -0.2931  0.1350
  666SOL    HW3 2792   3.420   1.242   1.353 -1.5162 -0.4630 -0.2839
  666SOL    MW4 2793   3.433   1.250   1.267 -0.4489 -0.3737 -0.1221
  667SOL     OW 2794   4.011   0.867   0.777 -0.3990 -0.0168 -0.5594
  667SOL    HW2 2795   3.926   0.844   0.817 -0.9289  0.3601 -1.4612
  667SOL    HW3 2796   4.066   0.790   0.792 -1.2201 -0.6707 -0.8757
  667SOL    MW4 2797   4.007   0.854   0.784 -0.5774 -0.0533 -0.7201
  668SOL     OW 2798   3.139   1.661   1.236 -0.3078  0.4162 -0.1307
  668SOL    HW2 2799   3.150   1.669   1.331 -1.3941  0.7231 -0.0261
  668SOL    HW3 2800   3.136   1.751   1.205 -2.4041  0.3487 -0.1603
  668SOL    MW4 2801   3.140   1.674   1.245 -0.7277  0.4478 -0.1208
  669SOL     OW 2802   3.135   1.905   1.080 -0.2779 -0.2012  0.6532
  669SOL    HW2 2803   3.211   1.942   1.124 -0.1997  1.6697 -0.9490
  669SOL    HW3 2804   3.061   1.958   1.112 -0.5983 -0.6281  0.6171
  669SOL    MW4 2805   3.135   1.917   1.090 -0.3099 -0.0106  0.4371
  670SOL     OW 2806   3.335   2.051   1.212  0.4532 -0.1933  0.1711
  670SOL    HW2 2807   3.330   2.144   1.190 -0.8848 -0.1908  0.4764
  670SOL    HW3 2808   3.344   2.050   1.307 -2.2821 -0.4430  0.4468
  670SOL    MW4 2809   3.336   2.063   1.222 -0.0842 -0.2260  0.2476
  671SOL     OW 2810   3.332   2.328   1.171  0.3522  0.2086 -0.2786
  671SOL    HW2 2811   3.407   2.383   1.197  0.6693  0.3496 -1.4619
  671SOL    HW3 2812   3.258   2.388   1.170  0.3849  0.2553  0.0730
  671SOL    MW4 2813   3.332   2.343   1.174  0.3984  0.2334 -0.3884
  672SOL     OW 2814   3.120   2.502   1.201 -0.1332 -0.0445  0.2522
  672SOL    HW2 2815   3.127   2.502   1.296 -0.1916 -0.4507  0.2573
  672SOL    HW3 2816   3.137   2.592   1.175  0.7450 -0.1116  0.5887
  672SOL    MW4 2817   3.123   2.514   1.210 -0.0250 -0.1068  0.2972
  673SOL     OW 2818   3.210   1.849   0.355 -0.1198 -0.2942  0.0237
  673SOL    HW2 2819   3.204   1.942   0.373 -0.0572 -0.1807 -0.5371
  673SOL    HW3 2820   3.186   1.807   0.438  0.0262  0.2159  0.3263
  673SOL    MW4 2821   3.206   1.855   0.369 -0.0927 -0.2120 -0.0103
  674SOL     OW 2822   3.406   3.188   1.151 -0.5662 -0.0198 -0.2082
  674SOL    HW2 2823   3.469   3.248   1.192 -1.1918  0.6108 -0.1554
  674SOL    HW3 2824   3.321   3.212   1.190 -0.7040 -1.5004  0.4492
  674SOL    MW4 2825   3.403   3.199   1.162 -0.6669 -0.1318 -0.1144
  675SOL     OW 2826   3.126   3.264   1.249  0.0328 -0.1289  0.1583
  675SOL    HW2 2827   3.072   3.204   1.199  0.7204 -0.6013 -0.0286
  675SOL    HW3 2828   3.107   3.350   1.211  0.2893 -0.4377 -0.6933
  675SOL    MW4 2829   3.117   3.268   1.237  0.1571 -0.2317  0.0213
  676SOL     OW 2830   3.545   3.119   0.759 -0.2086  0.1015  0.2018
  676SOL    HW2 2831   3.633   3.125   0.794  0.1769 -1.4696 -0.4721
  676SOL    HW3 2832   3.493   3.177   0.815  1.0322  0.2095  1.2607
  676SOL    MW4 2833   3.550   3.128   0.771  0.0060 -0.0913  0.2526
  677SOL     OW 2834   3.092   3.506   1.115  0.3142  0.5534  0.0332
  677SOL    HW2 2835   3.178   3.542   1.138  0.6288 -0.1645 -0.0014
  677SOL    HW3 2836   3.093   3.497   1.020 -0.3871  2.0075 -0.1188
  677SOL    MW4 2837   3.103   3.509   1.106  0.2632  0.6504  0.0087
  678SOL     OW 2838   3.340   3.593   1.186 -0.1840  0.0639 -0.3268
  678SOL    HW2 2839   3.355   3.587   1.280 -0.2190 -1.1931 -0.3840
  678SOL    HW3 2840   3.425   3.573   1.147 -0.4742 -0.7504 -0.5660
  678SOL    MW4 2841   3.353   3.589   1.193 -0.2267 -0.2096 -0.3660
  679SOL     OW 2842   1.095   1.741   0.692 -0.0333 -0.1389  0.1211
  679SOL    HW2 2843   1.118   1.662   0.740 -0.6140 -0.8571 -0.7652
  679SOL    HW3 2844   1.085   1.712   0.601  0.2182  1.0387 -0.2948
  679SOL    MW4 2845   1.097   1.727   0.686 -0.0769 -0.0783 -0.0507
  680SOL     OW 2846   3.083   4.004   1.218  0.4958 -0.5833  0.7457
  680SOL    HW2 2847   3.090   3.993   1.313  0.8582 -0.5870  0.7188
  680SOL    HW3 2848   3.104   4.096   1.203 -2.8781  0.3144  1.0074
  680SOL    MW4 2849   3.087   4.015   1.229  0.0985 -0.4649  0.7765
  681SOL     OW 2850   3.142   4.278   1.109 -0.2096  0.7529 -0.3691
  681SOL    HW2 2851   3.146   4.261   1.015  0.0872 -0.1020 -0.2054
  681SOL    HW3 2852   3.231   4.304   1.132 -0.0723  0.1135 -0.1684
  681SOL    MW4 2853   3.154   4.280   1.099 -0.1523  0.5555 -0.3210
  682SOL     OW 2854   3.384   4.371   1.195  0.2284 -0.0882 -0.0642
  682SOL    HW2 2855   3.464   4.345   1.149  0.2487 -0.7620  0.3462
  682SOL    HW3 2856   3.375   4.465   1.177  1.1970  0.0259  0.0281
  682SOL    MW4 2857   3.393   4.380   1.186  0.3588 -0.1616  0.0020
  683SOL     OW 2858   3.880   0.012   1.118  0.4025 -0.3412  0.1690
  683SOL    HW2 2859   3.888  -0.083   1.125 -0.4738 -0.3125  1.6049
  683SOL    HW3 2860   3.869   0.028   1.024  1.5132 -1.5766 -0.1846
  683SOL    MW4 2861   3.880   0.002   1.106  0.4334 -0.5007  0.3119
  684SOL     OW 2862   3.615   0.063   1.210 -0.0949 -0.1668 -0.1367
  684SOL    HW2 2863   3.595   0.152   1.180  0.2790 -0.0805 -0.1391
  684SOL    HW3 2864   3.699   0.042   1.169 -0.5344 -0.8038 -0.7199
  684SOL    MW4 2865   3.624   0.072   1.201 -0.1035 -0.2395 -0.2140
  685SOL     OW 2866   1.346   1.101   0.908  0.1466 -0.2273  0.2081
  685SOL    HW2 2867   1.340   1.126   1.000  1.0869  0.0236  0.2032
  685SOL    HW3 2868   1.397   1.020   0.909  1.8439  0.8012 -0.2444
  685SOL    MW4 2869   1.352   1.094   0.920  0.4947 -0.0585  0.1477
  686SOL     OW 2870   3.829   0.478   1.220 -0.0100  0.3403  0.5448
  686SOL    HW2 2871   3.912   0.450   1.180 -0.7100 -0.2190 -0.5632
  686SOL    HW3 2872   3.828   0.573   1.208 -0.4994  0.1183 -1.3932
  686SOL    MW4 2873   3.840   0.487   1.213 -0.1669  0.2373  0.1429
  687SOL     OW 2874   2.041   3.868   1.126  0.1931 -0.0499 -0.1870
  687SOL    HW2 2875   2.042   3.784   1.172  0.1268 -0.0936 -0.2650
  687SOL    HW3 2876   1.971   3.918   1.168 -0.4884 -0.4310 -0.8476
  687SOL    MW4 2877   2.032   3.863   1.137  0.0944 -0.1059 -0.2844
  688SOL     OW 2878   3.599   0.924   1.227  0.2941 -0.2309  0.2628
  688SOL    HW2 2879   3.603   1.009   1.184 -0.1064  1.0479  2.6918
  688SOL    HW3 2880   3.509   0.893   1.212  0.3224 -0.0517 -0.2711
  688SOL    MW4 2881   3.588   0.931   1.219  0.2449 -0.0384  0.5127
  689SOL     OW 2882   3.636   1.161   1.077  0.0455 -0.2634 -0.0571
  689SOL    HW2 2883   3.708   1.217   1.103  1.2926 -2.1707  0.7187
  689SOL    HW3 2884   3.562   1.188   1.131  0.8677  0.0407  0.9107
  689SOL    MW4 2885   3.636   1.172   1.087  0.3188 -0.4748  0.1730
  690SOL     OW 2886   3.833   1.323   1.165  0.0163  0.0550  0.5851
  690SOL    HW2 2887   3.819   1.332   1.259 -1.1303  0.1788  0.4088
  690SOL    HW3 2888   3.845   1.413   1.133  1.5003 -0.0592  0.7613
  690SOL    MW4 2889   3.833   1.336   1.173  0.0606  0.0564  0.5850
  691SOL     OW 2890   3.805   1.595   1.039 -0.0571  0.1401  0.5111
  691SOL    HW2 2891   3.819   1.612   0.946  1.9398  1.1608  0.9814
  691SOL    HW3 2892   3.878   1.638   1.083 -0.8492 -0.5312  2.5454
  691SOL    MW4 2893   3.816   1.603   1.033  0.1018  0.1862  0.8416
  692SOL     OW 2894   3.606   1.658   1.211  0.1805  0.2098 -0.0651
  692SOL    HW2 2895   3.592   1.750   1.188  1.3851  0.6136  0.8049
  692SOL    HW3 2896   3.673   1.628   1.149  1.1072  0.4204  0.8345
  692SOL    MW4 2897   3.613   1.667   1.200  0.4618  0.2909  0.1682
  693SOL     OW 2898   3.534   1.923   1.094  0.2785 -0.2649 -0.1184
  693SOL    HW2 2899   3.509   1.923   1.001 -0.4269 -2.4969  0.0353
  693SOL    HW3 2900   3.462   1.968   1.138  0.0761 -0.1975 -0.5129
  693SOL    MW4 2901   3.521   1.929   1.088  0.1588 -0.5503 -0.1501
  694SOL     OW 2902   3.757   2.080   1.187  0.0844 -0.0606 -0.4445
  694SOL    HW2 2903   3.776   2.078   1.280  1.3812 -0.9238 -0.7126
  694SOL    HW3 2904   3.681   2.022   1.177 -0.8582  1.0229  0.2218
  694SOL    MW4 2905   3.749   2.072   1.198  0.1314 -0.0315 -0.3921
  695SOL     OW 2906   3.803   2.353   1.148 -0.1189  0.0314 -0.0382
  695SOL    HW2 2907   3.888   2.394   1.165  0.0490  0.0332 -0.8764
  695SOL    HW3 2908   3.811   2.265   1.185  0.6367 -0.3513 -1.0940
  695SOL    MW4 2909   3.815   2.347   1.155  0.0031 -0.0188 -0.2881
  696SOL     OW 2910   3.565   2.469   1.237  0.6239  0.3433 -0.0027
  696SOL    HW2 2911   3.570   2.483   1.331  0.2575 -0.2708  0.1087
  696SOL    HW3 2912   3.643   2.417   1.216  0.6589  0.4051 -0.0284
  696SOL    MW4 2913   3.576   2.464   1.246  0.5803  0.2704  0.0087
  697SOL     OW 2914   3.401   2.895   1.266 -0.4090 -0.3692  0.5641
  697SOL    HW2 2915   3.320   2.870   1.221 -0.2712  1.3379 -0.6372
  697SOL    HW3 2916   3.411   2.988   1.248  2.4940 -0.8173 -0.3212
  697SOL    MW4 2917   3.391   2.904   1.258 -0.0079 -0.2034  0.2888
  698SOL     OW 2918   3.786   2.923   1.208 -0.1787 -0.5114  0.1634
  698SOL    HW2 2919   3.791   2.921   1.303 -0.4626  0.2509  0.2019
  698SOL    HW3 2920   3.713   2.865   1.186 -0.8299  0.1809  0.4792
  698SOL    MW4 2921   3.777   2.915   1.217 -0.3021 -0.3195  0.2103
  699SOL     OW 2922   0.461   4.046   1.257 -0.4821 -0.4520  0.2078
  699SOL    HW2 2923   0.385   3.990   1.238 -1.2437  0.3496  0.8345
  699SOL    HW3 2924   0.459   4.113   1.189 -1.4025  0.6124  1.2515
  699SOL    MW4 2925   0.451   4.047   1.245 -0.7041 -0.2055  0.4282
  700SOL     OW 2926   3.841   3.197   1.165 -0.1231 -0.3832  0.0836
  700SOL    HW2 2927   3.827   3.103   1.174  1.5601 -0.7408 -0.7221
  700SOL    HW3 2928   3.804   3.219   1.079 -0.0589 -0.4025  0.0513
  700SOL    MW4 2929   3.834   3.187   1.155  0.1075 -0.4330 -0.0269
  701SOL     OW 2930   4.409   2.795   0.482  0.0484  0.5078  0.3529
  701SOL    HW2 2931   4.476   2.729   0.501  1.0393  1.0088 -1.2900
  701SOL    HW3 2932   4.332   2.744   0.458 -0.1022 -0.0749  2.0044
  701SOL    MW4 2933   4.408   2.779   0.481  0.1588  0.4971  0.3540
  702SOL     OW 2934   3.873   3.618   1.167 -0.7204  0.1043  0.5538
  702SOL    HW2 2935   3.862   3.634   1.260  0.4424  0.7043  0.5923
  702SOL    HW3 2936   3.865   3.704   1.126 -0.9343 -0.1140  0.1244
  702SOL    MW4 2937   3.871   3.631   1.174 -0.5951  0.1547  0.5022
  703SOL     OW 2938   3.844   3.875   1.074 -0.3021  0.3682 -0.3257
  703SOL    HW2 2939   3.756   3.912   1.079 -0.2348  0.3258  1.4659
  703SOL    HW3 2940   3.879   3.908   0.991 -1.8951  0.6057 -0.9260
  703SOL    MW4 2941   3.837   3.884   1.064 -0.5035  0.3936 -0.1686
  704SOL     OW 2942   3.321   3.893   1.109 -0.1265 -0.6860 -0.1096
  704SOL    HW2 2943   3.235   3.924   1.140 -0.0014  0.4408 -0.8684
  704SOL    HW3 2944   3.345   3.824   1.171 -0.3579  0.8193  1.6768
  704SOL    MW4 2945   3.313   3.888   1.121 -0.1407 -0.3388  0.0261
  705SOL     OW 2946   3.580   3.990   1.132  0.1457 -0.0893  0.4522
  705SOL    HW2 2947   3.568   3.984   1.227  0.8653 -2.3933  0.4446
  705SOL    HW3 2948   3.491   3.996   1.096 -0.1200  0.9433  1.2647
  705SOL    MW4 2949   3.567   3.990   1.140  0.2055 -0.2568  0.5585
  706SOL     OW 2950   3.838   4.403   1.170 -0.2220  0.6081  0.0800
  706SOL    HW2 2951   3.827   4.417   1.264  0.4910  0.9728  0.1145
  706SOL    HW3 2952   3.767   4.344   1.146 -0.7986  1.0292  0.7257
  706SOL    MW4 2953   3.827   4.397   1.179 -0.2041  0.7114  0.1698
  707SOL     OW 2954   4.299   0.009   1.096  0.2577  0.5078 -0.4226
  707SOL    HW2 2955   4.224   0.044   1.144 -0.4129  0.1121 -1.1810
  707SOL    HW3 2956   4.312  -0.078   1.132  0.9030  0.9005  0.3144
  707SOL    MW4 2957   4.291   0.002   1.107  0.2546  0.5074 -0.4256
  708SOL     OW 2958   4.088   0.128   1.231  0.1003  0.5306 -0.2787
  708SOL    HW2 2959   4.077   0.133   1.326  0.3854  0.3804 -0.2387
  708SOL    HW3 2960   4.010   0.080   1.201 -0.1474  0.8512 -0.1536
  708SOL    MW4 2961   4.076   0.122   1.239  0.1049  0.5531 -0.2569
  709SOL     OW 2962   4.106   3.554   0.797 -0.5241  0.2976 -0.1299
  709SOL    HW2 2963   4.098   3.537   0.891  0.8593 -0.3107 -0.1084
  709SOL    HW3 2964   4.192   3.596   0.788 -0.1671 -0.6441 -1.2497
  709SOL    MW4 2965   4.116   3.557   0.808 -0.2947  0.0930 -0.2748
  710SOL     OW 2966   4.302   0.529   1.241 -0.2956 -0.1068  0.3916
  710SOL    HW2 2967   4.381   0.480   1.220 -1.2253 -1.6463  0.4188
  710SOL    HW3 2968   4.295   0.523   1.337 -0.7232 -0.3999  0.3408
  710SOL    MW4 2969   4.311   0.522   1.251 -0.4745 -0.3486  0.3884
  711SOL     OW 2970   4.248   0.775   1.108  0.1685 -0.2567 -0.2795
  711SOL    HW2 2971   4.234   0.753   1.016  0.1007 -0.3714 -0.2420
  711SOL    HW3 2972   4.274   0.692   1.149  0.4058 -0.1632 -0.2375
  711SOL    MW4 2973   4.250   0.761   1.101  0.1907 -0.2595 -0.2691
  712SOL     OW 2974   4.024   0.910   1.289 -0.1000  0.0269 -0.4684
  712SOL    HW2 2975   4.038   0.900   1.383 -3.0412 -1.0405 -0.0740
  712SOL    HW3 2976   4.104   0.878   1.248  0.9166 -0.1810  1.6646
  712SOL    MW4 2977   4.036   0.904   1.296 -0.3543 -0.1414 -0.1349
  713SOL     OW 2978   4.023   1.119   1.100  0.1051  0.1827  0.6296
  713SOL    HW2 2979   4.023   1.045   1.161 -2.1608 -0.4420 -0.0690
  713SOL    HW3 2980   3.942   1.166   1.120  1.3296  2.2659  0.8016
  713SOL    MW4 2981   4.012   1.116   1.111 -0.0319  0.3754  0.5599
  714SOL     OW 2982   0.254   3.909   1.131  0.3619  0.1626  0.1689
  714SOL    HW2 2983   0.177   3.961   1.152  0.0998  0.8990 -2.3792
  714SOL    HW3 2984   0.228   3.818   1.148 -1.7320  0.2188 -2.3534
  714SOL    MW4 2985   0.241   3.904   1.136  0.0510  0.2673 -0.5001
  715SOL     OW 2986   0.027   1.664   1.247 -0.1618 -0.1013 -0.2264
  715SOL    HW2 2987   0.114   1.636   1.220 -0.3949 -0.7234 -0.3359
  715SOL    HW3 2988   0.014   1.749   1.205  0.2892 -0.1286 -0.4142
  715SOL    MW4 2989   0.037   1.671   1.238 -0.1331 -0.1870 -0.2656
  716SOL     OW 2990   4.030   1.692   1.177 -0.1268 -0.2862 -0.5025
  716SOL    HW2 2991   4.033   1.675   1.272  0.0585  1.0346 -0.2570
  716SOL    HW3 2992   4.120   1.677   1.148 -0.1297 -0.4605 -0.4183
  716SOL    MW4 2993   4.043   1.688   1.186 -0.1030 -0.1349 -0.4590
  717SOL     OW 2994   3.757   2.640   0.514 -0.4209  0.0194 -0.2579
  717SOL    HW2 2995   3.738   2.550   0.486  1.1417 -0.1733 -0.7103
  717SOL    HW3 2996   3.672   2.673   0.546 -1.2363 -1.2501 -1.0625
  717SOL    MW4 2997   3.743   2.632   0.515 -0.3223 -0.1736 -0.4238
  718SOL     OW 2998   4.230   2.081   1.204 -0.8001  0.3114  0.5141
  718SOL    HW2 2999   4.230   2.171   1.170  0.4931  0.9639  2.1860
  718SOL    HW3 3000   4.140   2.051   1.192 -1.9164  2.7605  2.3205
  718SOL    MW4 3001   4.218   2.089   1.198 -0.7768  0.7210  0.9730
  719SOL     OW 3002   4.219   2.333   1.090 -0.4736  0.4316 -0.4747
  719SOL    HW2 3003   4.151   2.381   1.137 -0.1148 -1.0623  1.6578
  719SOL    HW3 3004   4.299   2.350   1.140  0.2600  0.2204 -1.5634
  719SOL    MW4 3005   4.220   2.342   1.103 -0.3290  0.2065 -0.3370
  720SOL     OW 3006   4.036   2.500   1.214  0.7117 -0.0810  0.2835
  720SOL    HW2 3007   4.051   2.498   1.309  1.9554 -1.1052  0.0796
  720SOL    HW3 3008   4.012   2.591   1.196  2.9920  0.7582  1.2378
  720SOL    MW4 3009   4.035   2.512   1.225  1.1768 -0.1056  0.3824
  721SOL     OW 3010   4.004   2.778   1.154  0.4698  0.3166 -0.1472
  721SOL    HW2 3011   4.083   2.823   1.185 -0.6385  1.6334  0.8710
  721SOL    HW3 3012   3.932   2.835   1.183 -0.8424 -0.8310 -1.1053
  721SOL    MW4 3013   4.005   2.792   1.162  0.1512  0.3393 -0.1394
  722SOL     OW 3014   4.290   2.887   1.217 -0.2896 -0.1590 -0.5115
  722SOL    HW2 3015   4.361   2.827   1.197  0.9976  0.9262  0.6870
  722SOL    HW3 3016   4.300   2.959   1.155  1.4081  1.3630  1.4616
  722SOL    MW4 3017   4.301   2.889   1.207  0.1049  0.1848 -0.0930
  723SOL     OW 3018   0.923   0.300   0.774  0.2670  0.1302  0.0259
  723SOL    HW2 3019   0.930   0.391   0.802  2.3469  0.3802 -1.1684
  723SOL    HW3 3020   1.013   0.267   0.779 -0.1329 -1.2453 -1.5409
  723SOL    MW4 3021   0.936   0.307   0.779  0.4887 -0.0183 -0.3383
  724SOL     OW 3022   4.106   3.279   1.210 -0.7779  0.1084 -0.7932
  724SOL    HW2 3023   4.142   3.273   1.299  0.2315  1.5018 -1.0920
  724SOL    HW3 3024   4.013   3.258   1.220 -0.7378  0.5676  0.6510
  724SOL    MW4 3025   4.099   3.276   1.223 -0.6390  0.3529 -0.6421
  725SOL     OW 3026   4.108   3.507   1.067  0.3811  0.2780  0.1369
  725SOL    HW2 3027   4.030   3.555   1.095 -0.7668 -0.0825 -2.2810
  725SOL    HW3 3028   4.100   3.422   1.111 -0.6926  0.1896 -0.1924
  725SOL    MW4 3029   4.096   3.502   1.076  0.0882  0.2186 -0.2255
  726SOL     OW 3030   4.307   3.673   1.197  0.5906  0.2319 -0.4141
  726SOL    HW2 3031   4.239   3.619   1.157 -0.2030  1.5379 -0.8611
  726SOL    HW3 3032   4.388   3.624   1.182 -0.2954 -1.5417  0.5073
  726SOL    MW4 3033   4.309   3.659   1.190  0.3686  0.1700 -0.3517
  727SOL     OW 3034   4.279   3.937   1.121  0.0792 -0.9391  0.2668
  727SOL    HW2 3035   4.193   3.960   1.155 -0.3172 -3.1430  0.8063
  727SOL    HW3 3036   4.288   3.844   1.139  1.4720 -1.3192 -2.1965
  727SOL    MW4 3037   4.269   3.928   1.128  0.2108 -1.2798  0.0130
  728SOL     OW 3038   4.031   3.996   1.221  0.2177  0.3214  0.1433
  728SOL    HW2 3039   4.025   4.088   1.196 -1.3443  0.4425  0.9060
  728SOL    HW3 3040   3.968   3.952   1.164  0.8611 -0.2741 -0.1251
  728SOL    MW4 3041   4.022   4.002   1.210  0.0963  0.2584  0.2085
  729SOL     OW 3042   4.070   4.253   1.092 -0.1294  0.1680 -0.3761
  729SOL    HW2 3043   3.994   4.307   1.114 -1.3654 -1.9654  0.7259
  729SOL    HW3 3044   4.066   4.244   0.997 -0.8504  0.6460 -0.3934
  729SOL    MW4 3045   4.059   4.259   1.082 -0.3877 -0.0505 -0.2329
  730SOL     OW 3046   4.272   4.407   1.201  0.5760  0.7591  0.4429
  730SOL    HW2 3047   4.210   4.342   1.166 -0.1620  1.7514 -0.0967
  730SOL    HW3 3048   4.358   4.372   1.177  0.1630  0.1850 -0.2282
  730SOL    MW4 3049   4.276   4.393   1.193  0.4244  0.8144  0.2832
  731SOL     OW 3050   0.232   4.642   1.587 -0.1281  0.1784 -0.2496
  731SOL    HW2 3051   0.314   4.690   1.575 -0.6314  1.2667  0.5543
  731SOL    HW3 3052   0.165   4.702   1.555 -0.9067  0.6028  2.1189
  731SOL    MW4 3053   0.234   4.656   1.581 -0.2972  0.3781  0.1689
  732SOL     OW 3054   0.035   0.152   1.493  0.0959  0.6437 -0.0715
  732SOL    HW2 3055  -0.028   0.084   1.517  0.8376  0.2658  0.8827
  732SOL    HW3 3056   0.036   0.152   1.398 -1.1229  0.4464 -0.0895
  732SOL    MW4 3057   0.027   0.143   1.484  0.0329  0.5678  0.0520
  733SOL     OW 3058   0.019   0.386   1.646  0.3480 -0.7310 -0.7246
  733SOL    HW2 3059   0.015   0.375   1.741  0.1755 -1.7960 -0.8513
  733SOL    HW3 3060   0.021   0.297   1.611 -0.6910 -0.3701 -1.7629
  733SOL    MW4 3061   0.019   0.373   1.654  0.1881 -0.8239 -0.8783
  734SOL     OW 3062   0.232   0.550   1.546 -0.5738  0.3056  0.3746
  734SOL    HW2 3063   0.163   0.501   1.590  1.0870  0.0409  2.7547
  734SOL    HW3 3064   0.221   0.530   1.453 -3.1438 -0.3979  0.8031
  734SOL    MW4 3065   0.221   0.541   1.540 -0.6938  0.1779  0.7452
  735SOL     OW 3066   0.226   0.802   1.628  0.1932 -0.3780 -0.2102
  735SOL    HW2 3067   0.274   0.855   1.564  0.4548 -1.1858 -0.6918
  735SOL    HW3 3068   0.245   0.711   1.603 -1.4986 -0.7035 -0.3461
  735SOL    MW4 3069   0.235   0.797   1.616  0.0045 -0.5274 -0.2915
  736SOL     OW 3070   4.486   0.871   1.511  0.0676 -0.3684  0.4874
  736SOL    HW2 3071   4.490   0.963   1.539 -0.0578 -0.5951  1.2509
  736SOL    HW3 3072   4.570   0.834   1.540  0.8865 -0.0679 -1.3776
  736SOL    MW4 3073   4.498   0.878   1.518  0.1588 -0.3587  0.3420
  737SOL     OW 3074   4.466   1.152   1.584  0.4292 -0.4538  0.5742
  737SOL    HW2 3075   4.455   1.133   1.677 -0.6461  1.7164  0.9278
  737SOL    HW3 3076   4.553   1.192   1.577 -0.0042  0.5696  0.8742
  737SOL    MW4 3077   4.476   1.155   1.596  0.2303 -0.0325  0.6605
  738SOL     OW 3078   0.200   1.275   1.497  0.0375  0.4717 -0.7051
  738SOL    HW2 3079   0.232   1.355   1.539  2.6342 -0.8213 -0.1183
  738SOL    HW3 3080   0.183   1.300   1.406 -0.2987  1.9518 -0.2469
  738SOL    MW4 3081   0.202   1.288   1.490  0.3358  0.4964 -0.5672
  739SOL     OW 3082   0.279   1.507   1.636  0.0370 -0.3636  0.0359
  739SOL    HW2 3083   0.269   1.523   1.729  0.1507  0.1642 -0.0400
  739SOL    HW3 3084   0.208   1.556   1.595  0.4486  0.0347 -0.2086
  739SOL    MW4 3085   0.269   1.516   1.643  0.1062 -0.2413 -0.0064
  740SOL     OW 3086   0.072   1.639   1.511  0.6626  0.2182  0.1186
  740SOL    HW2 3087   0.061   1.730   1.535 -0.6531 -0.0497  0.5347
  740SOL    HW3 3088   0.062   1.637   1.416  0.9456  0.5392  0.0827
  740SOL    MW4 3089   0.069   1.651   1.502  0.5263  0.2252  0.1688
  741SOL     OW 3090   0.017   1.918   1.570 -0.2214 -0.1522  0.2421
  741SOL    HW2 3091   0.005   1.916   1.665 -0.5814  0.8337  0.2150
  741SOL    HW3 3092  -0.066   1.952   1.536  0.6727  1.4882 -0.2979
  741SOL    MW4 3093   0.004   1.922   1.578 -0.1512  0.1944  0.1673
  742SOL     OW 3094   0.225   2.061   1.473 -0.4014 -0.1828  0.3420
  742SOL    HW2 3095   0.151   2.009   1.505 -0.3922 -0.9961 -0.9324
  742SOL    HW3 3096   0.217   2.059   1.378  1.6867 -0.9124  0.1547
  742SOL    MW4 3097   0.214   2.054   1.465 -0.1247 -0.3865  0.1493
  743SOL     OW 3098   0.205   2.317   1.596  0.2855  0.1676  0.2859
  743SOL    HW2 3099   0.215   2.325   1.691  0.2258  0.2363  0.2863
  743SOL    HW3 3100   0.217   2.223   1.579  0.3606  0.1648  0.3537
  743SOL    MW4 3101   0.208   2.306   1.606  0.2875  0.1764  0.2950
  744SOL     OW 3102   4.477   2.452   1.505 -0.1243 -0.0422 -0.0315
  744SOL    HW2 3103   4.402   2.393   1.516  0.1919 -0.8162 -1.8448
  744SOL    HW3 3104   4.552   2.401   1.534 -0.0649  0.0975  0.0614
  744SOL    MW4 3105   4.477   2.438   1.510 -0.0749 -0.1261 -0.2584
  745SOL     OW 3106   4.482   2.729   1.555 -0.6157 -0.0465  0.4577
  745SOL    HW2 3107   4.402   2.760   1.512 -0.0157  0.3444 -0.3951
  745SOL    HW3 3108   4.478   2.634   1.548 -1.0249 -0.0275  0.4501
  745SOL    MW4 3109   4.471   2.721   1.548 -0.5905  0.0079  0.3443
  746SOL     OW 3110   0.212   2.886   1.493 -0.3921 -0.0356 -0.4183
  746SOL    HW2 3111   0.285   2.831   1.520  0.5863  1.4059 -0.0329
  746SOL    HW3 3112   0.134   2.833   1.509  0.5232 -1.3070 -0.1193
  746SOL    MW4 3113   0.212   2.872   1.499 -0.1422 -0.0131 -0.3279
  747SOL     OW 3114   0.199   3.143   1.588  0.3987  0.2949  0.5947
  747SOL    HW2 3115   0.123   3.195   1.564 -0.5983  0.0985  3.2038
  747SOL    HW3 3116   0.176   3.053   1.563  0.3294  0.4361  0.1476
  747SOL    MW4 3117   0.186   3.138   1.581  0.2580  0.2875  0.8800
  748SOL     OW 3118   4.457   3.248   1.466 -0.6868 -0.8615  0.4727
  748SOL    HW2 3119   4.464   3.343   1.478  0.3255 -0.8567 -0.0371
  748SOL    HW3 3120   4.451   3.237   1.371  0.2925 -1.3573  0.4572
  748SOL    MW4 3121   4.457   3.259   1.455 -0.4239 -0.9263  0.4034
  749SOL     OW 3122   4.463   3.522   1.519 -0.2036 -0.1989  0.1666
  749SOL    HW2 3123   4.468   3.517   1.614 -0.4670  0.9498  0.2409
  749SOL    HW3 3124   4.387   3.577   1.501  0.6190  0.6939 -0.6821
  749SOL    MW4 3125   4.454   3.528   1.529 -0.1302  0.0706  0.0644
  750SOL     OW 3126   0.227   3.624   1.476 -0.4602 -0.3557 -0.1908
  750SOL    HW2 3127   0.214   3.704   1.525  0.4465 -0.0390 -0.4589
  750SOL    HW3 3128   0.140   3.582   1.474 -1.1682  1.1244 -0.9504
  750SOL    MW4 3129   0.214   3.629   1.482 -0.4340 -0.1187 -0.3264
  751SOL     OW 3130   0.191   3.870   1.616 -0.1855  0.1903  0.3072
  751SOL    HW2 3131   0.178   3.877   1.711 -1.7668  1.8552 -0.0099
  751SOL    HW3 3132   0.264   3.929   1.598 -0.7913  0.9504  0.3108
  751SOL    MW4 3133   0.199   3.879   1.626 -0.4740  0.5100  0.2658
  752SOL     OW 3134   4.477   3.992   1.472 -0.3290 -0.0005  0.2867
  752SOL    HW2 3135   4.465   4.075   1.519 -0.3786 -0.2576  0.7375
  752SOL    HW3 3136   4.542   3.944   1.524 -0.6253 -0.4203  0.2770
  752SOL    MW4 3137   4.484   3.997   1.485 -0.3746 -0.0901  0.3450
  753SOL     OW 3138   4.467   4.259   1.560  0.1257  0.1421  0.5163
  753SOL    HW2 3139   4.480   4.283   1.652  1.1347  0.1766  0.3679
  753SOL    HW3 3140   4.387   4.304   1.535 -0.9379 -0.9835  1.7750
  753SOL    MW4 3141   4.458   4.268   1.569  0.1187 -0.0019  0.6627
  754SOL     OW 3142   0.201   4.382   1.449 -0.1981  0.3126 -0.0309
  754SOL    HW2 3143   0.130   4.331   1.488 -0.1365 -0.3704 -0.7919
  754SOL    HW3 3144   0.193   4.469   1.489 -0.3446 -0.2734  1.2315
  754SOL    MW4 3145   0.190   4.387   1.459 -0.2093  0.1450  0.0352
  755SOL     OW 3146   0.732   4.649   1.560 -0.0634 -0.0196  0.0192
  755SOL    HW2 3147   0.807   4.699   1.528 -0.2132  0.1400 -0.0833
  755SOL    HW3 3148   0.664   4.715   1.575  0.2179 -0.0027  1.2915
  755SOL    MW4 3149   0.733   4.665   1.558 -0.0460  0.0033  0.1736
  756SOL     OW 3150   0.474   0.108   1.571  0.4290 -0.2842  0.1797
  756SOL    HW2 3151   0.453   0.200   1.587  0.5890 -0.6092  2.4561
  756SOL    HW3 3152   0.485   0.102   1.476  0.7717  2.1188  0.0320
  756SOL    MW4 3153   0.473   0.120   1.561  0.4953 -0.0100  0.4606
  757SOL     OW 3154   0.422   0.366   1.652 -0.1021 -0.6000 -0.3325
  757SOL    HW2 3155   0.505   0.411   1.638 -0.0864 -0.6829 -0.5085
  757SOL    HW3 3156   0.359   0.415   1.599 -0.1836 -0.4841 -0.1306
  757SOL    MW4 3157   0.424   0.378   1.643 -0.1108 -0.5956 -0.3291
  758SOL     OW 3158   0.654   0.515   1.565 -0.3476 -0.2315  0.5913
  758SOL    HW2 3159   0.642   0.608   1.585  0.9602 -0.1553  1.0325
  758SOL    HW3 3160   0.670   0.514   1.471 -0.8528 -0.0617  0.4992
  758SOL    MW4 3161   0.655   0.527   1.555 -0.2417 -0.1991  0.6373
  759SOL     OW 3162   0.642   0.771   1.627  0.3472  0.5421  0.2111
  759SOL    HW2 3163   0.634   0.779   1.722 -0.3561 -1.3268  0.3306
  759SOL    HW3 3164   0.723   0.816   1.605  1.9940 -1.4364  2.0475
  759SOL    MW4 3165   0.651   0.778   1.637  0.4717  0.0345  0.4693
  760SOL     OW 3166   0.476   0.896   1.455 -0.3922  0.1457 -0.2587
  760SOL    HW2 3167   0.466   0.983   1.495  0.0377  0.2258 -0.3272
  760SOL    HW3 3168   0.541   0.851   1.509  0.6395  0.4677 -1.2025
  760SOL    MW4 3169   0.483   0.902   1.467 -0.1993  0.1987 -0.3923
  761SOL     OW 3170   0.431   1.143   1.587  0.1829  0.1987  0.1313
  761SOL    HW2 3171   0.500   1.199   1.553 -0.0925 -0.2988 -1.2766
  761SOL    HW3 3172   0.350   1.189   1.566  0.0504  0.4820  1.2234
  761SOL    MW4 3173   0.429   1.156   1.580  0.1291  0.1705  0.0896
  762SOL     OW 3174   0.669   1.275   1.475  0.1619 -0.3329  0.3346
  762SOL    HW2 3175   0.680   1.367   1.501 -0.3066 -0.1160 -0.1978
  762SOL    HW3 3176   0.677   1.277   1.379  0.8647 -0.9544  0.3816
  762SOL    MW4 3177   0.671   1.288   1.466  0.1929 -0.3861  0.2706
  763SOL     OW 3178   0.713   1.527   1.563  0.0916 -0.5818 -0.0511
  763SOL    HW2 3179   0.778   1.596   1.549 -1.0513  0.2801 -1.2871
  763SOL    HW3 3180   0.629   1.570   1.547 -0.7179 -1.9337  0.5058
  763SOL    MW4 3181   0.710   1.541   1.559 -0.1660 -0.6465 -0.1407
  764SOL     OW 3182   0.476   1.652   1.501  0.0608  0.1897  0.3447
  764SOL    HW2 3183   0.462   1.746   1.516 -0.8509  0.4268 -1.8522
  764SOL    HW3 3184   0.403   1.610   1.547 -0.9003  0.7271 -0.6388
  764SOL    MW4 3185   0.464   1.659   1.509 -0.1863  0.2919 -0.0750
  765SOL     OW 3186   0.456   1.945   1.593 -0.1371  0.0755 -0.1696
  765SOL    HW2 3187   0.453   1.956   1.688  0.1616 -0.5581 -0.0827
  765SOL    HW3 3188   0.380   1.994   1.560 -0.0443  0.5792  0.3631
  765SOL    MW4 3189   0.445   1.953   1.601 -0.0854  0.0584 -0.0879
  766SOL     OW 3190   0.658   2.092   1.468  0.2349 -0.4594  0.0527
  766SOL    HW2 3191   0.727   2.044   1.514 -0.3023 -1.5615 -0.2915
  766SOL    HW3 3192   0.576   2.051   1.497 -0.2886  0.7530  0.3594
  766SOL    MW4 3193   0.656   2.080   1.478  0.0950 -0.4449  0.0478
  767SOL     OW 3194   0.615   2.322   1.610  0.1750 -0.2164  0.1577
  767SOL    HW2 3195   0.555   2.376   1.558 -0.1171 -0.3227  0.3806
  767SOL    HW3 3196   0.627   2.243   1.558 -0.8403 -0.7159  0.6652
  767SOL    MW4 3197   0.608   2.319   1.596  0.0025 -0.2961  0.2542
  768SOL     OW 3198   0.408   2.457   1.471  0.2619  0.5553 -0.0303
  768SOL    HW2 3199   0.407   2.548   1.501 -0.0060  0.3492  0.5943
  768SOL    HW3 3200   0.344   2.412   1.527  0.1502  0.0513 -0.5547
  768SOL    MW4 3201   0.400   2.463   1.482  0.2118  0.4613 -0.0169
  769SOL     OW 3202   0.429   2.714   1.565  0.3342  0.1913 -0.1891
  769SOL    HW2 3203   0.430   2.707   1.660 -1.2124  0.6355 -0.1360
  769SOL    HW3 3204   0.494   2.781   1.544  0.8745 -0.1091  0.5277
  769SOL    MW4 3205   0.438   2.722   1.575  0.2015  0.2103 -0.0876
  770SOL     OW 3206   0.650   2.858   1.479 -0.3777 -0.3866 -0.2438
  770SOL    HW2 3207   0.673   2.942   1.518  1.8891 -1.8136  1.5958
  770SOL    HW3 3208   0.667   2.870   1.385 -0.1129  1.1966 -0.0149
  770SOL    MW4 3209   0.655   2.871   1.471 -0.0436 -0.3660  0.0292
  771SOL     OW 3210   0.673   3.110   1.598 -0.5345 -0.1104  0.0589
  771SOL    HW2 3211   0.667   3.088   1.691 -0.6384 -0.4900 -0.0379
  771SOL    HW3 3212   0.586   3.145   1.576 -0.2388  0.8039  0.3149
  771SOL    MW4 3213   0.661   3.112   1.607 -0.5093 -0.0398  0.0799
  772SOL     OW 3214   0.440   3.248   1.505  0.3154 -0.1788 -0.1659
  772SOL    HW2 3215   0.360   3.203   1.531  0.1454  0.4737  0.4686
  772SOL    HW3 3216   0.456   3.220   1.415 -0.1780 -0.9397 -0.0137
  772SOL    MW4 3217   0.432   3.239   1.497  0.2278 -0.1931 -0.0621
  773SOL     OW 3218   0.454   3.529   1.580  0.1599  0.1844  0.2470
  773SOL    HW2 3219   0.454   3.436   1.558 -0.5757 -0.1931  1.7930
  773SOL    HW3 3220   0.366   3.559   1.556  0.2281  0.3599  0.2155
  773SOL    MW4 3221   0.442   3.521   1.574  0.0718  0.1576  0.4468
  774SOL     OW 3222   0.686   3.672   1.536 -0.2003 -0.1596 -0.3261
  774SOL    HW2 3223   0.745   3.603   1.566 -0.0081 -0.6070 -1.6813
  774SOL    HW3 3224   0.599   3.633   1.542 -0.2489  0.0733  0.5096
  774SOL    MW4 3225   0.682   3.658   1.540 -0.1814 -0.1879 -0.3946
  775SOL     OW 3226   0.675   3.935   1.600  0.1117  0.1869 -0.2345
  775SOL    HW2 3227   0.751   3.981   1.563  0.0165  1.2488  0.8646
  775SOL    HW3 3228   0.690   3.843   1.579  1.6333  0.4087 -0.1535
  775SOL    MW4 3229   0.687   3.929   1.592  0.2999  0.3564 -0.0789
  776SOL     OW 3230   0.424   4.015   1.515  0.6068 -0.2439 -0.1850
  776SOL    HW2 3231   0.506   3.980   1.549  0.1116 -1.8989 -0.6622
  776SOL    HW3 3232   0.439   4.025   1.421  0.0317 -1.2918 -0.4058
  776SOL    MW4 3233   0.436   4.012   1.507  0.4656 -0.6008 -0.2773
  777SOL     OW 3234   0.446   4.281   1.561 -0.3730 -0.0376  0.0392
  777SOL    HW2 3235   0.442   4.190   1.533  0.6097  0.2442 -1.0367
  777SOL    HW3 3236   0.363   4.319   1.534 -0.9099 -0.6771  0.7597
  777SOL    MW4 3237   0.434   4.274   1.554 -0.3141 -0.0849 -0.0075
  778SOL     OW 3238   0.700   4.378   1.454 -0.0635 -0.7111 -0.2442
  778SOL    HW2 3239   0.612   4.355   1.484 -0.1315  1.7212  1.6024
  778SOL    HW3 3240   0.713   4.468   1.484  3.5519 -1.4502  0.7127
  778SOL    MW4 3241   0.690   4.386   1.462  0.4045 -0.4878  0.1256
  779SOL     OW 3242   1.173   4.638   1.570 -0.4298  0.1717  0.2678
  779SOL    HW2 3243   1.143   4.671   1.655 -0.1077  1.1509  0.0096
  779SOL    HW3 3244   1.241   4.699   1.543  0.2737 -0.8001 -0.1640
  779SOL    MW4 3245   1.178   4.651   1.577 -0.2946  0.1726  0.1768
  780SOL     OW 3246   0.964   0.127   1.449  0.2983  0.2740 -0.5807
  780SOL    HW2 3247   0.943   0.202   1.505 -0.7458 -0.1691 -0.3779
  780SOL    HW3 3248   1.049   0.096   1.482 -0.9284 -0.8286  1.6815
  780SOL    MW4 3249   0.973   0.133   1.461 -0.0012  0.0701 -0.2555
  781SOL     OW 3250   0.907   0.341   1.626 -0.2016 -0.0305 -0.0607
  781SOL    HW2 3251   0.910   0.334   1.721  0.5028  1.1374  0.0003
  781SOL    HW3 3252   0.837   0.403   1.608  0.4344  0.6340 -0.2623
  781SOL    MW4 3253   0.898   0.348   1.636 -0.0247  0.2113 -0.0792
  782SOL     OW 3254   1.101   0.495   1.490  0.4473 -0.0329 -0.0844
  782SOL    HW2 3255   1.085   0.581   1.530  0.5891 -0.4735  0.9358
  782SOL    HW3 3256   1.055   0.434   1.548 -2.3162 -0.3590 -2.5196
  782SOL    MW4 3257   1.093   0.498   1.503  0.1014 -0.1341 -0.2713
  783SOL     OW 3258   1.061   0.764   1.621  0.4609 -0.2480 -0.0510
  783SOL    HW2 3259   1.081   0.749   1.713 -0.0405 -0.1010  0.0857
  783SOL    HW3 3260   1.141   0.801   1.585  0.7461 -0.5551  0.2642
  783SOL    MW4 3261   1.074   0.767   1.629  0.4323 -0.2691  0.0087
  784SOL     OW 3262   0.856   0.885   1.492 -0.3556 -0.3174 -0.2952
  784SOL    HW2 3263   0.923   0.836   1.539 -1.1130 -1.5125 -0.4365
  784SOL    HW3 3264   0.884   0.882   1.400  0.3103  0.6935 -0.1337
  784SOL    MW4 3265   0.868   0.878   1.486 -0.3677 -0.3417 -0.2925
  785SOL     OW 3266   0.871   1.159   1.614  0.2894 -0.0965 -0.1829
  785SOL    HW2 3267   0.871   1.076   1.567 -1.0314 -0.6148  0.6932
  785SOL    HW3 3268   0.796   1.207   1.578  0.9737  0.6840 -0.6011
  785SOL    MW4 3269   0.861   1.154   1.603  0.2054 -0.0619 -0.1225
  786SOL     OW 3270   1.104   1.313   1.533 -0.4115 -0.7105 -0.5936
  786SOL    HW2 3271   1.190   1.276   1.554 -0.0770  0.0764 -0.5409
  786SOL    HW3 3272   1.041   1.249   1.564  0.1845 -1.7887 -1.5734
  786SOL    MW4 3273   1.107   1.300   1.540 -0.2886 -0.7490 -0.7160
  787SOL     OW 3274   1.104   1.578   1.605  0.0035 -0.3056  0.0770
  787SOL    HW2 3275   1.190   1.611   1.578 -0.3259  0.3049 -0.2485
  787SOL    HW3 3276   1.099   1.489   1.568  0.2602 -0.1211 -0.4063
  787SOL    MW4 3277   1.114   1.570   1.597 -0.0062 -0.2006 -0.0297
  788SOL     OW 3278   0.890   1.737   1.480  0.0328  0.1737  0.1795
  788SOL    HW2 3279   0.958   1.698   1.535  0.7446  0.4154 -0.5175
  788SOL    HW3 3280   0.891   1.830   1.502 -0.4522  0.0857  0.5694
  788SOL    MW4 3281   0.899   1.744   1.490  0.0627  0.1941  0.1391
  789SOL     OW 3282   0.909   1.994   1.595  0.2412 -0.1639 -0.6544
  789SOL    HW2 3283   0.975   2.060   1.573 -0.7443  0.8356 -0.6729
  789SOL    HW3 3284   0.911   1.988   1.690 -0.0075  0.2568 -0.6216
  789SOL    MW4 3285   0.918   2.002   1.605  0.0783  0.0234 -0.6527
  790SOL     OW 3286   1.814   1.954   1.568  0.5412  0.2377  0.0143
  790SOL    HW2 3287   1.794   1.861   1.557  1.5206  0.0413 -0.1882
  790SOL    HW3 3288   1.836   1.964   1.661  0.6461  0.2180 -0.0076
  790SOL    MW4 3289   1.814   1.943   1.579  0.6843  0.2092 -0.0154
  791SOL     OW 3290   1.098   2.380   1.617  0.2036 -0.3723 -0.5028
  791SOL    HW2 3291   1.158   2.442   1.575  0.2460  1.3953  2.1014
  791SOL    HW3 3292   1.014   2.397   1.574  0.5575  0.3813 -0.9138
  791SOL    MW4 3293   1.095   2.390   1.605  0.2559 -0.0396 -0.2135
  792SOL     OW 3294   0.857   2.441   1.510 -0.1322  0.1502 -0.0040
  792SOL    HW2 3295   0.846   2.535   1.519 -0.5764  0.1482 -0.5122
  792SOL    HW3 3296   0.783   2.403   1.557  1.0447  0.0070  1.7966
  792SOL    MW4 3297   0.846   2.448   1.517 -0.0356  0.1311  0.1667
  793SOL     OW 3298   0.858   2.708   1.541 -0.0329  1.0249  0.1980
  793SOL    HW2 3299   0.843   2.697   1.635 -0.9414 -0.6638 -0.1176
  793SOL    HW3 3300   0.782   2.757   1.510 -0.7063 -0.1119  0.0288
  793SOL    MW4 3301   0.846   2.713   1.550 -0.2416  0.6521  0.1340
  794SOL     OW 3302   1.095   3.109   1.531  0.5969  0.1061 -0.2478
  794SOL    HW2 3303   1.182   3.147   1.520  0.9161 -0.7834 -0.8138
  794SOL    HW3 3304   1.078   3.116   1.625  0.8846  1.1391 -0.2706
  794SOL    MW4 3305   1.104   3.115   1.542  0.6769  0.1247 -0.3257
  795SOL     OW 3306   0.875   3.249   1.459  0.5931 -0.2310  0.4529
  795SOL    HW2 3307   0.807   3.217   1.518 -0.0944 -0.4010 -0.4336
  795SOL    HW3 3308   0.954   3.204   1.487  0.2091 -0.5295  1.0629
  795SOL    MW4 3309   0.876   3.239   1.471  0.4517 -0.2933  0.4165
  796SOL     OW 3310   1.106   3.831   1.059  0.8535  0.2167 -0.2043
  796SOL    HW2 3311   1.112   3.749   1.109  1.1441  0.9224  0.9530
  796SOL    HW3 3312   1.181   3.883   1.089  1.3477  0.4426 -1.8003
  796SOL    MW4 3313   1.117   3.827   1.070  0.9570  0.3393 -0.2621
  797SOL     OW 3314   0.878   3.489   1.593  0.2756  0.1661 -0.2974
  797SOL    HW2 3315   0.893   3.462   1.684  0.0205  0.0134 -0.2996
  797SOL    HW3 3316   0.871   3.407   1.545  0.8522  0.2483 -0.5323
  797SOL    MW4 3317   0.879   3.475   1.599  0.3180  0.1566 -0.3285
  798SOL     OW 3318   1.090   3.625   1.504  0.0103  0.0278  0.0234
  798SOL    HW2 3319   1.160   3.576   1.547 -0.1815  0.4564  0.8299
  798SOL    HW3 3320   1.011   3.575   1.524 -0.0847  0.2526  0.2149
  798SOL    MW4 3321   1.089   3.612   1.512 -0.0275  0.1142  0.1550
  799SOL     OW 3322   1.109   3.874   1.612 -0.2076  0.0483  0.1089
  799SOL    HW2 3323   1.190   3.905   1.572 -0.4824 -0.1842 -0.6569
  799SOL    HW3 3324   1.095   3.787   1.573 -0.9830  0.2216 -0.0153
  799SOL    MW4 3325   1.118   3.866   1.601 -0.3461  0.0408 -0.0085
  800SOL     OW 3326   0.908   4.033   1.472  0.1070  0.1976 -0.3799
  800SOL    HW2 3327   0.911   4.122   1.508  0.6710  0.4169 -0.9421
  800SOL    HW3 3328   0.969   3.983   1.526 -0.4061  0.0968  0.0983
  800SOL    MW4 3329   0.917   4.038   1.484  0.1137  0.2136 -0.3910
  801SOL     OW 3330   0.918   4.288   1.600  0.2621 -0.6096 -0.4849
  801SOL    HW2 3331   0.903   4.289   1.694  1.0427  0.2033 -0.3689
  801SOL    HW3 3332   0.833   4.307   1.561 -0.7657 -3.9184 -0.0424
  801SOL    MW4 3333   0.905   4.291   1.607  0.2295 -0.9384 -0.4112
  802SOL     OW 3334   1.127   4.369   1.464 -0.1225 -0.3858 -0.2906
  802SOL    HW2 3335   1.051   4.348   1.518  1.8326 -1.1309  2.2789
  802SOL    HW3 3336   1.140   4.463   1.477 -0.4657 -0.3033 -0.5426
  802SOL    MW4 3337   1.119   4.378   1.473  0.0904 -0.4730  0.0151
  803SOL     OW 3338   1.570   0.015   1.556  0.1325  0.2236 -0.1784
  803SOL    HW2 3339   1.566   0.013   1.652  1.6549  0.7000 -0.0904
  803SOL    HW3 3340   1.499   0.074   1.531 -0.1525  0.2525  0.6637
  803SOL    MW4 3341   1.560   0.023   1.565  0.2956  0.2904 -0.0557
  804SOL     OW 3342   1.344   0.154   1.455  0.0232  0.6804  0.1754
  804SOL    HW2 3343   1.347   0.244   1.488  2.2493  1.3434 -1.6754
  804SOL    HW3 3344   1.335   0.164   1.360 -0.0918 -1.0578 -0.0104
  804SOL    MW4 3345   1.343   0.167   1.447  0.3017  0.5385 -0.0932
  805SOL     OW 3346   1.353   0.406   1.582 -0.1340 -0.3306  0.1571
  805SOL    HW2 3347   1.431   0.447   1.546  0.6464 -2.2594 -0.3810
  805SOL    HW3 3348   1.281   0.462   1.553  0.9042  0.6368 -0.5848
  805SOL    MW4 3349   1.354   0.419   1.574  0.1060 -0.4574 -0.0119
  806SOL     OW 3350   1.620   0.485   1.528  0.1129 -0.3142 -0.6536
  806SOL    HW2 3351   1.706   0.447   1.549  0.9425  1.7885 -0.0465
  806SOL    HW3 3352   1.622   0.496   1.433 -0.1147 -1.6833 -0.8310
  806SOL    MW4 3353   1.632   0.481   1.518  0.1923 -0.2174 -0.5969
  807SOL     OW 3354   1.551   0.743   1.619 -0.2973 -0.3599 -0.2543
  807SOL    HW2 3355   1.547   0.762   1.713 -1.7732 -1.1809 -0.1376
  807SOL    HW3 3356   1.591   0.656   1.614 -1.4300 -0.8858 -0.3024
  807SOL    MW4 3357   1.556   0.734   1.631 -0.6415 -0.5376 -0.2451
  808SOL     OW 3358   1.303   0.844   1.494  0.1583  0.3188  0.1059
  808SOL    HW2 3359   1.383   0.801   1.525  0.3156  0.8091  0.3874
  808SOL    HW3 3360   1.308   0.838   1.399 -0.1852 -0.9418  0.1509
  808SOL    MW4 3361   1.314   0.837   1.486  0.1338  0.2171  0.1488
  809SOL     OW 3362   1.334   1.145   1.579  0.1844  0.1379 -0.0928
  809SOL    HW2 3363   1.315   1.136   1.673  1.5389 -0.1769  0.1691
  809SOL    HW3 3364   1.341   1.055   1.548  0.0231  0.2427 -0.4271
  809SOL    MW4 3365   1.333   1.132   1.588  0.3419  0.1101 -0.1023
  810SOL     OW 3366   1.334   1.111   1.188  0.3884 -0.3008 -0.1765
  810SOL    HW2 3367   1.358   1.027   1.228  0.9327 -0.1299 -0.1389
  810SOL    HW3 3368   1.403   1.171   1.216 -1.0025  0.6342  1.3981
  810SOL    MW4 3369   1.346   1.108   1.197  0.2767 -0.1549  0.0362
  811SOL     OW 3370   1.565   1.289   1.513  0.0224  0.0667 -0.2459
  811SOL    HW2 3371   1.487   1.245   1.547  0.2478  0.3465  0.6379
  811SOL    HW3 3372   1.558   1.279   1.418 -1.2904  0.4248 -0.1950
  811SOL    MW4 3373   1.553   1.282   1.505 -0.1211  0.1508 -0.1225
  812SOL     OW 3374   1.806   1.732   1.215 -0.2727  0.3111 -0.2271
  812SOL    HW2 3375   1.877   1.682   1.176  0.1528  0.2255  0.6513
  812SOL    HW3 3376   1.804   1.813   1.164 -1.1030 -0.6657 -1.7857
  812SOL    MW4 3377   1.815   1.736   1.203 -0.3260  0.1708 -0.3169
  813SOL     OW 3378   1.341   1.935   1.558  0.1671  0.2186 -0.0147
  813SOL    HW2 3379   1.357   1.940   1.653  0.3026  0.9682 -0.0735
  813SOL    HW3 3380   1.422   1.968   1.519  0.2175 -0.3570 -0.4021
  813SOL    MW4 3381   1.354   1.940   1.566  0.1916  0.2414 -0.0736
  814SOL     OW 3382   1.375   1.692   1.165  0.1868 -0.2203 -0.4601
  814SOL    HW2 3383   1.367   1.703   1.259  0.6259  0.3586 -0.4881
  814SOL    HW3 3384   1.298   1.641   1.140 -0.7621  0.9837 -0.0202
  814SOL    MW4 3385   1.364   1.687   1.174  0.1196  0.0149 -0.4057
  815SOL     OW 3386   1.576   2.065   1.478 -0.2249 -0.8502  0.6002
  815SOL    HW2 3387   1.661   2.036   1.511 -0.8413 -1.4254  1.6962
  815SOL    HW3 3388   1.563   2.151   1.518 -0.5492 -1.1402  1.1201
  815SOL    MW4 3389   1.585   2.073   1.488 -0.3492 -0.9642  0.8134
  816SOL     OW 3390   1.342   2.477   1.468 -0.1549  0.3513 -0.3253
  816SOL    HW2 3391   1.359   2.484   1.374 -1.8702  2.1355 -0.5333
  816SOL    HW3 3392   1.353   2.566   1.502  1.4714 -0.4618  1.3708
  816SOL    MW4 3393   1.346   2.489   1.460 -0.1667  0.4792 -0.1291
  817SOL     OW 3394   1.339   2.735   1.553 -0.0791  0.1287  0.0128
  817SOL    HW2 3395   1.327   2.742   1.648  0.3002 -0.5053  0.1149
  817SOL    HW3 3396   1.263   2.779   1.515 -0.5262 -0.1287  0.6146
  817SOL    MW4 3397   1.327   2.742   1.560 -0.0880  0.0110  0.1056
  818SOL     OW 3398   2.026   2.826   1.512  0.3777 -0.0986  0.5720
  818SOL    HW2 3399   2.028   2.917   1.539  0.8336  0.2714 -0.6613
  818SOL    HW3 3400   2.113   2.792   1.530  0.6512  0.1201 -0.2980
  818SOL    MW4 3401   2.038   2.833   1.518  0.4740 -0.0210  0.2946
  819SOL     OW 3402   1.571   3.154   1.598  0.3302 -0.8214 -0.1116
  819SOL    HW2 3403   1.658   3.178   1.566 -0.3069 -0.1896 -1.4015
  819SOL    HW3 3404   1.558   3.064   1.567  0.1402 -0.5806 -0.7347
  819SOL    MW4 3405   1.581   3.145   1.590  0.2210 -0.7062 -0.3641
  820SOL     OW 3406   1.319   3.233   1.470 -0.0776  0.0619 -0.5716
  820SOL    HW2 3407   1.284   3.315   1.504 -0.4318 -0.7301  1.0280
  820SOL    HW3 3408   1.402   3.221   1.516 -0.0845 -0.5411 -0.7112
  820SOL    MW4 3409   1.326   3.242   1.481 -0.1253 -0.1218 -0.3791
  821SOL     OW 3410   1.283   3.480   1.599 -0.0976 -0.0113  0.3254
  821SOL    HW2 3411   1.302   3.477   1.693 -0.0601 -0.0894  0.3152
  821SOL    HW3 3412   1.358   3.527   1.562  1.1308 -2.1420  0.0166
  821SOL    MW4 3413   1.296   3.486   1.607  0.0693 -0.3026  0.2834
  822SOL     OW 3414   1.535   3.591   1.501 -0.9936 -0.0005  0.2110
  822SOL    HW2 3415   1.558   3.594   1.408  1.2770  0.0946  0.7260
  822SOL    HW3 3416   1.543   3.682   1.530 -2.0159  0.0193  0.4264
  822SOL    MW4 3417   1.539   3.603   1.492 -0.8287  0.0145  0.3074
  823SOL     OW 3418   1.561   3.856   1.542  0.2293  0.2283  0.0593
  823SOL    HW2 3419   1.553   3.853   1.637 -1.6975  0.3607 -0.0745
  823SOL    HW3 3420   1.477   3.892   1.512  0.5452 -0.4536 -1.7139
  823SOL    MW4 3421   1.548   3.860   1.551  0.0167  0.1559 -0.1923
  824SOL     OW 3422   1.324   3.984   1.470  0.6271 -0.2713  0.5092
  824SOL    HW2 3423   1.348   4.070   1.505  1.5397 -0.3273  0.0521
  824SOL    HW3 3424   1.307   4.001   1.377  0.9076 -0.5955  0.3970
  824SOL    MW4 3425   1.325   3.998   1.462  0.7846 -0.3214  0.4342
  825SOL     OW 3426   1.364   4.257   1.575 -0.1480 -0.0450 -0.3599
  825SOL    HW2 3427   1.439   4.300   1.533 -1.1588  2.2553  0.0966
  825SOL    HW3 3428   1.288   4.301   1.538 -1.2354 -1.3782  0.2480
  825SOL    MW4 3429   1.364   4.269   1.564 -0.4249  0.0825 -0.2196
  826SOL     OW 3430   1.560   4.427   1.461  0.0861 -0.1359  0.2182
  826SOL    HW2 3431   1.634   4.382   1.502 -0.1811 -0.7481  0.0375
  826SOL    HW3 3432   1.558   4.513   1.503  1.1061  0.0059 -0.0214
  826SOL    MW4 3433   1.569   4.433   1.472  0.1854 -0.1979  0.1627
  827SOL     OW 3434   2.029   4.618   1.562  0.0922 -0.1913 -0.1012
  827SOL    HW2 3435   2.037   4.638   1.655  0.7211 -0.3309 -0.1260
  827SOL    HW3 3436   1.964   4.680   1.529 -1.1087 -0.9977  0.7055
  827SOL    MW4 3437   2.021   4.629   1.570  0.0167 -0.3157  0.0020
  828SOL     OW 3438   1.830   0.116   1.488  0.3941 -0.3697  0.0299
  828SOL    HW2 3439   1.745   0.077   1.508 -0.8270  1.5597 -1.2401
  828SOL    HW3 3440   1.828   0.131   1.394  1.4166  1.3573  0.2634
  828SOL    MW4 3441   1.819   0.113   1.479  0.3679  0.1127 -0.1066
  829SOL     OW 3442   1.871   0.376   1.587  0.0997 -0.2230  0.1013
  829SOL    HW2 3443   1.940   0.410   1.529 -0.6157 -0.7076 -1.0318
  829SOL    HW3 3444   1.861   0.284   1.562 -1.5649  0.0631 -0.3242
  829SOL    MW4 3445   1.879   0.368   1.576 -0.2143 -0.2492 -0.1043
  830SOL     OW 3446   2.061   0.497   1.430  0.1813  0.1133  0.3924
  830SOL    HW2 3447   2.132   0.453   1.478 -1.3655 -0.5913  2.1108
  830SOL    HW3 3448   2.049   0.580   1.476 -0.5439 -0.0602  0.5224
  830SOL    MW4 3449   2.069   0.502   1.443 -0.1183 -0.0025  0.6363
  831SOL     OW 3450   2.001   0.723   1.587 -0.2940 -0.2954 -0.3280
  831SOL    HW2 3451   2.056   0.795   1.558  1.4521 -1.3360  0.3397
  831SOL    HW3 3452   1.917   0.739   1.545  0.6537  1.0515 -1.7584
  831SOL    MW4 3453   1.997   0.734   1.578  0.0614 -0.2549 -0.4287
  832SOL     OW 3454   1.757   0.892   1.495  0.2417  0.0231  0.1726
  832SOL    HW2 3455   1.762   0.978   1.536 -0.2039 -0.2858  0.8941
  832SOL    HW3 3456   1.682   0.850   1.537 -0.1376 -0.3572 -0.8618
  832SOL    MW4 3457   1.747   0.897   1.506  0.1328 -0.0679  0.1314
  833SOL     OW 3458   1.808   1.148   1.585  0.0028  0.3349  0.1255
  833SOL    HW2 3459   1.886   1.192   1.550  0.4438 -0.0867  0.5724
  833SOL    HW3 3460   1.735   1.202   1.556  0.5141  1.1373  0.3206
  833SOL    MW4 3461   1.809   1.161   1.576  0.1285  0.3850  0.2102
  834SOL     OW 3462   2.036   1.309   1.467  0.2773 -0.4759 -0.2127
  834SOL    HW2 3463   2.014   1.391   1.510  0.6047 -0.7387  0.4532
  834SOL    HW3 3464   2.025   1.328   1.373 -0.2042  0.1557 -0.0335
  834SOL    MW4 3465   2.032   1.323   1.460  0.2568 -0.4272 -0.1012
  835SOL     OW 3466   2.005   1.575   1.606 -0.0689 -0.3507  0.0400
  835SOL    HW2 3467   1.927   1.618   1.572  0.1188  0.2803  0.3895
  835SOL    HW3 3468   2.009   1.601   1.698  1.1322  0.4958 -0.2333
  835SOL    MW4 3469   1.995   1.584   1.613  0.1143 -0.1559  0.0501
  836SOL     OW 3470   1.553   1.567   1.596  0.2627  0.3214  0.0902
  836SOL    HW2 3471   1.565   1.564   1.691  0.6518  0.1004  0.0365
  836SOL    HW3 3472   1.553   1.475   1.570 -0.1748  0.3712 -0.0839
  836SOL    MW4 3473   1.555   1.554   1.605  0.2563  0.2987  0.0603
  837SOL     OW 3474   1.810   1.918   1.854 -0.5510  0.1489  0.0468
  837SOL    HW2 3475   1.725   1.954   1.878 -1.2875 -1.8208  0.4769
  837SOL    HW3 3476   1.808   1.828   1.886  1.7265  0.0961  0.1157
  837SOL    MW4 3477   1.799   1.911   1.861 -0.3476 -0.1180  0.1127
  838SOL     OW 3478   2.064   2.048   1.486 -0.0633 -0.3192 -0.0692
  838SOL    HW2 3479   2.137   2.012   1.536 -0.0787 -0.1592  0.0660
  838SOL    HW3 3480   1.989   1.993   1.510 -0.2361  0.2361  0.6588
  838SOL    MW4 3481   2.064   2.036   1.496 -0.0882 -0.2248  0.0448
  839SOL     OW 3482   2.045   2.316   1.562  0.1654 -0.0585 -0.1484
  839SOL    HW2 3483   2.026   2.312   1.656  0.0605  1.1943 -0.1121
  839SOL    HW3 3484   2.044   2.224   1.534  0.9268 -0.5043  1.2085
  839SOL    MW4 3485   2.042   2.303   1.571  0.2520  0.0482  0.0354
  840SOL     OW 3486   1.758   2.099   0.402  0.1027  0.0468  0.2090
  840SOL    HW2 3487   1.728   2.102   0.493  0.2860 -1.7982  0.3670
  840SOL    HW3 3488   1.850   2.123   0.407  0.2608 -0.6051  0.6146
  840SOL    MW4 3489   1.766   2.102   0.415  0.1478 -0.2825  0.2833
  841SOL     OW 3490   1.784   2.693   1.574  0.1104  0.1696 -0.0312
  841SOL    HW2 3491   1.873   2.724   1.558 -0.3801  0.8190 -1.5970
  841SOL    HW3 3492   1.789   2.599   1.557  0.8976 -0.1265  1.7055
  841SOL    MW4 3493   1.797   2.684   1.570  0.1496  0.2162 -0.0085
  842SOL     OW 3494   2.045   2.822   1.239  0.3106 -0.0909 -0.0441
  842SOL    HW2 3495   2.060   2.821   1.334  0.5978  1.2551 -0.0659
  842SOL    HW3 3496   1.962   2.778   1.227  0.2104 -0.1496  0.8535
  842SOL    MW4 3497   2.036   2.816   1.250  0.3357  0.0789  0.0715
  843SOL     OW 3498   2.019   3.089   1.575  0.7659 -0.8815  0.1311
  843SOL    HW2 3499   2.017   3.106   1.669 -0.9980  1.0028 -0.2309
  843SOL    HW3 3500   2.104   3.122   1.546  0.5082  0.3055  0.7341
  843SOL    MW4 3501   2.030   3.096   1.583  0.4992 -0.4764  0.1630
  844SOL     OW 3502   1.822   3.231   1.450  0.3886  0.0069  0.2596
  844SOL    HW2 3503   1.809   3.319   1.484 -0.4423 -0.0696  0.1586
  844SOL    HW3 3504   1.892   3.195   1.503  0.4235  0.5740  0.6006
  844SOL    MW4 3505   1.829   3.238   1.461  0.2834  0.0715  0.2912
  845SOL     OW 3506   1.775   3.478   1.570 -0.0783  0.4670 -0.0504
  845SOL    HW2 3507   1.784   3.493   1.665  0.6451  2.0202 -0.3524
  845SOL    HW3 3508   1.687   3.508   1.549 -0.7624 -1.1845  0.3551
  845SOL    MW4 3509   1.765   3.484   1.580 -0.0731  0.4537 -0.0367
  846SOL     OW 3510   2.035   3.952   1.600 -0.3388  0.0852  0.3682
  846SOL    HW2 3511   2.111   4.003   1.573 -0.9469  1.0455  0.4854
  846SOL    HW3 3512   2.056   3.863   1.571  0.6832  0.3994  0.1013
  846SOL    MW4 3513   2.048   3.947   1.593 -0.2840  0.2532  0.3486
  847SOL     OW 3514   1.775   4.027   1.495 -0.1190 -0.0423  0.0846
  847SOL    HW2 3515   1.856   4.002   1.539 -0.2015  0.0212  0.2693
  847SOL    HW3 3516   1.713   3.958   1.517  0.5156 -1.2822 -1.8671
  847SOL    MW4 3517   1.778   4.015   1.503 -0.0461 -0.1974 -0.1487
  848SOL     OW 3518   1.813   4.025   1.222  0.0060  0.0022 -0.2998
  848SOL    HW2 3519   1.821   4.024   1.317 -0.0048  1.6452 -0.2635
  848SOL    HW3 3520   1.734   3.974   1.204  0.4667 -1.0013  0.5167
  848SOL    MW4 3521   1.804   4.018   1.232  0.0654  0.0863 -0.1872
  849SOL     OW 3522   1.778   4.290   1.579  0.5757  0.1012 -0.3035
  849SOL    HW2 3523   1.865   4.315   1.550  0.8945 -0.8586 -0.1972
  849SOL    HW3 3524   1.767   4.200   1.549 -0.2288  0.0838  0.0102
  849SOL    MW4 3525   1.788   4.282   1.571  0.5116 -0.0277 -0.2481
  850SOL     OW 3526   2.025   4.364   1.472 -0.1432  0.0594 -0.0987
  850SOL    HW2 3527   2.115   4.338   1.491 -0.3269 -1.1143 -0.7781
  850SOL    HW3 3528   2.019   4.455   1.502  0.9847 -0.1649  0.8238
  850SOL    MW4 3529   2.036   4.372   1.478 -0.0186 -0.1245 -0.0666
  851SOL     OW 3530   2.467   4.639   1.561 -0.2908 -0.3305  0.3875
  851SOL    HW2 3531   2.466   4.652   1.656 -1.1151 -0.5064  0.4038
  851SOL    HW3 3532   2.405   4.703   1.527 -0.0068 -0.2765 -0.0363
  851SOL    MW4 3533   2.459   4.649   1.569 -0.3622 -0.3462  0.3337
  852SOL     OW 3534   2.246   0.123   1.485  0.0919  0.4518 -0.3745
  852SOL    HW2 3535   2.177   0.059   1.506 -0.3840  1.0529 -0.0938
  852SOL    HW3 3536   2.255   0.117   1.390  1.0646 -1.0665 -0.2014
  852SOL    MW4 3537   2.238   0.114   1.475  0.1574  0.3308 -0.3145
  853SOL     OW 3538   2.256   0.401   1.595 -0.0317  0.0277 -0.2625
  853SOL    HW2 3539   2.257   0.404   1.691  1.1594 -0.9208 -0.2174
  853SOL    HW3 3540   2.268   0.308   1.575 -0.9430  0.1400 -1.3275
  853SOL    MW4 3541   2.258   0.389   1.605  0.0052 -0.0826 -0.3971
  854SOL     OW 3542   2.463   0.504   1.450  0.0799 -0.1503  0.0031
  854SOL    HW2 3543   2.540   0.456   1.480 -0.7276 -1.2814  0.2849
  854SOL    HW3 3544   2.390   0.464   1.497 -0.9546 -0.5846 -1.9355
  854SOL    MW4 3545   2.464   0.493   1.460 -0.1631 -0.3568 -0.2155
  855SOL     OW 3546   2.436   0.759   1.603  0.2716  0.4060  0.0696
  855SOL    HW2 3547   2.351   0.797   1.581  0.3462  1.4138  1.4318
  855SOL    HW3 3548   2.439   0.677   1.555 -1.5615  0.2662  0.1709
  855SOL    MW4 3549   2.425   0.754   1.594  0.0393  0.5206  0.2627
  856SOL     OW 3550   2.209   0.892   1.478  0.1563  0.8197 -0.2851
  856SOL    HW2 3551   2.231   0.982   1.502 -0.5304  1.3506 -1.6036
  856SOL    HW3 3552   2.182   0.897   1.387  0.3613 -0.7728 -0.4541
  856SOL    MW4 3553   2.208   0.904   1.470  0.0925  0.6797 -0.4814
  857SOL     OW 3554   2.246   1.157   1.584  0.3289 -0.0968 -0.2124
  857SOL    HW2 3555   2.226   1.179   1.675  2.1842  0.0154  0.1916
  857SOL    HW3 3556   2.191   1.216   1.532 -0.2502  0.2948  0.8264
  857SOL    MW4 3557   2.236   1.168   1.589  0.4973 -0.0303 -0.0219
  858SOL     OW 3558   2.474   1.289   1.511  0.0870 -0.1319 -0.4331
  858SOL    HW2 3559   2.401   1.232   1.534 -0.4309  0.2263 -1.1616
  858SOL    HW3 3560   2.468   1.298   1.416  0.0799  1.2645 -0.3050
  858SOL    MW4 3561   2.464   1.283   1.501  0.0174  0.0995 -0.5122
  859SOL     OW 3562   2.455   1.539   1.586  0.3847 -0.0252 -0.8220
  859SOL    HW2 3563   2.543   1.576   1.582  0.5367 -0.5208 -2.3965
  859SOL    HW3 3564   2.467   1.446   1.567 -0.2890 -0.4108  0.5690
  859SOL    MW4 3565   2.468   1.532   1.583  0.3157 -0.1415 -0.8463
  860SOL     OW 3566   2.247   1.705   1.484  0.6973 -0.4016  0.0457
  860SOL    HW2 3567   2.325   1.658   1.513  0.7559  1.2074  2.6572
  860SOL    HW3 3568   2.174   1.649   1.509  0.9284 -1.0954 -0.8149
  860SOL    MW4 3569   2.248   1.692   1.491  0.7355 -0.2809  0.2767
  861SOL     OW 3570   2.311   1.980   1.616  0.6909  0.4355  0.0677
  861SOL    HW2 3571   2.316   1.889   1.585  0.0675  0.0680  1.0122
  861SOL    HW3 3572   2.306   1.972   1.711 -0.1133  1.4305  0.1164
  861SOL    MW4 3573   2.311   1.967   1.624  0.5026  0.5184  0.1986
  862SOL     OW 3574   2.525   2.064   1.447  0.1592  0.4384  0.2016
  862SOL    HW2 3575   2.443   2.035   1.487  0.4519  1.1465  1.3433
  862SOL    HW3 3576   2.519   2.035   1.356 -2.0817  1.9054 -0.1634
  862SOL    MW4 3577   2.513   2.056   1.440 -0.0978  0.7255  0.3041
  863SOL     OW 3578   2.535   2.332   1.559 -0.3583  0.1743 -0.1608
  863SOL    HW2 3579   2.513   2.339   1.652 -0.7523  1.0998 -0.3211
  863SOL    HW3 3580   2.533   2.238   1.541  3.4190 -0.3738  1.6734
  863SOL    MW4 3581   2.532   2.320   1.569  0.0882  0.2241  0.0601
  864SOL     OW 3582   2.280   2.456   1.491  0.0656  0.0651  0.1292
  864SOL    HW2 3583   2.357   2.402   1.508  0.3673  0.7353  0.9426
  864SOL    HW3 3584   2.207   2.406   1.529 -0.0057 -0.8922 -1.2557
  864SOL    MW4 3585   2.281   2.442   1.499  0.0961  0.0272  0.0538
  865SOL     OW 3586   2.278   2.734   1.571 -0.8930  0.1172 -0.0255
  865SOL    HW2 3587   2.289   2.642   1.545  0.4910  0.3276 -0.2222
  865SOL    HW3 3588   2.281   2.732   1.667 -0.3625  0.0028 -0.0399
  865SOL    MW4 3589   2.280   2.721   1.580 -0.6402  0.1299 -0.0532
  866SOL     OW 3590   2.491   2.911   1.496  0.2101  0.2924  0.3745
  866SOL    HW2 3591   2.503   2.978   1.564  0.6484  1.3073 -0.6749
  866SOL    HW3 3592   2.405   2.874   1.514  0.5650  0.1456  1.8309
  866SOL    MW4 3593   2.481   2.915   1.508  0.3147  0.4065  0.4282
  867SOL     OW 3594   2.482   3.137   1.645 -0.3369 -0.3906 -0.0804
  867SOL    HW2 3595   2.556   3.160   1.588  0.2338  2.3876  1.6886
  867SOL    HW3 3596   2.405   3.161   1.594  0.0866 -0.2757 -0.6755
  867SOL    MW4 3597   2.482   3.143   1.631 -0.2058 -0.0093  0.0744
  868SOL     OW 3598   2.251   3.201   1.496 -0.5278  0.3190  0.3041
  868SOL    HW2 3599   2.234   3.294   1.511  1.3569  0.7097  0.0420
  868SOL    HW3 3600   2.266   3.194   1.402 -0.7441 -0.2741  0.3113
  868SOL    MW4 3601   2.251   3.212   1.486 -0.3078  0.2923  0.2705
  869SOL     OW 3602   2.232   3.464   1.577  0.0744  0.5891  0.3225
  869SOL    HW2 3603   2.241   3.464   1.672  0.9769 -0.7394  0.2491
  869SOL    HW3 3604   2.316   3.497   1.545  0.7091 -1.3466 -0.0677
  869SOL    MW4 3605   2.244   3.469   1.585  0.2770  0.1585  0.2613
  870SOL     OW 3606   2.460   3.556   1.468 -0.0054  0.1168  0.0679
  870SOL    HW2 3607   2.542   3.523   1.504 -0.1628  1.9582  2.2556
  870SOL    HW3 3608   2.470   3.651   1.469 -1.9031  0.3506 -0.2918
  870SOL    MW4 3609   2.472   3.564   1.473 -0.2766  0.3910  0.3091
  871SOL     OW 3610   2.453   3.837   1.539  0.2671 -0.1141 -0.3784
  871SOL    HW2 3611   2.453   3.838   1.634  2.0163 -1.1828 -0.3409
  871SOL    HW3 3612   2.530   3.889   1.514 -0.2855  0.3182 -1.2047
  871SOL    MW4 3613   2.463   3.844   1.548  0.4253 -0.1976 -0.4824
  872SOL     OW 3614   2.280   4.042   1.460 -0.0128  0.0532 -0.2902
  872SOL    HW2 3615   2.341   3.974   1.488  0.2184  0.3515 -0.0772
  872SOL    HW3 3616   2.269   4.026   1.366 -0.6188 -0.8045 -0.0783
  872SOL    MW4 3617   2.286   4.031   1.451 -0.0620 -0.0205 -0.2340
  873SOL     OW 3618   2.288   4.278   1.581 -0.2264  0.2523  0.4497
  873SOL    HW2 3619   2.355   4.314   1.524 -1.3126  0.1802 -0.9134
  873SOL    HW3 3620   2.285   4.185   1.558 -1.1296  0.3532  0.1328
  873SOL    MW4 3621   2.296   4.270   1.571 -0.4890  0.2561  0.2282
  874SOL     OW 3622   2.486   4.399   1.444  0.4785  0.4800  0.2431
  874SOL    HW2 3623   2.472   4.483   1.488 -2.4940  0.3775 -0.4526
  874SOL    HW3 3624   2.471   4.417   1.351  1.7979 -0.4095 -0.1625
  874SOL    MW4 3625   2.482   4.412   1.438  0.2604  0.3500  0.0978
  875SOL     OW 3626   2.920   4.623   1.556 -0.4714  0.1412 -0.4001
  875SOL    HW2 3627   2.918   4.634   1.651  0.3768 -0.1800 -0.3408
  875SOL    HW3 3628   2.843   4.671   1.525  0.1077  1.5773  0.3165
  875SOL    MW4 3629   2.910   4.631   1.565 -0.2832  0.2890 -0.2978
  876SOL     OW 3630   2.696   0.106   1.467 -0.0828  0.0596 -0.0169
  876SOL    HW2 3631   2.681   0.197   1.492 -0.5493  0.3392 -1.2781
  876SOL    HW3 3632   2.620   0.059   1.500 -0.0055  0.1834  0.3408
  876SOL    MW4 3633   2.684   0.112   1.475 -0.1342  0.1128 -0.1361
  877SOL     OW 3634   2.691   0.362   1.551  0.4610  0.1859 -0.3517
  877SOL    HW2 3635   2.684   0.384   1.644 -0.0987  0.0326 -0.3572
  877SOL    HW3 3636   2.769   0.410   1.521 -0.0418  1.1915 -0.0819
  877SOL    MW4 3637   2.701   0.372   1.559  0.3209  0.2983 -0.3167
  878SOL     OW 3638   2.918   0.511   1.457  0.2061 -0.4535 -0.4109
  878SOL    HW2 3639   2.907   0.590   1.510 -0.6731 -1.5176  1.0023
  878SOL    HW3 3640   2.994   0.467   1.495 -1.4238 -2.0588  1.0528
  878SOL    MW4 3641   2.927   0.516   1.469 -0.1249 -0.8056 -0.0314
  879SOL     OW 3642   2.889   0.758   1.598  0.3486  0.2573 -0.1430
  879SOL    HW2 3643   2.897   0.748   1.693  0.1417  0.6552 -0.0835
  879SOL    HW3 3644   2.810   0.810   1.586  0.0762 -0.2467 -0.5606
  879SOL    MW4 3645   2.880   0.763   1.609  0.2854  0.2433 -0.1903
  880SOL     OW 3646   2.657   0.912   1.533  0.1901 -0.2469 -0.3744
  880SOL    HW2 3647   2.571   0.877   1.556  0.0606 -0.1214 -0.6705
  880SOL    HW3 3648   2.667   0.893   1.440  1.7376 -2.8949  0.2892
  880SOL    MW4 3649   2.647   0.905   1.524  0.3772 -0.5798 -0.3260
  881SOL     OW 3650   2.726   1.167   1.595  0.0426 -0.1942  0.2473
  881SOL    HW2 3651   2.691   1.082   1.570  1.5320 -1.4306  2.2651
  881SOL    HW3 3652   2.652   1.228   1.584 -1.1111 -1.7676 -0.8985
  881SOL    MW4 3653   2.712   1.164   1.590  0.0870 -0.5648  0.3622
  882SOL     OW 3654   2.959   1.286   1.496 -0.2492 -0.2893  0.6260
  882SOL    HW2 3655   3.030   1.234   1.535 -0.8881 -0.0339  2.1284
  882SOL    HW3 3656   2.880   1.234   1.511 -0.5914  0.1222  0.2496
  882SOL    MW4 3657   2.958   1.272   1.503 -0.3788 -0.2012  0.7745
  883SOL     OW 3658   2.944   1.526   1.627 -0.3726 -0.0701  0.1666
  883SOL    HW2 3659   2.881   1.583   1.581  0.6981  0.0928 -1.1090
  883SOL    HW3 3660   2.942   1.444   1.578  0.0135 -0.2473  0.4526
  883SOL    MW4 3661   2.935   1.523   1.614 -0.1805 -0.0721  0.0361
  884SOL     OW 3662   2.726   1.645   1.504  0.0501  0.1826  0.3331
  884SOL    HW2 3663   2.720   1.734   1.540 -1.7900  0.5048 -0.7073
  884SOL    HW3 3664   2.742   1.658   1.411 -0.7922 -0.5706  0.0758
  884SOL    MW4 3665   2.727   1.659   1.497 -0.3037  0.1258  0.1618
  885SOL     OW 3666   2.715   1.909   1.609 -0.3837  0.0582 -0.3113
  885SOL    HW2 3667   2.705   1.923   1.703 -1.0120 -0.9148 -0.2260
  885SOL    HW3 3668   2.654   1.970   1.568 -0.1408  0.4507 -0.0866
  885SOL    MW4 3669   2.706   1.919   1.616 -0.4346 -0.0185 -0.2705
  886SOL     OW 3670   2.932   2.035   1.477  0.3063  0.6223  0.0776
  886SOL    HW2 3671   2.938   2.120   1.520  0.4230 -0.6555  2.6759
  886SOL    HW3 3672   2.853   1.995   1.512  0.2328 -0.3383 -1.1398
  886SOL    MW4 3673   2.923   2.041   1.487  0.3119  0.3269  0.2598
  887SOL     OW 3674   2.933   2.295   1.574  0.6046  0.3769  0.0883
  887SOL    HW2 3675   2.936   2.320   1.666 -0.2697 -0.5868  0.3879
  887SOL    HW3 3676   2.864   2.350   1.536 -0.1072 -0.3307  0.3556
  887SOL    MW4 3677   2.924   2.306   1.581  0.3951  0.1564  0.1632
  888SOL     OW 3678   2.752   2.478   1.450 -0.3606 -0.0481 -0.6533
  888SOL    HW2 3679   2.768   2.562   1.493 -0.5676  0.5190 -1.6644
  888SOL    HW3 3680   2.671   2.447   1.489  0.6566 -0.6436  1.0206
  888SOL    MW4 3681   2.743   2.485   1.461 -0.2539 -0.0520 -0.5659
  889SOL     OW 3682   2.694   2.722   1.605 -0.1532 -0.5577 -0.0193
  889SOL    HW2 3683   2.777   2.755   1.571  0.0883 -0.9601  0.1798
  889SOL    HW3 3684   2.629   2.788   1.578  0.2083 -0.3086 -0.2835
  889SOL    MW4 3685   2.696   2.735   1.597 -0.0737 -0.5779 -0.0278
  890SOL     OW 3686   2.921   2.834   1.515  0.0957  0.4215  0.3387
  890SOL    HW2 3687   3.002   2.796   1.549 -0.0393 -0.5860 -0.4354
  890SOL    HW3 3688   2.920   2.923   1.550  0.9994  0.0985  1.2368
  890SOL    MW4 3689   2.932   2.841   1.524  0.1972  0.2460  0.3550
  891SOL     OW 3690   2.867   3.088   1.603  0.2169 -0.6038 -0.0944
  891SOL    HW2 3691   2.862   3.079   1.698  1.3958 -1.1577 -0.0829
  891SOL    HW3 3692   2.946   3.140   1.587 -0.5993  0.4756 -0.7205
  891SOL    MW4 3693   2.877   3.094   1.613  0.2649 -0.5345 -0.1755
  892SOL     OW 3694   2.676   3.235   1.463  0.1813 -0.0694  0.5192
  892SOL    HW2 3695   2.741   3.177   1.502  0.1039 -0.4931  0.0157
  892SOL    HW3 3696   2.707   3.248   1.374  0.9483  1.7645  1.0219
  892SOL    MW4 3697   2.689   3.229   1.457  0.2725  0.1166  0.5189
  893SOL     OW 3698   2.710   3.493   1.580 -0.3377  0.3197  0.0515
  893SOL    HW2 3699   2.718   3.481   1.675  0.5247 -1.2864 -0.2248
  893SOL    HW3 3700   2.716   3.405   1.544 -1.6922  0.8182 -1.4344
  893SOL    MW4 3701   2.711   3.480   1.588 -0.4025  0.1738 -0.1812
  894SOL     OW 3702   2.928   3.641   1.519  0.1363  0.3555  0.6338
  894SOL    HW2 3703   2.846   3.597   1.541  0.0507  0.1118 -0.1401
  894SOL    HW3 3704   2.924   3.653   1.424  0.7184  0.9037  0.6725
  894SOL    MW4 3705   2.917   3.637   1.509  0.2019  0.3958  0.5369
  895SOL     OW 3706   2.893   3.910   1.611 -0.0447 -0.1835  0.2020
  895SOL    HW2 3707   2.807   3.931   1.574 -1.4029 -0.2656  3.2126
  895SOL    HW3 3708   2.905   3.817   1.591 -0.5178 -0.1145 -0.4512
  895SOL    MW4 3709   2.883   3.900   1.603 -0.2863 -0.1850  0.5131
  896SOL     OW 3710   2.672   3.978   1.460 -0.2914  0.4251  0.3763
  896SOL    HW2 3711   2.673   4.066   1.499 -2.0860  0.9116 -0.6201
  896SOL    HW3 3712   2.664   3.994   1.366 -1.3750 -0.7933  0.2490
  896SOL    MW4 3713   2.671   3.992   1.453 -0.6709  0.3285  0.2280
  897SOL     OW 3714   2.694   4.252   1.558 -0.2513  0.4573 -0.1529
  897SOL    HW2 3715   2.765   4.308   1.527 -0.0373 -0.0128 -0.5190
  897SOL    HW3 3716   2.619   4.277   1.504  0.0759 -0.2339 -0.9572
  897SOL    MW4 3717   2.693   4.262   1.547 -0.1800  0.3037 -0.3072
  898SOL     OW 3718   2.938   4.362   1.470  0.2038  0.2109 -0.4665
  898SOL    HW2 3719   2.953   4.446   1.513  1.5819  0.5349 -1.5357
  898SOL    HW3 3720   2.929   4.384   1.377  1.3233 -0.8997 -0.8491
  898SOL    MW4 3721   2.939   4.376   1.463  0.5336  0.1068 -0.6582
  899SOL     OW 3722   3.369   0.011   1.599  0.1731 -0.1213  0.0368
  899SOL    HW2 3723   3.447   0.059   1.570  0.0595  0.9072  1.3855
  899SOL    HW3 3724   3.389  -0.081   1.580  1.4662  0.1973 -0.1946
  899SOL    MW4 3725   3.382   0.005   1.592  0.3288  0.0563  0.1843
  900SOL     OW 3726   3.139   0.104   1.472  0.2065 -0.3817 -0.2022
  900SOL    HW2 3727   3.211   0.056   1.512 -0.2613  0.2014  1.3898
  900SOL    HW3 3728   3.061   0.052   1.492 -0.1038  0.2154  0.1733
  900SOL    MW4 3729   3.138   0.091   1.480  0.1040 -0.2260  0.0573
  901SOL     OW 3730   3.139   0.375   1.563  0.4212 -0.4575 -0.2091
  901SOL    HW2 3731   3.136   0.284   1.536  0.6717 -0.1535 -1.2717
  901SOL    HW3 3732   3.144   0.371   1.659 -0.4746 -1.5321 -0.1895
  901SOL    MW4 3733   3.139   0.363   1.572  0.3359 -0.5592 -0.3468
  902SOL     OW 3734   3.346   0.534   1.472 -0.2105  0.1898  0.0738
  902SOL    HW2 3735   3.273   0.481   1.503  0.6945  0.1087  2.1525
  902SOL    HW3 3736   3.339   0.531   1.377 -2.5425 -0.3186  0.2180
  902SOL    MW4 3737   3.335   0.527   1.464 -0.3986  0.1120  0.3672
  903SOL     OW 3738   3.370   0.780   1.597 -0.0325 -0.2690  0.4046
  903SOL    HW2 3739   3.363   0.760   1.690 -1.2037 -1.1210  0.1366
  903SOL    HW3 3740   3.365   0.696   1.553 -1.1715  0.2607 -0.5187
  903SOL    MW4 3741   3.369   0.767   1.604 -0.3371 -0.3115  0.2474
  904SOL     OW 3742   3.133   0.896   1.495 -0.2362  0.6475 -0.1930
  904SOL    HW2 3743   3.212   0.854   1.526  0.9449  2.4715 -0.6259
  904SOL    HW3 3744   3.062   0.838   1.522  1.1351 -0.3235  1.3919
  904SOL    MW4 3745   3.134   0.883   1.503  0.1004  0.7600 -0.0411
  905SOL     OW 3746   3.159   1.152   1.610 -0.5395 -0.0943  0.2007
  905SOL    HW2 3747   3.136   1.143   1.702 -3.0572 -0.7661 -0.4579
  905SOL    HW3 3748   3.177   1.063   1.580  2.3729  0.3306  0.5088
  905SOL    MW4 3749   3.159   1.139   1.618 -0.4876 -0.1268  0.1544
  906SOL     OW 3750   3.379   1.306   1.528 -0.5766  0.1256 -0.1641
  906SOL    HW2 3751   3.442   1.249   1.571 -1.0499 -0.4050 -0.1834
  906SOL    HW3 3752   3.294   1.273   1.553 -0.8583  1.0619  0.1467
  906SOL    MW4 3753   3.376   1.294   1.537 -0.6764  0.1792 -0.1256
  907SOL     OW 3754   3.399   1.572   1.611  0.0037  0.3609 -0.0595
  907SOL    HW2 3755   3.374   1.572   1.704  0.4188  0.1809  0.0491
  907SOL    HW3 3756   3.396   1.480   1.585 -0.7771  0.4788 -0.4034
  907SOL    MW4 3757   3.395   1.560   1.620 -0.0443  0.3527 -0.0905
  908SOL     OW 3758   3.168   1.682   1.518 -0.1994  0.5950  0.0229
  908SOL    HW2 3759   3.247   1.637   1.549 -1.2870 -1.1459  0.3428
  908SOL    HW3 3760   3.096   1.631   1.554 -1.4912  0.3662 -2.7812
  908SOL    MW4 3761   3.169   1.670   1.527 -0.5136  0.3351 -0.3048
  909SOL     OW 3762   3.151   1.950   1.595 -0.0365 -0.1345 -0.5832
  909SOL    HW2 3763   3.074   1.988   1.553 -1.0612 -0.6361  0.7867
  909SOL    HW3 3764   3.150   1.858   1.568  0.6326  0.0792 -1.3401
  909SOL    MW4 3765   3.140   1.943   1.586 -0.0832 -0.1724 -0.5025
  910SOL     OW 3766   3.383   2.048   1.485  0.2508 -0.4681  0.4532
  910SOL    HW2 3767   3.371   2.141   1.507 -0.9932 -0.4017 -0.4531
  910SOL    HW3 3768   3.306   2.005   1.522  1.0618 -1.2220  1.2840
  910SOL    MW4 3769   3.371   2.055   1.493  0.1938 -0.5591  0.4433
  911SOL     OW 3770   3.362   2.299   1.578  0.1519 -0.5406  0.3030
  911SOL    HW2 3771   3.444   2.344   1.558  0.8758 -2.0163 -0.1173
  911SOL    HW3 3772   3.363   2.288   1.674  0.3457 -0.3723  0.3190
  911SOL    MW4 3773   3.373   2.303   1.588  0.2728 -0.7131  0.2496
  912SOL     OW 3774   3.150   2.461   1.469  0.3334  0.6587  0.3896
  912SOL    HW2 3775   3.228   2.411   1.492  0.7763  1.1382 -0.0476
  912SOL    HW3 3776   3.077   2.400   1.482  0.9525 -0.5023 -1.3082
  912SOL    MW4 3777   3.151   2.446   1.474  0.4735  0.5686  0.1079
  913SOL     OW 3778   3.130   2.690   1.609  0.1177 -0.0223 -0.1184
  913SOL    HW2 3779   3.215   2.727   1.584 -0.9673  1.3190 -2.0150
  913SOL    HW3 3780   3.128   2.604   1.568  1.0437 -0.5667  0.9589
  913SOL    MW4 3781   3.141   2.684   1.600  0.0966  0.0832 -0.2265
  914SOL     OW 3782   3.354   2.852   1.534 -0.2406  0.5286  0.4074
  914SOL    HW2 3783   3.346   2.937   1.578  0.3478  0.5805  0.4204
  914SOL    HW3 3784   3.378   2.874   1.444 -1.1525  0.4105  0.1279
  914SOL    MW4 3785   3.356   2.866   1.528 -0.2828  0.5198  0.3723
  915SOL     OW 3786   3.350   3.128   1.635  0.0449 -0.2656 -0.1580
  915SOL    HW2 3787   3.348   3.121   1.731 -1.2474 -1.3131 -0.2439
  915SOL    HW3 3788   3.437   3.163   1.616  0.1883  0.2953  1.4167
  915SOL    MW4 3789   3.361   3.131   1.645 -0.1068 -0.3297  0.0383
  916SOL     OW 3790   3.080   3.251   1.553  1.0407 -0.0914 -0.4623
  916SOL    HW2 3791   3.166   3.225   1.584  0.8639 -1.1465 -0.8533
  916SOL    HW3 3792   3.094   3.276   1.462  1.1683  1.0088 -0.1542
  916SOL    MW4 3793   3.093   3.251   1.545  1.0343 -0.0854 -0.4733
  917SOL     OW 3794   3.151   3.521   1.599 -0.0958 -0.3344  0.0959
  917SOL    HW2 3795   3.139   3.426   1.593 -1.3790 -0.1558 -0.3432
  917SOL    HW3 3796   3.071   3.558   1.561  0.3889  0.9247  0.2666
  917SOL    MW4 3797   3.139   3.513   1.593 -0.2012 -0.1447  0.0604
  918SOL     OW 3798   3.387   3.599   1.468 -0.1035 -0.1668  0.1972
  918SOL    HW2 3799   3.453   3.556   1.523 -0.7752 -2.2694 -0.6005
  918SOL    HW3 3800   3.303   3.579   1.510 -0.3044  2.4346  1.1642
  918SOL    MW4 3801   3.385   3.591   1.481 -0.2186 -0.1009  0.2195
  919SOL     OW 3802   3.381   3.875   1.552 -0.3622  0.0234 -0.0473
  919SOL    HW2 3803   3.299   3.910   1.517  0.3752  0.3786 -1.4192
  919SOL    HW3 3804   3.391   3.790   1.510  0.7975  0.6802 -1.1225
  919SOL    MW4 3805   3.371   3.868   1.542 -0.1118  0.1571 -0.3701
  920SOL     OW 3806   3.124   3.999   1.484 -0.0607 -0.0115  0.2706
  920SOL    HW2 3807   3.147   4.086   1.518  0.6556 -0.2961  0.5314
  920SOL    HW3 3808   3.044   3.975   1.530 -1.4412  1.3930 -1.3164
  920SOL    MW4 3809   3.117   4.008   1.495 -0.1485  0.1364  0.0957
  921SOL     OW 3810   3.180   4.267   1.562  0.3968  0.3809  0.5471
  921SOL    HW2 3811   3.160   4.271   1.655  0.3093  2.1726  0.4709
  921SOL    HW3 3812   3.097   4.285   1.518  0.3926 -0.6585  0.1111
  921SOL    MW4 3813   3.167   4.270   1.568  0.3850  0.4807  0.4796
  922SOL     OW 3814   3.397   4.413   1.469  0.1809  0.4118  0.2861
  922SOL    HW2 3815   3.332   4.357   1.511  0.4386  1.2672  1.8337
  922SOL    HW3 3816   3.392   4.389   1.376  0.2765 -2.1344  0.9138
  922SOL    MW4 3817   3.388   4.403   1.462  0.2277  0.1888  0.5732
  923SOL     OW 3818   3.833   4.637   1.599 -0.0814  0.3965 -0.4014
  923SOL    HW2 3819   3.842   4.650   1.693 -0.1005  0.0457 -0.3512
  923SOL    HW3 3820   3.915   4.668   1.561  0.2372 -0.1947 -0.1996
  923SOL    MW4 3821   3.845   4.643   1.606 -0.0420  0.2723 -0.3681
  924SOL     OW 3822   3.616   0.110   1.499  0.1705 -0.2475 -0.2247
  924SOL    HW2 3823   3.683   0.065   1.551 -0.8780 -1.0815  0.4277
  924SOL    HW3 3824   3.629   0.078   1.410 -0.4768 -1.7624  0.2100
  924SOL    MW4 3825   3.626   0.100   1.494 -0.0534 -0.5574 -0.0812
  925SOL     OW 3826   3.573   0.371   1.560 -0.2208 -0.2385  0.1423
  925SOL    HW2 3827   3.557   0.284   1.522  1.1063 -0.4759  0.0940
  925SOL    HW3 3828   3.494   0.421   1.540 -0.6218 -1.1610 -0.6215
  925SOL    MW4 3829   3.561   0.366   1.553 -0.0987 -0.3915  0.0353
  926SOL     OW 3830   3.823   0.468   1.503 -0.2661  0.2113 -0.0652
  926SOL    HW2 3831   3.740   0.422   1.520  1.2323 -2.2238  0.9096
  926SOL    HW3 3832   3.825   0.478   1.408 -1.7808  0.4701 -0.0814
  926SOL    MW4 3833   3.812   0.463   1.492 -0.2685 -0.0759  0.0612
  927SOL     OW 3834   3.823   0.709   1.633 -0.2316  0.4665 -0.2982
  927SOL    HW2 3835   3.764   0.767   1.587 -0.3902 -0.1390 -0.8607
  927SOL    HW3 3836   3.827   0.630   1.579  1.4394  0.6677 -0.5172
  927SOL    MW4 3837   3.816   0.706   1.620 -0.0319  0.4131 -0.4014
  928SOL     OW 3838   3.618   0.881   1.512 -0.7992 -0.3988 -0.3140
  928SOL    HW2 3839   3.531   0.844   1.527 -1.0339 -0.0396 -0.8077
  928SOL    HW3 3840   3.626   0.890   1.417 -0.0143 -0.9321 -0.3092
  928SOL    MW4 3841   3.608   0.877   1.502 -0.7265 -0.4218 -0.3786
  929SOL     OW 3842   3.619   1.156   1.604  0.4336 -0.2661  0.4617
  929SOL    HW2 3843   3.676   1.209   1.547  0.5843  0.3886  1.2129
  929SOL    HW3 3844   3.635   1.066   1.577  0.5188  0.0385 -0.5323
  929SOL    MW4 3845   3.629   1.151   1.593  0.4644 -0.1396  0.4296
  930SOL     OW 3846   3.803   1.293   1.441  0.2040  0.3333 -0.3070
  930SOL    HW2 3847   3.883   1.245   1.465  1.5218  2.0200 -1.1490
  930SOL    HW3 3848   3.811   1.375   1.490 -0.3045  1.1059 -1.5171
  930SOL    MW4 3849   3.815   1.298   1.451  0.3109  0.6578 -0.5777
  931SOL     OW 3850   3.858   1.532   1.592  0.0960 -0.3797  0.0990
  931SOL    HW2 3851   3.859   1.513   1.686 -0.5225 -1.1446 -0.0470
  931SOL    HW3 3852   3.775   1.577   1.577  0.4837  0.3239  0.0242
  931SOL    MW4 3853   3.848   1.535   1.602  0.0658 -0.3878  0.0700
  932SOL     OW 3854   3.628   1.670   1.496  0.4215 -0.5233 -0.3152
  932SOL    HW2 3855   3.548   1.648   1.544  0.2923 -0.3779 -0.4633
  932SOL    HW3 3856   3.612   1.637   1.407 -0.3195  1.3199 -0.9103
  932SOL    MW4 3857   3.615   1.663   1.490  0.3068 -0.2609 -0.4133
  933SOL     OW 3858   3.619   1.934   1.591 -0.3482 -0.2316  0.3100
  933SOL    HW2 3859   3.612   1.842   1.565  1.7865 -0.2745 -0.1423
  933SOL    HW3 3860   3.539   1.975   1.556 -1.2799 -1.8819  0.4729
  933SOL    MW4 3861   3.607   1.927   1.583 -0.1895 -0.4551  0.2720
  934SOL     OW 3862   3.814   2.070   1.460  0.0813  0.0911 -0.3080
  934SOL    HW2 3863   3.822   2.159   1.496 -0.6071  0.4392 -0.9956
  934SOL    HW3 3864   3.748   2.028   1.516  0.2835  0.0693 -0.0855
  934SOL    MW4 3865   3.806   2.076   1.472  0.0169  0.1342 -0.3694
  935SOL     OW 3866   3.822   2.308   1.620 -0.5942 -0.3263  0.0377
  935SOL    HW2 3867   3.848   2.320   1.712  0.7345 -0.7445 -0.2665
  935SOL    HW3 3868   3.884   2.362   1.571 -1.4023  0.0249 -0.6136
  935SOL    MW4 3869   3.834   2.317   1.626 -0.5252 -0.3350 -0.0883
  936SOL     OW 3870   3.574   2.453   1.538  0.2136  0.3365  0.3767
  936SOL    HW2 3871   3.566   2.546   1.560 -1.5727  0.3226 -0.1453
  936SOL    HW3 3872   3.644   2.421   1.595  0.7483  1.9635  0.6598
  936SOL    MW4 3873   3.582   2.461   1.548  0.0486  0.5491  0.3451
  937SOL     OW 3874   3.586   2.724   1.609 -0.1489  0.4749 -0.3585
  937SOL    HW2 3875   3.577   2.719   1.704  0.8071  0.4134 -0.2583
  937SOL    HW3 3876   3.501   2.755   1.578 -0.4855  0.4432  0.5104
  937SOL    MW4 3877   3.574   2.728   1.618 -0.0675  0.4625 -0.2307
  938SOL     OW 3878   3.794   2.871   1.504  0.3820 -0.2472  0.2093
  938SOL    HW2 3879   3.875   2.838   1.541 -0.0491 -0.6812  0.7638
  938SOL    HW3 3880   3.725   2.823   1.550 -0.1905  0.2169 -0.1623
  938SOL    MW4 3881   3.796   2.860   1.515  0.2496 -0.2429  0.2334
  939SOL     OW 3882   3.813   3.124   1.599 -0.1683 -0.5067 -0.3400
  939SOL    HW2 3883   3.897   3.167   1.585 -0.7559  1.1617  1.1407
  939SOL    HW3 3884   3.821   3.040   1.553  1.8611  0.1402 -1.2089
  939SOL    MW4 3885   3.825   3.118   1.591  0.0222 -0.2012 -0.2592
  940SOL     OW 3886   3.578   3.242   1.533  0.2957  0.6100 -0.6220
  940SOL    HW2 3887   3.656   3.200   1.571 -0.8901 -0.4037  0.7537
  940SOL    HW3 3888   3.605   3.266   1.444  2.0197 -0.1690 -0.3404
  940SOL    MW4 3889   3.592   3.240   1.526  0.3667  0.3734 -0.4033
  941SOL     OW 3890   3.589   3.506   1.619  0.0591 -0.0586 -0.4217
  941SOL    HW2 3891   3.668   3.528   1.569  0.5450  0.9941  0.7818
  941SOL    HW3 3892   3.565   3.419   1.588  1.8872 -0.5356 -0.5878
  941SOL    MW4 3893   3.597   3.498   1.608  0.3645  0.0172 -0.2848
  942SOL     OW 3894   3.812   3.613   1.458  0.4530  0.1053 -0.0630
  942SOL    HW2 3895   3.893   3.574   1.490  0.7775  0.6973 -0.1556
  942SOL    HW3 3896   3.813   3.702   1.493 -1.4198 -0.6791  2.1007
  942SOL    MW4 3897   3.823   3.619   1.467  0.2484  0.0799  0.2104
  943SOL     OW 3898   3.788   3.860   1.557  0.0132  0.0212 -0.0419
  943SOL    HW2 3899   3.869   3.911   1.549 -1.2687  2.0974 -0.0496
  943SOL    HW3 3900   3.725   3.906   1.503 -0.6413 -2.8252 -1.8001
  943SOL    MW4 3901   3.791   3.873   1.549 -0.2422 -0.0803 -0.2748
  944SOL     OW 3902   3.573   4.011   1.402 -0.0449  0.7587  0.0061
  944SOL    HW2 3903   3.610   4.087   1.448  2.1522 -0.4118  0.2548
  944SOL    HW3 3904   3.501   3.982   1.458 -0.0806  1.8871  0.5593
  944SOL    MW4 3905   3.569   4.018   1.416  0.2403  0.7529  0.1119
  945SOL     OW 3906   3.627   4.236   1.569  0.1839  0.3324 -0.2322
  945SOL    HW2 3907   3.609   4.251   1.662 -0.1563  1.0505 -0.4089
  945SOL    HW3 3908   3.561   4.288   1.523  0.8618  0.6347 -0.8765
  945SOL    MW4 3909   3.616   4.245   1.575  0.2284  0.4668 -0.3406
  946SOL     OW 3910   3.847   4.409   1.450 -0.1082 -0.0640 -0.2306
  946SOL    HW2 3911   3.787   4.343   1.486 -2.2556  1.5089 -0.8385
  946SOL    HW3 3912   3.833   4.486   1.505  0.5675  0.6611 -1.0732
  946SOL    MW4 3913   3.837   4.410   1.462 -0.3026  0.2394 -0.4220
  947SOL     OW 3914   4.313   4.663   1.601 -0.4687  0.0569 -0.1416
  947SOL    HW2 3915   4.289   4.641   1.691  1.9554 -1.9686  0.0668
  947SOL    HW3 3916   4.301   4.581   1.553  1.2879  0.2918 -0.9973
  947SOL    MW4 3917   4.308   4.649   1.607  0.0830 -0.1793 -0.2270
  948SOL     OW 3918   4.070   0.095   1.512  0.4240 -0.0497  0.0931
  948SOL    HW2 3919   4.063   0.170   1.570  0.8147  0.0546  0.0017
  948SOL    HW3 3920   4.150   0.051   1.538 -1.4905 -2.3467  2.4060
  948SOL    MW4 3921   4.079   0.099   1.523  0.2227 -0.3390  0.3862
  949SOL     OW 3922   4.034   0.321   1.647  0.0134 -0.0174  0.5069
  949SOL    HW2 3923   4.031   0.327   1.742  0.7753  0.4768  0.5032
  949SOL    HW3 3924   3.955   0.367   1.617 -0.5630 -0.7225  0.9117
  949SOL    MW4 3925   4.023   0.328   1.655  0.0381 -0.0453  0.5598
  950SOL     OW 3926   4.273   0.463   1.523  0.1069 -0.5209 -0.1892
  950SOL    HW2 3927   4.207   0.418   1.576 -0.0446  1.8044  1.7342
  950SOL    HW3 3928   4.356   0.440   1.564  0.1086  0.0737  0.1568
  950SOL    MW4 3929   4.275   0.454   1.536  0.0873 -0.1356  0.1101
  951SOL     OW 3930   4.287   0.728   1.620 -0.1026  0.0202  0.6676
  951SOL    HW2 3931   4.293   0.644   1.574 -0.3791  1.1579 -1.4954
  951SOL    HW3 3932   4.367   0.775   1.595 -0.3937  0.7607  1.1140
  951SOL    MW4 3933   4.299   0.723   1.611 -0.1774  0.2680  0.4411
  952SOL     OW 3934   4.048   0.870   1.571  0.0139 -0.6782 -0.7601
  952SOL    HW2 3935   4.134   0.833   1.592 -0.1990 -1.2108 -0.8250
  952SOL    HW3 3936   3.987   0.822   1.626 -0.2231 -0.1549 -0.5602
  952SOL    MW4 3937   4.051   0.859   1.581 -0.0448 -0.6794 -0.7421
  953SOL     OW 3938   4.031   1.162   1.551 -0.2023  0.5126 -0.2303
  953SOL    HW2 3939   4.029   1.175   1.646 -1.8058  0.5546 -0.2453
  953SOL    HW3 3940   4.022   1.067   1.540 -0.7786  0.5773 -0.3444
  953SOL    MW4 3941   4.029   1.151   1.562 -0.4897  0.5267 -0.2474
  954SOL     OW 3942   4.238   1.291   1.453 -0.3333  0.3655 -0.1797
  954SOL    HW2 3943   4.160   1.239   1.473  0.5590 -0.9079  0.0483
  954SOL    HW3 3944   4.311   1.240   1.489  0.5619  1.7648  0.0225
  954SOL    MW4 3945   4.238   1.277   1.460 -0.0978  0.3821 -0.1229
  955SOL     OW 3946   4.277   1.550   1.533  0.1879 -0.1531  0.2208
  955SOL    HW2 3947   4.284   1.458   1.506 -0.8342 -0.6006  1.4454
  955SOL    HW3 3948   4.367   1.583   1.527  0.4481 -1.0127 -0.9538
  955SOL    MW4 3949   4.290   1.542   1.528  0.0877 -0.3256  0.2276
  956SOL     OW 3950   4.038   1.682   1.451  0.0235  0.1876  0.2269
  956SOL    HW2 3951   4.117   1.652   1.496 -0.0935  1.2328  1.1702
  956SOL    HW3 3952   3.968   1.630   1.489  0.2343 -0.6069 -0.4733
  956SOL    MW4 3953   4.039   1.671   1.462  0.0362  0.2207  0.2589
  957SOL     OW 3954   4.027   1.935   1.576  0.7554  0.1355  0.5214
  957SOL    HW2 3955   4.033   1.849   1.534  1.5445  0.7369 -0.5982
  957SOL    HW3 3956   3.945   1.971   1.542  2.3202  1.4039 -2.0141
  957SOL    MW4 3957   4.017   1.928   1.566  1.0657  0.3822  0.0392
  958SOL     OW 3958   4.271   2.035   1.468  0.2390 -0.2759 -0.5059
  958SOL    HW2 3959   4.181   2.017   1.496  0.5504  0.5086  1.1070
  958SOL    HW3 3960   4.267   2.038   1.373 -1.3954 -0.5056 -0.4598
  958SOL    MW4 3961   4.258   2.033   1.459  0.0644 -0.2027 -0.2872
  959SOL     OW 3962   4.236   2.312   1.557  0.2887 -0.4303  0.7897
  959SOL    HW2 3963   4.259   2.317   1.650  1.4451  1.0464  0.4502
  959SOL    HW3 3964   4.259   2.223   1.531  1.2169 -0.4300  1.5963
  959SOL    MW4 3965   4.242   2.301   1.566  0.5636 -0.2356  0.8514
  960SOL     OW 3966   4.014   2.468   1.497 -0.0555 -0.0312 -0.6661
  960SOL    HW2 3967   4.012   2.548   1.550 -0.9260  0.2800 -1.1585
  960SOL    HW3 3968   4.094   2.423   1.524  0.0845  0.6738  0.1068
  960SOL    MW4 3969   4.024   2.473   1.508 -0.1521  0.1032 -0.6292
  961SOL     OW 3970   4.017   2.724   1.626 -0.0570  0.1469 -0.5933
  961SOL    HW2 3971   4.018   2.734   1.721  0.0743 -0.3279 -0.5485
  961SOL    HW3 3972   4.098   2.766   1.597  0.9743 -1.6072 -0.3186
  961SOL    MW4 3973   4.028   2.731   1.635  0.0958 -0.1473 -0.5512
  962SOL     OW 3974   4.236   2.849   1.496 -0.4509 -0.1505 -0.6678
  962SOL    HW2 3975   4.259   2.922   1.553 -0.3413  0.3545 -1.3405
  962SOL    HW3 3976   4.241   2.886   1.407  0.5777 -1.2486 -1.0694
  962SOL    MW4 3977   4.239   2.864   1.492 -0.3009 -0.2289 -0.8096
  963SOL     OW 3978   4.311   3.093   1.637  0.0938  0.2641 -0.6170
  963SOL    HW2 3979   4.319   3.096   1.733  0.9962 -1.6880 -0.6055
  963SOL    HW3 3980   4.377   3.154   1.605 -0.3526  1.0827  0.0110
  963SOL    MW4 3981   4.321   3.101   1.646  0.1545  0.1144 -0.5325
  964SOL     OW 3982   4.070   3.223   1.506  0.1506 -0.3985  0.1965
  964SOL    HW2 3983   4.065   3.316   1.527 -1.5476 -0.3032 -0.5066
  964SOL    HW3 3984   4.147   3.191   1.553  0.8388  1.3910  0.3154
  964SOL    MW4 3985   4.080   3.231   1.515  0.0176 -0.1500  0.1193
  965SOL     OW 3986   4.023   3.484   1.582  0.1529  0.4193 -0.2239
  965SOL    HW2 3987   4.041   3.458   1.672 -0.1712  2.2172  0.3906
  965SOL    HW3 3988   4.096   3.542   1.559 -0.8544  1.6434 -0.3754
  965SOL    MW4 3989   4.035   3.488   1.591 -0.0229  0.8183 -0.1628
  966SOL     OW 3990   4.221   3.649   1.456 -0.1608  0.2216 -0.2955
  966SOL    HW2 3991   4.225   3.736   1.495  0.3278  0.1457 -0.1756
  966SOL    HW3 3992   4.254   3.662   1.367 -0.5207  0.2436 -0.4274
  966SOL    MW4 3993   4.225   3.662   1.449 -0.1435  0.2143 -0.2971
  967SOL     OW 3994   4.233   3.901   1.603 -0.3257  0.0835  0.1364
  967SOL    HW2 3995   4.158   3.949   1.567 -0.6974 -1.2599 -0.9477
  967SOL    HW3 3996   4.308   3.936   1.555 -0.3958  0.6389  0.4247
  967SOL    MW4 3997   4.233   3.912   1.592 -0.3839 -0.0207  0.0315
  968SOL     OW 3998   4.008   4.012   1.487 -0.1161  0.3152 -0.7616
  968SOL    HW2 3999   4.034   4.102   1.507  1.8183 -0.5516  0.8919
  968SOL    HW3 4000   4.019   4.004   1.392  1.4074  1.3231 -0.6886
  968SOL    MW4 4001   4.013   4.023   1.477  0.3409  0.3338 -0.5338
  969SOL     OW 4002   4.076   4.256   1.571  0.1306 -0.0050 -0.0131
  969SOL    HW2 4003   4.064   4.257   1.665  0.6772  0.6199  0.0564
  969SOL    HW3 4004   4.009   4.315   1.537  1.8351  2.1567  0.2395
  969SOL    MW4 4005   4.066   4.264   1.579  0.4277  0.3629  0.0293
  970SOL     OW 4006   4.269   4.422   1.490 -0.7549 -0.5485  0.0244
  970SOL    HW2 4007   4.207   4.359   1.527 -1.0300  0.5572  1.4716
  970SOL    HW3 4008   4.250   4.421   1.396 -1.2690 -2.0589  0.1298
  970SOL    MW4 4009   4.258   4.413   1.482 -0.8588 -0.6018  0.2292
  971SOL     OW 4010   0.218   4.647   1.870  0.3682 -0.0909 -0.1693
  971SOL    HW2 4011   0.298   4.682   1.909 -0.0745 -0.5144  1.1369
  971SOL    HW3 4012   0.239   4.639   1.777  1.7836 -0.0317  0.1284
  971SOL    MW4 4013   0.231   4.651   1.863  0.4965 -0.1392  0.0424
  972SOL     OW 4014   4.479   0.111   1.986  0.0648  0.0530  0.1836
  972SOL    HW2 4015   4.475   0.199   1.950 -0.1620 -0.3641 -0.8229
  972SOL    HW3 4016   4.565   0.078   1.959  0.1877 -0.0043  0.6386
  972SOL    MW4 4017   4.490   0.118   1.978  0.0515 -0.0096  0.1109
  973SOL     OW 4018   0.019   0.375   1.926  0.6991 -0.4854 -0.4111
  973SOL    HW2 4019   0.085   0.435   1.959  1.8177 -0.9330 -1.7773
  973SOL    HW3 4020  -0.064   0.411   1.957  1.4724  0.9005  0.0756
  973SOL    MW4 4021   0.016   0.388   1.934  0.9487 -0.3617 -0.5271
  974SOL     OW 4022   0.231   0.548   2.026 -0.2732  0.0701  0.5951
  974SOL    HW2 4023   0.310   0.506   1.991 -0.1824  0.3492  0.4635
  974SOL    HW3 4024   0.230   0.635   1.986 -0.9501 -0.1310  0.1586
  974SOL    MW4 4025   0.241   0.554   2.016 -0.3505  0.0803  0.5205
  975SOL     OW 4026   0.231   0.787   1.905 -0.1194 -0.1343  0.1948
  975SOL    HW2 4027   0.302   0.839   1.944 -0.4184  0.3009  0.1713
  975SOL    HW3 4028   0.229   0.815   1.814 -0.9724  0.5885  0.4285
  975SOL    MW4 4029   0.240   0.798   1.898 -0.2714  0.0185  0.2226
  976SOL     OW 4030   4.488   0.928   1.985 -0.3115 -0.1378 -0.1653
  976SOL    HW2 4031   4.422   0.871   1.947 -0.2259 -0.5857  0.3695
  976SOL    HW3 4032   4.571   0.892   1.954 -0.3248  0.6378 -1.1372
  976SOL    MW4 4033   4.490   0.916   1.976 -0.3014 -0.0946 -0.2230
  977SOL     OW 4034   0.001   1.166   1.865  0.0099  0.2255  0.1907
  977SOL    HW2 4035  -0.076   1.215   1.895 -0.3890 -0.6352  0.5983
  977SOL    HW3 4036  -0.000   1.086   1.917  1.4556  0.4132  0.5352
  977SOL    MW4 4037  -0.009   1.162   1.876  0.1473  0.1366  0.2900
  978SOL     OW 4038   0.213   1.290   1.988  0.3916 -0.5536  0.2187
  978SOL    HW2 4039   0.228   1.382   1.968  0.2517 -0.7506 -0.8140
  978SOL    HW3 4040   0.136   1.267   1.937 -1.2591 -0.5210  2.6109
  978SOL    MW4 4041   0.205   1.299   1.978  0.1554 -0.5754  0.3982
  979SOL     OW 4042   0.242   1.562   1.895  0.0613 -0.2900  0.2978
  979SOL    HW2 4043   0.304   1.624   1.933 -0.4113  0.4629 -0.1376
  979SOL    HW3 4044   0.156   1.604   1.907 -0.1469 -0.2988 -1.0660
  979SOL    MW4 4045   0.239   1.576   1.901 -0.0285 -0.1918  0.0603
  980SOL     OW 4046   4.474   1.661   1.983  0.2946  0.5548 -0.5182
  980SOL    HW2 4047   4.452   1.656   2.077 -0.4104  0.1505 -0.7007
  980SOL    HW3 4048   4.408   1.606   1.940  0.8066  0.4893 -1.2240
  980SOL    MW4 4049   4.462   1.653   1.990  0.2689  0.4928 -0.6354
  981SOL     OW 4050   4.480   1.906   1.838 -0.9191 -0.1596  0.7843
  981SOL    HW2 4051   4.414   1.960   1.880 -0.0694  0.1735  1.6993
  981SOL    HW3 4052   4.479   1.824   1.887 -2.0242 -0.8917 -0.4364
  981SOL    MW4 4053   4.471   1.902   1.850 -0.9527 -0.2122  0.7440
  982SOL     OW 4054   0.193   2.059   1.972  0.4046  0.5449  0.0534
  982SOL    HW2 4055   0.187   2.150   1.944  0.8315  0.4683 -0.3013
  982SOL    HW3 4056   0.136   2.011   1.912  0.2265  0.5723  0.2020
  982SOL    MW4 4057   0.185   2.064   1.961  0.4375  0.5383  0.0262
  983SOL     OW 4058   0.208   2.329   1.872  0.4496 -0.2812  0.0423
  983SOL    HW2 4059   0.288   2.366   1.908 -0.0211  0.9516 -0.1790
  983SOL    HW3 4060   0.138   2.387   1.900 -0.4010 -1.4246  0.3465
  983SOL    MW4 4061   0.210   2.341   1.880  0.2753 -0.2697  0.0532
  984SOL     OW 4062   4.482   2.486   1.953  0.0512  0.7135  0.3076
  984SOL    HW2 4063   4.468   2.496   2.048  1.1705  1.3634  0.4194
  984SOL    HW3 4064   4.469   2.574   1.918  0.8256  0.7239  0.0322
  984SOL    MW4 4065   4.479   2.499   1.961  0.3004  0.8004  0.2860
  985SOL     OW 4066   0.013   2.743   1.832 -0.0411 -0.0984 -0.5522
  985SOL    HW2 4067  -0.067   2.781   1.870 -0.0457 -0.5562 -0.0918
  985SOL    HW3 4068  -0.008   2.729   1.740  0.1808  1.6028 -0.8600
  985SOL    MW4 4069  -0.001   2.746   1.825 -0.0124  0.0656 -0.5319
  986SOL     OW 4070   0.209   2.869   1.963 -0.1380  0.1179  0.4358
  986SOL    HW2 4071   0.194   2.957   1.928 -0.1970  0.1690  0.5905
  986SOL    HW3 4072   0.148   2.813   1.916  0.2146  0.0881  0.0149
  986SOL    MW4 4073   0.199   2.873   1.952 -0.0993  0.1204  0.4007
  987SOL     OW 4074   0.215   3.147   1.899 -0.0222 -0.6939 -0.4470
  987SOL    HW2 4075   0.131   3.189   1.920  0.0900 -0.3899 -0.5929
  987SOL    HW3 4076   0.220   3.151   1.803  0.3476 -0.3301 -0.4160
  987SOL    MW4 4077   0.204   3.153   1.889  0.0414 -0.6061 -0.4622
  988SOL     OW 4078   4.453   3.285   1.938 -0.2153 -0.1552 -0.0928
  988SOL    HW2 4079   4.386   3.216   1.932 -0.2857 -0.1271  0.3614
  988SOL    HW3 4080   4.474   3.290   2.031  1.2573 -0.9513 -0.3661
  988SOL    MW4 4081   4.447   3.277   1.949 -0.0305 -0.2563 -0.0689
  989SOL     OW 4082   4.468   3.523   1.804 -0.2933 -0.5292 -0.4483
  989SOL    HW2 4083   4.556   3.545   1.833 -0.8148 -0.2452  0.9475
  989SOL    HW3 4084   4.449   3.438   1.845 -0.5499 -0.7521 -1.0126
  989SOL    MW4 4085   4.477   3.514   1.813 -0.3960 -0.5209 -0.3386
  990SOL     OW 4086   0.218   3.626   1.948 -0.4604 -0.4557  0.3953
  990SOL    HW2 4087   0.211   3.614   2.043  1.2148  0.5203  0.6513
  990SOL    HW3 4088   0.290   3.568   1.922  0.1957  0.5356 -0.0259
  990SOL    MW4 4089   0.226   3.617   1.957 -0.1528 -0.1960  0.3735
  991SOL     OW 4090   0.202   3.913   1.893  0.0572 -0.1807 -0.1215
  991SOL    HW2 4091   0.288   3.939   1.925 -0.6663  0.7608  1.0936
  991SOL    HW3 4092   0.190   3.824   1.926  0.5110 -0.2658 -0.1818
  991SOL    MW4 4093   0.212   3.905   1.902  0.0216 -0.0677  0.0310
  992SOL     OW 4094   4.461   4.039   1.967  0.0323  0.4220  0.2014
  992SOL    HW2 4095   4.453   4.117   1.913 -0.9339  0.2897  0.1584
  992SOL    HW3 4096   4.546   4.002   1.942 -0.2649  0.5277 -0.9961
  992SOL    MW4 4097   4.471   4.044   1.957 -0.1340  0.4187  0.0377
  993SOL     OW 4098   4.475   4.285   1.841 -0.1734 -0.2894 -0.2554
  993SOL    HW2 4099   4.400   4.316   1.891  0.0565 -1.7915  1.0642
  993SOL    HW3 4100   4.551   4.310   1.893  0.0478 -2.3087  0.4601
  993SOL    MW4 4101   4.475   4.292   1.854 -0.1139 -0.7548  0.0131
  994SOL     OW 4102   0.212   4.382   1.948 -0.5835  0.1724 -0.5801
  994SOL    HW2 4103   0.223   4.385   2.043  1.1577  0.2118 -0.7658
  994SOL    HW3 4104   0.205   4.473   1.922 -1.5521  0.1400 -0.4401
  994SOL    MW4 4105   0.213   4.394   1.957 -0.4816  0.1731 -0.5860
  995SOL     OW 4106   0.630   4.620   1.828  0.0891 -0.3610 -0.0771
  995SOL    HW2 4107   0.632   4.531   1.865  1.8962 -0.3100 -0.0083
  995SOL    HW3 4108   0.663   4.609   1.739  0.5729  0.2641  0.0174
  995SOL    MW4 4109   0.635   4.607   1.821  0.3914 -0.2718 -0.0556
  996SOL     OW 4110   0.440   0.091   1.995  0.4309 -0.4433 -0.5897
  996SOL    HW2 4111   0.451   0.182   1.968  1.7617  0.0707  1.5683
  996SOL    HW3 4112   0.518   0.046   1.961  1.8415  0.0970  1.8211
  996SOL    MW4 4113   0.452   0.097   1.987  0.7926 -0.3042  0.0131
  997SOL     OW 4114   0.429   0.364   1.924 -0.2460  0.3651  0.0854
  997SOL    HW2 4115   0.519   0.395   1.914  0.7809 -2.4205  0.4548
  997SOL    HW3 4116   0.397   0.356   1.834  1.2296 -2.4320 -0.2311
  997SOL    MW4 4117   0.436   0.367   1.911  0.0842 -0.3715  0.0924
  998SOL     OW 4118   0.677   0.497   1.956  0.0750 -0.2342  0.0023
  998SOL    HW2 4119   0.664   0.477   2.048  0.4055  0.4348  0.2008
  998SOL    HW3 4120   0.758   0.452   1.932  0.4673  0.3168  0.2772
  998SOL    MW4 4121   0.686   0.489   1.965  0.1703 -0.0732  0.0646
  999SOL     OW 4122   0.664   0.781   1.903  0.2921 -0.1426 -0.4074
  999SOL    HW2 4123   0.730   0.834   1.947  0.3881 -0.7760  0.2234
  999SOL    HW3 4124   0.664   0.698   1.951  0.5362 -0.9152 -1.7362
  999SOL    MW4 4125   0.673   0.777   1.915  0.3370 -0.3281 -0.4995
 1000SOL     OW 4126   0.445   0.941   1.975 -0.2212 -0.1186 -0.2543
 1000SOL    HW2 4127   0.471   1.026   1.939  0.0793  0.1895  0.6786
 1000SOL    HW3 4128   0.511   0.880   1.942  1.3519  0.5444  1.5368
 1000SOL    MW4 4129   0.458   0.944   1.966  0.0260  0.0095  0.1050
 1001SOL     OW 4130   0.444   1.198   1.875  0.0943  0.0832  0.0950
 1001SOL    HW2 4131   0.353   1.216   1.899  0.2587  1.3048 -0.1607
 1001SOL    HW3 4132   0.439   1.175   1.782 -0.2170 -2.0858  0.6142
 1001SOL    MW4 4133   0.431   1.197   1.866  0.0749 -0.0418  0.1296
 1002SOL     OW 4134   0.669   1.312   2.003 -0.0880 -0.7096  0.0901
 1002SOL    HW2 4135   0.663   1.294   2.097  0.8788  0.9462  0.4928
 1002SOL    HW3 4136   0.589   1.276   1.966 -1.6212  0.7199  1.9201
 1002SOL    MW4 4137   0.658   1.305   2.011 -0.1627 -0.3026  0.3846
 1003SOL     OW 4138   0.711   1.574   1.885  0.1727  0.2431  0.0773
 1003SOL    HW2 4139   0.715   1.492   1.934  1.4717  0.6154  0.6133
 1003SOL    HW3 4140   0.696   1.547   1.795  0.3993 -0.5738  0.2769
 1003SOL    MW4 4141   0.709   1.560   1.880  0.3740  0.1843  0.1743
 1004SOL     OW 4142   0.477   1.714   1.993 -0.4157  0.2968  0.1203
 1004SOL    HW2 4143   0.488   1.702   2.087 -0.1744 -1.2604 -0.0976
 1004SOL    HW3 4144   0.549   1.665   1.953 -0.5107  0.9439 -0.8809
 1004SOL    MW4 4145   0.488   1.706   2.000 -0.3964  0.1765 -0.0405
 1005SOL     OW 4146   0.447   1.961   1.877  0.1117  0.4748  0.7762
 1005SOL    HW2 4147   0.456   1.875   1.919 -2.2478 -1.3565 -2.2274
 1005SOL    HW3 4148   0.360   1.991   1.903 -0.1936  0.6380 -0.3770
 1005SOL    MW4 4149   0.437   1.954   1.886 -0.2399  0.2548  0.2277
 1006SOL     OW 4150   0.685   2.069   1.969 -0.5813  0.6551  0.1832
 1006SOL    HW2 4151   0.689   2.047   2.062  0.7551  0.4559  0.0924
 1006SOL    HW3 4152   0.607   2.024   1.937  0.3455 -1.3643  0.6817
 1006SOL    MW4 4153   0.675   2.060   1.977 -0.2827  0.3626  0.2371
 1007SOL     OW 4154   0.676   2.331   1.898  0.7099  0.2238  0.4475
 1007SOL    HW2 4155   0.683   2.240   1.927 -0.2347  0.4238  1.3249
 1007SOL    HW3 4156   0.662   2.324   1.803  0.5202 -0.5499  0.5250
 1007SOL    MW4 4157   0.675   2.318   1.889  0.5602  0.1483  0.5735
 1008SOL     OW 4158   0.431   2.438   2.008 -0.1605 -0.1143  0.0476
 1008SOL    HW2 4159   0.437   2.455   2.102 -1.3307 -0.4313  0.1880
 1008SOL    HW3 4160   0.519   2.411   1.983  0.0084 -0.6405  1.1736
 1008SOL    MW4 4161   0.444   2.437   2.017 -0.2926 -0.2255  0.2148
 1009SOL     OW 4162   0.377   2.667   1.871  0.5860  0.0248  0.3579
 1009SOL    HW2 4163   0.358   2.591   1.924  0.9541  0.4536  1.1153
 1009SOL    HW3 4164   0.334   2.740   1.916 -0.5296  0.1232 -0.8492
 1009SOL    MW4 4165   0.369   2.667   1.884  0.4874  0.0944  0.2986
 1010SOL     OW 4166   0.613   2.790   1.952  0.1202  0.0486  0.5774
 1010SOL    HW2 4167   0.611   2.814   2.045  0.8499 -1.2481  0.9551
 1010SOL    HW3 4168   0.537   2.733   1.941  0.5228 -0.4938  0.5891
 1010SOL    MW4 4169   0.602   2.785   1.963  0.2697 -0.1941  0.6287
 1011SOL     OW 4170   0.664   3.048   1.874  0.4731  0.0166 -0.0347
 1011SOL    HW2 4171   0.661   2.954   1.887  0.7688  0.0839  0.5525
 1011SOL    HW3 4172   0.587   3.082   1.920  0.1309  0.0261 -0.6050
 1011SOL    MW4 4173   0.653   3.040   1.882  0.4670  0.0269 -0.0324
 1012SOL     OW 4174   0.476   3.215   1.998 -0.2576 -0.3833 -0.2208
 1012SOL    HW2 4175   0.479   3.305   1.963 -1.0137  0.8262  2.7009
 1012SOL    HW3 4176   0.386   3.186   1.983 -0.3445 -0.1938 -0.0680
 1012SOL    MW4 4177   0.465   3.223   1.991 -0.3688 -0.1986  0.1849
 1013SOL     OW 4178   0.441   3.468   1.865  0.0234  1.1146  0.2728
 1013SOL    HW2 4179   0.513   3.528   1.885  0.1320  0.9493  0.3769
 1013SOL    HW3 4180   0.426   3.478   1.771  1.1755  0.0472 -0.0293
 1013SOL    MW4 4181   0.448   3.477   1.855  0.1897  0.9520  0.2468
 1014SOL     OW 4182   0.658   3.640   1.964  0.0976  0.2246  0.3865
 1014SOL    HW2 4183   0.667   3.641   2.059  1.1553 -1.8603  0.3229
 1014SOL    HW3 4184   0.642   3.732   1.940  0.7700  0.8939  2.4619
 1014SOL    MW4 4185   0.657   3.652   1.973  0.3258  0.0379  0.6518
 1015SOL     OW 4186   0.657   3.921   1.910  0.1628 -0.1953  0.6622
 1015SOL    HW2 4187   0.735   3.956   1.954  0.0430 -0.1681  0.8515
 1015SOL    HW3 4188   0.672   3.939   1.817 -0.1298  0.7972  0.8081
 1015SOL    MW4 4189   0.669   3.928   1.904  0.1085 -0.0608  0.7064
 1016SOL     OW 4190   0.427   4.019   2.010  0.2567  0.1528  0.3081
 1016SOL    HW2 4191   0.427   4.105   1.969 -1.1581  0.7652  1.5181
 1016SOL    HW3 4192   0.503   3.974   1.974 -0.7044  0.7992 -2.6489
 1016SOL    MW4 4193   0.437   4.024   2.000 -0.0568  0.3185  0.0772
 1017SOL     OW 4194   0.426   4.236   1.842  0.4480 -0.2619 -0.1503
 1017SOL    HW2 4195   0.350   4.279   1.882  1.3272  1.1578  0.0064
 1017SOL    HW3 4196   0.422   4.261   1.750  0.8099 -0.0720 -0.1141
 1017SOL    MW4 4197   0.415   4.245   1.835  0.6117 -0.0496 -0.1247
 1018SOL     OW 4198   0.652   4.370   1.962 -0.4788  0.1804  0.2479
 1018SOL    HW2 4199   0.732   4.326   1.936  0.0581  0.5504  1.2187
 1018SOL    HW3 4200   0.582   4.321   1.920  0.3296  0.6283 -1.6495
 1018SOL    MW4 4201   0.653   4.358   1.953 -0.3013  0.2885  0.1256
 1019SOL     OW 4202   1.091   0.010   1.822  0.2791 -0.3242 -0.1770
 1019SOL    HW2 4203   1.156   0.063   1.867  0.2752 -0.1753 -0.3447
 1019SOL    HW3 4204   1.117  -0.080   1.838  0.1686 -0.2737  0.2810
 1019SOL    MW4 4205   1.103   0.005   1.830  0.2639 -0.2985 -0.1388
 1020SOL     OW 4206   0.854   0.067   1.955  0.6209 -0.6815  0.2751
 1020SOL    HW2 4207   0.930   0.042   1.903  0.3843  1.2571 -1.0399
 1020SOL    HW3 4208   0.781   0.022   1.913  0.6816 -0.5384  0.0159
 1020SOL    MW4 4209   0.855   0.057   1.943  0.5978 -0.4069  0.0674
 1021SOL     OW 4210   0.906   0.333   1.917  0.4849 -0.0420  0.1746
 1021SOL    HW2 4211   0.983   0.361   1.967  0.8023 -1.8928  0.7628
 1021SOL    HW3 4212   0.884   0.248   1.954 -2.4048  0.8484  0.6018
 1021SOL    MW4 4213   0.913   0.326   1.929  0.1456 -0.1687  0.3086
 1022SOL     OW 4214   1.150   0.464   1.982 -0.0237  0.5205  0.4928
 1022SOL    HW2 4215   1.228   0.442   1.931 -1.2326 -1.0073 -0.7722
 1022SOL    HW3 4216   1.123   0.550   1.949  0.5418  0.5976  0.2258
 1022SOL    MW4 4217   1.156   0.472   1.971 -0.1085  0.3291  0.2908
 1023SOL     OW 4218   1.076   0.763   1.889 -0.0013 -0.0342  0.2871
 1023SOL    HW2 4219   1.139   0.812   1.941  0.7173  1.3494 -1.8110
 1023SOL    HW3 4220   0.992   0.805   1.907 -0.0394 -0.6855  1.6566
 1023SOL    MW4 4221   1.073   0.775   1.898  0.0885  0.0625  0.1910
 1024SOL     OW 4222   0.874   0.927   2.014  0.0144  0.2303 -0.4654
 1024SOL    HW2 4223   0.903   0.924   2.105  1.3036 -0.9713 -0.9091
 1024SOL    HW3 4224   0.857   1.020   1.998 -0.1291  0.4660  0.9680
 1024SOL    MW4 4225   0.875   0.939   2.024  0.1656  0.1028 -0.3350
 1025SOL     OW 4226   0.872   1.177   1.904  0.8760  0.0116 -0.2763
 1025SOL    HW2 4227   0.797   1.229   1.931  1.3982 -0.0376  1.3285
 1025SOL    HW3 4228   0.869   1.178   1.808  0.2264  2.0356 -0.2607
 1025SOL    MW4 4229   0.862   1.184   1.894  0.8592  0.2722 -0.0625
 1026SOL     OW 4230   1.096   1.279   2.013  0.5128  0.3587 -0.3848
 1026SOL    HW2 4231   1.114   1.357   1.961  0.4883 -0.6692 -1.9934
 1026SOL    HW3 4232   1.014   1.245   1.977 -0.6342  0.7991  1.7775
 1026SOL    MW4 4233   1.088   1.284   2.001  0.3581  0.2811 -0.3114
 1027SOL     OW 4234   1.108   1.511   1.881 -0.3740 -0.3028  0.1255
 1027SOL    HW2 4235   1.050   1.582   1.907  0.2263  0.0688  0.4760
 1027SOL    HW3 4236   1.100   1.506   1.786  0.6687  1.2084 -0.0581
 1027SOL    MW4 4237   1.099   1.520   1.872 -0.1572 -0.0542  0.1476
 1028SOL     OW 4238   0.932   1.714   1.991 -0.3212  0.3603  0.0332
 1028SOL    HW2 4239   0.922   1.795   1.940  0.2671 -0.0503 -0.7494
 1028SOL    HW3 4240   0.865   1.655   1.956  0.2233  0.0048 -0.4231
 1028SOL    MW4 4241   0.922   1.717   1.980 -0.1717  0.2593 -0.1303
 1029SOL     OW 4242   0.912   1.951   1.875  0.6094 -0.1934 -0.0685
 1029SOL    HW2 4243   0.985   1.987   1.925  1.2670 -0.9203 -0.4881
 1029SOL    HW3 4244   0.834   1.987   1.916  1.1845 -0.0082  0.8644
 1029SOL    MW4 4245   0.911   1.960   1.887  0.7720 -0.2649 -0.0007
 1030SOL     OW 4246   1.131   2.090   1.993  0.3225 -0.2256  0.1305
 1030SOL    HW2 4247   1.124   2.183   1.971 -0.9668 -0.0228  1.3422
 1030SOL    HW3 4248   1.148   2.089   2.087 -1.8039 -1.2615  0.5140
 1030SOL    MW4 4249   1.133   2.102   2.002 -0.1281 -0.3357  0.3409
 1031SOL     OW 4250   1.139   2.356   1.887 -0.3890 -0.0481 -0.4334
 1031SOL    HW2 4251   1.207   2.415   1.920 -0.2475 -0.2730 -0.3211
 1031SOL    HW3 4252   1.133   2.375   1.794 -0.0438 -0.1566 -0.4772
 1031SOL    MW4 4253   1.147   2.367   1.879 -0.3248 -0.0920 -0.4244
 1032SOL     OW 4254   0.883   2.455   1.999 -0.2314  0.0513 -0.1709
 1032SOL    HW2 4255   0.970   2.428   1.968 -0.5671 -0.0075 -1.0506
 1032SOL    HW3 4256   0.823   2.393   1.958 -0.7667  0.5663 -0.1568
 1032SOL    MW4 4257   0.887   2.443   1.990 -0.3463  0.1116 -0.2851
 1033SOL     OW 4258   0.814   2.647   1.818 -0.6453  0.0276 -0.4515
 1033SOL    HW2 4259   0.843   2.570   1.866 -0.9686 -0.3686 -0.8877
 1033SOL    HW3 4260   0.750   2.689   1.875 -0.5044 -0.0540 -0.2334
 1033SOL    MW4 4261   0.809   2.643   1.832 -0.6695 -0.0358 -0.4803
 1034SOL     OW 4262   1.030   2.813   1.934 -0.3471 -0.8252 -0.2809
 1034SOL    HW2 4263   0.957   2.756   1.907 -1.3177  0.7926 -1.1170
 1034SOL    HW3 4264   1.028   2.810   2.029 -0.0473 -2.6139 -0.3114
 1034SOL    MW4 4265   1.020   2.805   1.943 -0.4356 -0.8481 -0.3952
 1035SOL     OW 4266   1.091   3.083   1.797  0.0339 -0.1930 -0.2104
 1035SOL    HW2 4267   1.073   2.991   1.815 -0.5870 -0.1020 -0.3673
 1035SOL    HW3 4268   1.031   3.131   1.853 -0.4697  0.1024 -1.0045
 1035SOL    MW4 4269   1.081   3.077   1.806 -0.1144 -0.1419 -0.3358
 1036SOL     OW 4270   0.876   3.220   1.927  0.5111  0.6924 -0.3206
 1036SOL    HW2 4271   0.881   3.206   2.022  1.8074 -0.9961 -0.6179
 1036SOL    HW3 4272   0.802   3.166   1.899  0.6623  0.5180 -0.3857
 1036SOL    MW4 4273   0.867   3.211   1.936  0.7021  0.4466 -0.3684
 1037SOL     OW 4274   0.908   3.507   1.887 -0.0416  0.5588  0.3593
 1037SOL    HW2 4275   0.901   3.414   1.909 -1.6019  0.7792  0.8248
 1037SOL    HW3 4276   0.826   3.545   1.917  0.4330  2.0270 -0.1761
 1037SOL    MW4 4277   0.896   3.500   1.894 -0.1848  0.7815  0.3501
 1038SOL     OW 4278   1.121   3.665   1.986  0.4047  0.1204 -0.0921
 1038SOL    HW2 4279   1.135   3.626   2.073  0.0735 -1.2454 -0.6366
 1038SOL    HW3 4280   1.041   3.624   1.955  0.3177  0.8970 -0.8980
 1038SOL    MW4 4281   1.112   3.655   1.994  0.3496  0.0424 -0.2702
 1039SOL     OW 4282   1.068   3.922   1.876 -0.1598 -0.5170  0.5062
 1039SOL    HW2 4283   1.090   3.838   1.917 -1.2754 -0.5658  1.0227
 1039SOL    HW3 4284   1.067   3.904   1.782  1.2414 -0.6882  0.5141
 1039SOL    MW4 4285   1.071   3.909   1.869 -0.1223 -0.5460  0.5755
 1040SOL     OW 4286   0.868   4.059   2.029  0.1555 -0.0411  0.1508
 1040SOL    HW2 4287   0.870   4.050   2.124  0.7321  2.9495  0.4764
 1040SOL    HW3 4288   0.933   3.996   1.998 -0.8161 -1.8107  1.6529
 1040SOL    MW4 4289   0.877   4.050   2.037  0.1034  0.1202  0.3917
 1041SOL     OW 4290   0.926   4.274   1.882 -0.0350  0.0249 -0.6298
 1041SOL    HW2 4291   1.008   4.318   1.907 -0.7440  2.0911 -1.8194
 1041SOL    HW3 4292   0.915   4.206   1.948  2.2150  0.2439  0.0338
 1041SOL    MW4 4293   0.936   4.271   1.894  0.1684  0.3266 -0.6990
 1042SOL     OW 4294   1.168   4.419   1.951  0.1041  0.2255 -0.3488
 1042SOL    HW2 4295   1.170   4.385   2.040 -1.2174 -0.0279 -0.3937
 1042SOL    HW3 4296   1.235   4.369   1.904  0.8474  0.4133  0.5160
 1042SOL    MW4 4297   1.177   4.408   1.956  0.0277  0.2174 -0.2407
 1043SOL     OW 4298   1.535   4.637   1.827  0.0189 -0.4553  0.0953
 1043SOL    HW2 4299   1.606   4.700   1.842 -1.4926  1.7811 -1.6328
 1043SOL    HW3 4300   1.554   4.564   1.886  2.6810  0.9443  1.0593
 1043SOL    MW4 4301   1.547   4.636   1.837  0.1707  0.0248 -0.0056
 1044SOL     OW 4302   1.305   0.125   1.945 -0.2148 -0.1195 -0.4764
 1044SOL    HW2 4303   1.339   0.106   2.032 -0.1239  0.7758 -0.3060
 1044SOL    HW3 4304   1.364   0.079   1.885  0.4662  0.2728 -0.1154
 1044SOL    MW4 4305   1.317   0.117   1.949 -0.1129  0.0504 -0.4063
 1045SOL     OW 4306   1.398   0.375   1.882 -0.1112 -0.2587  0.1011
 1045SOL    HW2 4307   1.375   0.288   1.916  0.8899 -0.3936  0.4749
 1045SOL    HW3 4308   1.381   0.370   1.788  0.8558 -1.1924 -0.0424
 1045SOL    MW4 4309   1.393   0.363   1.874  0.1485 -0.3997  0.1315
 1046SOL     OW 4310   1.594   0.512   2.007  0.2732 -0.9338 -0.6722
 1046SOL    HW2 4311   1.675   0.495   1.959 -0.0963 -2.2322 -0.8699
 1046SOL    HW3 4312   1.527   0.463   1.959 -0.7721  0.7914 -0.9794
 1046SOL    MW4 4313   1.595   0.503   1.995  0.0865 -0.8775 -0.7386
 1047SOL     OW 4314   1.554   0.768   1.892  0.4999  0.4796 -0.4291
 1047SOL    HW2 4315   1.634   0.811   1.921  0.1517  0.4108  0.6582
 1047SOL    HW3 4316   1.556   0.682   1.935 -0.7712  0.9588  0.6271
 1047SOL    MW4 4317   1.565   0.762   1.901  0.2862  0.5337 -0.1463
 1048SOL     OW 4318   1.293   0.894   2.007  0.3559  0.2393 -0.0293
 1048SOL    HW2 4319   1.286   0.887   2.102 -0.1627 -1.1460 -0.1521
 1048SOL    HW3 4320   1.383   0.869   1.987 -0.4217 -2.6692 -0.1403
 1048SOL    MW4 4321   1.304   0.890   2.017  0.1850 -0.3271 -0.0601
 1049SOL     OW 4322   1.316   1.147   1.898 -0.4604  0.8115 -0.0358
 1049SOL    HW2 4323   1.299   1.056   1.922  1.0527  0.8421  1.1909
 1049SOL    HW3 4324   1.246   1.196   1.940  0.0897  0.4656  1.3064
 1049SOL    MW4 4325   1.304   1.141   1.906 -0.1882  0.7699  0.3030
 1050SOL     OW 4326   1.550   1.276   1.984 -0.3034  0.1056 -0.3901
 1050SOL    HW2 4327   1.534   1.277   2.078 -0.7707 -1.1041 -0.4543
 1050SOL    HW3 4328   1.468   1.242   1.946  0.5183 -1.0950 -1.0996
 1050SOL    MW4 4329   1.537   1.272   1.991 -0.2568 -0.2126 -0.4922
 1051SOL     OW 4330   1.582   1.560   1.898 -0.2009 -0.0792  0.1747
 1051SOL    HW2 4331   1.502   1.611   1.906  0.4155  1.0426 -0.7311
 1051SOL    HW3 4332   1.558   1.473   1.930 -1.9933  0.0241 -0.8191
 1051SOL    MW4 4333   1.568   1.555   1.903 -0.3561  0.0825 -0.0759
 1052SOL     OW 4334   1.344   1.690   1.926  0.4803  0.1353 -0.2414
 1052SOL    HW2 4335   1.340   1.692   2.022  2.7877 -0.4295 -0.0908
 1052SOL    HW3 4336   1.280   1.623   1.901  1.1960 -1.0596  1.0333
 1052SOL    MW4 4337   1.335   1.681   1.935  0.8792 -0.0969 -0.0534
 1053SOL     OW 4338   1.327   1.962   1.857 -0.3949  0.0234 -0.1128
 1053SOL    HW2 4339   1.262   2.009   1.909  1.4278  1.0558  1.2982
 1053SOL    HW3 4340   1.321   1.871   1.887 -1.4491  0.0219 -0.2968
 1053SOL    MW4 4341   1.318   1.956   1.868 -0.2935  0.1594  0.0490
 1054SOL     OW 4342   1.562   2.347   1.887  0.1810 -0.0445  0.0063
 1054SOL    HW2 4343   1.644   2.387   1.915 -0.1945 -0.1162  1.2069
 1054SOL    HW3 4344   1.570   2.255   1.915 -0.6727  0.1517  0.8942
 1054SOL    MW4 4345   1.574   2.340   1.894  0.0188 -0.0281  0.2820
 1055SOL     OW 4346   1.524   2.322   1.613 -0.1802 -0.5993  0.6422
 1055SOL    HW2 4347   1.538   2.338   1.706 -0.8100 -1.1848  0.8419
 1055SOL    HW3 4348   1.454   2.384   1.588  0.8711  0.4566  0.2570
 1055SOL    MW4 4349   1.517   2.333   1.622 -0.1247 -0.5374  0.6179
 1056SOL     OW 4350   1.335   2.506   1.975  0.0842  0.3165  0.0849
 1056SOL    HW2 4351   1.323   2.580   1.916  0.7814  1.2949  1.1321
 1056SOL    HW3 4352   1.420   2.470   1.950 -0.4749 -0.4302 -0.7433
 1056SOL    MW4 4353   1.345   2.511   1.964  0.1025  0.3469  0.1137
 1057SOL     OW 4354   1.293   2.746   1.835  0.3230  0.0204 -0.1520
 1057SOL    HW2 4355   1.215   2.774   1.884 -0.0306 -0.6052 -0.3559
 1057SOL    HW3 4356   1.364   2.797   1.874 -0.0322 -0.1135  0.6959
 1057SOL    MW4 4357   1.292   2.757   1.847  0.2295 -0.0799 -0.0670
 1058SOL     OW 4358   1.540   2.870   1.940 -0.2643  0.2702 -0.0520
 1058SOL    HW2 4359   1.613   2.815   1.910 -1.3192 -0.7727 -0.7756
 1058SOL    HW3 4360   1.527   2.844   2.031 -1.0522 -1.0488 -0.5199
 1058SOL    MW4 4361   1.548   2.859   1.948 -0.5075 -0.0415 -0.2092
 1059SOL     OW 4362   1.586   3.130   1.879  0.5090  0.0944 -0.0615
 1059SOL    HW2 4363   1.567   3.037   1.891  0.3023  0.3183  1.5147
 1059SOL    HW3 4364   1.589   3.142   1.784 -1.3398 -1.1436 -0.2983
 1059SOL    MW4 4365   1.584   3.119   1.868  0.2379 -0.0396  0.1152
 1060SOL     OW 4366   1.323   3.199   1.932  0.2435 -0.0197 -0.4088
 1060SOL    HW2 4367   1.404   3.192   1.881  0.4953 -0.4676  0.0520
 1060SOL    HW3 4368   1.257   3.156   1.878  0.5856 -0.8125 -0.2076
 1060SOL    MW4 4369   1.325   3.192   1.918  0.3217 -0.1836 -0.3215
 1061SOL     OW 4370   1.321   3.518   1.866  0.5172 -0.1697 -0.3383
 1061SOL    HW2 4371   1.319   3.442   1.924  1.5843 -0.6523 -0.9245
 1061SOL    HW3 4372   1.245   3.569   1.892  1.0270 -0.3170  1.5930
 1061SOL    MW4 4373   1.311   3.515   1.877  0.7252 -0.2527 -0.1608
 1062SOL     OW 4374   1.555   3.638   1.960 -0.0514 -0.0800 -0.0759
 1062SOL    HW2 4375   1.554   3.635   2.055 -0.9954  0.2491 -0.0655
 1062SOL    HW3 4376   1.472   3.596   1.934  0.0344  0.1516 -0.7321
 1062SOL    MW4 4377   1.544   3.632   1.969 -0.1646 -0.0060 -0.1612
 1063SOL     OW 4378   1.542   3.879   1.816 -0.1732 -0.2713  0.1630
 1063SOL    HW2 4379   1.601   3.940   1.861 -0.3261 -0.0900  0.1189
 1063SOL    HW3 4380   1.534   3.804   1.875 -1.0750  0.3446  0.8340
 1063SOL    MW4 4381   1.549   3.877   1.829 -0.3124 -0.1662  0.2458
 1064SOL     OW 4382   1.311   4.022   1.931  0.3484  0.0342  0.6509
 1064SOL    HW2 4383   1.371   3.959   1.891  0.4286  0.6671 -0.2376
 1064SOL    HW3 4384   1.225   3.996   1.897  0.4708  0.8415 -0.2857
 1064SOL    MW4 4385   1.307   4.010   1.921  0.3750  0.2241  0.4101
 1065SOL     OW 4386   1.403   4.266   1.870 -0.1500  0.4983 -0.1021
 1065SOL    HW2 4387   1.372   4.179   1.894  0.2110  0.2832 -0.4032
 1065SOL    HW3 4388   1.404   4.266   1.774  1.3992  0.2688 -0.0995
 1065SOL    MW4 4389   1.399   4.255   1.861  0.1019  0.4396 -0.1416
 1066SOL     OW 4390   1.592   4.428   1.993  0.2698  0.0706  0.1138
 1066SOL    HW2 4391   1.584   4.426   2.088 -1.0384  2.6353  0.1084
 1066SOL    HW3 4392   1.525   4.367   1.961 -0.3313  0.3728  0.8013
 1066SOL    MW4 4393   1.583   4.420   2.001  0.0179  0.4492  0.2041
 1067SOL     OW 4394   2.008   0.014   1.831  0.4069  0.2449  0.2783
 1067SOL    HW2 4395   2.084   0.059   1.869 -0.2213 -0.4193  2.4175
 1067SOL    HW3 4396   2.001  -0.067   1.882 -1.7761  0.3530  0.1763
 1067SOL    MW4 4397   2.017   0.010   1.843  0.0360  0.1717  0.5471
 1068SOL     OW 4398   1.756   0.109   1.921  0.2113  0.2692  0.2817
 1068SOL    HW2 4399   1.769   0.096   2.015  0.5613  0.6698  0.2937
 1068SOL    HW3 4400   1.838   0.081   1.882 -0.5055 -1.4030 -0.0529
 1068SOL    MW4 4401   1.768   0.104   1.928  0.1628  0.1014  0.2391
 1069SOL     OW 4402   1.806   0.393   1.863  0.0667  0.1784  0.1153
 1069SOL    HW2 4403   1.782   0.307   1.898  0.3942  0.3298  0.7182
 1069SOL    HW3 4404   1.830   0.376   1.772 -0.0649 -0.3353  0.1744
 1069SOL    MW4 4405   1.806   0.380   1.856  0.0925  0.1306  0.2027
 1070SOL     OW 4406   2.049   0.493   1.946 -0.3684 -0.0240  0.6037
 1070SOL    HW2 4407   2.037   0.584   1.917 -3.2079  0.3596  2.7089
 1070SOL    HW3 4408   1.965   0.451   1.926 -0.2070 -1.3237  2.5204
 1070SOL    MW4 4409   2.036   0.500   1.939 -0.7217 -0.1449  1.1345
 1071SOL     OW 4410   2.013   0.749   1.855  0.3580 -0.5145 -0.2514
 1071SOL    HW2 4411   2.085   0.805   1.882 -0.8439  0.5466  0.8674
 1071SOL    HW3 4412   2.008   0.758   1.760  0.4481  0.9447 -0.1206
 1071SOL    MW4 4413   2.022   0.757   1.846  0.2112 -0.1819 -0.0864
 1072SOL     OW 4414   1.788   0.877   1.999  0.0103 -0.1184  0.3113
 1072SOL    HW2 4415   1.784   0.966   1.965 -1.1312 -0.9523 -1.7954
 1072SOL    HW3 4416   1.866   0.838   1.960  0.6173 -0.0005  1.3793
 1072SOL    MW4 4417   1.798   0.883   1.990 -0.0604 -0.2128  0.1743
 1073SOL     OW 4418   1.783   1.140   1.883 -0.1032  0.2538  0.0969
 1073SOL    HW2 4419   1.698   1.179   1.904 -0.2044  0.1315 -0.0815
 1073SOL    HW3 4420   1.789   1.148   1.787  0.8885  1.9222  0.2816
 1073SOL    MW4 4421   1.773   1.146   1.873  0.0142  0.4579  0.0978
 1074SOL     OW 4422   1.981   1.308   1.947  0.2560 -0.0922  0.1324
 1074SOL    HW2 4423   2.054   1.253   1.919  0.1478 -0.4485  0.5451
 1074SOL    HW3 4424   1.903   1.254   1.933  0.2287 -0.4046  1.4166
 1074SOL    MW4 4425   1.980   1.294   1.941  0.2382 -0.1805  0.3562
 1075SOL     OW 4426   1.971   1.576   1.876  0.2788  0.4136 -0.0281
 1075SOL    HW2 4427   1.906   1.603   1.940 -2.3858 -0.6894 -2.2026
 1075SOL    HW3 4428   1.984   1.482   1.892 -0.0294  0.2405 -0.7532
 1075SOL    MW4 4429   1.964   1.567   1.886 -0.1134  0.2451 -0.4106
 1076SOL     OW 4430   1.793   1.690   2.026 -0.0700 -0.1257 -0.1409
 1076SOL    HW2 4431   1.786   1.697   2.121 -0.1522  0.3922 -0.1840
 1076SOL    HW3 4432   1.718   1.635   2.001 -0.0289 -0.2916  0.0939
 1076SOL    MW4 4433   1.782   1.683   2.035 -0.0756 -0.0792 -0.1159
 1077SOL     OW 4434   1.573   2.045   1.951 -0.5331 -0.1158  0.2692
 1077SOL    HW2 4435   1.572   2.037   2.046 -0.4493 -1.4522  0.1696
 1077SOL    HW3 4436   1.485   2.018   1.924 -0.9068  1.2877  0.0324
 1077SOL    MW4 4437   1.561   2.040   1.960 -0.5715 -0.1066  0.2248
 1078SOL     OW 4438   2.000   2.094   1.969 -0.1095  0.3139  0.6946
 1078SOL    HW2 4439   2.082   2.057   1.935 -0.2560 -0.4083  1.1076
 1078SOL    HW3 4440   1.933   2.032   1.942 -0.8149  1.9118 -1.3695
 1078SOL    MW4 4441   2.002   2.081   1.961 -0.2217  0.4294  0.4767
 1079SOL     OW 4442   2.004   2.329   1.838  0.0155  0.2303 -0.5470
 1079SOL    HW2 4443   2.074   2.384   1.875  0.1724 -0.1535 -0.2655
 1079SOL    HW3 4444   2.002   2.253   1.896 -1.2043  0.6290 -0.0566
 1079SOL    MW4 4445   2.013   2.326   1.851 -0.1249  0.2325 -0.4451
 1080SOL     OW 4446   1.785   2.491   1.942 -0.3221 -0.2340 -0.2932
 1080SOL    HW2 4447   1.793   2.469   2.035 -2.1056 -1.8378 -0.4987
 1080SOL    HW3 4448   1.864   2.454   1.902 -0.9665 -2.1070  0.1348
 1080SOL    MW4 4449   1.796   2.483   1.949 -0.6423 -0.6928 -0.2638
 1081SOL     OW 4450   1.776   2.750   1.859  0.2863  0.1212 -0.2903
 1081SOL    HW2 4451   1.787   2.661   1.892 -1.9863 -0.2128 -0.3678
 1081SOL    HW3 4452   1.776   2.740   1.764  1.0028  0.3416 -0.3170
 1081SOL    MW4 4453   1.778   2.737   1.851  0.0811  0.1061 -0.3041
 1082SOL     OW 4454   1.989   2.886   1.952 -0.3375 -0.2777  0.1544
 1082SOL    HW2 4455   1.991   2.867   2.046 -2.2577 -2.6012 -0.2314
 1082SOL    HW3 4456   1.913   2.838   1.919  0.5508  0.1633 -2.6741
 1082SOL    MW4 4457   1.979   2.877   1.960 -0.4739 -0.5260 -0.2697
 1083SOL     OW 4458   1.958   3.139   1.841  0.2356  0.3218  0.2072
 1083SOL    HW2 4459   1.897   3.184   1.899  0.6056  2.7571 -1.1947
 1083SOL    HW3 4460   1.963   3.050   1.875 -0.7339  1.2619  2.9616
 1083SOL    MW4 4461   1.951   3.133   1.854  0.1565  0.7672  0.3858
 1084SOL     OW 4462   1.788   3.283   1.999  0.0805  0.3124 -0.1437
 1084SOL    HW2 4463   1.779   3.285   2.094  3.4048 -0.1742  0.2695
 1084SOL    HW3 4464   1.716   3.229   1.968 -0.5896 -0.1643  2.1806
 1084SOL    MW4 4465   1.778   3.276   2.008  0.4307  0.1853  0.2179
 1085SOL     OW 4466   1.776   3.522   1.851 -0.2464 -0.0490  0.1235
 1085SOL    HW2 4467   1.784   3.441   1.903 -0.9494  0.2301  0.6734
 1085SOL    HW3 4468   1.704   3.570   1.893 -0.1201  0.6607 -0.4734
 1085SOL    MW4 4469   1.768   3.517   1.864 -0.3225  0.0818  0.1172
 1086SOL     OW 4470   2.012   3.617   1.963 -0.1008 -0.1083  0.1479
 1086SOL    HW2 4471   2.009   3.711   1.947  1.2563 -0.3129 -1.4975
 1086SOL    HW3 4472   1.933   3.583   1.920  0.8642 -0.0366 -1.7162
 1086SOL    MW4 4473   2.001   3.625   1.955  0.2055 -0.1256 -0.3153
 1087SOL     OW 4474   1.986   3.897   1.913 -0.3929  0.0731 -0.0036
 1087SOL    HW2 4475   2.069   3.916   1.956 -0.1832 -1.1052  0.1332
 1087SOL    HW3 4476   2.007   3.894   1.819 -0.5865  1.2950 -0.0924
 1087SOL    MW4 4477   1.999   3.899   1.906 -0.3908  0.0787  0.0027
 1088SOL     OW 4478   1.734   4.019   1.937 -0.2505  0.7217 -0.1347
 1088SOL    HW2 4479   1.769   4.100   1.898  1.5384 -0.1484 -0.4037
 1088SOL    HW3 4480   1.807   3.957   1.931 -1.0771 -0.4252  1.5506
 1088SOL    MW4 4481   1.748   4.022   1.931 -0.1235  0.4559  0.0521
 1089SOL     OW 4482   1.803   4.278   1.856  0.3506 -0.1041 -0.0938
 1089SOL    HW2 4483   1.742   4.346   1.886 -1.2595 -1.4584 -0.2135
 1089SOL    HW3 4484   1.789   4.273   1.762  2.0146  0.8603 -0.4126
 1089SOL    MW4 4485   1.793   4.286   1.848  0.3577 -0.1559 -0.1515
 1090SOL     OW 4486   2.033   4.435   1.939 -0.1061  0.3237 -0.4965
 1090SOL    HW2 4487   2.116   4.390   1.925  0.0319  0.4780 -0.1829
 1090SOL    HW3 4488   1.968   4.381   1.894 -0.2083 -1.0952  1.3128
 1090SOL    MW4 4489   2.035   4.422   1.931 -0.1016  0.1574 -0.2164
 1091SOL     OW 4490   2.472   4.665   1.843  0.0738  0.1265 -0.5110
 1091SOL    HW2 4491   2.548   4.717   1.868  1.1100 -0.2206 -2.7957
 1091SOL    HW3 4492   2.483   4.582   1.890  1.5597 -0.2221 -1.4302
 1091SOL    MW4 4493   2.484   4.661   1.852  0.4065  0.0348 -0.9338
 1092SOL     OW 4494   2.251   0.117   1.948  0.4705  0.3417 -0.3521
 1092SOL    HW2 4495   2.257   0.099   2.042 -1.6818  0.1795 -0.2297
 1092SOL    HW3 4496   2.321   0.064   1.910  2.2014  1.3882  1.2567
 1092SOL    MW4 4497   2.261   0.107   1.956  0.4148  0.4584 -0.1237
 1093SOL     OW 4498   2.296   0.383   1.872  0.0429  0.0610 -0.1146
 1093SOL    HW2 4499   2.296   0.292   1.902  0.5503  0.0314 -0.1895
 1093SOL    HW3 4500   2.218   0.422   1.911 -0.0969 -0.3719  0.0323
 1093SOL    MW4 4501   2.286   0.376   1.881  0.0913 -0.0000 -0.1051
 1094SOL     OW 4502   2.508   0.557   1.970 -0.1028  0.0728 -0.3087
 1094SOL    HW2 4503   2.582   0.519   1.922  1.4776  0.0280  2.0997
 1094SOL    HW3 4504   2.432   0.509   1.937  1.1363 -1.0802 -1.5784
 1094SOL    MW4 4505   2.508   0.545   1.959  0.2692 -0.0853 -0.1583
 1095SOL     OW 4506   2.487   0.807   1.863  0.1604 -0.2272  0.4345
 1095SOL    HW2 4507   2.488   0.726   1.914 -0.5629 -0.9072 -0.5956
 1095SOL    HW3 4508   2.474   0.777   1.773  0.2245  1.0225  0.0124
 1095SOL    MW4 4509   2.485   0.792   1.858  0.0734 -0.1521  0.2429
 1096SOL     OW 4510   2.241   0.904   1.921 -0.2488  0.1466  0.2034
 1096SOL    HW2 4511   2.254   0.914   2.015 -0.7696 -0.6551  0.3740
 1096SOL    HW3 4512   2.324   0.870   1.888  0.6342  2.4122  0.0279
 1096SOL    MW4 4513   2.254   0.900   1.929 -0.2012  0.3397  0.2029
 1097SOL     OW 4514   2.217   1.177   1.853  0.1095  0.0758  0.1616
 1097SOL    HW2 4515   2.297   1.223   1.878  0.5789 -0.4666 -0.3224
 1097SOL    HW3 4516   2.233   1.086   1.879 -0.2163 -0.0962 -0.2363
 1097SOL    MW4 4517   2.230   1.171   1.859  0.1285 -0.0185  0.0452
 1098SOL     OW 4518   2.444   1.294   1.958 -0.1144 -0.1754  0.2984
 1098SOL    HW2 4519   2.440   1.291   2.054  0.5079 -0.2521  0.3214
 1098SOL    HW3 4520   2.459   1.386   1.937 -1.6341  0.0679  0.2198
 1098SOL    MW4 4521   2.445   1.306   1.968 -0.2329 -0.1534  0.2911
 1099SOL     OW 4522   2.459   1.555   1.858  0.7129 -0.5003  0.0304
 1099SOL    HW2 4523   2.379   1.598   1.887  1.4356  1.0820 -0.2652
 1099SOL    HW3 4524   2.448   1.545   1.763  0.5406 -0.9701  0.1010
 1099SOL    MW4 4525   2.447   1.560   1.849  0.7854 -0.3536  0.0005
 1100SOL     OW 4526   2.239   1.698   1.968  0.1924  0.5501  0.3279
 1100SOL    HW2 4527   2.227   1.699   2.063 -1.0343  1.0341  0.1783
 1100SOL    HW3 4528   2.157   1.662   1.935  0.8902 -0.2897 -0.5202
 1100SOL    MW4 4529   2.227   1.693   1.976  0.1225  0.5029  0.1962
 1101SOL     OW 4530   2.233   1.974   1.890  0.1709 -0.2672 -0.1303
 1101SOL    HW2 4531   2.312   2.014   1.925  1.4215 -1.0743 -1.9452
 1101SOL    HW3 4532   2.233   1.885   1.925  0.1951 -0.3483 -0.3361
 1101SOL    MW4 4533   2.243   1.968   1.899  0.3390 -0.3843 -0.3968
 1102SOL     OW 4534   2.464   2.085   1.978 -0.0182  0.0086 -0.3151
 1102SOL    HW2 4535   2.547   2.046   1.950  1.0211  1.2421  0.9492
 1102SOL    HW3 4536   2.466   2.174   1.943 -1.7917 -0.6384 -2.0926
 1102SOL    MW4 4537   2.476   2.092   1.970 -0.1149  0.0858 -0.3830
 1103SOL     OW 4538   2.470   2.335   1.860  0.1338  0.4505  0.0586
 1103SOL    HW2 4539   2.539   2.399   1.877  0.1442  0.2742  0.7049
 1103SOL    HW3 4540   2.391   2.375   1.894  0.0462  0.3493 -0.0246
 1103SOL    MW4 4541   2.469   2.349   1.867  0.1233  0.4139  0.1330
 1104SOL     OW 4542   2.235   2.472   1.950 -0.3325 -0.3674  0.8032
 1104SOL    HW2 4543   2.231   2.473   2.046  0.2299 -1.2363  0.8386
 1104SOL    HW3 4544   2.218   2.563   1.924  0.9127  0.1592  1.7758
 1104SOL    MW4 4545   2.232   2.484   1.959 -0.0939 -0.4127  0.9362
 1105SOL     OW 4546   2.207   2.744   1.843  0.1978 -0.4477  0.1157
 1105SOL    HW2 4547   2.138   2.799   1.879  0.7597  0.6548 -0.4844
 1105SOL    HW3 4548   2.283   2.759   1.900  1.0908  1.3095 -1.4874
 1105SOL    MW4 4549   2.208   2.753   1.855  0.3898 -0.0706 -0.1751
 1106SOL     OW 4550   2.442   2.818   1.979 -0.0249  0.3737  0.5407
 1106SOL    HW2 4551   2.439   2.911   1.956 -0.6921  0.1369 -0.3245
 1106SOL    HW3 4552   2.522   2.786   1.939  1.3065  1.0307  2.5893
 1106SOL    MW4 4553   2.452   2.826   1.971  0.0625  0.4289  0.6968
 1107SOL     OW 4554   2.438   3.089   1.915 -0.5231  0.2232  0.2908
 1107SOL    HW2 4555   2.362   3.144   1.933 -0.6772  0.7425 -1.7630
 1107SOL    HW3 4556   2.445   3.089   1.819  1.0254 -1.2303  0.3801
 1107SOL    MW4 4557   2.429   3.096   1.904 -0.3393  0.0999  0.0315
 1108SOL     OW 4558   2.197   3.237   1.941 -0.3416  0.4715 -0.0311
 1108SOL    HW2 4559   2.191   3.256   2.035 -0.3162 -0.6268  0.1946
 1108SOL    HW3 4560   2.113   3.199   1.918 -0.3098  0.6427 -0.4359
 1108SOL    MW4 4561   2.185   3.234   1.951 -0.3340  0.3493 -0.0547
 1109SOL     OW 4562   2.226   3.502   1.840  0.5156  0.4548 -0.1648
 1109SOL    HW2 4563   2.217   3.412   1.871  1.7969  0.2797 -0.2727
 1109SOL    HW3 4564   2.148   3.546   1.873  0.8218 -0.2285  1.5364
 1109SOL    MW4 4565   2.215   3.496   1.849  0.7250  0.3417  0.0455
 1110SOL     OW 4566   2.459   3.636   1.943  0.0506 -0.2876 -0.7492
 1110SOL    HW2 4567   2.461   3.614   2.036  0.9213  0.3617 -0.6068
 1110SOL    HW3 4568   2.389   3.581   1.907  0.8514 -1.8020 -0.0420
 1110SOL    MW4 4569   2.450   3.626   1.950  0.2713 -0.4017 -0.6371
 1111SOL     OW 4570   2.459   3.876   1.818  0.0703  0.2259 -0.1114
 1111SOL    HW2 4571   2.390   3.923   1.864 -0.5939 -0.4653 -0.3882
 1111SOL    HW3 4572   2.452   3.786   1.851  0.6619  0.0962 -0.3417
 1111SOL    MW4 4573   2.449   3.870   1.829  0.0606  0.1175 -0.1783
 1112SOL     OW 4574   2.245   4.002   1.968  0.0053  0.3397 -0.0659
 1112SOL    HW2 4575   2.281   3.994   2.056 -1.0428  1.7259  0.5126
 1112SOL    HW3 4576   2.252   4.095   1.947 -0.4785  0.1483 -1.1305
 1112SOL    MW4 4577   2.251   4.013   1.977 -0.1967  0.4978 -0.1301
 1113SOL     OW 4578   2.262   4.277   1.880 -0.3652 -0.1895 -0.4856
 1113SOL    HW2 4579   2.334   4.326   1.921 -0.4537 -1.0869  0.7788
 1113SOL    HW3 4580   2.279   4.284   1.786  1.4492 -0.4649 -0.2011
 1113SOL    MW4 4581   2.274   4.285   1.873 -0.1373 -0.3443 -0.2813
 1114SOL     OW 4582   2.475   4.419   1.966 -0.7530 -0.0269 -1.0478
 1114SOL    HW2 4583   2.483   4.402   2.060  0.0496 -0.2608 -1.1547
 1114SOL    HW3 4584   2.542   4.363   1.926  0.6216  1.9271 -1.5602
 1114SOL    MW4 4585   2.485   4.410   1.973 -0.4656  0.1993 -1.1295
 1115SOL     OW 4586   2.913   0.006   1.827  0.0637  0.0850 -0.1184
 1115SOL    HW2 4587   2.993   0.031   1.872  0.0123 -1.4091  0.8545
 1115SOL    HW3 4588   2.896  -0.083   1.858 -0.2306 -0.8036 -2.7168
 1115SOL    MW4 4589   2.921  -0.003   1.837  0.0181 -0.2294 -0.3331
 1116SOL     OW 4590   2.692   0.126   1.932 -0.0489 -0.0772 -0.4273
 1116SOL    HW2 4591   2.707   0.135   2.026 -0.4463  2.8086 -0.6115
 1116SOL    HW3 4592   2.777   0.096   1.898  0.3142 -0.4335  0.7499
 1116SOL    MW4 4593   2.705   0.123   1.940 -0.0534  0.2565 -0.2962
 1117SOL     OW 4594   2.696   0.413   1.838  0.1760  0.4683 -0.4173
 1117SOL    HW2 4595   2.777   0.448   1.874  1.2878 -0.7904 -1.6335
 1117SOL    HW3 4596   2.698   0.320   1.860 -0.3772  0.1939 -1.4639
 1117SOL    MW4 4597   2.707   0.405   1.846  0.2496  0.2660 -0.7159
 1118SOL     OW 4598   2.917   0.484   1.977  0.3546 -0.0822  0.0945
 1118SOL    HW2 4599   3.000   0.448   1.945  0.0754 -1.4366  0.8785
 1118SOL    HW3 4600   2.930   0.579   1.976  2.3299 -0.3194  1.2896
 1118SOL    MW4 4601   2.930   0.492   1.973  0.5782 -0.2922  0.3557
 1119SOL     OW 4602   2.932   0.737   1.871  0.0185  0.2383 -0.2324
 1119SOL    HW2 4603   3.018   0.769   1.899  0.9123 -1.8081 -0.5848
 1119SOL    HW3 4604   2.870   0.794   1.917  1.5341  1.1523  0.7417
 1119SOL    MW4 4605   2.935   0.749   1.881  0.3364  0.0889 -0.1503
 1120SOL     OW 4606   2.718   0.898   1.949  0.5823  0.1588  0.3274
 1120SOL    HW2 4607   2.706   0.991   1.932 -0.5093  0.3146  1.8654
 1120SOL    HW3 4608   2.636   0.858   1.919  0.7932 -0.2271  0.2612
 1120SOL    MW4 4609   2.705   0.905   1.943  0.4661  0.1284  0.5215
 1121SOL     OW 4610   2.701   1.165   1.882  0.4098 -0.1956  0.1711
 1121SOL    HW2 4611   2.618   1.212   1.893 -0.4348 -1.2793 -1.4869
 1121SOL    HW3 4612   2.714   1.160   1.788  0.5210 -3.2169  0.3078
 1121SOL    MW4 4613   2.691   1.171   1.871  0.3128 -0.7373 -0.0296
 1122SOL     OW 4614   2.933   1.276   1.981 -0.6603  0.0369 -0.0720
 1122SOL    HW2 4615   2.949   1.370   1.968  0.6185 -0.4709 -2.3545
 1122SOL    HW3 4616   2.852   1.259   1.935 -0.2397 -0.2193 -0.7222
 1122SOL    MW4 4617   2.925   1.287   1.973 -0.4361 -0.0638 -0.4590
 1123SOL     OW 4618   2.929   1.548   1.904 -0.1117  0.3583 -0.1113
 1123SOL    HW2 4619   3.011   1.590   1.929  1.0172 -1.8996  0.0599
 1123SOL    HW3 4620   2.937   1.534   1.809  0.3152 -1.1733  0.1463
 1123SOL    MW4 4621   2.941   1.552   1.895  0.0935 -0.1417 -0.0546
 1124SOL     OW 4622   2.674   1.699   1.995  0.0583 -0.2611  0.1242
 1124SOL    HW2 4623   2.755   1.655   1.971  0.1774  0.8866 -1.6434
 1124SOL    HW3 4624   2.605   1.647   1.952  0.0587  0.2614 -0.5051
 1124SOL    MW4 4625   2.675   1.686   1.986  0.0741 -0.0407 -0.1922
 1125SOL     OW 4626   2.676   1.951   1.865  0.3919 -0.1184 -0.1155
 1125SOL    HW2 4627   2.762   1.977   1.896 -0.7097  0.8045  2.2620
 1125SOL    HW3 4628   2.664   1.861   1.897  0.1085  0.0827  0.3511
 1125SOL    MW4 4629   2.686   1.943   1.873  0.2091  0.0300  0.2599
 1126SOL     OW 4630   2.921   2.045   1.938 -0.1285  0.2028 -0.4968
 1126SOL    HW2 4631   2.936   2.029   2.031 -0.8890  0.8746 -0.2465
 1126SOL    HW3 4632   3.004   2.025   1.895  0.8212  1.8670  0.5738
 1126SOL    MW4 4633   2.934   2.040   1.944 -0.1035  0.5112 -0.3225
 1127SOL     OW 4634   2.921   2.323   1.851 -0.3978 -0.0085 -0.1193
 1127SOL    HW2 4635   2.997   2.359   1.896 -1.6168  1.4457  0.8110
 1127SOL    HW3 4636   2.910   2.236   1.889  3.2080 -1.9610 -3.1469
 1127SOL    MW4 4637   2.930   2.316   1.862 -0.0830 -0.0741 -0.3960
 1128SOL     OW 4638   2.720   2.468   1.968  0.3436  0.1324 -0.0417
 1128SOL    HW2 4639   2.723   2.444   2.061  0.5236  0.6981  0.1022
 1128SOL    HW3 4640   2.789   2.415   1.927 -1.7005 -2.3627 -0.3976
 1128SOL    MW4 4641   2.730   2.458   1.975  0.0975 -0.1223 -0.0697
 1129SOL     OW 4642   2.681   2.726   1.882  0.4766  0.0294  0.5172
 1129SOL    HW2 4643   2.686   2.634   1.906 -1.4173  0.1631  1.5216
 1129SOL    HW3 4644   2.678   2.727   1.786 -2.2786 -1.1390  0.5496
 1129SOL    MW4 4645   2.681   2.714   1.873 -0.1369 -0.1068  0.6539
 1130SOL     OW 4646   2.913   2.836   1.976  0.3502 -0.1594 -0.4687
 1130SOL    HW2 4647   2.908   2.924   1.941 -1.4488  1.0792  2.7091
 1130SOL    HW3 4648   2.837   2.790   1.940  0.0049  0.2882 -0.3041
 1130SOL    MW4 4649   2.903   2.841   1.967  0.0675  0.0629 -0.0278
 1131SOL     OW 4650   2.893   3.102   1.877  0.0418  0.2895 -0.1631
 1131SOL    HW2 4651   2.979   3.138   1.899 -0.7312  2.2112 -0.1594
 1131SOL    HW3 4652   2.831   3.167   1.911 -1.4626 -1.7477  1.0905
 1131SOL    MW4 4653   2.896   3.116   1.885 -0.2587  0.2747  0.0029
 1132SOL     OW 4654   2.680   3.242   1.981 -0.1949  0.1158 -0.3498
 1132SOL    HW2 4655   2.677   3.321   1.929  0.9264 -0.3166 -1.1004
 1132SOL    HW3 4656   2.608   3.188   1.949  0.7120 -0.3026 -1.7191
 1132SOL    MW4 4657   2.670   3.245   1.970  0.0730  0.0036 -0.6294
 1133SOL     OW 4658   2.677   3.507   1.858  0.1257 -0.0875  0.2501
 1133SOL    HW2 4659   2.748   3.558   1.898  0.7517  1.1712 -2.3223
 1133SOL    HW3 4660   2.598   3.557   1.878  0.3756  0.2595  0.3769
 1133SOL    MW4 4661   2.676   3.521   1.866  0.2413  0.1245 -0.0726
 1134SOL     OW 4662   2.906   3.619   1.974  0.2890 -0.0439 -0.0822
 1134SOL    HW2 4663   2.928   3.612   2.067 -0.9302  0.8209  0.2806
 1134SOL    HW3 4664   2.980   3.578   1.929  0.8508 -0.5478  1.2676
 1134SOL    MW4 4665   2.919   3.612   1.980  0.2022  0.0038  0.1439
 1135SOL     OW 4666   2.900   3.877   1.888  0.5189 -0.5224 -0.0072
 1135SOL    HW2 4667   2.906   3.784   1.911  0.1697 -0.3434  0.8136
 1135SOL    HW3 4668   2.897   3.877   1.792 -0.5988 -1.4334  0.0075
 1135SOL    MW4 4669   2.900   3.864   1.878  0.3254 -0.6189  0.1031
 1136SOL     OW 4670   2.669   4.021   1.934  0.6509 -0.9237  0.7163
 1136SOL    HW2 4671   2.748   3.976   1.904  0.8373 -0.6289  0.7659
 1136SOL    HW3 4672   2.597   3.963   1.908  0.9220 -1.4823  1.2049
 1136SOL    MW4 4673   2.670   4.007   1.927  0.7114 -0.9584  0.7873
 1137SOL     OW 4674   2.695   4.274   1.836 -0.1927 -0.6037  0.7934
 1137SOL    HW2 4675   2.655   4.192   1.863 -0.2866 -0.3899  1.3004
 1137SOL    HW3 4676   2.679   4.278   1.741 -1.0123 -0.7129  0.9229
 1137SOL    MW4 4677   2.687   4.264   1.827 -0.3128 -0.5898  0.8773
 1138SOL     OW 4678   2.899   4.415   1.955 -0.0102  0.5588 -0.4756
 1138SOL    HW2 4679   2.893   4.419   2.050  1.5193  0.8970 -0.3777
 1138SOL    HW3 4680   2.820   4.369   1.927  0.0922 -0.5670  1.0473
 1138SOL    MW4 4681   2.888   4.410   1.964  0.2050  0.4549 -0.2619
 1139SOL     OW 4682   3.370   4.653   1.875 -0.7622  0.4078 -0.2810
 1139SOL    HW2 4683   3.344   4.564   1.897  0.2090  0.2447  0.2444
 1139SOL    HW3 4684   3.381   4.652   1.780 -0.5887 -0.0799 -0.2573
 1139SOL    MW4 4685   3.368   4.641   1.865 -0.6113  0.3223 -0.2086
 1140SOL     OW 4686   3.138   0.119   1.961  0.1579 -0.0439 -0.0663
 1140SOL    HW2 4687   3.134   0.120   2.057  1.2891  0.8168 -0.0122
 1140SOL    HW3 4688   3.214   0.065   1.940  1.1491  1.4174 -0.3944
 1140SOL    MW4 4689   3.147   0.112   1.971  0.4377  0.2624 -0.1024
 1141SOL     OW 4690   3.132   0.371   1.832 -0.2584  0.3721 -0.1742
 1141SOL    HW2 4691   3.128   0.284   1.871  0.5350  0.0416 -0.8354
 1141SOL    HW3 4692   3.211   0.411   1.869 -0.4057  0.6672 -0.1732
 1141SOL    MW4 4693   3.142   0.365   1.842 -0.1733  0.3675 -0.2613
 1142SOL     OW 4694   3.347   0.470   1.987  0.0633  0.3480 -0.0613
 1142SOL    HW2 4695   3.418   0.421   1.945 -0.5648 -0.3763 -0.2861
 1142SOL    HW3 4696   3.362   0.561   1.961  0.9681  0.2174 -0.0198
 1142SOL    MW4 4697   3.358   0.475   1.978  0.0994  0.2352 -0.0855
 1143SOL     OW 4698   3.357   0.737   1.879 -0.0691 -0.3982 -0.4237
 1143SOL    HW2 4699   3.282   0.785   1.914  0.7959  0.8085 -0.2358
 1143SOL    HW3 4700   3.433   0.779   1.918  0.7265 -1.5259 -0.7397
 1143SOL    MW4 4701   3.357   0.749   1.889  0.1502 -0.3878 -0.4407
 1144SOL     OW 4702   3.151   0.833   2.010  0.1186  0.3395 -0.0866
 1144SOL    HW2 4703   3.160   0.837   2.105  0.4792  1.0875 -0.1422
 1144SOL    HW3 4704   3.135   0.924   1.984 -0.0690  0.1244 -0.7283
 1144SOL    MW4 4705   3.150   0.846   2.019  0.1414  0.4098 -0.1788
 1145SOL     OW 4706   3.125   1.118   1.892  0.0553  0.2588 -0.1279
 1145SOL    HW2 4707   3.199   1.160   1.935  0.9840 -1.0061 -0.4458
 1145SOL    HW3 4708   3.050   1.174   1.912  1.0893  1.5349  0.2226
 1145SOL    MW4 4709   3.125   1.131   1.900  0.3145  0.2604 -0.1236
 1146SOL     OW 4710   3.353   1.262   1.989 -0.1629  0.5429  0.0706
 1146SOL    HW2 4711   3.360   1.278   2.083  0.6378  0.4584  0.0345
 1146SOL    HW3 4712   3.339   1.349   1.950  1.0773  0.7890  0.1403
 1146SOL    MW4 4713   3.352   1.276   1.996  0.1063  0.5642  0.0750
 1147SOL     OW 4714   3.341   1.527   1.887 -0.1808 -0.4905  0.3635
 1147SOL    HW2 4715   3.429   1.551   1.916 -0.1861 -0.3524  0.2672
 1147SOL    HW3 4716   3.282   1.586   1.934 -0.1050  0.5934 -0.8623
 1147SOL    MW4 4717   3.345   1.538   1.897 -0.1719 -0.3294  0.1891
 1148SOL     OW 4718   3.164   1.694   1.993 -0.2610  0.3186 -0.1975
 1148SOL    HW2 4719   3.132   1.699   2.083  1.2835 -0.3773  0.4064
 1148SOL    HW3 4720   3.166   1.785   1.964 -0.4495  0.5812  0.5953
 1148SOL    MW4 4721   3.160   1.707   2.001 -0.0823  0.2614 -0.0131
 1149SOL     OW 4722   3.168   1.957   1.866  0.0464  0.4823  0.0420
 1149SOL    HW2 4723   3.246   2.000   1.902  0.4762 -0.7149  0.5532
 1149SOL    HW3 4724   3.178   1.966   1.771  0.6567  0.6026  0.1143
 1149SOL    MW4 4725   3.180   1.964   1.858  0.1838  0.3402  0.1190
 1150SOL     OW 4726   3.387   2.059   1.974 -0.0605  0.1791 -0.0038
 1150SOL    HW2 4727   3.472   2.017   1.960  0.4617  1.0559  0.4512
 1150SOL    HW3 4728   3.398   2.147   1.937 -0.5278  0.5427  0.7171
 1150SOL    MW4 4729   3.400   2.065   1.967 -0.0534  0.3428  0.1513
 1151SOL     OW 4730   3.382   2.307   1.843  0.3487  0.5738 -0.0611
 1151SOL    HW2 4731   3.467   2.344   1.865  0.2644  0.6118  0.1977
 1151SOL    HW3 4732   3.318   2.368   1.879  0.2100  0.2946  0.1749
 1151SOL    MW4 4733   3.385   2.320   1.851  0.3197  0.5422  0.0043
 1152SOL     OW 4734   3.132   2.433   1.959 -0.4615 -0.3689 -0.0276
 1152SOL    HW2 4735   3.147   2.427   2.053  0.8699 -0.9310 -0.2664
 1152SOL    HW3 4736   3.128   2.527   1.941  1.7929 -0.1903  0.2294
 1152SOL    MW4 4737   3.133   2.445   1.969  0.0117 -0.4196 -0.0253
 1153SOL     OW 4738   3.145   2.713   1.884 -0.0736  0.0286  0.3614
 1153SOL    HW2 4739   3.059   2.742   1.915  0.8390  2.4961  0.6952
 1153SOL    HW3 4740   3.132   2.692   1.792 -0.9091  0.9603  0.2640
 1153SOL    MW4 4741   3.132   2.714   1.876 -0.0632  0.4771  0.3924
 1154SOL     OW 4742   3.369   2.817   2.011 -0.3958  0.1451 -0.2632
 1154SOL    HW2 4743   3.356   2.817   2.105 -1.6463 -1.0700 -0.4230
 1154SOL    HW3 4744   3.284   2.794   1.974  0.3793 -0.6031 -1.6416
 1154SOL    MW4 4745   3.356   2.814   2.018 -0.4587 -0.1137 -0.4663
 1155SOL     OW 4746   3.360   3.080   1.904  0.0173  0.2514 -0.1895
 1155SOL    HW2 4747   3.438   3.118   1.943  0.1657  1.3210 -1.5133
 1155SOL    HW3 4748   3.359   2.989   1.936 -0.1067  1.2022  2.6090
 1155SOL    MW4 4749   3.370   3.073   1.913  0.0205  0.5178  0.0051
 1156SOL     OW 4750   3.123   3.240   1.970  0.0562 -0.1399  0.0529
 1156SOL    HW2 4751   3.123   3.324   1.926 -1.2031 -0.2450 -0.1746
 1156SOL    HW3 4752   3.193   3.190   1.928 -0.0472  0.3395 -0.6947
 1156SOL    MW4 4753   3.132   3.244   1.959 -0.1235 -0.0906 -0.0757
 1157SOL     OW 4754   3.135   3.499   1.871  0.5946 -0.1278 -0.3795
 1157SOL    HW2 4755   3.216   3.533   1.911  0.9710 -0.2834 -1.0033
 1157SOL    HW3 4756   3.150   3.506   1.777  1.0969 -2.9361 -0.5747
 1157SOL    MW4 4757   3.148   3.504   1.864  0.7102 -0.5190 -0.4876
 1158SOL     OW 4758   3.378   3.606   1.989 -0.3433 -0.3622  0.0693
 1158SOL    HW2 4759   3.465   3.568   1.972 -0.5684 -1.1871  0.7205
 1158SOL    HW3 4760   3.376   3.686   1.936  1.2117  0.2038  0.8278
 1158SOL    MW4 4761   3.389   3.611   1.980 -0.1678 -0.3965  0.2553
 1159SOL     OW 4762   3.352   3.850   1.854  0.0400  0.4154  0.2091
 1159SOL    HW2 4763   3.285   3.917   1.866  1.1639  1.6485 -0.3731
 1159SOL    HW3 4764   3.380   3.860   1.763  1.3556  0.2174  0.5912
 1159SOL    MW4 4765   3.347   3.860   1.843  0.3617  0.5522  0.1827
 1160SOL     OW 4766   3.123   4.007   1.973  0.3877  0.1276 -0.4249
 1160SOL    HW2 4767   3.142   4.011   2.067 -1.5914  1.7852 -0.0701
 1160SOL    HW3 4768   3.052   3.943   1.965  1.4070 -0.9701 -0.9756
 1160SOL    MW4 4769   3.116   3.999   1.984  0.2611  0.2012 -0.4506
 1161SOL     OW 4770   3.105   4.258   1.830 -0.5062  0.8114  0.0526
 1161SOL    HW2 4771   3.099   4.173   1.874  2.0541  0.5712  0.0260
 1161SOL    HW3 4772   3.023   4.302   1.851 -1.5287 -1.3447  0.7395
 1161SOL    MW4 4773   3.093   4.253   1.838 -0.3033  0.4950  0.1397
 1162SOL     OW 4774   3.297   4.403   1.957 -0.1872  0.2886  0.2377
 1162SOL    HW2 4775   3.373   4.358   1.918  0.3058  2.2886 -1.2231
 1162SOL    HW3 4776   3.222   4.354   1.925  0.2935  1.0177 -2.1107
 1162SOL    MW4 4777   3.297   4.390   1.947 -0.0587  0.6490 -0.2649
 1163SOL     OW 4778   3.837   4.647   1.887  0.3585  0.4476  0.2202
 1163SOL    HW2 4779   3.825   4.554   1.905  0.2237  0.3309 -0.4675
 1163SOL    HW3 4780   3.749   4.684   1.886  0.3312  0.3797 -0.5661
 1163SOL    MW4 4781   3.824   4.639   1.889  0.3369  0.4225  0.0256
 1164SOL     OW 4782   3.608   0.119   1.941 -0.0051  0.2897  0.0590
 1164SOL    HW2 4783   3.609   0.114   2.037 -1.2054  0.1091  0.0613
 1164SOL    HW3 4784   3.524   0.082   1.916 -0.2579  1.5833 -1.0128
 1164SOL    MW4 4785   3.597   0.113   1.951 -0.1969  0.4365 -0.0820
 1165SOL     OW 4786   3.583   0.378   1.850 -0.3798 -0.0227  0.2259
 1165SOL    HW2 4787   3.574   0.385   1.755 -2.0717  1.6042  0.4711
 1165SOL    HW3 4788   3.591   0.285   1.867 -1.4095 -0.4321 -1.4113
 1165SOL    MW4 4789   3.583   0.367   1.840 -0.7386  0.1380  0.0423
 1166SOL     OW 4790   3.785   0.480   2.008 -0.0039  0.1523  0.5166
 1166SOL    HW2 4791   3.784   0.573   1.985  0.7356  0.1655  0.5165
 1166SOL    HW3 4792   3.723   0.440   1.946 -1.5861  0.8760  1.5989
 1166SOL    MW4 4793   3.777   0.487   1.997 -0.1152  0.2495  0.6592
 1167SOL     OW 4794   3.803   0.720   1.906  0.0392 -0.3335 -0.3683
 1167SOL    HW2 4795   3.713   0.751   1.916  0.0068 -0.5264 -0.0462
 1167SOL    HW3 4796   3.813   0.703   1.813  0.0184  0.5483 -0.5355
 1167SOL    MW4 4797   3.792   0.722   1.895  0.0322 -0.2427 -0.3480
 1168SOL     OW 4798   3.579   0.876   1.970  0.1993 -0.2404  0.1953
 1168SOL    HW2 4799   3.584   0.970   1.953  1.6954 -0.4236 -0.4040
 1168SOL    HW3 4800   3.599   0.868   2.063  0.5279 -0.0061  0.1472
 1168SOL    MW4 4801   3.582   0.887   1.980  0.4399 -0.2337  0.1099
 1169SOL     OW 4802   3.598   1.137   1.890 -0.2066 -0.3323  0.0087
 1169SOL    HW2 4803   3.519   1.192   1.891 -0.9773 -1.3783 -1.7764
 1169SOL    HW3 4804   3.614   1.120   1.798  1.2221 -1.4130  0.4465
 1169SOL    MW4 4805   3.589   1.142   1.878 -0.1199 -0.6127 -0.1692
 1170SOL     OW 4806   3.833   1.252   1.975 -0.6734  0.7902  0.2025
 1170SOL    HW2 4807   3.831   1.272   2.069  0.8474  0.5432  0.2985
 1170SOL    HW3 4808   3.746   1.218   1.956 -0.5007 -0.6635  1.8681
 1170SOL    MW4 4809   3.822   1.250   1.985 -0.4501  0.5658  0.4349
 1171SOL     OW 4810   3.840   1.524   1.873  0.1397  0.1814  0.2654
 1171SOL    HW2 4811   3.911   1.572   1.915  0.4547 -0.0786  0.0352
 1171SOL    HW3 4812   3.853   1.433   1.900 -0.1768  0.1498  0.3200
 1171SOL    MW4 4813   3.851   1.518   1.882  0.1397  0.1429  0.2422
 1172SOL     OW 4814   3.590   1.623   1.969 -0.1610  0.0952  0.3768
 1172SOL    HW2 4815   3.596   1.717   1.953  0.0458  0.0396  0.1263
 1172SOL    HW3 4816   3.667   1.586   1.925 -0.5205 -0.2491  0.0301
 1172SOL    MW4 4817   3.601   1.630   1.961 -0.1812  0.0424  0.2981
 1173SOL     OW 4818   3.598   1.894   1.862 -0.1450  0.1921 -0.0037
 1173SOL    HW2 4819   3.684   1.918   1.896 -1.2142  1.7000  1.6944
 1173SOL    HW3 4820   3.603   1.912   1.768  1.0406  1.2974  0.2681
 1173SOL    MW4 4821   3.610   1.900   1.854 -0.1297  0.5369  0.2563
 1174SOL     OW 4822   3.846   2.021   1.936 -0.0548 -0.4172  0.7635
 1174SOL    HW2 4823   3.923   1.980   1.897 -0.2936 -0.5767  0.4522
 1174SOL    HW3 4824   3.856   2.114   1.915  0.2754 -0.3739  1.1078
 1174SOL    MW4 4825   3.857   2.028   1.928 -0.0427 -0.4325  0.7679
 1175SOL     OW 4826   3.874   2.285   1.889  0.2425  0.1035 -0.0500
 1175SOL    HW2 4827   3.945   2.348   1.905  0.1659  0.3885 -0.8249
 1175SOL    HW3 4828   3.796   2.326   1.927  0.4372 -0.0867  0.5587
 1175SOL    MW4 4829   3.873   2.299   1.896  0.2580  0.1161 -0.0718
 1176SOL     OW 4830   3.637   2.409   1.956 -0.7366 -0.9139  0.0098
 1176SOL    HW2 4831   3.619   2.416   2.050 -0.1869 -1.2742  0.1411
 1176SOL    HW3 4832   3.612   2.495   1.921  0.5898 -0.2106  0.7452
 1176SOL    MW4 4833   3.631   2.422   1.964 -0.4890 -0.8688  0.1242
 1177SOL     OW 4834   3.583   2.680   1.881  0.3203  0.5800  0.0775
 1177SOL    HW2 4835   3.660   2.735   1.895  0.1484  1.0689 -0.8339
 1177SOL    HW3 4836   3.517   2.714   1.940  0.5247  0.7293  0.2184
 1177SOL    MW4 4837   3.585   2.692   1.891  0.3242  0.6640 -0.0241
 1178SOL     OW 4838   3.773   2.842   1.968  0.4050  0.2724  0.2272
 1178SOL    HW2 4839   3.791   2.827   2.061  0.2094  0.1270  0.2424
 1178SOL    HW3 4840   3.764   2.938   1.961  1.2118  0.3460  0.2108
 1178SOL    MW4 4841   3.774   2.853   1.980  0.4857  0.2627  0.2272
 1179SOL     OW 4842   3.791   3.109   1.913 -0.2776  0.2146 -0.4335
 1179SOL    HW2 4843   3.710   3.157   1.932  0.5554  1.5117 -0.0086
 1179SOL    HW3 4844   3.809   3.127   1.821 -1.5654 -1.7992 -1.1031
 1179SOL    MW4 4845   3.783   3.118   1.903 -0.3374  0.1202 -0.4659
 1180SOL     OW 4846   3.564   3.245   2.007  0.4945  0.0391  0.0255
 1180SOL    HW2 4847   3.570   3.242   2.102  0.3617  0.4708  0.0485
 1180SOL    HW3 4848   3.592   3.333   1.984 -2.6711  1.0484 -0.1030
 1180SOL    MW4 4849   3.569   3.256   2.016  0.0594  0.2294  0.0117
 1181SOL     OW 4850   3.611   3.500   1.906 -0.2286  0.1041  0.4521
 1181SOL    HW2 4851   3.706   3.515   1.914 -0.2362  0.1604  0.4362
 1181SOL    HW3 4852   3.598   3.478   1.814 -0.1057 -0.8010  0.6430
 1181SOL    MW4 4853   3.622   3.499   1.895 -0.2134 -0.0079  0.4752
 1182SOL     OW 4854   3.870   3.607   1.952 -0.2063 -0.1373  0.0231
 1182SOL    HW2 4855   3.954   3.577   1.916 -0.1711  0.1892 -0.1681
 1182SOL    HW3 4856   3.858   3.694   1.915 -0.7782 -0.3054 -0.1918
 1182SOL    MW4 4857   3.879   3.615   1.942 -0.2768 -0.1166 -0.0304
 1183SOL     OW 4858   3.809   3.848   1.838  0.0088  0.0818 -0.1386
 1183SOL    HW2 4859   3.721   3.883   1.855  1.1821  2.5773  0.9350
 1183SOL    HW3 4860   3.816   3.848   1.742 -1.2261 -0.3019 -0.2364
 1183SOL    MW4 4861   3.798   3.853   1.827  0.0007  0.3605 -0.0097
 1184SOL     OW 4862   3.589   4.019   1.923 -0.1414 -0.0112 -0.2450
 1184SOL    HW2 4863   3.574   4.036   2.016 -1.0818  1.0076 -0.5784
 1184SOL    HW3 4864   3.522   3.955   1.900 -0.3187  0.2268 -0.3828
 1184SOL    MW4 4865   3.579   4.013   1.932 -0.2890  0.1545 -0.3071
 1185SOL     OW 4866   3.536   4.297   1.861 -0.6109  0.0256 -0.2102
 1185SOL    HW2 4867   3.619   4.325   1.900 -1.8372  1.5262  1.3770
 1185SOL    HW3 4868   3.531   4.203   1.880  1.0808 -0.2330 -0.9989
 1185SOL    MW4 4869   3.546   4.288   1.869 -0.5496  0.1903 -0.1049
 1186SOL     OW 4870   3.787   4.363   1.958  0.5443  0.0863 -0.1543
 1186SOL    HW2 4871   3.782   4.365   2.053  0.3931  0.4772 -0.1690
 1186SOL    HW3 4872   3.875   4.328   1.939  0.6172  0.1208  0.1264
 1186SOL    MW4 4873   3.798   4.359   1.968  0.5341  0.1426 -0.1193
 1187SOL     OW 4874   4.275   4.603   1.882 -0.2403 -0.2351 -1.0355
 1187SOL    HW2 4875   4.199   4.656   1.908  1.4397  0.8962  1.8141
 1187SOL    HW3 4876   4.350   4.657   1.905  1.4782 -2.1996 -1.8968
 1187SOL    MW4 4877   4.275   4.617   1.889  0.2084 -0.3452 -0.7732
 1188SOL     OW 4878   4.062   0.082   2.000  1.0251 -0.3422 -0.1629
 1188SOL    HW2 4879   4.045   0.093   2.094  1.2712 -1.5188  0.0260
 1188SOL    HW3 4880   3.984   0.037   1.967  1.0785 -0.2122 -0.4603
 1188SOL    MW4 4881   4.049   0.077   2.008  1.0648 -0.4803 -0.1769
 1189SOL     OW 4882   4.025   0.341   1.910 -0.1232 -0.1201 -0.1369
 1189SOL    HW2 4883   4.020   0.252   1.945  1.3035 -0.0474  0.2746
 1189SOL    HW3 4884   3.947   0.384   1.945 -0.4795 -1.0197  0.1953
 1189SOL    MW4 4885   4.014   0.335   1.919  0.0181 -0.2292 -0.0389
 1190SOL     OW 4886   4.276   0.479   2.006 -0.4074  0.0025  0.1862
 1190SOL    HW2 4887   4.277   0.490   2.102  0.4203  1.3008  0.0440
 1190SOL    HW3 4888   4.195   0.432   1.988 -1.0577  0.6176  1.4387
 1190SOL    MW4 4889   4.266   0.474   2.017 -0.3834  0.2549  0.3328
 1191SOL     OW 4890   4.302   0.736   1.890 -0.2130  0.2179  0.7351
 1191SOL    HW2 4891   4.301   0.645   1.921  0.9275  0.1186  0.4981
 1191SOL    HW3 4892   4.297   0.729   1.795 -1.2714  0.4472  0.7672
 1191SOL    MW4 4893   4.301   0.723   1.882 -0.2022  0.2351  0.7080
 1192SOL     OW 4894   4.035   0.864   1.994 -0.7723 -0.3357 -0.0193
 1192SOL    HW2 4895   4.107   0.809   1.962 -0.0410  2.1106 -2.8279
 1192SOL    HW3 4896   3.956   0.816   1.970 -0.1228 -1.4520  0.0496
 1192SOL    MW4 4897   4.034   0.850   1.987 -0.5898 -0.1603 -0.3809
 1193SOL     OW 4898   4.030   1.112   1.851 -0.5902  0.1234 -0.1983
 1193SOL    HW2 4899   4.033   1.023   1.887 -0.6087 -0.1973 -0.9875
 1193SOL    HW3 4900   3.963   1.156   1.903 -1.9290 -0.8786 -1.0699
 1193SOL    MW4 4901   4.022   1.106   1.863 -0.7691 -0.0511 -0.4174
 1194SOL     OW 4902   4.255   1.286   1.939  0.1607  0.0340 -0.0980
 1194SOL    HW2 4903   4.244   1.280   2.034  0.5643 -1.7367 -0.1537
 1194SOL    HW3 4904   4.190   1.225   1.903 -0.7367  1.4931 -1.0157
 1194SOL    MW4 4905   4.245   1.277   1.947  0.0954 -0.0072 -0.2264
 1195SOL     OW 4906   4.260   1.549   1.834  0.3268 -0.1364 -0.0495
 1195SOL    HW2 4907   4.250   1.460   1.869 -0.4280 -0.1846 -0.3928
 1195SOL    HW3 4908   4.226   1.544   1.745 -1.7707  1.0305  0.6675
 1195SOL    MW4 4909   4.254   1.536   1.827 -0.0496  0.0111 -0.0002
 1196SOL     OW 4910   4.043   1.656   1.962 -0.0505 -0.2483  0.2072
 1196SOL    HW2 4911   4.126   1.621   1.928  0.6720  0.1005  1.5562
 1196SOL    HW3 4912   4.053   1.652   2.057 -1.6136 -0.2347  0.3740
 1196SOL    MW4 4913   4.055   1.651   1.970 -0.1616 -0.2005  0.4072
 1197SOL     OW 4914   4.079   1.910   1.848 -0.1618  0.3549 -0.1203
 1197SOL    HW2 4915   4.066   1.824   1.887  2.0389  0.4114  0.8293
 1197SOL    HW3 4916   4.076   1.894   1.754 -0.2933 -0.6837  0.0538
 1197SOL    MW4 4917   4.077   1.897   1.841  0.1111  0.2253  0.0280
 1198SOL     OW 4918   4.294   2.069   1.961  0.2642 -0.3365  0.0130
 1198SOL    HW2 4919   4.285   2.088   2.054 -0.1922 -0.6083  0.0215
 1198SOL    HW3 4920   4.216   2.019   1.938  0.3635 -0.2548 -0.5205
 1198SOL    MW4 4921   4.283   2.065   1.970  0.2174 -0.3617 -0.0563
 1199SOL     OW 4922   4.275   2.316   1.819 -0.3144 -0.0811 -0.0820
 1199SOL    HW2 4923   4.270   2.229   1.858 -0.6614  0.2206  0.5517
 1199SOL    HW3 4924   4.351   2.356   1.861 -1.3820  0.6652  1.1455
 1199SOL    MW4 4925   4.284   2.310   1.830 -0.5007  0.0575  0.1637
 1200SOL     OW 4926   4.073   2.459   1.934 -0.2850  0.2090 -0.4869
 1200SOL    HW2 4927   4.065   2.433   2.025 -2.5133 -1.7374 -1.1873
 1200SOL    HW3 4928   4.146   2.407   1.900  0.1612  0.4960  0.0371
 1200SOL    MW4 4929   4.081   2.449   1.941 -0.5198 -0.0100 -0.5102
 1201SOL     OW 4930   4.026   2.739   1.903  0.3123  0.2304  0.2648
 1201SOL    HW2 4931   4.022   2.646   1.926  0.0388 -0.1209 -1.1765
 1201SOL    HW3 4932   3.942   2.774   1.934  1.0118  0.3175  2.1165
 1201SOL    MW4 4933   4.014   2.731   1.910  0.3681  0.1955  0.3190
 1202SOL     OW 4934   4.292   2.816   2.001 -0.0678 -0.0766 -0.4108
 1202SOL    HW2 4935   4.268   2.807   2.093 -0.4883  2.2595 -0.2459
 1202SOL    HW3 4936   4.211   2.799   1.954 -0.7209  2.0974 -0.1415
 1202SOL    MW4 4937   4.278   2.813   2.007 -0.2098  0.5183 -0.3533
 1203SOL     OW 4938   4.281   3.067   1.915  0.0568  0.2068 -0.2004
 1203SOL    HW2 4939   4.191   3.092   1.936  0.1859  0.8892 -0.4599
 1203SOL    HW3 4940   4.291   2.980   1.954 -0.2117  0.7765  1.1507
 1203SOL    MW4 4941   4.270   3.059   1.923  0.0377  0.3719 -0.0564
 1204SOL     OW 4942   4.054   3.203   1.996  0.0212  0.0786 -0.0676
 1204SOL    HW2 4943   4.061   3.208   2.091  1.1518 -1.0098 -0.0744
 1204SOL    HW3 4944   3.964   3.174   1.980  0.4345 -1.7391  0.7663
 1204SOL    MW4 4945   4.043   3.200   2.006  0.2246 -0.3049  0.0417
 1205SOL     OW 4946   4.096   3.437   1.847  0.2339 -0.4376 -0.3750
 1205SOL    HW2 4947   4.159   3.490   1.896 -0.5257  1.1867 -1.1048
 1205SOL    HW3 4948   4.093   3.353   1.894 -1.6884  1.6178  3.4328
 1205SOL    MW4 4949   4.104   3.433   1.860 -0.1202  0.0479  0.0310
 1206SOL     OW 4950   4.257   3.616   1.987  0.0398 -0.2519  0.1762
 1206SOL    HW2 4951   4.245   3.706   1.959  0.5764  0.2311  1.4765
 1206SOL    HW3 4952   4.334   3.586   1.938 -0.2377 -0.0591 -0.3789
 1206SOL    MW4 4953   4.266   3.624   1.977  0.0744 -0.1628  0.2744
 1207SOL     OW 4954   4.226   3.880   1.890 -0.2309  0.1324 -0.2169
 1207SOL    HW2 4955   4.301   3.933   1.914 -0.5782  1.2968 -1.6432
 1207SOL    HW3 4956   4.237   3.862   1.797 -2.8705  2.3118 -1.0401
 1207SOL    MW4 4957   4.237   3.884   1.881 -0.6247  0.5734 -0.5137
 1208SOL     OW 4958   4.012   4.026   1.939  0.0935 -0.1130 -0.0483
 1208SOL    HW2 4959   4.081   3.966   1.911  0.0057  0.2311 -1.0472
 1208SOL    HW3 4960   3.931   3.985   1.908 -0.0205  0.1846 -0.1482
 1208SOL    MW4 4961   4.011   4.013   1.931  0.0668 -0.0286 -0.1932
 1209SOL     OW 4962   4.039   4.281   1.846  0.2385  0.1568  0.2277
 1209SOL    HW2 4963   4.107   4.328   1.895  0.7005  0.3623 -0.5972
 1209SOL    HW3 4964   4.038   4.194   1.885 -0.2376  0.6763  1.3961
 1209SOL    MW4 4965   4.048   4.276   1.858  0.2365  0.2522  0.2730
 1210SOL     OW 4966   4.256   4.371   2.007 -0.0284 -0.0350  0.3067
 1210SOL    HW2 4967   4.281   4.390   2.098 -3.2223 -0.3656  1.3048
 1210SOL    HW3 4968   4.262   4.455   1.962  1.6279  0.1159  0.7745
 1210SOL    MW4 4969   4.260   4.385   2.013 -0.2313 -0.0596  0.5000
 1211SOL     OW 4970   0.196   4.619   2.370  0.4805  0.1225 -0.0518
 1211SOL    HW2 4971   0.190   4.636   2.464 -1.7888  0.7320 -0.2786
 1211SOL    HW3 4972   0.271   4.672   2.342  1.9768 -1.0422  1.5861
 1211SOL    MW4 4973   0.205   4.628   2.379  0.3785  0.0491  0.1345
 1212SOL     OW 4974   4.469   0.103   2.287 -0.1438  0.1534  0.0926
 1212SOL    HW2 4975   4.548   0.051   2.301 -0.8312 -1.3371 -1.2993
 1212SOL    HW3 4976   4.453   0.097   2.192 -1.8514  0.5139  0.3304
 1212SOL    MW4 4977   4.477   0.096   2.276 -0.4597  0.0043 -0.0598
 1213SOL     OW 4978   4.468   0.372   2.351  0.1703 -0.1180 -0.0222
 1213SOL    HW2 4979   4.554   0.411   2.334  0.8168 -1.1656  0.7767
 1213SOL    HW3 4980   4.466   0.293   2.297 -0.1477 -0.2774  0.2209
 1213SOL    MW4 4981   4.479   0.367   2.342  0.2136 -0.2772  0.1152
 1214SOL     OW 4982   0.231   0.491   2.296  0.2062 -0.1464 -0.8287
 1214SOL    HW2 4983   0.294   0.424   2.324 -0.8792 -0.8657 -0.0444
 1214SOL    HW3 4984   0.225   0.480   2.201  0.3156 -0.9240 -0.7529
 1214SOL    MW4 4985   0.238   0.481   2.288  0.0775 -0.3439 -0.7153
 1215SOL     OW 4986   0.221   0.777   2.343  0.0550  0.4951  0.0683
 1215SOL    HW2 4987   0.209   0.783   2.438 -0.8241 -0.0442 -0.0051
 1215SOL    HW3 4988   0.232   0.684   2.326 -0.3043  0.5409 -0.4241
 1215SOL    MW4 4989   0.221   0.766   2.353 -0.1084  0.4299 -0.0064
 1216SOL     OW 4990   4.476   0.854   2.262  0.1274  0.0004 -0.6647
 1216SOL    HW2 4991   4.558   0.818   2.296 -0.8930 -1.5587  0.2070
 1216SOL    HW3 4992   4.491   0.863   2.168  1.8908  1.3646 -0.2694
 1216SOL    MW4 4993   4.489   0.850   2.254  0.2255 -0.0253 -0.4976
 1217SOL     OW 4994   4.455   1.125   2.320 -0.2845  0.3806 -0.1553
 1217SOL    HW2 4995   4.459   1.132   2.416  2.1435  0.5306 -0.2409
 1217SOL    HW3 4996   4.445   1.032   2.303  1.2220  0.1430  0.2094
 1217SOL    MW4 4997   4.454   1.114   2.330  0.2346  0.3691 -0.1185
 1218SOL     OW 4998   0.192   1.271   2.291  0.5355  0.4244 -0.1199
 1218SOL    HW2 4999   0.128   1.202   2.307 -1.4261  2.0702 -0.6415
 1218SOL    HW3 5000   0.198   1.276   2.195  0.5915  1.0542 -0.0830
 1218SOL    MW4 5001   0.184   1.262   2.280  0.2841  0.7247 -0.1843
 1219SOL     OW 5002   0.186   1.533   2.357  0.2062 -0.2402 -0.1744
 1219SOL    HW2 5003   0.191   1.541   2.452 -0.0380 -0.9931 -0.0976
 1219SOL    HW3 5004   0.184   1.439   2.340  0.5327 -0.1189 -0.9429
 1219SOL    MW4 5005   0.187   1.522   2.367  0.2171 -0.3235 -0.2654
 1220SOL     OW 5006   4.449   1.632   2.263  0.4319 -0.3209 -0.0508
 1220SOL    HW2 5007   4.474   1.723   2.280  0.8844 -0.3194 -0.6992
 1220SOL    HW3 5008   4.517   1.580   2.306 -0.7287 -0.3985  1.7691
 1220SOL    MW4 5009   4.461   1.637   2.271  0.3390 -0.3309  0.1040
 1221SOL     OW 5010   0.007   1.902   2.283 -0.3984 -0.1276 -0.3515
 1221SOL    HW2 5011  -0.072   1.950   2.260 -0.4957  0.3174  0.8951
 1221SOL    HW3 5012   0.078   1.962   2.263 -0.4067 -0.2438 -0.7435
 1221SOL    MW4 5013   0.006   1.916   2.277 -0.4125 -0.0840 -0.2387
 1222SOL     OW 5014   0.194   2.120   2.249 -0.3033  0.1755 -0.1351
 1222SOL    HW2 5015   0.263   2.071   2.294 -1.0251 -1.2439 -0.5267
 1222SOL    HW3 5016   0.209   2.103   2.156  0.2403  1.8098 -0.3581
 1222SOL    MW4 5017   0.205   2.111   2.242 -0.3268  0.2038 -0.2160
 1223SOL     OW 5018   0.196   2.380   2.359  0.1144  0.2034  0.0528
 1223SOL    HW2 5019   0.188   2.357   2.452  0.7139 -0.7061 -0.1132
 1223SOL    HW3 5020   0.200   2.296   2.314  0.6076  0.6404 -0.7266
 1223SOL    MW4 5021   0.195   2.366   2.366  0.2585  0.1407 -0.0718
 1224SOL     OW 5022   4.454   2.464   2.236 -0.7206  0.1571  0.1035
 1224SOL    HW2 5023   4.452   2.555   2.267  0.5916  0.2681 -0.1140
 1224SOL    HW3 5024   4.536   2.428   2.271 -0.5497 -0.5302 -0.9695
 1224SOL    MW4 5025   4.464   2.471   2.245 -0.5245  0.0808 -0.0670
 1225SOL     OW 5026   4.469   2.714   2.343 -0.0187  0.9955  0.0342
 1225SOL    HW2 5027   4.477   2.686   2.434 -0.9287  1.6793  0.3384
 1225SOL    HW3 5028   4.535   2.783   2.332 -0.3494  1.3689  0.3675
 1225SOL    MW4 5029   4.478   2.719   2.354 -0.1822  1.1349  0.1185
 1226SOL     OW 5030   0.199   2.881   2.264  0.0359  0.5712  0.0816
 1226SOL    HW2 5031   0.275   2.828   2.291 -0.5373 -0.3680 -0.1258
 1226SOL    HW3 5032   0.200   2.876   2.168 -1.1432 -0.6764  0.1240
 1226SOL    MW4 5033   0.209   2.873   2.255 -0.1953  0.2825  0.0598
 1227SOL     OW 5034   0.182   3.149   2.344 -0.0753 -0.0949  0.2976
 1227SOL    HW2 5035   0.119   3.193   2.288 -1.4969 -0.9681  1.1864
 1227SOL    HW3 5036   0.173   3.056   2.324  0.3162 -0.3029  1.0391
 1227SOL    MW4 5037   0.173   3.143   2.334 -0.2112 -0.2375  0.5128
 1228SOL     OW 5038   4.483   3.292   2.207  0.2132  0.5463 -0.2119
 1228SOL    HW2 5039   4.486   3.380   2.244  1.1463 -0.0387  1.1369
 1228SOL    HW3 5040   4.407   3.251   2.247 -0.5534  0.9061 -1.2664
 1228SOL    MW4 5041   4.474   3.298   2.217  0.2356  0.5167 -0.1729
 1229SOL     OW 5042   0.032   3.555   2.356 -0.5940  0.0155  0.4475
 1229SOL    HW2 5043   0.021   3.508   2.439 -1.4037  0.3459  0.5311
 1229SOL    HW3 5044  -0.053   3.595   2.340  0.0995  1.5217  0.4149
 1229SOL    MW4 5045   0.020   3.554   2.365 -0.6093  0.2575  0.4542
 1230SOL     OW 5046   0.238   3.661   2.226 -0.0153  0.1772 -0.0945
 1230SOL    HW2 5047   0.310   3.605   2.254  0.3533  0.8813  0.3871
 1230SOL    HW3 5048   0.163   3.632   2.278  0.0553 -0.1938 -0.1999
 1230SOL    MW4 5049   0.238   3.650   2.236  0.0426  0.2213 -0.0448
 1231SOL     OW 5050   0.176   3.906   2.349 -0.2616  0.4400 -0.1333
 1231SOL    HW2 5051   0.106   3.946   2.297 -1.3653  0.8215  1.6233
 1231SOL    HW3 5052   0.195   3.824   2.304 -1.4277  0.6014 -0.9517
 1231SOL    MW4 5053   0.169   3.901   2.336 -0.5611  0.5114 -0.0093
 1232SOL     OW 5054   4.456   4.030   2.240 -0.1936 -0.1595 -0.0510
 1232SOL    HW2 5055   4.485   4.107   2.289  0.8344  0.0800 -1.0197
 1232SOL    HW3 5056   4.443   4.062   2.151 -0.0886 -1.0319 -0.3827
 1232SOL    MW4 5057   4.458   4.044   2.235 -0.0439 -0.2427 -0.2224
 1233SOL     OW 5058   0.032   4.263   2.357  0.0154 -0.6769  0.1519
 1233SOL    HW2 5059   0.051   4.253   2.450  0.7850 -0.8431 -0.0161
 1233SOL    HW3 5060   0.111   4.303   2.320 -0.6199  0.1844 -0.2820
 1233SOL    MW4 5061   0.045   4.267   2.364  0.0331 -0.5846  0.0725
 1234SOL     OW 5062   0.242   4.383   2.244 -0.0415 -0.0618  0.3980
 1234SOL    HW2 5063   0.321   4.356   2.289  0.2889  0.8893  0.4099
 1234SOL    HW3 5064   0.219   4.467   2.283 -0.4360  0.1919 -0.3566
 1234SOL    MW4 5065   0.249   4.391   2.255 -0.0500  0.0973  0.3002
 1235SOL     OW 5066   0.636   4.623   2.363  0.5096 -0.1212  0.0191
 1235SOL    HW2 5067   0.656   4.611   2.456 -0.8213  1.3814  0.5143
 1235SOL    HW3 5068   0.711   4.672   2.328  0.7187 -0.1572  0.4202
 1235SOL    MW4 5069   0.649   4.628   2.370  0.3615  0.0725  0.1373
 1236SOL     OW 5070   0.410   0.088   2.274 -0.0882  0.0204  0.3599
 1236SOL    HW2 5071   0.493   0.044   2.296 -0.2618 -0.2754  0.4326
 1236SOL    HW3 5072   0.407   0.086   2.178  0.7643  1.4857  0.2914
 1236SOL    MW4 5073   0.421   0.082   2.264  0.0014  0.1747  0.3605
 1237SOL     OW 5074   0.446   0.341   2.377 -0.2961 -0.0080 -0.1459
 1237SOL    HW2 5075   0.445   0.340   2.473 -0.5063  1.1886 -0.1305
 1237SOL    HW3 5076   0.426   0.251   2.352  0.0592 -0.3881  0.9369
 1237SOL    MW4 5077   0.443   0.329   2.386 -0.2770  0.0997 -0.0012
 1238SOL     OW 5078   0.662   0.494   2.246  0.2708  0.1373  0.4360
 1238SOL    HW2 5079   0.671   0.579   2.289 -1.6350  0.9605 -0.7107
 1238SOL    HW3 5080   0.582   0.456   2.285 -0.1731 -0.1071 -0.6978
 1238SOL    MW4 5081   0.652   0.500   2.257 -0.0393  0.2137  0.1349
 1239SOL     OW 5082   0.694   0.758   2.399  0.0850  0.2525  0.2590
 1239SOL    HW2 5083   0.681   0.766   2.494 -0.1267 -1.9673  0.4464
 1239SOL    HW3 5084   0.622   0.809   2.361 -0.5422  0.1641  1.2926
 1239SOL    MW4 5085   0.683   0.766   2.407 -0.0257 -0.0521  0.4199
 1240SOL     OW 5086   0.470   0.906   2.275  0.4120  0.2040  0.1081
 1240SOL    HW2 5087   0.392   0.851   2.286  0.6530  0.1522  1.5416
 1240SOL    HW3 5088   0.474   0.922   2.180 -0.4921 -1.0248 -0.1470
 1240SOL    MW4 5089   0.460   0.901   2.264  0.3245  0.0350  0.2635
 1241SOL     OW 5090   0.424   1.126   2.427  0.1952 -0.3920 -0.0132
 1241SOL    HW2 5091   0.428   1.046   2.374  1.6650  0.6754 -1.5676
 1241SOL    HW3 5092   0.352   1.176   2.388 -0.1239 -0.5531  0.3704
 1241SOL    MW4 5093   0.415   1.122   2.415  0.3470 -0.2723 -0.1676
 1242SOL     OW 5094   0.623   1.240   2.274  0.4920  0.4109 -0.0863
 1242SOL    HW2 5095   0.601   1.332   2.289 -0.4555 -0.0778  1.7585
 1242SOL    HW3 5096   0.559   1.192   2.326  2.8519 -1.2011  1.4397
 1242SOL    MW4 5097   0.612   1.246   2.283  0.6783  0.1339  0.3583
 1243SOL     OW 5098   0.595   1.532   2.367 -0.2379  0.0862  0.0119
 1243SOL    HW2 5099   0.624   1.523   2.458 -0.3129 -0.1179  0.0162
 1243SOL    HW3 5100   0.656   1.595   2.329  0.2007 -0.3248  0.0296
 1243SOL    MW4 5101   0.607   1.539   2.374 -0.1899  0.0051  0.0145
 1244SOL     OW 5102   0.399   1.686   2.256  0.4735 -0.2235  0.0238
 1244SOL    HW2 5103   0.455   1.629   2.309  0.9916 -0.1468 -0.4316
 1244SOL    HW3 5104   0.316   1.639   2.249  0.0799  0.2221  1.7158
 1244SOL    MW4 5105   0.396   1.672   2.262  0.4899 -0.1545  0.1872
 1245SOL     OW 5106   0.384   1.949   2.341  0.3131 -0.0583 -0.2484
 1245SOL    HW2 5107   0.370   1.860   2.309 -1.0865  0.1575 -0.2937
 1245SOL    HW3 5108   0.388   1.941   2.436  1.0149 -0.2671 -0.2930
 1245SOL    MW4 5109   0.382   1.936   2.349  0.2210 -0.0573 -0.2601
 1246SOL     OW 5110   0.645   2.017   2.239 -0.2954  0.0987  0.0735
 1246SOL    HW2 5111   0.644   2.105   2.276  1.2815  0.0521  0.2800
 1246SOL    HW3 5112   0.567   1.975   2.275 -0.7938  1.2509  0.3683
 1246SOL    MW4 5113   0.634   2.023   2.249 -0.1531  0.2446  0.1397
 1247SOL     OW 5114   0.652   2.276   2.338  0.8328 -0.0234  0.1687
 1247SOL    HW2 5115   0.726   2.334   2.321 -0.2932  2.1195  2.2754
 1247SOL    HW3 5116   0.650   2.268   2.433 -1.0158 -0.8751  0.0786
 1247SOL    MW4 5117   0.661   2.283   2.348  0.4404  0.1469  0.4349
 1248SOL     OW 5118   0.442   2.460   2.284  0.2451 -0.1086  0.2489
 1248SOL    HW2 5119   0.505   2.391   2.304  0.6767 -0.4580 -2.1839
 1248SOL    HW3 5120   0.359   2.428   2.320  0.4506 -1.8870 -0.7823
 1248SOL    MW4 5121   0.439   2.447   2.291  0.3292 -0.3893 -0.2079
 1249SOL     OW 5122   0.406   2.729   2.370 -0.1346 -0.3485  0.7274
 1249SOL    HW2 5123   0.396   2.732   2.465  1.6755 -0.2048  0.9411
 1249SOL    HW3 5124   0.428   2.637   2.352  0.3426 -0.1975  0.5426
 1249SOL    MW4 5125   0.408   2.717   2.380  0.1672 -0.3095  0.7310
 1250SOL     OW 5126   0.605   2.875   2.251 -0.1412 -0.7439  0.6260
 1250SOL    HW2 5127   0.690   2.839   2.278 -0.0680  0.6724  2.3150
 1250SOL    HW3 5128   0.541   2.819   2.294 -0.0475 -0.6437  0.8980
 1250SOL    MW4 5129   0.608   2.863   2.260 -0.1192 -0.5438  0.8852
 1251SOL     OW 5130   0.671   3.115   2.361  0.2031  0.1865  0.5481
 1251SOL    HW2 5131   0.599   3.162   2.320 -0.6887 -0.4229  1.4186
 1251SOL    HW3 5132   0.655   3.023   2.340  0.1772 -0.0485  1.6085
 1251SOL    MW4 5133   0.660   3.109   2.353  0.0821  0.0751  0.8030
 1252SOL     OW 5134   0.428   3.242   2.270  0.2026 -0.0185  0.3979
 1252SOL    HW2 5135   0.341   3.207   2.287 -0.4495  1.2859 -0.2991
 1252SOL    HW3 5136   0.437   3.241   2.175  0.9494 -0.1369  0.4646
 1252SOL    MW4 5137   0.418   3.237   2.260  0.2151  0.1383  0.3147
 1253SOL     OW 5138   0.451   3.503   2.348 -0.7151 -0.5190  0.3849
 1253SOL    HW2 5139   0.440   3.523   2.441  0.2905  0.2076  0.3449
 1253SOL    HW3 5140   0.456   3.407   2.345 -4.1097 -0.7746  0.7078
 1253SOL    MW4 5141   0.450   3.493   2.360 -1.0303 -0.4568  0.4222
 1254SOL     OW 5142   0.681   3.592   2.241 -0.1662 -0.1280  0.2696
 1254SOL    HW2 5143   0.665   3.673   2.289 -1.9408  0.2526 -0.9137
 1254SOL    HW3 5144   0.598   3.545   2.244  0.1429 -0.8037 -1.0940
 1254SOL    MW4 5145   0.668   3.597   2.247 -0.3595 -0.1669 -0.0665
 1255SOL     OW 5146   0.636   3.831   2.356  0.1722 -0.3129 -0.0136
 1255SOL    HW2 5147   0.651   3.840   2.450  0.5942 -0.5462 -0.0572
 1255SOL    HW3 5148   0.563   3.890   2.338  0.2385 -0.0936  0.4188
 1255SOL    MW4 5149   0.629   3.840   2.366  0.2366 -0.3150  0.0374
 1256SOL     OW 5150   0.418   4.018   2.284 -0.3277 -0.6096 -0.0554
 1256SOL    HW2 5151   0.332   3.981   2.301  0.6834 -2.5944  0.9876
 1256SOL    HW3 5152   0.430   4.010   2.189 -2.3747  2.2481 -0.6199
 1256SOL    MW4 5153   0.409   4.012   2.274 -0.4644 -0.4940  0.0079
 1257SOL     OW 5154   0.442   4.268   2.379 -0.1074 -0.2723 -0.8617
 1257SOL    HW2 5155   0.524   4.302   2.345  0.3369 -1.1978 -0.7197
 1257SOL    HW3 5156   0.440   4.177   2.352 -1.3098 -0.1375 -1.2710
 1257SOL    MW4 5157   0.452   4.261   2.371 -0.2074 -0.3767 -0.8969
 1258SOL     OW 5158   0.685   4.363   2.244  0.3272  0.2104 -0.2546
 1258SOL    HW2 5159   0.670   4.450   2.281  0.5393  0.1183  0.0522
 1258SOL    HW3 5160   0.667   4.373   2.150  0.8075  0.7039 -0.2999
 1258SOL    MW4 5161   0.681   4.376   2.236  0.4186  0.2632 -0.2201
 1259SOL     OW 5162   1.116   4.616   2.330  0.1751  0.5701 -0.4060
 1259SOL    HW2 5163   1.130   4.631   2.424  0.0305  2.0835 -0.6144
 1259SOL    HW3 5164   1.029   4.652   2.313 -0.1952 -0.5420 -0.9545
 1259SOL    MW4 5165   1.106   4.622   2.340  0.1070  0.6232 -0.5059
 1260SOL     OW 5166   0.867   0.077   2.257  0.1098  0.2301  0.3356
 1260SOL    HW2 5167   0.878   0.170   2.278  0.7211  0.2470 -0.0378
 1260SOL    HW3 5168   0.899   0.069   2.167  0.0012 -0.3316  0.3461
 1260SOL    MW4 5169   0.873   0.088   2.248  0.1762  0.1583  0.2878
 1261SOL     OW 5170   0.882   0.341   2.360 -0.3558 -0.6142 -0.3602
 1261SOL    HW2 5171   0.953   0.383   2.311  0.6505 -3.4622 -1.4628
 1261SOL    HW3 5172   0.804   0.390   2.335  1.0164  1.6648 -0.2538
 1261SOL    MW4 5173   0.881   0.353   2.350 -0.0420 -0.6893 -0.4919
 1262SOL     OW 5174   1.113   0.477   2.252  0.3409 -0.0044 -0.3597
 1262SOL    HW2 5175   1.180   0.424   2.295 -1.6340 -1.9927  0.3515
 1262SOL    HW3 5176   1.133   0.470   2.158  1.0353 -0.7136 -0.1637
 1262SOL    MW4 5177   1.124   0.469   2.245  0.1719 -0.3603 -0.2401
 1263SOL     OW 5178   1.120   0.711   2.392  0.1036  0.4628 -0.4673
 1263SOL    HW2 5179   1.049   0.764   2.357 -0.6164 -0.6345 -0.7030
 1263SOL    HW3 5180   1.123   0.634   2.336  1.2017  0.2911 -0.1933
 1263SOL    MW4 5181   1.111   0.708   2.380  0.1534  0.2954 -0.4623
 1264SOL     OW 5182   0.923   0.886   2.294 -0.4650 -0.6183 -0.5933
 1264SOL    HW2 5183   0.901   0.971   2.331 -1.6465 -0.4396 -1.6639
 1264SOL    HW3 5184   0.859   0.826   2.333  0.3959 -1.0223  0.1951
 1264SOL    MW4 5185   0.911   0.889   2.304 -0.5072 -0.6481 -0.6304
 1265SOL     OW 5186   0.853   1.147   2.392 -0.3139 -0.3018 -0.3109
 1265SOL    HW2 5187   0.921   1.202   2.352 -1.7156  0.2777 -1.9565
 1265SOL    HW3 5188   0.771   1.178   2.353 -1.4267 -1.6762  0.8772
 1265SOL    MW4 5189   0.851   1.158   2.382 -0.6456 -0.4066 -0.3715
 1266SOL     OW 5190   1.056   1.304   2.291  0.5272 -0.3319  0.3817
 1266SOL    HW2 5191   1.130   1.255   2.328  0.9588 -0.7823 -1.0551
 1266SOL    HW3 5192   1.068   1.299   2.196 -1.1030 -0.0307  0.1344
 1266SOL    MW4 5193   1.067   1.297   2.283  0.3690 -0.3517  0.1595
 1267SOL     OW 5194   1.063   1.578   2.330  0.5303 -0.1263 -0.5279
 1267SOL    HW2 5195   0.976   1.607   2.301  0.3058 -0.2665  0.0064
 1267SOL    HW3 5196   1.054   1.483   2.340  0.7667 -0.1499 -0.5554
 1267SOL    MW4 5197   1.050   1.569   2.327  0.5318 -0.1478 -0.4611
 1268SOL     OW 5198   0.811   1.695   2.236  0.0154 -0.1287  0.1225
 1268SOL    HW2 5199   0.825   1.774   2.287 -0.0535  0.0827 -0.1845
 1268SOL    HW3 5200   0.841   1.717   2.148 -2.5331  0.4387 -0.6432
 1268SOL    MW4 5201   0.817   1.708   2.231 -0.3299 -0.0257 -0.0188
 1269SOL     OW 5202   0.899   1.908   2.375 -0.0904  0.2191 -0.3269
 1269SOL    HW2 5203   0.918   1.894   2.468 -0.0250  0.3276 -0.3231
 1269SOL    HW3 5204   0.833   1.977   2.375  1.8694  2.1600 -0.4510
 1269SOL    MW4 5205   0.893   1.916   2.388  0.1768  0.4895 -0.3426
 1270SOL     OW 5206   1.112   2.047   2.275  0.3579 -0.2425 -0.1265
 1270SOL    HW2 5207   1.182   1.985   2.296  0.7934 -0.1317 -1.2421
 1270SOL    HW3 5208   1.031   1.998   2.289  0.7045 -1.4021 -2.0096
 1270SOL    MW4 5209   1.111   2.032   2.280  0.4611 -0.3808 -0.5221
 1271SOL     OW 5210   1.062   2.342   2.335 -0.1808 -0.2296  0.3340
 1271SOL    HW2 5211   1.136   2.381   2.289 -0.1854 -0.7261 -0.0907
 1271SOL    HW3 5212   1.076   2.248   2.328 -1.5271 -0.3496 -0.8434
 1271SOL    MW4 5213   1.074   2.335   2.328 -0.3591 -0.3107  0.1223
 1272SOL     OW 5214   0.831   2.484   2.276  0.2938 -0.2222  0.3599
 1272SOL    HW2 5215   0.913   2.448   2.308 -0.1126 -1.2436  0.2732
 1272SOL    HW3 5216   0.839   2.483   2.181  0.5417  0.5454  0.3684
 1272SOL    MW4 5217   0.843   2.479   2.268  0.2729 -0.2553  0.3495
 1273SOL     OW 5218   0.832   2.748   2.354 -0.1240  0.3190  0.0938
 1273SOL    HW2 5219   0.840   2.747   2.449 -0.5929 -0.1599  0.1249
 1273SOL    HW3 5220   0.824   2.656   2.329  0.7239  0.3904 -0.4672
 1273SOL    MW4 5221   0.832   2.736   2.363 -0.0740  0.2656  0.0238
 1274SOL     OW 5222   1.057   2.833   2.226 -0.5521 -0.6556 -0.5515
 1274SOL    HW2 5223   1.139   2.803   2.267  0.6042 -1.0813 -3.0557
 1274SOL    HW3 5224   0.988   2.802   2.285  1.0243 -1.5846  0.8558
 1274SOL    MW4 5225   1.059   2.825   2.239 -0.1916 -0.8342 -0.6959
 1275SOL     OW 5226   1.090   3.073   2.342  0.0912 -0.3139 -0.1095
 1275SOL    HW2 5227   1.025   3.122   2.292 -1.6758 -0.2150  2.2027
 1275SOL    HW3 5228   1.092   2.986   2.301  0.3487  0.4291 -1.7260
 1275SOL    MW4 5229   1.082   3.068   2.330 -0.1080 -0.2029 -0.0179
 1276SOL     OW 5230   0.878   3.216   2.206 -0.0359 -0.2551 -0.3141
 1276SOL    HW2 5231   0.882   3.310   2.226 -1.1806  0.2530 -2.2861
 1276SOL    HW3 5232   0.811   3.182   2.264 -0.0260  0.2626  0.0043
 1276SOL    MW4 5233   0.870   3.224   2.216 -0.1856 -0.1197 -0.5322
 1277SOL     OW 5234   0.908   3.453   2.337 -0.0049 -0.6502 -0.0111
 1277SOL    HW2 5235   0.894   3.465   2.431 -0.7755 -0.6579 -0.1230
 1277SOL    HW3 5236   0.836   3.500   2.295  1.2675  0.7384 -0.6536
 1277SOL    MW4 5237   0.897   3.461   2.344  0.0613 -0.4680 -0.1106
 1278SOL     OW 5238   1.128   3.587   2.268 -0.4993 -0.1882  0.0552
 1278SOL    HW2 5239   1.209   3.541   2.289  0.0686  0.5039 -0.5712
 1278SOL    HW3 5240   1.058   3.525   2.289  0.1867 -0.7017  0.8181
 1278SOL    MW4 5241   1.129   3.573   2.273 -0.3338 -0.1645  0.0732
 1279SOL     OW 5242   1.109   3.852   2.347 -0.4516  0.2226 -0.3211
 1279SOL    HW2 5243   1.193   3.890   2.322 -0.2104  0.5712  0.9521
 1279SOL    HW3 5244   1.115   3.760   2.321 -0.3421  0.6469 -1.7892
 1279SOL    MW4 5245   1.121   3.845   2.341 -0.4054  0.3245 -0.3469
 1280SOL     OW 5246   0.872   3.991   2.314  0.3103 -0.1567  0.0147
 1280SOL    HW2 5247   0.949   3.935   2.316 -0.9332 -1.9497 -1.1301
 1280SOL    HW3 5248   0.798   3.931   2.325 -1.0591  1.2167 -1.4458
 1280SOL    MW4 5249   0.872   3.976   2.316 -0.0345 -0.2120 -0.3290
 1281SOL     OW 5250   0.913   4.259   2.371  0.1925  0.4721 -0.8634
 1281SOL    HW2 5251   0.892   4.166   2.357  0.0003  0.1854  1.2659
 1281SOL    HW3 5252   0.839   4.306   2.332 -0.4248 -0.3163 -0.6498
 1281SOL    MW4 5253   0.900   4.253   2.364  0.0856  0.3300 -0.5543
 1282SOL     OW 5254   1.124   4.342   2.220 -0.4213  0.2090  0.2290
 1282SOL    HW2 5255   1.056   4.291   2.264 -0.0145  0.3515  1.0319
 1282SOL    HW3 5256   1.110   4.432   2.250 -0.2440  0.3319 -0.0546
 1282SOL    MW4 5257   1.113   4.347   2.230 -0.3442  0.2437  0.2975
 1283SOL     OW 5258   1.569   4.663   2.376  0.0398  0.3806 -0.1661
 1283SOL    HW2 5259   1.643   4.697   2.325  0.4357  1.0422  0.8448
 1283SOL    HW3 5260   1.492   4.704   2.337  0.1472 -0.6025 -1.4733
 1283SOL    MW4 5261   1.569   4.673   2.364  0.1063  0.3382 -0.2053
 1284SOL     OW 5262   1.337   0.080   2.234 -0.0342  0.1825  0.1027
 1284SOL    HW2 5263   1.320   0.155   2.291 -0.4159  0.6511 -0.6239
 1284SOL    HW3 5264   1.262   0.022   2.248 -0.9968  1.0945 -1.2191
 1284SOL    MW4 5265   1.325   0.083   2.244 -0.2117  0.3646 -0.1674
 1285SOL     OW 5266   1.298   0.308   2.364 -0.1548  0.1555  0.3563
 1285SOL    HW2 5267   1.293   0.330   2.457 -2.0754 -0.2620  0.3692
 1285SOL    HW3 5268   1.382   0.343   2.335  0.5052  0.1916  2.2761
 1285SOL    MW4 5269   1.309   0.316   2.372 -0.3210  0.1052  0.6115
 1286SOL     OW 5270   1.561   0.446   2.283 -0.0698 -0.3614 -0.0707
 1286SOL    HW2 5271   1.645   0.404   2.305  1.1316  0.7141 -2.4051
 1286SOL    HW3 5272   1.572   0.474   2.192 -2.7185  0.4619 -0.1604
 1286SOL    MW4 5273   1.574   0.445   2.274 -0.2609 -0.1109 -0.3903
 1287SOL     OW 5274   1.553   0.719   2.360  0.6746  0.3313 -0.1406
 1287SOL    HW2 5275   1.640   0.750   2.333  0.3985  2.4260  1.2003
 1287SOL    HW3 5276   1.555   0.625   2.347  2.2560  0.6721 -2.6004
 1287SOL    MW4 5277   1.565   0.711   2.355  0.8467  0.6526 -0.2882
 1288SOL     OW 5278   1.307   0.876   2.283  0.1777  0.2858  0.1528
 1288SOL    HW2 5279   1.385   0.827   2.308  1.1956  1.5143 -0.5583
 1288SOL    HW3 5280   1.234   0.827   2.321  1.2509 -1.2022  0.3023
 1288SOL    MW4 5281   1.307   0.863   2.292  0.4535  0.2517  0.0789
 1289SOL     OW 5282   1.281   1.151   2.386  0.0161 -0.4649 -0.3166
 1289SOL    HW2 5283   1.310   1.135   2.475  1.6945 -0.2649 -0.8029
 1289SOL    HW3 5284   1.295   1.068   2.340 -2.7411 -1.1983  0.0468
 1289SOL    MW4 5285   1.286   1.138   2.392 -0.1262 -0.5352 -0.3326
 1290SOL     OW 5286   1.525   1.273   2.251 -0.0246  0.0884 -0.0591
 1290SOL    HW2 5287   1.444   1.250   2.296  1.3015 -1.7572  1.4925
 1290SOL    HW3 5288   1.544   1.362   2.279 -0.3732 -0.2615  1.3448
 1290SOL    MW4 5289   1.517   1.282   2.261  0.1044 -0.2013  0.3307
 1291SOL     OW 5290   1.495   1.541   2.323  0.1413  0.4836  0.2753
 1291SOL    HW2 5291   1.568   1.597   2.296 -1.3231  2.1674 -0.2810
 1291SOL    HW3 5292   1.503   1.535   2.418 -0.4203  2.7547  0.5031
 1291SOL    MW4 5293   1.506   1.547   2.332 -0.1260  1.0054  0.2320
 1292SOL     OW 5294   1.279   1.662   2.189  0.1345 -0.2527  0.3247
 1292SOL    HW2 5295   1.345   1.620   2.245 -0.7305  0.0498  1.5886
 1292SOL    HW3 5296   1.195   1.631   2.223 -0.4467  0.8642 -0.0653
 1292SOL    MW4 5297   1.277   1.652   2.201 -0.0563 -0.0654  0.4399
 1293SOL     OW 5298   1.350   1.905   2.321  0.1188  0.0307  0.1392
 1293SOL    HW2 5299   1.341   1.891   2.416 -0.6446  0.0702  0.0762
 1293SOL    HW3 5300   1.322   1.822   2.282 -0.8618  0.4639 -0.0967
 1293SOL    MW4 5301   1.345   1.892   2.329 -0.1113  0.0932  0.0994
 1294SOL     OW 5302   1.538   2.086   2.217  0.1114  0.0367 -0.4214
 1294SOL    HW2 5303   1.618   2.046   2.250  1.4540  2.0072 -1.1490
 1294SOL    HW3 5304   1.467   2.046   2.268  1.6203 -1.2451  0.6975
 1294SOL    MW4 5305   1.539   2.076   2.228  0.4877  0.1278 -0.3698
 1295SOL     OW 5306   1.562   2.339   2.300 -0.0712  0.3084 -0.0422
 1295SOL    HW2 5307   1.577   2.332   2.394  0.6142 -0.5122 -0.2103
 1295SOL    HW3 5308   1.547   2.249   2.271  0.4802  0.4714 -0.8493
 1295SOL    MW4 5309   1.562   2.327   2.309  0.0921  0.2215 -0.1709
 1296SOL     OW 5310   1.306   2.447   2.251 -0.0479  0.1676 -0.0469
 1296SOL    HW2 5311   1.390   2.406   2.269 -0.2013  0.2454  0.9053
 1296SOL    HW3 5312   1.313   2.480   2.161  1.0283  0.4051  0.1222
 1296SOL    MW4 5313   1.318   2.446   2.242  0.0738  0.2091  0.1011
 1297SOL     OW 5314   1.295   2.722   2.345 -0.1695 -0.0013  0.6106
 1297SOL    HW2 5315   1.378   2.749   2.306  0.0511  0.1473  1.1664
 1297SOL    HW3 5316   1.288   2.629   2.326  0.3440 -0.1113  0.9433
 1297SOL    MW4 5317   1.305   2.713   2.337 -0.0726  0.0038  0.7277
 1298SOL     OW 5318   1.540   2.826   2.223  0.1149 -0.4125  0.3126
 1298SOL    HW2 5319   1.540   2.916   2.257 -0.6091  0.1501 -1.1360
 1298SOL    HW3 5320   1.622   2.789   2.253  1.5183  1.4948 -1.0346
 1298SOL    MW4 5321   1.551   2.833   2.232  0.2046 -0.0868 -0.0560
 1299SOL     OW 5322   1.535   3.100   2.302 -0.6014 -0.0077 -0.0002
 1299SOL    HW2 5323   1.549   3.115   2.395 -1.3095 -0.6557  0.2147
 1299SOL    HW3 5324   1.451   3.141   2.283 -0.0806  0.8432 -0.5415
 1299SOL    MW4 5325   1.526   3.107   2.312 -0.6262  0.0193 -0.0434
 1300SOL     OW 5326   1.291   3.243   2.216 -0.2715 -0.2392  0.4551
 1300SOL    HW2 5327   1.226   3.189   2.262 -2.6021  1.7838 -0.3770
 1300SOL    HW3 5328   1.284   3.216   2.125  0.4604 -0.3951  0.4441
 1300SOL    MW4 5329   1.281   3.232   2.210 -0.4827  0.0072  0.3438
 1301SOL     OW 5330   1.369   3.475   2.333 -0.2035  0.2175 -0.2269
 1301SOL    HW2 5331   1.370   3.466   2.429 -0.5269  2.1597 -0.0157
 1301SOL    HW3 5332   1.336   3.391   2.301  0.8871 -0.8302  1.3140
 1301SOL    MW4 5333   1.365   3.463   2.342 -0.1022  0.3355  0.0041
 1302SOL     OW 5334   1.569   3.635   2.227  0.2196  0.0706 -0.4270
 1302SOL    HW2 5335   1.565   3.724   2.262  1.9541 -0.6642  1.7426
 1302SOL    HW3 5336   1.492   3.591   2.263  1.4481 -0.3859  1.7723
 1302SOL    MW4 5337   1.559   3.641   2.236  0.6106 -0.0865  0.1495
 1303SOL     OW 5338   1.542   3.877   2.368 -0.0946  0.3953  0.3426
 1303SOL    HW2 5339   1.565   3.868   2.461  0.4329 -0.1570  0.1680
 1303SOL    HW3 5340   1.621   3.913   2.328  0.7605 -2.1662 -0.3855
 1303SOL    MW4 5341   1.556   3.881   2.375  0.0879 -0.0155  0.2234
 1304SOL     OW 5342   1.326   4.001   2.216  0.1691  0.0230 -0.2186
 1304SOL    HW2 5343   1.404   3.945   2.225  1.7288  1.9774 -1.1794
 1304SOL    HW3 5344   1.313   4.008   2.122 -0.3716  0.7857 -0.0852
 1304SOL    MW4 5345   1.335   3.994   2.205  0.3035  0.3812 -0.3281
 1305SOL     OW 5346   1.358   4.257   2.328 -0.2442  0.0889  0.0851
 1305SOL    HW2 5347   1.351   4.168   2.292  0.0071 -0.0114  0.2836
 1305SOL    HW3 5348   1.289   4.306   2.284  0.6451  0.1969 -1.2134
 1305SOL    MW4 5349   1.348   4.252   2.317 -0.0936  0.0906 -0.0598
 1306SOL     OW 5350   1.588   4.390   2.259 -0.3336  0.0127 -0.2251
 1306SOL    HW2 5351   1.502   4.355   2.284 -0.8908  1.0346 -0.6948
 1306SOL    HW3 5352   1.592   4.475   2.301  1.2366 -0.7956  1.3467
 1306SOL    MW4 5353   1.577   4.396   2.268 -0.2000  0.0410 -0.0799
 1307SOL     OW 5354   2.021   4.659   2.323  0.5804 -0.5925 -0.0433
 1307SOL    HW2 5355   2.099   4.709   2.300  0.1531  0.1432  0.1172
 1307SOL    HW3 5356   2.041   4.570   2.295  1.1463 -0.2369 -0.7690
 1307SOL    MW4 5357   2.034   4.654   2.316  0.5989 -0.4487 -0.1183
 1308SOL     OW 5358   1.783   0.086   2.233 -0.4213 -0.6559  0.4294
 1308SOL    HW2 5359   1.806   0.177   2.255 -0.7666 -0.6809  0.8999
 1308SOL    HW3 5360   1.857   0.035   2.266  0.3468 -0.4377 -0.9198
 1308SOL    MW4 5361   1.796   0.092   2.241 -0.3654 -0.6304  0.3135
 1309SOL     OW 5362   1.819   0.363   2.337  0.1546 -0.4469  0.1678
 1309SOL    HW2 5363   1.832   0.354   2.431  0.0951  0.0028  0.2179
 1309SOL    HW3 5364   1.893   0.417   2.308 -0.0058 -0.3151  0.0058
 1309SOL    MW4 5365   1.831   0.369   2.346  0.1255 -0.3702  0.1528
 1310SOL     OW 5366   2.024   0.518   2.241 -0.3089  0.4434  0.0233
 1310SOL    HW2 5367   2.045   0.604   2.279 -1.8987  0.8963 -0.0721
 1310SOL    HW3 5368   2.036   0.531   2.146  0.1691  0.3439  0.0693
 1310SOL    MW4 5369   2.028   0.531   2.233 -0.4559  0.4900  0.0167
 1311SOL     OW 5370   2.049   0.754   2.377  0.1931 -0.6331 -0.1552
 1311SOL    HW2 5371   2.105   0.811   2.325  1.7518 -1.2731  0.7856
 1311SOL    HW3 5372   1.961   0.769   2.342  0.7593  1.2963 -0.8472
 1311SOL    MW4 5373   2.045   0.764   2.366  0.4735 -0.4630 -0.1223
 1312SOL     OW 5374   1.793   0.844   2.281 -0.0532 -0.0970  0.1355
 1312SOL    HW2 5375   1.807   0.935   2.307 -0.2508 -0.0984  0.2407
 1312SOL    HW3 5376   1.810   0.844   2.187 -1.3677  0.3090 -0.1050
 1312SOL    MW4 5377   1.797   0.856   2.272 -0.2526 -0.0437  0.1175
 1313SOL     OW 5378   1.752   1.123   2.298 -0.2930 -0.3349 -0.2152
 1313SOL    HW2 5379   1.813   1.194   2.279  0.4890 -0.9510 -0.0404
 1313SOL    HW3 5380   1.665   1.163   2.290  0.1266  0.5102 -0.6199
 1313SOL    MW4 5381   1.749   1.137   2.295 -0.1343 -0.3047 -0.2456
 1314SOL     OW 5382   1.975   1.274   2.253  0.3849  0.1547 -0.2688
 1314SOL    HW2 5383   2.055   1.227   2.276  0.7554  0.7908 -0.2258
 1314SOL    HW3 5384   1.988   1.299   2.161 -0.0689 -0.3442 -0.4696
 1314SOL    MW4 5385   1.987   1.271   2.244  0.3740  0.1727 -0.2897
 1315SOL     OW 5386   2.000   1.545   2.333  0.9243  0.1821  0.1232
 1315SOL    HW2 5387   2.009   1.553   2.428  1.4225 -1.2661  0.2235
 1315SOL    HW3 5388   1.979   1.452   2.319 -1.5250  0.8507 -1.0206
 1315SOL    MW4 5389   1.998   1.533   2.343  0.6669  0.0792 -0.0145
 1316SOL     OW 5390   1.757   1.681   2.292  0.1689 -0.5028  0.1565
 1316SOL    HW2 5391   1.752   1.769   2.328 -0.3006 -1.0473  1.4919
 1316SOL    HW3 5392   1.842   1.647   2.321 -0.2020 -0.9373  0.7583
 1316SOL    MW4 5393   1.767   1.688   2.301  0.0579 -0.6319  0.4120
 1317SOL     OW 5394   1.760   1.957   2.338 -0.3668  0.4108  0.1122
 1317SOL    HW2 5395   1.757   1.949   2.434  0.4246  2.3459  0.3155
 1317SOL    HW3 5396   1.837   2.012   2.321 -2.3003  2.6722 -1.4745
 1317SOL    MW4 5397   1.770   1.963   2.349 -0.5175  0.9645 -0.0703
 1318SOL     OW 5398   2.031   2.072   2.242 -0.3737 -0.0973  0.0772
 1318SOL    HW2 5399   2.109   2.029   2.276 -0.5079  1.3615  2.3640
 1318SOL    HW3 5400   2.040   2.068   2.147  3.0638  1.0259  0.2979
 1318SOL    MW4 5401   2.042   2.066   2.234  0.0622  0.2434  0.4079
 1319SOL     OW 5402   1.996   2.347   2.368  0.3638 -0.0408  0.1130
 1319SOL    HW2 5403   2.062   2.388   2.312 -1.1672  0.5088 -1.3632
 1319SOL    HW3 5404   1.981   2.262   2.328 -2.0140  1.0428 -1.4251
 1319SOL    MW4 5405   2.002   2.341   2.355 -0.1521  0.1748 -0.2847
 1320SOL     OW 5406   1.802   2.455   2.210 -0.2221 -0.0515  0.4073
 1320SOL    HW2 5407   1.885   2.428   2.251 -0.4112 -1.5467 -0.1472
 1320SOL    HW3 5408   1.737   2.395   2.248 -0.7082 -0.2040 -0.6549
 1320SOL    MW4 5409   1.804   2.443   2.220 -0.3111 -0.2689  0.1941
 1321SOL     OW 5410   1.775   2.718   2.321 -0.3954  0.4866 -0.2372
 1321SOL    HW2 5411   1.779   2.626   2.295 -1.0431 -0.0508  1.5239
 1321SOL    HW3 5412   1.770   2.716   2.416 -1.1628  2.3283 -0.2182
 1321SOL    MW4 5413   1.775   2.705   2.330 -0.5821  0.6590 -0.0024
 1322SOL     OW 5414   1.997   2.841   2.219 -0.0520 -0.1293  0.3101
 1322SOL    HW2 5415   2.067   2.796   2.266  0.4070  0.2644 -0.0001
 1322SOL    HW3 5416   1.916   2.802   2.253  0.2558  0.4696  1.7578
 1322SOL    MW4 5417   1.995   2.830   2.230  0.0491  0.0017  0.4604
 1323SOL     OW 5418   1.995   3.113   2.315  0.6345 -0.1571  0.0490
 1323SOL    HW2 5419   2.054   3.171   2.267  0.4892 -0.6257 -0.7092
 1323SOL    HW3 5420   1.998   3.030   2.267 -0.3184 -0.3115  0.2346
 1323SOL    MW4 5421   2.003   3.110   2.302  0.4892 -0.2394 -0.0265
 1324SOL     OW 5422   1.761   3.275   2.293 -0.2603  0.1974  0.2299
 1324SOL    HW2 5423   1.838   3.223   2.314  0.2459  1.3468  1.3256
 1324SOL    HW3 5424   1.687   3.218   2.309  0.2913 -0.2164  1.2930
 1324SOL    MW4 5425   1.761   3.261   2.298 -0.1209  0.2944  0.5150
 1325SOL     OW 5426   1.795   3.554   2.373  0.2046  0.6531 -0.0132
 1325SOL    HW2 5427   1.799   3.459   2.358  0.2518  0.7415 -0.5862
 1325SOL    HW3 5428   1.715   3.581   2.327  0.5259  0.9858 -0.3752
 1325SOL    MW4 5429   1.785   3.545   2.365  0.2532  0.7083 -0.1369
 1326SOL     OW 5430   2.030   3.652   2.253 -0.3137  0.0266 -0.1052
 1326SOL    HW2 5431   1.943   3.622   2.281 -0.4025  1.8499  1.7753
 1326SOL    HW3 5432   2.036   3.626   2.161 -2.0953 -1.7687  0.2431
 1326SOL    MW4 5433   2.019   3.645   2.245 -0.5605  0.0300  0.1891
 1327SOL     OW 5434   2.029   3.910   2.352 -0.2997  0.1548  0.0978
 1327SOL    HW2 5435   2.026   3.905   2.447 -0.4650  1.4130  0.1625
 1327SOL    HW3 5436   2.036   3.819   2.324  1.2802 -0.1381  1.3642
 1327SOL    MW4 5437   2.030   3.897   2.361 -0.1132  0.2820  0.2732
 1328SOL     OW 5438   1.759   4.000   2.213  0.2192 -0.0816 -0.3777
 1328SOL    HW2 5439   1.850   3.978   2.231  0.0563 -1.6887 -1.4517
 1328SOL    HW3 5440   1.756   4.016   2.119  0.0700  3.4561  0.1367
 1328SOL    MW4 5441   1.771   4.000   2.203  0.1781  0.1731 -0.4516
 1329SOL     OW 5442   1.810   4.255   2.329 -0.3893 -0.2290 -0.1386
 1329SOL    HW2 5443   1.802   4.163   2.303  0.4664  0.0384 -1.4303
 1329SOL    HW3 5444   1.726   4.294   2.304 -0.6539 -0.6038  0.1625
 1329SOL    MW4 5445   1.798   4.248   2.322 -0.3111 -0.2427 -0.2697
 1330SOL     OW 5446   2.032   4.376   2.211  0.3310 -0.2778  0.1674
 1330SOL    HW2 5447   1.946   4.342   2.239  0.4416  0.1581  1.0736
 1330SOL    HW3 5448   2.019   4.403   2.121 -0.5150 -0.1299  0.3308
 1330SOL    MW4 5449   2.019   4.375   2.203  0.2339 -0.2007  0.3085
 1331SOL     OW 5450   2.494   0.014   2.315  0.3737 -0.4634  0.8312
 1331SOL    HW2 5451   2.561   0.056   2.261 -0.3473  0.5498  0.7014
 1331SOL    HW3 5452   2.503  -0.079   2.297  3.7164 -0.6671  3.0492
 1331SOL    MW4 5453   2.504   0.007   2.306  0.7195 -0.3566  1.1065
 1332SOL     OW 5454   2.256   0.111   2.229  0.1467  0.0716  0.2974
 1332SOL    HW2 5455   2.253   0.204   2.251  2.2353 -0.2298  2.0010
 1332SOL    HW3 5456   2.340   0.080   2.263  0.2786 -2.0638 -1.8016
 1332SOL    MW4 5457   2.267   0.119   2.236  0.4396 -0.2499  0.2453
 1333SOL     OW 5458   2.237   0.349   2.348  0.3966  0.1687  0.1093
 1333SOL    HW2 5459   2.318   0.378   2.308  0.6002  0.2143  0.5538
 1333SOL    HW3 5460   2.169   0.404   2.309  0.5858  0.1585 -0.2284
 1333SOL    MW4 5461   2.238   0.360   2.338  0.4485  0.1733  0.1235
 1334SOL     OW 5462   2.461   0.454   2.232 -0.1457  0.2722 -0.5317
 1334SOL    HW2 5463   2.542   0.413   2.262  0.2138  2.0375  0.9960
 1334SOL    HW3 5464   2.480   0.483   2.142  1.2269  1.4666  0.1337
 1334SOL    MW4 5465   2.474   0.453   2.224  0.0830  0.6627 -0.2425
 1335SOL     OW 5466   2.444   0.753   2.321 -0.4595  0.1594 -0.3085
 1335SOL    HW2 5467   2.531   0.792   2.316 -0.8981  1.4391  1.6776
 1335SOL    HW3 5468   2.459   0.659   2.313  1.2264  0.2750  1.2648
 1335SOL    MW4 5469   2.458   0.746   2.319 -0.2947  0.3434  0.1612
 1336SOL     OW 5470   2.243   0.906   2.199  0.2839  0.5587 -0.1866
 1336SOL    HW2 5471   2.228   0.993   2.235 -0.0275  0.6931 -0.6335
 1336SOL    HW3 5472   2.320   0.874   2.246  0.8312  1.3567 -0.5271
 1336SOL    MW4 5473   2.251   0.913   2.210  0.3152  0.6816 -0.2906
 1337SOL     OW 5474   2.223   1.152   2.304  0.2697  0.2928 -0.2851
 1337SOL    HW2 5475   2.299   1.203   2.277  1.3249 -0.7844  0.5659
 1337SOL    HW3 5476   2.232   1.144   2.399  0.2042 -1.5617 -0.4083
 1337SOL    MW4 5477   2.234   1.158   2.313  0.4001 -0.0941 -0.1891
 1338SOL     OW 5478   2.452   1.281   2.250 -0.6562  0.3029  0.0012
 1338SOL    HW2 5479   2.535   1.237   2.266  0.3815  1.2656 -2.5560
 1338SOL    HW3 5480   2.459   1.363   2.299  0.1515  0.6431 -0.6698
 1338SOL    MW4 5481   2.464   1.286   2.259 -0.4127  0.4748 -0.4249
 1339SOL     OW 5482   2.442   1.553   2.358 -0.1504  0.7834  0.0933
 1339SOL    HW2 5483   2.453   1.564   2.452  1.3563 -0.0941  0.0413
 1339SOL    HW3 5484   2.515   1.602   2.320 -0.5426  0.8337 -0.6058
 1339SOL    MW4 5485   2.453   1.561   2.365 -0.0031  0.6742 -0.0057
 1340SOL     OW 5486   2.241   1.699   2.250 -0.2054 -0.2275 -0.0361
 1340SOL    HW2 5487   2.316   1.654   2.289 -0.6407 -0.2658  0.7479
 1340SOL    HW3 5488   2.165   1.649   2.278 -0.5212 -0.2517 -0.9261
 1340SOL    MW4 5489   2.241   1.687   2.259 -0.3045 -0.2359 -0.0501
 1341SOL     OW 5490   2.214   1.927   2.382 -0.1765 -0.0993  0.3785
 1341SOL    HW2 5491   2.293   1.979   2.362 -1.3380  1.1149 -1.1540
 1341SOL    HW3 5492   2.222   1.849   2.326 -0.4153  0.3819 -0.3386
 1341SOL    MW4 5493   2.226   1.924   2.372 -0.3612  0.1245  0.0818
 1342SOL     OW 5494   2.439   2.060   2.290 -0.2458 -0.1316 -0.1532
 1342SOL    HW2 5495   2.513   2.030   2.343  1.0695  2.3881 -0.5124
 1342SOL    HW3 5496   2.472   2.059   2.200 -0.7107  0.7631 -0.3398
 1342SOL    MW4 5497   2.453   2.056   2.285 -0.1335  0.3188 -0.2251
 1343SOL     OW 5498   2.463   2.332   2.363  0.0057  0.3803 -0.6065
 1343SOL    HW2 5499   2.536   2.365   2.310 -0.6230  1.5469 -0.7702
 1343SOL    HW3 5500   2.447   2.244   2.330 -0.2982  1.0508 -2.2926
 1343SOL    MW4 5501   2.471   2.325   2.352 -0.1173  0.6230 -0.8507
 1344SOL     OW 5502   2.235   2.480   2.230 -0.2355 -0.1227 -0.2775
 1344SOL    HW2 5503   2.240   2.570   2.260 -1.2917 -0.2190  0.2306
 1344SOL    HW3 5504   2.303   2.434   2.279 -1.2567 -0.0728  1.2282
 1344SOL    MW4 5505   2.244   2.486   2.240 -0.5097 -0.1287 -0.0122
 1345SOL     OW 5506   2.205   2.727   2.338  0.5967  0.3924 -0.1123
 1345SOL    HW2 5507   2.197   2.714   2.433 -0.2767  0.1818 -0.2099
 1345SOL    HW3 5508   2.292   2.765   2.326  0.6596  0.5382  0.7883
 1345SOL    MW4 5509   2.216   2.730   2.349  0.4900  0.3839 -0.0064
 1346SOL     OW 5510   2.456   2.831   2.256  0.4220  0.2906  0.3274
 1346SOL    HW2 5511   2.522   2.763   2.271 -0.8542 -0.9436  0.4821
 1346SOL    HW3 5512   2.437   2.826   2.163  0.0142  0.1433  0.4185
 1346SOL    MW4 5513   2.463   2.821   2.246  0.2000  0.1082  0.3598
 1347SOL     OW 5514   2.437   3.100   2.327  0.0337  0.1813  0.1728
 1347SOL    HW2 5515   2.520   3.145   2.316 -0.5960  1.2049 -0.5113
 1347SOL    HW3 5516   2.450   3.014   2.286  0.8944  0.1632  0.4856
 1347SOL    MW4 5517   2.449   3.094   2.320  0.0641  0.3140  0.1237
 1348SOL     OW 5518   2.214   3.243   2.213  0.3726  0.6527 -0.1814
 1348SOL    HW2 5519   2.228   3.327   2.257  0.0999 -0.1877  1.5907
 1348SOL    HW3 5520   2.294   3.193   2.232 -0.1944 -0.0978  0.2649
 1348SOL    MW4 5521   2.226   3.247   2.222  0.2620  0.4430  0.1111
 1349SOL     OW 5522   2.238   3.496   2.332  0.0553  0.1167 -0.2139
 1349SOL    HW2 5523   2.237   3.502   2.428  0.3774 -1.1972 -0.1131
 1349SOL    HW3 5524   2.158   3.540   2.304 -0.9699 -1.0753  0.7755
 1349SOL    MW4 5525   2.227   3.503   2.341 -0.0374 -0.2139 -0.0699
 1350SOL     OW 5526   2.494   3.577   2.219  0.0901  0.5015 -0.0973
 1350SOL    HW2 5527   2.508   3.664   2.255 -1.1993  0.7709 -0.2201
 1350SOL    HW3 5528   2.407   3.551   2.251  0.9203 -1.2049  0.8624
 1350SOL    MW4 5529   2.484   3.585   2.228  0.0296  0.3119  0.0134
 1351SOL     OW 5530   2.501   3.832   2.322 -0.1822 -0.0159  0.1232
 1351SOL    HW2 5531   2.506   3.836   2.418 -0.0466 -0.7216  0.1481
 1351SOL    HW3 5532   2.416   3.870   2.301 -0.9778 -1.4670  0.6365
 1351SOL    MW4 5533   2.490   3.838   2.332 -0.2692 -0.3006  0.1943
 1352SOL     OW 5534   2.278   3.978   2.265 -0.0932 -0.1144  0.2546
 1352SOL    HW2 5535   2.286   4.068   2.299 -0.2814  0.8655 -2.1788
 1352SOL    HW3 5536   2.191   3.950   2.295 -0.7152  1.1368 -0.2957
 1352SOL    MW4 5537   2.267   3.986   2.274 -0.2000  0.1800 -0.1388
 1353SOL     OW 5538   2.273   4.266   2.310  0.0596  0.0475  0.7777
 1353SOL    HW2 5539   2.266   4.283   2.404  0.0855 -1.2030  1.0144
 1353SOL    HW3 5540   2.189   4.295   2.274  0.0331  0.4864  1.1900
 1353SOL    MW4 5541   2.261   4.272   2.318  0.0594 -0.0596  0.8633
 1354SOL     OW 5542   2.507   4.399   2.234 -0.2098 -0.0914 -0.2999
 1354SOL    HW2 5543   2.578   4.346   2.272 -1.2280 -1.0589  0.2747
 1354SOL    HW3 5544   2.427   4.355   2.263 -1.0380  0.8078 -1.2289
 1354SOL    MW4 5545   2.506   4.386   2.243 -0.4532 -0.1001 -0.3469
 1355SOL     OW 5546   2.907   4.663   2.358  0.0233  0.3412 -0.2055
 1355SOL    HW2 5547   2.979   4.706   2.313  0.0403  0.5464  0.0161
 1355SOL    HW3 5548   2.903   4.576   2.320  0.6437  0.1943  0.0702
 1355SOL    MW4 5549   2.916   4.657   2.347  0.1075  0.3490 -0.1400
 1356SOL     OW 5550   2.731   0.135   2.199  0.3758  0.2791  0.3211
 1356SOL    HW2 5551   2.733   0.217   2.248  1.3833  0.6926 -0.3929
 1356SOL    HW3 5552   2.801   0.082   2.239 -0.8109 -0.5575  1.3219
 1356SOL    MW4 5553   2.741   0.139   2.211  0.3519  0.2233  0.3591
 1357SOL     OW 5554   2.701   0.358   2.342  0.1701 -0.0480  0.1923
 1357SOL    HW2 5555   2.690   0.356   2.437  0.7802  1.3100  0.3043
 1357SOL    HW3 5556   2.779   0.412   2.327 -0.2333  0.2117 -1.0991
 1357SOL    MW4 5557   2.710   0.365   2.352  0.1974  0.1655  0.0367
 1358SOL     OW 5558   2.943   0.464   2.270  0.0980 -0.2312 -0.1637
 1358SOL    HW2 5559   2.937   0.560   2.279  1.6290 -0.1315 -0.1225
 1358SOL    HW3 5560   2.940   0.449   2.176 -0.8896 -0.2066 -0.1452
 1358SOL    MW4 5561   2.942   0.475   2.259  0.1695 -0.2147 -0.1557
 1359SOL     OW 5562   2.903   0.719   2.303 -0.5567  1.0217  0.0340
 1359SOL    HW2 5563   2.902   0.731   2.398 -0.4889 -0.9419  0.2919
 1359SOL    HW3 5564   2.818   0.754   2.274 -1.1602  0.3818  0.9841
 1359SOL    MW4 5565   2.891   0.726   2.312 -0.6273  0.6782  0.1931
 1360SOL     OW 5566   2.682   0.857   2.229  0.2817  0.0491 -0.2389
 1360SOL    HW2 5567   2.690   0.951   2.246 -1.5128 -0.1949  2.0933
 1360SOL    HW3 5568   2.683   0.851   2.133  2.7241  2.1981 -0.4195
 1360SOL    MW4 5569   2.684   0.869   2.218  0.3669  0.3005  0.0451
 1361SOL     OW 5570   2.692   1.115   2.308  0.1928  0.2421 -0.1834
 1361SOL    HW2 5571   2.699   1.082   2.397 -0.7212 -2.1065 -0.9323
 1361SOL    HW3 5572   2.774   1.162   2.293  1.2950 -1.1904  1.1914
 1361SOL    MW4 5573   2.704   1.117   2.318  0.2174 -0.2565 -0.1009
 1362SOL     OW 5574   2.909   1.272   2.255 -0.0210 -0.1942 -0.0585
 1362SOL    HW2 5575   2.996   1.263   2.292 -0.1716  1.7935  0.8664
 1362SOL    HW3 5576   2.923   1.272   2.161  1.0370  0.4741  0.0852
 1362SOL    MW4 5577   2.922   1.271   2.248  0.0987  0.1564  0.0825
 1363SOL     OW 5578   2.857   1.530   2.359  0.2638  0.3111  0.1379
 1363SOL    HW2 5579   2.876   1.530   2.453 -0.4959 -0.1435  0.2951
 1363SOL    HW3 5580   2.872   1.439   2.332  0.5728  0.4617 -0.2039
 1363SOL    MW4 5581   2.862   1.518   2.368  0.2043  0.2711  0.1135
 1364SOL     OW 5582   2.648   1.700   2.273  0.2053  0.1909 -0.0045
 1364SOL    HW2 5583   2.713   1.641   2.310  1.6963  1.0350 -1.2286
 1364SOL    HW3 5584   2.660   1.692   2.178 -0.5344  1.3988 -0.2080
 1364SOL    MW4 5585   2.658   1.691   2.265  0.3045  0.4617 -0.1931
 1365SOL     OW 5586   2.682   1.946   2.359  0.4008  0.2921 -0.2705
 1365SOL    HW2 5587   2.680   1.946   2.455  0.6386 -1.3568 -0.2621
 1365SOL    HW3 5588   2.660   1.856   2.334  2.8436  0.0762 -1.7215
 1365SOL    MW4 5589   2.679   1.934   2.368  0.7546  0.0460 -0.4609
 1366SOL     OW 5590   2.922   2.018   2.232 -0.0747 -0.4227  0.1831
 1366SOL    HW2 5591   2.991   1.974   2.281 -0.2423  0.1055  0.8959
 1366SOL    HW3 5592   2.842   2.000   2.281 -0.3956 -0.7535 -0.4586
 1366SOL    MW4 5593   2.920   2.010   2.245 -0.1392 -0.3967  0.1926
 1367SOL     OW 5594   2.920   2.283   2.324  0.7957 -0.4346 -0.1036
 1367SOL    HW2 5595   2.903   2.273   2.418  1.3377 -0.1964  0.0213
 1367SOL    HW3 5596   2.923   2.194   2.290  0.6970 -0.5233  0.1236
 1367SOL    MW4 5597   2.918   2.270   2.332  0.8545 -0.4151 -0.0570
 1368SOL     OW 5598   2.693   2.424   2.244  0.1071 -0.2816 -0.3847
 1368SOL    HW2 5599   2.762   2.368   2.277 -0.5124 -0.3329  0.8895
 1368SOL    HW3 5600   2.709   2.509   2.286  0.3570  0.1687 -1.3761
 1368SOL    MW4 5601   2.704   2.428   2.254  0.0582 -0.2286 -0.3476
 1369SOL     OW 5602   2.685   2.674   2.356 -0.0943 -0.2890  0.0347
 1369SOL    HW2 5603   2.761   2.720   2.321 -0.3416  0.5261  0.5639
 1369SOL    HW3 5604   2.690   2.688   2.450 -1.2989  0.3887  0.0041
 1369SOL    MW4 5605   2.696   2.682   2.364 -0.2859 -0.0920  0.1001
 1370SOL     OW 5606   2.909   2.818   2.264  0.0358  0.1786  0.0113
 1370SOL    HW2 5607   2.915   2.911   2.285  0.9993  0.3724 -1.0729
 1370SOL    HW3 5608   2.900   2.815   2.169  0.1613 -0.8443  0.0207
 1370SOL    MW4 5609   2.909   2.829   2.254  0.1795  0.0691 -0.1307
 1371SOL     OW 5610   2.893   3.080   2.368  1.1586 -0.2226 -0.4965
 1371SOL    HW2 5611   2.967   3.133   2.339  0.5572  0.7260 -0.3197
 1371SOL    HW3 5612   2.821   3.106   2.311  0.7312 -0.4937 -0.0837
 1371SOL    MW4 5613   2.893   3.091   2.357  1.0233 -0.1333 -0.4189
 1372SOL     OW 5614   2.681   3.219   2.263 -0.3128 -0.1622 -0.2276
 1372SOL    HW2 5615   2.677   3.305   2.305 -0.7032 -0.2977  0.0169
 1372SOL    HW3 5616   2.674   3.238   2.169  0.1289  0.1095 -0.2063
 1372SOL    MW4 5617   2.680   3.233   2.256 -0.3061 -0.1445 -0.1926
 1373SOL     OW 5618   2.729   3.477   2.358  0.1477  0.3156 -0.0432
 1373SOL    HW2 5619   2.799   3.528   2.317  0.7311 -0.8052 -0.4550
 1373SOL    HW3 5620   2.653   3.495   2.303  0.2350  1.0853  0.0710
 1373SOL    MW4 5621   2.728   3.486   2.345  0.2358  0.2692 -0.0825
 1374SOL     OW 5622   2.968   3.620   2.244  0.0638 -0.2262  0.0857
 1374SOL    HW2 5623   3.048   3.579   2.275  1.3134  0.4563 -2.1313
 1374SOL    HW3 5624   2.974   3.711   2.275 -0.1610 -0.3344  0.4510
 1374SOL    MW4 5625   2.979   3.627   2.252  0.1991 -0.1507 -0.1585
 1375SOL     OW 5626   2.947   3.879   2.334  0.0515 -0.2891  0.0046
 1375SOL    HW2 5627   2.944   3.885   2.430  2.1143  0.2628  0.0606
 1375SOL    HW3 5628   2.861   3.909   2.306 -0.4208  0.0034  1.6742
 1375SOL    MW4 5629   2.935   3.884   2.343  0.2615 -0.1776  0.2322
 1376SOL     OW 5630   2.711   4.001   2.213 -0.1044  0.1484 -0.3407
 1376SOL    HW2 5631   2.716   4.009   2.117  0.7369  0.4417 -0.2767
 1376SOL    HW3 5632   2.629   3.953   2.229 -0.3120  0.2055 -1.1994
 1376SOL    MW4 5633   2.701   3.996   2.202 -0.0207  0.1945 -0.4454
 1377SOL     OW 5634   2.692   4.241   2.343 -0.2815  0.0773  0.1706
 1377SOL    HW2 5635   2.692   4.223   2.437  0.6753 -0.4666  0.0748
 1377SOL    HW3 5636   2.696   4.154   2.303 -1.0409  0.2901 -0.3883
 1377SOL    MW4 5637   2.692   4.227   2.350 -0.2558  0.0334  0.0844
 1378SOL     OW 5638   2.902   4.413   2.255 -0.0412 -0.2944 -0.1065
 1378SOL    HW2 5639   2.991   4.382   2.275 -0.1615 -0.1787  0.6150
 1378SOL    HW3 5640   2.844   4.355   2.304 -0.3050  0.4822  0.5063
 1378SOL    MW4 5641   2.906   4.402   2.264 -0.0918 -0.1764  0.0696
 1379SOL     OW 5642   3.375   4.642   2.309  0.4610  0.0984  0.0365
 1379SOL    HW2 5643   3.365   4.664   2.401  0.2154  3.3732 -0.7033
 1379SOL    HW3 5644   3.465   4.668   2.287  0.8816 -1.6743 -0.3979
 1379SOL    MW4 5645   3.385   4.649   2.318  0.4840  0.2961 -0.1185
 1380SOL     OW 5646   3.146   0.113   2.232  0.0284  0.0154 -0.4467
 1380SOL    HW2 5647   3.148   0.198   2.275 -1.3483 -0.5456  0.7705
 1380SOL    HW3 5648   3.231   0.074   2.252  0.2141  0.6227 -0.0330
 1380SOL    MW4 5649   3.157   0.119   2.241 -0.1287  0.0215 -0.2315
 1381SOL     OW 5650   3.169   0.340   2.379 -0.2198  0.1237 -0.1091
 1381SOL    HW2 5651   3.234   0.403   2.349 -0.1678 -0.1078 -0.4888
 1381SOL    HW3 5652   3.085   0.383   2.361 -0.1921 -0.0838 -0.7549
 1381SOL    MW4 5653   3.166   0.354   2.373 -0.2091  0.0658 -0.2446
 1382SOL     OW 5654   3.369   0.496   2.259  0.2936  0.0814 -0.5128
 1382SOL    HW2 5655   3.440   0.439   2.288  0.2597  0.5869  0.6009
 1382SOL    HW3 5656   3.372   0.492   2.164  2.6069  1.0272 -0.5098
 1382SOL    MW4 5657   3.379   0.488   2.251  0.5944  0.2729 -0.3657
 1383SOL     OW 5658   3.354   0.761   2.361  0.1708 -0.0976 -0.0507
 1383SOL    HW2 5659   3.426   0.811   2.321 -0.1611 -1.0322 -1.8502
 1383SOL    HW3 5660   3.354   0.677   2.315 -0.5975 -0.9924  1.5371
 1383SOL    MW4 5661   3.364   0.757   2.350  0.0257 -0.3390 -0.0784
 1384SOL     OW 5662   3.136   0.897   2.284  0.2027  0.2830 -0.3400
 1384SOL    HW2 5663   3.065   0.838   2.310 -0.0928  0.1717 -1.4045
 1384SOL    HW3 5664   3.215   0.853   2.315  0.0258 -0.8969 -1.4985
 1384SOL    MW4 5665   3.137   0.883   2.292  0.1404  0.1127 -0.6332
 1385SOL     OW 5666   3.123   1.161   2.392  0.1137 -0.1947  0.1717
 1385SOL    HW2 5667   3.093   1.075   2.361 -0.1521  0.0959 -0.3903
 1385SOL    HW3 5668   3.099   1.164   2.484  0.1959 -0.7595  0.2100
 1385SOL    MW4 5669   3.116   1.150   2.400  0.0896 -0.2308  0.1028
 1386SOL     OW 5670   3.352   1.245   2.253  0.0396 -0.6989  0.1644
 1386SOL    HW2 5671   3.357   1.333   2.290  0.8405 -1.4883  1.9925
 1386SOL    HW3 5672   3.270   1.209   2.287  0.3746 -1.1362  0.5177
 1386SOL    MW4 5673   3.342   1.252   2.262  0.1893 -0.8607  0.4520
 1387SOL     OW 5674   3.359   1.506   2.334 -0.0863 -0.0427 -0.0271
 1387SOL    HW2 5675   3.354   1.501   2.430  0.5014  1.5727  0.1019
 1387SOL    HW3 5676   3.285   1.561   2.309  0.7745  0.9916 -0.3453
 1387SOL    MW4 5677   3.349   1.512   2.344  0.1049  0.3068 -0.0520
 1388SOL     OW 5678   3.108   1.651   2.276  0.0211 -0.4566 -0.1520
 1388SOL    HW2 5679   3.110   1.743   2.302  1.2192 -0.1237 -1.3591
 1388SOL    HW3 5680   3.025   1.618   2.311 -0.1410  0.9193  0.8042
 1388SOL    MW4 5681   3.097   1.659   2.284  0.1578 -0.2311 -0.1853
 1389SOL     OW 5682   3.128   1.918   2.379  0.6757  0.4357  0.1442
 1389SOL    HW2 5683   3.157   1.891   2.466  0.0725  1.1989  0.5850
 1389SOL    HW3 5684   3.205   1.958   2.339  0.0870  3.1575  1.5947
 1389SOL    MW4 5685   3.142   1.920   2.385  0.5186  0.8955  0.3936
 1390SOL     OW 5686   3.348   2.005   2.248 -0.1456 -0.0544  0.2766
 1390SOL    HW2 5687   3.435   1.966   2.261  0.5204  1.7579  1.5235
 1390SOL    HW3 5688   3.343   2.022   2.154  0.9605  0.0804  0.2333
 1390SOL    MW4 5689   3.359   2.002   2.237  0.0882  0.2027  0.4354
 1391SOL     OW 5690   3.380   2.296   2.345  0.0444  0.6088 -0.2766
 1391SOL    HW2 5691   3.297   2.334   2.316 -0.7703  0.5284  1.8883
 1391SOL    HW3 5692   3.367   2.202   2.337 -1.1364  0.4561  2.6984
 1391SOL    MW4 5693   3.367   2.289   2.340 -0.2191  0.5779  0.4017
 1392SOL     OW 5694   3.157   2.422   2.235  0.0843 -0.4479  0.0920
 1392SOL    HW2 5695   3.165   2.514   2.261 -0.0618 -0.3079 -0.3451
 1392SOL    HW3 5696   3.078   2.391   2.279 -0.6830  0.0464 -0.9202
 1392SOL    MW4 5697   3.148   2.430   2.244 -0.0362 -0.3641 -0.0994
 1393SOL     OW 5698   3.134   2.675   2.347  0.0708 -0.2629 -0.1846
 1393SOL    HW2 5699   3.150   2.680   2.441 -0.4180  1.7138 -0.1792
 1393SOL    HW3 5700   3.048   2.714   2.335  0.3962  0.0805 -1.5188
 1393SOL    MW4 5701   3.125   2.681   2.358  0.0494  0.0432 -0.3600
 1394SOL     OW 5702   3.348   2.822   2.280  0.4042 -0.2400  0.6943
 1394SOL    HW2 5703   3.357   2.911   2.314 -1.5280 -0.8783  2.9964
 1394SOL    HW3 5704   3.253   2.806   2.280  0.6151 -1.7079 -1.2823
 1394SOL    MW4 5705   3.336   2.831   2.284  0.1774 -0.5176  0.7372
 1395SOL     OW 5706   3.356   3.093   2.364 -0.1591 -0.2443 -0.2597
 1395SOL    HW2 5707   3.427   3.153   2.340  0.5823 -1.3028 -0.7598
 1395SOL    HW3 5708   3.277   3.134   2.328 -0.0968  1.8438  1.8262
 1395SOL    MW4 5709   3.355   3.107   2.356 -0.0532 -0.1085 -0.0505
 1396SOL     OW 5710   3.138   3.198   2.243  0.2424 -0.1253  0.4418
 1396SOL    HW2 5711   3.156   3.284   2.282 -0.9474 -0.0444  0.8388
 1396SOL    HW3 5712   3.133   3.215   2.149  0.0915  0.2261  0.5120
 1396SOL    MW4 5713   3.140   3.212   2.236  0.0653 -0.0684  0.5035
 1397SOL     OW 5714   3.193   3.499   2.351  0.5134 -0.3877 -0.7932
 1397SOL    HW2 5715   3.179   3.517   2.444 -0.6010 -1.4508 -0.7434
 1397SOL    HW3 5716   3.259   3.563   2.324  1.4162 -0.5833  0.9055
 1397SOL    MW4 5717   3.199   3.510   2.360  0.4859 -0.5536 -0.5624
 1398SOL     OW 5718   3.383   3.659   2.261  0.0670 -0.6041  0.2082
 1398SOL    HW2 5719   3.460   3.610   2.290  0.6977 -0.9693 -1.9978
 1398SOL    HW3 5720   3.377   3.641   2.167 -1.0806  1.6735 -0.1885
 1398SOL    MW4 5721   3.392   3.650   2.253 -0.0010 -0.3517 -0.1352
 1399SOL     OW 5722   3.381   3.914   2.383  0.8085 -0.1579  0.3469
 1399SOL    HW2 5723   3.441   3.956   2.321  0.9118  0.6870  1.0192
 1399SOL    HW3 5724   3.388   3.821   2.362  2.9863 -0.1759  0.9494
 1399SOL    MW4 5725   3.390   3.907   2.372  1.1094 -0.0489  0.5152
 1400SOL     OW 5726   3.161   4.032   2.268 -0.1304 -0.3242 -0.6465
 1400SOL    HW2 5727   3.242   3.993   2.303 -0.0942 -1.6619 -2.1744
 1400SOL    HW3 5728   3.094   3.966   2.283 -0.5840  0.0561 -0.9846
 1400SOL    MW4 5729   3.163   4.018   2.274 -0.1855 -0.4506 -0.8926
 1401SOL     OW 5730   3.141   4.310   2.359  0.2449 -0.5562 -0.0941
 1401SOL    HW2 5731   3.219   4.337   2.312  0.8087 -1.1514  0.4858
 1401SOL    HW3 5732   3.138   4.215   2.347 -0.3884 -0.5362 -0.1101
 1401SOL    MW4 5733   3.151   4.301   2.351  0.2356 -0.6328 -0.0200
 1402SOL     OW 5734   3.382   4.376   2.231 -0.1735 -0.1339 -0.5680
 1402SOL    HW2 5735   3.386   4.466   2.263  1.2495 -0.3636 -0.0685
 1402SOL    HW3 5736   3.366   4.384   2.137 -0.8054  0.6156 -0.4064
 1402SOL    MW4 5737   3.380   4.389   2.223 -0.0694 -0.0658 -0.4807
 1403SOL     OW 5738   3.809   4.666   2.347 -0.7926  0.3995  0.0784
 1403SOL    HW2 5739   3.813   4.674   2.442  0.1821 -0.4634  0.1140
 1403SOL    HW3 5740   3.892   4.702   2.316  0.2872 -2.2404 -0.2332
 1403SOL    MW4 5741   3.820   4.672   2.356 -0.5217 -0.0620  0.0420
 1404SOL     OW 5742   3.589   0.136   2.209 -0.1150  0.2317 -0.2800
 1404SOL    HW2 5743   3.572   0.220   2.251  0.7747 -0.6676  1.9927
 1404SOL    HW3 5744   3.665   0.100   2.256  0.1732 -1.3785 -1.8851
 1404SOL    MW4 5745   3.597   0.142   2.221  0.0408 -0.0994 -0.1919
 1405SOL     OW 5746   3.554   0.340   2.384  0.4032 -0.2150 -0.0990
 1405SOL    HW2 5747   3.569   0.344   2.479  0.8894  2.3754 -0.2364
 1405SOL    HW3 5748   3.627   0.389   2.347 -0.6045  0.0842 -1.7148
 1405SOL    MW4 5749   3.566   0.347   2.392  0.3345  0.1663 -0.3302
 1406SOL     OW 5750   3.776   0.477   2.276  0.0974 -0.1082  0.3329
 1406SOL    HW2 5751   3.791   0.568   2.303 -3.8512  0.4124  1.1422
 1406SOL    HW3 5752   3.772   0.481   2.181  1.5327  0.2867  0.2863
 1406SOL    MW4 5753   3.777   0.490   2.267 -0.2341  0.0125  0.4334
 1407SOL     OW 5754   3.834   0.759   2.355  0.2380 -0.7571  0.5107
 1407SOL    HW2 5755   3.833   0.780   2.448 -0.9735  0.4981  0.2235
 1407SOL    HW3 5756   3.908   0.809   2.320 -1.5564  1.7157  0.1495
 1407SOL    MW4 5757   3.844   0.768   2.362 -0.1590 -0.2652  0.4256
 1408SOL     OW 5758   3.588   0.878   2.249  0.0747  0.1449  0.4642
 1408SOL    HW2 5759   3.669   0.840   2.284 -0.1691  0.4404  1.3597
 1408SOL    HW3 5760   3.597   0.972   2.266 -0.1367  0.2616 -0.0828
 1408SOL    MW4 5761   3.600   0.886   2.256  0.0150  0.1993  0.5105
 1409SOL     OW 5762   3.594   1.135   2.330 -0.4400 -0.0419 -0.3747
 1409SOL    HW2 5763   3.601   1.139   2.426  1.1388 -0.6670 -0.4447
 1409SOL    HW3 5764   3.514   1.183   2.310 -1.5673 -1.1271  1.3654
 1409SOL    MW4 5765   3.584   1.142   2.340 -0.3805 -0.2675 -0.1545
 1410SOL     OW 5766   3.846   1.264   2.242  0.3029 -0.0504 -0.7230
 1410SOL    HW2 5767   3.839   1.358   2.261 -0.7687 -0.1058 -0.7942
 1410SOL    HW3 5768   3.764   1.227   2.275  1.7905 -1.3647  1.6565
 1410SOL    MW4 5769   3.834   1.271   2.249  0.3579 -0.2313 -0.4189
 1411SOL     OW 5770   3.809   1.517   2.350  0.2383 -0.0038 -0.4345
 1411SOL    HW2 5771   3.799   1.521   2.445  0.3579 -2.0528 -0.3113
 1411SOL    HW3 5772   3.728   1.553   2.316  0.1312  0.6035  0.4440
 1411SOL    MW4 5773   3.797   1.522   2.358  0.2398 -0.1941 -0.3023
 1412SOL     OW 5774   3.590   1.622   2.244  0.0762 -0.1460 -0.3393
 1412SOL    HW2 5775   3.510   1.575   2.270  0.2202 -0.5005 -0.5332
 1412SOL    HW3 5776   3.595   1.611   2.149 -0.1038  0.6027 -0.4365
 1412SOL    MW4 5777   3.580   1.615   2.235  0.0713 -0.0939 -0.3777
 1413SOL     OW 5778   3.576   1.891   2.338  0.0666 -0.3251 -0.0304
 1413SOL    HW2 5779   3.651   1.919   2.285  0.3310 -0.2439  0.3873
 1413SOL    HW3 5780   3.570   1.797   2.323  0.0561 -0.2815 -0.3122
 1413SOL    MW4 5781   3.585   1.883   2.329  0.1001 -0.3086 -0.0124
 1414SOL     OW 5782   3.801   1.998   2.227 -0.3656 -0.5696 -0.4855
 1414SOL    HW2 5783   3.883   1.961   2.262 -0.2849  0.3477  0.3155
 1414SOL    HW3 5784   3.815   2.003   2.133  1.2929  1.5101 -0.1452
 1414SOL    MW4 5785   3.814   1.994   2.219 -0.1364 -0.1742 -0.3347
 1415SOL     OW 5786   3.807   2.287   2.322  0.0975  0.3934 -0.0340
 1415SOL    HW2 5787   3.822   2.291   2.417 -0.4159  0.9075  0.0284
 1415SOL    HW3 5788   3.810   2.194   2.301 -1.2092  0.1579  0.7265
 1415SOL    MW4 5789   3.809   2.275   2.332 -0.1426  0.4301  0.0744
 1416SOL     OW 5790   3.600   2.433   2.243  0.2833  0.1530  0.0807
 1416SOL    HW2 5791   3.529   2.391   2.292 -0.4779 -1.4842 -2.3484
 1416SOL    HW3 5792   3.678   2.383   2.266  0.1264  0.0847  0.4633
 1416SOL    MW4 5793   3.601   2.421   2.253  0.1624 -0.0720 -0.1893
 1417SOL     OW 5794   3.578   2.686   2.366 -0.1926 -0.0806 -0.3685
 1417SOL    HW2 5795   3.581   2.613   2.304 -1.2860  0.1716 -0.7279
 1417SOL    HW3 5796   3.495   2.729   2.349 -0.2669  0.3192  0.9146
 1417SOL    MW4 5797   3.568   2.682   2.356 -0.3467  0.0057 -0.2465
 1418SOL     OW 5798   3.773   2.839   2.243  0.2458  0.6327  0.5186
 1418SOL    HW2 5799   3.783   2.920   2.292  0.0967 -0.3239  2.1639
 1418SOL    HW3 5800   3.715   2.785   2.296  1.9393 -1.3246  0.4578
 1418SOL    MW4 5801   3.767   2.842   2.256  0.4497  0.2482  0.7277
 1419SOL     OW 5802   3.824   3.078   2.362 -0.0675 -0.5052 -0.2190
 1419SOL    HW2 5803   3.811   3.103   2.453 -0.4549  0.6668 -0.5844
 1419SOL    HW3 5804   3.910   3.113   2.339 -0.6695  0.6356 -0.7725
 1419SOL    MW4 5805   3.833   3.086   2.371 -0.1979 -0.2000 -0.3402
 1420SOL     OW 5806   3.592   3.223   2.285  0.1678  0.4887 -0.4810
 1420SOL    HW2 5807   3.586   3.313   2.315 -1.0456 -0.3378  1.9267
 1420SOL    HW3 5808   3.678   3.193   2.315  0.7108  0.9318 -1.5781
 1420SOL    MW4 5809   3.603   3.231   2.293  0.0794  0.4382 -0.3078
 1421SOL     OW 5810   3.580   3.506   2.328  0.4738 -0.3158  0.1272
 1421SOL    HW2 5811   3.591   3.541   2.416 -1.0968  0.8735 -0.1326
 1421SOL    HW3 5812   3.652   3.544   2.278 -0.4779  1.5710  0.1532
 1421SOL    MW4 5813   3.591   3.516   2.333  0.1409  0.0899  0.0966
 1422SOL     OW 5814   3.798   3.629   2.216 -0.6100 -0.1967 -0.8687
 1422SOL    HW2 5815   3.802   3.721   2.240  1.9451  0.0737 -2.2042
 1422SOL    HW3 5816   3.837   3.625   2.129 -1.5417 -2.4131 -1.2146
 1422SOL    MW4 5817   3.804   3.640   2.208 -0.3958 -0.4532 -1.0905
 1423SOL     OW 5818   3.840   3.898   2.287  0.4620 -0.4625 -0.3758
 1423SOL    HW2 5819   3.840   3.899   2.382 -0.1074 -0.3728 -0.3792
 1423SOL    HW3 5820   3.899   3.970   2.262 -0.4976  0.4158 -0.1080
 1423SOL    MW4 5821   3.848   3.908   2.296  0.2604 -0.3350 -0.3409
 1424SOL     OW 5822   3.583   4.010   2.214 -0.3852 -0.7739  0.3612
 1424SOL    HW2 5823   3.590   4.102   2.241  0.8245 -0.4642 -0.9710
 1424SOL    HW3 5824   3.667   3.971   2.237 -0.5112 -1.2958 -0.0542
 1424SOL    MW4 5825   3.595   4.017   2.221 -0.2422 -0.8020  0.1307
 1425SOL     OW 5826   3.579   4.250   2.370  0.1051 -0.2505 -0.7402
 1425SOL    HW2 5827   3.661   4.295   2.352 -1.2360  2.2988 -0.7049
 1425SOL    HW3 5828   3.511   4.308   2.335 -1.8607 -0.7510  2.0269
 1425SOL    MW4 5829   3.581   4.264   2.363 -0.3312  0.0196 -0.3705
 1426SOL     OW 5830   3.799   4.399   2.255  0.3598  0.3069 -0.3805
 1426SOL    HW2 5831   3.889   4.384   2.286 -0.0613 -0.8896  0.3061
 1426SOL    HW3 5832   3.775   4.484   2.292 -0.1002 -1.0647  2.5950
 1426SOL    MW4 5833   3.808   4.408   2.264  0.2434 -0.0319  0.1025
 1427SOL     OW 5834   4.264   4.635   2.398 -0.4968  1.1996 -0.3433
 1427SOL    HW2 5835   4.282   4.629   2.491  0.3525 -0.6818 -0.6073
 1427SOL    HW3 5836   4.342   4.678   2.361  0.9938 -1.7440 -0.7125
 1427SOL    MW4 5837   4.277   4.640   2.405 -0.1879  0.5622 -0.4270
 1428SOL     OW 5838   4.044   0.111   2.282 -0.4090  0.1699  0.2934
 1428SOL    HW2 5839   4.043   0.198   2.322  1.0890  0.5894 -0.5432
 1428SOL    HW3 5840   4.126   0.072   2.311  0.3342  0.1876 -1.7176
 1428SOL    MW4 5841   4.055   0.118   2.291 -0.1130  0.2276 -0.0825
 1429SOL     OW 5842   4.003   0.375   2.388 -0.1184  0.0138 -0.0501
 1429SOL    HW2 5843   4.063   0.436   2.344 -0.2808 -0.6756 -1.2557
 1429SOL    HW3 5844   3.918   0.392   2.347 -0.1378 -1.0999 -0.4999
 1429SOL    MW4 5845   4.000   0.385   2.377 -0.1426 -0.2241 -0.2685
 1430SOL     OW 5846   4.237   0.482   2.271  0.3496 -0.0356  0.2675
 1430SOL    HW2 5847   4.226   0.568   2.312  1.8521  0.8655 -1.1457
 1430SOL    HW3 5848   4.310   0.442   2.318 -0.6432 -0.7447  1.2265
 1430SOL    MW4 5849   4.245   0.488   2.282  0.4163 -0.0103  0.2077
 1431SOL     OW 5850   4.255   0.724   2.392  0.4691 -0.2834  0.1493
 1431SOL    HW2 5851   4.185   0.781   2.358 -0.4905 -1.7338 -0.3632
 1431SOL    HW3 5852   4.335   0.756   2.351  0.0640  1.2297  0.5250
 1431SOL    MW4 5853   4.256   0.736   2.382  0.2890 -0.2751  0.1314
 1432SOL     OW 5854   4.079   0.878   2.263 -0.7228 -0.2238  0.1889
 1432SOL    HW2 5855   4.087   0.969   2.290 -1.3105 -0.5866  1.5926
 1432SOL    HW3 5856   4.066   0.883   2.168  1.4099  1.0456 -0.0621
 1432SOL    MW4 5857   4.078   0.891   2.254 -0.5188 -0.1042  0.3409
 1433SOL     OW 5858   4.051   1.142   2.383 -0.3353  0.4322 -0.4649
 1433SOL    HW2 5859   4.038   1.176   2.472  0.2781 -0.6693  0.0540
 1433SOL    HW3 5860   3.977   1.177   2.334 -1.8686 -0.6580  0.9829
 1433SOL    MW4 5861   4.040   1.151   2.389 -0.4573  0.1431 -0.2053
 1434SOL     OW 5862   4.247   1.256   2.217  0.3779  0.2762 -0.1431
 1434SOL    HW2 5863   4.174   1.211   2.261 -0.5330  0.4001 -1.4841
 1434SOL    HW3 5864   4.325   1.210   2.247 -0.0983  1.0446  2.4605
 1434SOL    MW4 5865   4.247   1.244   2.227  0.1950  0.3940  0.0238
 1435SOL     OW 5866   4.240   1.490   2.388 -0.3417 -0.1546 -0.9036
 1435SOL    HW2 5867   4.241   1.407   2.339  1.4940  0.1523 -1.4425
 1435SOL    HW3 5868   4.303   1.545   2.342 -0.0722  0.8434  0.6259
 1435SOL    MW4 5869   4.249   1.486   2.376 -0.0644  0.0175 -0.7730
 1436SOL     OW 5870   4.048   1.647   2.256 -0.3309 -0.6395 -0.5837
 1436SOL    HW2 5871   4.111   1.581   2.284  0.7926  0.5675 -0.2577
 1436SOL    HW3 5872   3.963   1.611   2.282  0.4308 -1.0569  1.3793
 1436SOL    MW4 5873   4.045   1.633   2.263 -0.0820 -0.5352 -0.2818
 1437SOL     OW 5874   4.038   1.902   2.364  0.0398  0.5087  0.0270
 1437SOL    HW2 5875   4.048   1.889   2.459 -0.8724 -0.0617  0.0569
 1437SOL    HW3 5876   4.060   1.817   2.326 -0.1457  0.5762 -0.2310
 1437SOL    MW4 5877   4.042   1.889   2.372 -0.1049  0.4424 -0.0031
 1438SOL     OW 5878   4.245   2.057   2.250 -0.0953 -0.1029 -0.0308
 1438SOL    HW2 5879   4.247   2.149   2.277 -0.8331 -0.0025 -0.3044
 1438SOL    HW3 5880   4.173   2.018   2.301  0.0169 -0.4553 -0.1380
 1438SOL    MW4 5881   4.236   2.064   2.260 -0.1779 -0.1361 -0.0811
 1439SOL     OW 5882   4.229   2.318   2.343 -0.3127  0.2586 -0.3816
 1439SOL    HW2 5883   4.154   2.364   2.306 -0.9945 -0.1361  0.5028
 1439SOL    HW3 5884   4.305   2.367   2.312 -0.8686 -0.0520 -2.2659
 1439SOL    MW4 5885   4.229   2.331   2.334 -0.4759  0.1655 -0.5133
 1440SOL     OW 5886   4.035   2.434   2.211 -0.3989 -0.5836 -0.0292
 1440SOL    HW2 5887   4.027   2.522   2.247 -1.1583  0.0018 -1.5645
 1440SOL    HW3 5888   3.961   2.385   2.248 -2.5199  0.6400 -2.4675
 1440SOL    MW4 5889   4.024   2.439   2.221 -0.7792 -0.3448 -0.5536
 1441SOL     OW 5890   3.999   2.683   2.322  0.0714 -0.3607 -0.5474
 1441SOL    HW2 5891   4.008   2.699   2.417 -2.5482 -1.2573 -0.1141
 1441SOL    HW3 5892   3.916   2.725   2.299  0.8362  0.1075 -2.5398
 1441SOL    MW4 5893   3.989   2.691   2.332 -0.1733 -0.4172 -0.7532
 1442SOL     OW 5894   4.224   2.851   2.277 -0.0657 -0.6519 -0.0897
 1442SOL    HW2 5895   4.150   2.791   2.290  0.0602 -0.7556  0.1670
 1442SOL    HW3 5896   4.297   2.807   2.321 -0.0587 -0.1358  0.4216
 1442SOL    MW4 5897   4.224   2.837   2.285 -0.0482 -0.5975  0.0117
 1443SOL     OW 5898   4.316   3.106   2.356  0.1768 -0.3400  0.7365
 1443SOL    HW2 5899   4.287   3.024   2.315 -0.6152 -0.3414  1.2957
 1443SOL    HW3 5900   4.304   3.091   2.450  1.1547 -0.0112  0.9166
 1443SOL    MW4 5901   4.310   3.093   2.363  0.2017 -0.2968  0.8340
 1444SOL     OW 5902   4.052   3.195   2.279  0.2826  0.3577 -0.1707
 1444SOL    HW2 5903   4.043   3.278   2.326  1.3034 -0.5049  1.6078
 1444SOL    HW3 5904   4.128   3.153   2.320 -0.2177 -1.4437 -1.0649
 1444SOL    MW4 5905   4.061   3.200   2.291  0.3514  0.0062 -0.0541
 1445SOL     OW 5906   4.023   3.468   2.363 -0.2121  0.0379  0.1014
 1445SOL    HW2 5907   4.101   3.503   2.320  0.7060  0.0591  1.7321
 1445SOL    HW3 5908   3.950   3.510   2.319  0.7080  0.1785 -1.3146
 1445SOL    MW4 5909   4.024   3.478   2.352  0.0310  0.0591  0.1299
 1446SOL     OW 5910   4.272   3.620   2.260 -0.2012  0.0978 -0.2773
 1446SOL    HW2 5911   4.251   3.709   2.288  0.3602  0.0596  0.2837
 1446SOL    HW3 5912   4.264   3.622   2.164  0.5487  0.9604 -0.3315
 1446SOL    MW4 5913   4.268   3.632   2.251 -0.0286  0.2067 -0.2103
 1447SOL     OW 5914   4.233   3.890   2.310 -0.0151  0.2829 -0.0082
 1447SOL    HW2 5915   4.241   3.884   2.405  2.3164 -0.4267 -0.2143
 1447SOL    HW3 5916   4.315   3.931   2.281 -0.3377 -0.2546 -1.7812
 1447SOL    MW4 5917   4.245   3.895   2.318  0.2499  0.1183 -0.2692
 1448SOL     OW 5918   4.046   4.075   2.206  0.3879 -0.2311  0.2144
 1448SOL    HW2 5919   4.113   4.012   2.232  0.7758  0.0072 -0.1760
 1448SOL    HW3 5920   4.044   4.069   2.110 -2.1373 -2.2297  0.3619
 1448SOL    MW4 5921   4.055   4.066   2.197  0.1063 -0.4635  0.1826
 1449SOL     OW 5922   4.047   4.289   2.378  0.3092 -0.1472 -0.2770
 1449SOL    HW2 5923   4.136   4.320   2.361  0.0320  0.1689 -1.1976
 1449SOL    HW3 5924   4.037   4.213   2.320 -0.3852  0.4750 -0.9818
 1449SOL    MW4 5925   4.058   4.283   2.368  0.1812 -0.0234 -0.4914
 1450SOL     OW 5926   4.311   4.402   2.277 -0.1199 -0.2492  0.7042
 1450SOL    HW2 5927   4.304   4.485   2.325  0.4271 -0.5734  1.3558
 1450SOL    HW3 5928   4.390   4.361   2.312 -0.5648 -1.1929  0.6145
 1450SOL    MW4 5929   4.320   4.408   2.288 -0.1068 -0.4158  0.7782
 1451SOL     OW 5930   0.243   4.630   2.639  0.4424 -0.2480  0.3214
 1451SOL    HW2 5931   0.213   4.539   2.645  0.1593 -0.2325 -0.8072
 1451SOL    HW3 5932   0.174   4.680   2.682 -0.3916 -0.3730 -0.8559
 1451SOL    MW4 5933   0.230   4.625   2.646  0.2951 -0.2627  0.0172
 1452SOL     OW 5934   0.035   0.082   2.757  0.3540  0.1338 -0.2562
 1452SOL    HW2 5935   0.059   0.090   2.849 -1.3656  0.0743  0.2217
 1452SOL    HW3 5936   0.032   0.172   2.725  0.5295  0.1807 -0.1398
 1452SOL    MW4 5937   0.037   0.095   2.765  0.1502  0.1322 -0.1776
 1453SOL     OW 5938   0.004   0.346   2.640  0.6413  0.3004  0.2891
 1453SOL    HW2 5939   0.078   0.402   2.666  1.3410 -0.3271 -0.3371
 1453SOL    HW3 5940   0.004   0.349   2.544  0.2354 -0.2094  0.2715
 1453SOL    MW4 5941   0.014   0.354   2.631  0.6801  0.1503  0.2043
 1454SOL     OW 5942   0.243   0.488   2.719 -0.5185 -0.1368 -0.7065
 1454SOL    HW2 5943   0.243   0.478   2.814 -1.2259 -0.6682 -0.7564
 1454SOL    HW3 5944   0.323   0.445   2.690  0.1051  0.7314 -0.2842
 1454SOL    MW4 5945   0.253   0.481   2.728 -0.5296 -0.0924 -0.6573
 1455SOL     OW 5946   0.224   0.753   2.625 -0.3948  0.3253 -0.1888
 1455SOL    HW2 5947   0.246   0.667   2.660 -1.1239 -0.0128 -0.5632
 1455SOL    HW3 5948   0.288   0.812   2.665 -0.1775 -0.3154  0.4169
 1455SOL    MW4 5949   0.236   0.749   2.635 -0.4623  0.1962 -0.1581
 1456SOL     OW 5950   4.488   0.891   2.746  0.1460 -0.5828  0.1535
 1456SOL    HW2 5951   4.409   0.841   2.725 -0.4026  0.5647 -0.5320
 1456SOL    HW3 5952   4.558   0.845   2.699 -0.5499 -0.0118 -1.5035
 1456SOL    MW4 5953   4.487   0.878   2.737 -0.0182 -0.3561 -0.1557
 1457SOL     OW 5954   4.450   1.129   2.602  0.0242 -0.1889 -0.3392
 1457SOL    HW2 5955   4.465   1.042   2.639 -0.4244 -0.0321  0.2149
 1457SOL    HW3 5956   4.390   1.172   2.663 -1.0877 -0.0822 -1.4925
 1457SOL    MW4 5957   4.444   1.123   2.615 -0.1817 -0.1541 -0.4179
 1458SOL     OW 5958   0.164   1.284   2.731  0.0464  0.5731  0.4075
 1458SOL    HW2 5959   0.096   1.236   2.685  0.1238  1.8248 -1.0597
 1458SOL    HW3 5960   0.246   1.245   2.701  0.0087 -0.7769  1.9948
 1458SOL    MW4 5961   0.166   1.273   2.721  0.0516  0.5602  0.4234
 1459SOL     OW 5962   0.236   1.538   2.627 -0.2767  0.2816  0.0648
 1459SOL    HW2 5963   0.223   1.448   2.655 -1.9099 -0.1798 -2.1142
 1459SOL    HW3 5964   0.161   1.585   2.663 -0.1805  0.4967 -0.0161
 1459SOL    MW4 5965   0.224   1.533   2.635 -0.4795  0.2491 -0.2332
 1460SOL     OW 5966   0.031   1.667   2.737  0.5333 -0.1250 -0.2848
 1460SOL    HW2 5967   0.017   1.677   2.831  0.6015 -0.9932 -0.1770
 1460SOL    HW3 5968   0.022   1.755   2.702 -0.5062  0.0546  0.4002
 1460SOL    MW4 5969   0.028   1.680   2.745  0.4048 -0.2160 -0.1800
 1461SOL     OW 5970   4.489   1.884   2.557 -0.5333 -0.1453  0.1163
 1461SOL    HW2 5971   4.550   1.948   2.594 -0.1375 -1.1113  1.1591
 1461SOL    HW3 5972   4.500   1.893   2.462  1.8936 -0.9226  0.2850
 1461SOL    MW4 5973   4.499   1.894   2.549 -0.1609 -0.3753  0.2763
 1462SOL     OW 5974   0.193   2.038   2.697  0.1186 -0.7152 -0.2226
 1462SOL    HW2 5975   0.179   2.045   2.792  1.2854 -1.7392  0.0324
 1462SOL    HW3 5976   0.279   1.997   2.688 -0.4105 -1.5450 -1.7294
 1462SOL    MW4 5977   0.202   2.034   2.708  0.2027 -0.9596 -0.3877
 1463SOL     OW 5978   0.247   2.310   2.621  0.2700 -0.5197 -0.1593
 1463SOL    HW2 5979   0.242   2.222   2.659 -0.6845 -0.6166 -0.4896
 1463SOL    HW3 5980   0.177   2.359   2.665 -0.4537 -0.4618 -1.3603
 1463SOL    MW4 5981   0.237   2.305   2.632  0.0486 -0.5250 -0.3614
 1464SOL     OW 5982   0.004   2.446   2.697 -0.3433  0.3288 -0.1725
 1464SOL    HW2 5983   0.009   2.441   2.793  0.2391  0.7708 -0.1755
 1464SOL    HW3 5984  -0.075   2.398   2.675 -0.4706  0.2018  0.5335
 1464SOL    MW4 5985  -0.005   2.439   2.707 -0.2832  0.3703 -0.0796
 1465SOL     OW 5986   4.490   2.719   2.623  0.2870 -0.0047 -0.2498
 1465SOL    HW2 5987   4.575   2.758   2.646 -0.2810  0.2348  1.4317
 1465SOL    HW3 5988   4.498   2.628   2.648  1.0154 -0.6472 -2.6593
 1465SOL    MW4 5989   4.503   2.712   2.629  0.3082 -0.0579 -0.3457
 1466SOL     OW 5990   0.207   2.861   2.725 -0.1408 -0.4084 -0.7665
 1466SOL    HW2 5991   0.215   2.953   2.699  0.9454  0.4101  2.2855
 1466SOL    HW3 5992   0.290   2.821   2.697  0.0671 -0.0812 -0.6206
 1466SOL    MW4 5993   0.219   2.868   2.718  0.0299 -0.2575 -0.3445
 1467SOL     OW 5994   0.197   3.129   2.622  0.0572  0.2503  0.3560
 1467SOL    HW2 5995   0.271   3.176   2.661 -0.2159  0.2433  0.8845
 1467SOL    HW3 5996   0.204   3.147   2.528 -0.0042  1.2729  0.5450
 1467SOL    MW4 5997   0.208   3.137   2.615  0.0130  0.3843  0.4506
 1468SOL     OW 5998   4.460   3.225   2.724  0.3465  0.2944 -0.5554
 1468SOL    HW2 5999   4.544   3.187   2.697  1.0173  2.3394 -1.4515
 1468SOL    HW3 6000   4.465   3.230   2.820  0.5934 -1.0280 -0.4889
 1468SOL    MW4 6001   4.472   3.221   2.733  0.4678  0.3898 -0.6652
 1469SOL     OW 6002   0.001   3.484   2.624 -0.1822  0.6288 -0.0178
 1469SOL    HW2 6003   0.067   3.507   2.690  0.0669  0.9324 -0.3689
 1469SOL    HW3 6004  -0.020   3.393   2.642  2.1435 -0.2433 -1.4262
 1469SOL    MW4 6005   0.007   3.475   2.635  0.1578  0.5538 -0.2499
 1470SOL     OW 6006   0.221   3.597   2.778 -0.0932  0.2290 -0.0134
 1470SOL    HW2 6007   0.230   3.615   2.872  1.1239  1.1765 -0.2932
 1470SOL    HW3 6008   0.225   3.684   2.737 -0.0094 -0.2282 -0.9793
 1470SOL    MW4 6009   0.223   3.611   2.785  0.0784  0.2935 -0.1779
 1471SOL     OW 6010   0.222   3.844   2.645 -0.3453  0.3455  0.0950
 1471SOL    HW2 6011   0.148   3.895   2.677  0.7921  2.0635  0.0643
 1471SOL    HW3 6012   0.203   3.828   2.553 -1.2138 -0.2017  0.3709
 1471SOL    MW4 6013   0.210   3.848   2.637 -0.3098  0.4997  0.1271
 1472SOL     OW 6014   4.481   3.970   2.723  0.2573  0.4020 -0.0924
 1472SOL    HW2 6015   4.483   4.062   2.699 -0.8066  0.8988  1.6613
 1472SOL    HW3 6016   4.490   3.969   2.818 -2.3956 -1.1594  0.1910
 1472SOL    MW4 6017   4.483   3.982   2.732 -0.2332  0.2615  0.1762
 1473SOL     OW 6018   0.015   4.231   2.631 -0.4402 -0.1002  0.0736
 1473SOL    HW2 6019  -0.063   4.271   2.671 -0.0718  1.1649 -0.4421
 1473SOL    HW3 6020   0.088   4.281   2.666  0.1275 -1.0460  0.2606
 1473SOL    MW4 6021   0.014   4.243   2.641 -0.3166 -0.0582  0.0303
 1474SOL     OW 6022   0.211   4.390   2.741  0.5565 -0.1451  0.1165
 1474SOL    HW2 6023   0.207   4.389   2.837 -0.2932 -1.3888  0.0872
 1474SOL    HW3 6024   0.291   4.342   2.719  0.2847 -0.6470  0.2008
 1474SOL    MW4 6025   0.221   4.383   2.751  0.4085 -0.3753  0.1240
 1475SOL     OW 6026   0.705   4.625   2.627 -0.3113  0.1652 -0.4538
 1475SOL    HW2 6027   0.787   4.669   2.649 -0.2669 -0.4740  0.7062
 1475SOL    HW3 6028   0.638   4.674   2.675 -0.3012 -0.8053  0.5806
 1475SOL    MW4 6029   0.707   4.637   2.637 -0.3040 -0.0472 -0.1643
 1476SOL     OW 6030   0.477   0.085   2.737 -0.3816 -0.4050  0.0793
 1476SOL    HW2 6031   0.465   0.072   2.831 -0.8049 -0.6449 -0.0105
 1476SOL    HW3 6032   0.404   0.039   2.696  1.2967 -2.6289 -0.4925
 1476SOL    MW4 6033   0.466   0.078   2.744 -0.2160 -0.7300 -0.0079
 1477SOL     OW 6034   0.466   0.348   2.642  0.1647 -0.3933  0.0538
 1477SOL    HW2 6035   0.536   0.396   2.686  0.8689  0.0684 -1.5376
 1477SOL    HW3 6036   0.472   0.259   2.676  0.5703  0.0013  1.0268
 1477SOL    MW4 6037   0.476   0.343   2.652  0.3112 -0.2803 -0.0277
 1478SOL     OW 6038   0.712   0.515   2.758 -0.3245  0.0783  0.0548
 1478SOL    HW2 6039   0.717   0.485   2.849 -2.3772 -1.5103 -0.3091
 1478SOL    HW3 6040   0.780   0.466   2.712 -1.3410 -1.4539  0.1564
 1478SOL    MW4 6041   0.721   0.505   2.764 -0.7295 -0.3334  0.0203
 1479SOL     OW 6042   0.669   0.779   2.687 -0.1504 -0.2408 -0.0232
 1479SOL    HW2 6043   0.750   0.824   2.711  0.9512 -2.0895 -0.1333
 1479SOL    HW3 6044   0.676   0.693   2.730 -1.9797 -0.4804 -0.1685
 1479SOL    MW4 6045   0.680   0.773   2.696 -0.2464 -0.5163 -0.0570
 1480SOL     OW 6046   0.427   0.882   2.778  0.1363  0.3166 -0.4852
 1480SOL    HW2 6047   0.430   0.973   2.747 -0.8733 -0.0597 -1.7505
 1480SOL    HW3 6048   0.507   0.842   2.743  0.7808  0.8092  0.4049
 1480SOL    MW4 6049   0.438   0.889   2.769  0.0882  0.3319 -0.5345
 1481SOL     OW 6050   0.404   1.151   2.703  0.3473  0.1211 -0.7892
 1481SOL    HW2 6051   0.481   1.199   2.734  0.4275 -0.1203 -0.6160
 1481SOL    HW3 6052   0.414   1.149   2.608  1.6486 -1.7654 -0.6199
 1481SOL    MW4 6053   0.415   1.157   2.694  0.5296 -0.1596 -0.7439
 1482SOL     OW 6054   0.651   1.287   2.778  0.0336  0.0169  0.0991
 1482SOL    HW2 6055   0.674   1.288   2.871  0.1467  0.6731  0.0660
 1482SOL    HW3 6056   0.723   1.240   2.736 -0.2818 -0.7489  0.4118
 1482SOL    MW4 6057   0.663   1.281   2.785  0.0069  0.0024  0.1361
 1483SOL     OW 6058   0.650   1.521   2.630  0.4653 -0.0936  0.4886
 1483SOL    HW2 6059   0.594   1.585   2.672  0.9016 -0.0402  1.0040
 1483SOL    HW3 6060   0.644   1.443   2.686 -0.2775 -0.5927 -0.2834
 1483SOL    MW4 6061   0.642   1.519   2.643  0.4249 -0.1526  0.4547
 1484SOL     OW 6062   0.458   1.664   2.751  0.2666  0.0068  0.0069
 1484SOL    HW2 6063   0.460   1.677   2.845  0.4914  0.9062 -0.1179
 1484SOL    HW3 6064   0.376   1.618   2.735 -0.8008  1.7358  0.4132
 1484SOL    MW4 6065   0.448   1.660   2.761  0.1554  0.3536  0.0441
 1485SOL     OW 6066   0.436   1.914   2.613 -0.0607  0.4563  0.6100
 1485SOL    HW2 6067   0.510   1.948   2.663 -0.2604  0.5391  0.8478
 1485SOL    HW3 6068   0.426   1.824   2.645  1.5839 -0.4432 -1.2529
 1485SOL    MW4 6069   0.445   1.907   2.624  0.1299  0.3487  0.3955
 1486SOL     OW 6070   0.660   2.039   2.733 -0.5025 -0.0643  0.2283
 1486SOL    HW2 6071   0.675   2.053   2.826 -0.1218  1.3647 -0.0455
 1486SOL    HW3 6072   0.736   1.990   2.703 -0.3135  0.0420  0.5325
 1486SOL    MW4 6073   0.672   2.034   2.741 -0.4274  0.1380  0.2322
 1487SOL     OW 6074   0.665   2.284   2.610 -0.5742  0.0693  0.0369
 1487SOL    HW2 6075   0.748   2.323   2.637 -0.4717  0.0955 -0.3156
 1487SOL    HW3 6076   0.664   2.198   2.653 -0.1989 -0.0820 -0.2507
 1487SOL    MW4 6077   0.676   2.278   2.619 -0.5112  0.0529 -0.0477
 1488SOL     OW 6078   0.475   2.437   2.736  0.1664  0.1323  0.1268
 1488SOL    HW2 6079   0.404   2.387   2.697 -0.0151  0.9092 -0.5686
 1488SOL    HW3 6080   0.555   2.397   2.702  0.0256  0.1997 -0.2831
 1488SOL    MW4 6081   0.476   2.425   2.726  0.1239  0.2437 -0.0191
 1489SOL     OW 6082   0.415   2.721   2.659 -0.1336 -0.0523  0.1533
 1489SOL    HW2 6083   0.437   2.629   2.671  0.4949  0.0945  0.1031
 1489SOL    HW3 6084   0.492   2.769   2.690 -0.7122  0.4734  0.8049
 1489SOL    MW4 6085   0.428   2.715   2.665 -0.1270  0.0362  0.2327
 1490SOL     OW 6086   0.655   2.815   2.754  0.2871 -0.2921  0.3009
 1490SOL    HW2 6087   0.648   2.822   2.849  1.5235 -0.0129  0.3874
 1490SOL    HW3 6088   0.676   2.904   2.725 -2.2283  0.0737 -0.4601
 1490SOL    MW4 6089   0.657   2.828   2.763  0.1183 -0.2069  0.2120
 1491SOL     OW 6090   0.687   3.060   2.641  0.2349 -0.2587  0.0872
 1491SOL    HW2 6091   0.761   3.113   2.671  0.3509  0.3303 -1.1733
 1491SOL    HW3 6092   0.680   3.081   2.547 -2.5284  0.9550  0.5134
 1491SOL    MW4 6093   0.696   3.070   2.632 -0.1144 -0.0210 -0.0229
 1492SOL     OW 6094   0.443   3.185   2.746  0.5841  0.1323 -0.0209
 1492SOL    HW2 6095   0.451   3.169   2.840  0.2626 -0.4622 -0.0914
 1492SOL    HW3 6096   0.525   3.151   2.709  0.4797 -0.1332 -0.0136
 1492SOL    MW4 6097   0.455   3.178   2.753  0.5279  0.0188 -0.0293
 1493SOL     OW 6098   0.423   3.438   2.638 -0.4639  0.1622 -0.5136
 1493SOL    HW2 6099   0.435   3.352   2.677  1.2766  0.9718  0.7857
 1493SOL    HW3 6100   0.348   3.475   2.684  0.3687  0.3371  0.7264
 1493SOL    MW4 6101   0.415   3.432   2.649 -0.1244  0.2923 -0.1786
 1494SOL     OW 6102   0.648   3.570   2.709  0.2459 -0.2255  0.6793
 1494SOL    HW2 6103   0.658   3.564   2.804 -1.8302 -1.4787  0.8437
 1494SOL    HW3 6104   0.569   3.519   2.690 -0.5429  1.7332 -1.4775
 1494SOL    MW4 6105   0.639   3.563   2.719 -0.1321 -0.1328  0.4163
 1495SOL     OW 6106   0.681   3.832   2.618 -0.3600 -0.4728 -0.0096
 1495SOL    HW2 6107   0.608   3.879   2.657  0.4296  0.6333  0.1628
 1495SOL    HW3 6108   0.667   3.740   2.643 -1.1674 -0.1291  0.8076
 1495SOL    MW4 6109   0.670   3.826   2.626 -0.3624 -0.2818  0.1206
 1496SOL     OW 6110   0.456   3.953   2.723  0.0021  0.0799  0.4141
 1496SOL    HW2 6111   0.423   4.042   2.713  0.3689  0.2490  0.7010
 1496SOL    HW3 6112   0.381   3.897   2.700 -0.9695  0.4566  2.4992
 1496SOL    MW4 6113   0.442   3.958   2.719 -0.0777  0.1521  0.7269
 1497SOL     OW 6114   0.420   4.233   2.652 -0.1954 -0.0480 -0.5483
 1497SOL    HW2 6115   0.505   4.266   2.681  0.0793  0.4141 -1.8596
 1497SOL    HW3 6116   0.422   4.242   2.557 -0.6317 -2.5727 -0.8411
 1497SOL    MW4 6117   0.432   4.238   2.643 -0.2167 -0.3204 -0.7598
 1498SOL     OW 6118   0.651   4.372   2.740  0.4508 -0.3300 -0.1326
 1498SOL    HW2 6119   0.724   4.317   2.713  1.6896  1.5374 -0.7646
 1498SOL    HW3 6120   0.679   4.461   2.717 -1.2997  0.6040  1.2094
 1498SOL    MW4 6121   0.664   4.377   2.733  0.3833  0.0391 -0.0391
 1499SOL     OW 6122   1.145   4.619   2.622 -0.0298  0.3185  0.2186
 1499SOL    HW2 6123   1.215   4.666   2.669  1.4443 -0.1872 -1.4144
 1499SOL    HW3 6124   1.137   4.536   2.669  0.4630  0.3880  0.4314
 1499SOL    MW4 6125   1.153   4.614   2.635  0.2297  0.2613  0.0312
 1500SOL     OW 6126   0.926   0.082   2.719 -0.3560  0.1287  0.1271
 1500SOL    HW2 6127   0.929   0.080   2.814 -0.2634  1.0407  0.1484
 1500SOL    HW3 6128   1.006   0.036   2.692 -0.5106 -0.3519  0.4846
 1500SOL    MW4 6129   0.937   0.076   2.728 -0.3642  0.1856  0.1771
 1501SOL     OW 6130   0.910   0.342   2.643  0.4559  0.1631  0.3178
 1501SOL    HW2 6131   0.884   0.259   2.682 -1.9527  1.0456  0.6743
 1501SOL    HW3 6132   0.906   0.327   2.549 -0.3444 -0.0432  0.3782
 1501SOL    MW4 6133   0.906   0.329   2.636  0.0325  0.2523  0.3729
 1502SOL     OW 6134   1.129   0.494   2.757 -0.7037 -0.0538  0.4095
 1502SOL    HW2 6135   1.108   0.582   2.725 -1.0540 -0.8277 -1.5611
 1502SOL    HW3 6136   1.068   0.436   2.709  0.9464 -1.5704  0.0975
 1502SOL    MW4 6137   1.118   0.498   2.746 -0.5322 -0.3560  0.1085
 1503SOL     OW 6138   1.082   0.764   2.678  0.4440 -0.1950  0.0866
 1503SOL    HW2 6139   1.171   0.794   2.698  0.2606  0.7219 -0.4750
 1503SOL    HW3 6140   1.085   0.739   2.586 -0.3058  1.4355 -0.3966
 1503SOL    MW4 6141   1.095   0.765   2.669  0.3210  0.1411 -0.0513
 1504SOL     OW 6142   0.877   0.912   2.800  0.4465 -0.3283  0.6596
 1504SOL    HW2 6143   0.867   0.897   2.894  1.7437  0.0295  0.8536
 1504SOL    HW3 6144   0.947   0.852   2.773 -1.0882 -1.6921 -0.4141
 1504SOL    MW4 6145   0.885   0.902   2.809  0.4151 -0.4610  0.5434
 1505SOL     OW 6146   0.880   1.174   2.665 -0.1574 -0.3977  0.5682
 1505SOL    HW2 6147   0.888   1.086   2.702  0.7661 -0.6858 -0.3174
 1505SOL    HW3 6148   0.876   1.161   2.571  2.0989  0.6435  0.3044
 1505SOL    MW4 6149   0.880   1.161   2.658  0.2621 -0.2984  0.4168
 1506SOL     OW 6150   1.134   1.317   2.682 -0.3912  0.0119  0.1261
 1506SOL    HW2 6151   1.139   1.409   2.657 -1.0424 -0.1421 -0.5675
 1506SOL    HW3 6152   1.044   1.292   2.665  0.4825 -1.5318 -2.4118
 1506SOL    MW4 6153   1.123   1.326   2.677 -0.3619 -0.2120 -0.3002
 1507SOL     OW 6154   1.131   1.604   2.602  0.3304 -0.0809 -0.1877
 1507SOL    HW2 6155   1.045   1.628   2.638  0.4607 -0.4248  0.3527
 1507SOL    HW3 6156   1.121   1.613   2.507  0.2865  1.8639 -0.0180
 1507SOL    MW4 6157   1.118   1.609   2.594  0.3418  0.1304 -0.0939
 1508SOL     OW 6158   0.896   1.648   2.727 -0.1211  0.3929  0.1687
 1508SOL    HW2 6159   0.895   1.645   2.823 -1.5364  0.3715  0.1573
 1508SOL    HW3 6160   0.823   1.593   2.700  1.5108 -1.2951 -0.9853
 1508SOL    MW4 6161   0.886   1.640   2.736 -0.0925  0.1676  0.0148
 1509SOL     OW 6162   0.890   1.911   2.651  0.2867 -0.4371  0.2024
 1509SOL    HW2 6163   0.965   1.962   2.681  1.2805 -0.3480 -2.3061
 1509SOL    HW3 6164   0.902   1.825   2.692  1.0937 -0.0431  0.8046
 1509SOL    MW4 6165   0.901   1.906   2.660  0.5243 -0.3734 -0.0491
 1510SOL     OW 6166   1.121   2.049   2.746  0.3741  0.4903 -0.0454
 1510SOL    HW2 6167   1.183   1.994   2.698 -0.7153 -0.6177 -0.2015
 1510SOL    HW3 6168   1.125   2.134   2.702  2.4383  0.6979  0.5129
 1510SOL    MW4 6169   1.130   2.053   2.734  0.5027  0.3717  0.0076
 1511SOL     OW 6170   1.161   2.279   2.605  0.3415  0.1918 -0.4795
 1511SOL    HW2 6171   1.237   2.328   2.636  0.9960 -0.0906 -1.6013
 1511SOL    HW3 6172   1.152   2.305   2.513 -2.5077  2.2157  0.3077
 1511SOL    MW4 6173   1.170   2.289   2.597  0.0520  0.4213 -0.5238
 1512SOL     OW 6174   0.904   2.409   2.732  0.0000  0.0000  0.6200
 1512SOL    HW2 6175   0.902   2.499   2.700  0.0000  0.0000  0.5877
 1512SOL    HW3 6176   0.979   2.370   2.687  0.0000  0.0000  0.6615
 1512SOL    MW4 6177   0.914   2.416   2.722  0.0000  0.0000  0.6213
 1513SOL     OW 6178   0.874   2.673   2.631  0.0000  0.0000 -0.3509
 1513SOL    HW2 6179   0.947   2.714   2.677  0.0000  0.0000 -0.3498
 1513SOL    HW3 6180   0.796   2.710   2.674  0.0000  0.0000 -0.3382
 1513SOL    MW4 6181   0.873   2.683   2.643  0.0000  0.0000 -0.3488
 1514SOL     OW 6182   1.083   2.832   2.716  0.0000  0.0000  0.7252
 1514SOL    HW2 6183   1.106   2.825   2.809  0.0000  0.0000  0.7265
 1514SOL    HW3 6184   1.159   2.795   2.670  0.0000  0.0000  0.7302
 1514SOL    MW4 6185   1.096   2.826   2.722  0.0000  0.0000  0.7260
 1515SOL     OW 6186   1.148   3.096   2.638  0.0000  0.0000  0.4168
 1515SOL    HW2 6187   1.122   3.007   2.661  0.0000  0.0000  0.4197
 1515SOL    HW3 6188   1.136   3.101   2.543  0.0000  0.0000  0.4169
 1515SOL    MW4 6189   1.143   3.085   2.629  0.0000  0.0000  0.4172
 1516SOL     OW 6190   0.919   3.208   2.728  0.0000  0.0000 -0.2899
 1516SOL    HW2 6191   0.903   3.287   2.676  0.0000  0.0000 -0.2883
 1516SOL    HW3 6192   1.006   3.179   2.701  0.0000  0.0000 -0.2710
 1516SOL    MW4 6193   0.928   3.215   2.718  0.0000  0.0000 -0.2873
 1517SOL     OW 6194   0.887   3.462   2.609  0.0000  0.0000  0.2177
 1517SOL    HW2 6195   0.961   3.509   2.650  0.0000  0.0000  0.1916
 1517SOL    HW3 6196   0.810   3.512   2.637  0.0000  0.0000  0.2771
 1517SOL    MW4 6197   0.887   3.475   2.618  0.0000  0.0000  0.2220
 1518SOL     OW 6198   1.102   3.599   2.720  0.0000  0.0000  0.1152
 1518SOL    HW2 6199   1.101   3.626   2.812  0.0000  0.0000  0.1164
 1518SOL    HW3 6200   1.100   3.681   2.671  0.0000  0.0000  0.1187
 1518SOL    MW4 6201   1.102   3.613   2.726  0.0000  0.0000  0.1161
 1519SOL     OW 6202   1.098   3.851   2.615  0.0000  0.0000  0.6451
 1519SOL    HW2 6203   1.178   3.889   2.653  0.0000  0.0000  0.6570
 1519SOL    HW3 6204   1.110   3.859   2.520  0.0000  0.0000  0.6470
 1519SOL    MW4 6205   1.110   3.857   2.608  0.0000  0.0000  0.6471
 1520SOL     OW 6206   0.893   4.008   2.739  0.0000  0.0000 -0.4371
 1520SOL    HW2 6207   0.957   3.963   2.684  0.0000  0.0000 -0.4384
 1520SOL    HW3 6208   0.809   3.969   2.714  0.0000  0.0000 -0.4276
 1520SOL    MW4 6209   0.890   3.997   2.728  0.0000  0.0000 -0.4358
 1521SOL     OW 6210   0.871   4.265   2.639  0.2875  0.4063 -0.4971
 1521SOL    HW2 6211   0.873   4.171   2.656 -0.1631  0.5669  0.4935
 1521SOL    HW3 6212   0.875   4.273   2.544  1.8265 -0.5610 -0.5197
 1521SOL    MW4 6213   0.872   4.254   2.629  0.4311  0.2995 -0.3695
 1522SOL     OW 6214   1.116   4.350   2.745 -0.4761 -0.1801  0.5013
 1522SOL    HW2 6215   1.114   4.353   2.841  1.1759  1.3638  0.5385
 1522SOL    HW3 6216   1.027   4.329   2.719 -0.7367 -1.5383  2.4016
 1522SOL    MW4 6217   1.104   4.348   2.754 -0.2925 -0.1559  0.7567
 1523SOL     OW 6218   1.560   4.654   2.651 -0.0253  0.3910 -0.0558
 1523SOL    HW2 6219   1.555   4.564   2.684 -2.3077  0.8975  1.1082
 1523SOL    HW3 6220   1.559   4.645   2.556  0.0128 -0.8271  0.0545
 1523SOL    MW4 6221   1.559   4.641   2.643 -0.3214  0.2975  0.1123
 1524SOL     OW 6222   1.334   0.125   2.747  0.0071 -0.2978  0.0472
 1524SOL    HW2 6223   1.346   0.214   2.714  0.1343 -0.5975 -0.7210
 1524SOL    HW3 6224   1.412   0.078   2.719 -0.8071 -1.0679 -0.9747
 1524SOL    MW4 6225   1.346   0.131   2.739 -0.0836 -0.4390 -0.1891
 1525SOL     OW 6226   1.361   0.400   2.610 -0.2781 -0.1048 -0.5574
 1525SOL    HW2 6227   1.435   0.444   2.651 -0.0564 -1.1364  0.1513
 1525SOL    HW3 6228   1.285   0.428   2.661 -0.1846 -0.2462 -0.3414
 1525SOL    MW4 6229   1.360   0.410   2.622 -0.2365 -0.2596 -0.4356
 1526SOL     OW 6230   1.598   0.484   2.728  0.4197 -0.0003 -0.7352
 1526SOL    HW2 6231   1.657   0.441   2.666  0.5963  0.1202 -0.6505
 1526SOL    HW3 6232   1.607   0.577   2.710  0.7736  0.0625 -0.2620
 1526SOL    MW4 6233   1.607   0.490   2.718  0.4897  0.0239 -0.6616
 1527SOL     OW 6234   1.591   0.740   2.649 -0.0819 -0.0416  0.3135
 1527SOL    HW2 6235   1.507   0.774   2.681  0.8667  2.6903  0.0291
 1527SOL    HW3 6236   1.570   0.703   2.563 -0.9987  0.7523  0.1822
 1527SOL    MW4 6237   1.577   0.740   2.642 -0.0776  0.4235  0.2589
 1528SOL     OW 6238   1.336   0.853   2.720  0.0092 -0.2839 -0.7157
 1528SOL    HW2 6239   1.320   0.855   2.814 -1.8380 -1.8810 -0.9616
 1528SOL    HW3 6240   1.337   0.945   2.694  1.9864  0.2327  1.0681
 1528SOL    MW4 6241   1.334   0.865   2.729  0.0263 -0.4264 -0.5128
 1529SOL     OW 6242   1.343   1.138   2.669 -0.2250  0.3154 -0.3594
 1529SOL    HW2 6243   1.272   1.201   2.666 -0.8463 -0.3925 -0.6888
 1529SOL    HW3 6244   1.422   1.191   2.683 -0.9097  1.0219  0.8935
 1529SOL    MW4 6245   1.344   1.153   2.670 -0.3973  0.3151 -0.2375
 1530SOL     OW 6246   1.573   1.272   2.713 -0.5754 -0.3518 -0.5855
 1530SOL    HW2 6247   1.587   1.256   2.807 -0.8936  2.2254 -0.0661
 1530SOL    HW3 6248   1.642   1.222   2.670  1.9751  1.4510  1.2529
 1530SOL    MW4 6249   1.584   1.263   2.720 -0.2809  0.2263 -0.2747
 1531SOL     OW 6250   1.552   1.501   2.593  0.1537  0.2132  0.1980
 1531SOL    HW2 6251   1.557   1.414   2.631 -0.1018  0.2441  0.2995
 1531SOL    HW3 6252   1.629   1.547   2.628 -0.5017  0.4901  1.2831
 1531SOL    MW4 6253   1.563   1.496   2.602  0.0335  0.2538  0.3545
 1532SOL     OW 6254   1.356   1.625   2.764 -0.0359 -0.0214  0.2723
 1532SOL    HW2 6255   1.420   1.593   2.700  0.2207 -0.0475  0.5371
 1532SOL    HW3 6256   1.271   1.604   2.726  0.1183 -0.2377  0.0433
 1532SOL    MW4 6257   1.353   1.618   2.751  0.0182 -0.0534  0.2770
 1533SOL     OW 6258   1.329   1.882   2.628 -0.1976 -0.0236  0.1378
 1533SOL    HW2 6259   1.344   1.802   2.679  0.6950 -0.3394 -0.6337
 1533SOL    HW3 6260   1.407   1.935   2.643  0.2690 -0.3123 -1.2866
 1533SOL    MW4 6261   1.341   1.878   2.637 -0.0182 -0.1035 -0.1519
 1534SOL     OW 6262   1.534   2.069   2.702 -0.4166 -0.0066  0.0066
 1534SOL    HW2 6263   1.612   2.024   2.670 -0.7540  0.2536 -1.2038
 1534SOL    HW3 6264   1.546   2.073   2.797  1.2817  0.4845 -0.2098
 1534SOL    MW4 6265   1.546   2.064   2.710 -0.2370  0.0923 -0.1817
 1535SOL     OW 6266   1.563   2.337   2.589  0.2260 -0.1304  0.3314
 1535SOL    HW2 6267   1.635   2.380   2.635 -0.2559  0.6521  0.3782
 1535SOL    HW3 6268   1.557   2.250   2.629  0.7886  0.0010  0.7044
 1535SOL    MW4 6269   1.572   2.331   2.600  0.2369 -0.0100  0.3870
 1536SOL     OW 6270   1.355   2.466   2.719  0.0148  0.1600  0.0879
 1536SOL    HW2 6271   1.340   2.548   2.672 -0.8659 -1.1186 -1.8822
 1536SOL    HW3 6272   1.440   2.435   2.687 -1.0673 -1.2446 -1.4800
 1536SOL    MW4 6273   1.364   2.473   2.709 -0.2440 -0.1941 -0.3786
 1537SOL     OW 6274   1.311   2.716   2.618  0.1386  0.3667 -0.1586
 1537SOL    HW2 6275   1.389   2.765   2.644  1.1774 -0.8348 -0.9295
 1537SOL    HW3 6276   1.312   2.717   2.523 -0.1087 -0.6836 -0.1821
 1537SOL    MW4 6277   1.322   2.722   2.609  0.2431  0.0696 -0.2632
 1538SOL     OW 6278   1.538   2.869   2.696  0.2731  0.1329  0.1587
 1538SOL    HW2 6279   1.537   2.869   2.792 -0.0160 -0.4458  0.1580
 1538SOL    HW3 6280   1.609   2.810   2.672  0.2978  0.2208  0.0161
 1538SOL    MW4 6281   1.547   2.861   2.705  0.2382  0.0682  0.1400
 1539SOL     OW 6282   1.570   3.114   2.577 -0.3698 -0.0266 -0.0731
 1539SOL    HW2 6283   1.642   3.159   2.621 -1.3321  0.3775  1.1006
 1539SOL    HW3 6284   1.557   3.034   2.626 -0.3678 -0.3567 -0.6095
 1539SOL    MW4 6285   1.578   3.110   2.589 -0.4965 -0.0169  0.0110
 1540SOL     OW 6286   1.376   3.221   2.728 -0.4801  0.2779  0.6649
 1540SOL    HW2 6287   1.445   3.180   2.676  0.1392  0.1823  1.5633
 1540SOL    HW3 6288   1.295   3.188   2.690 -0.0305  0.2830 -0.3104
 1540SOL    MW4 6289   1.374   3.211   2.716 -0.3389  0.2661  0.6545
 1541SOL     OW 6290   1.367   3.477   2.642  0.2934  0.9555  0.4879
 1541SOL    HW2 6291   1.376   3.397   2.695 -0.6632 -0.5461 -1.5314
 1541SOL    HW3 6292   1.279   3.508   2.660 -0.1844  0.2053 -0.5212
 1541SOL    MW4 6293   1.357   3.470   2.652  0.1043  0.6585  0.0885
 1542SOL     OW 6294   1.575   3.611   2.745  0.2307 -0.0569 -0.4565
 1542SOL    HW2 6295   1.653   3.573   2.704  1.1429  0.0520  1.1339
 1542SOL    HW3 6296   1.502   3.562   2.708  1.1551 -1.1497 -0.8708
 1542SOL    MW4 6297   1.576   3.600   2.735  0.4730 -0.1864 -0.3011
 1543SOL     OW 6298   1.577   3.876   2.639  0.1265 -0.4784 -0.0489
 1543SOL    HW2 6299   1.491   3.914   2.657  0.7343  0.5876  0.6755
 1543SOL    HW3 6300   1.573   3.788   2.678 -0.6598 -0.4685 -0.0988
 1543SOL    MW4 6301   1.565   3.869   2.646  0.1030 -0.3366  0.0401
 1544SOL     OW 6302   1.325   3.972   2.699 -0.5248 -0.3168  0.2763
 1544SOL    HW2 6303   1.365   3.983   2.786 -0.4848  0.0900  0.2086
 1544SOL    HW3 6304   1.320   4.061   2.664  0.0488 -0.5440 -0.3980
 1544SOL    MW4 6305   1.330   3.985   2.706 -0.4438 -0.2933  0.1781
 1545SOL     OW 6306   1.339   4.237   2.619  0.2592 -0.2877  0.2214
 1545SOL    HW2 6307   1.261   4.275   2.659  1.1338  1.5880  0.1931
 1545SOL    HW3 6308   1.321   4.238   2.525  0.0065 -0.5888  0.2654
 1545SOL    MW4 6309   1.326   4.242   2.612  0.3412 -0.0796  0.2234
 1546SOL     OW 6310   1.561   4.364   2.720  0.3769 -0.0767 -0.3772
 1546SOL    HW2 6311   1.575   4.332   2.809  0.7317 -1.5510 -0.9321
 1546SOL    HW3 6312   1.479   4.322   2.692  1.9100 -2.2075 -1.8486
 1546SOL    MW4 6313   1.552   4.354   2.728  0.6261 -0.5517 -0.6444
 1547SOL     OW 6314   1.996   4.624   2.596  0.3329  0.0005  0.2229
 1547SOL    HW2 6315   2.072   4.666   2.637  1.2376 -2.1409  0.8283
 1547SOL    HW3 6316   2.016   4.625   2.502  0.0987  1.3599  0.1768
 1547SOL    MW4 6317   2.009   4.630   2.589  0.4215 -0.1025  0.2971
 1548SOL     OW 6318   1.790   0.103   2.754  0.2133 -0.5338  0.6713
 1548SOL    HW2 6319   1.867   0.084   2.700  0.3829  3.7093 -0.8033
 1548SOL    HW3 6320   1.720   0.051   2.715  1.5301 -1.6358 -0.2749
 1548SOL    MW4 6321   1.791   0.094   2.742  0.4092 -0.1193  0.3521
 1549SOL     OW 6322   1.815   0.351   2.614 -0.0679  0.5007  0.4300
 1549SOL    HW2 6323   1.897   0.387   2.648  1.6801 -2.6675 -0.1663
 1549SOL    HW3 6324   1.791   0.284   2.679 -1.3977  0.4039 -0.1551
 1549SOL    MW4 6325   1.823   0.347   2.627 -0.0128  0.0699  0.2739
 1550SOL     OW 6326   2.030   0.485   2.747  0.1237 -0.3565  0.0004
 1550SOL    HW2 6327   2.100   0.438   2.702  0.3371  0.0883 -0.1311
 1550SOL    HW3 6328   2.036   0.575   2.715 -0.6165 -0.3523 -0.1420
 1550SOL    MW4 6329   2.040   0.491   2.737  0.0541 -0.2973 -0.0360
 1551SOL     OW 6330   2.005   0.761   2.655 -0.4191 -0.2355 -0.2085
 1551SOL    HW2 6331   1.927   0.813   2.675 -0.3246 -0.2545  0.2192
 1551SOL    HW3 6332   1.995   0.736   2.563 -0.7892 -0.0182 -0.2267
 1551SOL    MW4 6333   1.993   0.764   2.645 -0.4554 -0.2093 -0.1547
 1552SOL     OW 6334   1.793   0.913   2.705  0.4559  0.2783 -0.0327
 1552SOL    HW2 6335   1.791   0.991   2.649 -0.4792  0.1396 -0.1904
 1552SOL    HW3 6336   1.720   0.860   2.675  1.6119 -1.0676 -0.4992
 1552SOL    MW4 6337   1.783   0.916   2.693  0.4851  0.0824 -0.1152
 1553SOL     OW 6338   1.778   1.155   2.586  1.1066 -0.1635 -0.4532
 1553SOL    HW2 6339   1.856   1.204   2.610  1.1384 -0.4520  0.0310
 1553SOL    HW3 6340   1.785   1.144   2.491  0.0996  2.4594 -0.8546
 1553SOL    MW4 6341   1.789   1.160   2.576  0.9780  0.1445 -0.4423
 1554SOL     OW 6342   2.011   1.251   2.691  0.3260  0.0445 -0.2494
 1554SOL    HW2 6343   2.009   1.248   2.787  1.1876  1.8924 -0.1454
 1554SOL    HW3 6344   2.091   1.204   2.667  0.2665 -0.1629 -0.0377
 1554SOL    MW4 6345   2.022   1.245   2.700  0.4320  0.2611 -0.2079
 1555SOL     OW 6346   1.996   1.519   2.609  0.1624 -0.2142 -0.0056
 1555SOL    HW2 6347   2.060   1.573   2.656  0.1981  0.7510 -1.1414
 1555SOL    HW3 6348   2.021   1.429   2.630  0.1566  0.1966  1.8346
 1555SOL    MW4 6349   2.008   1.514   2.618  0.1664 -0.0327  0.0875
 1556SOL     OW 6350   1.757   1.661   2.702 -0.0796  0.0783  0.3107
 1556SOL    HW2 6351   1.833   1.609   2.676 -0.7491 -1.0910  0.6528
 1556SOL    HW3 6352   1.765   1.669   2.797  0.0451  0.6499  0.2541
 1556SOL    MW4 6353   1.768   1.656   2.711 -0.1514 -0.0005  0.3486
 1557SOL     OW 6354   1.753   1.926   2.614 -0.4104  0.5560  0.3331
 1557SOL    HW2 6355   1.834   1.961   2.652  0.7891 -0.9004 -0.7922
 1557SOL    HW3 6356   1.761   1.831   2.624 -0.3812  0.1493 -2.7971
 1557SOL    MW4 6357   1.765   1.918   2.620 -0.2482  0.3102 -0.2284
 1558SOL     OW 6358   1.980   2.071   2.717 -0.2321 -0.3151  0.1347
 1558SOL    HW2 6359   2.010   2.067   2.807  0.0131 -0.3052  0.0526
 1558SOL    HW3 6360   1.969   2.164   2.699 -0.1431 -0.3097  0.1079
 1558SOL    MW4 6361   1.982   2.083   2.726 -0.1882 -0.3128  0.1204
 1559SOL     OW 6362   1.987   2.337   2.639 -0.3715 -0.0790  0.4328
 1559SOL    HW2 6363   2.053   2.390   2.684  0.4889 -1.1658  0.4697
 1559SOL    HW3 6364   2.004   2.351   2.546  1.0469 -1.7038  0.4214
 1559SOL    MW4 6365   1.998   2.346   2.633 -0.0709 -0.4363  0.4361
 1560SOL     OW 6366   1.758   2.467   2.723 -0.1400 -0.3701 -0.1297
 1560SOL    HW2 6367   1.760   2.464   2.818 -0.2589  0.4430 -0.1005
 1560SOL    HW3 6368   1.828   2.407   2.695 -1.2413 -1.9444  0.4368
 1560SOL    MW4 6369   1.768   2.459   2.732 -0.3011 -0.4706 -0.0513
 1561SOL     OW 6370   1.751   2.714   2.601  0.1057 -0.1486  0.0893
 1561SOL    HW2 6371   1.756   2.624   2.633 -1.3118  0.0252  0.8412
 1561SOL    HW3 6372   1.834   2.754   2.629  0.7296 -1.1929 -0.2202
 1561SOL    MW4 6373   1.763   2.707   2.609  0.0010 -0.2637  0.1478
 1562SOL     OW 6374   1.992   2.841   2.662 -0.4074  0.2166 -0.1376
 1562SOL    HW2 6375   2.071   2.799   2.627  0.0787  1.5418 -0.6922
 1562SOL    HW3 6376   2.006   2.843   2.756 -0.6439 -1.2559 -0.0614
 1562SOL    MW4 6377   2.004   2.836   2.669 -0.3746  0.1972 -0.2007
 1563SOL     OW 6378   2.021   3.111   2.589 -0.5176 -0.5357  0.2149
 1563SOL    HW2 6379   2.008   3.021   2.618 -1.8168  0.0300  1.4326
 1563SOL    HW3 6380   2.009   3.107   2.494 -1.6160 -1.4807  0.3769
 1563SOL    MW4 6381   2.018   3.099   2.580 -0.8337 -0.5858  0.3972
 1564SOL     OW 6382   1.796   3.208   2.691  0.4309 -0.8140 -0.3049
 1564SOL    HW2 6383   1.792   3.304   2.685  1.6620 -0.6801  0.7539
 1564SOL    HW3 6384   1.876   3.185   2.645 -0.3551 -1.4299 -1.3800
 1564SOL    MW4 6385   1.806   3.218   2.684  0.4897 -0.8776 -0.3068
 1565SOL     OW 6386   1.811   3.474   2.631  0.2595  0.3317 -0.4648
 1565SOL    HW2 6387   1.890   3.509   2.672  2.3851 -2.0333 -2.3481
 1565SOL    HW3 6388   1.805   3.520   2.548 -0.0812  0.1718 -0.5271
 1565SOL    MW4 6389   1.821   3.484   2.626  0.4951 -0.0014 -0.7215
 1566SOL     OW 6390   2.036   3.610   2.736 -0.2185  0.3325 -0.1947
 1566SOL    HW2 6391   2.040   3.608   2.831  1.3296 -0.5500 -0.2626
 1566SOL    HW3 6392   2.118   3.569   2.707 -0.6241  0.6643 -1.9005
 1566SOL    MW4 6393   2.048   3.604   2.745 -0.0677  0.2596 -0.4287
 1567SOL     OW 6394   2.027   3.859   2.619  0.1965 -0.1711 -0.5569
 1567SOL    HW2 6395   1.959   3.906   2.667  1.1649  0.6974 -0.0164
 1567SOL    HW3 6396   2.031   3.773   2.661  1.2120  0.6661  1.1204
 1567SOL    MW4 6397   2.018   3.854   2.631  0.4582  0.0541 -0.2644
 1568SOL     OW 6398   1.812   4.007   2.717 -0.1634 -0.1986 -0.2332
 1568SOL    HW2 6399   1.809   4.094   2.678 -1.1523  0.8658  2.0869
 1568SOL    HW3 6400   1.727   3.969   2.697  0.6758 -1.0782 -2.1879
 1568SOL    MW4 6401   1.800   4.014   2.709 -0.1830 -0.1745 -0.1853
 1569SOL     OW 6402   1.811   4.254   2.610 -0.3470  0.3219  0.2048
 1569SOL    HW2 6403   1.727   4.295   2.633  0.3722  1.6888  0.4589
 1569SOL    HW3 6404   1.813   4.254   2.515 -0.0603  1.4973  0.2081
 1569SOL    MW4 6405   1.800   4.260   2.601 -0.2143  0.6576  0.2387
 1570SOL     OW 6406   2.042   4.375   2.699 -0.2511  0.7439  0.2452
 1570SOL    HW2 6407   1.957   4.340   2.673  0.2208 -0.3670  0.1501
 1570SOL    HW3 6408   2.043   4.464   2.664 -0.1507 -0.2609 -2.4843
 1570SOL    MW4 6409   2.031   4.382   2.691 -0.1755  0.4640 -0.1278
 1571SOL     OW 6410   2.443   0.011   2.605 -0.5514 -0.0133 -0.3226
 1571SOL    HW2 6411   2.530   0.034   2.638 -0.6498  0.5847 -0.4736
 1571SOL    HW3 6412   2.454   0.003   2.511 -0.6873  0.1891 -0.3558
 1571SOL    MW4 6413   2.456   0.013   2.597 -0.5825  0.0925 -0.3471
 1572SOL     OW 6414   2.204   0.078   2.706 -0.3285 -0.2313 -0.4817
 1572SOL    HW2 6415   2.224   0.087   2.799  0.2102 -0.6778 -0.5493
 1572SOL    HW3 6416   2.287   0.053   2.666 -0.8944 -1.5869 -0.8499
 1572SOL    MW4 6417   2.217   0.076   2.713 -0.3321 -0.4690 -0.5393
 1573SOL     OW 6418   2.242   0.357   2.627  0.1995 -0.2131 -0.0337
 1573SOL    HW2 6419   2.249   0.265   2.653 -0.0717 -0.4902 -0.9355
 1573SOL    HW3 6420   2.259   0.357   2.533  0.3814  0.6851 -0.0040
 1573SOL    MW4 6421   2.245   0.345   2.618  0.1879 -0.1312 -0.1485
 1574SOL     OW 6422   2.486   0.476   2.704 -0.2618 -0.5545  0.6138
 1574SOL    HW2 6423   2.464   0.565   2.679 -1.0003 -1.4441 -2.2153
 1574SOL    HW3 6424   2.406   0.426   2.688 -0.1724 -1.5517  3.1549
 1574SOL    MW4 6425   2.473   0.481   2.698 -0.3474 -0.8034  0.5758
 1575SOL     OW 6426   2.460   0.738   2.631 -0.5014  0.1055  0.0955
 1575SOL    HW2 6427   2.384   0.782   2.669 -0.6504  1.0513 -1.2367
 1575SOL    HW3 6428   2.445   0.743   2.536  0.4617 -1.0731 -0.1306
 1575SOL    MW4 6429   2.448   0.745   2.623 -0.3939  0.0748 -0.1101
 1576SOL     OW 6430   2.238   0.906   2.728  0.1403 -0.1405 -0.0739
 1576SOL    HW2 6431   2.229   0.925   2.822  0.7798 -0.7210  0.1096
 1576SOL    HW3 6432   2.159   0.857   2.706  0.0931 -0.1940  0.2130
 1576SOL    MW4 6433   2.227   0.902   2.738  0.2186 -0.2242 -0.0114
 1577SOL     OW 6434   2.242   1.129   2.562  0.0318 -0.2579  0.6449
 1577SOL    HW2 6435   2.230   1.055   2.621  2.9558 -1.0350  0.3338
 1577SOL    HW3 6436   2.312   1.180   2.601  0.3551  0.5090 -0.8953
 1577SOL    MW4 6437   2.250   1.126   2.575  0.4601 -0.2594  0.4005
 1578SOL     OW 6438   2.451   1.281   2.666 -0.2120  0.1846  0.4248
 1578SOL    HW2 6439   2.530   1.241   2.629 -0.0800  0.5626  0.2889
 1578SOL    HW3 6440   2.465   1.278   2.761 -0.2644 -0.2131  0.4191
 1578SOL    MW4 6441   2.463   1.276   2.674 -0.2017  0.1820  0.4063
 1579SOL     OW 6442   2.433   1.559   2.628  0.0228  0.7133  0.0654
 1579SOL    HW2 6443   2.351   1.594   2.662  0.1202  0.8123  0.1979
 1579SOL    HW3 6444   2.429   1.465   2.647 -0.3154  0.6250 -0.4479
 1579SOL    MW4 6445   2.422   1.551   2.635 -0.0091  0.7145  0.0150
 1580SOL     OW 6446   2.207   1.680   2.730 -0.3442 -0.7142  0.3928
 1580SOL    HW2 6447   2.215   1.773   2.707 -1.4719 -0.8154 -0.4356
 1580SOL    HW3 6448   2.241   1.675   2.819  1.1886  0.2291 -0.1150
 1580SOL    MW4 6449   2.213   1.692   2.738 -0.2909 -0.6031  0.2165
 1581SOL     OW 6450   2.221   1.940   2.659  0.2805  0.0046 -0.1676
 1581SOL    HW2 6451   2.131   1.967   2.675  0.6994  1.1801  0.2094
 1581SOL    HW3 6452   2.225   1.926   2.564 -0.6343 -1.3231 -0.0253
 1581SOL    MW4 6453   2.209   1.942   2.648  0.2153 -0.0155 -0.0994
 1582SOL     OW 6454   2.490   2.044   2.741 -0.0930  0.1054 -0.2392
 1582SOL    HW2 6455   2.464   2.127   2.703  1.1261  1.0537  0.9511
 1582SOL    HW3 6456   2.418   1.984   2.720 -1.2123  1.5760 -0.6614
 1582SOL    MW4 6457   2.477   2.047   2.733 -0.0796  0.4244 -0.1380
 1583SOL     OW 6458   2.437   2.287   2.645  0.2143 -0.0265 -0.4850
 1583SOL    HW2 6459   2.512   2.332   2.685  1.2248 -0.7539 -1.5380
 1583SOL    HW3 6460   2.450   2.297   2.551 -0.9207 -0.3341 -0.6800
 1583SOL    MW4 6461   2.449   2.294   2.638  0.1976 -0.1631 -0.6497
 1584SOL     OW 6462   2.227   2.440   2.729  0.0352  0.4196 -0.1293
 1584SOL    HW2 6463   2.228   2.448   2.825 -0.9600  0.0207 -0.0825
 1584SOL    HW3 6464   2.305   2.389   2.708 -0.8602 -1.3001  0.6449
 1584SOL    MW4 6465   2.237   2.435   2.739 -0.2141  0.1402 -0.0207
 1585SOL     OW 6466   2.229   2.706   2.614 -0.0444 -0.0100  0.0296
 1585SOL    HW2 6467   2.301   2.764   2.639  0.5267 -0.0989 -1.3451
 1585SOL    HW3 6468   2.240   2.628   2.669  0.4714  0.2931  0.3581
 1585SOL    MW4 6469   2.240   2.703   2.624  0.0989  0.0184 -0.1085
 1586SOL     OW 6470   2.468   2.845   2.690 -0.6384  0.2378  0.2319
 1586SOL    HW2 6471   2.486   2.849   2.784 -1.2592  0.7083  0.3297
 1586SOL    HW3 6472   2.476   2.936   2.660  2.0702 -0.2364 -0.6402
 1586SOL    MW4 6473   2.472   2.858   2.698 -0.3629  0.2375  0.1297
 1587SOL     OW 6474   2.486   3.140   2.606  0.0226 -0.1077  0.3413
 1587SOL    HW2 6475   2.407   3.183   2.637  0.4379  0.1878  1.0087
 1587SOL    HW3 6476   2.472   3.127   2.512 -1.3237 -1.1625  0.6766
 1587SOL    MW4 6477   2.474   3.144   2.598 -0.1001 -0.2079  0.4735
 1588SOL     OW 6478   2.250   3.240   2.705 -0.1635 -0.4595 -0.0868
 1588SOL    HW2 6479   2.239   3.229   2.799 -0.4046  1.4753  0.1278
 1588SOL    HW3 6480   2.176   3.192   2.667 -2.9200  2.7791  0.9297
 1588SOL    MW4 6481   2.239   3.232   2.712 -0.5593  0.2229  0.0756
 1589SOL     OW 6482   2.268   3.500   2.617  0.4762 -0.2455 -0.4716
 1589SOL    HW2 6483   2.346   3.530   2.663  0.6033 -1.9872  0.5127
 1589SOL    HW3 6484   2.258   3.408   2.645 -1.7839 -0.1057 -0.7348
 1589SOL    MW4 6485   2.277   3.492   2.627  0.1950 -0.4568 -0.3762
 1590SOL     OW 6486   2.489   3.627   2.748 -0.4982 -0.7363 -0.1223
 1590SOL    HW2 6487   2.472   3.643   2.841 -0.0070 -1.0905  0.0305
 1590SOL    HW3 6488   2.494   3.714   2.710  0.8409 -0.5328  0.4687
 1590SOL    MW4 6489   2.488   3.640   2.756 -0.2568 -0.7563 -0.0241
 1591SOL     OW 6490   2.497   3.864   2.593  0.2227 -0.3435 -0.4571
 1591SOL    HW2 6491   2.566   3.918   2.630 -0.5718  0.7040 -0.4827
 1591SOL    HW3 6492   2.416   3.906   2.620 -0.3916 -0.2450 -2.3302
 1591SOL    MW4 6493   2.495   3.877   2.601  0.0367 -0.1924 -0.7076
 1592SOL     OW 6494   2.262   3.995   2.678  0.1321  0.0699  0.3336
 1592SOL    HW2 6495   2.258   3.989   2.773  0.3028  3.4325  0.6162
 1592SOL    HW3 6496   2.184   3.949   2.647 -0.5631 -0.0154  2.1613
 1592SOL    MW4 6497   2.251   3.988   2.686  0.0627  0.5023  0.6120
 1593SOL     OW 6498   2.271   4.251   2.578  0.0188 -0.0035 -0.2461
 1593SOL    HW2 6499   2.269   4.161   2.612  0.1857 -0.3086 -1.0438
 1593SOL    HW3 6500   2.194   4.292   2.616 -0.5536 -0.7423 -0.5880
 1593SOL    MW4 6501   2.261   4.244   2.588 -0.0346 -0.1411 -0.3963
 1594SOL     OW 6502   2.453   4.396   2.727 -0.5890  0.2129  0.4482
 1594SOL    HW2 6503   2.384   4.352   2.677  0.4278  0.7823 -1.5483
 1594SOL    HW3 6504   2.456   4.485   2.690  1.0217  0.2679  0.6709
 1594SOL    MW4 6505   2.444   4.402   2.715 -0.2422  0.2952  0.2141
 1595SOL     OW 6506   2.898   4.659   2.657 -0.2726 -0.3036 -0.1166
 1595SOL    HW2 6507   2.987   4.686   2.679 -0.2069 -1.1902  0.7293
 1595SOL    HW3 6508   2.897   4.656   2.561  0.7803 -0.8584 -0.1161
 1595SOL    MW4 6509   2.909   4.662   2.647 -0.1252 -0.4935 -0.0050
 1596SOL     OW 6510   2.673   0.099   2.759  0.1034  0.1679  0.2150
 1596SOL    HW2 6511   2.679   0.110   2.854  1.3628 -3.3692  0.6306
 1596SOL    HW3 6512   2.758   0.062   2.733 -0.9118 -0.7626 -1.9772
 1596SOL    MW4 6513   2.685   0.095   2.768  0.1357 -0.4216 -0.0193
 1597SOL     OW 6514   2.712   0.348   2.629  0.1382  0.3837  0.3393
 1597SOL    HW2 6515   2.693   0.258   2.653  1.0252  0.4963  1.5218
 1597SOL    HW3 6516   2.632   0.396   2.650  0.0112  0.0432  0.6306
 1597SOL    MW4 6517   2.699   0.343   2.635  0.2389  0.3536  0.5338
 1598SOL     OW 6518   2.945   0.491   2.715 -0.6846 -0.0540  0.2994
 1598SOL    HW2 6519   2.926   0.578   2.679 -0.1104 -0.3804 -0.8152
 1598SOL    HW3 6520   2.875   0.435   2.681 -0.6774 -0.1750  0.4797
 1598SOL    MW4 6521   2.933   0.495   2.706 -0.6080 -0.1130  0.1764
 1599SOL     OW 6522   2.921   0.749   2.590  0.0871  0.4360 -0.0541
 1599SOL    HW2 6523   2.995   0.794   2.631  0.4550  0.1861 -0.4428
 1599SOL    HW3 6524   2.844   0.790   2.629  0.4037  1.7723 -0.7766
 1599SOL    MW4 6525   2.921   0.760   2.601  0.1774  0.5794 -0.2010
 1600SOL     OW 6526   2.699   0.870   2.694  0.0214  0.1628 -0.3960
 1600SOL    HW2 6527   2.703   0.885   2.789  0.7570  0.4664 -0.4659
 1600SOL    HW3 6528   2.613   0.831   2.679 -0.1011  0.1171  0.3984
 1600SOL    MW4 6529   2.688   0.866   2.705  0.1023  0.1969 -0.3002
 1601SOL     OW 6530   2.676   1.128   2.600  0.2950 -0.0677  0.2077
 1601SOL    HW2 6531   2.729   1.187   2.653 -1.1877 -0.6095  2.3745
 1601SOL    HW3 6532   2.701   1.040   2.630 -0.6229 -0.3792  0.0763
 1601SOL    MW4 6533   2.687   1.124   2.611 -0.0219 -0.1804  0.4764
 1602SOL     OW 6534   2.858   1.285   2.740 -0.3040  0.2740  0.2651
 1602SOL    HW2 6535   2.852   1.292   2.835  1.0617  1.1793  0.2939
 1602SOL    HW3 6536   2.927   1.221   2.725  0.0140  0.7040 -0.1232
 1602SOL    MW4 6537   2.866   1.277   2.750 -0.0820  0.4503  0.2177
 1603SOL     OW 6538   2.886   1.550   2.619  0.0817  0.3865  0.2612
 1603SOL    HW2 6539   2.802   1.594   2.633 -1.2562 -1.9973 -0.0598
 1603SOL    HW3 6540   2.872   1.461   2.652  1.9973 -0.4834 -1.2155
 1603SOL    MW4 6541   2.873   1.544   2.625  0.1581 -0.0429  0.0238
 1604SOL     OW 6542   2.670   1.658   2.740 -0.0034  0.5075  0.3866
 1604SOL    HW2 6543   2.668   1.651   2.835 -0.1468  0.5793  0.3890
 1604SOL    HW3 6544   2.594   1.607   2.711  0.3772 -0.0106  0.2811
 1604SOL    MW4 6545   2.660   1.650   2.749  0.0279  0.4487  0.3734
 1605SOL     OW 6546   2.714   1.909   2.650 -0.3040  0.0138  0.1674
 1605SOL    HW2 6547   2.709   1.815   2.666 -2.1337 -0.0749 -0.7426
 1605SOL    HW3 6548   2.646   1.946   2.706  0.0328  0.7440  0.1008
 1605SOL    MW4 6549   2.704   1.902   2.660 -0.5009  0.0985  0.0386
 1606SOL     OW 6550   2.939   2.055   2.753 -0.4578  0.0212  0.2245
 1606SOL    HW2 6551   2.922   2.124   2.690  0.3208  0.2570  0.2617
 1606SOL    HW3 6552   2.868   1.992   2.742 -1.0646  0.7450  0.0671
 1606SOL    MW4 6553   2.928   2.055   2.743 -0.4354  0.1478  0.2086
 1607SOL     OW 6554   2.885   2.294   2.602 -0.0381  0.4275  0.2246
 1607SOL    HW2 6555   2.960   2.343   2.634 -0.1423 -0.4367  1.8510
 1607SOL    HW3 6556   2.812   2.324   2.655 -0.4360 -0.2195  0.0534
 1607SOL    MW4 6557   2.885   2.304   2.613 -0.1044  0.2282  0.4165
 1608SOL     OW 6558   2.661   2.429   2.716 -0.0241 -0.6144  0.5115
 1608SOL    HW2 6559   2.681   2.432   2.810 -0.4961  0.2570  0.5979
 1608SOL    HW3 6560   2.692   2.514   2.683 -0.1183 -0.8052 -0.0638
 1608SOL    MW4 6561   2.668   2.441   2.724 -0.0987 -0.5245  0.4470
 1609SOL     OW 6562   2.705   2.692   2.638  0.1744 -0.0515  0.7595
 1609SOL    HW2 6563   2.770   2.745   2.685  0.3372 -0.6863  1.2571
 1609SOL    HW3 6564   2.622   2.735   2.655  0.1322 -0.7246  2.2754
 1609SOL    MW4 6565   2.703   2.704   2.646  0.1905 -0.2241  1.0252
 1610SOL     OW 6566   2.943   2.836   2.724 -0.4104  0.0815 -0.0060
 1610SOL    HW2 6567   2.920   2.831   2.817 -1.7839  0.2082 -0.3310
 1610SOL    HW3 6568   2.918   2.925   2.699  1.3766  0.5682 -0.1367
 1610SOL    MW4 6569   2.936   2.847   2.733 -0.3560  0.1626 -0.0665
 1611SOL     OW 6570   2.909   3.089   2.644 -0.3028 -0.0756  0.0972
 1611SOL    HW2 6571   2.850   3.162   2.664  0.7316  0.7236  0.2943
 1611SOL    HW3 6572   2.908   3.083   2.548 -0.1600  0.4106  0.0596
 1611SOL    MW4 6573   2.901   3.098   2.634 -0.1476  0.0939  0.1180
 1612SOL     OW 6574   2.687   3.265   2.737  0.4271  0.2429  0.0490
 1612SOL    HW2 6575   2.701   3.348   2.692  1.4824 -1.0262 -2.0284
 1612SOL    HW3 6576   2.614   3.225   2.690  0.4944 -0.3844  0.4833
 1612SOL    MW4 6577   2.679   3.271   2.725  0.5753 -0.0072 -0.1681
 1613SOL     OW 6578   2.713   3.505   2.630 -0.2759 -0.0000 -0.4198
 1613SOL    HW2 6579   2.632   3.540   2.666 -0.3433 -0.4321 -0.1432
 1613SOL    HW3 6580   2.699   3.504   2.535 -0.3670  0.4837 -0.4095
 1613SOL    MW4 6581   2.700   3.509   2.622 -0.2968  0.0067 -0.3817
 1614SOL     OW 6582   2.939   3.635   2.716 -0.0822  0.2218 -0.1473
 1614SOL    HW2 6583   2.961   3.620   2.809 -0.0184 -0.5753 -0.2921
 1614SOL    HW3 6584   2.863   3.580   2.700  0.5297 -0.4258 -0.8417
 1614SOL    MW4 6585   2.932   3.626   2.726  0.0072  0.0312 -0.2580
 1615SOL     OW 6586   2.952   3.887   2.601 -0.3134  0.1456 -0.1869
 1615SOL    HW2 6587   3.025   3.936   2.640 -0.2895  0.5388 -0.7198
 1615SOL    HW3 6588   2.948   3.805   2.652 -0.5639  0.8366  0.9176
 1615SOL    MW4 6589   2.961   3.882   2.613 -0.3436  0.2887 -0.1113
 1616SOL     OW 6590   2.706   3.979   2.730  0.1829 -0.2564  0.1826
 1616SOL    HW2 6591   2.715   4.071   2.708  0.4144  0.2392  2.3256
 1616SOL    HW3 6592   2.792   3.941   2.714  0.5335  0.2399  0.9035
 1616SOL    MW4 6593   2.718   3.986   2.725  0.2596 -0.1254  0.5603
 1617SOL     OW 6594   2.685   4.241   2.627 -0.1968  0.0801 -0.2001
 1617SOL    HW2 6595   2.761   4.292   2.655  1.0103 -1.4319 -0.6162
 1617SOL    HW3 6596   2.610   4.286   2.666  0.9438  1.3611  0.5772
 1617SOL    MW4 6597   2.686   4.253   2.636  0.1128  0.0496 -0.1526
 1618SOL     OW 6598   2.894   4.390   2.727 -0.1761  0.4273  0.0933
 1618SOL    HW2 6599   2.914   4.388   2.820 -0.5921  0.0897  0.1725
 1618SOL    HW3 6600   2.890   4.483   2.705 -0.6010  0.5095  0.5207
 1618SOL    MW4 6601   2.896   4.402   2.736 -0.2871  0.3939  0.1602
 1619SOL     OW 6602   3.370   0.023   2.587 -0.9129 -0.6751  0.2659
 1619SOL    HW2 6603   3.373  -0.063   2.629 -0.0173  0.0237  1.6828
 1619SOL    HW3 6604   3.293   0.066   2.625 -1.8025 -1.1294 -1.0112
 1619SOL    MW4 6605   3.361   0.018   2.598 -0.9120 -0.6433  0.2844
 1620SOL     OW 6606   3.141   0.083   2.741 -0.1164  0.7219  0.3048
 1620SOL    HW2 6607   3.144   0.095   2.836 -1.0711 -0.6593  0.5231
 1620SOL    HW3 6608   3.142   0.172   2.706  1.4521  1.2249  1.5560
 1620SOL    MW4 6609   3.142   0.097   2.749 -0.0353  0.6060  0.4985
 1621SOL     OW 6610   3.175   0.342   2.646 -0.1515  0.1627 -0.0283
 1621SOL    HW2 6611   3.097   0.393   2.667 -0.4542 -0.0935 -0.5114
 1621SOL    HW3 6612   3.173   0.332   2.551  0.3739 -0.0001 -0.0284
 1621SOL    MW4 6613   3.165   0.347   2.637 -0.1223  0.1074 -0.0920
 1622SOL     OW 6614   3.383   0.506   2.764 -0.3596 -0.3704  0.2971
 1622SOL    HW2 6615   3.373   0.587   2.714 -1.5535  0.0291  1.1751
 1622SOL    HW3 6616   3.311   0.450   2.734 -0.3856 -0.5704  0.7325
 1622SOL    MW4 6617   3.373   0.509   2.754 -0.5207 -0.3441  0.4704
 1623SOL     OW 6618   3.354   0.762   2.641  0.4479  0.5093 -0.0926
 1623SOL    HW2 6619   3.432   0.805   2.675  0.6291  0.8239 -0.8974
 1623SOL    HW3 6620   3.365   0.763   2.546  0.9160 -2.1430 -0.1186
 1623SOL    MW4 6621   3.365   0.768   2.633  0.5336  0.2009 -0.2022
 1624SOL     OW 6622   3.116   0.866   2.733 -0.5974 -0.2635  0.2442
 1624SOL    HW2 6623   3.113   0.857   2.828 -1.0861  0.1781  0.2690
 1624SOL    HW3 6624   3.206   0.842   2.710 -0.6786 -1.0823  0.7386
 1624SOL    MW4 6625   3.128   0.861   2.743 -0.6726 -0.3133  0.3128
 1625SOL     OW 6626   3.083   1.144   2.675 -0.3224  0.0381 -0.8901
 1625SOL    HW2 6627   3.076   1.052   2.700 -0.9848  0.4443  0.4990
 1625SOL    HW3 6628   3.168   1.171   2.707 -1.2251  0.5934  1.1426
 1625SOL    MW4 6629   3.093   1.135   2.682 -0.5288  0.1650 -0.4387
 1626SOL     OW 6630   3.356   1.225   2.748  0.1068 -0.2144  0.4125
 1626SOL    HW2 6631   3.354   1.253   2.840 -0.3747  0.6161  0.1519
 1626SOL    HW3 6632   3.363   1.306   2.698  0.3969 -0.6653 -0.2889
 1626SOL    MW4 6633   3.357   1.239   2.754  0.0818 -0.1643  0.2859
 1627SOL     OW 6634   3.368   1.474   2.626  0.1979 -0.1061 -0.1543
 1627SOL    HW2 6635   3.439   1.533   2.652  0.6361  0.3396 -2.2484
 1627SOL    HW3 6636   3.290   1.509   2.669  1.1027 -0.1524  1.5606
 1627SOL    MW4 6637   3.367   1.486   2.635  0.3753 -0.0534 -0.2043
 1628SOL     OW 6638   3.143   1.608   2.721 -0.1767 -0.0489 -0.4442
 1628SOL    HW2 6639   3.160   1.701   2.704  0.2220 -0.2580 -1.2037
 1628SOL    HW3 6640   3.054   1.594   2.688 -0.0300 -0.0616 -0.8390
 1628SOL    MW4 6641   3.133   1.618   2.714 -0.1049 -0.0783 -0.5965
 1629SOL     OW 6642   3.174   1.887   2.676 -0.1342  0.2989 -0.4685
 1629SOL    HW2 6643   3.254   1.940   2.685  0.0124  0.2394 -1.3167
 1629SOL    HW3 6644   3.103   1.948   2.699  0.2310 -0.0594  1.7113
 1629SOL    MW4 6645   3.175   1.902   2.680 -0.0665  0.2437 -0.2925
 1630SOL     OW 6646   3.394   2.050   2.727  0.3800  0.6719 -0.0140
 1630SOL    HW2 6647   3.420   2.069   2.817  0.2663  0.8027 -0.0088
 1630SOL    HW3 6648   3.390   2.135   2.684 -0.0851  0.6629 -0.0014
 1630SOL    MW4 6649   3.397   2.064   2.733  0.3040  0.6881 -0.0117
 1631SOL     OW 6650   3.362   2.304   2.622  0.8696 -0.3330  0.2189
 1631SOL    HW2 6651   3.446   2.342   2.648  0.5896  0.6810 -0.3093
 1631SOL    HW3 6652   3.362   2.309   2.526  0.3585 -0.6441  0.2000
 1631SOL    MW4 6653   3.373   2.310   2.612  0.7656 -0.2403  0.1469
 1632SOL     OW 6654   3.132   2.431   2.702 -0.3981  0.1778  0.2054
 1632SOL    HW2 6655   3.157   2.519   2.676  0.4239 -0.2580 -0.5030
 1632SOL    HW3 6656   3.199   2.374   2.664 -1.7152 -0.8915 -0.5866
 1632SOL    MW4 6657   3.144   2.435   2.694 -0.4635 -0.0210  0.0074
 1633SOL     OW 6658   3.161   2.706   2.627 -0.5701 -0.0088 -0.2425
 1633SOL    HW2 6659   3.230   2.772   2.636 -0.7080  0.2839 -1.2355
 1633SOL    HW3 6660   3.084   2.746   2.668 -0.1351 -0.3754  0.9533
 1633SOL    MW4 6661   3.160   2.720   2.634 -0.5307 -0.0184 -0.2158
 1634SOL     OW 6662   3.425   2.854   2.682  0.2689 -0.3092  0.4476
 1634SOL    HW2 6663   3.419   2.844   2.777  0.3176 -0.6886  0.4125
 1634SOL    HW3 6664   3.490   2.789   2.656 -1.9154 -2.2975 -0.2000
 1634SOL    MW4 6665   3.433   2.844   2.691 -0.0126 -0.6218  0.3576
 1635SOL     OW 6666   3.406   3.137   2.647 -0.2894  0.2124 -0.8167
 1635SOL    HW2 6667   3.418   3.050   2.684 -3.1806 -0.0920 -0.4273
 1635SOL    HW3 6668   3.399   3.124   2.553  0.7694  0.2105 -0.8952
 1635SOL    MW4 6669   3.407   3.124   2.640 -0.5312  0.1717 -0.7756
 1636SOL     OW 6670   3.127   3.241   2.719 -0.0645 -0.0733 -0.8870
 1636SOL    HW2 6671   3.200   3.189   2.685 -0.6519  0.1055 -2.4572
 1636SOL    HW3 6672   3.050   3.186   2.705 -0.1096 -0.9631  2.2526
 1636SOL    MW4 6673   3.127   3.227   2.713 -0.1478 -0.1671 -0.6800
 1637SOL     OW 6674   3.167   3.505   2.631 -0.0317 -0.0402  0.0415
 1637SOL    HW2 6675   3.146   3.415   2.657  0.0802 -0.1681 -0.3093
 1637SOL    HW3 6676   3.089   3.556   2.655  0.7471  0.1740  2.2871
 1637SOL    MW4 6677   3.154   3.500   2.638  0.0856 -0.0288  0.2913
 1638SOL     OW 6678   3.393   3.617   2.746  0.1592  0.1452  0.5486
 1638SOL    HW2 6679   3.379   3.604   2.840  0.6009 -0.1243  0.5792
 1638SOL    HW3 6680   3.327   3.564   2.704  1.2452 -1.3372  0.6837
 1638SOL    MW4 6681   3.383   3.608   2.753  0.3605 -0.0863  0.5705
 1639SOL     OW 6682   3.368   3.890   2.653  0.3177 -0.1892  0.1541
 1639SOL    HW2 6683   3.359   3.797   2.677 -3.0567  0.0675  0.0777
 1639SOL    HW3 6684   3.375   3.890   2.558 -2.2740 -0.2374 -0.0593
 1639SOL    MW4 6685   3.368   3.878   2.644 -0.4694 -0.1616  0.1156
 1640SOL     OW 6686   3.150   4.029   2.726 -0.0517 -0.0078  0.0353
 1640SOL    HW2 6687   3.160   4.120   2.696  0.4328 -0.4585 -1.1928
 1640SOL    HW3 6688   3.234   3.988   2.706 -0.0994 -0.6046  1.0458
 1640SOL    MW4 6689   3.163   4.036   2.720  0.0060 -0.1464  0.0064
 1641SOL     OW 6690   3.127   4.285   2.647  0.0485  0.4125 -0.2418
 1641SOL    HW2 6691   3.047   4.330   2.674 -1.4771 -1.2577 -1.7753
 1641SOL    HW3 6692   3.127   4.292   2.551  2.5179  1.6144 -0.1890
 1641SOL    MW4 6693   3.116   4.292   2.638  0.1731  0.3505 -0.4375
 1642SOL     OW 6694   3.361   4.402   2.716  0.2870 -0.2201  0.1606
 1642SOL    HW2 6695   3.359   4.391   2.811 -1.3999  0.9467  0.2953
 1642SOL    HW3 6696   3.277   4.368   2.686  0.5223  0.0604 -0.8419
 1642SOL    MW4 6697   3.350   4.396   2.724  0.0954 -0.0291  0.0460
 1643SOL     OW 6698   3.814   4.642   2.640  0.4943 -0.1911  0.8800
 1643SOL    HW2 6699   3.796   4.556   2.677 -2.2569 -0.0472  0.0287
 1643SOL    HW3 6700   3.752   4.700   2.684  0.9755  0.9827  0.0259
 1643SOL    MW4 6701   3.803   4.638   2.651  0.1950 -0.0172  0.6552
 1644SOL     OW 6702   3.576   0.105   2.750  0.1671  0.0950  0.0667
 1644SOL    HW2 6703   3.604   0.195   2.731  0.4496  0.1342  0.6572
 1644SOL    HW3 6704   3.492   0.096   2.705 -0.2529  0.9215  0.6817
 1644SOL    MW4 6705   3.568   0.116   2.742  0.1488  0.2093  0.2258
 1645SOL     OW 6706   3.612   0.368   2.679 -0.1894 -0.6524 -0.3984
 1645SOL    HW2 6707   3.690   0.415   2.710  0.5477 -1.0972 -1.5723
 1645SOL    HW3 6708   3.539   0.422   2.709  0.5723 -0.0799  0.4667
 1645SOL    MW4 6709   3.612   0.382   2.687  0.0083 -0.6356 -0.4392
 1646SOL     OW 6710   3.849   0.492   2.766  0.6157  0.3142  0.6189
 1646SOL    HW2 6711   3.854   0.492   2.862  0.0606  1.2610  0.6525
 1646SOL    HW3 6712   3.922   0.436   2.738 -0.1826 -1.2639  1.6286
 1646SOL    MW4 6713   3.859   0.485   2.775  0.4373  0.2309  0.7567
 1647SOL     OW 6714   3.831   0.768   2.652  0.1579 -0.3402 -0.2303
 1647SOL    HW2 6715   3.743   0.792   2.680  0.5142  0.0912  0.5316
 1647SOL    HW3 6716   3.842   0.678   2.683 -0.5717 -0.9259 -1.6537
 1647SOL    MW4 6717   3.821   0.759   2.660  0.1087 -0.3605 -0.3176
 1648SOL     OW 6718   3.600   0.874   2.723 -0.4266  0.6460  0.1645
 1648SOL    HW2 6719   3.600   0.881   2.818  0.4876 -1.3492  0.3520
 1648SOL    HW3 6720   3.599   0.964   2.691  1.2919  1.3662  2.0789
 1648SOL    MW4 6721   3.600   0.887   2.731 -0.0792  0.4779  0.4416
 1649SOL     OW 6722   3.584   1.126   2.623  0.1842 -0.2390  0.1017
 1649SOL    HW2 6723   3.651   1.168   2.677 -1.6497  0.8964  1.5596
 1649SOL    HW3 6724   3.501   1.146   2.667 -1.0912 -1.9868 -1.4122
 1649SOL    MW4 6725   3.582   1.134   2.636 -0.2260 -0.3198  0.0944
 1650SOL     OW 6726   3.775   1.268   2.754  0.1118 -0.3977  0.3817
 1650SOL    HW2 6727   3.853   1.228   2.714  0.2363  0.6695 -0.4484
 1650SOL    HW3 6728   3.766   1.353   2.710 -1.9702 -0.8309 -0.0898
 1650SOL    MW4 6729   3.784   1.274   2.743 -0.1464 -0.3141  0.2100
 1651SOL     OW 6730   3.791   1.513   2.631  0.1390  0.3464  0.3492
 1651SOL    HW2 6731   3.867   1.560   2.665  0.5409  0.1968 -0.3407
 1651SOL    HW3 6732   3.717   1.572   2.645  0.7199  1.4177 -1.0152
 1651SOL    MW4 6733   3.791   1.527   2.637  0.2687  0.4681  0.0784
 1652SOL     OW 6734   3.568   1.648   2.731 -0.4776  0.4600  0.1993
 1652SOL    HW2 6735   3.585   1.650   2.825 -1.7684 -0.9295  0.4625
 1652SOL    HW3 6736   3.573   1.740   2.704 -0.0975  0.8590  1.6153
 1652SOL    MW4 6737   3.571   1.661   2.740 -0.5980  0.3295  0.4208
 1653SOL     OW 6738   3.605   1.903   2.633  0.0130  0.3493  0.2154
 1653SOL    HW2 6739   3.533   1.960   2.662 -0.1956 -0.0119  0.4026
 1653SOL    HW3 6740   3.596   1.901   2.538 -1.6126 -1.5075  0.3748
 1653SOL    MW4 6741   3.594   1.910   2.624 -0.2289  0.0567  0.2611
 1654SOL     OW 6742   3.824   2.039   2.761  0.4472 -0.0934 -0.0522
 1654SOL    HW2 6743   3.914   2.015   2.736  0.7446  2.1053 -1.2526
 1654SOL    HW3 6744   3.769   1.977   2.714  1.2944 -0.7691 -0.1770
 1654SOL    MW4 6745   3.829   2.028   2.752  0.5980  0.1075 -0.2270
 1655SOL     OW 6746   3.833   2.259   2.594  0.7774 -0.0603 -0.4424
 1655SOL    HW2 6747   3.821   2.182   2.649  1.9260 -0.5331 -0.8353
 1655SOL    HW3 6748   3.888   2.317   2.646 -1.2462  1.1333  0.4379
 1655SOL    MW4 6749   3.838   2.257   2.608  0.6618  0.0350 -0.3781
 1656SOL     OW 6750   3.602   2.400   2.693  0.2473  0.2543 -0.1640
 1656SOL    HW2 6751   3.603   2.416   2.788  0.1687 -1.9256  0.2476
 1656SOL    HW3 6752   3.683   2.352   2.676 -0.9835 -1.7320 -0.7010
 1656SOL    MW4 6753   3.613   2.396   2.704  0.0749 -0.2952 -0.1805
 1657SOL     OW 6754   3.658   2.667   2.627 -0.1726  0.4041 -0.3993
 1657SOL    HW2 6755   3.623   2.585   2.663 -0.4897  0.0396 -1.5414
 1657SOL    HW3 6756   3.634   2.665   2.535 -1.1319  2.3141 -0.1992
 1657SOL    MW4 6757   3.651   2.656   2.620 -0.3409  0.6082 -0.5236
 1658SOL     OW 6758   3.836   2.857   2.736 -0.0346  0.1798  0.4773
 1658SOL    HW2 6759   3.803   2.939   2.699 -1.0104 -0.1373  0.6537
 1658SOL    HW3 6760   3.767   2.793   2.719  0.2773 -0.3734  1.2771
 1658SOL    MW4 6761   3.823   2.859   2.729 -0.1221  0.0648  0.6061
 1659SOL     OW 6762   3.778   3.126   2.643 -0.0919  0.0884  0.5490
 1659SOL    HW2 6763   3.710   3.175   2.689  0.5209  0.4079  1.1156
 1659SOL    HW3 6764   3.860   3.169   2.668  0.2191  0.4777 -1.1010
 1659SOL    MW4 6765   3.780   3.138   2.652  0.0300  0.1822  0.4060
 1660SOL     OW 6766   3.581   3.309   2.766  0.0292 -0.5445 -0.0949
 1660SOL    HW2 6767   3.575   3.380   2.702 -0.2218 -0.4263  0.0588
 1660SOL    HW3 6768   3.519   3.243   2.735 -1.9759  0.5980  1.3917
 1660SOL    MW4 6769   3.572   3.309   2.754 -0.2685 -0.3779  0.1218
 1661SOL     OW 6770   3.620   3.556   2.612 -0.5350 -0.6323  0.1387
 1661SOL    HW2 6771   3.690   3.600   2.659  0.9343 -1.3712 -1.3153
 1661SOL    HW3 6772   3.541   3.576   2.662  0.4878  1.4447  0.9560
 1661SOL    MW4 6773   3.619   3.564   2.625 -0.2062 -0.4556  0.0546
 1662SOL     OW 6774   3.848   3.694   2.739 -0.1875 -0.2910 -0.1696
 1662SOL    HW2 6775   3.917   3.637   2.704  0.1166  0.0507 -0.1326
 1662SOL    HW3 6776   3.857   3.775   2.688 -0.5718 -0.2507 -0.1733
 1662SOL    MW4 6777   3.858   3.697   2.728 -0.1981 -0.2408 -0.1655
 1663SOL     OW 6778   3.812   3.942   2.571 -0.2803  0.2266  0.3404
 1663SOL    HW2 6779   3.883   3.982   2.621  1.7841 -2.2969 -0.4453
 1663SOL    HW3 6780   3.733   3.962   2.621  1.2242  1.4355  2.2940
 1663SOL    MW4 6781   3.811   3.950   2.584  0.1905  0.0532  0.4947
 1664SOL     OW 6782   3.597   3.997   2.776  0.1163  0.0008 -0.4722
 1664SOL    HW2 6783   3.597   4.084   2.736  0.3358 -0.6753 -1.9664
 1664SOL    HW3 6784   3.520   3.954   2.741 -1.2629  0.3512  2.0214
 1664SOL    MW4 6785   3.587   4.003   2.766 -0.0370 -0.0420 -0.3405
 1665SOL     OW 6786   3.576   4.240   2.650 -0.4592 -0.0941 -0.1895
 1665SOL    HW2 6787   3.508   4.303   2.672 -2.5681 -1.6515 -1.9347
 1665SOL    HW3 6788   3.576   4.237   2.554  0.7430 -1.5043 -0.1702
 1665SOL    MW4 6789   3.567   4.248   2.640 -0.5789 -0.4859 -0.4170
 1666SOL     OW 6790   3.794   4.373   2.741 -0.0627 -0.3338 -0.3029
 1666SOL    HW2 6791   3.874   4.323   2.721 -0.4766 -1.2438  0.2811
 1666SOL    HW3 6792   3.724   4.323   2.701 -0.3962  0.2541 -0.4613
 1666SOL    MW4 6793   3.796   4.360   2.733 -0.1614 -0.3762 -0.2465
 1667SOL     OW 6794   4.287   4.618   2.670  0.5411 -0.1419  0.2629
 1667SOL    HW2 6795   4.204   4.657   2.698  0.1427 -0.7276 -0.1041
 1667SOL    HW3 6796   4.353   4.659   2.726  0.1557  1.2449 -0.2732
 1667SOL    MW4 6797   4.285   4.629   2.681  0.4373 -0.0367  0.1440
 1668SOL     OW 6798   4.052   0.081   2.721  0.2581 -0.0731 -0.0655
 1668SOL    HW2 6799   4.047   0.081   2.816  2.2227 -3.5379  0.1325
 1668SOL    HW3 6800   3.970   0.039   2.693  0.5356 -0.8279  0.2255
 1668SOL    MW4 6801   4.041   0.075   2.729  0.5536 -0.6298 -0.0010
 1669SOL     OW 6802   4.064   0.350   2.677  0.2320 -0.4198  0.4797
 1669SOL    HW2 6803   4.060   0.255   2.689  2.4703 -0.5893  0.0567
 1669SOL    HW3 6804   4.058   0.363   2.582  0.1798 -0.1562  0.5176
 1669SOL    MW4 6805   4.063   0.339   2.666  0.5202 -0.4074  0.4289
 1670SOL     OW 6806   4.295   0.490   2.783 -0.6966  0.1999 -0.4815
 1670SOL    HW2 6807   4.212   0.445   2.773 -1.3793  1.6211 -1.1954
 1670SOL    HW3 6808   4.358   0.434   2.738 -0.9157 -1.7916  1.5596
 1670SOL    MW4 6809   4.293   0.476   2.776 -0.8154  0.1246 -0.3066
 1671SOL     OW 6810   4.271   0.744   2.663  0.0456  0.2211 -0.1960
 1671SOL    HW2 6811   4.282   0.657   2.702 -0.8352  0.2463  0.1196
 1671SOL    HW3 6812   4.272   0.728   2.569  0.0423 -0.1156 -0.1423
 1671SOL    MW4 6813   4.273   0.730   2.656 -0.0710  0.1800 -0.1471
 1672SOL     OW 6814   4.061   0.901   2.729  0.2433 -0.3145 -0.4736
 1672SOL    HW2 6815   4.134   0.842   2.709 -0.4220 -1.1398 -0.4993
 1672SOL    HW3 6816   3.983   0.855   2.697 -0.4299 -0.0088  0.6854
 1672SOL    MW4 6817   4.060   0.887   2.722  0.0668 -0.3830 -0.3240
 1673SOL     OW 6818   4.020   1.154   2.658  0.2591  0.1638  0.0027
 1673SOL    HW2 6819   4.095   1.188   2.707  0.0939  1.7134 -0.8049
 1673SOL    HW3 6820   4.021   1.059   2.675  0.6533  0.5619  2.3729
 1673SOL    MW4 6821   4.030   1.146   2.667  0.2894  0.4208  0.2089
 1674SOL     OW 6822   4.275   1.273   2.762  0.3242 -0.6969 -0.0935
 1674SOL    HW2 6823   4.288   1.366   2.746 -0.3786 -0.5916 -0.0564
 1674SOL    HW3 6824   4.262   1.266   2.857  0.9976 -0.9065 -0.0150
 1674SOL    MW4 6825   4.275   1.284   2.772  0.3204 -0.7107 -0.0782
 1675SOL     OW 6826   4.268   1.554   2.666  0.7147  0.7004  0.1142
 1675SOL    HW2 6827   4.354   1.593   2.685  1.2849 -0.7683  0.6177
 1675SOL    HW3 6828   4.268   1.544   2.571  0.8139  1.3663  0.0422
 1675SOL    MW4 6829   4.280   1.558   2.656  0.8035  0.5945  0.1712
 1676SOL     OW 6830   4.018   1.621   2.757 -0.2945 -0.3813  0.3620
 1676SOL    HW2 6831   4.029   1.622   2.852 -0.1790  1.2000  0.3574
 1676SOL    HW3 6832   4.104   1.598   2.723  0.3981  1.7735  0.5881
 1676SOL    MW4 6833   4.031   1.618   2.765 -0.1879  0.1117  0.3915
 1677SOL     OW 6834   4.056   1.910   2.657 -0.0027 -0.3059  0.1384
 1677SOL    HW2 6835   4.146   1.941   2.662 -0.0316 -0.1461 -0.2615
 1677SOL    HW3 6836   4.061   1.817   2.682  0.1856 -0.1558  0.6613
 1677SOL    MW4 6837   4.069   1.902   2.661  0.0181 -0.2650  0.1545
 1678SOL     OW 6838   4.297   2.033   2.684 -0.1127 -0.0321  0.2149
 1678SOL    HW2 6839   4.310   2.118   2.640 -0.4722  0.2070  0.5653
 1678SOL    HW3 6840   4.358   1.974   2.640  0.1135  0.4004 -0.0613
 1678SOL    MW4 6841   4.307   2.037   2.672 -0.1302  0.0565  0.2248
 1679SOL     OW 6842   4.267   2.308   2.624  0.2398  0.0308  0.0002
 1679SOL    HW2 6843   4.197   2.354   2.672 -0.0462 -0.2615 -0.1353
 1679SOL    HW3 6844   4.244   2.321   2.532  1.1567  1.1681 -0.0771
 1679SOL    MW4 6845   4.255   2.316   2.618  0.3233  0.1423 -0.0279
 1680SOL     OW 6846   4.031   2.427   2.713 -0.2452  0.1231  0.4011
 1680SOL    HW2 6847   4.025   2.443   2.807  1.5827  0.2080  0.5213
 1680SOL    HW3 6848   4.017   2.512   2.672 -1.2664  0.0454  0.5749
 1680SOL    MW4 6849   4.028   2.440   2.720 -0.1388  0.1242  0.4399
 1681SOL     OW 6850   4.043   2.703   2.596 -0.4426 -0.1747 -0.5783
 1681SOL    HW2 6851   4.130   2.726   2.629 -0.6486 -1.6017  1.0044
 1681SOL    HW3 6852   3.983   2.761   2.643 -0.5022 -0.4558 -0.3028
 1681SOL    MW4 6853   4.047   2.714   2.606 -0.4778 -0.4001 -0.3331
 1682SOL     OW 6854   4.268   2.818   2.727 -0.9850 -0.0162  0.4170
 1682SOL    HW2 6855   4.277   2.818   2.822  0.0428 -0.1688  0.3270
 1682SOL    HW3 6856   4.348   2.777   2.695 -1.3706 -0.0683 -0.5126
 1682SOL    MW4 6857   4.280   2.813   2.735 -0.9003 -0.0432  0.2823
 1683SOL     OW 6858   4.265   3.067   2.621  0.1827 -0.3002 -0.4181
 1683SOL    HW2 6859   4.279   2.978   2.655 -1.1127 -0.4235 -0.1959
 1683SOL    HW3 6860   4.335   3.118   2.661  0.4495 -1.0549  0.1065
 1683SOL    MW4 6861   4.276   3.062   2.631  0.0467 -0.4163 -0.3192
 1684SOL     OW 6862   4.027   3.225   2.683 -0.5040  0.2600 -0.0879
 1684SOL    HW2 6863   4.035   3.319   2.668  0.4160  0.2615  0.3803
 1684SOL    HW3 6864   4.113   3.189   2.660 -0.2031 -0.2051  1.6354
 1684SOL    MW4 6865   4.039   3.232   2.678 -0.3428  0.1986  0.2012
 1685SOL     OW 6866   4.011   3.498   2.634 -0.3380  0.4553 -0.3139
 1685SOL    HW2 6867   4.095   3.528   2.669  0.1123  0.8900 -1.7281
 1685SOL    HW3 6868   4.025   3.496   2.540 -1.6270 -0.4004 -0.4836
 1685SOL    MW4 6869   4.024   3.502   2.626 -0.4482  0.3998 -0.5229
 1686SOL     OW 6870   4.247   3.622   2.694 -0.0236 -0.5842  0.5192
 1686SOL    HW2 6871   4.245   3.621   2.790  0.8594  2.5051  0.6087
 1686SOL    HW3 6872   4.335   3.592   2.671  0.4825  0.6697  0.7662
 1686SOL    MW4 6873   4.258   3.618   2.703  0.1597 -0.0114  0.5634
 1687SOL     OW 6874   4.247   3.862   2.581  0.1662  0.0529  0.2185
 1687SOL    HW2 6875   4.243   3.774   2.617  0.5640  0.6435  1.7565
 1687SOL    HW3 6876   4.325   3.901   2.619  0.1414  0.9902 -0.6525
 1687SOL    MW4 6877   4.256   3.856   2.591  0.2155  0.2542  0.3066
 1688SOL     OW 6878   4.025   4.007   2.703 -0.0025 -0.2500  0.0607
 1688SOL    HW2 6879   4.042   3.993   2.796 -0.5901  0.2564  0.2475
 1688SOL    HW3 6880   4.102   3.971   2.659  0.6458  0.2339  0.7798
 1688SOL    MW4 6881   4.037   4.000   2.710  0.0057 -0.1192  0.1802
 1689SOL     OW 6882   4.038   4.268   2.650  0.9427  0.1670  0.2629
 1689SOL    HW2 6883   4.025   4.174   2.655 -0.3005  0.2329 -1.2651
 1689SOL    HW3 6884   4.030   4.289   2.556  1.0409  1.7944  0.5956
 1689SOL    MW4 6885   4.035   4.259   2.638  0.7915  0.3910  0.1051
 1690SOL     OW 6886   4.298   4.351   2.735 -0.6628 -0.4906 -0.0233
 1690SOL    HW2 6887   4.208   4.327   2.715 -0.7405 -0.3111  0.1124
 1690SOL    HW3 6888   4.305   4.444   2.711 -0.5021 -0.5149 -0.0748
 1690SOL    MW4 6889   4.287   4.360   2.729 -0.6514 -0.4702 -0.0122
 1691SOL     OW 6890   0.205   4.628   3.123 -0.1379 -0.2540  0.3102
 1691SOL    HW2 6891   0.190   4.636   3.217  0.9423  1.0285  0.3814
 1691SOL    HW3 6892   0.133   4.676   3.083 -0.3955 -0.4892  0.4930
 1691SOL    MW4 6893   0.194   4.635   3.130 -0.0294 -0.1159  0.3438
 1692SOL     OW 6894   0.002   0.110   3.033 -0.0209 -0.0323  0.0919
 1692SOL    HW2 6895  -0.089   0.082   3.045  0.0494  0.2424  1.2784
 1692SOL    HW3 6896   0.008   0.194   3.078  0.2861  0.9627 -1.7667
 1692SOL    MW4 6897  -0.009   0.117   3.041  0.0289  0.1352  0.0033
 1693SOL     OW 6898   0.021   0.353   3.164  0.3915 -0.5354  0.2915
 1693SOL    HW2 6899   0.026   0.371   3.258 -0.0325  0.0552  0.2015
 1693SOL    HW3 6900  -0.050   0.408   3.132 -1.3152 -2.7843  0.0984
 1693SOL    MW4 6901   0.013   0.363   3.172  0.1104 -0.7541  0.2542
 1694SOL     OW 6902   0.237   0.453   2.988 -0.0080  0.2612 -0.4661
 1694SOL    HW2 6903   0.317   0.420   3.027  0.6284  0.1475 -1.8377
 1694SOL    HW3 6904   0.167   0.411   3.038  0.7488  2.0755  2.1768
 1694SOL    MW4 6905   0.238   0.443   3.000  0.1758  0.4856 -0.2983
 1695SOL     OW 6906   0.225   0.732   3.116  0.3818 -0.6202  0.1213
 1695SOL    HW2 6907   0.229   0.724   3.211  1.5375 -1.7071  0.0031
 1695SOL    HW3 6908   0.242   0.643   3.084  0.5275 -0.1591 -1.1000
 1695SOL    MW4 6909   0.228   0.719   3.124  0.5535 -0.7027 -0.0553
 1696SOL     OW 6910   0.002   0.880   3.027 -0.1993  0.4245  0.1378
 1696SOL    HW2 6911   0.076   0.828   3.058 -0.0606 -0.9709 -2.3692
 1696SOL    HW3 6912   0.013   0.883   2.932 -2.3658  1.7579 -0.1158
 1696SOL    MW4 6913   0.013   0.874   3.018 -0.4668  0.4164 -0.2265
 1697SOL     OW 6914   0.035   1.153   3.110  0.1453  0.3602 -0.1374
 1697SOL    HW2 6915   0.122   1.184   3.086  0.7715 -0.1533  1.4376
 1697SOL    HW3 6916   0.033   1.061   3.085 -0.6624  0.8683 -2.0232
 1697SOL    MW4 6917   0.046   1.145   3.104  0.1214  0.3594 -0.1783
 1698SOL     OW 6918   0.269   1.256   2.986 -0.2121  0.5940  0.7050
 1698SOL    HW2 6919   0.225   1.238   2.902  0.6447  0.2448  0.3172
 1698SOL    HW3 6920   0.249   1.347   3.005  0.5985  1.0398 -0.5142
 1698SOL    MW4 6921   0.261   1.265   2.977  0.0079  0.6065  0.4928
 1699SOL     OW 6922   0.238   1.510   3.086 -0.3521 -0.1135  0.4536
 1699SOL    HW2 6923   0.243   1.529   3.180  0.1990  0.5553  0.2940
 1699SOL    HW3 6924   0.309   1.562   3.047 -0.7349 -0.1920 -0.3600
 1699SOL    MW4 6925   0.248   1.520   3.093 -0.3299 -0.0356  0.3250
 1700SOL     OW 6926   0.035   1.705   3.019 -0.3459 -0.2197 -0.2333
 1700SOL    HW2 6927   0.112   1.656   3.048  1.3759  1.2528 -2.2594
 1700SOL    HW3 6928   0.034   1.783   3.074 -0.7317 -0.4858  0.1497
 1700SOL    MW4 6929   0.045   1.709   3.030 -0.1696 -0.0606 -0.4501
 1701SOL     OW 6930   0.021   1.950   3.130  0.1634  0.2754  0.2144
 1701SOL    HW2 6931   0.086   1.997   3.078 -0.8883 -0.9263 -2.2928
 1701SOL    HW3 6932  -0.064   1.983   3.098 -0.5129 -0.7609  0.9072
 1701SOL    MW4 6933   0.018   1.961   3.119 -0.0646 -0.0199 -0.0250
 1702SOL     OW 6934   0.181   2.087   2.959 -0.7861 -0.2004  0.0043
 1702SOL    HW2 6935   0.245   2.029   3.000 -0.4417 -0.1284 -0.4294
 1702SOL    HW3 6936   0.193   2.171   3.003 -1.1066 -0.3845  0.4511
 1702SOL    MW4 6937   0.191   2.091   2.970 -0.7829 -0.2153  0.0060
 1703SOL     OW 6938   0.209   2.309   3.098  0.4129 -0.3479  0.1430
 1703SOL    HW2 6939   0.217   2.276   3.188 -0.4633  0.0747  0.3770
 1703SOL    HW3 6940   0.291   2.357   3.083  0.2361  0.2317  0.9919
 1703SOL    MW4 6941   0.221   2.311   3.108  0.2739 -0.2160  0.2859
 1704SOL     OW 6942   0.026   2.459   2.965 -0.4556 -0.1109 -0.2873
 1704SOL    HW2 6943   0.035   2.548   2.998 -2.7787 -0.0132  0.1166
 1704SOL    HW3 6944   0.088   2.408   3.018  1.4980  1.3771 -1.0978
 1704SOL    MW4 6945   0.036   2.464   2.976 -0.5044  0.0982 -0.3409
 1705SOL     OW 6946   0.045   2.708   3.101 -0.1490  0.2461  0.0689
 1705SOL    HW2 6947   0.043   2.715   3.197  0.7723 -1.4819  0.2426
 1705SOL    HW3 6948   0.118   2.764   3.075  0.5314 -0.4130  0.5194
 1705SOL    MW4 6949   0.054   2.716   3.110  0.0623 -0.0689  0.1512
 1706SOL     OW 6950   0.279   2.857   3.002 -0.1034  0.0450  0.3875
 1706SOL    HW2 6951   0.328   2.778   3.022  1.1767  0.6807 -0.2164
 1706SOL    HW3 6952   0.245   2.842   2.913  0.0601  0.1317  0.3101
 1706SOL    MW4 6953   0.281   2.845   2.993  0.0871  0.1404  0.2975
 1707SOL     OW 6954   0.226   3.104   3.128 -0.4011 -0.0321  0.0029
 1707SOL    HW2 6955   0.227   3.096   3.223  0.4303 -1.6269 -0.1393
 1707SOL    HW3 6956   0.238   3.015   3.096 -2.0304  0.2921 -1.6083
 1707SOL    MW4 6957   0.227   3.091   3.136 -0.5063 -0.1998 -0.2284
 1708SOL     OW 6958   4.485   3.181   3.017  0.0383  0.4123  0.3109
 1708SOL    HW2 6959   4.411   3.132   3.053  0.2891 -1.3042 -1.4293
 1708SOL    HW3 6960   4.562   3.141   3.057  0.2126 -0.2691 -0.6910
 1708SOL    MW4 6961   4.485   3.169   3.027  0.0944  0.0961 -0.0508
 1709SOL     OW 6962   4.457   3.468   3.106 -0.2391 -0.1088  0.1754
 1709SOL    HW2 6963   4.377   3.496   3.060 -0.6361 -3.2055 -1.1448
 1709SOL    HW3 6964   4.466   3.375   3.084  2.4593 -0.3910  2.2198
 1709SOL    MW4 6965   4.447   3.459   3.097  0.0646 -0.5546  0.2708
 1710SOL     OW 6966   0.232   3.588   3.051 -0.3155 -0.0816  0.6075
 1710SOL    HW2 6967   0.236   3.673   3.095  0.0717 -0.3117  1.0100
 1710SOL    HW3 6968   0.147   3.551   3.077 -1.5043  1.1549 -1.3508
 1710SOL    MW4 6969   0.221   3.595   3.060 -0.4213  0.0513  0.4022
 1711SOL     OW 6970   0.236   3.850   3.141 -0.4491 -0.0372 -0.0743
 1711SOL    HW2 6971   0.252   3.868   3.234 -2.7315  1.5287  0.0599
 1711SOL    HW3 6972   0.308   3.893   3.095 -1.1909  2.1915  0.7830
 1711SOL    MW4 6973   0.248   3.858   3.147 -0.8481  0.4640  0.0563
 1712SOL     OW 6974   0.038   3.978   3.017 -0.1401 -0.7966  0.0171
 1712SOL    HW2 6975   0.112   3.928   3.051 -0.4233 -0.1656  1.5760
 1712SOL    HW3 6976  -0.039   3.926   3.041 -0.4297  0.3152  1.5534
 1712SOL    MW4 6977   0.038   3.965   3.024 -0.2157 -0.5667  0.4253
 1713SOL     OW 6978   0.033   4.231   3.129 -0.1415 -0.2981 -0.2966
 1713SOL    HW2 6979   0.008   4.222   3.221  1.1094 -1.0203 -0.0063
 1713SOL    HW3 6980   0.046   4.140   3.100  0.1969 -0.0316 -0.9709
 1713SOL    MW4 6981   0.031   4.218   3.138  0.0682 -0.3581 -0.3474
 1714SOL     OW 6982   0.239   4.385   3.014 -0.0268  0.1323 -0.2956
 1714SOL    HW2 6983   0.170   4.335   3.056 -0.9770  2.5633  1.1507
 1714SOL    HW3 6984   0.234   4.472   3.054  1.5001  1.4331 -2.7598
 1714SOL    MW4 6985   0.230   4.390   3.024  0.0493  0.6247 -0.4299
 1715SOL     OW 6986   0.679   4.624   3.103  0.0160 -0.3786 -0.5050
 1715SOL    HW2 6987   0.692   4.535   3.071 -0.0937 -0.1879 -1.0740
 1715SOL    HW3 6988   0.588   4.645   3.083  0.0931 -0.0695 -0.5325
 1715SOL    MW4 6989   0.669   4.615   3.096  0.0117 -0.3128 -0.5836
 1716SOL     OW 6990   0.444   0.063   3.008 -0.2376 -0.4948  0.2873
 1716SOL    HW2 6991   0.451   0.143   3.060 -0.9410 -0.8329  0.9018
 1716SOL    HW3 6992   0.370   0.016   3.046 -0.2920 -1.0903 -0.5497
 1716SOL    MW4 6993   0.435   0.068   3.020 -0.3376 -0.6179  0.2577
 1717SOL     OW 6994   0.462   0.337   3.110 -0.2367 -0.3459  0.1672
 1717SOL    HW2 6995   0.460   0.354   3.204  0.7649  1.2134 -0.0808
 1717SOL    HW3 6996   0.547   0.370   3.081 -0.8106 -0.1966 -1.4006
 1717SOL    MW4 6997   0.473   0.344   3.118 -0.1803 -0.1205 -0.0727
 1718SOL     OW 6998   0.703   0.487   3.040  0.5279 -0.0459 -0.3182
 1718SOL    HW2 6999   0.775   0.435   3.075  1.9228  1.5058 -0.8056
 1718SOL    HW3 7000   0.698   0.563   3.097 -0.3390  0.1530 -0.6518
 1718SOL    MW4 7001   0.712   0.490   3.052  0.5976  0.1850 -0.4268
 1719SOL     OW 7002   0.670   0.713   3.205  0.1227 -0.2445  0.5015
 1719SOL    HW2 7003   0.688   0.737   3.295 -0.3530  0.9412  0.2936
 1719SOL    HW3 7004   0.608   0.780   3.174 -0.2138 -0.9983 -0.4988
 1719SOL    MW4 7005   0.664   0.725   3.213  0.0156 -0.1875  0.3421
 1720SOL     OW 7006   0.469   0.880   3.068 -0.1295 -0.0861  0.3445
 1720SOL    HW2 7007   0.382   0.847   3.088 -0.5201  0.1242 -0.9634
 1720SOL    HW3 7008   0.472   0.885   2.972  0.9453  0.8960  0.4102
 1720SOL    MW4 7009   0.458   0.876   3.058 -0.0392  0.0712  0.1807
 1721SOL     OW 7010   0.482   1.166   3.155  0.6718  0.3294 -0.9198
 1721SOL    HW2 7011   0.515   1.078   3.141  0.4292  0.1942 -0.6372
 1721SOL    HW3 7012   0.403   1.171   3.100 -0.8240 -0.5189  1.0909
 1721SOL    MW4 7013   0.476   1.155   3.146  0.4424  0.1996 -0.6170
 1722SOL     OW 7014   0.680   1.319   3.037  0.1139 -0.0493 -0.3918
 1722SOL    HW2 7015   0.748   1.258   3.065 -0.0825 -0.4418 -0.7666
 1722SOL    HW3 7016   0.598   1.273   3.054 -0.1299  1.0945  1.6645
 1722SOL    MW4 7017   0.678   1.305   3.043  0.0558  0.0498 -0.1700
 1723SOL     OW 7018   0.658   1.567   3.152 -0.3641 -0.4055  0.4359
 1723SOL    HW2 7019   0.655   1.566   3.248  0.1960 -1.8042  0.4398
 1723SOL    HW3 7020   0.643   1.477   3.126 -1.8962  0.1902 -0.8546
 1723SOL    MW4 7021   0.656   1.555   3.161 -0.4923 -0.5115  0.2663
 1724SOL     OW 7022   0.446   1.701   3.037 -0.2776 -0.5827 -0.1376
 1724SOL    HW2 7023   0.516   1.679   3.099  2.1956  0.0092 -2.5990
 1724SOL    HW3 7024   0.445   1.797   3.036 -0.3883 -0.5874 -0.8855
 1724SOL    MW4 7025   0.455   1.711   3.045  0.0341 -0.5052 -0.5612
 1725SOL     OW 7026   0.433   1.983   3.081 -0.5004 -0.0835  0.1362
 1725SOL    HW2 7027   0.519   2.010   3.047 -1.2513 -0.0793 -1.8374
 1725SOL    HW3 7028   0.448   1.967   3.174  2.1624 -2.0952 -0.5649
 1725SOL    MW4 7029   0.447   1.984   3.089 -0.2482 -0.3482 -0.2165
 1726SOL     OW 7030   0.705   2.052   2.987 -0.6026  0.0333  0.3968
 1726SOL    HW2 7031   0.779   2.003   3.025  1.3544  0.7236 -2.4128
 1726SOL    HW3 7032   0.707   2.136   3.032 -0.1748 -0.2322  0.8887
 1726SOL    MW4 7033   0.715   2.057   2.998 -0.2880  0.0894  0.0908
 1727SOL     OW 7034   0.659   2.277   3.120  0.2183 -0.4497 -0.2094
 1727SOL    HW2 7035   0.663   2.272   3.216  0.1352  3.3792  0.0897
 1727SOL    HW3 7036   0.736   2.328   3.095 -1.6674  1.7685 -1.7976
 1727SOL    MW4 7037   0.670   2.283   3.129 -0.0414  0.3483 -0.3793
 1728SOL     OW 7038   0.458   2.431   3.016 -0.4316  0.0423 -0.2638
 1728SOL    HW2 7039   0.525   2.376   3.057 -0.0914  0.1458 -0.6696
 1728SOL    HW3 7040   0.477   2.424   2.922 -0.0447  1.2894 -0.2860
 1728SOL    MW4 7041   0.470   2.423   3.009 -0.3357  0.2205 -0.3204
 1729SOL     OW 7042   0.445   2.678   3.138  0.2904 -0.2478  0.2522
 1729SOL    HW2 7043   0.515   2.739   3.117  0.6442 -0.4515  0.8383
 1729SOL    HW3 7044   0.474   2.594   3.104  0.0345 -0.1967 -0.0944
 1729SOL    MW4 7045   0.458   2.675   3.131  0.3033 -0.2677  0.2840
 1730SOL     OW 7046   0.666   2.822   3.029 -0.2412 -0.1990 -0.2667
 1730SOL    HW2 7047   0.737   2.764   3.056 -0.2516  0.9614  2.4230
 1730SOL    HW3 7048   0.697   2.910   3.051 -1.9510  0.4457 -0.3349
 1730SOL    MW4 7049   0.680   2.826   3.036 -0.4682  0.0391  0.0794
 1731SOL     OW 7050   0.707   3.087   3.115 -0.0069 -0.0737  0.3686
 1731SOL    HW2 7051   0.694   3.059   3.206 -0.3661 -1.3648 -0.0634
 1731SOL    HW3 7052   0.621   3.117   3.087 -0.0690 -0.3759  0.2310
 1731SOL    MW4 7053   0.694   3.087   3.124 -0.0625 -0.2840  0.2935
 1732SOL     OW 7054   0.471   3.162   3.023 -0.5567 -0.2447 -0.0689
 1732SOL    HW2 7055   0.483   3.255   3.043 -0.1702  0.0418 -1.5555
 1732SOL    HW3 7056   0.386   3.140   3.061 -1.3073  1.0780 -0.9335
 1732SOL    MW4 7057   0.462   3.171   3.031 -0.6047 -0.0327 -0.3793
 1733SOL     OW 7058   0.478   3.439   3.080 -0.3729 -0.2861  0.1477
 1733SOL    HW2 7059   0.481   3.431   3.176  0.9615  1.2216  0.2534
 1733SOL    HW3 7060   0.401   3.492   3.062 -0.3014 -0.0889  0.4244
 1733SOL    MW4 7061   0.468   3.445   3.090 -0.1874 -0.0610  0.1981
 1734SOL     OW 7062   0.676   3.616   3.017 -0.0158 -0.2104  0.0658
 1734SOL    HW2 7063   0.757   3.576   3.047 -0.2649 -0.3685  0.5352
 1734SOL    HW3 7064   0.608   3.552   3.038 -0.3825  0.3418  0.5789
 1734SOL    MW4 7065   0.678   3.602   3.024 -0.0970 -0.1585  0.1955
 1735SOL     OW 7066   0.694   3.869   3.110 -0.3590 -0.2631  0.3847
 1735SOL    HW2 7067   0.696   3.860   3.205 -0.3293 -0.4455  0.3661
 1735SOL    HW3 7068   0.716   3.783   3.076 -2.0735 -0.6494  0.2046
 1735SOL    MW4 7069   0.697   3.857   3.118 -0.5813 -0.3383  0.3583
 1736SOL     OW 7070   0.458   3.977   3.014  0.0346  0.6987  0.2064
 1736SOL    HW2 7071   0.541   3.935   3.038 -0.6918 -0.6325  0.4361
 1736SOL    HW3 7072   0.455   3.970   2.919 -0.2195 -0.0516  0.2645
 1736SOL    MW4 7073   0.469   3.971   3.005 -0.0947  0.4239  0.2441
 1737SOL     OW 7074   0.484   4.236   3.123  0.1143 -0.1254 -0.1364
 1737SOL    HW2 7075   0.481   4.146   3.090  0.1084  0.3669 -1.5062
 1737SOL    HW3 7076   0.402   4.275   3.093 -0.4517 -0.0193  1.5187
 1737SOL    MW4 7077   0.473   4.230   3.115  0.0389 -0.0463 -0.0989
 1738SOL     OW 7078   0.709   4.361   3.012  0.4994 -0.4250  0.7470
 1738SOL    HW2 7079   0.632   4.328   3.058 -0.4745  1.3116  0.4327
 1738SOL    HW3 7080   0.678   4.380   2.923  1.0422  1.1020  0.8612
 1738SOL    MW4 7081   0.695   4.359   3.006  0.4426  0.0052  0.7205
 1739SOL     OW 7082   1.129   4.577   3.137  0.0149  0.4250  0.0621
 1739SOL    HW2 7083   1.208   4.623   3.109 -0.5913  1.3473 -0.1395
 1739SOL    HW3 7084   1.058   4.623   3.094 -0.5901 -0.8329 -0.3142
 1739SOL    MW4 7085   1.130   4.589   3.128 -0.1448  0.3810 -0.0138
 1740SOL     OW 7086   0.921   0.071   2.999 -0.1548  0.1735 -0.4789
 1740SOL    HW2 7087   0.919   0.152   3.049  0.8652 -0.6475  0.8945
 1740SOL    HW3 7088   0.835   0.031   3.014 -0.2618  0.4745 -0.3004
 1740SOL    MW4 7089   0.909   0.076   3.007 -0.0344  0.1049 -0.2742
 1741SOL     OW 7090   0.904   0.318   3.144 -0.1804  0.2501  0.0057
 1741SOL    HW2 7091   0.925   0.320   3.237 -1.1917  1.5310  0.2118
 1741SOL    HW3 7092   0.974   0.368   3.102  0.8424 -1.1857 -0.0605
 1741SOL    MW4 7093   0.916   0.325   3.150 -0.1789  0.2296  0.0241
 1742SOL     OW 7094   1.102   0.477   3.031 -0.2302  0.1600 -0.6492
 1742SOL    HW2 7095   1.183   0.430   3.052  0.0789  0.9187 -0.1067
 1742SOL    HW3 7096   1.094   0.471   2.936  0.6451  0.3578 -0.7390
 1742SOL    MW4 7097   1.112   0.470   3.021 -0.0738  0.2862 -0.5896
 1743SOL     OW 7098   1.115   0.750   3.144  0.2482  0.2441 -0.2971
 1743SOL    HW2 7099   1.101   0.750   3.239  0.8790  0.2872 -0.1995
 1743SOL    HW3 7100   1.120   0.658   3.120  0.3116  0.2368 -0.2555
 1743SOL    MW4 7101   1.114   0.738   3.153  0.3397  0.2488 -0.2787
 1744SOL     OW 7102   0.880   0.837   3.061  0.7202 -0.5697  0.2693
 1744SOL    HW2 7103   0.959   0.791   3.090  1.4279  0.8800  0.6969
 1744SOL    HW3 7104   0.808   0.794   3.107  1.2484 -1.8991 -0.1243
 1744SOL    MW4 7105   0.881   0.825   3.071  0.8832 -0.5538  0.2737
 1745SOL     OW 7106   0.866   1.130   3.092 -0.2148  0.2691  0.2272
 1745SOL    HW2 7107   0.946   1.170   3.058  1.4299 -0.8064  2.6501
 1745SOL    HW3 7108   0.879   1.036   3.080 -1.8420  0.1722 -0.8407
 1745SOL    MW4 7109   0.878   1.123   3.086 -0.2126  0.1143  0.4060
 1746SOL     OW 7110   1.092   1.225   2.968  0.4302 -0.0648 -0.1161
 1746SOL    HW2 7111   1.179   1.198   2.997  0.2727 -0.3928  0.0509
 1746SOL    HW3 7112   1.104   1.250   2.877  0.5053 -1.0286 -0.3680
 1746SOL    MW4 7113   1.105   1.225   2.960  0.4193 -0.2353 -0.1273
 1747SOL     OW 7114   1.085   1.497   3.066 -0.0094 -0.6938 -0.0134
 1747SOL    HW2 7115   1.168   1.541   3.052  0.5752 -1.6911  0.2925
 1747SOL    HW3 7116   1.103   1.404   3.050 -0.2757 -1.3570  3.2257
 1747SOL    MW4 7117   1.098   1.490   3.062  0.0327 -0.9129  0.4542
 1748SOL     OW 7118   0.876   1.662   3.012 -0.3359 -0.3047  0.6739
 1748SOL    HW2 7119   0.948   1.604   3.035 -0.6121 -0.8889  0.0601
 1748SOL    HW3 7120   0.798   1.620   3.050 -0.5863 -0.5235 -0.0728
 1748SOL    MW4 7121   0.875   1.649   3.020 -0.4054 -0.4107  0.4945
 1749SOL     OW 7122   0.904   1.918   3.115 -0.0546  0.6517  0.0921
 1749SOL    HW2 7123   0.898   1.915   3.211 -1.2600  1.0644  0.0327
 1749SOL    HW3 7124   0.891   1.828   3.087 -1.1366  0.7578  0.2418
 1749SOL    MW4 7125   0.902   1.906   3.124 -0.3564  0.7200  0.1042
 1750SOL     OW 7126   1.186   2.019   3.034 -0.5348  0.0557  0.0992
 1750SOL    HW2 7127   1.094   1.993   3.035 -0.7910  0.8593 -0.9598
 1750SOL    HW3 7128   1.202   2.045   2.943  0.5083  0.7112  0.4640
 1750SOL    MW4 7129   1.176   2.019   3.022 -0.4309  0.2482  0.0076
 1751SOL     OW 7130   1.143   2.289   3.140 -0.3290 -0.3864 -0.1404
 1751SOL    HW2 7131   1.120   2.290   3.233 -2.8401 -0.1300 -0.7113
 1751SOL    HW3 7132   1.147   2.196   3.117  0.2414 -0.4478  0.2185
 1751SOL    MW4 7133   1.140   2.277   3.149 -0.5851 -0.3605 -0.1683
 1752SOL     OW 7134   0.884   2.400   3.035  0.4875  0.1671  0.2879
 1752SOL    HW2 7135   0.886   2.401   2.940  1.4721  2.5027  0.2836
 1752SOL    HW3 7136   0.967   2.359   3.061  0.5715  0.2330  0.1239
 1752SOL    MW4 7137   0.896   2.395   3.026  0.6285  0.4838  0.2658
 1753SOL     OW 7138   0.890   2.677   3.132  0.6355 -0.4790 -0.3498
 1753SOL    HW2 7139   0.893   2.696   3.225 -0.6601 -0.5055 -0.2908
 1753SOL    HW3 7140   0.908   2.583   3.126  0.8354 -0.4530 -0.1405
 1753SOL    MW4 7141   0.893   2.667   3.143  0.4910 -0.4790 -0.3145
 1754SOL     OW 7142   1.104   2.830   2.987 -0.3126 -0.4441 -0.8108
 1754SOL    HW2 7143   1.111   2.922   3.012  0.2712 -0.5864 -0.4476
 1754SOL    HW3 7144   1.025   2.799   3.031 -0.0147 -0.3511 -0.2036
 1754SOL    MW4 7145   1.094   2.838   2.996 -0.1962 -0.4508 -0.6828
 1755SOL     OW 7146   1.132   3.088   3.108 -0.4348 -0.0613 -0.7077
 1755SOL    HW2 7147   1.211   3.133   3.078 -0.5172  0.5784  0.0267
 1755SOL    HW3 7148   1.060   3.144   3.081 -0.5313  0.3109  0.3090
 1755SOL    MW4 7149   1.133   3.101   3.100 -0.4584  0.0722 -0.4766
 1756SOL     OW 7150   0.916   3.251   3.017 -0.2719 -0.2704  0.2129
 1756SOL    HW2 7151   0.844   3.196   3.046 -0.8900  1.3178  1.7798
 1756SOL    HW3 7152   0.917   3.241   2.922 -1.3010 -1.8207  0.3466
 1756SOL    MW4 7153   0.907   3.243   3.008 -0.4893 -0.2654  0.4373
 1757SOL     OW 7154   0.902   3.507   3.131 -0.3496  0.5871 -0.3740
 1757SOL    HW2 7155   0.992   3.538   3.116  0.0117  0.3845  1.2391
 1757SOL    HW3 7156   0.901   3.419   3.093  0.6719 -0.1005  1.1469
 1757SOL    MW4 7157   0.914   3.499   3.124 -0.1671  0.4699  0.0391
 1758SOL     OW 7158   1.144   3.607   3.036 -0.7739 -0.0533  0.1861
 1758SOL    HW2 7159   1.224   3.559   3.057 -1.8254 -1.7654  0.4146
 1758SOL    HW3 7160   1.159   3.695   3.070  0.8667 -0.4478  0.5275
 1758SOL    MW4 7161   1.156   3.612   3.043 -0.6961 -0.3314  0.2613
 1759SOL     OW 7162   1.189   3.859   3.142 -0.3215 -0.1735 -0.2596
 1759SOL    HW2 7163   1.180   3.857   3.237 -0.6421 -1.7863 -0.3056
 1759SOL    HW3 7164   1.105   3.892   3.111 -0.2732  0.2020  0.0040
 1759SOL    MW4 7165   1.177   3.863   3.150 -0.3573 -0.3366 -0.2308
 1760SOL     OW 7166   0.940   3.958   3.019 -0.2740  0.4720 -0.1029
 1760SOL    HW2 7167   0.860   3.913   3.048 -0.2881  0.9410  0.6156
 1760SOL    HW3 7168   0.926   3.976   2.927 -0.5270 -0.4565 -0.2529
 1760SOL    MW4 7169   0.928   3.954   3.011 -0.3092  0.4115 -0.0281
 1761SOL     OW 7170   0.932   4.221   3.097  0.2153  0.4023 -0.3408
 1761SOL    HW2 7171   0.929   4.128   3.075 -0.5441  0.7766 -1.8558
 1761SOL    HW3 7172   0.861   4.260   3.046  0.0364  1.6943  0.8651
 1761SOL    MW4 7173   0.922   4.214   3.088  0.0916  0.6218 -0.3815
 1762SOL     OW 7174   1.166   4.335   3.012  0.1018 -0.0688  0.4354
 1762SOL    HW2 7175   1.081   4.304   3.044 -0.1092 -0.0765 -0.1105
 1762SOL    HW3 7176   1.179   4.418   3.056  0.2790 -0.5343  1.2774
 1762SOL    MW4 7177   1.157   4.342   3.022  0.0974 -0.1311  0.4745
 1763SOL     OW 7178   1.568   4.593   3.105 -0.2031 -1.1355  0.5741
 1763SOL    HW2 7179   1.561   4.603   3.200  2.3632  2.1698  0.5129
 1763SOL    HW3 7180   1.502   4.653   3.070  1.8798  1.0906  0.3124
 1763SOL    MW4 7181   1.558   4.602   3.113  0.4103 -0.4058  0.5317
 1764SOL     OW 7182   1.331   0.060   3.012  0.3678 -0.0432  0.8358
 1764SOL    HW2 7183   1.316   0.150   3.039 -0.6740 -0.3251  1.2041
 1764SOL    HW3 7184   1.338   0.064   2.916 -3.8873 -0.1114  0.4167
 1764SOL    MW4 7185   1.330   0.072   3.003 -0.3310 -0.0894  0.8295
 1765SOL     OW 7186   1.324   0.318   3.094 -0.4459 -0.7180  0.3259
 1765SOL    HW2 7187   1.328   0.338   3.187 -1.0361 -1.2124  0.4556
 1765SOL    HW3 7188   1.409   0.346   3.060 -0.6018  0.3883  0.8253
 1765SOL    MW4 7189   1.336   0.324   3.102 -0.5444 -0.6373  0.4091
 1766SOL     OW 7190   1.549   0.449   3.010  0.1695 -0.0740 -0.6070
 1766SOL    HW2 7191   1.513   0.535   3.029  3.9102  1.0902  1.7294
 1766SOL    HW3 7192   1.567   0.451   2.916 -0.1915  1.5182 -0.6596
 1766SOL    MW4 7193   1.547   0.461   3.000  0.6154  0.2897 -0.3057
 1767SOL     OW 7194   1.532   0.739   3.096 -0.0414  0.1364 -0.6646
 1767SOL    HW2 7195   1.553   0.742   3.189  0.2482  1.5020 -0.7557
 1767SOL    HW3 7196   1.447   0.784   3.089  0.0769  0.2974 -1.0901
 1767SOL    MW4 7197   1.523   0.745   3.107  0.0124  0.3378 -0.7329
 1768SOL     OW 7198   1.314   0.872   2.992  0.5360 -0.2138  0.3219
 1768SOL    HW2 7199   1.333   0.961   3.024  0.2313 -0.2489  0.6019
 1768SOL    HW3 7200   1.238   0.844   3.043 -0.3678 -0.0178 -0.9117
 1768SOL    MW4 7201   1.307   0.880   3.003  0.3766 -0.1926  0.1962
 1769SOL     OW 7202   1.319   1.118   3.092  0.0423  0.5042 -0.1895
 1769SOL    HW2 7203   1.320   1.095   3.184 -0.0725  0.6476 -0.1523
 1769SOL    HW3 7204   1.386   1.185   3.082 -1.4006  2.0421  0.2014
 1769SOL    MW4 7205   1.328   1.124   3.103 -0.1631  0.7262 -0.1330
 1770SOL     OW 7206   1.575   1.248   3.018  0.3378  0.5014  0.0897
 1770SOL    HW2 7207   1.650   1.207   3.060 -0.8390 -1.0351  0.7281
 1770SOL    HW3 7208   1.577   1.339   3.048  2.4267  0.6990 -0.5909
 1770SOL    MW4 7209   1.585   1.255   3.028  0.4581  0.3247  0.0842
 1771SOL     OW 7210   1.593   1.520   3.102  0.2978  0.1952 -0.3432
 1771SOL    HW2 7211   1.600   1.516   3.198  0.0332 -0.6334 -0.3530
 1771SOL    HW3 7212   1.505   1.555   3.086 -0.1419 -0.8803 -0.2901
 1771SOL    MW4 7213   1.582   1.524   3.113  0.2048 -0.0561 -0.3376
 1772SOL     OW 7214   1.338   1.595   3.024 -0.4271 -0.3765 -0.2179
 1772SOL    HW2 7215   1.345   1.682   3.063 -0.6294 -0.2695 -0.4182
 1772SOL    HW3 7216   1.348   1.609   2.930  0.3075 -0.6687 -0.1819
 1772SOL    MW4 7217   1.340   1.608   3.017 -0.3568 -0.4008 -0.2396
 1773SOL     OW 7218   1.376   1.855   3.109 -0.0469 -0.0139 -0.2941
 1773SOL    HW2 7219   1.377   1.847   3.204  0.4714 -0.6550 -0.3507
 1773SOL    HW3 7220   1.303   1.914   3.091  0.5299  0.9840  0.5618
 1773SOL    MW4 7221   1.366   1.862   3.119  0.0975  0.0333 -0.1888
 1774SOL     OW 7222   1.543   2.047   2.986  0.2368 -0.3311  0.4714
 1774SOL    HW2 7223   1.474   1.987   3.015 -0.0084 -0.0182  0.5262
 1774SOL    HW3 7224   1.624   2.009   3.021  0.0821 -0.6441  0.4886
 1774SOL    MW4 7225   1.545   2.034   2.994  0.1842 -0.3314  0.4809
 1775SOL     OW 7226   1.583   2.287   3.109 -0.1396 -0.0346 -0.2193
 1775SOL    HW2 7227   1.508   2.344   3.091  0.6880  0.8459 -0.8920
 1775SOL    HW3 7228   1.560   2.204   3.066 -1.6217 -0.4444  1.2886
 1775SOL    MW4 7229   1.570   2.283   3.101 -0.2259  0.0272 -0.1090
 1776SOL     OW 7230   1.377   2.442   3.003 -0.1823  0.1111  0.6474
 1776SOL    HW2 7231   1.299   2.394   3.032 -0.6386  1.3222  1.4654
 1776SOL    HW3 7232   1.364   2.451   2.908 -0.2784 -1.0348  0.5445
 1776SOL    MW4 7233   1.365   2.437   2.994 -0.2553  0.1194  0.7417
 1777SOL     OW 7234   1.324   2.699   3.083  0.3369  0.5355  0.2168
 1777SOL    HW2 7235   1.322   2.606   3.062 -1.7621  0.4264  0.7498
 1777SOL    HW3 7236   1.248   2.735   3.037  1.5259  2.1069 -0.5331
 1777SOL    MW4 7237   1.313   2.691   3.074  0.2168  0.7284  0.1884
 1778SOL     OW 7238   1.566   2.799   2.973  0.1830 -0.1554  0.3284
 1778SOL    HW2 7239   1.637   2.763   3.026  0.5182  0.8398  0.5733
 1778SOL    HW3 7240   1.488   2.753   3.003  0.5606 -0.4737  0.8281
 1778SOL    MW4 7241   1.565   2.788   2.984  0.2772 -0.0660  0.4265
 1779SOL     OW 7242   1.588   3.059   3.084 -0.0139 -0.2800  0.3524
 1779SOL    HW2 7243   1.605   3.061   3.178  1.8390  0.6314  0.0262
 1779SOL    HW3 7244   1.577   2.966   3.064  1.5267 -0.6654  1.1669
 1779SOL    MW4 7245   1.589   3.047   3.093  0.4338 -0.2105  0.4170
 1780SOL     OW 7246   1.378   3.217   3.025 -0.2821  0.4934 -0.0945
 1780SOL    HW2 7247   1.438   3.160   3.074 -0.0377 -0.0194 -0.9887
 1780SOL    HW3 7248   1.403   3.206   2.934 -0.8752  1.2968 -0.3595
 1780SOL    MW4 7249   1.389   3.208   3.019 -0.3282  0.5319 -0.2475
 1781SOL     OW 7250   1.379   3.471   3.120 -0.0096  0.6104 -0.2173
 1781SOL    HW2 7251   1.388   3.464   3.215 -0.3184  2.5773 -0.0130
 1781SOL    HW3 7252   1.385   3.381   3.088  1.7277  0.0750  1.5190
 1781SOL    MW4 7253   1.381   3.459   3.128  0.1788  0.7992  0.0386
 1782SOL     OW 7254   1.613   3.610   3.028 -0.2727  0.1169  0.4269
 1782SOL    HW2 7255   1.534   3.569   3.063 -0.0994 -0.1539  0.5023
 1782SOL    HW3 7256   1.599   3.610   2.933 -0.7793  0.9291  0.4872
 1782SOL    MW4 7257   1.600   3.605   3.020 -0.3166  0.1884  0.4447
 1783SOL     OW 7258   1.611   3.863   3.130  0.0899  0.0251 -0.2425
 1783SOL    HW2 7259   1.672   3.921   3.084 -1.1522  0.9722 -0.7332
 1783SOL    HW3 7260   1.629   3.776   3.095  1.3500  0.2352 -0.1588
 1783SOL    MW4 7261   1.622   3.859   3.120  0.0925  0.1779 -0.2961
 1784SOL     OW 7262   1.401   3.952   2.982 -0.1211 -0.5252  0.0439
 1784SOL    HW2 7263   1.474   3.907   3.025  0.3023  0.6983  0.6293
 1784SOL    HW3 7264   1.326   3.934   3.037  0.2830  0.4579  0.9328
 1784SOL    MW4 7265   1.401   3.944   2.995 -0.0119 -0.2341  0.2384
 1785SOL     OW 7266   1.376   4.187   3.103 -0.1953 -0.0461  0.1343
 1785SOL    HW2 7267   1.375   4.104   3.056  1.2849 -0.5015  0.8755
 1785SOL    HW3 7268   1.297   4.232   3.074  0.8569 -0.1612 -3.0105
 1785SOL    MW4 7269   1.365   4.182   3.093  0.1388 -0.1211 -0.1831
 1786SOL     OW 7270   1.601   4.330   2.986 -1.1120  0.0181  0.2254
 1786SOL    HW2 7271   1.529   4.278   3.022 -0.0077  0.4131  3.1072
 1786SOL    HW3 7272   1.586   4.418   3.021  0.6536  0.1583  0.6465
 1786SOL    MW4 7273   1.589   4.335   2.995 -0.7334  0.0892  0.6611
 1787SOL     OW 7274   2.033   4.647   3.074  0.0327 -0.2297  0.0498
 1787SOL    HW2 7275   2.045   4.646   3.169  0.4710  0.7602  0.0097
 1787SOL    HW3 7276   1.947   4.687   3.062 -0.3805 -1.0946  0.0532
 1787SOL    MW4 7277   2.023   4.652   3.085  0.0360 -0.2136  0.0451
 1788SOL     OW 7278   1.791   0.082   3.037 -0.0822 -0.2246 -0.2842
 1788SOL    HW2 7279   1.722   0.017   3.054 -1.0462  0.8242 -0.1548
 1788SOL    HW3 7280   1.798   0.084   2.941 -0.5486 -0.0131 -0.3164
 1788SOL    MW4 7281   1.783   0.073   3.027 -0.2710 -0.0583 -0.2716
 1789SOL     OW 7282   1.810   0.352   3.069 -0.0081  0.0531 -0.6237
 1789SOL    HW2 7283   1.792   0.258   3.062 -0.0937 -0.1199  1.4818
 1789SOL    HW3 7284   1.723   0.393   3.065 -0.2470 -0.1960  1.4112
 1789SOL    MW4 7285   1.796   0.345   3.067 -0.0510 -0.0026 -0.0775
 1790SOL     OW 7286   2.048   0.471   3.028 -0.2302 -0.0722  0.1513
 1790SOL    HW2 7287   1.965   0.427   3.049 -0.5011  0.0153 -0.7310
 1790SOL    HW3 7288   2.045   0.483   2.933  0.2916  0.9521  0.2654
 1790SOL    MW4 7289   2.036   0.467   3.018 -0.1972  0.0745  0.0498
 1791SOL     OW 7290   2.020   0.758   3.112  0.3081 -0.3029  0.1345
 1791SOL    HW2 7291   1.940   0.787   3.067  1.3192  1.0065 -0.8492
 1791SOL    HW3 7292   2.022   0.664   3.097 -0.7978 -0.2813 -0.2533
 1791SOL    MW4 7293   2.010   0.750   3.104  0.2954 -0.1273 -0.0463
 1792SOL     OW 7294   1.775   0.862   2.989 -0.4181 -0.3192  0.2280
 1792SOL    HW2 7295   1.685   0.837   3.010 -0.3880 -0.4208  0.2386
 1792SOL    HW3 7296   1.776   0.870   2.894  0.2570 -3.1118 -0.0408
 1792SOL    MW4 7297   1.763   0.860   2.979 -0.3252 -0.7010  0.1941
 1793SOL     OW 7298   1.809   1.110   3.094  0.1496 -0.3233  0.2590
 1793SOL    HW2 7299   1.809   1.087   3.186  1.0205 -0.3158  0.2692
 1793SOL    HW3 7300   1.800   1.027   3.048 -0.9913 -0.2585  0.3578
 1793SOL    MW4 7301   1.808   1.096   3.100  0.1140 -0.3138  0.2735
 1794SOL     OW 7302   2.030   1.248   2.968  0.2545 -0.3925 -0.2282
 1794SOL    HW2 7303   2.117   1.236   3.007  1.0126  0.9523 -1.4005
 1794SOL    HW3 7304   1.970   1.208   3.029  1.7976 -2.1731  0.1617
 1794SOL    MW4 7305   2.034   1.241   2.981  0.5584 -0.4499 -0.3314
 1795SOL     OW 7306   2.040   1.507   3.075  0.2160 -0.6290  0.3992
 1795SOL    HW2 7307   2.023   1.488   3.168 -1.2652 -1.0657  0.0602
 1795SOL    HW3 7308   2.052   1.421   3.035 -1.1973 -0.5818 -0.1725
 1795SOL    MW4 7309   2.039   1.493   3.082 -0.1659 -0.6803  0.2789
 1796SOL     OW 7310   1.796   1.648   2.989 -0.0321  0.2945  0.1419
 1796SOL    HW2 7311   1.875   1.595   3.003  0.0393  0.2719 -0.3428
 1796SOL    HW3 7312   1.725   1.596   3.027  0.1277  0.1410  0.2319
 1796SOL    MW4 7313   1.797   1.634   2.996 -0.0015  0.2712  0.0899
 1797SOL     OW 7314   1.785   1.924   3.064  0.4832  0.0997 -0.1280
 1797SOL    HW2 7315   1.866   1.966   3.037  0.9149 -1.6954 -1.7491
 1797SOL    HW3 7316   1.783   1.842   3.015 -1.3440 -0.8075  1.3836
 1797SOL    MW4 7317   1.795   1.918   3.054  0.2991 -0.2569 -0.1423
 1798SOL     OW 7318   2.038   2.053   2.982  0.3684 -0.3999 -0.5758
 1798SOL    HW2 7319   2.115   2.012   3.021  0.0194 -0.5643 -0.0507
 1798SOL    HW3 7320   2.040   2.143   3.012 -0.9642 -1.0039  1.4765
 1798SOL    MW4 7321   2.048   2.059   2.991  0.1464 -0.5012 -0.2356
 1799SOL     OW 7322   1.993   2.297   3.065 -0.2462  0.3742 -1.3235
 1799SOL    HW2 7323   2.008   2.297   3.160 -0.3505 -1.4876 -1.2783
 1799SOL    HW3 7324   2.071   2.337   3.028 -0.4965  1.7336 -0.4141
 1799SOL    MW4 7325   2.005   2.302   3.073 -0.2928  0.3080 -1.1976
 1800SOL     OW 7326   1.774   2.437   2.992 -0.0418 -0.1365 -0.3299
 1800SOL    HW2 7327   1.706   2.387   3.036  0.4251 -1.2122 -0.8181
 1800SOL    HW3 7328   1.856   2.394   3.016  0.2733 -0.3130 -1.6795
 1800SOL    MW4 7329   1.776   2.425   3.001  0.0612 -0.3016 -0.5724
 1801SOL     OW 7330   1.789   2.697   3.092  0.0087  0.3667 -0.3300
 1801SOL    HW2 7331   1.782   2.710   3.186 -2.7160  2.9377 -0.7764
 1801SOL    HW3 7332   1.815   2.606   3.081 -0.4524 -0.1999  2.8887
 1801SOL    MW4 7333   1.791   2.687   3.103 -0.4116  0.6311  0.0355
 1802SOL     OW 7334   2.009   2.828   2.987  0.1997  0.4736  0.0570
 1802SOL    HW2 7335   1.934   2.786   3.029 -0.6011  1.4969 -0.2929
 1802SOL    HW3 7336   2.011   2.916   3.025  1.4566  0.3198  0.3347
 1802SOL    MW4 7337   1.999   2.834   2.997  0.2599  0.5884  0.0477
 1803SOL     OW 7338   2.028   3.086   3.088 -0.4544  0.1919  0.3237
 1803SOL    HW2 7339   2.012   3.082   3.183  0.8753  0.9270  0.5887
 1803SOL    HW3 7340   1.948   3.125   3.053 -1.4630 -1.2454  0.9923
 1803SOL    MW4 7341   2.015   3.091   3.096 -0.4122  0.0989  0.4473
 1804SOL     OW 7342   1.801   3.198   2.981  0.3636  0.1790 -0.1290
 1804SOL    HW2 7343   1.732   3.140   3.013  0.1189  0.8419  0.5534
 1804SOL    HW3 7344   1.793   3.195   2.886  0.3992 -0.9662 -0.1060
 1804SOL    MW4 7345   1.791   3.190   2.973  0.3359  0.1152 -0.0358
 1805SOL     OW 7346   1.823   3.460   3.136 -0.1831  0.2879 -0.1571
 1805SOL    HW2 7347   1.801   3.374   3.101  0.5073  0.0366  0.0157
 1805SOL    HW3 7348   1.760   3.520   3.096 -0.5461 -0.2705 -0.4165
 1805SOL    MW4 7349   1.812   3.457   3.126 -0.1398  0.1812 -0.1683
 1806SOL     OW 7350   2.033   3.591   3.008 -0.0458 -0.2864  0.0570
 1806SOL    HW2 7351   2.016   3.675   3.050 -0.6976  0.0684 -0.8881
 1806SOL    HW3 7352   1.976   3.529   3.053 -0.0176 -0.0963  0.3521
 1806SOL    MW4 7353   2.023   3.594   3.019 -0.1278 -0.2143 -0.0288
 1807SOL     OW 7354   1.996   3.854   3.109  0.2652  0.4066  0.4547
 1807SOL    HW2 7355   2.011   3.868   3.203 -0.4454 -0.1872  0.6578
 1807SOL    HW3 7356   1.930   3.919   3.085  0.8474  0.9288  0.2371
 1807SOL    MW4 7357   1.989   3.865   3.119  0.2483  0.3972  0.4530
 1808SOL     OW 7358   1.785   4.034   3.017  0.2088 -0.0290 -0.4496
 1808SOL    HW2 7359   1.813   4.122   3.043 -3.0489  0.4374  1.6610
 1808SOL    HW3 7360   1.770   4.042   2.922  1.2608  1.3123 -0.5294
 1808SOL    MW4 7361   1.787   4.047   3.008 -0.0821  0.2093 -0.1817
 1809SOL     OW 7362   1.821   4.283   3.116  0.4779  0.1317  0.4433
 1809SOL    HW2 7363   1.886   4.312   3.052  1.0219  0.5256  1.1690
 1809SOL    HW3 7364   1.737   4.304   3.076  0.7814 -0.4940 -0.5612
 1809SOL    MW4 7365   1.819   4.289   3.102  0.5897  0.1016  0.4065
 1810SOL     OW 7366   2.052   4.379   2.987 -0.0225  0.0977  0.8176
 1810SOL    HW2 7367   2.039   4.473   3.002 -0.1710  0.0556  0.9510
 1810SOL    HW3 7368   2.054   4.371   2.891 -0.9207  0.1193  0.7906
 1810SOL    MW4 7369   2.050   4.390   2.976 -0.1607  0.0954  0.8318
 1811SOL     OW 7370   2.462   4.590   3.108 -0.5446 -0.4787  0.2002
 1811SOL    HW2 7371   2.477   4.507   3.064  0.8599  0.2114 -0.6577
 1811SOL    HW3 7372   2.406   4.640   3.048 -0.3014 -0.3140  0.1072
 1811SOL    MW4 7373   2.457   4.586   3.094 -0.3273 -0.3667  0.0746
 1812SOL     OW 7374   2.273   0.102   2.984  0.1796 -0.2243  0.2428
 1812SOL    HW2 7375   2.286   0.184   3.030 -0.1426 -0.1835  0.2613
 1812SOL    HW3 7376   2.190   0.068   3.017 -0.5473  0.2930 -1.0420
 1812SOL    MW4 7377   2.264   0.108   2.995  0.0412 -0.1507  0.0756
 1813SOL     OW 7378   2.275   0.337   3.121 -0.0861  0.2130  0.3195
 1813SOL    HW2 7379   2.254   0.341   3.214 -0.2317 -2.1614  0.4249
 1813SOL    HW3 7380   2.195   0.366   3.077 -0.1525  0.9506  0.9254
 1813SOL    MW4 7381   2.261   0.341   3.127 -0.1142 -0.0029  0.4132
 1814SOL     OW 7382   2.469   0.490   2.998 -0.3870  0.4080  0.2155
 1814SOL    HW2 7383   2.393   0.436   3.020 -1.6645  1.9556 -0.2827
 1814SOL    HW3 7384   2.486   0.471   2.905  1.2534 -1.5962  0.8792
 1814SOL    MW4 7385   2.461   0.480   2.988 -0.3390  0.3478  0.2372
 1815SOL     OW 7386   2.451   0.765   3.028 -0.0454 -0.0162  0.4451
 1815SOL    HW2 7387   2.537   0.798   3.003  0.2180 -1.4421 -0.5931
 1815SOL    HW3 7388   2.460   0.670   3.027 -1.7528 -0.1925 -0.1200
 1815SOL    MW4 7389   2.463   0.757   3.025 -0.2360 -0.2277  0.2337
 1816SOL     OW 7390   2.221   0.916   3.002 -0.2391 -0.1211 -0.0687
 1816SOL    HW2 7391   2.301   0.867   3.020  0.3060  1.5524  2.2310
 1816SOL    HW3 7392   2.151   0.862   3.038 -0.0553 -1.0806 -1.1260
 1816SOL    MW4 7393   2.222   0.902   3.009 -0.1431 -0.0269  0.0954
 1817SOL     OW 7394   2.280   1.174   3.078 -0.1562 -0.1134  0.3476
 1817SOL    HW2 7395   2.274   1.161   3.173  0.1947 -0.6832  0.2963
 1817SOL    HW3 7396   2.258   1.088   3.041  0.6947 -0.1641 -0.0494
 1817SOL    MW4 7397   2.277   1.161   3.086  0.0026 -0.1954  0.2887
 1818SOL     OW 7398   2.495   1.287   2.950  0.3150 -0.3415 -0.1790
 1818SOL    HW2 7399   2.425   1.235   2.989  1.2090 -1.0128  0.5202
 1818SOL    HW3 7400   2.495   1.369   2.999 -0.2636 -0.1648 -0.4678
 1818SOL    MW4 7401   2.486   1.291   2.961  0.3567 -0.4067 -0.1247
 1819SOL     OW 7402   2.467   1.501   3.134  0.0920 -0.1960 -0.4067
 1819SOL    HW2 7403   2.376   1.525   3.118 -0.4869 -2.1948 -0.3396
 1819SOL    HW3 7404   2.476   1.504   3.230 -0.1198 -0.7134 -0.3696
 1819SOL    MW4 7405   2.456   1.504   3.145 -0.0124 -0.5281 -0.3932
 1820SOL     OW 7406   2.261   1.646   3.009  0.3237 -0.6547  0.0071
 1820SOL    HW2 7407   2.256   1.737   3.039  1.1430 -0.3962 -0.6043
 1820SOL    HW3 7408   2.178   1.607   3.035  1.0139 -0.4530  2.5863
 1820SOL    MW4 7409   2.249   1.653   3.016  0.5231 -0.5940  0.2663
 1821SOL     OW 7410   2.250   1.931   3.105 -0.3644  0.1482  0.2034
 1821SOL    HW2 7411   2.336   1.972   3.097  0.2816 -1.3791 -0.9573
 1821SOL    HW3 7412   2.245   1.904   3.197  0.6873 -0.3567  0.1161
 1821SOL    MW4 7413   2.261   1.933   3.116 -0.1402 -0.1199  0.0389
 1822SOL     OW 7414   2.475   2.056   3.022 -0.3726 -0.3180  0.1734
 1822SOL    HW2 7415   2.554   2.007   3.046 -0.5291 -1.2073 -1.0424
 1822SOL    HW3 7416   2.479   2.062   2.926 -1.5443  0.0395  0.1369
 1822SOL    MW4 7417   2.486   2.050   3.012 -0.5476 -0.3881  0.0083
 1823SOL     OW 7418   2.471   2.310   3.097  0.6975  0.1056  0.0015
 1823SOL    HW2 7419   2.484   2.306   3.192 -0.2542 -0.1338  0.1219
 1823SOL    HW3 7420   2.465   2.218   3.071 -0.4001  0.2131 -0.1075
 1823SOL    MW4 7421   2.472   2.297   3.106  0.4272  0.0882  0.0031
 1824SOL     OW 7422   2.229   2.426   3.004 -0.1507 -0.5093 -0.3720
 1824SOL    HW2 7423   2.237   2.516   3.035 -0.0771 -0.7279  0.2539
 1824SOL    HW3 7424   2.309   2.383   3.035  0.9235 -0.2145 -2.6617
 1824SOL    MW4 7425   2.241   2.432   3.012  0.0010 -0.4992 -0.5913
 1825SOL     OW 7426   2.230   2.706   3.093 -0.0761  0.8044  0.4135
 1825SOL    HW2 7427   2.149   2.748   3.062 -1.2303 -1.2079  0.5802
 1825SOL    HW3 7428   2.226   2.712   3.188 -1.8059 -2.3014  0.6270
 1825SOL    MW4 7429   2.218   2.712   3.101 -0.4566  0.1292  0.4637
 1826SOL     OW 7430   2.466   2.824   2.960 -0.0841  0.4195 -0.2309
 1826SOL    HW2 7431   2.470   2.909   3.003 -0.8598  0.4254 -0.1572
 1826SOL    HW3 7432   2.392   2.779   3.002  2.0989 -1.4169  1.7737
 1826SOL    MW4 7433   2.457   2.829   2.971  0.1016  0.1781  0.0432
 1827SOL     OW 7434   2.467   3.062   3.100  0.5014  0.5778  0.0722
 1827SOL    HW2 7435   2.541   3.114   3.069 -0.3721  1.8306  0.0724
 1827SOL    HW3 7436   2.389   3.108   3.068 -0.2760 -1.1047 -0.5221
 1827SOL    MW4 7437   2.467   3.075   3.092  0.2837  0.5212 -0.0062
 1828SOL     OW 7438   2.263   3.217   2.991  0.3629  0.3696 -0.1477
 1828SOL    HW2 7439   2.252   3.302   3.033  0.6933  0.1859  0.3048
 1828SOL    HW3 7440   2.194   3.162   3.029 -0.4990  0.7176 -1.1800
 1828SOL    MW4 7441   2.252   3.221   3.002  0.2928  0.3915 -0.2241
 1829SOL     OW 7442   2.264   3.482   3.118  0.2459 -0.0786  0.3340
 1829SOL    HW2 7443   2.331   3.545   3.092 -0.2033 -0.2393 -1.2422
 1829SOL    HW3 7444   2.185   3.511   3.073 -0.1319 -1.3739  0.1466
 1829SOL    MW4 7445   2.262   3.494   3.108  0.1369 -0.2706  0.1013
 1830SOL     OW 7446   2.460   3.663   3.008 -0.0956 -0.7253 -0.1870
 1830SOL    HW2 7447   2.539   3.624   3.045  0.2918  0.0516 -0.1958
 1830SOL    HW3 7448   2.463   3.755   3.035 -0.4762 -0.4521 -1.0396
 1830SOL    MW4 7449   2.470   3.670   3.016 -0.0947 -0.5867 -0.3004
 1831SOL     OW 7450   2.458   3.907   3.119 -0.7915  0.1645  0.6741
 1831SOL    HW2 7451   2.455   3.858   3.201 -0.7375  0.0938  0.6349
 1831SOL    HW3 7452   2.551   3.929   3.108 -0.9727  1.2515  1.2547
 1831SOL    MW4 7453   2.470   3.903   3.128 -0.8085  0.2985  0.7453
 1832SOL     OW 7454   2.240   3.985   2.972 -0.2829  0.6878 -0.0928
 1832SOL    HW2 7455   2.309   3.961   3.034 -0.0258  0.2509 -0.5451
 1832SOL    HW3 7456   2.160   3.947   3.007  0.1837 -1.1882 -1.0124
 1832SOL    MW4 7457   2.239   3.977   2.984 -0.1874  0.3829 -0.2737
 1833SOL     OW 7458   2.279   4.250   3.104  0.6637 -0.1446  0.5658
 1833SOL    HW2 7459   2.251   4.163   3.076  1.0831 -0.0175 -0.2635
 1833SOL    HW3 7460   2.206   4.307   3.079 -0.0768 -0.4109  2.0869
 1833SOL    MW4 7461   2.265   4.246   3.097  0.6211 -0.1631  0.6571
 1834SOL     OW 7462   2.516   4.342   3.004  0.1882  0.1024 -0.2699
 1834SOL    HW2 7463   2.450   4.282   3.039  2.4617 -2.3271  0.0447
 1834SOL    HW3 7464   2.487   4.361   2.915 -0.8939 -1.0043 -0.1676
 1834SOL    MW4 7465   2.504   4.337   2.997  0.3452 -0.3643 -0.2148
 1835SOL     OW 7466   2.940   4.633   3.123  0.1319 -0.1534 -0.1101
 1835SOL    HW2 7467   3.016   4.682   3.090  0.5477 -0.6019  0.1713
 1835SOL    HW3 7468   2.954   4.544   3.091  1.2212 -0.9025  2.3743
 1835SOL    MW4 7469   2.952   4.628   3.114  0.3304 -0.3114  0.2546
 1836SOL     OW 7470   2.708   0.082   3.048 -0.1517  0.0372 -0.4103
 1836SOL    HW2 7471   2.791   0.042   3.071  0.4649  0.4891 -1.8039
 1836SOL    HW3 7472   2.644   0.040   3.105  0.9264 -0.8263  0.1639
 1836SOL    MW4 7473   2.710   0.071   3.058  0.0718 -0.0171 -0.5183
 1837SOL     OW 7474   2.714   0.356   3.102  0.1690 -0.1544  0.1282
 1837SOL    HW2 7475   2.707   0.265   3.076 -0.6832  0.2596 -1.1421
 1837SOL    HW3 7476   2.629   0.394   3.083 -0.3847  0.2974  3.2139
 1837SOL    MW4 7477   2.702   0.349   3.096 -0.0165 -0.0402  0.3674
 1838SOL     OW 7478   2.940   0.494   3.009  0.3969 -0.1632  0.5832
 1838SOL    HW2 7479   2.851   0.459   3.021  0.7802 -1.2535  0.3336
 1838SOL    HW3 7480   2.946   0.514   2.916  0.3064  0.1943  0.6561
 1838SOL    MW4 7481   2.929   0.492   2.999  0.4356 -0.2599  0.5600
 1839SOL     OW 7482   2.930   0.768   3.092  0.1971  0.1520 -0.3572
 1839SOL    HW2 7483   2.915   0.764   3.186 -2.3382  1.8405 -0.6359
 1839SOL    HW3 7484   2.917   0.678   3.061  2.3085 -0.6740  1.0196
 1839SOL    MW4 7485   2.926   0.756   3.100  0.1411  0.2658 -0.2124
 1840SOL     OW 7486   2.695   0.893   2.976 -0.4071  0.0204 -0.4952
 1840SOL    HW2 7487   2.689   0.984   3.007  0.2568  0.4771 -1.6445
 1840SOL    HW3 7488   2.773   0.859   3.020 -0.2367  0.2406 -0.6214
 1840SOL    MW4 7489   2.705   0.901   2.986 -0.2971  0.1097 -0.6633
 1841SOL     OW 7490   2.678   1.148   3.093 -0.6181  0.1167 -0.4632
 1841SOL    HW2 7491   2.760   1.195   3.073 -0.5559 -0.2213 -1.0065
 1841SOL    HW3 7492   2.612   1.193   3.040 -0.5843 -0.3084 -0.8742
 1841SOL    MW4 7493   2.680   1.161   3.083 -0.6056  0.0160 -0.5889
 1842SOL     OW 7494   2.912   1.284   3.022  0.3658  0.2244 -0.1382
 1842SOL    HW2 7495   2.994   1.246   3.053  0.2470  0.6175  0.6718
 1842SOL    HW3 7496   2.909   1.371   3.062 -0.5108  0.1616 -0.0521
 1842SOL    MW4 7497   2.922   1.291   3.031  0.2344  0.2679 -0.0203
 1843SOL     OW 7498   2.924   1.532   3.129  0.5778  0.1968  0.6221
 1843SOL    HW2 7499   2.925   1.530   3.225 -0.4778  0.3560  0.6407
 1843SOL    HW3 7500   3.009   1.568   3.105  1.2385 -0.7727  1.4748
 1843SOL    MW4 7501   2.935   1.536   3.139  0.5257  0.0898  0.7370
 1844SOL     OW 7502   2.673   1.655   3.018 -0.3612 -0.2373  0.2972
 1844SOL    HW2 7503   2.755   1.630   3.061 -1.1458 -1.5510  1.0760
 1844SOL    HW3 7504   2.605   1.610   3.069 -1.6599  1.7299  0.3580
 1844SOL    MW4 7505   2.675   1.646   3.031 -0.6356 -0.1510  0.4079
 1845SOL     OW 7506   2.698   1.911   3.123 -0.2048 -0.1431 -0.3396
 1845SOL    HW2 7507   2.767   1.945   3.066 -0.0397  0.4811  0.2301
 1845SOL    HW3 7508   2.681   1.822   3.090 -0.5757  0.4425 -1.7825
 1845SOL    MW4 7509   2.705   1.904   3.111 -0.2320  0.0166 -0.4549
 1846SOL     OW 7510   2.938   2.011   3.042  0.4539  0.7301  0.3346
 1846SOL    HW2 7511   2.940   2.098   3.083  0.1160  0.6278  0.5644
 1846SOL    HW3 7512   2.946   2.029   2.948 -0.9844  1.0937  0.2700
 1846SOL    MW4 7513   2.940   2.025   3.035  0.2193  0.7644  0.3567
 1847SOL     OW 7514   2.925   2.290   3.102 -0.3712  0.1637  0.6106
 1847SOL    HW2 7515   2.988   2.358   3.078 -0.4698  0.2021  0.4600
 1847SOL    HW3 7516   2.841   2.322   3.070 -0.7542  0.8954  2.3137
 1847SOL    MW4 7517   2.922   2.303   3.095 -0.4346  0.2651  0.8156
 1848SOL     OW 7518   2.694   2.429   2.992 -0.6638  0.5215 -0.0549
 1848SOL    HW2 7519   2.690   2.522   3.014 -0.9867  0.0885  1.8076
 1848SOL    HW3 7520   2.615   2.392   3.031  0.1277 -0.7503  0.3601
 1848SOL    MW4 7521   2.683   2.437   3.000 -0.6018  0.2966  0.2456
 1849SOL     OW 7522   2.678   2.688   3.090  0.4009 -0.3438 -0.2507
 1849SOL    HW2 7523   2.679   2.679   3.186  0.5280 -2.4395 -0.4324
 1849SOL    HW3 7524   2.593   2.729   3.071  0.2559 -0.1688  0.7316
 1849SOL    MW4 7525   2.667   2.692   3.100  0.3986 -0.5972 -0.1452
 1850SOL     OW 7526   2.880   2.859   3.017 -0.4484  0.0281  0.2301
 1850SOL    HW2 7527   2.956   2.804   3.040 -0.2648 -0.1217 -0.7031
 1850SOL    HW3 7528   2.804   2.808   3.046 -0.1613  0.6368  2.1060
 1850SOL    MW4 7529   2.880   2.845   3.024 -0.3862  0.0887  0.3545
 1851SOL     OW 7530   2.905   3.140   3.082  0.0412  0.3999 -0.1820
 1851SOL    HW2 7531   2.827   3.190   3.058  0.3760  0.3039 -1.5039
 1851SOL    HW3 7532   2.886   3.051   3.054  0.1051  0.0988  0.6989
 1851SOL    MW4 7533   2.892   3.135   3.075  0.0937  0.3474 -0.2401
 1852SOL     OW 7534   2.651   3.250   3.019  0.1029  0.0769 -0.3058
 1852SOL    HW2 7535   2.664   3.339   3.053 -0.7388  0.1586 -0.1942
 1852SOL    HW3 7536   2.637   3.262   2.925 -1.4933  0.1909 -0.0532
 1852SOL    MW4 7537   2.651   3.263   3.011 -0.2186  0.1028 -0.2580
 1853SOL     OW 7538   2.697   3.522   3.096  0.0711  0.0444 -0.2061
 1853SOL    HW2 7539   2.717   3.537   3.188 -0.8444 -0.7488  0.1348
 1853SOL    HW3 7540   2.781   3.531   3.051  0.9084 -1.5486  0.9727
 1853SOL    MW4 7541   2.711   3.525   3.102  0.0606 -0.2706 -0.0052
 1854SOL     OW 7542   2.957   3.569   2.992  0.4258  0.0965  0.2127
 1854SOL    HW2 7543   3.033   3.522   3.027  0.0000 -0.6224  0.1712
 1854SOL    HW3 7544   2.963   3.656   3.033  1.0153 -0.0996  0.5601
 1854SOL    MW4 7545   2.968   3.575   3.002  0.4478 -0.0243  0.2530
 1855SOL     OW 7546   2.946   3.833   3.106 -0.0874  0.0181 -0.2991
 1855SOL    HW2 7547   2.966   3.842   3.199  0.7928 -0.6485 -0.4206
 1855SOL    HW3 7548   2.862   3.878   3.096 -2.0499 -3.0804  1.5301
 1855SOL    MW4 7549   2.937   3.840   3.117 -0.2303 -0.4787 -0.0737
 1856SOL     OW 7550   2.709   3.962   3.036 -0.4034  0.5171 -0.3152
 1856SOL    HW2 7551   2.707   4.055   3.056 -0.2908  0.4910 -0.1808
 1856SOL    HW3 7552   2.683   3.956   2.944  0.9783  0.7870 -0.7295
 1856SOL    MW4 7553   2.705   3.973   3.026 -0.2062  0.5496 -0.3521
 1857SOL     OW 7554   2.760   4.237   3.133 -0.2214 -0.2028 -0.2018
 1857SOL    HW2 7555   2.745   4.238   3.228 -0.8335 -0.4166 -0.2926
 1857SOL    HW3 7556   2.694   4.297   3.098  0.4181  0.3731 -0.4396
 1857SOL    MW4 7557   2.749   4.245   3.141 -0.2179 -0.1550 -0.2451
 1858SOL     OW 7558   2.963   4.385   3.002  0.0038  0.1562  0.4624
 1858SOL    HW2 7559   3.044   4.340   3.027 -0.2302 -0.5108  0.0597
 1858SOL    HW3 7560   2.896   4.344   3.056  0.2435  2.2503  2.4254
 1858SOL    MW4 7561   2.965   4.373   3.012  0.0045  0.3438  0.6685
 1859SOL     OW 7562   3.348   4.642   3.111  0.1332  0.5246  0.0810
 1859SOL    HW2 7563   3.429   4.693   3.102  0.8207 -0.6807 -0.8377
 1859SOL    HW3 7564   3.361   4.567   3.053 -0.7005 -0.8888  1.6782
 1859SOL    MW4 7565   3.361   4.638   3.102  0.1137  0.1793  0.1707
 1860SOL     OW 7566   3.135   0.106   3.011  0.0958 -0.3640 -0.3861
 1860SOL    HW2 7567   3.144   0.195   3.045 -0.1534 -0.5438  0.1749
 1860SOL    HW3 7568   3.213   0.060   3.043 -0.4353 -0.6898  0.4572
 1860SOL    MW4 7569   3.147   0.112   3.020 -0.0072 -0.4307 -0.2010
 1861SOL     OW 7570   3.149   0.353   3.125 -0.2886 -0.1695 -0.5954
 1861SOL    HW2 7571   3.222   0.408   3.095 -0.9507  0.6183 -0.7928
 1861SOL    HW3 7572   3.070   0.399   3.096 -0.9278  0.0409  1.3457
 1861SOL    MW4 7573   3.148   0.367   3.117 -0.4599 -0.0378 -0.3653
 1862SOL     OW 7574   3.371   0.515   3.068  0.0771  0.2110 -0.4058
 1862SOL    HW2 7575   3.452   0.464   3.077 -0.5124 -0.7113 -0.2655
 1862SOL    HW3 7576   3.364   0.532   2.974 -0.8501 -1.8450 -0.7305
 1862SOL    MW4 7577   3.381   0.511   3.057 -0.1233 -0.1819 -0.4301
 1863SOL     OW 7578   3.405   0.767   3.136 -0.2936 -0.0478  0.1585
 1863SOL    HW2 7579   3.392   0.767   3.230 -0.6258 -1.5173  0.1205
 1863SOL    HW3 7580   3.398   0.675   3.110  1.8901  0.0891 -1.0166
 1863SOL    MW4 7581   3.402   0.755   3.145 -0.0494 -0.2236 -0.0014
 1864SOL     OW 7582   3.172   0.871   3.007 -0.4664 -0.0464  0.1483
 1864SOL    HW2 7583   3.253   0.847   3.051 -0.0048 -0.8927 -1.1446
 1864SOL    HW3 7584   3.105   0.813   3.045 -0.1141 -0.6349 -0.1365
 1864SOL    MW4 7585   3.174   0.861   3.018 -0.3591 -0.2356 -0.0598
 1865SOL     OW 7586   3.147   1.159   3.103  0.0106  0.4000  1.1071
 1865SOL    HW2 7587   3.204   1.217   3.053 -0.9122  0.1409 -0.2872
 1865SOL    HW3 7588   3.156   1.074   3.060 -0.7596  0.1606  1.4119
 1865SOL    MW4 7589   3.155   1.155   3.091 -0.2127  0.3343  0.9634
 1866SOL     OW 7590   3.376   1.302   3.017 -0.0127  0.0899  0.2951
 1866SOL    HW2 7591   3.455   1.252   3.036 -0.3835 -0.3354  0.6890
 1866SOL    HW3 7592   3.394   1.389   3.053  0.5211  0.1724 -0.1584
 1866SOL    MW4 7593   3.389   1.307   3.024  0.0091  0.0447  0.2873
 1867SOL     OW 7594   3.396   1.547   3.110  0.1044 -0.0168  0.6369
 1867SOL    HW2 7595   3.385   1.554   3.205  1.3675  0.5359  0.7615
 1867SOL    HW3 7596   3.483   1.584   3.094 -0.4029  0.5527 -0.8252
 1867SOL    MW4 7597   3.406   1.553   3.120  0.2041  0.1312  0.4604
 1868SOL     OW 7598   3.165   1.633   3.010 -0.2815  0.2382 -0.0262
 1868SOL    HW2 7599   3.245   1.592   3.041  1.2221  2.7291 -0.4956
 1868SOL    HW3 7600   3.170   1.628   2.914 -1.5712 -1.1931 -0.0420
 1868SOL    MW4 7601   3.176   1.627   3.001 -0.2534  0.3780 -0.0904
 1869SOL     OW 7602   3.195   1.903   3.104 -0.0639 -0.2073 -0.6931
 1869SOL    HW2 7603   3.193   1.815   3.065  0.7459 -0.4175 -0.2698
 1869SOL    HW3 7604   3.107   1.938   3.088 -0.4977 -1.2253 -0.5697
 1869SOL    MW4 7605   3.183   1.896   3.097 -0.0143 -0.3694 -0.6208
 1870SOL     OW 7606   3.408   2.055   3.023 -0.2641 -0.0089  0.5024
 1870SOL    HW2 7607   3.489   2.020   3.061  0.1792 -0.6519 -1.0153
 1870SOL    HW3 7608   3.341   1.993   3.050 -0.1141  0.0817  1.0871
 1870SOL    MW4 7609   3.410   2.042   3.032 -0.1857 -0.0818  0.3793
 1871SOL     OW 7610   3.347   2.312   3.083 -0.0585  0.4495 -0.1849
 1871SOL    HW2 7611   3.360   2.322   3.178 -0.1981 -1.5807  0.0733
 1871SOL    HW3 7612   3.348   2.218   3.069 -0.6837  0.7183 -2.1343
 1871SOL    MW4 7613   3.349   2.301   3.094 -0.1595  0.2172 -0.4079
 1872SOL     OW 7614   3.143   2.463   2.982  0.2793  0.0079 -0.1717
 1872SOL    HW2 7615   3.223   2.429   3.022 -0.1789  1.1492  1.7717
 1872SOL    HW3 7616   3.145   2.430   2.892  1.4322 -2.4833  0.7151
 1872SOL    MW4 7617   3.154   2.454   2.976  0.3710 -0.1702  0.2019
 1873SOL     OW 7618   3.136   2.726   3.065  0.0415  0.3384  0.2233
 1873SOL    HW2 7619   3.130   2.717   3.160  0.6576  0.4055  0.2686
 1873SOL    HW3 7620   3.142   2.636   3.033  1.2119  0.3657  0.3437
 1873SOL    MW4 7621   3.136   2.713   3.074  0.2770  0.3510  0.2451
 1874SOL     OW 7622   3.377   2.844   2.952  0.2138  0.5911  0.2546
 1874SOL    HW2 7623   3.395   2.931   2.988  0.2477  0.1238  1.3949
 1874SOL    HW3 7624   3.296   2.817   2.996 -0.3285  0.4396 -0.8127
 1874SOL    MW4 7625   3.368   2.852   2.963  0.1466  0.5093  0.2642
 1875SOL     OW 7626   3.426   3.077   3.087 -0.0229 -0.2921 -0.2005
 1875SOL    HW2 7627   3.414   3.074   3.182  2.0832  0.1226  0.0993
 1875SOL    HW3 7628   3.349   3.123   3.055 -0.6684 -0.2713  1.3257
 1875SOL    MW4 7629   3.415   3.083   3.095  0.1700 -0.2346  0.0405
 1876SOL     OW 7630   3.162   3.181   2.984  0.2815  0.2808 -0.5686
 1876SOL    HW2 7631   3.073   3.165   3.017  0.1510 -0.6108 -1.3373
 1876SOL    HW3 7632   3.148   3.215   2.895  0.7155 -0.1334 -0.7964
 1876SOL    MW4 7633   3.148   3.184   2.976  0.3219  0.1082 -0.7000
 1877SOL     OW 7634   3.170   3.423   3.103  0.3432  0.0602  0.3753
 1877SOL    HW2 7635   3.240   3.479   3.069  0.4557 -0.3280 -0.0502
 1877SOL    HW3 7636   3.176   3.343   3.050 -0.7361  0.2094  0.0052
 1877SOL    MW4 7637   3.180   3.420   3.091  0.2158  0.0286  0.2704
 1878SOL     OW 7638   3.376   3.588   3.022  0.0626 -0.1349 -0.3123
 1878SOL    HW2 7639   3.445   3.544   3.073 -1.0333 -2.1992 -0.5448
 1878SOL    HW3 7640   3.370   3.675   3.061  1.1003 -0.7698  1.3611
 1878SOL    MW4 7641   3.384   3.593   3.034  0.0546 -0.4907 -0.1221
 1879SOL     OW 7642   3.397   3.840   3.143 -0.0515  0.1390  0.1503
 1879SOL    HW2 7643   3.389   3.844   3.238 -0.9424 -1.5093  0.1638
 1879SOL    HW3 7644   3.322   3.889   3.110 -0.3328 -0.1828  0.3053
 1879SOL    MW4 7645   3.386   3.847   3.151 -0.2062 -0.1209  0.1726
 1880SOL     OW 7646   3.194   3.966   3.012  0.0868 -0.4834 -0.0658
 1880SOL    HW2 7647   3.115   3.917   3.036  0.1417 -0.2538  0.5815
 1880SOL    HW3 7648   3.182   3.985   2.919 -0.6509 -0.4069  0.0368
 1880SOL    MW4 7649   3.182   3.962   3.003 -0.0036 -0.4432  0.0331
 1881SOL     OW 7650   3.175   4.232   3.104 -0.1114 -0.1171  0.0977
 1881SOL    HW2 7651   3.157   4.228   3.198  0.7378  0.8207  0.3136
 1881SOL    HW3 7652   3.176   4.141   3.076  0.5633 -0.4632  1.2007
 1881SOL    MW4 7653   3.173   4.219   3.113  0.0894 -0.0386  0.2716
 1882SOL     OW 7654   3.388   4.388   2.988  0.2870 -0.0239 -0.1344
 1882SOL    HW2 7655   3.463   4.346   3.029  0.0019 -0.7518 -0.3459
 1882SOL    HW3 7656   3.312   4.342   3.023  0.0031 -0.1597 -0.9058
 1882SOL    MW4 7657   3.388   4.376   2.998  0.2117 -0.1378 -0.2642
 1883SOL     OW 7658   3.810   0.003   3.121  0.0216  0.0076  0.0095
 1883SOL    HW2 7659   3.813  -0.088   3.092 -0.5266  0.2192 -0.7251
 1883SOL    HW3 7660   3.720   0.031   3.102  0.4178  0.9445 -0.4984
 1883SOL    MW4 7661   3.798  -0.006   3.115  0.0012  0.1593 -0.1547
 1884SOL     OW 7662   3.578   0.112   3.028  0.8433 -0.1342  0.3275
 1884SOL    HW2 7663   3.592   0.203   3.051 -0.5767  0.3345 -0.5520
 1884SOL    HW3 7664   3.578   0.111   2.932  1.7899 -1.2181  0.3306
 1884SOL    MW4 7665   3.580   0.124   3.018  0.7808 -0.2153  0.2120
 1885SOL     OW 7666   3.594   0.368   3.117 -0.1042  0.1873 -0.3101
 1885SOL    HW2 7667   3.625   0.359   3.207  0.9363 -0.2903 -0.7011
 1885SOL    HW3 7668   3.663   0.418   3.073  0.3863 -1.3460 -1.3303
 1885SOL    MW4 7669   3.608   0.374   3.123  0.0980 -0.0780 -0.4961
 1886SOL     OW 7670   3.840   0.489   3.036 -0.0352 -0.0568  0.6642
 1886SOL    HW2 7671   3.916   0.478   3.093  0.6484  0.7986 -0.0622
 1886SOL    HW3 7672   3.811   0.580   3.052  1.2440  0.7790 -1.6395
 1886SOL    MW4 7673   3.846   0.500   3.046  0.2236  0.1664  0.2644
 1887SOL     OW 7674   3.792   0.749   3.127  0.4168  0.0259  0.1924
 1887SOL    HW2 7675   3.801   0.746   3.222 -0.7145 -0.6797  0.2971
 1887SOL    HW3 7676   3.876   0.780   3.095  0.7110  0.5293  1.4444
 1887SOL    MW4 7677   3.804   0.752   3.135  0.3064 -0.0008  0.3715
 1888SOL     OW 7678   3.593   0.899   3.011  0.7842  0.0150  0.4819
 1888SOL    HW2 7679   3.666   0.873   3.067  0.6752  0.2129  0.7194
 1888SOL    HW3 7680   3.518   0.848   3.044  0.7349  0.0817  0.4750
 1888SOL    MW4 7681   3.592   0.889   3.023  0.7632  0.0499  0.5126
 1889SOL     OW 7682   3.592   1.173   3.113 -0.0634  0.2531 -0.5399
 1889SOL    HW2 7683   3.682   1.199   3.092  0.0613 -0.1782 -0.5463
 1889SOL    HW3 7684   3.585   1.084   3.079 -0.6285  0.4428 -0.9199
 1889SOL    MW4 7685   3.603   1.165   3.106 -0.1216  0.2213 -0.5910
 1890SOL     OW 7686   3.847   1.265   3.031 -0.0441 -0.4828 -0.2948
 1890SOL    HW2 7687   3.854   1.359   3.051 -1.4984 -0.7688  1.6584
 1890SOL    HW3 7688   3.822   1.263   2.939  1.4559  0.9958 -0.7763
 1890SOL    MW4 7689   3.845   1.277   3.021 -0.0381 -0.3256 -0.1006
 1891SOL     OW 7690   3.836   1.527   3.100 -0.2247 -0.6009  0.0579
 1891SOL    HW2 7691   3.827   1.550   3.192  1.8638 -1.8458  0.5879
 1891SOL    HW3 7692   3.918   1.567   3.072 -0.0586 -1.5286 -0.8456
 1891SOL    MW4 7693   3.845   1.535   3.108  0.0730 -0.8876  0.0088
 1892SOL     OW 7694   3.623   1.667   3.019  0.3034  0.0170  0.1540
 1892SOL    HW2 7695   3.638   1.748   3.068 -0.5822  0.6284 -0.5459
 1892SOL    HW3 7696   3.694   1.609   3.045  1.2439  1.2028  0.3025
 1892SOL    MW4 7697   3.634   1.670   3.029  0.3107  0.2540  0.0811
 1893SOL     OW 7698   3.642   1.915   3.131  0.0747  0.0199  0.2447
 1893SOL    HW2 7699   3.625   1.906   3.225 -1.1445  0.5306  0.0842
 1893SOL    HW3 7700   3.724   1.964   3.127 -1.0906  2.1429  1.0650
 1893SOL    MW4 7701   3.651   1.920   3.143 -0.2398  0.3675  0.3319
 1894SOL     OW 7702   3.874   2.038   3.030  0.0167  0.0037  0.0082
 1894SOL    HW2 7703   3.858   2.133   3.035 -0.1673 -0.0661  0.9453
 1894SOL    HW3 7704   3.841   2.012   2.944 -0.2153  0.7413 -0.1295
 1894SOL    MW4 7705   3.867   2.047   3.019 -0.0381  0.0916  0.1137
 1895SOL     OW 7706   3.824   2.298   3.085 -0.0519 -0.1084  0.4799
 1895SOL    HW2 7707   3.815   2.295   3.180 -0.8612 -0.5492  0.3858
 1895SOL    HW3 7708   3.753   2.354   3.055 -0.5300 -0.9485  0.0287
 1895SOL    MW4 7709   3.814   2.305   3.094 -0.2220 -0.2775  0.4079
 1896SOL     OW 7710   3.598   2.433   2.971  0.3192  0.0625  0.7854
 1896SOL    HW2 7711   3.583   2.521   3.007  0.2259  0.7555 -0.9093
 1896SOL    HW3 7712   3.521   2.382   2.997  0.0527  0.6723  1.1926
 1896SOL    MW4 7713   3.586   2.438   2.979  0.2720  0.2341  0.6154
 1897SOL     OW 7714   3.558   2.696   3.095  0.2348  0.2599  0.2000
 1897SOL    HW2 7715   3.635   2.744   3.066  0.2148 -0.8015 -1.6441
 1897SOL    HW3 7716   3.484   2.736   3.049  0.0143 -0.4270 -0.0603
 1897SOL    MW4 7717   3.558   2.707   3.085  0.2031  0.0293 -0.0777
 1898SOL     OW 7718   3.769   2.864   3.006  0.0293  0.3287  0.4955
 1898SOL    HW2 7719   3.782   2.954   3.033 -1.0895  0.6621 -0.0666
 1898SOL    HW3 7720   3.799   2.861   2.915  0.7909 -0.0470  0.7562
 1898SOL    MW4 7721   3.775   2.875   2.997 -0.0179  0.3231  0.4561
 1899SOL     OW 7722   3.855   3.113   3.108 -0.1067  0.3857  0.2321
 1899SOL    HW2 7723   3.933   3.154   3.071 -0.9361  0.6178 -1.2769
 1899SOL    HW3 7724   3.783   3.173   3.086 -0.7880 -0.0621  1.1895
 1899SOL    MW4 7725   3.856   3.127   3.100 -0.3057  0.3574  0.1593
 1900SOL     OW 7726   3.634   3.244   3.031 -0.0310  0.0068  0.0778
 1900SOL    HW2 7727   3.560   3.190   3.055 -0.1086 -0.1567 -0.5114
 1900SOL    HW3 7728   3.615   3.273   2.941  0.9514 -0.6277 -0.3435
 1900SOL    MW4 7729   3.622   3.241   3.022  0.0882 -0.0982 -0.0556
 1901SOL     OW 7730   3.606   3.475   3.159 -0.1959 -0.1767 -0.1544
 1901SOL    HW2 7731   3.663   3.536   3.112 -0.7532 -0.5381 -1.3296
 1901SOL    HW3 7732   3.620   3.391   3.116 -0.7630 -0.5007  0.2835
 1901SOL    MW4 7733   3.615   3.472   3.147 -0.3443 -0.2673 -0.2520
 1902SOL     OW 7734   3.773   3.644   3.007  0.3747  0.1689  0.2220
 1902SOL    HW2 7735   3.790   3.728   3.051  2.0089 -0.5490  0.9840
 1902SOL    HW3 7736   3.804   3.656   2.918  0.6484  0.3666  0.3440
 1902SOL    MW4 7737   3.779   3.657   3.001  0.6263  0.1001  0.3388
 1903SOL     OW 7738   3.849   3.896   3.119 -0.1987 -0.0063 -0.1383
 1903SOL    HW2 7739   3.833   3.860   3.206 -1.0903  0.0354 -0.2855
 1903SOL    HW3 7740   3.766   3.935   3.093  0.0944  0.0761 -0.9678
 1903SOL    MW4 7741   3.836   3.897   3.127 -0.2775  0.0098 -0.2673
 1904SOL     OW 7742   3.606   3.996   3.048  0.0510 -0.1054 -0.0212
 1904SOL    HW2 7743   3.530   3.948   3.081  0.8805 -0.9596  0.6841
 1904SOL    HW3 7744   3.604   3.982   2.953  0.7557 -2.2791  0.2529
 1904SOL    MW4 7745   3.596   3.988   3.039  0.2534 -0.5047  0.1078
 1905SOL     OW 7746   3.603   4.265   3.100  0.1443 -0.1543  0.0277
 1905SOL    HW2 7747   3.691   4.302   3.098  0.8173 -1.7019  0.0599
 1905SOL    HW3 7748   3.615   4.175   3.068 -1.1760 -0.8521  1.4443
 1905SOL    MW4 7749   3.616   4.258   3.095  0.0589 -0.4506  0.2186
 1906SOL     OW 7750   3.841   4.413   3.022 -0.0027  0.3885 -0.2095
 1906SOL    HW2 7751   3.925   4.370   3.038 -0.0689  0.6643  0.8830
 1906SOL    HW3 7752   3.826   4.401   2.928  0.7509 -0.5785 -0.2185
 1906SOL    MW4 7753   3.850   4.406   3.011  0.0880  0.2975 -0.0665
 1907SOL     OW 7754   4.259   4.641   3.091 -0.2074  0.2403  0.4098
 1907SOL    HW2 7755   4.271   4.636   3.186 -0.0608  1.0621  0.4418
 1907SOL    HW3 7756   4.276   4.552   3.060 -1.8996 -0.4244  1.3225
 1907SOL    MW4 7757   4.263   4.629   3.100 -0.4120  0.2613  0.5345
 1908SOL     OW 7758   4.044   0.130   3.007 -0.0351 -0.0207  0.1636
 1908SOL    HW2 7759   4.116   0.076   3.039 -1.3020 -1.6440  0.4059
 1908SOL    HW3 7760   3.967   0.095   3.052 -1.0851  1.1194 -0.7151
 1908SOL    MW4 7761   4.043   0.118   3.017 -0.3400 -0.0844  0.0794
 1909SOL     OW 7762   4.080   0.370   3.126 -0.7099  0.5077  0.2208
 1909SOL    HW2 7763   4.165   0.405   3.099 -0.4783  0.6103  1.0823
 1909SOL    HW3 7764   4.068   0.291   3.073  0.4247 -0.1299  0.9155
 1909SOL    MW4 7765   4.089   0.365   3.115 -0.5298  0.4371  0.4263
 1910SOL     OW 7766   4.295   0.499   3.063 -0.3515 -0.1359  0.4991
 1910SOL    HW2 7767   4.257   0.584   3.084  0.9818  0.5692  0.1520
 1910SOL    HW3 7768   4.316   0.504   2.970 -0.2992 -0.8571  0.4662
 1910SOL    MW4 7769   4.293   0.510   3.053 -0.1688 -0.1380  0.4489
 1911SOL     OW 7770   4.256   0.765   3.158 -0.1775  0.1237 -0.4573
 1911SOL    HW2 7771   4.176   0.802   3.120 -0.3930  1.5812  1.3425
 1911SOL    HW3 7772   4.327   0.817   3.121 -0.2030 -0.0126 -0.6961
 1911SOL    MW4 7773   4.254   0.777   3.148 -0.2093  0.2981 -0.2513
 1912SOL     OW 7774   4.028   0.882   3.012 -0.2786 -0.0101  0.0670
 1912SOL    HW2 7775   4.038   0.968   3.053 -1.1288  0.3373 -0.4334
 1912SOL    HW3 7776   4.028   0.901   2.918 -1.6008 -0.4282 -0.0216
 1912SOL    MW4 7777   4.030   0.896   3.005 -0.5651 -0.0194 -0.0107
 1913SOL     OW 7778   4.051   1.129   3.141  0.2302  0.6390  0.4338
 1913SOL    HW2 7779   4.029   1.130   3.235  0.4540  0.3341  0.4902
 1913SOL    HW3 7780   3.976   1.171   3.099 -0.2781 -0.0273  0.6679
 1913SOL    MW4 7781   4.038   1.135   3.148  0.1931  0.5107  0.4723
 1914SOL     OW 7782   4.283   1.286   3.039  0.1741  0.2204  0.2531
 1914SOL    HW2 7783   4.359   1.236   3.069  0.1252  0.0223  0.0453
 1914SOL    HW3 7784   4.208   1.241   3.078  0.0411 -0.5867 -0.9114
 1914SOL    MW4 7785   4.283   1.274   3.048  0.1502  0.0879  0.0722
 1915SOL     OW 7786   4.292   1.574   3.088 -0.1666 -0.1675  0.2079
 1915SOL    HW2 7787   4.373   1.606   3.047  0.3123 -0.8482  0.6016
 1915SOL    HW3 7788   4.288   1.482   3.063 -0.4112 -0.3278  0.8282
 1915SOL    MW4 7789   4.302   1.566   3.079 -0.1354 -0.2782  0.3414
 1916SOL     OW 7790   4.050   1.662   3.023  0.0588 -0.5618  0.2559
 1916SOL    HW2 7791   4.035   1.747   3.065 -0.0136 -0.6421  0.3890
 1916SOL    HW3 7792   4.141   1.640   3.046  0.6743  0.3155 -1.2265
 1916SOL    MW4 7793   4.060   1.671   3.031  0.1307 -0.4566  0.0777
 1917SOL     OW 7794   4.093   1.922   3.120  0.0322  0.7882 -0.2274
 1917SOL    HW2 7795   4.163   1.980   3.091  1.5340 -1.3246 -0.9137
 1917SOL    HW3 7796   4.013   1.967   3.093  1.2218  1.8012 -2.1996
 1917SOL    MW4 7797   4.091   1.936   3.112  0.3867  0.6431 -0.5784
 1918SOL     OW 7798   4.293   2.095   3.004  0.2148 -0.3415  0.2119
 1918SOL    HW2 7799   4.297   2.184   3.039  1.9754 -0.2877 -0.1146
 1918SOL    HW3 7800   4.312   2.105   2.911 -0.7813 -0.9374 -0.0705
 1918SOL    MW4 7801   4.296   2.108   2.997  0.3161 -0.4132  0.1314
 1919SOL     OW 7802   4.313   2.356   3.107 -0.3405 -0.3514 -0.0018
 1919SOL    HW2 7803   4.237   2.397   3.068 -0.3170 -0.1078  0.2060
 1919SOL    HW3 7804   4.388   2.392   3.059 -0.3629 -0.7310 -0.3306
 1919SOL    MW4 7805   4.313   2.366   3.096 -0.3400 -0.3693 -0.0176
 1920SOL     OW 7806   4.059   2.452   3.006  0.7601  0.2767 -0.3976
 1920SOL    HW2 7807   4.039   2.544   3.023  1.4880  0.4078 -0.2324
 1920SOL    HW3 7808   3.987   2.404   3.048  0.5349  0.7546 -0.2259
 1920SOL    MW4 7809   4.047   2.458   3.014  0.8264  0.3572 -0.3533
 1921SOL     OW 7810   4.025   2.740   3.107  0.3046 -0.6893 -0.0391
 1921SOL    HW2 7811   4.027   2.744   3.203  1.5077  0.7946 -0.1096
 1921SOL    HW3 7812   3.942   2.781   3.083  0.1657 -0.7425  0.3384
 1921SOL    MW4 7813   4.014   2.746   3.117  0.4444 -0.5002  0.0014
 1922SOL     OW 7814   4.278   2.807   3.008  0.2620 -0.1286  0.3725
 1922SOL    HW2 7815   4.230   2.747   3.065  0.6500  0.5338  1.4015
 1922SOL    HW3 7816   4.369   2.782   3.017  0.3486  0.1242  0.2196
 1922SOL    MW4 7817   4.284   2.796   3.017  0.3242 -0.0079  0.4880
 1923SOL     OW 7818   4.257   3.046   3.125 -0.6476 -0.0669  0.6647
 1923SOL    HW2 7819   4.192   3.106   3.089 -0.7440 -0.2049  0.6064
 1923SOL    HW3 7820   4.256   2.971   3.066  0.0546  0.2200  0.2812
 1923SOL    MW4 7821   4.248   3.044   3.113 -0.5679 -0.0470  0.6063
 1924SOL     OW 7822   4.074   3.228   2.995  0.4736 -0.4266 -0.1535
 1924SOL    HW2 7823   4.052   3.319   3.016 -2.2725 -1.1229  0.2631
 1924SOL    HW3 7824   4.075   3.225   2.899 -0.2089 -0.1098 -0.1718
 1924SOL    MW4 7825   4.071   3.239   2.985  0.0210 -0.4768 -0.1006
 1925SOL     OW 7826   4.003   3.491   3.078  0.0755  0.0972  0.1215
 1925SOL    HW2 7827   4.013   3.508   3.172  0.1287 -0.1127  0.1529
 1925SOL    HW3 7828   3.921   3.535   3.055 -0.6746 -1.0573  0.5609
 1925SOL    MW4 7829   3.994   3.499   3.088 -0.0160 -0.0827  0.1841
 1926SOL     OW 7830   4.249   3.593   2.981 -0.0324  0.4615  0.2097
 1926SOL    HW2 7831   4.269   3.679   3.016  0.1337  1.3667 -2.0290
 1926SOL    HW3 7832   4.160   3.575   3.012 -0.3007  1.7039  0.1942
 1926SOL    MW4 7833   4.240   3.602   2.989 -0.0453  0.7451 -0.0873
 1927SOL     OW 7834   4.290   3.833   3.101  0.0131 -0.1751 -0.0919
 1927SOL    HW2 7835   4.234   3.900   3.063  1.4969  0.4789 -1.1575
 1927SOL    HW3 7836   4.282   3.844   3.195 -1.0846  0.3686 -0.2481
 1927SOL    MW4 7837   4.281   3.843   3.108  0.0648 -0.0169 -0.2530
 1928SOL     OW 7838   4.093   3.992   2.974 -0.0759 -0.0656 -0.2730
 1928SOL    HW2 7839   4.105   4.078   3.015  1.6805 -0.0262 -0.8229
 1928SOL    HW3 7840   4.015   3.956   3.016  0.1390  1.0970  1.1656
 1928SOL    MW4 7841   4.084   3.998   2.985  0.1841  0.0935 -0.1554
 1929SOL     OW 7842   4.081   4.234   3.127  0.3874  0.7522  0.0098
 1929SOL    HW2 7843   4.071   4.238   3.222 -1.6811  3.9649 -0.2800
 1929SOL    HW3 7844   4.156   4.289   3.107  0.2252  0.8650 -0.3023
 1929SOL    MW4 7845   4.090   4.242   3.137  0.0935  1.1911 -0.0694
 1930SOL     OW 7846   4.316   4.367   3.014  0.1140 -0.7207  0.3398
 1930SOL    HW2 7847   4.396   4.324   3.044  0.5205 -0.4538 -0.3581
 1930SOL    HW3 7848   4.307   4.341   2.922  0.0910  0.2660  0.0545
 1930SOL    MW4 7849   4.325   4.358   3.006  0.1645 -0.5550  0.2100
 1931SOL     OW 7850   0.181   4.650   3.404 -0.1455 -0.3272 -0.0974
 1931SOL    HW2 7851   0.261   4.693   3.434 -0.3346  0.6631 -0.9565
 1931SOL    HW3 7852   0.190   4.559   3.431  2.0982 -0.6375 -1.7981
 1931SOL    MW4 7853   0.193   4.644   3.412  0.1256 -0.2375 -0.4349
 1932SOL     OW 7854   4.444   0.105   3.507 -0.3289 -0.0652  0.1188
 1932SOL    HW2 7855   4.463   0.196   3.486  0.3693 -0.8364 -2.8653
 1932SOL    HW3 7856   4.523   0.057   3.483 -0.3169 -1.3729  2.5905
 1932SOL    MW4 7857   4.457   0.111   3.501 -0.2356 -0.3395  0.0510
 1933SOL     OW 7858   0.015   0.379   3.436 -0.3223 -0.7669  0.1118
 1933SOL    HW2 7859  -0.056   0.436   3.464 -0.5469  0.2961 -2.4536
 1933SOL    HW3 7860   0.093   0.415   3.477 -0.7340  0.3056 -0.0439
 1933SOL    MW4 7861   0.016   0.391   3.445 -0.4063 -0.4852 -0.2470
 1934SOL     OW 7862   0.261   0.480   3.540  0.5015  0.0810  0.1001
 1934SOL    HW2 7863   0.324   0.426   3.492 -0.6664 -0.5368 -0.7488
 1934SOL    HW3 7864   0.268   0.566   3.500  1.1191  0.1260  0.2990
 1934SOL    MW4 7865   0.270   0.484   3.529  0.4289  0.0055  0.0143
 1935SOL     OW 7866   0.252   0.729   3.434 -0.4245  0.4466 -0.2366
 1935SOL    HW2 7867   0.334   0.772   3.458 -0.9643  2.2264 -1.5114
 1935SOL    HW3 7868   0.184   0.782   3.474 -0.9763 -0.9742  0.7400
 1935SOL    MW4 7869   0.254   0.741   3.442 -0.5686  0.4940 -0.2759
 1936SOL     OW 7870   0.044   0.887   3.514  0.2671 -0.0776 -0.1812
 1936SOL    HW2 7871   0.069   0.900   3.605  0.1503 -1.1003 -0.0021
 1936SOL    HW3 7872   0.039   0.976   3.478  1.7543  0.2558  0.4142
 1936SOL    MW4 7873   0.046   0.901   3.521  0.4479 -0.1686 -0.0792
 1937SOL     OW 7874   0.031   1.149   3.416  0.3236  0.4148  0.5927
 1937SOL    HW2 7875   0.071   1.229   3.452 -0.9693  2.1694 -1.6784
 1937SOL    HW3 7876   0.030   1.164   3.321 -0.3415 -2.1460  0.1514
 1937SOL    MW4 7877   0.036   1.162   3.408  0.0652  0.3085  0.2348
 1938SOL     OW 7878   0.218   1.349   3.540 -0.3781  0.1322 -0.3875
 1938SOL    HW2 7879   0.286   1.296   3.498  1.0767  1.1144  0.6943
 1938SOL    HW3 7880   0.210   1.311   3.628 -0.2921  0.8494 -0.0689
 1938SOL    MW4 7881   0.226   1.337   3.546 -0.1748  0.3564 -0.2027
 1939SOL     OW 7882   0.244   1.566   3.360  0.0414  0.3476 -0.0478
 1939SOL    HW2 7883   0.308   1.629   3.392  0.3226 -0.3451  0.7562
 1939SOL    HW3 7884   0.244   1.496   3.425  1.6188 -1.7525 -2.2072
 1939SOL    MW4 7885   0.252   1.565   3.373  0.2866 -0.0210 -0.2267
 1940SOL     OW 7886   0.022   1.684   3.466  0.1659  0.0455 -0.3869
 1940SOL    HW2 7887  -0.051   1.634   3.431  0.8052 -1.2601  0.1314
 1940SOL    HW3 7888   0.097   1.656   3.414  0.8160 -0.7119  0.9439
 1940SOL    MW4 7889   0.022   1.674   3.455  0.3360 -0.2266 -0.1431
 1941SOL     OW 7890   0.034   1.945   3.417 -0.1808  0.3085 -0.3113
 1941SOL    HW2 7891   0.022   1.852   3.437  0.3251  0.4337  0.6093
 1941SOL    HW3 7892   0.056   1.946   3.324 -0.4898 -0.4698 -0.4013
 1941SOL    MW4 7893   0.036   1.933   3.408 -0.1548  0.2222 -0.2019
 1942SOL     OW 7894   0.274   2.038   3.531  0.1297  0.2767  0.3172
 1942SOL    HW2 7895   0.267   2.018   3.625 -0.9455  1.3782  0.4785
 1942SOL    HW3 7896   0.188   2.018   3.496 -0.3703  2.6132  0.1134
 1942SOL    MW4 7897   0.262   2.033   3.539 -0.0782  0.7305  0.3114
 1943SOL     OW 7898   0.266   2.283   3.383  0.4655 -0.1287 -0.4084
 1943SOL    HW2 7899   0.192   2.343   3.396 -1.0241 -1.7923 -1.1622
 1943SOL    HW3 7900   0.251   2.212   3.445  1.2240 -0.6835 -0.8510
 1943SOL    MW4 7901   0.255   2.282   3.393  0.3690 -0.4213 -0.5662
 1944SOL     OW 7902   0.067   2.438   3.473  0.3007  0.5592  0.0988
 1944SOL    HW2 7903  -0.019   2.409   3.442  0.1708  0.2504  0.7242
 1944SOL    HW3 7904   0.059   2.438   3.569  1.1640 -0.0308  0.1852
 1944SOL    MW4 7905   0.055   2.434   3.482  0.3975  0.4404  0.1926
 1945SOL     OW 7906   0.032   2.687   3.387 -0.1412 -0.7986 -0.0816
 1945SOL    HW2 7907  -0.043   2.730   3.430 -0.3938 -1.7705  0.4533
 1945SOL    HW3 7908   0.030   2.597   3.420  0.9469 -0.9719 -0.4875
 1945SOL    MW4 7909   0.022   2.681   3.397 -0.0310 -0.9496 -0.0648
 1946SOL     OW 7910   0.257   2.827   3.506  0.1547  0.4822 -0.2618
 1946SOL    HW2 7911   0.176   2.790   3.470  0.0881  1.7908 -1.5010
 1946SOL    HW3 7912   0.327   2.775   3.467 -0.1141 -1.3648  1.6623
 1946SOL    MW4 7913   0.255   2.815   3.496  0.1105  0.4113 -0.1714
 1947SOL     OW 7914   0.226   3.078   3.406  0.0533  0.3456 -0.3194
 1947SOL    HW2 7915   0.141   3.115   3.431  0.0399  1.2306 -1.6323
 1947SOL    HW3 7916   0.231   2.995   3.455 -0.4845  1.4292  1.6433
 1947SOL    MW4 7917   0.215   3.072   3.416 -0.0194  0.6053 -0.2337
 1948SOL     OW 7918   0.003   3.208   3.501 -0.1038  0.3076 -0.0965
 1948SOL    HW2 7919  -0.081   3.176   3.469  0.4839  0.1188 -1.4569
 1948SOL    HW3 7920  -0.004   3.303   3.498  0.0614  0.2900 -1.0882
 1948SOL    MW4 7921  -0.009   3.216   3.496 -0.0043  0.2801 -0.4070
 1949SOL     OW 7922   0.011   3.473   3.399 -0.2287  0.5902 -0.1411
 1949SOL    HW2 7923   0.102   3.502   3.409  0.3396 -1.0194 -0.3796
 1949SOL    HW3 7924  -0.001   3.464   3.305 -0.4823  0.3391 -0.0852
 1949SOL    MW4 7925   0.022   3.476   3.388 -0.1869  0.3445 -0.1655
 1950SOL     OW 7926   0.251   3.575   3.442  0.6798  0.1999  0.1141
 1950SOL    HW2 7927   0.246   3.561   3.536 -0.3253 -0.3608 -0.0131
 1950SOL    HW3 7928   0.243   3.670   3.432  1.4205  0.3211  0.6240
 1950SOL    MW4 7929   0.249   3.586   3.453  0.6449  0.1421  0.1645
 1951SOL     OW 7930   4.488   3.946   3.514 -0.3567 -0.4510  0.1076
 1951SOL    HW2 7931   4.494   4.033   3.475 -0.0764  0.3886  2.0070
 1951SOL    HW3 7932   4.495   3.961   3.608 -0.1574 -2.5417  0.4427
 1951SOL    MW4 7933   4.490   3.959   3.521 -0.2934 -0.6161  0.4025
 1952SOL     OW 7934   4.481   3.971   3.784 -0.2221 -0.1394 -0.5865
 1952SOL    HW2 7935   4.476   4.064   3.808  0.1317  0.1219 -1.5139
 1952SOL    HW3 7936   4.409   3.931   3.833 -0.0067  0.5125  0.2952
 1952SOL    MW4 7937   4.471   3.978   3.794 -0.1473 -0.0188 -0.5927
 1953SOL     OW 7938   4.483   4.201   3.393  0.2892 -0.1181 -0.5857
 1953SOL    HW2 7939   4.414   4.263   3.415  0.6982 -0.5303  1.9835
 1953SOL    HW3 7940   4.563   4.240   3.429  0.7358 -1.5751  0.0397
 1953SOL    MW4 7941   4.484   4.214   3.401  0.4020 -0.3643 -0.1640
 1954SOL     OW 7942   0.200   4.370   3.469  0.0209 -0.2008  0.4038
 1954SOL    HW2 7943   0.206   4.351   3.563 -0.3664 -2.1169  0.0669
 1954SOL    HW3 7944   0.279   4.330   3.431  0.1058  0.4418 -0.1089
 1954SOL    MW4 7945   0.212   4.362   3.476 -0.0190 -0.3691  0.2918
 1955SOL     OW 7946   0.686   4.611   3.392 -0.4996  0.1201  0.0843
 1955SOL    HW2 7947   0.753   4.674   3.419 -0.1678  0.0227 -0.5156
 1955SOL    HW3 7948   0.695   4.604   3.297 -1.4547  0.2059 -0.0179
 1955SOL    MW4 7949   0.696   4.618   3.383 -0.5818  0.1187 -0.0081
 1956SOL     OW 7950   0.461   0.061   3.471 -0.1309 -0.1174 -0.1536
 1956SOL    HW2 7951   0.481   0.069   3.564  0.3720  0.7272 -0.3372
 1956SOL    HW3 7952   0.533   0.008   3.436  1.2320  2.0100 -0.6088
 1956SOL    MW4 7953   0.473   0.055   3.479  0.1152  0.2747 -0.2379
 1957SOL     OW 7954   0.442   0.340   3.375 -0.5077  0.3446 -0.4463
 1957SOL    HW2 7955   0.532   0.362   3.396 -0.1076 -0.7561 -0.9728
 1957SOL    HW3 7956   0.437   0.245   3.388 -2.0431  0.6300  1.3020
 1957SOL    MW4 7957   0.453   0.330   3.380 -0.6574  0.2370 -0.2854
 1958SOL     OW 7958   0.685   0.482   3.523 -0.3365 -0.0045 -0.5118
 1958SOL    HW2 7959   0.696   0.474   3.618  0.3360 -0.6642 -0.6429
 1958SOL    HW3 7960   0.753   0.425   3.486 -0.2662  0.6374 -1.3897
 1958SOL    MW4 7961   0.696   0.474   3.531 -0.2385 -0.0069 -0.6449
 1959SOL     OW 7962   0.687   0.774   3.469 -0.3534  0.5097 -0.0468
 1959SOL    HW2 7963   0.605   0.817   3.493 -0.3864  0.6234 -0.3651
 1959SOL    HW3 7964   0.672   0.681   3.486 -1.7670  0.0688 -3.4519
 1959SOL    MW4 7965   0.675   0.767   3.474 -0.5442  0.4665 -0.5381
 1960SOL     OW 7966   0.462   0.915   3.521 -0.2853 -0.6571 -0.1095
 1960SOL    HW2 7967   0.458   0.924   3.616 -1.7376  0.4504 -0.2576
 1960SOL    HW3 7968   0.464   1.005   3.488  1.4335 -1.0281 -1.1038
 1960SOL    MW4 7969   0.462   0.928   3.529 -0.2502 -0.5600 -0.2604
 1961SOL     OW 7970   0.413   1.186   3.436 -0.0545 -0.1717  0.5232
 1961SOL    HW2 7971   0.491   1.234   3.464  0.3696 -0.2040 -0.5628
 1961SOL    HW3 7972   0.422   1.180   3.341 -0.7983 -1.2003  0.5141
 1961SOL    MW4 7973   0.425   1.192   3.427 -0.0967 -0.3115  0.3786
 1962SOL     OW 7974   0.675   1.293   3.501  0.1763 -0.4568  0.4403
 1962SOL    HW2 7975   0.680   1.380   3.461  1.1546 -0.1755  1.1508
 1962SOL    HW3 7976   0.748   1.244   3.464 -1.0994 -1.4009 -0.8975
 1962SOL    MW4 7977   0.685   1.298   3.491  0.1370 -0.5443  0.3574
 1963SOL     OW 7978   0.651   1.557   3.420 -0.1087 -0.5666  0.3788
 1963SOL    HW2 7979   0.727   1.602   3.455  1.3464 -2.9249  0.3356
 1963SOL    HW3 7980   0.578   1.617   3.436  1.7784  1.8847  0.1053
 1963SOL    MW4 7981   0.651   1.571   3.426  0.3322 -0.5543  0.3369
 1964SOL     OW 7982   0.452   1.721   3.459 -0.2467 -1.0535  0.5587
 1964SOL    HW2 7983   0.442   1.726   3.554  1.4491  0.8012  0.6751
 1964SOL    HW3 7984   0.466   1.812   3.432 -1.7272 -1.4260 -1.5984
 1964SOL    MW4 7985   0.452   1.734   3.468 -0.2183 -0.8579  0.2892
 1965SOL     OW 7986   0.491   1.969   3.358  0.1015  0.0255 -0.7588
 1965SOL    HW2 7987   0.425   2.008   3.415  0.0299 -0.7699 -0.2902
 1965SOL    HW3 7988   0.573   2.009   3.387  0.2081 -1.1505  0.6257
 1965SOL    MW4 7989   0.493   1.980   3.369  0.1062 -0.2346 -0.5145
 1966SOL     OW 7990   0.698   2.059   3.506 -0.1328  0.3564 -1.1573
 1966SOL    HW2 7991   0.705   2.035   3.599  0.6581 -0.0593 -1.3171
 1966SOL    HW3 7992   0.776   2.021   3.466 -0.5983  0.3247 -2.0422
 1966SOL    MW4 7993   0.709   2.051   3.513 -0.0899  0.2975 -1.2951
 1967SOL     OW 7994   0.710   2.307   3.384 -0.2127 -0.1503 -0.2918
 1967SOL    HW2 7995   0.621   2.331   3.409 -0.4886 -1.8401  0.4183
 1967SOL    HW3 7996   0.729   2.229   3.436  1.8048  0.3822 -0.1995
 1967SOL    MW4 7997   0.701   2.300   3.394  0.0170 -0.3028 -0.1857
 1968SOL     OW 7998   0.485   2.422   3.484  0.0626 -0.1652  0.5828
 1968SOL    HW2 7999   0.474   2.424   3.579 -0.0274 -1.7700  0.6194
 1968SOL    HW3 8000   0.411   2.370   3.452 -0.4282  1.1477 -0.4493
 1968SOL    MW4 8001   0.474   2.415   3.492 -0.0140 -0.2036  0.4513
 1969SOL     OW 8002   0.486   2.693   3.417  0.3527  0.5831 -0.2122
 1969SOL    HW2 8003   0.483   2.601   3.444 -0.9813  0.3155 -1.2430
 1969SOL    HW3 8004   0.482   2.691   3.322  0.2159  1.7143 -0.2370
 1969SOL    MW4 8005   0.485   2.681   3.408  0.1586  0.6971 -0.3512
 1970SOL     OW 8006   0.689   2.825   3.536 -0.0638  0.3239  0.1315
 1970SOL    HW2 8007   0.768   2.795   3.491  0.1939 -1.3457  1.6278
 1970SOL    HW3 8008   0.618   2.776   3.495  0.0577 -0.4798  0.8660
 1970SOL    MW4 8009   0.690   2.815   3.525 -0.0138 -0.0024  0.4261
 1971SOL     OW 8010   0.655   3.037   3.372 -0.6228 -0.0769  0.1790
 1971SOL    HW2 8011   0.591   3.093   3.415  0.2111  0.5166  0.6756
 1971SOL    HW3 8012   0.667   2.963   3.431  0.2799  0.5771  0.8505
 1971SOL    MW4 8013   0.648   3.035   3.385 -0.3937  0.0875  0.3333
 1972SOL     OW 8014   0.471   3.186   3.506  0.3533  0.0307  0.2195
 1972SOL    HW2 8015   0.478   3.183   3.602 -0.5763 -0.4313  0.2833
 1972SOL    HW3 8016   0.382   3.155   3.488  1.1265 -1.6150 -0.8794
 1972SOL    MW4 8017   0.460   3.181   3.517  0.3327 -0.2475  0.0832
 1973SOL     OW 8018   0.481   3.428   3.354 -0.4100 -0.1252 -0.1626
 1973SOL    HW2 8019   0.405   3.482   3.377 -1.8325 -0.4518 -3.7255
 1973SOL    HW3 8020   0.470   3.348   3.405 -0.9524  0.9359  1.4268
 1973SOL    MW4 8021   0.470   3.424   3.363 -0.6692 -0.0281 -0.4227
 1974SOL     OW 8022   0.659   3.605   3.508  0.5334 -0.2568  0.2366
 1974SOL    HW2 8023   0.743   3.561   3.497  0.3904 -0.0600 -1.7165
 1974SOL    HW3 8024   0.595   3.546   3.467  0.2310  1.3226 -1.6362
 1974SOL    MW4 8025   0.662   3.591   3.501  0.4746 -0.0226 -0.2682
 1975SOL     OW 8026   0.682   3.857   3.389 -0.3614  0.0871 -0.0816
 1975SOL    HW2 8027   0.608   3.902   3.432 -0.1102  0.2201  0.2143
 1975SOL    HW3 8028   0.676   3.767   3.422 -0.1276  0.2053  0.2905
 1975SOL    MW4 8029   0.671   3.851   3.399 -0.2975  0.1204  0.0067
 1976SOL     OW 8030   0.476   3.999   3.489  0.6872  0.1171  0.2814
 1976SOL    HW2 8031   0.451   4.085   3.455  1.2165  0.1206 -0.1046
 1976SOL    HW3 8032   0.459   4.005   3.583 -1.5182 -0.1475 -0.0773
 1976SOL    MW4 8033   0.470   4.011   3.497  0.4660  0.0825  0.1829
 1977SOL     OW 8034   0.423   4.236   3.398  0.1744 -0.0470 -0.0624
 1977SOL    HW2 8035   0.490   4.294   3.434  0.4074 -0.7577  0.6499
 1977SOL    HW3 8036   0.441   4.235   3.304  0.9128  0.0814  0.0720
 1977SOL    MW4 8037   0.434   4.244   3.390  0.3026 -0.1240  0.0494
 1978SOL     OW 8038   0.656   4.361   3.503  0.1641 -0.0032 -0.3761
 1978SOL    HW2 8039   0.726   4.306   3.469 -0.8053 -0.0984 -2.2671
 1978SOL    HW3 8040   0.673   4.447   3.465 -0.0036  0.2977  0.2196
 1978SOL    MW4 8041   0.667   4.365   3.493  0.0141  0.0238 -0.5469
 1979SOL     OW 8042   1.095   4.606   3.404 -0.6173 -0.0408  0.0107
 1979SOL    HW2 8043   1.178   4.640   3.437 -0.4335 -0.0641 -0.4325
 1979SOL    HW3 8044   1.111   4.588   3.311 -0.4214 -2.2576  0.4349
 1979SOL    MW4 8045   1.108   4.608   3.396 -0.5671 -0.3362  0.0081
 1980SOL     OW 8046   0.903   0.101   3.523  0.4786  0.4404 -0.1475
 1980SOL    HW2 8047   0.913   0.093   3.618 -1.2163 -1.3569 -0.0890
 1980SOL    HW3 8048   0.960   0.032   3.488  0.2866  0.4120 -0.4001
 1980SOL    MW4 8049   0.912   0.091   3.531  0.2297  0.1995 -0.1729
 1981SOL     OW 8050   0.921   0.352   3.407 -0.6035 -0.3107  0.1590
 1981SOL    HW2 8051   0.985   0.401   3.458 -0.8982  0.8765 -0.6051
 1981SOL    HW3 8052   0.922   0.264   3.445 -0.3935  0.4040  1.8063
 1981SOL    MW4 8053   0.930   0.347   3.418 -0.6148 -0.0598  0.2756
 1982SOL     OW 8054   1.144   0.486   3.538  0.0933 -0.5882  0.4988
 1982SOL    HW2 8055   1.131   0.494   3.632 -2.2355 -0.1622  0.1772
 1982SOL    HW3 8056   1.141   0.577   3.506 -0.2235 -0.8087 -0.1055
 1982SOL    MW4 8057   1.141   0.499   3.546 -0.2558 -0.5611  0.3767
 1983SOL     OW 8058   1.127   0.736   3.430  0.5036  0.3785 -0.2329
 1983SOL    HW2 8059   1.207   0.789   3.430 -0.4434  1.8334 -0.4969
 1983SOL    HW3 8060   1.062   0.790   3.476  0.0058 -1.3191  1.1242
 1983SOL    MW4 8061   1.129   0.750   3.436  0.3130  0.3464 -0.0887
 1984SOL     OW 8062   0.926   0.905   3.549  0.0409  0.2374 -0.2491
 1984SOL    HW2 8063   0.909   0.985   3.500 -0.2140 -0.3418 -1.0996
 1984SOL    HW3 8064   0.848   0.851   3.537 -0.8613  0.8573  2.3434
 1984SOL    MW4 8065   0.914   0.908   3.541 -0.1118  0.2428 -0.0193
 1985SOL     OW 8066   0.869   1.138   3.379  0.4116 -0.4202  0.2997
 1985SOL    HW2 8067   0.951   1.176   3.412  0.3328  1.8487 -1.9437
 1985SOL    HW3 8068   0.879   1.139   3.284 -1.6533 -1.4780  0.0459
 1985SOL    MW4 8069   0.882   1.143   3.371  0.1289 -0.2604 -0.0296
 1986SOL     OW 8070   1.105   1.258   3.475  0.0558  0.2484  0.2270
 1986SOL    HW2 8071   1.103   1.277   3.569 -0.8290  0.5218  0.1545
 1986SOL    HW3 8072   1.082   1.341   3.434  2.1777  0.5965 -0.2956
 1986SOL    MW4 8073   1.102   1.272   3.482  0.2189  0.3304  0.1485
 1987SOL     OW 8074   1.039   1.502   3.347 -0.1137 -0.2995 -0.2053
 1987SOL    HW2 8075   1.119   1.542   3.380  0.4334 -1.1056 -0.5426
 1987SOL    HW3 8076   1.040   1.520   3.253  0.1965 -1.1937 -0.3791
 1987SOL    MW4 8077   1.049   1.510   3.339 -0.0006 -0.5237 -0.2725
 1988SOL     OW 8078   1.969   1.435   4.221 -0.0994  0.0404 -0.5658
 1988SOL    HW2 8079   2.056   1.397   4.215 -0.3050 -0.4899 -0.2536
 1988SOL    HW3 8080   1.979   1.525   4.189  0.4239 -0.2242 -1.1484
 1988SOL    MW4 8081   1.982   1.442   4.216 -0.0575 -0.0645 -0.6018
 1989SOL     OW 8082   0.902   1.908   3.384 -0.0556  0.1691 -0.4038
 1989SOL    HW2 8083   0.983   1.939   3.424 -1.0778  0.2080  1.6793
 1989SOL    HW3 8084   0.891   1.819   3.419 -0.2595 -0.3252 -1.6849
 1989SOL    MW4 8085   0.911   1.900   3.394 -0.2174  0.1090 -0.2980
 1990SOL     OW 8086   1.129   2.023   3.470 -0.9940  0.1049 -0.6200
 1990SOL    HW2 8087   1.185   1.990   3.399 -0.5538 -0.3006 -0.0941
 1990SOL    HW3 8088   1.146   2.117   3.471 -0.0210 -0.0613 -0.2266
 1990SOL    MW4 8089   1.139   2.031   3.461 -0.8075  0.0296 -0.4988
 1991SOL     OW 8090   1.153   2.297   3.416 -0.0644  0.8010 -0.7178
 1991SOL    HW2 8091   1.081   2.354   3.440  0.2090  1.3194 -1.1322
 1991SOL    HW3 8092   1.232   2.350   3.430  0.1424  0.8519 -2.0036
 1991SOL    MW4 8093   1.154   2.311   3.421 -0.0011  0.8759 -0.9420
 1992SOL     OW 8094   0.941   2.452   3.467  0.4359  0.2373 -0.2639
 1992SOL    HW2 8095   0.927   2.469   3.560  0.5700 -1.0747  0.0053
 1992SOL    HW3 8096   0.857   2.419   3.436  0.2984  0.9723 -0.6913
 1992SOL    MW4 8097   0.928   2.450   3.475  0.4354  0.1612 -0.2844
 1993SOL     OW 8098   0.920   2.714   3.397 -0.4351  0.1030 -0.3581
 1993SOL    HW2 8099   1.003   2.751   3.425 -1.2106 -0.1704  2.4354
 1993SOL    HW3 8100   0.926   2.621   3.419 -0.2807 -0.5983 -3.1155
 1993SOL    MW4 8101   0.932   2.707   3.404 -0.5171 -0.0255 -0.3533
 1994SOL     OW 8102   1.133   2.857   3.483 -0.4302  0.0695  0.1694
 1994SOL    HW2 8103   1.143   2.858   3.578  0.1683 -1.4114  0.1309
 1994SOL    HW3 8104   1.207   2.806   3.451 -1.0778 -0.1450 -1.0322
 1994SOL    MW4 8105   1.144   2.851   3.491 -0.4368 -0.1543  0.0057
 1995SOL     OW 8106   1.107   3.131   3.396  0.0495 -0.0005 -0.1204
 1995SOL    HW2 8107   1.100   3.038   3.420  0.9679  0.0902  0.5160
 1995SOL    HW3 8108   1.109   3.130   3.300 -1.7240 -0.4972 -0.1869
 1995SOL    MW4 8109   1.106   3.119   3.386 -0.0634 -0.0541 -0.0448
 1996SOL     OW 8110   0.849   3.194   3.484 -0.0417  0.3779 -0.1554
 1996SOL    HW2 8111   0.936   3.175   3.450  0.5424  1.1870  0.8612
 1996SOL    HW3 8112   0.791   3.133   3.438  1.2864 -1.3024  0.3822
 1996SOL    MW4 8113   0.852   3.184   3.474  0.2106  0.2630  0.0496
 1997SOL     OW 8114   0.893   3.464   3.434  0.3835 -0.1174  0.7394
 1997SOL    HW2 8115   0.867   3.372   3.439 -1.3043  0.1747 -1.4964
 1997SOL    HW3 8116   0.890   3.485   3.340  0.7574  2.2145  1.1999
 1997SOL    MW4 8117   0.889   3.455   3.422  0.2102  0.2289  0.5052
 1998SOL     OW 8118   1.159   3.546   3.522  0.2400 -0.0437  0.0618
 1998SOL    HW2 8119   1.169   3.524   3.615 -0.7229  0.7718  0.3652
 1998SOL    HW3 8120   1.072   3.513   3.499 -0.0346  0.8589 -0.2193
 1998SOL    MW4 8121   1.149   3.539   3.531  0.0768  0.1833  0.0646
 1999SOL     OW 8122   1.146   3.814   3.416  0.1747 -0.1477  0.1598
 1999SOL    HW2 8123   1.223   3.866   3.437  0.4159 -0.3311 -0.2573
 1999SOL    HW3 8124   1.166   3.727   3.449 -0.3372  0.0803  1.0937
 1999SOL    MW4 8125   1.159   3.809   3.423  0.1391 -0.1419  0.2279
 2000SOL     OW 8126   0.925   3.961   3.514 -0.5208  0.5029 -0.1038
 2000SOL    HW2 8127   1.005   3.910   3.500 -0.8873 -0.1194  0.1044
 2000SOL    HW3 8128   0.857   3.913   3.468 -0.8981  0.7191  0.2268
 2000SOL    MW4 8129   0.927   3.948   3.506 -0.6189  0.4494 -0.0329
 2001SOL     OW 8130   0.884   4.235   3.404 -0.4715 -0.1901 -0.3092
 2001SOL    HW2 8131   0.899   4.143   3.425  0.6187 -0.2608 -1.2968
 2001SOL    HW3 8132   0.891   4.239   3.308  1.0679  1.1758 -0.1664
 2001SOL    MW4 8133   0.887   4.224   3.394 -0.1246 -0.0191 -0.4203
 2002SOL     OW 8134   1.108   4.346   3.489 -0.1855 -0.2502  0.2171
 2002SOL    HW2 8135   1.023   4.311   3.462 -0.5467  0.4635  0.4118
 2002SOL    HW3 8136   1.105   4.438   3.462  0.7469 -0.3636 -0.2816
 2002SOL    MW4 8137   1.096   4.354   3.482 -0.1101 -0.1717  0.1769
 2003SOL     OW 8138   1.574   4.617   3.373 -0.0977 -0.1688  0.3974
 2003SOL    HW2 8139   1.575   4.532   3.416  1.2203  0.3974  1.5199
 2003SOL    HW3 8140   1.497   4.661   3.410  0.6373  0.0574  1.6949
 2003SOL    MW4 8141   1.564   4.612   3.384  0.1731 -0.0639  0.7167
 2004SOL     OW 8142   1.346   0.063   3.481  0.4408 -0.0850  0.5139
 2004SOL    HW2 8143   1.350   0.074   3.576  1.1152  0.9466  0.3802
 2004SOL    HW3 8144   1.341   0.153   3.447 -1.1748 -0.4903 -0.3744
 2004SOL    MW4 8145   1.346   0.076   3.489  0.3166 -0.0024  0.3791
 2005SOL     OW 8146   1.328   0.315   3.367  0.3277 -0.0238 -0.0344
 2005SOL    HW2 8147   1.405   0.362   3.395  1.1925 -0.7320 -1.1689
 2005SOL    HW3 8148   1.256   0.352   3.419  1.3936  0.7423  0.9014
 2005SOL    MW4 8149   1.328   0.326   3.377  0.5825 -0.0161 -0.0606
 2006SOL     OW 8150   1.545   0.473   3.445 -0.3806  0.3231 -0.2656
 2006SOL    HW2 8151   1.561   0.483   3.539 -0.7096  0.9486 -0.2729
 2006SOL    HW3 8152   1.629   0.444   3.410 -0.3994 -0.4236  0.2988
 2006SOL    MW4 8153   1.558   0.471   3.453 -0.4265  0.3071 -0.1922
 2007SOL     OW 8154   1.572   0.749   3.379  0.0819 -0.2960 -0.3124
 2007SOL    HW2 8155   1.502   0.806   3.410  0.0310 -0.8626  0.6324
 2007SOL    HW3 8156   1.552   0.663   3.416  0.9868 -0.5809 -0.4637
 2007SOL    MW4 8157   1.560   0.745   3.388  0.1944 -0.4084 -0.2077
 2008SOL     OW 8158   1.346   0.873   3.471 -0.1980 -0.0625  0.0331
 2008SOL    HW2 8159   1.337   0.861   3.566 -0.0389  1.1574  0.2090
 2008SOL    HW3 8160   1.328   0.965   3.457  2.7840  0.4599 -0.7456
 2008SOL    MW4 8161   1.343   0.883   3.482  0.2166  0.1674 -0.0460
 2009SOL     OW 8162   1.326   1.135   3.379  0.0234  0.0749  0.3152
 2009SOL    HW2 8163   1.406   1.182   3.401  0.0851 -0.4886  1.3203
 2009SOL    HW3 8164   1.256   1.196   3.401  0.1274  0.0212  0.7837
 2009SOL    MW4 8165   1.327   1.149   3.384  0.0453 -0.0066  0.5097
 2010SOL     OW 8166   1.586   1.247   3.475 -0.0004 -0.2982  0.6156
 2010SOL    HW2 8167   1.664   1.200   3.445 -0.0519  0.2624 -0.3966
 2010SOL    HW3 8168   1.601   1.260   3.569 -0.5612 -3.5077  1.2417
 2010SOL    MW4 8169   1.598   1.242   3.484 -0.0813 -0.6478  0.5646
 2011SOL     OW 8170   1.570   1.518   3.377  0.1311  0.0752  0.3363
 2011SOL    HW2 8171   1.585   1.434   3.419  0.0246  0.3493  0.9236
 2011SOL    HW3 8172   1.633   1.577   3.418  1.0739 -0.0069 -0.9733
 2011SOL    MW4 8173   1.580   1.515   3.388  0.2415  0.1005  0.2408
 2012SOL     OW 8174   1.313   1.586   3.457  0.1513 -0.0444 -0.6309
 2012SOL    HW2 8175   1.316   1.585   3.553 -0.9294  0.8085 -0.5802
 2012SOL    HW3 8176   1.398   1.552   3.430  0.4609 -0.2870  0.6382
 2012SOL    MW4 8177   1.325   1.582   3.466  0.0495  0.0362 -0.4568
 2013SOL     OW 8178   1.354   1.852   3.377  0.4613  0.2778  0.1807
 2013SOL    HW2 8179   1.430   1.887   3.425  0.5388  1.7967 -0.9811
 2013SOL    HW3 8180   1.349   1.760   3.403  2.2306  0.3543  0.8796
 2013SOL    MW4 8181   1.364   1.845   3.387  0.7050  0.4882  0.1197
 2014SOL     OW 8182   1.578   2.020   3.476  0.0286 -0.3254  0.2158
 2014SOL    HW2 8183   1.568   2.114   3.465 -0.6542 -0.5817 -1.4265
 2014SOL    HW3 8184   1.572   2.006   3.570 -1.3677  1.1037  0.3527
 2014SOL    MW4 8185   1.576   2.030   3.487 -0.2457 -0.1705  0.0172
 2015SOL     OW 8186   1.586   2.292   3.398 -0.6748 -0.0283 -0.1136
 2015SOL    HW2 8187   1.520   2.356   3.424 -0.7488 -0.7347  1.5071
 2015SOL    HW3 8188   1.578   2.286   3.302  0.4841  3.5749 -0.4978
 2015SOL    MW4 8189   1.576   2.300   3.388 -0.5317  0.3538  0.0496
 2016SOL     OW 8190   1.376   2.468   3.491  0.1857 -0.0777 -0.1323
 2016SOL    HW2 8191   1.355   2.459   3.584 -1.5577  0.3681 -0.4656
 2016SOL    HW3 8192   1.368   2.562   3.473  1.7999  0.0110 -0.4470
 2016SOL    MW4 8193   1.372   2.479   3.501  0.1687 -0.0072 -0.2179
 2017SOL     OW 8194   1.336   2.732   3.361  0.2354 -0.2160  0.6297
 2017SOL    HW2 8195   1.412   2.782   3.390 -0.2625  0.2076  1.2312
 2017SOL    HW3 8196   1.350   2.718   3.268  0.2545  1.2646  0.4094
 2017SOL    MW4 8197   1.348   2.737   3.353  0.1724  0.0350  0.6800
 2018SOL     OW 8198   1.556   2.831   3.496  0.4216  0.2801  0.3999
 2018SOL    HW2 8199   1.581   2.915   3.459  1.5250  0.3137  1.2075
 2018SOL    HW3 8200   1.621   2.769   3.462  0.0160 -0.1257  0.3511
 2018SOL    MW4 8201   1.568   2.834   3.487  0.5137  0.2308  0.5002
 2019SOL     OW 8202   1.578   3.082   3.364 -0.0223 -0.4404  0.4199
 2019SOL    HW2 8203   1.661   3.122   3.392  0.0807 -0.4165  0.0769
 2019SOL    HW3 8204   1.511   3.134   3.408  0.1684 -0.9097  1.2738
 2019SOL    MW4 8205   1.580   3.094   3.374  0.0166 -0.4992  0.4876
 2020SOL     OW 8206   1.364   3.163   3.536 -0.1788 -0.2727  0.2559
 2020SOL    HW2 8207   1.376   3.145   3.630 -0.9057  0.7771  0.5590
 2020SOL    HW3 8208   1.273   3.140   3.519 -0.0802 -0.3484 -0.1734
 2020SOL    MW4 8209   1.354   3.157   3.546 -0.2617 -0.1442  0.2391
 2021SOL     OW 8210   1.388   3.425   3.404  0.5195 -0.5273  0.6357
 2021SOL    HW2 8211   1.397   3.345   3.456  0.6157  0.5442  2.2978
 2021SOL    HW3 8212   1.319   3.474   3.448  0.3439  0.2371 -0.4826
 2021SOL    MW4 8213   1.380   3.421   3.416  0.5091 -0.2851  0.7076
 2022SOL     OW 8214   1.605   3.572   3.477  0.1387 -0.7387  0.4158
 2022SOL    HW2 8215   1.616   3.567   3.572  1.0895 -1.9501  0.2585
 2022SOL    HW3 8216   1.530   3.515   3.459 -0.6137  0.2094  0.5286
 2022SOL    MW4 8217   1.596   3.564   3.487  0.1649 -0.7734  0.4098
 2023SOL     OW 8218   1.586   3.842   3.399  0.3368  0.4972  0.1895
 2023SOL    HW2 8219   1.574   3.750   3.423  1.3301  0.9206  2.4464
 2023SOL    HW3 8220   1.594   3.841   3.303 -0.0455 -1.7042  0.1547
 2023SOL    MW4 8221   1.586   3.830   3.389  0.4174  0.2625  0.4826
 2024SOL     OW 8222   1.359   3.971   3.491  0.4446  0.0613  0.4919
 2024SOL    HW2 8223   1.382   4.054   3.450 -0.0207 -0.4496 -0.8395
 2024SOL    HW3 8224   1.438   3.917   3.483  0.5097  0.1323  0.6799
 2024SOL    MW4 8225   1.373   3.975   3.484  0.3920  0.0033  0.3409
 2025SOL     OW 8226   1.358   4.232   3.389  0.1967 -0.7705  0.1213
 2025SOL    HW2 8227   1.275   4.265   3.423  0.1015 -1.3912  0.5112
 2025SOL    HW3 8228   1.342   4.215   3.297 -0.1181 -0.8978  0.1998
 2025SOL    MW4 8229   1.345   4.234   3.382  0.1426 -0.8693  0.1831
 2026SOL     OW 8230   1.574   4.368   3.494  0.2598 -0.3147 -0.0064
 2026SOL    HW2 8231   1.650   4.337   3.445 -0.1410 -1.1161 -0.1347
 2026SOL    HW3 8232   1.499   4.327   3.451 -0.3671  1.5557 -0.7347
 2026SOL    MW4 8233   1.574   4.358   3.482  0.1242 -0.1731 -0.1192
 2027SOL     OW 8234   2.026   4.650   3.358 -0.1894 -0.4793 -0.3503
 2027SOL    HW2 8235   2.090   4.700   3.407 -0.6307 -1.0652  0.8509
 2027SOL    HW3 8236   1.943   4.695   3.372 -0.6443 -1.7091  1.0001
 2027SOL    MW4 8237   2.023   4.662   3.366 -0.3076 -0.7189 -0.0138
 2028SOL     OW 8238   1.789   0.102   3.453  0.2282 -0.2166 -0.0807
 2028SOL    HW2 8239   1.770   0.107   3.546  0.9484 -2.6487  0.2368
 2028SOL    HW3 8240   1.724   0.040   3.419  0.8305 -0.3842 -0.9465
 2028SOL    MW4 8241   1.778   0.094   3.461  0.4026 -0.5596 -0.1528
 2029SOL     OW 8242   1.786   0.377   3.352 -0.2812  0.0022 -0.3266
 2029SOL    HW2 8243   1.784   0.285   3.379 -1.3158 -0.2495 -1.2132
 2029SOL    HW3 8244   1.788   0.374   3.256  0.1509  0.8960 -0.3493
 2029SOL    MW4 8245   1.786   0.365   3.342 -0.3607  0.0870 -0.4466
 2030SOL     OW 8246   2.002   0.514   3.478 -0.4347  0.0078  0.0350
 2030SOL    HW2 8247   2.002   0.603   3.441 -0.3750  0.2530  0.6262
 2030SOL    HW3 8248   1.930   0.469   3.432 -1.7620  0.9504  1.1384
 2030SOL    MW4 8249   1.992   0.520   3.467 -0.6019  0.1646  0.2587
 2031SOL     OW 8250   1.993   0.778   3.384  0.0336 -0.2862 -0.3670
 2031SOL    HW2 8251   2.069   0.827   3.415  0.2461 -0.8616  0.0415
 2031SOL    HW3 8252   1.999   0.783   3.288  1.1645 -1.1625 -0.3632
 2031SOL    MW4 8253   2.004   0.785   3.375  0.2108 -0.4777 -0.3126
 2032SOL     OW 8254   1.776   0.860   3.511 -0.2470  0.4871  0.1666
 2032SOL    HW2 8255   1.859   0.833   3.471 -0.6424 -1.0644  0.3585
 2032SOL    HW3 8256   1.709   0.821   3.455 -0.8301  0.2883  1.0021
 2032SOL    MW4 8257   1.778   0.851   3.498 -0.3761  0.2561  0.3023
 2033SOL     OW 8258   1.812   1.102   3.369  0.2279  0.0166  0.6270
 2033SOL    HW2 8259   1.876   1.161   3.410 -1.1306  0.9205  1.4946
 2033SOL    HW3 8260   1.810   1.025   3.426  0.6452 -0.0588  0.5349
 2033SOL    MW4 8261   1.820   1.100   3.382  0.1038  0.1258  0.7293
 2034SOL     OW 8262   2.015   1.237   3.499  0.0238 -0.4446  0.2139
 2034SOL    HW2 8263   2.032   1.259   3.591  1.5981 -2.1969  0.3921
 2034SOL    HW3 8264   1.994   1.320   3.457  0.6414  0.5737  1.8876
 2034SOL    MW4 8265   2.014   1.251   3.506  0.3130 -0.5414  0.4582
 2035SOL     OW 8266   1.995   1.458   3.339 -0.1969  0.6837 -0.2849
 2035SOL    HW2 8267   2.068   1.516   3.362 -0.7418  2.2825 -2.3652
 2035SOL    HW3 8268   1.917   1.504   3.372 -0.4079 -0.1938  0.4408
 2035SOL    MW4 8269   1.994   1.472   3.346 -0.2968  0.7788 -0.4635
 2036SOL     OW 8270   0.268   2.026   3.804 -0.0314  0.1388 -0.2769
 2036SOL    HW2 8271   0.250   2.120   3.812 -0.5140 -0.0045  0.3156
 2036SOL    HW3 8272   0.191   1.983   3.841  0.0138 -0.4997 -0.9051
 2036SOL    MW4 8273   0.256   2.033   3.810 -0.0891  0.0355 -0.2816
 2037SOL     OW 8274   2.462   2.052   3.754  0.3997  0.1067 -0.2077
 2037SOL    HW2 8275   2.472   2.142   3.786 -0.9352  0.3555 -0.4662
 2037SOL    HW3 8276   2.384   2.020   3.798  2.5388 -1.9786  2.2229
 2037SOL    MW4 8277   2.453   2.060   3.764  0.5057 -0.1359  0.0787
 2038SOL     OW 8278   1.320   2.938   4.886 -0.2543  0.3873  0.7834
 2038SOL    HW2 8279   1.330   2.934   4.981  0.9189  0.3520  0.6677
 2038SOL    HW3 8280   1.314   2.847   4.858 -0.6824  0.4002  0.8217
 2038SOL    MW4 8281   1.320   2.926   4.895 -0.1558  0.3846  0.7730
 2039SOL     OW 8282   2.029   2.273   3.348  0.3004  0.0030  0.3464
 2039SOL    HW2 8283   1.958   2.326   3.383  0.2713  0.2328 -0.0526
 2039SOL    HW3 8284   2.017   2.187   3.387  1.1348  0.6362  2.0406
 2039SOL    MW4 8285   2.018   2.269   3.357  0.4063  0.1166  0.5174
 2040SOL     OW 8286   1.828   2.398   3.472 -0.0161 -0.6405 -0.4449
 2040SOL    HW2 8287   1.833   2.406   3.567 -1.2117  1.2196 -0.5213
 2040SOL    HW3 8288   1.749   2.346   3.456  0.6938 -1.7543 -0.4096
 2040SOL    MW4 8289   1.818   2.392   3.482 -0.0803 -0.5422 -0.4504
 2041SOL     OW 8290   1.757   2.679   3.372 -0.0692 -0.1417  0.1507
 2041SOL    HW2 8291   1.834   2.706   3.421  0.7872 -1.0399 -0.6892
 2041SOL    HW3 8292   1.758   2.584   3.375 -1.2487 -0.1684  0.2790
 2041SOL    MW4 8293   1.767   2.670   3.379 -0.1118 -0.2637  0.0570
 2042SOL     OW 8294   2.257   2.671   3.376 -0.5169 -0.1402  0.1672
 2042SOL    HW2 8295   2.276   2.578   3.391  0.4668 -0.0227 -0.2677
 2042SOL    HW3 8296   2.325   2.717   3.425  1.3744  0.2720 -2.6818
 2042SOL    MW4 8297   2.269   2.665   3.384 -0.1378 -0.0703 -0.2661
 2043SOL     OW 8298   2.016   3.031   3.366 -0.3166  0.0991 -0.2444
 2043SOL    HW2 8299   2.096   3.069   3.402 -1.1690  1.5328  0.1848
 2043SOL    HW3 8300   1.946   3.089   3.397 -1.3665 -0.2994 -1.8062
 2043SOL    MW4 8301   2.017   3.044   3.375 -0.5674  0.2356 -0.3936
 2044SOL     OW 8302   1.809   3.207   3.457 -0.5652 -0.1745 -0.4277
 2044SOL    HW2 8303   1.796   3.213   3.551  0.1215 -1.4652 -0.2298
 2044SOL    HW3 8304   1.838   3.294   3.430 -0.6152  0.1502  0.5723
 2044SOL    MW4 8305   1.811   3.219   3.466 -0.4812 -0.3016 -0.2697
 2045SOL     OW 8306   1.870   3.480   3.431  0.1165  0.3214 -0.4740
 2045SOL    HW2 8307   1.785   3.519   3.452  0.2610  0.3009  0.1660
 2045SOL    HW3 8308   1.869   3.469   3.336 -1.2708 -1.1885 -0.3240
 2045SOL    MW4 8309   1.859   3.483   3.421 -0.0476  0.1194 -0.3698
 2046SOL     OW 8310   2.109   3.608   3.439  0.1146 -0.0504  0.3711
 2046SOL    HW2 8311   2.177   3.547   3.411 -0.5796 -1.2345  1.2279
 2046SOL    HW3 8312   2.030   3.554   3.447 -1.3528  1.6030 -2.2523
 2046SOL    MW4 8313   2.107   3.593   3.436 -0.1707  0.0114  0.1378
 2047SOL     OW 8314   2.056   3.882   3.391 -0.0823  0.3944  0.0521
 2047SOL    HW2 8315   1.975   3.918   3.428  0.1339 -0.0157  0.9162
 2047SOL    HW3 8316   2.059   3.791   3.421 -1.3954 -0.8600 -3.3627
 2047SOL    MW4 8317   2.046   3.875   3.399 -0.2272  0.1745 -0.2844
 2048SOL     OW 8318   1.810   3.973   3.484  0.3181  0.1115 -0.0311
 2048SOL    HW2 8319   1.802   3.980   3.579  1.0103 -0.0072  0.0370
 2048SOL    HW3 8320   1.730   3.928   3.457  1.1567 -1.9158  0.7446
 2048SOL    MW4 8321   1.798   3.968   3.493  0.5201 -0.1717  0.0803
 2049SOL     OW 8322   1.806   4.255   3.395  0.3878 -0.6590  0.4093
 2049SOL    HW2 8323   1.811   4.165   3.427  1.3183 -1.0021 -0.6619
 2049SOL    HW3 8324   1.821   4.248   3.300 -0.7690  0.4923  0.1180
 2049SOL    MW4 8325   1.809   4.243   3.386  0.3581 -0.5517  0.2294
 2050SOL     OW 8326   2.037   4.381   3.461 -0.0045 -0.2249 -0.2181
 2050SOL    HW2 8327   1.951   4.347   3.436 -0.3720  0.7594 -0.2963
 2050SOL    HW3 8328   2.041   4.469   3.423  0.1061  0.6352  1.7464
 2050SOL    MW4 8329   2.026   4.388   3.453 -0.0381  0.0181  0.0312
 2051SOL     OW 8330   2.440   4.612   3.398 -0.0424 -0.1652 -0.7822
 2051SOL    HW2 8331   2.458   4.525   3.434  0.4537  0.2187 -0.0847
 2051SOL    HW3 8332   2.433   4.598   3.303  0.9126 -0.8231 -0.7652
 2051SOL    MW4 8333   2.441   4.599   3.390  0.1493 -0.2012 -0.6878
 2052SOL     OW 8334   2.246   0.117   3.489  0.0735 -0.1701 -0.2531
 2052SOL    HW2 8335   2.275   0.201   3.453  0.4369 -0.4282 -0.5598
 2052SOL    HW3 8336   2.321   0.059   3.478 -0.0236 -0.4209  0.3598
 2052SOL    MW4 8337   2.260   0.121   3.483  0.1087 -0.2372 -0.2127
 2053SOL     OW 8338   2.232   0.385   3.388 -0.2460 -0.4058 -0.0063
 2053SOL    HW2 8339   2.302   0.434   3.432  0.1373 -0.0755 -0.9835
 2053SOL    HW3 8340   2.152   0.417   3.429  0.0993  0.0358  0.3307
 2053SOL    MW4 8341   2.231   0.396   3.399 -0.1497 -0.3040 -0.0906
 2054SOL     OW 8342   2.433   0.540   3.492 -0.3302 -0.1858  0.1286
 2054SOL    HW2 8343   2.522   0.510   3.472 -0.1801  0.4902 -0.2181
 2054SOL    HW3 8344   2.420   0.616   3.435 -1.1170 -0.2578  0.2070
 2054SOL    MW4 8345   2.443   0.546   3.482 -0.4141 -0.1062  0.0935
 2055SOL     OW 8346   2.436   0.760   3.322 -0.2978  0.0672 -0.1822
 2055SOL    HW2 8347   2.520   0.792   3.355 -0.7408  1.0427  0.0246
 2055SOL    HW3 8348   2.438   0.780   3.228 -0.4238  0.3669 -0.1211
 2055SOL    MW4 8349   2.448   0.767   3.314 -0.3729  0.2354 -0.1471
 2056SOL     OW 8350   2.237   0.879   3.475 -0.1460  0.1389 -0.1452
 2056SOL    HW2 8351   2.238   0.965   3.432 -0.4759 -0.0831 -0.6081
 2056SOL    HW3 8352   2.311   0.832   3.436 -0.5268 -0.1103 -0.5812
 2056SOL    MW4 8353   2.247   0.884   3.464 -0.2396  0.0768 -0.2639
 2057SOL     OW 8354   2.248   1.130   3.371 -0.0831  0.1423  0.0704
 2057SOL    HW2 8355   2.322   1.168   3.419  0.1263 -0.4232  0.2033
 2057SOL    HW3 8356   2.171   1.169   3.412  0.0941 -0.3828  0.9058
 2057SOL    MW4 8357   2.248   1.140   3.383 -0.0322 -0.0017  0.1984
 2058SOL     OW 8358   2.456   1.298   3.505 -0.1718 -0.0485 -0.1231
 2058SOL    HW2 8359   2.478   1.297   3.598  0.6322  0.9082 -0.2995
 2058SOL    HW3 8360   2.523   1.243   3.465 -0.8293 -0.8950 -0.0759
 2058SOL    MW4 8361   2.468   1.290   3.512 -0.1523 -0.0341 -0.1400
 2059SOL     OW 8362   2.467   1.545   3.401  0.2039 -0.4372 -0.4340
 2059SOL    HW2 8363   2.471   1.456   3.434  2.1849 -0.4025 -0.5049
 2059SOL    HW3 8364   2.546   1.587   3.436 -0.0533  0.9133 -1.4235
 2059SOL    MW4 8365   2.478   1.539   3.410  0.4311 -0.2543 -0.5739
 2060SOL     OW 8366   2.192   1.609   3.437 -0.0062 -0.2207 -0.3347
 2060SOL    HW2 8367   2.176   1.590   3.529  0.7383  1.0589  0.0763
 2060SOL    HW3 8368   2.282   1.580   3.422 -0.0987 -0.3492 -0.6406
 2060SOL    MW4 8369   2.202   1.603   3.447  0.0796 -0.0688 -0.3211
 2061SOL     OW 8370   2.255   1.890   3.387 -0.0413  0.4086  0.3440
 2061SOL    HW2 8371   2.231   1.799   3.403  0.8756  0.1422  0.2712
 2061SOL    HW3 8372   2.180   1.941   3.417 -0.7363 -0.3970 -0.0269
 2061SOL    MW4 8373   2.242   1.885   3.393 -0.0122  0.2671  0.2854
 2062SOL     OW 8374   2.476   2.037   3.465  0.1421 -0.0411  0.1215
 2062SOL    HW2 8375   2.475   2.035   3.561 -0.8763  0.9958  0.1352
 2062SOL    HW3 8376   2.397   1.990   3.439 -0.2512  0.7946 -0.1947
 2062SOL    MW4 8377   2.466   2.031   3.474 -0.0441  0.2060  0.0815
 2063SOL     OW 8378   2.494   2.294   3.360  0.1828  0.1091  0.0880
 2063SOL    HW2 8379   2.574   2.339   3.387  0.0187 -0.7027  1.9937
 2063SOL    HW3 8380   2.505   2.204   3.392 -0.7788 -0.4412 -1.0918
 2063SOL    MW4 8381   2.506   2.288   3.368  0.0341 -0.0708  0.1841
 2064SOL     OW 8382   1.988   2.072   3.735 -0.1472 -0.7127 -0.1802
 2064SOL    HW2 8383   1.918   2.025   3.780 -0.1527  0.7622  1.4461
 2064SOL    HW3 8384   1.977   2.163   3.764  1.9345 -0.3291 -0.5278
 2064SOL    MW4 8385   1.978   2.078   3.745  0.1267 -0.4678 -0.0114
 2065SOL     OW 8386   2.257   2.393   3.432 -0.5797 -0.1401  0.0299
 2065SOL    HW2 8387   2.343   2.355   3.411 -1.1328 -0.2766 -2.0415
 2065SOL    HW3 8388   2.194   2.329   3.399 -1.4977  0.2213  1.0649
 2065SOL    MW4 8389   2.260   2.379   3.425 -0.7739 -0.1101 -0.1068
 2066SOL     OW 8390   2.489   2.806   3.499  0.1965  0.4703 -0.0788
 2066SOL    HW2 8391   2.478   2.896   3.468 -2.6416 -0.4060 -1.8539
 2066SOL    HW3 8392   2.458   2.808   3.589  1.4881  1.5397  0.3623
 2066SOL    MW4 8393   2.483   2.818   3.507 -0.0074  0.4959 -0.2546
 2067SOL     OW 8394   2.478   3.062   3.384  0.4008 -0.0823 -0.0361
 2067SOL    HW2 8395   2.545   3.122   3.417 -0.1716 -0.1829  1.3772
 2067SOL    HW3 8396   2.497   3.052   3.291  0.9807  1.6672 -0.1160
 2067SOL    MW4 8397   2.490   3.068   3.376  0.4017  0.1352  0.1400
 2068SOL     OW 8398   2.237   3.197   3.445 -0.2362 -0.3592  0.5179
 2068SOL    HW2 8399   2.256   3.221   3.536  0.7845  0.7449  0.0299
 2068SOL    HW3 8400   2.312   3.145   3.418 -0.5619 -0.7272  0.3287
 2068SOL    MW4 8401   2.250   3.194   3.453 -0.1445 -0.2623  0.4284
 2069SOL     OW 8402   2.319   3.461   3.373  0.3686  0.3044 -0.4743
 2069SOL    HW2 8403   2.291   3.371   3.393  1.1391  0.5638  1.9624
 2069SOL    HW3 8404   2.300   3.472   3.280 -0.9121 -1.9572 -0.5187
 2069SOL    MW4 8405   2.313   3.451   3.364  0.3011  0.0401 -0.1588
 2070SOL     OW 8406   2.538   3.598   3.499  0.1790 -0.1846  0.0484
 2070SOL    HW2 8407   2.524   3.685   3.463  3.1612 -0.0948 -1.0494
 2070SOL    HW3 8408   2.468   3.545   3.462 -1.1593  1.5411  0.0522
 2070SOL    MW4 8409   2.527   3.603   3.489  0.3960  0.0551 -0.0958
 2071SOL     OW 8410   2.500   3.840   3.376  0.3618 -0.0757 -0.0875
 2071SOL    HW2 8411   2.578   3.886   3.408  0.3355 -0.2857  0.2862
 2071SOL    HW3 8412   2.427   3.895   3.407  0.3197 -0.5185  0.6119
 2071SOL    MW4 8413   2.500   3.854   3.384  0.3526 -0.1619  0.0544
 2072SOL     OW 8414   2.294   3.996   3.468  0.0204 -0.3669 -0.2666
 2072SOL    HW2 8415   2.296   4.085   3.433  0.9106 -0.6332 -0.9146
 2072SOL    HW3 8416   2.207   3.963   3.445  0.8801 -0.8469 -3.0325
 2072SOL    MW4 8417   2.283   4.004   3.460  0.2513 -0.4659 -0.7172
 2073SOL     OW 8418   2.267   4.261   3.375 -0.3100 -0.1352  0.2764
 2073SOL    HW2 8419   2.182   4.297   3.402 -0.5939 -0.1436 -0.6199
 2073SOL    HW3 8420   2.264   4.259   3.280  0.6971 -0.1492  0.2396
 2073SOL    MW4 8421   2.255   4.266   3.366 -0.2146 -0.1383  0.1533
 2074SOL     OW 8422   2.500   4.353   3.499  0.5787 -0.1003  0.0642
 2074SOL    HW2 8423   2.481   4.355   3.593 -2.1144  3.3390 -0.4415
 2074SOL    HW3 8424   2.421   4.315   3.460  1.2389 -0.4796 -0.9157
 2074SOL    MW4 8425   2.487   4.348   3.507  0.3102  0.3042 -0.1318
 2075SOL     OW 8426   2.919   0.006   3.444  0.1590 -0.0247 -0.1686
 2075SOL    HW2 8427   2.831   0.039   3.465  0.1099 -0.5299  0.4018
 2075SOL    HW3 8428   2.925   0.015   3.348  0.3121  2.0490  0.0095
 2075SOL    MW4 8429   2.908   0.012   3.434  0.1726  0.1822 -0.0699
 2076SOL     OW 8430   2.656   0.111   3.475 -0.2138 -0.2422  0.0975
 2076SOL    HW2 8431   2.660   0.198   3.435  0.2894 -0.0858  0.4800
 2076SOL    HW3 8432   2.580   0.070   3.435 -3.3501  2.0850  3.2925
 2076SOL    MW4 8433   2.647   0.117   3.464 -0.5615  0.0855  0.5696
 2077SOL     OW 8434   2.680   0.384   3.382  0.0128 -0.3721 -0.4771
 2077SOL    HW2 8435   2.763   0.426   3.403  0.3757 -1.4190  0.1773
 2077SOL    HW3 8436   2.675   0.388   3.286 -0.6965  2.5472 -0.3766
 2077SOL    MW4 8437   2.690   0.390   3.372 -0.0334 -0.1251 -0.3774
 2078SOL     OW 8438   2.921   0.509   3.453 -0.3613  0.0131  0.3496
 2078SOL    HW2 8439   2.926   0.515   3.548  1.8139 -0.1832  0.2587
 2078SOL    HW3 8440   2.907   0.600   3.424  1.2994  0.4082  0.7428
 2078SOL    MW4 8441   2.920   0.522   3.462  0.1447  0.0393  0.3896
 2079SOL     OW 8442   2.863   0.758   3.350  0.4064  0.6804 -0.5887
 2079SOL    HW2 8443   2.932   0.808   3.393 -0.4652  1.0517  0.4007
 2079SOL    HW3 8444   2.782   0.796   3.382 -0.2827 -1.1317 -0.1094
 2079SOL    MW4 8445   2.861   0.770   3.360  0.2005  0.4903 -0.3951
 2080SOL     OW 8446   2.643   0.885   3.464  0.9279  0.4790  0.2335
 2080SOL    HW2 8447   2.652   0.874   3.558  0.0942  1.8319  0.4942
 2080SOL    HW3 8448   2.651   0.979   3.450 -0.1946  0.4212 -0.8959
 2080SOL    MW4 8449   2.645   0.896   3.474  0.6700  0.6499  0.1190
 2081SOL     OW 8450   2.658   1.142   3.376 -0.0297  0.4971 -0.1044
 2081SOL    HW2 8451   2.735   1.194   3.399  0.1774  0.0373  0.2477
 2081SOL    HW3 8452   2.661   1.136   3.281 -0.1641  1.2998 -0.1576
 2081SOL    MW4 8453   2.669   1.148   3.367 -0.0203  0.5424 -0.0648
 2082SOL     OW 8454   2.886   1.231   3.481 -0.4512 -0.1840 -0.0202
 2082SOL    HW2 8455   2.885   1.242   3.576 -1.9816 -1.1936  0.1131
 2082SOL    HW3 8456   2.966   1.182   3.462  0.2726  0.7455  0.6584
 2082SOL    MW4 8457   2.896   1.226   3.491 -0.5577 -0.1945  0.0868
 2083SOL     OW 8458   2.933   1.503   3.408  0.1362  0.5257 -0.1025
 2083SOL    HW2 8459   2.860   1.561   3.429 -0.5719  0.3462 -1.9858
 2083SOL    HW3 8460   2.905   1.417   3.438 -0.2428  0.5442 -0.3931
 2083SOL    MW4 8461   2.920   1.499   3.415 -0.0074  0.5044 -0.3893
 2084SOL     OW 8462   2.708   1.648   3.488 -0.1423 -0.4186 -0.3405
 2084SOL    HW2 8463   2.703   1.656   3.584  1.6262  1.2190 -0.3534
 2084SOL    HW3 8464   2.689   1.735   3.455 -0.6929 -0.9698 -1.4887
 2084SOL    MW4 8465   2.705   1.660   3.497  0.0186 -0.2753 -0.4935
 2085SOL     OW 8466   2.719   1.916   3.388  0.1687 -0.1887 -0.3732
 2085SOL    HW2 8467   2.638   1.955   3.420 -0.4610 -0.1875 -1.9579
 2085SOL    HW3 8468   2.716   1.927   3.293 -0.5208 -4.9612 -1.0263
 2085SOL    MW4 8469   2.708   1.922   3.380 -0.0055 -0.8181 -0.6683
 2086SOL     OW 8470   2.954   2.027   3.504  0.3733  0.1696  0.6416
 2086SOL    HW2 8471   2.946   2.053   3.595 -0.6268  0.8216  0.3706
 2086SOL    HW3 8472   2.864   2.011   3.475  0.8810 -3.0649  0.6394
 2086SOL    MW4 8473   2.941   2.028   3.512  0.3085 -0.1714  0.6051
 2087SOL     OW 8474   2.968   2.281   3.391  0.1521  0.0609 -0.1490
 2087SOL    HW2 8475   2.966   2.191   3.423 -0.1287 -0.3809 -1.3762
 2087SOL    HW3 8476   2.969   2.273   3.296 -0.6905  1.3618 -0.2942
 2087SOL    MW4 8477   2.968   2.268   3.383  0.0041  0.1745 -0.3300
 2088SOL     OW 8478   2.722   2.405   3.467 -0.7022  0.0243  0.2038
 2088SOL    HW2 8479   2.732   2.408   3.562  1.0160  0.4039  0.0165
 2088SOL    HW3 8480   2.790   2.344   3.438 -1.4675 -0.3849 -0.7565
 2088SOL    MW4 8481   2.732   2.397   3.476 -0.5765  0.0203  0.0525
 2089SOL     OW 8482   2.703   2.684   3.376 -0.0069  0.0508  0.0476
 2089SOL    HW2 8483   2.711   2.595   3.412  1.9535 -0.0337 -0.5036
 2089SOL    HW3 8484   2.623   2.718   3.414  0.0339 -1.4075  1.5123
 2089SOL    MW4 8485   2.694   2.676   3.386  0.2570 -0.1528  0.1683
 2090SOL     OW 8486   2.931   2.832   3.432 -0.3502  0.1201  0.1894
 2090SOL    HW2 8487   2.948   2.816   3.525 -0.3836  0.9058  0.3346
 2090SOL    HW3 8488   2.848   2.788   3.415 -1.3129  1.5744  1.0022
 2090SOL    MW4 8489   2.922   2.824   3.442 -0.4818  0.4156  0.3159
 2091SOL     OW 8490   2.913   3.100   3.346 -0.0987 -0.2192  0.3142
 2091SOL    HW2 8491   2.920   3.005   3.361 -0.1549 -0.2118  0.3889
 2091SOL    HW3 8492   2.914   3.109   3.251 -0.1879 -0.3021  0.3048
 2091SOL    MW4 8493   2.914   3.088   3.336 -0.1178 -0.2291  0.3233
 2092SOL     OW 8494   2.699   3.218   3.485  0.0071  0.1601 -0.1722
 2092SOL    HW2 8495   2.716   3.206   3.579  0.1822 -0.6934 -0.3015
 2092SOL    HW3 8496   2.765   3.163   3.442 -0.8094 -0.3704 -0.7664
 2092SOL    MW4 8497   2.710   3.209   3.492 -0.0775 -0.0226 -0.2675
 2093SOL     OW 8498   2.738   3.482   3.367 -0.7081 -0.6263  0.1161
 2093SOL    HW2 8499   2.741   3.394   3.404 -1.9139 -0.6946  0.0678
 2093SOL    HW3 8500   2.671   3.527   3.419  1.3839  0.9304  1.5746
 2093SOL    MW4 8501   2.730   3.476   3.379 -0.5910 -0.4301  0.3021
 2094SOL     OW 8502   2.989   3.566   3.468  0.3027  0.4502  0.1946
 2094SOL    HW2 8503   2.992   3.660   3.448 -1.5503  0.8284  1.5046
 2094SOL    HW3 8504   2.901   3.539   3.442  0.2683 -0.5612  1.3369
 2094SOL    MW4 8505   2.978   3.575   3.462  0.0539  0.3664  0.5183
 2095SOL     OW 8506   2.979   3.859   3.391 -0.5084  0.2746 -0.5500
 2095SOL    HW2 8507   3.050   3.904   3.437 -0.4576 -0.7623  0.3916
 2095SOL    HW3 8508   2.899   3.897   3.428 -0.4654  1.0402 -1.2141
 2095SOL    MW4 8509   2.978   3.870   3.402 -0.4959  0.2384 -0.5136
 2096SOL     OW 8510   2.740   3.991   3.471  0.5657  0.3397 -0.3535
 2096SOL    HW2 8511   2.721   3.977   3.564  1.0771  0.3422 -0.2479
 2096SOL    HW3 8512   2.732   4.085   3.459 -0.3427  0.2452 -0.4994
 2096SOL    MW4 8513   2.736   4.001   3.481  0.5133  0.3276 -0.3588
 2097SOL     OW 8514   2.755   4.268   3.409 -0.0215 -0.3319 -0.2481
 2097SOL    HW2 8515   2.828   4.315   3.448 -0.5947  1.6727 -1.5474
 2097SOL    HW3 8516   2.677   4.316   3.438 -0.7137 -1.3280 -0.4102
 2097SOL    MW4 8517   2.754   4.280   3.418 -0.1884 -0.1993 -0.4411
 2098SOL     OW 8518   2.990   4.409   3.499 -0.1629 -0.0746  0.5959
 2098SOL    HW2 8519   2.956   4.404   3.588  1.3518  1.5614  1.3001
 2098SOL    HW3 8520   2.974   4.499   3.472  0.6629 -0.1713 -0.2412
 2098SOL    MW4 8521   2.984   4.420   3.507  0.1462  0.1283  0.5782
 2099SOL     OW 8522   3.393   4.625   3.396 -0.7088 -0.2668  0.2932
 2099SOL    HW2 8523   3.305   4.660   3.411 -1.7279 -1.9842 -1.5096
 2099SOL    HW3 8524   3.404   4.628   3.301  1.7414  1.2007  0.5966
 2099SOL    MW4 8525   3.383   4.630   3.386 -0.5200 -0.2999  0.0954
 2100SOL     OW 8526   3.181   0.108   3.543 -0.0178  0.5979  0.3084
 2100SOL    HW2 8527   3.174   0.191   3.496 -0.1262 -0.6267 -1.9490
 2100SOL    HW3 8528   3.098   0.063   3.523  0.7350 -0.7253  0.1264
 2100SOL    MW4 8529   3.169   0.113   3.534  0.0670  0.2617 -0.0136
 2101SOL     OW 8530   3.173   0.359   3.401  0.4391 -0.6099 -0.1825
 2101SOL    HW2 8531   3.111   0.429   3.420  2.2007  0.8393  0.3627
 2101SOL    HW3 8532   3.170   0.349   3.305  2.3587  2.3458 -0.6200
 2101SOL    MW4 8533   3.165   0.367   3.391  0.9248 -0.0288 -0.1683
 2102SOL     OW 8534   3.407   0.493   3.487  0.1909 -0.4627 -0.4899
 2102SOL    HW2 8535   3.400   0.487   3.582  0.5463 -1.2750 -0.5044
 2102SOL    HW3 8536   3.324   0.458   3.455  0.5515 -1.3250 -0.4957
 2102SOL    MW4 8537   3.395   0.487   3.495  0.2856 -0.6836 -0.4926
 2103SOL     OW 8538   3.346   0.751   3.425 -0.1107  0.3043  0.0767
 2103SOL    HW2 8539   3.423   0.801   3.451  1.3893 -2.0169  0.2708
 2103SOL    HW3 8540   3.370   0.660   3.442 -1.7377 -0.7073 -2.7532
 2103SOL    MW4 8541   3.359   0.746   3.430 -0.1273 -0.1354 -0.2713
 2104SOL     OW 8542   3.099   0.850   3.445 -0.7865 -0.3778  0.2158
 2104SOL    HW2 8543   3.102   0.943   3.421 -0.5820 -0.5086 -0.2770
 2104SOL    HW3 8544   3.190   0.821   3.439 -1.0577 -0.9887 -1.1746
 2104SOL    MW4 8545   3.112   0.859   3.441 -0.7951 -0.4757 -0.0327
 2105SOL     OW 8546   3.134   1.123   3.381 -0.1567 -0.1680 -0.4940
 2105SOL    HW2 8547   3.207   1.178   3.411 -1.2468  0.6898  0.6193
 2105SOL    HW3 8548   3.130   1.138   3.286 -0.9809  2.3470 -0.0952
 2105SOL    MW4 8549   3.143   1.132   3.372 -0.4091  0.2770 -0.2944
 2106SOL     OW 8550   3.358   1.262   3.480 -0.0958 -0.0295  0.0619
 2106SOL    HW2 8551   3.435   1.223   3.439 -1.2111 -0.5392 -1.5981
 2106SOL    HW3 8552   3.351   1.349   3.440 -1.1140 -0.4808 -0.7572
 2106SOL    MW4 8553   3.367   1.268   3.469 -0.3772 -0.1562 -0.2654
 2107SOL     OW 8554   3.384   1.532   3.385 -0.1713 -0.0568 -0.0695
 2107SOL    HW2 8555   3.461   1.574   3.422 -0.4222  1.6458 -1.3659
 2107SOL    HW3 8556   3.310   1.582   3.419 -0.5613 -0.2522 -0.6090
 2107SOL    MW4 8557   3.384   1.544   3.394 -0.2558  0.1420 -0.3119
 2108SOL     OW 8558   3.176   1.663   3.501  0.2086 -0.0906  0.0125
 2108SOL    HW2 8559   3.176   1.744   3.449  1.1292 -1.3010 -1.9241
 2108SOL    HW3 8560   3.100   1.615   3.470 -0.2452 -0.0547  1.0522
 2108SOL    MW4 8561   3.166   1.668   3.490  0.2701 -0.2457 -0.1061
 2109SOL     OW 8562   3.189   1.911   3.371 -0.4687  0.1091 -0.0788
 2109SOL    HW2 8563   3.098   1.936   3.388 -0.4603 -0.2483  0.5120
 2109SOL    HW3 8564   3.190   1.888   3.278 -1.0164 -0.0155 -0.0583
 2109SOL    MW4 8565   3.177   1.911   3.361 -0.5398  0.0455  0.0017
 2110SOL     OW 8566   3.361   2.093   3.484  0.0082  0.2542 -0.0471
 2110SOL    HW2 8567   3.361   2.172   3.430  0.4933  0.1142 -0.2502
 2110SOL    HW3 8568   3.297   2.035   3.443  0.0696  0.3149 -0.2271
 2110SOL    MW4 8569   3.353   2.096   3.472  0.0803  0.2437 -0.0978
 2111SOL     OW 8570   3.378   2.358   3.353  0.7331  0.4080 -0.1022
 2111SOL    HW2 8571   3.456   2.394   3.396  1.9713 -0.8989 -1.1930
 2111SOL    HW3 8572   3.305   2.397   3.400  2.0437  1.2179  1.3289
 2111SOL    MW4 8573   3.379   2.368   3.365  1.0693  0.3424 -0.0575
 2112SOL     OW 8574   3.145   2.471   3.482 -0.2429  0.0765 -0.2333
 2112SOL    HW2 8575   3.141   2.554   3.436  0.6760  0.4905  0.4410
 2112SOL    HW3 8576   3.081   2.416   3.436 -1.7088  1.4981  0.0371
 2112SOL    MW4 8577   3.136   2.474   3.469 -0.3152  0.3185 -0.1090
 2113SOL     OW 8578   3.148   2.691   3.326  0.0413  0.7506 -0.0451
 2113SOL    HW2 8579   3.229   2.721   3.368  0.6824  1.2473 -1.6001
 2113SOL    HW3 8580   3.080   2.750   3.359  0.5930  1.3500  0.0159
 2113SOL    MW4 8581   3.150   2.703   3.336  0.1988  0.8953 -0.2420
 2114SOL     OW 8582   3.367   2.786   3.450  0.4179 -0.1073 -0.4231
 2114SOL    HW2 8583   3.448   2.743   3.422  1.5216  1.0612  0.9401
 2114SOL    HW3 8584   3.380   2.878   3.429  0.2871  0.4126  1.6518
 2114SOL    MW4 8585   3.379   2.792   3.444  0.5462  0.1154  0.0305
 2115SOL     OW 8586   3.391   3.058   3.369  0.0634  0.2896 -0.2045
 2115SOL    HW2 8587   3.467   3.087   3.420  1.0373  0.2286 -1.5829
 2115SOL    HW3 8588   3.316   3.085   3.421  1.0189  1.0039  0.8451
 2115SOL    MW4 8589   3.391   3.066   3.383  0.3181  0.3757 -0.2480
 2116SOL     OW 8590   3.147   3.170   3.478  0.0195 -0.4748  0.0873
 2116SOL    HW2 8591   3.168   3.258   3.448 -2.8243  0.7961  1.5524
 2116SOL    HW3 8592   3.073   3.143   3.424 -0.6650 -0.9672  1.2367
 2116SOL    MW4 8593   3.140   3.178   3.467 -0.4461 -0.3719  0.4320
 2117SOL     OW 8594   3.184   3.413   3.371 -0.3848 -0.1232  0.0317
 2117SOL    HW2 8595   3.108   3.462   3.400 -0.4219  0.0366 -0.3301
 2117SOL    HW3 8596   3.180   3.417   3.275  0.9067  1.1579  0.0259
 2117SOL    MW4 8597   3.173   3.420   3.362 -0.2191  0.0668 -0.0167
 2118SOL     OW 8598   3.362   3.581   3.504  0.3742 -0.3404 -0.2720
 2118SOL    HW2 8599   3.361   3.670   3.469  0.3653 -0.2723 -0.1008
 2118SOL    HW3 8600   3.308   3.530   3.444  1.1914 -0.4425 -0.9332
 2118SOL    MW4 8601   3.355   3.586   3.492  0.4809 -0.3448 -0.3366
 2119SOL     OW 8602   3.424   3.866   3.442  0.3148 -0.1356 -0.1788
 2119SOL    HW2 8603   3.496   3.921   3.471 -0.2916  0.0857  0.9131
 2119SOL    HW3 8604   3.345   3.911   3.472 -0.3389  0.1757 -2.3032
 2119SOL    MW4 8605   3.423   3.879   3.450  0.1488 -0.0656 -0.3147
 2120SOL     OW 8606   3.186   3.993   3.507  0.4649  0.2437  0.2105
 2120SOL    HW2 8607   3.154   3.999   3.597 -0.3946 -0.7688 -0.0162
 2120SOL    HW3 8608   3.182   4.082   3.474  1.7439  0.8101  1.4849
 2120SOL    MW4 8609   3.182   4.006   3.515  0.5205  0.1850  0.3486
 2121SOL     OW 8610   3.178   4.231   3.377  0.1636  0.4501  0.2018
 2121SOL    HW2 8611   3.264   4.269   3.393  0.1831  0.4921 -0.0019
 2121SOL    HW3 8612   3.116   4.294   3.416  0.2351  0.3062  0.5485
 2121SOL    MW4 8613   3.181   4.245   3.384  0.1755  0.4363  0.2205
 2122SOL     OW 8614   3.410   4.372   3.490  0.3283  0.1897  0.1587
 2122SOL    HW2 8615   3.408   4.381   3.585 -0.8177 -0.6280  0.2192
 2122SOL    HW3 8616   3.394   4.460   3.457 -1.0655  0.1586  0.7317
 2122SOL    MW4 8617   3.408   4.385   3.498 -0.0072  0.0772  0.2422
 2123SOL     OW 8618   3.816   0.007   3.411  0.3158  0.2397 -0.0391
 2123SOL    HW2 8619   3.749   0.064   3.450 -0.7841 -0.5271 -0.7628
 2123SOL    HW3 8620   3.807   0.021   3.316 -0.4888 -1.6646 -0.2812
 2123SOL    MW4 8621   3.806   0.016   3.403  0.0646 -0.1125 -0.1664
 2124SOL     OW 8622   3.585   0.123   3.542  0.1483 -0.2470  0.0120
 2124SOL    HW2 8623   3.603   0.203   3.492 -0.5513 -0.7886 -1.1254
 2124SOL    HW3 8624   3.516   0.079   3.492 -0.6177 -0.7594  1.5039
 2124SOL    MW4 8625   3.578   0.128   3.528 -0.0453 -0.3860  0.0587
 2125SOL     OW 8626   3.641   0.362   3.396 -0.2283 -0.3679  0.0383
 2125SOL    HW2 8627   3.712   0.422   3.418 -0.5568  0.9694 -2.3212
 2125SOL    HW3 8628   3.563   0.401   3.434 -0.1141 -0.3767  0.2760
 2125SOL    MW4 8629   3.640   0.375   3.404 -0.2565 -0.1926 -0.2418
 2126SOL     OW 8630   3.847   0.522   3.496 -0.8447 -0.2021  0.2934
 2126SOL    HW2 8631   3.832   0.530   3.590 -1.5923 -2.4782  0.3846
 2126SOL    HW3 8632   3.926   0.468   3.489  1.1179  2.6137 -0.3750
 2126SOL    MW4 8633   3.856   0.516   3.508 -0.6845 -0.1309  0.2172
 2127SOL     OW 8634   3.824   0.777   3.395  0.4592  0.3254 -0.4275
 2127SOL    HW2 8635   3.887   0.831   3.443  0.5019  0.3474 -0.5077
 2127SOL    HW3 8636   3.835   0.690   3.432 -0.4761  0.6172  0.5546
 2127SOL    MW4 8637   3.834   0.773   3.406  0.3414  0.3669 -0.3085
 2128SOL     OW 8638   3.578   0.884   3.496 -0.3779  0.2621 -0.0383
 2128SOL    HW2 8639   3.578   0.892   3.591 -0.4150 -0.7836  0.0509
 2128SOL    HW3 8640   3.664   0.849   3.475 -0.4238  0.3531 -0.3825
 2128SOL    MW4 8641   3.589   0.881   3.505 -0.3886  0.1361 -0.0718
 2129SOL     OW 8642   3.605   1.144   3.392 -0.3042 -0.1810 -0.6690
 2129SOL    HW2 8643   3.600   1.051   3.415  3.4798 -0.1082  0.7619
 2129SOL    HW3 8644   3.591   1.146   3.297 -0.6484 -2.1604 -0.6927
 2129SOL    MW4 8645   3.602   1.132   3.383  0.1497 -0.4327 -0.4835
 2130SOL     OW 8646   3.803   1.340   3.483  0.3751 -0.2988 -0.6506
 2130SOL    HW2 8647   3.794   1.322   3.576  0.9642 -1.4777 -0.8114
 2130SOL    HW3 8648   3.740   1.281   3.441 -0.2736  0.6118 -0.9676
 2130SOL    MW4 8649   3.793   1.330   3.490  0.3674 -0.3341 -0.7136
 2131SOL     OW 8650   3.847   1.589   3.392 -0.2273  0.1700  0.5352
 2131SOL    HW2 8651   3.834   1.497   3.417 -0.2221  0.2807  0.9571
 2131SOL    HW3 8652   3.935   1.609   3.426  0.7894 -0.3798 -1.6823
 2131SOL    MW4 8653   3.857   1.579   3.400 -0.0925  0.1119  0.2983
 2132SOL     OW 8654   3.603   1.663   3.504  0.2384  0.0223  0.5098
 2132SOL    HW2 8655   3.578   1.749   3.468  1.1345  0.5864  1.2105
 2132SOL    HW3 8656   3.686   1.642   3.462 -0.0055 -0.5228  0.3061
 2132SOL    MW4 8657   3.610   1.672   3.494  0.3245  0.0247  0.5753
 2133SOL     OW 8658   3.588   1.921   3.395 -0.2793 -0.3426  0.1555
 2133SOL    HW2 8659   3.669   1.961   3.428  0.9055 -0.9331 -1.9563
 2133SOL    HW3 8660   3.518   1.974   3.433  1.0697  0.2073  1.9962
 2133SOL    MW4 8661   3.589   1.933   3.405  0.0548 -0.3479  0.1194
 2134SOL     OW 8662   3.830   2.049   3.467  0.1813  0.1498  0.6147
 2134SOL    HW2 8663   3.901   1.988   3.446 -0.1555 -0.5554  1.5045
 2134SOL    HW3 8664   3.826   2.049   3.563  0.0999  1.4927  0.6275
 2134SOL    MW4 8665   3.839   2.041   3.477  0.1261  0.2341  0.7336
 2135SOL     OW 8666   3.832   2.309   3.354 -0.3450 -0.4736 -0.0267
 2135SOL    HW2 8667   3.846   2.229   3.405 -0.4788  0.3539  1.3398
 2135SOL    HW3 8668   3.755   2.350   3.395  0.2818  0.8137 -0.1063
 2135SOL    MW4 8669   3.824   2.304   3.366 -0.2801 -0.1948  0.1431
 2136SOL     OW 8670   3.624   2.433   3.502  0.1792 -0.1397 -0.2635
 2136SOL    HW2 8671   3.600   2.429   3.594 -1.0772 -0.9302 -0.6079
 2136SOL    HW3 8672   3.630   2.527   3.483  2.2831  0.0130  1.0669
 2136SOL    MW4 8673   3.622   2.445   3.511  0.2911 -0.2239 -0.1333
 2137SOL     OW 8674   3.616   2.679   3.383 -0.3070 -0.1615 -0.1136
 2137SOL    HW2 8675   3.695   2.733   3.390  0.0526 -0.7045  0.0178
 2137SOL    HW3 8676   3.595   2.681   3.289  0.6303 -1.1068 -0.3533
 2137SOL    MW4 8677   3.624   2.687   3.371 -0.1359 -0.3579 -0.1276
 2138SOL     OW 8678   3.857   2.824   3.453 -0.7760  0.1748 -0.2716
 2138SOL    HW2 8679   3.852   2.816   3.548  2.4129  0.9384  0.0137
 2138SOL    HW3 8680   3.850   2.918   3.437 -0.8837  0.0833 -0.7548
 2138SOL    MW4 8681   3.856   2.835   3.464 -0.3695  0.2632 -0.2978
 2139SOL     OW 8682   3.821   3.096   3.378  0.2679 -0.4254  0.1453
 2139SOL    HW2 8683   3.877   3.162   3.419  0.8336 -0.1190 -1.0868
 2139SOL    HW3 8684   3.843   3.100   3.285 -0.1460 -1.9079 -0.0427
 2139SOL    MW4 8685   3.831   3.105   3.371  0.2880 -0.5805 -0.0420
 2140SOL     OW 8686   3.604   3.164   3.504 -0.2566 -0.1501  0.1605
 2140SOL    HW2 8687   3.590   3.255   3.481 -1.4899 -0.4442 -0.2919
 2140SOL    HW3 8688   3.684   3.139   3.458  0.0337  0.6655  0.2165
 2140SOL    MW4 8689   3.613   3.173   3.495 -0.3810 -0.0815  0.1080
 2141SOL     OW 8690   3.584   3.439   3.437 -0.7319 -0.6797  0.5147
 2141SOL    HW2 8691   3.506   3.488   3.463 -0.2118  0.2527  0.3209
 2141SOL    HW3 8692   3.589   3.452   3.342 -0.6832 -1.2589  0.4309
 2141SOL    MW4 8693   3.574   3.447   3.428 -0.6571 -0.6332  0.4780
 2142SOL     OW 8694   3.819   3.566   3.505  0.2561  0.0630  0.1309
 2142SOL    HW2 8695   3.832   3.574   3.599 -0.3593  0.4592  0.1830
 2142SOL    HW3 8696   3.734   3.522   3.496 -0.7944  2.0997 -0.2582
 2142SOL    MW4 8697   3.809   3.561   3.516  0.0365  0.3841  0.0863
 2143SOL     OW 8698   3.792   3.814   3.384  0.1729  0.2607  0.0086
 2143SOL    HW2 8699   3.726   3.873   3.418 -0.2358  0.1786 -0.6388
 2143SOL    HW3 8700   3.774   3.730   3.426 -0.1291  0.2396 -0.1665
 2143SOL    MW4 8701   3.781   3.811   3.394  0.0792  0.2472 -0.0999
 2144SOL     OW 8702   3.647   4.004   3.536  0.5353 -0.6758  0.0087
 2144SOL    HW2 8703   3.616   4.015   3.626  0.2935  0.4010 -0.2029
 2144SOL    HW3 8704   3.646   4.092   3.499  1.4216 -0.9979 -0.7989
 2144SOL    MW4 8705   3.643   4.017   3.543  0.6204 -0.5760 -0.1256
 2145SOL     OW 8706   3.653   4.272   3.389 -0.6885  0.3434 -0.1306
 2145SOL    HW2 8707   3.570   4.302   3.425 -1.8524 -1.5869 -1.1013
 2145SOL    HW3 8708   3.639   4.268   3.295  0.6558  0.4123 -0.3487
 2145SOL    MW4 8709   3.641   4.275   3.381 -0.6647  0.0978 -0.2873
 2146SOL     OW 8710   3.848   4.421   3.507 -0.5030 -0.0403 -0.3232
 2146SOL    HW2 8711   3.782   4.370   3.461  0.8258 -0.0644 -2.2663
 2146SOL    HW3 8712   3.833   4.511   3.479 -0.4408  0.1130  0.1264
 2146SOL    MW4 8713   3.838   4.426   3.498 -0.3195 -0.0234 -0.5200
 2147SOL     OW 8714   4.241   4.630   3.378  0.2397 -0.0529  0.4517
 2147SOL    HW2 8715   4.243   4.538   3.406  0.1913  0.1737  1.2165
 2147SOL    HW3 8716   4.315   4.670   3.424  1.1532 -0.0299 -1.0297
 2147SOL    MW4 8717   4.251   4.623   3.388  0.3543 -0.0200  0.3574
 2148SOL     OW 8718   4.039   0.109   3.505  0.2837  0.0869 -0.6754
 2148SOL    HW2 8719   4.109   0.049   3.479  1.4616  0.9837  0.3126
 2148SOL    HW3 8720   3.959   0.068   3.475  1.2450 -0.9974 -1.7959
 2148SOL    MW4 8721   4.038   0.096   3.498  0.5660  0.0622 -0.6928
 2149SOL     OW 8722   4.082   0.359   3.411 -0.0504 -0.0223  0.2281
 2149SOL    HW2 8723   4.066   0.268   3.434 -0.7768  0.0442  0.0212
 2149SOL    HW3 8724   4.082   0.360   3.315 -0.1272  0.2028  0.2291
 2149SOL    MW4 8725   4.080   0.347   3.402 -0.1564  0.0162  0.2012
 2150SOL     OW 8726   4.292   0.524   3.541 -0.2813 -0.2467 -0.1809
 2150SOL    HW2 8727   4.273   0.614   3.516 -2.0364 -0.0607  1.7108
 2150SOL    HW3 8728   4.222   0.473   3.501  0.2505 -0.6792 -0.5668
 2150SOL    MW4 8729   4.280   0.529   3.532 -0.4425 -0.2792  0.0179
 2151SOL     OW 8730   4.274   0.785   3.433 -0.2234 -0.3611 -0.6862
 2151SOL    HW2 8731   4.365   0.807   3.456 -0.6390  1.5345 -0.7486
 2151SOL    HW3 8732   4.274   0.780   3.338 -0.6659  2.1569 -0.8742
 2151SOL    MW4 8733   4.286   0.787   3.424 -0.3362  0.2212 -0.7191
 2152SOL     OW 8734   4.023   0.900   3.530 -1.5032  0.6605  0.4156
 2152SOL    HW2 8735   4.027   0.990   3.496 -1.6656  0.4999 -0.0263
 2152SOL    HW3 8736   4.101   0.858   3.496 -2.3199  0.1202 -0.8536
 2152SOL    MW4 8737   4.033   0.906   3.521 -1.6327  0.5680  0.1900
 2153SOL     OW 8738   4.020   1.165   3.423  0.0164 -0.2981  0.3787
 2153SOL    HW2 8739   4.099   1.210   3.454  0.7122  0.6130 -2.5465
 2153SOL    HW3 8740   3.948   1.221   3.449  0.7868  1.9211 -2.0125
 2153SOL    MW4 8741   4.021   1.178   3.430  0.2093  0.1149 -0.3231
 2154SOL     OW 8742   4.267   1.272   3.522  0.0376 -0.2317  0.4837
 2154SOL    HW2 8743   4.268   1.350   3.466 -0.9113 -0.2494  0.4384
 2154SOL    HW3 8744   4.348   1.226   3.500  0.4093  0.5303  0.2186
 2154SOL    MW4 8745   4.278   1.276   3.512 -0.0381 -0.1334  0.4427
 2155SOL     OW 8746   4.312   1.531   3.361  0.2193 -0.6892 -0.1376
 2155SOL    HW2 8747   4.234   1.571   3.399  0.3770 -0.1670 -0.3647
 2155SOL    HW3 8748   4.305   1.549   3.267 -0.2322 -2.0800 -0.3851
 2155SOL    MW4 8749   4.300   1.538   3.354  0.1807 -0.8038 -0.2003
 2156SOL     OW 8750   4.098   1.639   3.490  0.1693  0.0032  0.0527
 2156SOL    HW2 8751   4.106   1.654   3.585  1.1712 -0.5966  0.0740
 2156SOL    HW3 8752   4.099   1.727   3.452 -0.4838  0.2572  0.6133
 2156SOL    MW4 8753   4.099   1.653   3.498  0.2155 -0.0423  0.1297
 2157SOL     OW 8754   4.072   1.894   3.402 -0.0990 -0.2814  0.0968
 2157SOL    HW2 8755   4.131   1.967   3.424  0.1174 -0.5886  0.5442
 2157SOL    HW3 8756   4.072   1.892   3.306 -0.2728  0.4451  0.0786
 2157SOL    MW4 8757   4.080   1.903   3.392 -0.0930 -0.2261  0.1533
 2158SOL     OW 8758   4.280   2.093   3.501  0.4476  0.5855  0.3427
 2158SOL    HW2 8759   4.278   2.182   3.465 -0.5532 -0.1708 -1.5588
 2158SOL    HW3 8760   4.356   2.052   3.459  1.2908  0.7204  1.7063
 2158SOL    MW4 8761   4.290   2.099   3.491  0.4268  0.5038  0.2716
 2159SOL     OW 8762   4.309   2.368   3.405  0.4591  0.0452 -0.1468
 2159SOL    HW2 8763   4.223   2.396   3.436  0.0491 -1.8691  0.5242
 2159SOL    HW3 8764   4.309   2.386   3.311  0.1685  2.1075  0.2435
 2159SOL    MW4 8765   4.298   2.374   3.397  0.3662  0.0646 -0.0064
 2160SOL     OW 8766   4.057   2.446   3.472  0.1398  0.3924  0.0861
 2160SOL    HW2 8767   4.045   2.443   3.567  0.6979 -0.7805  0.1211
 2160SOL    HW3 8768   3.987   2.391   3.437 -0.8252  1.8069 -0.2618
 2160SOL    MW4 8769   4.046   2.438   3.480  0.0858  0.4244  0.0448
 2161SOL     OW 8770   4.080   2.719   3.368 -0.5369  0.5742 -0.2794
 2161SOL    HW2 8771   4.082   2.625   3.386  1.1163  0.8937  1.4596
 2161SOL    HW3 8772   3.996   2.748   3.403 -0.9201 -0.1951 -0.5431
 2161SOL    MW4 8773   4.069   2.710   3.375 -0.3691  0.5147 -0.0849
 2162SOL     OW 8774   4.300   2.809   3.499  0.3478 -0.4938 -0.3189
 2162SOL    HW2 8775   4.278   2.786   3.589  0.1424  0.4619 -0.1150
 2162SOL    HW3 8776   4.222   2.786   3.449 -0.5072  1.3246  0.1452
 2162SOL    MW4 8777   4.287   2.803   3.504  0.2084 -0.1278 -0.2306
 2163SOL     OW 8778   4.268   3.075   3.406 -0.1560 -0.0187  0.2326
 2163SOL    HW2 8779   4.291   2.989   3.439  1.2255  0.8069  1.4846
 2163SOL    HW3 8780   4.256   3.063   3.312  1.6694 -1.2456  0.1408
 2163SOL    MW4 8781   4.269   3.062   3.398  0.2670 -0.0715  0.3855
 2164SOL     OW 8782   4.020   3.245   3.507  0.4316 -0.2096  0.0467
 2164SOL    HW2 8783   4.024   3.324   3.452 -0.5598  1.2316  1.9821
 2164SOL    HW3 8784   4.098   3.195   3.482  1.4336  1.6869 -0.7671
 2164SOL    MW4 8785   4.031   3.249   3.496  0.4325  0.2308  0.1948
 2165SOL     OW 8786   4.032   3.477   3.359 -0.4549  0.2019  0.0027
 2165SOL    HW2 8787   4.109   3.518   3.399 -0.0158  0.6283 -1.2489
 2165SOL    HW3 8788   3.958   3.511   3.410  0.1549  0.0164  1.0271
 2165SOL    MW4 8789   4.032   3.487   3.371 -0.3171  0.2339 -0.0274
 2166SOL     OW 8790   4.246   3.578   3.474  0.0755 -0.2963 -0.6873
 2166SOL    HW2 8791   4.247   3.592   3.569  0.7711  0.5496 -0.8064
 2166SOL    HW3 8792   4.335   3.550   3.453  0.0151 -0.1662 -1.1293
 2166SOL    MW4 8793   4.258   3.576   3.484  0.1588 -0.1676 -0.7613
 2167SOL     OW 8794   4.242   3.852   3.388  0.0269 -0.2227 -0.3735
 2167SOL    HW2 8795   4.311   3.891   3.441 -1.0313  0.7753  0.3141
 2167SOL    HW3 8796   4.240   3.761   3.415  1.4737 -0.3972 -0.8368
 2167SOL    MW4 8797   4.251   3.845   3.399  0.0792 -0.1140 -0.3438
 2168SOL     OW 8798   4.015   3.981   3.477  0.1223  0.1175  0.2116
 2168SOL    HW2 8799   4.095   3.942   3.443 -0.0187  2.0920 -2.5686
 2168SOL    HW3 8800   3.945   3.940   3.427 -0.3359  1.0160  0.1095
 2168SOL    MW4 8801   4.016   3.971   3.466  0.0434  0.4966 -0.1686
 2169SOL     OW 8802   4.043   4.239   3.401 -0.0079 -0.3689  0.2655
 2169SOL    HW2 8803   4.044   4.146   3.420  0.7234 -0.2616  0.7642
 2169SOL    HW3 8804   3.989   4.278   3.469  0.5414 -0.3029  0.6687
 2169SOL    MW4 8805   4.036   4.232   3.412  0.1612 -0.3462  0.3846
 2170SOL     OW 8806   4.283   4.370   3.445 -0.2002 -0.1828 -0.1142
 2170SOL    HW2 8807   4.289   4.363   3.540  0.0924  1.1566 -0.0153
 2170SOL    HW3 8808   4.197   4.334   3.424 -0.8334  0.7403  0.8082
 2170SOL    MW4 8809   4.272   4.365   3.455 -0.2456  0.1154  0.0205
 2171SOL     OW 8810   0.209   4.604   3.852 -0.0167 -0.2524  0.1925
 2171SOL    HW2 8811   0.137   4.649   3.810 -0.1895 -1.3002 -0.6612
 2171SOL    HW3 8812   0.171   4.564   3.930  0.0008  0.5305  0.6068
 2171SOL    MW4 8813   0.195   4.604   3.857 -0.0372 -0.2871  0.1345
 2172SOL     OW 8814   4.455   0.047   3.769  0.5174 -0.3039  0.3606
 2172SOL    HW2 8815   4.458   0.128   3.820 -0.2815 -0.4011  0.5696
 2172SOL    HW3 8816   4.465   0.076   3.679  0.7012 -0.0127  0.4727
 2172SOL    MW4 8817   4.456   0.061   3.764  0.4368 -0.2783  0.4027
 2173SOL     OW 8818   0.037   0.309   3.920  0.2286  0.2081  0.1534
 2173SOL    HW2 8819  -0.049   0.351   3.914  0.3986  0.5885  0.3291
 2173SOL    HW3 8820   0.093   0.361   3.863  0.1058 -0.6610 -0.7645
 2173SOL    MW4 8821   0.033   0.322   3.912  0.2348  0.1436  0.0556
 2174SOL     OW 8822   0.242   0.473   3.820  0.2388 -0.4731  0.4266
 2174SOL    HW2 8823   0.234   0.564   3.851  0.1789 -0.1380 -0.5553
 2174SOL    HW3 8824   0.259   0.481   3.726  2.6077 -1.4054  0.7398
 2174SOL    MW4 8825   0.243   0.486   3.812  0.5434 -0.5519  0.3383
 2175SOL     OW 8826   0.250   0.732   3.895 -0.1687 -0.1054 -0.0432
 2175SOL    HW2 8827   0.325   0.779   3.859  0.1058  0.4014  1.1761
 2175SOL    HW3 8828   0.174   0.781   3.864  0.0332 -0.0365 -0.4443
 2175SOL    MW4 8829   0.250   0.744   3.886 -0.1059 -0.0294  0.0648
 2176SOL     OW 8830   0.002   0.872   3.814 -0.0578  0.1681  0.0755
 2176SOL    HW2 8831  -0.067   0.813   3.845 -0.3949  0.0656 -0.8279
 2176SOL    HW3 8832  -0.013   0.954   3.861  1.0769 -0.7923  2.1450
 2176SOL    MW4 8833  -0.009   0.875   3.824  0.0477  0.0278  0.2291
 2177SOL     OW 8834   4.428   1.128   3.941 -0.5798  0.0156  0.4067
 2177SOL    HW2 8835   4.358   1.162   3.885 -0.2671  0.9336  0.5617
 2177SOL    HW3 8836   4.402   1.152   4.030 -0.5756 -0.5507  0.5635
 2177SOL    MW4 8837   4.416   1.136   3.945 -0.5379  0.0620  0.4480
 2178SOL     OW 8838   0.176   1.257   3.798 -0.2934  0.0345 -0.3427
 2178SOL    HW2 8839   0.106   1.230   3.858 -0.1588  1.7994  0.6265
 2178SOL    HW3 8840   0.253   1.211   3.830 -0.1249  1.2995  1.1394
 2178SOL    MW4 8841   0.177   1.247   3.810 -0.2534  0.4343 -0.0193
 2179SOL     OW 8842   1.978   1.866   4.459 -0.1428 -0.0514 -0.4062
 2179SOL    HW2 8843   1.885   1.854   4.441 -1.1486  0.6366  3.7983
 2179SOL    HW3 8844   1.994   1.959   4.443 -0.0256 -0.2641 -1.5943
 2179SOL    MW4 8845   1.968   1.876   4.454 -0.2601  0.0112 -0.0081
 2180SOL     OW 8846   0.275   1.529   3.859  0.2762  0.1059  0.1410
 2180SOL    HW2 8847   0.297   1.529   3.952  0.3460  0.4455  0.1247
 2180SOL    HW3 8848   0.272   1.436   3.835  1.0781  0.0367  0.2899
 2180SOL    MW4 8849   0.278   1.517   3.868  0.3912  0.1416  0.1583
 2181SOL     OW 8850   2.691   1.684   4.222 -0.3000 -0.1525  0.2852
 2181SOL    HW2 8851   2.638   1.757   4.189  0.4428 -0.5846 -1.9151
 2181SOL    HW3 8852   2.686   1.692   4.317 -1.5897  1.7799  0.0777
 2181SOL    MW4 8853   2.683   1.695   4.230 -0.3719  0.0454 -0.0324
 2182SOL     OW 8854   3.400   0.333   4.207  0.5504 -0.3886 -0.0143
 2182SOL    HW2 8855   3.433   0.243   4.215  0.5931 -0.3390  0.4026
 2182SOL    HW3 8856   3.479   0.387   4.202  0.5295 -0.3354  0.2132
 2182SOL    MW4 8857   3.415   0.328   4.208  0.5531 -0.3750  0.0706
 2183SOL     OW 8858   2.756   1.185   4.649  0.0643 -0.2858 -0.3692
 2183SOL    HW2 8859   2.712   1.203   4.732  1.0358 -1.0124  0.3006
 2183SOL    HW3 8860   2.715   1.105   4.616  0.7115 -0.8188  0.1284
 2183SOL    MW4 8861   2.745   1.177   4.655  0.2778 -0.4522 -0.2151
 2184SOL     OW 8862   0.015   2.475   3.747 -0.2067 -0.3656 -0.0332
 2184SOL    HW2 8863  -0.058   2.419   3.773  0.8973 -1.5264  0.5811
 2184SOL    HW3 8864   0.002   2.555   3.799 -0.9142 -0.6471  0.2424
 2184SOL    MW4 8865   0.003   2.478   3.758 -0.1543 -0.5560  0.0842
 2185SOL     OW 8866   0.897   3.979   4.525  0.0479 -0.3152 -0.2995
 2185SOL    HW2 8867   0.922   3.910   4.587 -0.9009 -0.4574 -0.0670
 2185SOL    HW3 8868   0.970   4.042   4.528  0.1719 -0.4991  0.7009
 2185SOL    MW4 8869   0.910   3.979   4.534 -0.0609 -0.3583 -0.1369
 2186SOL     OW 8870   0.244   2.792   3.784 -0.5008 -0.0779  0.4972
 2186SOL    HW2 8871   0.241   2.883   3.814 -0.5604 -0.2207  0.9281
 2186SOL    HW3 8872   0.243   2.798   3.688 -2.5369  0.3125  0.5223
 2186SOL    MW4 8873   0.244   2.805   3.775 -0.7773 -0.0453  0.5574
 2187SOL     OW 8874   0.270   3.073   3.872 -0.4266  0.2893  0.7322
 2187SOL    HW2 8875   0.283   3.050   3.964  0.9116 -0.4026  0.3736
 2187SOL    HW3 8876   0.350   3.118   3.847  0.8210 -2.8717 -1.1351
 2187SOL    MW4 8877   0.282   3.076   3.881 -0.0855 -0.2191  0.4385
 2188SOL     OW 8878   0.035   3.209   3.788 -0.4528 -0.5873  0.1619
 2188SOL    HW2 8879   0.114   3.165   3.821  0.0223  0.8588  1.0300
 2188SOL    HW3 8880   0.034   3.190   3.694 -0.3595 -2.5710  0.5442
 2188SOL    MW4 8881   0.046   3.200   3.780 -0.3778 -0.6585  0.3266
 2189SOL     OW 8882   4.469   3.474   3.795 -0.8985  0.1773  0.6670
 2189SOL    HW2 8883   4.550   3.504   3.754 -1.0269  0.8851  0.9244
 2189SOL    HW3 8884   4.477   3.378   3.797 -0.2499  0.2234  0.3239
 2189SOL    MW4 8885   4.481   3.465   3.790 -0.8299  0.2770  0.6557
 2190SOL     OW 8886   0.233   3.565   3.715  0.1169  0.0207  0.0789
 2190SOL    HW2 8887   0.224   3.645   3.767  0.1886 -0.7013  1.2281
 2190SOL    HW3 8888   0.291   3.510   3.767  0.8437 -0.4106 -1.1618
 2190SOL    MW4 8889   0.240   3.568   3.729  0.2222 -0.1316  0.0668
 2191SOL     OW 8890   0.221   3.809   3.838  0.2317 -0.0539  0.1956
 2191SOL    HW2 8891   0.154   3.873   3.815 -0.9738 -1.1922  0.5034
 2191SOL    HW3 8892   0.233   3.819   3.932 -0.3019 -0.6056  0.3237
 2191SOL    MW4 8893   0.214   3.819   3.847  0.0023 -0.2770  0.2530
 2192SOL     OW 8894   0.240   3.850   3.433 -0.0348  0.3352  0.1660
 2192SOL    HW2 8895   0.301   3.916   3.463 -0.2932 -0.0145  1.4714
 2192SOL    HW3 8896   0.155   3.877   3.468  0.0898 -1.4250  1.9116
 2192SOL    MW4 8897   0.237   3.862   3.441 -0.0524  0.0567  0.5686
 2193SOL     OW 8898   0.020   4.235   3.858 -0.0417  0.0426 -0.2098
 2193SOL    HW2 8899   0.089   4.291   3.824  0.3016 -0.5245 -0.4563
 2193SOL    HW3 8900   0.027   4.242   3.953 -0.8037  1.3907 -0.2316
 2193SOL    MW4 8901   0.030   4.243   3.866 -0.0969  0.1459 -0.2453
 2194SOL     OW 8902   0.238   4.361   3.749 -0.2817  0.2443  0.4541
 2194SOL    HW2 8903   0.315   4.322   3.789  0.7787  0.4978 -1.3042
 2194SOL    HW3 8904   0.231   4.447   3.790  1.8421  1.2209 -1.1272
 2194SOL    MW4 8905   0.247   4.367   3.759  0.1384  0.4067  0.0136
 2195SOL     OW 8906   0.568   0.094   4.291 -0.5165  0.1317 -0.3342
 2195SOL    HW2 8907   0.497   0.068   4.231 -1.3308  1.3957  0.0572
 2195SOL    HW3 8908   0.582   0.187   4.273 -0.8985  0.5840  1.5478
 2195SOL    MW4 8909   0.560   0.103   4.281 -0.6742  0.3581 -0.0348
 2196SOL     OW 8910   0.455   0.046   3.754 -0.1271  0.1999 -0.2366
 2196SOL    HW2 8911   0.463   0.138   3.780  0.7376 -0.0771  0.5219
 2196SOL    HW3 8912   0.370   0.019   3.789 -0.1263  0.5542  0.0543
 2196SOL    MW4 8913   0.445   0.055   3.762 -0.0129  0.2101 -0.0978
 2197SOL     OW 8914   0.457   0.301   3.876 -0.0302 -0.5149  0.8592
 2197SOL    HW2 8915   0.537   0.350   3.857 -0.4642 -1.1836 -3.1961
 2197SOL    HW3 8916   0.387   0.365   3.863 -0.3534 -1.0576 -0.1499
 2197SOL    MW4 8917   0.459   0.316   3.872 -0.1301 -0.6748  0.1912
 2198SOL     OW 8918   0.685   0.474   3.807  0.3871 -0.0058 -0.3934
 2198SOL    HW2 8919   0.758   0.417   3.834  0.0383 -0.7089 -0.9284
 2198SOL    HW3 8920   0.701   0.556   3.854  0.5395 -0.7477  0.8936
 2198SOL    MW4 8921   0.697   0.477   3.817  0.3612 -0.1965 -0.2942
 2199SOL     OW 8922   0.452   0.868   3.785 -0.3938 -0.4953  0.1619
 2199SOL    HW2 8923   0.509   0.834   3.854 -0.2920 -0.3750  0.1369
 2199SOL    HW3 8924   0.429   0.956   3.813 -1.2014 -0.8280  0.5510
 2199SOL    MW4 8925   0.456   0.875   3.798 -0.4869 -0.5233  0.2098
 2200SOL     OW 8926   0.840   1.187   3.864 -0.1900  0.5065 -0.3661
 2200SOL    HW2 8927   0.850   1.187   3.959 -0.7063 -0.5436 -0.3113
 2200SOL    HW3 8928   0.921   1.226   3.831  0.0893  0.6568  0.4899
 2200SOL    MW4 8929   0.852   1.192   3.872 -0.2213  0.3879 -0.2458
 2201SOL     OW 8930   3.442   3.585   4.542  0.1336  0.3129 -0.1205
 2201SOL    HW2 8931   3.433   3.668   4.588  0.5502  0.5646 -0.4795
 2201SOL    HW3 8932   3.536   3.578   4.523 -0.1195  0.5458 -1.5251
 2201SOL    MW4 8933   3.453   3.595   4.545  0.1552  0.3769 -0.3533
 2202SOL     OW 8934   0.620   1.304   3.779  0.1158 -0.2249  0.0569
 2202SOL    HW2 8935   0.634   1.306   3.684  0.0242 -0.8051  0.0291
 2202SOL    HW3 8936   0.704   1.274   3.815 -0.1080 -0.8357  0.0935
 2202SOL    MW4 8937   0.633   1.300   3.771  0.0742 -0.3821  0.0584
 2203SOL     OW 8938   2.108   3.757   4.259 -0.1134 -0.5704  0.0821
 2203SOL    HW2 8939   2.104   3.671   4.216 -2.1114 -0.1386 -0.6257
 2203SOL    HW3 8940   2.059   3.815   4.201  1.0319  1.0185  0.6728
 2203SOL    MW4 8941   2.101   3.753   4.246 -0.2260 -0.3040  0.0663
 2204SOL     OW 8942   0.454   1.712   3.739 -0.3369 -0.1082  0.4168
 2204SOL    HW2 8943   0.393   1.645   3.770 -0.1089 -0.1129  0.8688
 2204SOL    HW3 8944   0.445   1.783   3.802 -0.5080  0.2451 -0.0093
 2204SOL    MW4 8945   0.445   1.712   3.752 -0.3294 -0.0621  0.4203
 2205SOL     OW 8946   0.233   2.299   3.818 -0.2281 -0.3093 -0.2695
 2205SOL    HW2 8947   0.311   2.347   3.790 -0.2261 -1.2767 -2.0091
 2205SOL    HW3 8948   0.160   2.358   3.799 -0.0575 -0.0594 -0.1599
 2205SOL    MW4 8949   0.234   2.313   3.812 -0.2053 -0.4041 -0.4847
 2206SOL     OW 8950   0.248   0.477   4.589  0.1801  0.3964 -0.1283
 2206SOL    HW2 8951   0.190   0.442   4.521 -0.6453 -2.6071  2.0302
 2206SOL    HW3 8952   0.319   0.414   4.595 -0.4895 -0.1497  2.7485
 2206SOL    MW4 8953   0.249   0.464   4.581 -0.0171 -0.0720  0.5360
 2207SOL     OW 8954   1.191   0.751   4.438  0.1527  0.1017 -0.0729
 2207SOL    HW2 8955   1.242   0.801   4.502  1.5922  0.5932 -1.5777
 2207SOL    HW3 8956   1.209   0.659   4.460 -0.3044  0.2509  0.9601
 2207SOL    MW4 8957   1.200   0.745   4.449  0.2823  0.1863 -0.1354
 2208SOL     OW 8958   0.708   2.863   3.804 -0.0680  0.4466 -0.4262
 2208SOL    HW2 8959   0.717   2.861   3.709 -0.8997  3.8467 -0.6514
 2208SOL    HW3 8960   0.627   2.817   3.822  0.4803 -0.8791 -1.2800
 2208SOL    MW4 8961   0.699   2.857   3.794 -0.1054  0.7203 -0.5686
 2209SOL     OW 8962   0.356   0.050   4.121  0.3151 -0.4108  0.3181
 2209SOL    HW2 8963   0.285  -0.011   4.142 -0.1707  0.2724  0.6895
 2209SOL    HW3 8964   0.320   0.107   4.054  1.0603 -1.0589 -0.6553
 2209SOL    MW4 8965   0.342   0.049   4.115  0.3493 -0.4062  0.2389
 2210SOL     OW 8966   0.688   3.101   3.954 -0.1741  0.1968  0.1612
 2210SOL    HW2 8967   0.770   3.149   3.939 -0.2796  0.9707  1.9012
 2210SOL    HW3 8968   0.700   3.018   3.906  0.5718  1.3618 -1.7256
 2210SOL    MW4 8969   0.701   3.096   3.946 -0.0896  0.4525  0.1419
 2211SOL     OW 8970   3.486   4.050   4.534 -0.3804 -0.0277 -0.0795
 2211SOL    HW2 8971   3.460   3.967   4.573  0.2831 -0.2443 -0.0937
 2211SOL    HW3 8972   3.517   4.027   4.446  1.2544  0.0334  0.4671
 2211SOL    MW4 8973   3.487   4.036   4.527 -0.0772 -0.0482 -0.0091
 2212SOL     OW 8974   0.493   3.198   3.790  0.3751  0.3818  0.1952
 2212SOL    HW2 8975   0.469   3.289   3.812  1.4140  1.0605 -1.3902
 2212SOL    HW3 8976   0.567   3.179   3.848 -0.1435  0.3721  0.8634
 2212SOL    MW4 8977   0.500   3.208   3.801  0.4437  0.4702  0.0739
 2213SOL     OW 8978   0.432   3.458   3.862 -0.2185  0.1463 -0.1711
 2213SOL    HW2 8979   0.448   3.451   3.956 -1.3278 -2.1087 -0.1147
 2213SOL    HW3 8980   0.499   3.519   3.830  1.2136 -0.3556  1.7971
 2213SOL    MW4 8981   0.443   3.465   3.870 -0.1759 -0.2174  0.0958
 2214SOL     OW 8982   0.650   3.605   3.791 -0.0907  0.1685  0.1439
 2214SOL    HW2 8983   0.670   3.694   3.820  0.2474  0.3442 -0.6106
 2214SOL    HW3 8984   0.649   3.611   3.695  1.1093 -0.8883  0.0525
 2214SOL    MW4 8985   0.653   3.618   3.782  0.1122  0.0522  0.0322
 2215SOL     OW 8986   4.299   4.371   4.227 -0.3363  0.0947 -0.4704
 2215SOL    HW2 8987   4.283   4.374   4.321  0.0865 -0.6808 -0.3689
 2215SOL    HW3 8988   4.286   4.461   4.197  1.2061  0.6881  0.6068
 2215SOL    MW4 8989   4.295   4.383   4.235 -0.0772  0.0706 -0.3152
 2216SOL     OW 8990   0.431   3.967   3.769  0.2779 -0.0197 -0.1084
 2216SOL    HW2 8991   0.358   3.916   3.806  0.1307 -1.2186 -2.0086
 2216SOL    HW3 8992   0.425   4.052   3.813 -1.3343 -0.6121  0.8726
 2216SOL    MW4 8993   0.420   3.972   3.780  0.0458 -0.2561 -0.2298
 2217SOL     OW 8994   4.234   3.764   4.166  0.2390 -0.4715  0.0540
 2217SOL    HW2 8995   4.173   3.836   4.185  0.3816 -0.0972 -0.8872
 2217SOL    HW3 8996   4.259   3.778   4.075  1.3434 -0.9206  0.2863
 2217SOL    MW4 8997   4.229   3.776   4.157  0.4039 -0.4816 -0.0391
 2218SOL     OW 8998   0.662   4.373   3.782 -0.1621 -0.2373 -0.1173
 2218SOL    HW2 8999   0.733   4.321   3.820  0.2901 -1.0884 -2.0746
 2218SOL    HW3 9000   0.667   4.356   3.688 -1.9585  0.9501 -0.4575
 2218SOL    MW4 9001   0.672   4.364   3.775 -0.3394 -0.1926 -0.4203
 2219SOL     OW 9002   0.392   0.422   4.133 -0.0834 -0.7905 -0.5734
 2219SOL    HW2 9003   0.423   0.378   4.054  1.6520 -2.3104  0.9105
 2219SOL    HW3 9004   0.462   0.410   4.197 -1.3867  0.5378  1.1758
 2219SOL    MW4 9005   0.405   0.415   4.131 -0.0264 -0.8157 -0.1469
 2220SOL     OW 9006   0.907   0.069   3.795  0.3905  0.0058 -0.0609
 2220SOL    HW2 9007   0.974   0.007   3.825  0.9174  0.4968 -0.2004
 2220SOL    HW3 9008   0.825   0.035   3.830  0.5293 -1.3139 -0.9526
 2220SOL    MW4 9009   0.905   0.056   3.803  0.4784 -0.1035 -0.1967
 2221SOL     OW 9010   0.900   0.316   3.926  0.4927  0.5484  0.1310
 2221SOL    HW2 9011   0.925   0.305   4.018  3.2308  0.7792 -0.5440
 2221SOL    HW3 9012   0.909   0.229   3.888  0.2164  0.6319 -0.1341
 2221SOL    MW4 9013   0.904   0.303   3.933  0.8175  0.5899  0.0072
 2222SOL     OW 9014   1.378   0.333   3.845  0.5510 -0.4402 -0.0628
 2222SOL    HW2 9015   1.441   0.380   3.790  1.2020  0.7195  1.6357
 2222SOL    HW3 9016   1.293   0.371   3.821  0.9386  0.7250  0.3980
 2222SOL    MW4 9017   1.375   0.344   3.834  0.6880 -0.1335  0.2222
 2223SOL     OW 9018   2.040   2.072   4.815  0.3965 -0.4546 -0.0884
 2223SOL    HW2 9019   2.036   2.094   4.722 -0.1061 -2.1748 -0.4929
 2223SOL    HW3 9020   1.972   2.126   4.855  0.4223  0.0825 -0.7649
 2223SOL    MW4 9021   2.030   2.082   4.808  0.3333 -0.6104 -0.2313
 2224SOL     OW 9022   0.899   0.901   3.849  0.4185  0.0707 -0.1836
 2224SOL    HW2 9023   0.902   0.881   3.755 -1.3415 -1.0690 -0.0033
 2224SOL    HW3 9024   0.885   0.996   3.853 -0.6288 -0.0366 -1.0891
 2224SOL    MW4 9025   0.898   0.911   3.837  0.0481 -0.0938 -0.2794
 2225SOL     OW 9026   1.127   0.455   3.826 -0.0011  0.7455  0.0696
 2225SOL    HW2 9027   1.129   0.539   3.871  0.5543  1.0112 -0.4429
 2225SOL    HW3 9028   1.042   0.417   3.849 -0.6742  1.8819 -0.4732
 2225SOL    MW4 9029   1.116   0.461   3.835 -0.0166  0.9305 -0.0699
 2226SOL     OW 9030   2.781   1.390   4.453 -0.1169  0.4392 -0.1149
 2226SOL    HW2 9031   2.694   1.392   4.413  0.5557  1.2082 -1.5713
 2226SOL    HW3 9032   2.777   1.319   4.517 -1.4206 -0.3635 -1.0723
 2226SOL    MW4 9033   2.769   1.381   4.456 -0.2005  0.4348 -0.4330
 2227SOL     OW 9034   2.492   1.286   3.782  0.4993 -0.1264 -0.0466
 2227SOL    HW2 9035   2.462   1.362   3.833 -0.8073 -0.0418 -0.9288
 2227SOL    HW3 9036   2.573   1.259   3.826 -0.0979  0.5250  1.5054
 2227SOL    MW4 9037   2.499   1.293   3.795  0.2482 -0.0293  0.0420
 2228SOL     OW 9038   3.797   1.293   3.754  0.1710 -0.0426 -0.1176
 2228SOL    HW2 9039   3.789   1.382   3.788 -1.4804 -0.4644  0.6300
 2228SOL    HW3 9040   3.857   1.250   3.814  0.3181  0.3201 -0.0006
 2228SOL    MW4 9041   3.804   1.299   3.766 -0.0277 -0.0503 -0.0036
 2229SOL     OW 9042   1.328   1.633   3.741  0.1459  0.0161 -1.1854
 2229SOL    HW2 9043   1.300   1.723   3.724  0.1565  0.0616 -0.9631
 2229SOL    HW3 9044   1.266   1.600   3.807  1.5282  0.6269  0.4705
 2229SOL    MW4 9045   1.316   1.641   3.748  0.3295  0.1026 -0.9377
 2230SOL     OW 9046   1.230   0.509   4.605  0.3217  0.2128 -0.1748
 2230SOL    HW2 9047   1.235   0.419   4.572  1.3647  0.3729 -0.4678
 2230SOL    HW3 9048   1.142   0.517   4.641  1.0539 -1.7549  2.2320
 2230SOL    MW4 9049   1.219   0.498   4.606  0.5559 -0.0256  0.1040
 2231SOL     OW 9050   0.489   2.442   3.756  0.3872  0.5276  0.0227
 2231SOL    HW2 9051   0.493   2.533   3.785  0.9261  0.5003  0.0411
 2231SOL    HW3 9052   0.579   2.411   3.763  0.4441  0.3909 -1.2624
 2231SOL    MW4 9053   0.501   2.450   3.761  0.4658  0.5062 -0.1445
 2232SOL     OW 9054   0.672   1.563   3.864  0.2698  0.3047 -0.1230
 2232SOL    HW2 9055   0.603   1.612   3.820  0.5862  1.7536  0.9539
 2232SOL    HW3 9056   0.655   1.471   3.842 -2.2973  0.5781  0.5666
 2232SOL    MW4 9057   0.661   1.557   3.855 -0.0272  0.5319  0.1099
 2233SOL     OW 9058   3.412   2.982   4.111  0.0967 -0.2570 -0.0201
 2233SOL    HW2 9059   3.338   2.982   4.173  0.4978  1.9244  0.5329
 2233SOL    HW3 9060   3.375   3.016   4.030  0.6385  1.6394  0.4995
 2233SOL    MW4 9061   3.397   2.987   4.109  0.2213  0.2811  0.1216
 2234SOL     OW 9062   1.132   3.086   3.860 -0.1701  0.5928 -0.3046
 2234SOL    HW2 9063   1.223   3.114   3.863 -0.0234 -0.0191  2.2591
 2234SOL    HW3 9064   1.135   2.998   3.822  0.1953  0.9285 -1.0694
 2234SOL    MW4 9065   1.144   3.078   3.855 -0.1025  0.5565 -0.0672
 2235SOL     OW 9066   0.455   0.045   4.544 -0.2194  0.5651  0.8072
 2235SOL    HW2 9067   0.500   0.069   4.463 -0.7214 -0.5737  0.1848
 2235SOL    HW3 9068   0.518  -0.009   4.592 -0.6182 -0.3664  0.2956
 2235SOL    MW4 9069   0.469   0.041   4.540 -0.3383  0.2920  0.6580
 2236SOL     OW 9070   0.904   3.229   3.780  0.1028 -0.0809 -0.3769
 2236SOL    HW2 9071   0.982   3.175   3.784  1.5465  1.9419 -0.6305
 2236SOL    HW3 9072   0.875   3.221   3.689  0.9530  0.4382 -0.7004
 2236SOL    MW4 9073   0.910   3.221   3.768  0.4055  0.2544 -0.4530
 2237SOL     OW 9074   2.995   3.651   4.435 -0.3849 -0.0339  0.1286
 2237SOL    HW2 9075   2.993   3.576   4.495  0.5281 -1.6225 -1.7794
 2237SOL    HW3 9076   2.905   3.658   4.403 -0.6015  0.0527  0.7461
 2237SOL    MW4 9077   2.983   3.642   4.439 -0.2930 -0.2322 -0.0420
 2238SOL     OW 9078   0.898   3.478   3.886 -0.0894  0.2226  0.0010
 2238SOL    HW2 9079   0.816   3.526   3.886  0.0342  0.4431 -0.3557
 2238SOL    HW3 9080   0.879   3.397   3.839 -0.2265  0.0561  0.3492
 2238SOL    MW4 9081   0.885   3.474   3.880 -0.0911  0.2298  0.0000
 2239SOL     OW 9082   1.171   3.520   3.808  0.1308 -0.2360 -0.0879
 2239SOL    HW2 9083   1.087   3.488   3.841  0.3949 -0.7071  0.1339
 2239SOL    HW3 9084   1.165   3.615   3.816 -0.6220 -0.2203 -0.6490
 2239SOL    MW4 9085   1.159   3.528   3.813  0.0664 -0.2961 -0.1328
 2240SOL     OW 9086   0.918   3.962   3.790  0.3907 -0.2221 -0.1714
 2240SOL    HW2 9087   0.915   3.971   3.694  0.2269 -2.7064 -0.4276
 2240SOL    HW3 9088   0.992   3.905   3.807  0.1477 -0.1593  1.1647
 2240SOL    MW4 9089   0.927   3.955   3.779  0.3370 -0.5417 -0.0288
 2241SOL     OW 9090   0.889   4.219   3.865  0.1778 -0.0264  0.4612
 2241SOL    HW2 9091   0.907   4.132   3.830 -2.3401 -0.3665 -0.0241
 2241SOL    HW3 9092   0.895   4.208   3.960  3.5291  0.1458  0.3637
 2241SOL    MW4 9093   0.892   4.206   3.873  0.2877 -0.0486  0.3841
 2242SOL     OW 9094   1.127   4.354   3.783  0.0728  0.1244  0.2914
 2242SOL    HW2 9095   1.124   4.352   3.687  1.2415  0.2135  0.2383
 2242SOL    HW3 9096   1.043   4.318   3.810  0.7002 -2.3097 -0.7712
 2242SOL    MW4 9097   1.116   4.349   3.774  0.3099 -0.1850  0.1445
 2243SOL     OW 9098   1.570   3.533   4.536  0.2107  0.1837  0.0615
 2243SOL    HW2 9099   1.597   3.448   4.571 -0.0248 -0.6349 -1.6878
 2243SOL    HW3 9100   1.652   3.582   4.529  0.5116 -0.3237 -0.0544
 2243SOL    MW4 9101   1.585   3.528   4.540  0.2193  0.0088 -0.1845
 2244SOL     OW 9102   1.330   0.080   3.778  0.4126 -0.5907 -0.2996
 2244SOL    HW2 9103   1.345   0.167   3.814 -0.7602 -0.5994  0.2085
 2244SOL    HW3 9104   1.407   0.030   3.804  0.3682 -0.1303  0.7303
 2244SOL    MW4 9105   1.342   0.085   3.786  0.2520 -0.5311 -0.0968
 2245SOL     OW 9106   0.699   4.542   4.644 -0.1472  0.0343 -0.6079
 2245SOL    HW2 9107   0.669   4.478   4.579  2.8757 -1.5017 -0.5864
 2245SOL    HW3 9108   0.784   4.572   4.610 -0.6717  2.6788  0.3286
 2245SOL    MW4 9109   0.706   4.537   4.631  0.1824  0.1807 -0.4816
 2246SOL     OW 9110   1.573   0.493   3.715 -0.3192 -0.0902 -0.5985
 2246SOL    HW2 9111   1.649   0.460   3.763  0.1978  0.8934 -0.7297
 2246SOL    HW3 9112   1.555   0.579   3.754 -0.4150  0.3475 -1.5782
 2246SOL    MW4 9113   1.581   0.500   3.726 -0.2638  0.0973 -0.7448
 2247SOL     OW 9114   0.457   4.213   4.172 -0.1227  0.0430 -0.1278
 2247SOL    HW2 9115   0.541   4.254   4.195  0.0280  0.3239 -1.1530
 2247SOL    HW3 9116   0.465   4.123   4.205  0.1742  0.3637  0.6975
 2247SOL    MW4 9117   0.469   4.207   4.180 -0.0637  0.1221 -0.1540
 2248SOL     OW 9118   0.053   0.893   4.535  0.3293  0.2381  0.0192
 2248SOL    HW2 9119   0.114   0.822   4.515 -0.2012 -0.2208  0.0210
 2248SOL    HW3 9120   0.102   0.952   4.591  1.1256  0.4266 -0.8622
 2248SOL    MW4 9121   0.067   0.891   4.539  0.3644  0.2024 -0.0968
 2249SOL     OW 9122   1.310   0.861   3.736  0.0219  0.1047  0.5187
 2249SOL    HW2 9123   1.298   0.954   3.757 -0.3604 -0.2510  1.9282
 2249SOL    HW3 9124   1.240   0.817   3.784 -0.3170 -0.8367 -0.8275
 2249SOL    MW4 9125   1.299   0.868   3.745 -0.0734 -0.0665  0.5271
 2250SOL     OW 9126   0.938   2.493   3.740 -0.0121 -0.3736  0.4355
 2250SOL    HW2 9127   1.033   2.490   3.751  0.4629  2.7649 -2.3526
 2250SOL    HW3 9128   0.912   2.576   3.779 -1.6347 -1.0869  0.9341
 2250SOL    MW4 9129   0.947   2.503   3.747 -0.1634 -0.0534  0.1333
 2251SOL     OW 9130   2.046   1.306   3.774 -0.2734  0.0520 -0.3165
 2251SOL    HW2 9131   2.122   1.252   3.794 -0.5750  0.2625  1.4717
 2251SOL    HW3 9132   2.082   1.394   3.759  0.0288 -0.2594 -1.4218
 2251SOL    MW4 9133   2.061   1.311   3.775 -0.2732  0.0386 -0.2263
 2252SOL     OW 9134   0.746   2.145   4.564  0.2165  0.0026 -0.3265
 2252SOL    HW2 9135   0.832   2.123   4.600  0.2562 -1.3669 -1.2040
 2252SOL    HW3 9136   0.755   2.236   4.535  1.3988 -0.1390 -0.4493
 2252SOL    MW4 9137   0.759   2.154   4.565  0.3778 -0.1967 -0.4582
 2253SOL     OW 9138   2.101   2.880   3.732 -0.1819  0.1935 -0.3314
 2253SOL    HW2 9139   2.074   2.861   3.642  0.4996  1.6465 -0.8664
 2253SOL    HW3 9140   2.159   2.808   3.755 -1.8781 -1.2270 -0.3328
 2253SOL    MW4 9141   2.105   2.868   3.723 -0.3159  0.1979 -0.4022
 2254SOL     OW 9142   2.219   1.724   4.448  0.2293 -0.0899 -0.4136
 2254SOL    HW2 9143   2.142   1.779   4.460  0.6682  0.3732  0.2946
 2254SOL    HW3 9144   2.267   1.765   4.376 -0.2314 -0.4313 -0.9163
 2254SOL    MW4 9145   2.216   1.737   4.440  0.2265 -0.0739 -0.3872
 2255SOL     OW 9146   2.314   2.885   4.267 -0.1839  0.2402  0.5687
 2255SOL    HW2 9147   2.346   2.954   4.209 -2.4874  0.6174 -0.2961
 2255SOL    HW3 9148   2.355   2.805   4.233  0.0105  0.7413 -0.3975
 2255SOL    MW4 9149   2.324   2.884   4.255 -0.4623  0.3560  0.3276
 2256SOL     OW 9150   1.082   2.715   4.598  0.1562  0.0460 -0.0970
 2256SOL    HW2 9151   1.039   2.636   4.631  0.6119 -0.3435 -0.4287
 2256SOL    HW3 9152   1.033   2.787   4.637  0.6326 -0.4058  1.3549
 2256SOL    MW4 9153   1.070   2.714   4.607  0.2791 -0.0651  0.0505
 2257SOL     OW 9154   3.767   2.301   4.156  0.3629  0.3773 -0.0522
 2257SOL    HW2 9155   3.682   2.320   4.195  0.4074 -1.2257  0.8648
 2257SOL    HW3 9156   3.755   2.318   4.062 -0.6229  1.3006  0.2343
 2257SOL    MW4 9157   3.754   2.306   4.148  0.2389  0.2875  0.1063
 2258SOL     OW 9158   1.774   3.193   3.731 -0.0796 -0.0898 -0.3036
 2258SOL    HW2 9159   1.703   3.161   3.787 -1.8139  0.8898 -1.8843
 2258SOL    HW3 9160   1.794   3.280   3.767  1.3283 -0.9259  1.0104
 2258SOL    MW4 9161   1.767   3.200   3.743 -0.1228 -0.0706 -0.3388
 2259SOL     OW 9162   2.990   1.388   4.281 -0.2337 -0.5352  0.0797
 2259SOL    HW2 9163   2.919   1.389   4.345 -0.4012 -1.0153 -0.0975
 2259SOL    HW3 9164   2.975   1.467   4.228  0.7664  0.6619  1.5548
 2259SOL    MW4 9165   2.979   1.399   4.282 -0.1235 -0.4405  0.2508
 2260SOL     OW 9166   1.392   3.159   3.841 -0.4419 -0.2147 -0.6993
 2260SOL    HW2 9167   1.462   3.101   3.870 -0.6141  0.5000  1.2040
 2260SOL    HW3 9168   1.422   3.247   3.865 -1.8654  0.1211 -0.1257
 2260SOL    MW4 9169   1.405   3.163   3.848 -0.6526 -0.0761 -0.3726
 2261SOL     OW 9170   1.412   3.425   3.911 -0.2515 -0.3213  0.0304
 2261SOL    HW2 9171   1.485   3.455   3.857 -0.4751 -0.4637 -0.3549
 2261SOL    HW3 9172   1.334   3.455   3.864 -0.4656 -1.1599 -0.1503
 2261SOL    MW4 9173   1.412   3.433   3.898 -0.3092 -0.4508 -0.0441
 2262SOL     OW 9174   1.603   3.569   3.755  0.2924 -0.7780  0.4072
 2262SOL    HW2 9175   1.692   3.553   3.787  0.4885  0.7247  0.6736
 2262SOL    HW3 9176   1.584   3.659   3.782 -1.0986 -0.8976 -0.1410
 2262SOL    MW4 9177   1.612   3.579   3.763  0.1347 -0.5953  0.3703
 2263SOL     OW 9178   1.626   4.099   4.516  0.2279  0.6596  0.2937
 2263SOL    HW2 9179   1.540   4.064   4.539  1.1612 -0.0888  2.7811
 2263SOL    HW3 9180   1.621   4.113   4.422 -1.2980 -3.1067 -0.2793
 2263SOL    MW4 9181   1.614   4.096   4.507  0.1497  0.0644  0.5455
 2264SOL     OW 9182   1.316   3.975   3.770  0.1087  0.1617 -0.6171
 2264SOL    HW2 9183   1.313   4.068   3.789 -0.1976  0.3280 -1.4770
 2264SOL    HW3 9184   1.320   3.969   3.675  1.4821 -0.6781 -0.5261
 2264SOL    MW4 9185   1.316   3.986   3.760  0.2495  0.0727 -0.7186
 2265SOL     OW 9186   1.346   4.224   3.882 -0.0588 -0.2579 -0.2127
 2265SOL    HW2 9187   1.272   4.281   3.863 -0.2188  0.0694  1.3223
 2265SOL    HW3 9188   1.419   4.263   3.833 -0.3590  0.7993  0.1560
 2265SOL    MW4 9189   1.346   4.237   3.873 -0.1196 -0.0758  0.0384
 2266SOL     OW 9190   1.567   4.344   3.757  0.0988  0.3066 -0.3009
 2266SOL    HW2 9191   1.659   4.328   3.776 -0.1953 -2.0981 -0.7614
 2266SOL    HW3 9192   1.564   4.359   3.662 -0.3066 -2.4337 -0.7603
 2266SOL    MW4 9193   1.579   4.344   3.747  0.0064 -0.3719 -0.4222
 2267SOL     OW 9194   1.942   4.639   3.831  0.6161  0.2093 -0.4610
 2267SOL    HW2 9195   2.014   4.702   3.833  0.6786  0.1297  2.1603
 2267SOL    HW3 9196   1.980   4.561   3.790  1.5470  0.7058 -0.5634
 2267SOL    MW4 9197   1.957   4.637   3.826  0.7472  0.2642 -0.1285
 2268SOL     OW 9198   1.729   0.100   3.722 -0.0202 -0.1684 -0.0507
 2268SOL    HW2 9199   1.812   0.063   3.753 -0.0244 -0.5751 -0.5168
 2268SOL    HW3 9200   1.662   0.044   3.761 -0.1226  0.7874  1.1737
 2268SOL    MW4 9201   1.731   0.088   3.731 -0.0345 -0.0959  0.0496
 2269SOL     OW 9202   1.774   0.347   3.867  0.3031  0.1128  0.3414
 2269SOL    HW2 9203   1.812   0.334   3.953 -0.1545 -0.3079  0.4852
 2269SOL    HW3 9204   1.746   0.259   3.839  1.7430  0.0181 -0.8473
 2269SOL    MW4 9205   1.775   0.334   3.875  0.4328  0.0448  0.2036
 2270SOL     OW 9206   1.972   0.503   3.768  0.3655 -0.0129 -0.6643
 2270SOL    HW2 9207   1.905   0.443   3.798 -0.2065  1.4627  1.0990
 2270SOL    HW3 9208   1.971   0.495   3.672 -2.3070 -0.0130 -0.6694
 2270SOL    MW4 9209   1.963   0.494   3.759 -0.0625  0.1818 -0.4323
 2271SOL     OW 9210   2.009   0.772   3.846  0.2315 -0.3991 -0.0273
 2271SOL    HW2 9211   1.942   0.830   3.811  0.8530 -0.1658 -0.8594
 2271SOL    HW3 9212   1.991   0.687   3.806 -0.6127 -0.7743  1.1077
 2271SOL    MW4 9213   1.998   0.768   3.837  0.2024 -0.4178  0.0129
 2272SOL     OW 9214   1.802   1.183   3.879  0.0757  0.3360  0.4712
 2272SOL    HW2 9215   1.820   1.187   3.973  1.6014 -1.8972  0.3310
 2272SOL    HW3 9216   1.880   1.219   3.838 -0.2829  0.6362  0.0528
 2272SOL    MW4 9217   1.815   1.188   3.886  0.2297  0.0809  0.3977
 2273SOL     OW 9218   2.447   3.093   4.152 -0.1863  0.4013 -0.4921
 2273SOL    HW2 9219   2.538   3.070   4.170 -0.2228  0.5616 -0.0997
 2273SOL    HW3 9220   2.426   3.158   4.218 -0.3096  1.0176 -1.1276
 2273SOL    MW4 9221   2.456   3.099   4.163 -0.2074  0.5038 -0.5236
 2274SOL     OW 9222   2.264   1.149   3.846 -0.1890 -0.0384  0.1942
 2274SOL    HW2 9223   2.346   1.178   3.807 -1.4369  1.6345 -1.3001
 2274SOL    HW3 9224   2.259   1.056   3.827  0.7146  0.1372 -0.9315
 2274SOL    MW4 9225   2.274   1.141   3.839 -0.2346  0.2054 -0.1514
 2275SOL     OW 9226   2.225   1.338   4.250 -0.0426  0.2290 -0.3226
 2275SOL    HW2 9227   2.263   1.257   4.215 -0.3880 -0.1516  0.1630
 2275SOL    HW3 9228   2.244   1.333   4.344  0.0051  0.7518 -0.3075
 2275SOL    MW4 9229   2.232   1.327   4.258 -0.0818  0.2477 -0.2561
 2276SOL     OW 9230   1.808   1.923   3.350 -0.3738 -0.2564 -0.1080
 2276SOL    HW2 9231   1.731   1.973   3.378  0.2739  1.1561 -0.7863
 2276SOL    HW3 9232   1.804   1.924   3.255  1.6934  1.8162 -0.2209
 2276SOL    MW4 9233   1.797   1.930   3.341 -0.0156  0.2034 -0.2122
 2277SOL     OW 9234   0.874   1.660   3.531  0.3785 -0.4443  0.0031
 2277SOL    HW2 9235   0.941   1.604   3.491 -0.5399 -1.4944 -0.1038
 2277SOL    HW3 9236   0.892   1.655   3.625  2.3017  1.7200 -0.2153
 2277SOL    MW4 9237   0.885   1.652   3.538  0.5111 -0.2973 -0.0396
 2278SOL     OW 9238   2.028   2.033   3.465 -0.1647  0.2049  0.4043
 2278SOL    HW2 9239   2.022   2.050   3.559 -2.0331  2.5831 -0.0780
 2278SOL    HW3 9240   1.951   1.980   3.445 -0.2594  0.4551  0.0928
 2278SOL    MW4 9241   2.017   2.028   3.475 -0.4239  0.5517  0.2992
 2279SOL     OW 9242   0.740   1.296   4.441 -0.5850 -0.2330  0.2325
 2279SOL    HW2 9243   0.709   1.289   4.351  0.5813  1.1965 -0.3021
 2279SOL    HW3 9244   0.836   1.300   4.433 -0.4516 -0.4626  1.5581
 2279SOL    MW4 9245   0.749   1.295   4.428 -0.4135 -0.0747  0.3371
 2280SOL     OW 9246   1.758   0.158   4.530 -0.2299 -0.2169  0.2784
 2280SOL    HW2 9247   1.853   0.167   4.518 -0.2706 -0.7356 -0.4357
 2280SOL    HW3 9248   1.746   0.067   4.557 -0.6417 -0.5064 -0.8496
 2280SOL    MW4 9249   1.769   0.147   4.532 -0.2896 -0.3236  0.0358
 2281SOL     OW 9250   4.240   1.685   4.696  0.2166 -0.0692  0.1928
 2281SOL    HW2 9251   4.261   1.777   4.682 -0.2939  0.1226  0.6914
 2281SOL    HW3 9252   4.168   1.667   4.635  1.0233 -0.4264 -0.6797
 2281SOL    MW4 9253   4.233   1.695   4.686  0.2556 -0.0911  0.1440
 2282SOL     OW 9254   2.011   2.779   3.470  0.4062 -0.4888 -0.2216
 2282SOL    HW2 9255   2.010   2.863   3.424 -1.1773 -1.8433 -2.7878
 2282SOL    HW3 9256   2.083   2.730   3.429 -0.4678 -1.3862 -0.7127
 2282SOL    MW4 9257   2.021   2.783   3.458  0.0818 -0.7861 -0.6249
 2283SOL     OW 9258   2.447   2.832   3.817  0.2700 -0.0830  0.2319
 2283SOL    HW2 9259   2.532   2.789   3.826  0.0940 -0.4184  0.3187
 2283SOL    HW3 9260   2.383   2.764   3.841 -0.1612 -0.6603 -2.3715
 2283SOL    MW4 9261   2.449   2.817   3.821  0.1898 -0.2034 -0.1001
 2284SOL     OW 9262   2.546   4.248   4.467 -0.0477  0.0592 -0.2873
 2284SOL    HW2 9263   2.529   4.334   4.506  0.7498 -0.2725  0.7973
 2284SOL    HW3 9264   2.489   4.189   4.514 -0.5808 -0.0221 -1.0223
 2284SOL    MW4 9265   2.536   4.252   4.478 -0.0129  0.0048 -0.2408
 2285SOL     OW 9266   3.226   1.420   4.427  0.0314  0.0992  0.3768
 2285SOL    HW2 9267   3.149   1.404   4.373  0.2110  0.5617 -0.0196
 2285SOL    HW3 9268   3.300   1.415   4.367  0.2399  0.5130  0.5926
 2285SOL    MW4 9269   3.225   1.417   4.412  0.0825  0.2148  0.3533
 2286SOL     OW 9270   2.081   3.603   3.714  0.0755  0.5228  0.1815
 2286SOL    HW2 9271   2.156   3.572   3.764  0.3674 -0.7245 -1.0065
 2286SOL    HW3 9272   2.114   3.612   3.625 -1.6604 -1.9338 -0.7512
 2286SOL    MW4 9273   2.095   3.600   3.709 -0.1152  0.0341 -0.0982
 2287SOL     OW 9274   2.031   3.857   3.818  0.3008  0.6456 -0.0955
 2287SOL    HW2 9275   2.113   3.905   3.805  0.7252 -0.1935 -0.5432
 2287SOL    HW3 9276   2.048   3.771   3.781 -0.6608  0.3439  0.1656
 2287SOL    MW4 9277   2.044   3.852   3.812  0.2296  0.4952 -0.1199
 2288SOL     OW 9278   1.545   3.816   3.845 -0.3819  0.3025  0.3352
 2288SOL    HW2 9279   1.467   3.863   3.816 -0.6165 -0.0712  0.3664
 2288SOL    HW3 9280   1.617   3.878   3.830 -0.5505  0.2664 -0.6600
 2288SOL    MW4 9281   1.544   3.830   3.839 -0.4351  0.2482  0.2081
 2289SOL     OW 9282   1.805   4.241   3.847  0.1937  0.2417 -0.0733
 2289SOL    HW2 9283   1.886   4.277   3.810  0.0627 -0.1777 -0.7814
 2289SOL    HW3 9284   1.827   4.223   3.938  0.8995  0.1373 -0.2575
 2289SOL    MW4 9285   1.819   4.243   3.854  0.2697  0.1731 -0.1912
 2290SOL     OW 9286   2.029   4.386   3.756  0.0288 -0.1652  0.3895
 2290SOL    HW2 9287   2.108   4.346   3.794 -0.0431  0.8053  1.5713
 2290SOL    HW3 9288   2.039   4.372   3.662  0.8874 -1.3732  0.6428
 2290SOL    MW4 9289   2.041   4.379   3.748  0.1328 -0.1965  0.5789
 2291SOL     OW 9290   2.376   4.631   3.836 -0.4134  0.1708  0.2867
 2291SOL    HW2 9291   2.373   4.605   3.928  0.7608 -2.1708 -0.2815
 2291SOL    HW3 9292   2.444   4.698   3.831  0.4603 -0.6515  0.9409
 2291SOL    MW4 9293   2.384   4.636   3.847 -0.1433 -0.2465  0.2983
 2292SOL     OW 9294   2.162   0.137   3.793 -0.1137  0.2051 -0.5509
 2292SOL    HW2 9295   2.220   0.067   3.823 -2.4714 -2.2172 -1.4392
 2292SOL    HW3 9296   2.182   0.148   3.700 -0.1223  0.3622 -0.5354
 2292SOL    MW4 9297   2.172   0.130   3.785 -0.4258 -0.0938 -0.6659
 2293SOL     OW 9298   2.218   0.425   3.857 -0.3155 -0.3340  0.4415
 2293SOL    HW2 9299   2.211   0.335   3.824  0.9675 -0.2135 -0.1981
 2293SOL    HW3 9300   2.134   0.466   3.833 -1.0777 -1.4736  1.1196
 2293SOL    MW4 9301   2.206   0.418   3.849 -0.2465 -0.4685  0.4468
 2294SOL     OW 9302   2.471   0.548   3.767 -0.6242  0.6582 -0.3143
 2294SOL    HW2 9303   2.402   0.496   3.810  1.8803 -2.1898  0.4337
 2294SOL    HW3 9304   2.444   0.552   3.676 -2.0882  0.0750  0.0654
 2294SOL    MW4 9305   2.458   0.541   3.761 -0.4871  0.2056 -0.1657
 2295SOL     OW 9306   2.470   0.774   3.920  0.0590  0.1836 -0.3714
 2295SOL    HW2 9307   2.385   0.814   3.902 -0.1478  0.0835  0.3581
 2295SOL    HW3 9308   2.477   0.703   3.857  0.6404  1.6588 -2.0047
 2295SOL    MW4 9309   2.460   0.770   3.909  0.1082  0.3650 -0.4904
 2296SOL     OW 9310   2.252   0.893   3.763  0.4352 -0.6856  0.4736
 2296SOL    HW2 9311   2.172   0.844   3.784 -0.3025  0.4787  0.4016
 2296SOL    HW3 9312   2.254   0.894   3.667 -1.7658  2.9443  0.4000
 2296SOL    MW4 9313   2.242   0.887   3.753  0.0474 -0.0530  0.4544
 2297SOL     OW 9314   1.638   3.394   4.217 -0.8066 -0.3766 -0.3094
 2297SOL    HW2 9315   1.543   3.407   4.215 -0.8390 -0.2886  1.5829
 2297SOL    HW3 9316   1.650   3.302   4.242 -0.3838  0.2010  1.6818
 2297SOL    MW4 9317   1.627   3.384   4.220 -0.7551 -0.2887  0.2031
 2298SOL     OW 9318   0.067   2.562   4.125  0.3595  0.0772 -0.3137
 2298SOL    HW2 9319   0.126   2.488   4.114 -0.0503 -0.4257  0.7648
 2298SOL    HW3 9320   0.124   2.633   4.156  0.8215  0.3501 -1.7488
 2298SOL    MW4 9321   0.082   2.562   4.128  0.3664  0.0470 -0.3610
 2299SOL     OW 9322   0.936   2.486   4.645  0.2303 -0.7734 -0.0035
 2299SOL    HW2 9323   0.856   2.518   4.604  0.2023 -0.0474  0.5936
 2299SOL    HW3 9324   0.906   2.433   4.719  0.3005  0.6590  1.0712
 2299SOL    MW4 9325   0.922   2.483   4.649  0.2359 -0.4885  0.2170
 2300SOL     OW 9326   2.110   4.115   4.346 -0.4117 -0.0080  0.0067
 2300SOL    HW2 9327   2.039   4.080   4.399 -0.8744 -1.1712 -1.3671
 2300SOL    HW3 9328   2.085   4.206   4.329 -0.7002  0.1047  1.0037
 2300SOL    MW4 9329   2.098   4.123   4.351 -0.5107 -0.1464 -0.0434
 2301SOL     OW 9330   1.441   4.471   4.271 -0.0872 -0.0878  0.8609
 2301SOL    HW2 9331   1.425   4.392   4.219  1.8841  0.5207 -0.7318
 2301SOL    HW3 9332   1.483   4.440   4.351 -1.1067 -0.8267  1.1193
 2301SOL    MW4 9333   1.444   4.457   4.275  0.0385 -0.1049  0.6857
 2302SOL     OW 9334   1.737   3.121   4.307 -0.1462 -0.0334  0.9775
 2302SOL    HW2 9335   1.821   3.121   4.261 -0.4562 -1.2706  0.3841
 2302SOL    HW3 9336   1.748   3.056   4.376 -0.2865  0.5318  1.5382
 2302SOL    MW4 9337   1.750   3.112   4.310 -0.2055 -0.1218  0.9732
 2303SOL     OW 9338   0.918   2.715   3.896  0.2309  0.2385  0.5742
 2303SOL    HW2 9339   0.838   2.766   3.884  0.5693  0.4818 -0.7811
 2303SOL    HW3 9340   0.944   2.732   3.986 -0.5513  1.1691  0.6358
 2303SOL    MW4 9341   0.911   2.724   3.906  0.1724  0.3936  0.4036
 2304SOL     OW 9342   2.276   2.404   3.747 -0.3052 -0.5935 -0.4275
 2304SOL    HW2 9343   2.265   2.401   3.652 -1.0975  2.3491 -0.4838
 2304SOL    HW3 9344   2.199   2.359   3.782 -1.1818  0.3212 -1.1595
 2304SOL    MW4 9345   2.264   2.397   3.739 -0.5255 -0.0846 -0.5314
 2305SOL     OW 9346   1.812   1.602   4.733 -0.6298  0.2060 -0.2166
 2305SOL    HW2 9347   1.813   1.599   4.638 -0.0008 -1.9332 -0.1635
 2305SOL    HW3 9348   1.895   1.642   4.757 -1.1415  1.5010 -0.5719
 2305SOL    MW4 9349   1.823   1.607   4.724 -0.6143  0.0948 -0.2565
 2306SOL     OW 9350   1.602   3.020   3.943 -0.0278 -0.4971 -0.0384
 2306SOL    HW2 9351   1.624   2.936   3.902 -2.3982 -2.0576  1.7096
 2306SOL    HW3 9352   1.593   2.999   4.036 -1.9472  1.4130  0.2435
 2306SOL    MW4 9353   1.603   3.006   3.950 -0.5938 -0.4511  0.2294
 2307SOL     OW 9354   3.773   2.854   4.302  0.1030  0.0019  0.0542
 2307SOL    HW2 9355   3.815   2.845   4.388 -0.4388  1.6604  0.5087
 2307SOL    HW3 9356   3.810   2.935   4.266  0.0477 -0.4954 -1.1183
 2307SOL    MW4 9357   3.783   2.864   4.309  0.0246  0.1552 -0.0405
 2308SOL     OW 9358   2.279   3.539   3.910  0.1522  0.1493  0.1463
 2308SOL    HW2 9359   2.355   3.570   3.860 -0.5775  0.0889 -1.0187
 2308SOL    HW3 9360   2.270   3.448   3.884 -2.4186  1.0735 -2.4138
 2308SOL    MW4 9361   2.288   3.531   3.900 -0.2832  0.2632 -0.3450
 2309SOL     OW 9362   2.733   2.965   4.234  0.0376 -0.1726 -0.1169
 2309SOL    HW2 9363   2.717   2.956   4.328 -2.1140  0.8884 -0.3632
 2309SOL    HW3 9364   2.706   2.880   4.198  0.7904 -0.5530  0.2013
 2309SOL    MW4 9365   2.727   2.952   4.242 -0.1471 -0.0825 -0.1073
 2310SOL     OW 9366   2.540   3.590   3.789  0.6353 -0.1647  0.5326
 2310SOL    HW2 9367   2.616   3.542   3.823  0.3340 -0.7352  0.4143
 2310SOL    HW3 9368   2.547   3.581   3.694  0.9851  0.6682  0.4745
 2310SOL    MW4 9369   2.551   3.582   3.781  0.6418 -0.1302  0.5095
 2311SOL     OW 9370   2.464   3.850   3.876 -0.0373  0.0699  0.0286
 2311SOL    HW2 9371   2.546   3.897   3.861 -0.1120 -0.1159 -1.0132
 2311SOL    HW3 9372   2.484   3.760   3.852 -0.5003 -0.0046 -0.0809
 2311SOL    MW4 9373   2.477   3.844   3.871 -0.1080  0.0355 -0.1230
 2312SOL     OW 9374   2.275   3.989   3.748 -0.2167  0.3729 -0.4355
 2312SOL    HW2 9375   2.351   3.945   3.786 -0.5479  0.3377  0.1872
 2312SOL    HW3 9376   2.292   3.989   3.654 -0.4919 -1.6362 -0.5220
 2312SOL    MW4 9377   2.287   3.983   3.741 -0.2968  0.1030 -0.3645
 2313SOL     OW 9378   2.230   4.232   3.878 -0.0035  0.4333  0.2123
 2313SOL    HW2 9379   2.244   4.206   3.969  1.0229 -0.8141 -0.2897
 2313SOL    HW3 9380   2.241   4.152   3.828  0.8965  1.3727 -1.1405
 2313SOL    MW4 9381   2.233   4.218   3.883  0.2506  0.3920 -0.0324
 2314SOL     OW 9382   2.451   4.366   3.783 -0.3491 -0.2140  1.0473
 2314SOL    HW2 9383   2.369   4.322   3.808 -0.6884 -0.0128  0.3031
 2314SOL    HW3 9384   2.428   4.460   3.784  0.0233 -0.1255  1.3728
 2314SOL    MW4 9385   2.437   4.373   3.787 -0.3450 -0.1755  0.9918
 2315SOL     OW 9386   2.850   4.619   3.892  0.5100 -0.4173  0.1972
 2315SOL    HW2 9387   2.838   4.613   3.986  1.4593 -1.8294  0.2463
 2315SOL    HW3 9388   2.922   4.682   3.881  0.1873 -0.0129  0.3964
 2315SOL    MW4 9389   2.858   4.627   3.903  0.5927 -0.5503  0.2298
 2316SOL     OW 9390   2.626   0.109   3.756 -0.4467  0.5644 -0.3395
 2316SOL    HW2 9391   2.700   0.052   3.777  1.1588  2.4768 -0.6360
 2316SOL    HW3 9392   2.626   0.114   3.661 -0.0565  1.7019 -0.2853
 2316SOL    MW4 9393   2.636   0.102   3.746 -0.1831  0.9668 -0.3715
 2317SOL     OW 9394   2.700   0.370   3.861 -0.0203  1.3552 -0.5644
 2317SOL    HW2 9395   2.665   0.285   3.836  0.4771  1.3999 -1.4466
 2317SOL    HW3 9396   2.634   0.433   3.832 -0.9360  1.1999  1.1513
 2317SOL    MW4 9397   2.687   0.367   3.854 -0.0753  1.3406 -0.4547
 2318SOL     OW 9398   2.920   0.737   3.869  0.2056 -0.7124  0.1987
 2318SOL    HW2 9399   2.904   0.648   3.838  1.2511 -1.0682  0.6306
 2318SOL    HW3 9400   2.987   0.771   3.810  1.2565 -0.9318  1.2459
 2318SOL    MW4 9401   2.927   0.730   3.857  0.4823 -0.7883  0.3939
 2319SOL     OW 9402   2.695   0.902   3.764 -0.2866 -0.0284 -0.8350
 2319SOL    HW2 9403   2.770   0.856   3.801 -0.3732  0.4987  0.0036
 2319SOL    HW3 9404   2.620   0.872   3.815 -0.3478  1.0107 -0.3097
 2319SOL    MW4 9405   2.695   0.892   3.775 -0.3061  0.1782 -0.6549
 2320SOL     OW 9406   3.125   0.372   3.848  0.1982 -0.6937  0.4635
 2320SOL    HW2 9407   3.127   0.403   3.938  0.1063 -0.8538  0.5218
 2320SOL    HW3 9408   3.117   0.277   3.856 -2.3562 -0.5214  0.2755
 2320SOL    MW4 9409   3.124   0.363   3.861 -0.1509 -0.6921  0.4463
 2321SOL     OW 9410   2.703   1.148   3.898  0.3073  0.1558 -0.3045
 2321SOL    HW2 9411   2.698   1.064   3.853  0.5763  0.7465 -1.4565
 2321SOL    HW3 9412   2.774   1.195   3.855  1.7243  0.1097  1.8606
 2321SOL    MW4 9413   2.711   1.143   3.887  0.5295  0.2276 -0.1709
 2322SOL     OW 9414   2.870   1.302   3.742  0.3106 -0.1406  0.1461
 2322SOL    HW2 9415   2.882   1.377   3.800  2.4705 -0.3051 -0.0296
 2322SOL    HW3 9416   2.938   1.240   3.770 -0.5367 -1.4366 -0.6284
 2322SOL    MW4 9417   2.881   1.304   3.754  0.4840 -0.3333  0.0207
 2323SOL     OW 9418   2.911   1.569   3.830 -0.1573  0.0349  0.0258
 2323SOL    HW2 9419   2.826   1.596   3.795  0.2391 -0.2985 -1.2134
 2323SOL    HW3 9420   2.974   1.626   3.787  0.1457  1.1592  1.9263
 2323SOL    MW4 9421   2.908   1.580   3.820 -0.0648  0.1392  0.1130
 2324SOL     OW 9422   0.794   4.296   4.767  0.3159  0.0584 -0.0598
 2324SOL    HW2 9423   0.748   4.222   4.726  0.8834 -0.0259 -0.5520
 2324SOL    HW3 9424   0.736   4.371   4.752  0.4431 -0.0043 -0.8725
 2324SOL    MW4 9425   0.780   4.296   4.760  0.4075  0.0391 -0.2317
 2325SOL     OW 9426   0.761   3.359   4.640 -0.5066  0.5393 -0.1081
 2325SOL    HW2 9427   0.855   3.370   4.647 -0.3444  0.3124 -1.6025
 2325SOL    HW3 9428   0.728   3.447   4.620 -0.5840  0.5760  0.1806
 2325SOL    MW4 9429   0.769   3.372   4.638 -0.4954  0.5143 -0.2670
 2326SOL     OW 9430   2.931   2.056   3.790 -0.0775 -0.5076  0.2789
 2326SOL    HW2 9431   2.851   2.016   3.823 -0.3560  0.0250  0.2612
 2326SOL    HW3 9432   2.944   2.133   3.845 -0.5345  0.3689 -0.8083
 2326SOL    MW4 9433   2.922   2.061   3.801 -0.1745 -0.3216  0.1330
 2327SOL     OW 9434   2.000   1.802   4.753 -0.4147 -0.0089 -0.0611
 2327SOL    HW2 9435   2.014   1.889   4.790  0.2469 -0.6948  1.3379
 2327SOL    HW3 9436   1.982   1.818   4.660  0.7050  1.5483 -0.0345
 2327SOL    MW4 9437   1.999   1.816   4.745 -0.1796  0.1060  0.1264
 2328SOL     OW 9438   2.734   2.445   3.750  0.2282 -0.3201  0.3086
 2328SOL    HW2 9439   2.805   2.409   3.802  0.6700 -0.4850 -0.4072
 2328SOL    HW3 9440   2.656   2.399   3.782  0.7337 -1.6512 -0.3313
 2328SOL    MW4 9441   2.733   2.434   3.761  0.3533 -0.5174  0.1297
 2329SOL     OW 9442   2.481   0.189   4.767 -0.1997  0.0039  0.2906
 2329SOL    HW2 9443   2.543   0.256   4.739 -0.4325  0.9266  1.9424
 2329SOL    HW3 9444   2.536   0.114   4.789  0.1076 -0.1456 -0.9444
 2329SOL    MW4 9445   2.496   0.188   4.767 -0.1898  0.1059  0.3452
 2330SOL     OW 9446   2.938   2.786   3.700 -0.3838  0.2210  0.4361
 2330SOL    HW2 9447   2.965   2.861   3.752 -1.1198  1.2500 -0.6466
 2330SOL    HW3 9448   2.852   2.762   3.736 -0.0367 -0.2797  0.9498
 2330SOL    MW4 9449   2.930   2.793   3.712 -0.4351  0.2906  0.3612
 2331SOL     OW 9450   2.758   3.428   3.870  0.1002 -0.0039 -0.7500
 2331SOL    HW2 9451   2.833   3.475   3.832 -0.5330  2.4830  0.9280
 2331SOL    HW3 9452   2.770   3.438   3.965 -2.9179  1.3457 -0.4674
 2331SOL    MW4 9453   2.770   3.435   3.878 -0.3815  0.5023 -0.4909
 2332SOL     OW 9454   2.696   3.181   3.766 -0.1101 -0.3705 -0.1935
 2332SOL    HW2 9455   2.707   3.262   3.816  0.2964  0.1995 -1.1734
 2332SOL    HW3 9456   2.603   3.160   3.772 -0.3142  0.4757 -0.3802
 2332SOL    MW4 9457   2.685   3.189   3.773 -0.0834 -0.1836 -0.3471
 2333SOL     OW 9458   1.720   3.731   4.232 -0.0655  0.2196  0.7806
 2333SOL    HW2 9459   1.757   3.707   4.317 -1.8789 -1.1588  1.1960
 2333SOL    HW3 9460   1.748   3.661   4.173  0.2290  0.5831  0.4814
 2333SOL    MW4 9461   1.729   3.719   4.236 -0.2660  0.0858  0.7958
 2334SOL     OW 9462   2.952   3.578   3.741  0.2766  0.1448 -0.3166
 2334SOL    HW2 9463   3.036   3.543   3.769 -0.9428 -3.3137 -0.7728
 2334SOL    HW3 9464   2.957   3.581   3.645 -0.1167 -0.0858 -0.3478
 2334SOL    MW4 9465   2.964   3.574   3.732  0.0639 -0.3419 -0.3810
 2335SOL     OW 9466   2.914   3.812   3.873  0.1901  0.2508 -0.0456
 2335SOL    HW2 9467   2.914   3.730   3.823  0.4305  0.2801 -0.0923
 2335SOL    HW3 9468   2.896   3.785   3.963 -0.8985  0.2603 -0.2481
 2335SOL    MW4 9469   2.912   3.797   3.879  0.0780  0.2558 -0.0787
 2336SOL     OW 9470   2.695   3.964   3.759  0.1448 -0.6805  0.3308
 2336SOL    HW2 9471   2.701   4.055   3.791 -1.9910 -0.3392 -0.1393
 2336SOL    HW3 9472   2.769   3.920   3.799 -0.8607  0.3961  3.5920
 2336SOL    MW4 9473   2.705   3.970   3.769 -0.2697 -0.4935  0.6988
 2337SOL     OW 9474   2.682   4.239   3.848  0.5180 -0.2240  0.4711
 2337SOL    HW2 9475   2.746   4.301   3.811  1.5260 -0.6299  1.5264
 2337SOL    HW3 9476   2.598   4.284   3.838  0.9365  0.2583 -1.0654
 2337SOL    MW4 9477   2.680   4.253   3.841  0.7064 -0.2136  0.4077
 2338SOL     OW 9478   2.877   4.397   3.748 -0.1643  0.0162 -0.0927
 2338SOL    HW2 9479   2.952   4.358   3.793 -0.3551  0.1304  0.3296
 2338SOL    HW3 9480   2.860   4.478   3.796 -0.5955 -0.0386 -0.1486
 2338SOL    MW4 9481   2.885   4.403   3.761 -0.2465  0.0243 -0.0441
 2339SOL     OW 9482   3.316   4.634   3.891 -0.1433 -0.0224  0.4348
 2339SOL    HW2 9483   3.319   4.638   3.987 -0.1161  2.1027  0.3522
 2339SOL    HW3 9484   3.393   4.684   3.863  0.1445 -1.0808 -0.7094
 2339SOL    MW4 9485   3.327   4.641   3.900 -0.1018  0.1183  0.2730
 2340SOL     OW 9486   3.085   0.095   3.811 -0.0865 -0.1604 -0.2926
 2340SOL    HW2 9487   3.162   0.049   3.845 -1.3512 -2.1633 -0.0755
 2340SOL    HW3 9488   3.106   0.113   3.719  0.7939 -0.3230 -0.1303
 2340SOL    MW4 9489   3.098   0.092   3.803 -0.1373 -0.4461 -0.2427
 2341SOL     OW 9490   2.917   0.504   3.735  0.1344 -0.0871 -0.4379
 2341SOL    HW2 9491   2.997   0.461   3.764  0.2160  0.6489  0.4467
 2341SOL    HW3 9492   2.848   0.440   3.749  0.5404 -0.6649 -1.0498
 2341SOL    MW4 9493   2.919   0.490   3.741  0.1988 -0.0662 -0.4017
 2342SOL     OW 9494   3.352   0.500   3.765 -0.6938 -0.3635 -0.0192
 2342SOL    HW2 9495   3.429   0.462   3.808 -0.5964 -1.1945 -0.9089
 2342SOL    HW3 9496   3.280   0.442   3.789 -0.7271 -0.5549 -0.5895
 2342SOL    MW4 9497   3.353   0.487   3.774 -0.6857 -0.4984 -0.2122
 2343SOL     OW 9498   3.322   0.764   3.821 -0.2365 -0.1334 -0.1299
 2343SOL    HW2 9499   3.305   0.758   3.915 -1.1073 -0.5561 -0.3126
 2343SOL    HW3 9500   3.331   0.673   3.792 -1.7266 -0.0868 -0.7701
 2343SOL    MW4 9501   3.321   0.751   3.829 -0.5479 -0.1830 -0.2384
 2344SOL     OW 9502   3.093   0.899   3.712 -0.2509 -0.4184  0.2625
 2344SOL    HW2 9503   3.172   0.859   3.748 -0.1414 -0.8920 -0.4903
 2344SOL    HW3 9504   3.104   0.892   3.617 -0.3147  1.2112  0.1118
 2344SOL    MW4 9505   3.105   0.893   3.704 -0.2449 -0.2659  0.1431
 2345SOL     OW 9506   3.063   1.141   3.845  0.0192 -0.4572 -0.1108
 2345SOL    HW2 9507   3.088   1.051   3.821  0.9550  0.0844 -1.2124
 2345SOL    HW3 9508   3.042   1.135   3.938  2.1820 -1.4045  0.3725
 2345SOL    MW4 9509   3.064   1.128   3.854  0.4282 -0.5106 -0.1924
 2346SOL     OW 9510   3.368   1.517   3.902 -0.3979  0.0680 -0.4015
 2346SOL    HW2 9511   3.306   1.582   3.869 -0.0403 -0.4811 -2.2556
 2346SOL    HW3 9512   3.350   1.439   3.849  0.0405 -0.9325  0.9175
 2346SOL    MW4 9513   3.358   1.515   3.890 -0.2933 -0.1365 -0.4723
 2347SOL     OW 9514   3.179   1.682   3.790 -0.0008 -0.0959  0.0755
 2347SOL    HW2 9515   3.185   1.675   3.695  2.1266 -2.0479  0.3111
 2347SOL    HW3 9516   3.184   1.776   3.808  2.1767  0.1349 -1.5946
 2347SOL    MW4 9517   3.180   1.694   3.780  0.5674 -0.3228 -0.1137
 2348SOL     OW 9518   3.179   1.950   3.851  0.1749 -0.0655 -0.3477
 2348SOL    HW2 9519   3.244   2.009   3.813 -0.3069 -0.2006 -1.4201
 2348SOL    HW3 9520   3.095   1.988   3.826 -0.1432 -0.9357 -0.6331
 2348SOL    MW4 9521   3.176   1.963   3.843  0.0696 -0.1981 -0.5271
 2349SOL     OW 9522   4.011   1.663   4.524 -0.0699  0.0774 -0.4262
 2349SOL    HW2 9523   4.050   1.700   4.444  3.0965  0.3933  1.2050
 2349SOL    HW3 9524   3.970   1.739   4.567  0.9011  0.5106 -0.2443
 2349SOL    MW4 9525   4.010   1.678   4.519  0.4759  0.1762 -0.1869
 2350SOL     OW 9526   3.381   2.075   3.758 -0.0335 -0.2198  0.6315
 2350SOL    HW2 9527   3.454   2.013   3.767  0.9259  0.7158 -0.4513
 2350SOL    HW3 9528   3.381   2.099   3.666 -1.3160  0.2848  0.7499
 2350SOL    MW4 9529   3.391   2.070   3.747 -0.0761 -0.0298  0.5043
 2351SOL     OW 9530   2.921   2.334   3.940  0.2495  0.4398  0.1808
 2351SOL    HW2 9531   3.009   2.366   3.959  0.1068 -0.0244  1.6674
 2351SOL    HW3 9532   2.874   2.341   4.023 -0.8687 -0.1202 -0.3923
 2351SOL    MW4 9533   2.927   2.339   3.953  0.0832  0.3047  0.3011
 2352SOL     OW 9534   3.591   2.443   3.779 -0.2597  0.3922 -0.1242
 2352SOL    HW2 9535   3.535   2.408   3.848  1.0518 -0.1141  0.7115
 2352SOL    HW3 9536   3.617   2.529   3.811  0.7434 -0.0428  0.2638
 2352SOL    MW4 9537   3.587   2.449   3.793  0.0455  0.2677  0.0374
 2353SOL     OW 9538   3.151   2.600   3.753 -0.2337 -0.0613 -0.1253
 2353SOL    HW2 9539   3.151   2.550   3.671 -0.4407  0.3963 -0.4065
 2353SOL    HW3 9540   3.070   2.652   3.749 -0.0008  0.3209  0.1508
 2353SOL    MW4 9541   3.140   2.600   3.742 -0.2306  0.0494 -0.1259
 2354SOL     OW 9542   3.370   2.760   3.727  0.3897 -0.4026  0.5461
 2354SOL    HW2 9543   3.292   2.712   3.757  1.3491 -1.7046  1.0268
 2354SOL    HW3 9544   3.361   2.763   3.632 -0.2531 -0.5615  0.5970
 2354SOL    MW4 9545   3.358   2.754   3.719  0.4315 -0.5951  0.6163
 2355SOL     OW 9546   3.348   3.035   3.840 -0.1427 -0.1152  0.1096
 2355SOL    HW2 9547   3.438   3.068   3.832 -0.0942 -0.4789 -0.8036
 2355SOL    HW3 9548   3.352   2.945   3.808 -1.3685  0.7055 -2.4235
 2355SOL    MW4 9549   3.361   3.028   3.835 -0.2980 -0.0551 -0.3450
 2356SOL     OW 9550   3.147   3.199   3.751 -0.2344 -0.1314  0.0886
 2356SOL    HW2 9551   3.215   3.137   3.777 -1.2992 -0.7114  1.6054
 2356SOL    HW3 9552   3.153   3.203   3.656  1.7230 -0.3862  0.1830
 2356SOL    MW4 9553   3.157   3.191   3.742 -0.1163 -0.2413  0.3011
 2357SOL     OW 9554   3.159   3.453   3.852 -0.0682 -0.1811 -0.2428
 2357SOL    HW2 9555   3.248   3.475   3.823  0.2559 -1.3575 -0.2109
 2357SOL    HW3 9556   3.142   3.368   3.811 -1.4250  0.3275 -0.7382
 2357SOL    MW4 9557   3.169   3.444   3.843 -0.2046 -0.2694 -0.3040
 2358SOL     OW 9558   3.401   3.576   3.773 -0.0248  0.1836  0.1260
 2358SOL    HW2 9559   3.405   3.668   3.798 -1.8058  0.4964 -0.6097
 2358SOL    HW3 9560   3.384   3.578   3.678 -1.6105 -0.8466  0.3602
 2358SOL    MW4 9561   3.399   3.588   3.764 -0.4687  0.0889  0.0596
 2359SOL     OW 9562   3.370   3.854   3.855  0.3498 -0.5138 -0.3059
 2359SOL    HW2 9563   3.446   3.913   3.851 -0.1722  0.1615 -0.3664
 2359SOL    HW3 9564   3.331   3.873   3.941  0.3737 -1.0197 -0.1832
 2359SOL    MW4 9565   3.375   3.864   3.866  0.2840 -0.4916 -0.2980
 2360SOL     OW 9566   3.142   3.990   3.781 -0.2375  0.0079 -0.2957
 2360SOL    HW2 9567   3.226   3.945   3.795 -0.7042 -1.1713 -1.2250
 2360SOL    HW3 9568   3.077   3.932   3.821 -0.8876 -0.3443 -1.8397
 2360SOL    MW4 9569   3.145   3.976   3.789 -0.3848 -0.1941 -0.6223
 2361SOL     OW 9570   3.123   4.267   3.824 -0.3523 -0.1028  0.1159
 2361SOL    HW2 9571   3.120   4.176   3.797 -0.3756 -0.3246  0.8419
 2361SOL    HW3 9572   3.210   4.297   3.798  0.5337 -0.9974  1.9012
 2361SOL    MW4 9573   3.134   4.259   3.817 -0.2384 -0.2503  0.4475
 2362SOL     OW 9574   3.388   4.378   3.769 -0.2791 -0.0098 -0.2156
 2362SOL    HW2 9575   3.451   4.340   3.830  1.0790 -0.0143 -1.6087
 2362SOL    HW3 9576   3.368   4.465   3.806 -0.1538 -0.3602  0.6937
 2362SOL    MW4 9577   3.393   4.385   3.782 -0.0837 -0.0572 -0.2794
 2363SOL     OW 9578   3.800   0.019   3.895  0.0492 -0.5424  0.1050
 2363SOL    HW2 9579   3.875   0.060   3.852 -0.2619 -0.9381 -0.8295
 2363SOL    HW3 9580   3.803  -0.073   3.868  0.7800 -1.1821  2.2438
 2363SOL    MW4 9581   3.810   0.012   3.886  0.1044 -0.6795  0.2642
 2364SOL     OW 9582   3.548   0.118   3.820 -0.2239  0.0667 -0.5577
 2364SOL    HW2 9583   3.624   0.063   3.841 -0.0922  0.0454 -1.0840
 2364SOL    HW3 9584   3.547   0.122   3.725  0.4326  1.8921 -0.5091
 2364SOL    MW4 9585   3.558   0.111   3.810 -0.1194  0.3047 -0.6206
 2365SOL     OW 9586   3.802   0.535   3.761 -0.0574 -0.0134  0.0481
 2365SOL    HW2 9587   3.802   0.621   3.802 -0.3349 -0.0566  0.1371
 2365SOL    HW3 9588   3.727   0.490   3.799  0.2609 -0.4018  0.2264
 2365SOL    MW4 9589   3.792   0.540   3.771 -0.0522 -0.0704  0.0832
 2366SOL     OW 9590   3.794   0.778   3.873  0.1273  0.1721  0.0918
 2366SOL    HW2 9591   3.760   0.771   3.963  0.2663  1.0607  0.2131
 2366SOL    HW3 9592   3.723   0.819   3.824  1.0170  2.0675  0.3492
 2366SOL    MW4 9593   3.780   0.782   3.879  0.2630  0.5394  0.1416
 2367SOL     OW 9594   3.766   0.816   4.162 -0.2425  0.0475 -0.1064
 2367SOL    HW2 9595   3.838   0.754   4.172 -0.3250 -0.2071 -1.0510
 2367SOL    HW3 9596   3.802   0.899   4.192  0.7533  0.1224 -1.4374
 2367SOL    MW4 9597   3.780   0.819   4.167 -0.1223  0.0238 -0.4067
 2368SOL     OW 9598   3.034   1.077   4.642  0.4766 -0.3833 -0.6639
 2368SOL    HW2 9599   3.028   0.984   4.621  1.3984 -0.8788  1.1339
 2368SOL    HW3 9600   2.954   1.096   4.692  1.1395 -0.6794  0.5486
 2368SOL    MW4 9601   3.023   1.068   4.646  0.6855 -0.4877 -0.2666
 2369SOL     OW 9602   3.312   1.286   3.767 -0.0218  0.1695 -0.2892
 2369SOL    HW2 9603   3.233   1.239   3.795  0.9885 -1.6791 -0.5119
 2369SOL    HW3 9604   3.322   1.263   3.674  1.3923 -0.4676  0.0164
 2369SOL    MW4 9605   3.303   1.277   3.758  0.2980 -0.1585 -0.2782
 2370SOL     OW 9606   4.272   1.973   4.613 -0.5542  0.0291  0.4315
 2370SOL    HW2 9607   4.197   1.978   4.553 -1.1490 -1.2024  1.0481
 2370SOL    HW3 9608   4.340   2.026   4.571 -0.9070 -0.9339 -1.4172
 2370SOL    MW4 9609   4.271   1.980   4.599 -0.6790 -0.2604  0.2699
 2371SOL     OW 9610   0.903   0.890   4.721 -0.2023  0.3183  0.2414
 2371SOL    HW2 9611   0.843   0.885   4.647 -0.0579 -0.4503  0.1655
 2371SOL    HW3 9612   0.928   0.799   4.737 -0.1837  0.4812  1.1905
 2371SOL    MW4 9613   0.898   0.877   4.714 -0.1808  0.2384  0.3572
 2372SOL     OW 9614   3.619   1.605   3.782  0.1654 -0.4228 -0.1383
 2372SOL    HW2 9615   3.531   1.578   3.810  1.1056 -1.7882  1.6302
 2372SOL    HW3 9616   3.610   1.624   3.689 -2.1487  0.1145  0.1691
 2372SOL    MW4 9617   3.606   1.604   3.774 -0.0157 -0.5320  0.1357
 2373SOL     OW 9618   3.913   1.574   4.179  0.1114  0.1282 -0.0415
 2373SOL    HW2 9619   3.832   1.559   4.228  1.1468 -1.4152  1.2663
 2373SOL    HW3 9620   3.890   1.559   4.088 -1.3989  1.0616  0.1866
 2373SOL    MW4 9621   3.900   1.570   4.174  0.0486  0.0478  0.1612
 2374SOL     OW 9622   3.578   1.883   3.827 -0.6158 -0.1679 -0.3508
 2374SOL    HW2 9623   3.550   1.905   3.916 -0.1129  0.6776 -0.3964
 2374SOL    HW3 9624   3.599   1.789   3.831  0.5452  0.1272  0.7176
 2374SOL    MW4 9625   3.577   1.873   3.839 -0.3963 -0.0174 -0.2158
 2375SOL     OW 9626   4.046   2.431   3.759  0.3653  0.1963 -0.6411
 2375SOL    HW2 9627   4.069   2.507   3.813  0.0920 -0.0851 -0.1150
 2375SOL    HW3 9628   3.975   2.388   3.809  0.7222 -0.5624 -0.7888
 2375SOL    MW4 9629   4.039   2.435   3.773  0.3762  0.0591 -0.5910
 2376SOL     OW 9630   3.808   2.298   3.857 -0.0357  0.3876  0.1633
 2376SOL    HW2 9631   3.732   2.351   3.830  0.7638  0.7486 -1.4334
 2376SOL    HW3 9632   3.801   2.218   3.804 -0.7545 -0.7521  1.9323
 2376SOL    MW4 9633   3.797   2.294   3.846 -0.0250  0.2851  0.1860
 2377SOL     OW 9634   3.622   2.699   3.844 -0.0318 -0.3385  0.2680
 2377SOL    HW2 9635   3.616   2.722   3.937 -0.9548 -0.6019  0.2801
 2377SOL    HW3 9636   3.532   2.706   3.812  0.1636 -0.9688 -0.4368
 2377SOL    MW4 9637   3.609   2.703   3.852 -0.1280 -0.4568  0.1764
 2378SOL     OW 9638   3.850   2.810   3.731 -0.4219  0.1142  0.1431
 2378SOL    HW2 9639   3.918   2.753   3.767 -0.3597  0.5320  0.6873
 2378SOL    HW3 9640   3.768   2.770   3.761 -0.4757 -1.0998 -1.5475
 2378SOL    MW4 9641   3.848   2.797   3.740 -0.4208  0.0091 -0.0079
 2379SOL     OW 9642   3.856   3.027   3.907  0.2969 -0.1139  0.0446
 2379SOL    HW2 9643   3.785   3.085   3.879  0.5406 -0.1976 -0.7464
 2379SOL    HW3 9644   3.850   2.951   3.849 -0.1767 -1.0084  1.2354
 2379SOL    MW4 9645   3.846   3.025   3.896  0.2666 -0.2427  0.0973
 2380SOL     OW 9646   3.600   3.161   3.785  0.0079  0.8369 -0.2709
 2380SOL    HW2 9647   3.594   3.256   3.797  0.8597  0.8390  0.1411
 2380SOL    HW3 9648   3.611   3.150   3.690  0.2770  1.1624 -0.2775
 2380SOL    MW4 9649   3.601   3.172   3.774  0.1557  0.8800 -0.2174
 2381SOL     OW 9650   3.631   3.441   3.854  0.3921 -0.0060  0.2468
 2381SOL    HW2 9651   3.625   3.449   3.949  1.6630 -1.7919  0.4980
 2381SOL    HW3 9652   3.549   3.478   3.821 -0.3966 -0.1039  2.0798
 2381SOL    MW4 9653   3.619   3.447   3.862  0.4561 -0.2546  0.5217
 2382SOL     OW 9654   3.827   3.617   3.769  0.2593 -0.1957  0.4910
 2382SOL    HW2 9655   3.908   3.575   3.797 -0.8129 -0.9847  2.5302
 2382SOL    HW3 9656   3.758   3.561   3.804 -1.1818  0.6274 -0.9706
 2382SOL    MW4 9657   3.829   3.604   3.777 -0.0722 -0.1912  0.5672
 2383SOL     OW 9658   0.768   4.612   4.155  1.0224 -0.1422  0.3457
 2383SOL    HW2 9659   0.724   4.612   4.069  1.2112 -1.3355  0.2521
 2383SOL    HW3 9660   0.711   4.667   4.210 -0.0611 -0.8460 -0.0505
 2383SOL    MW4 9661   0.754   4.619   4.151  0.9044 -0.3924  0.2813
 2384SOL     OW 9662   3.586   3.999   3.811  0.4267  0.2472  0.4026
 2384SOL    HW2 9663   3.669   3.963   3.844  0.6464  2.0853  1.9615
 2384SOL    HW3 9664   3.589   4.091   3.837 -0.9861  0.9349 -1.7720
 2384SOL    MW4 9665   3.598   4.007   3.818  0.2692  0.5803  0.3214
 2385SOL     OW 9666   3.595   4.262   3.894  0.1512 -0.5593  0.0106
 2385SOL    HW2 9667   3.590   4.282   3.988 -1.1170  0.3696 -0.2394
 2385SOL    HW3 9668   3.651   4.331   3.858  0.9227 -1.1159  0.1306
 2385SOL    MW4 9669   3.601   4.274   3.902  0.0856 -0.5102 -0.0069
 2386SOL     OW 9670   3.824   4.407   3.796 -0.3043  0.0369  0.4846
 2386SOL    HW2 9671   3.904   4.370   3.833  0.0254 -0.1915 -0.4410
 2386SOL    HW3 9672   3.838   4.404   3.702 -0.7897  1.3896  0.3671
 2386SOL    MW4 9673   3.837   4.401   3.789 -0.3250  0.1850  0.3471
 2387SOL     OW 9674   4.208   4.594   3.846 -0.2334  0.2304  0.0888
 2387SOL    HW2 9675   4.221   4.601   3.941 -0.4062  1.2520  0.0455
 2387SOL    HW3 9676   4.288   4.631   3.808 -0.4515  0.4523 -0.1612
 2387SOL    MW4 9677   4.221   4.600   3.854 -0.2847  0.3948  0.0503
 2388SOL     OW 9678   4.046   0.133   3.774 -0.1879  0.2001 -0.2529
 2388SOL    HW2 9679   4.086   0.055   3.812  0.2674  0.9731  0.9018
 2388SOL    HW3 9680   4.053   0.120   3.680  1.8253 -0.1971 -0.0868
 2388SOL    MW4 9681   4.052   0.121   3.767  0.1383  0.2496 -0.0787
 2389SOL     OW 9682   4.011   0.391   3.883 -0.3222  0.4552 -0.3123
 2389SOL    HW2 9683   3.933   0.442   3.860 -0.3647  0.2770 -0.5569
 2389SOL    HW3 9684   4.007   0.314   3.827 -0.2362  0.1994  0.0320
 2389SOL    MW4 9685   4.000   0.388   3.873 -0.3161  0.3979 -0.2990
 2390SOL     OW 9686   4.277   0.465   3.824 -0.1213 -0.2194 -0.0404
 2390SOL    HW2 9687   4.189   0.447   3.856 -0.1867 -1.0500 -0.6697
 2390SOL    HW3 9688   4.266   0.480   3.730  0.2800  0.6116  0.0437
 2390SOL    MW4 9689   4.264   0.464   3.815 -0.0768 -0.2193 -0.1125
 2391SOL     OW 9690   4.278   0.745   3.911  0.2668  0.3089 -0.1629
 2391SOL    HW2 9691   4.190   0.766   3.880  0.6955  0.6787 -1.1361
 2391SOL    HW3 9692   4.288   0.652   3.893 -0.3419 -0.0028  1.0041
 2391SOL    MW4 9693   4.268   0.735   3.905  0.2427  0.3166 -0.1376
 2392SOL     OW 9694   4.044   0.851   3.801 -0.2740 -0.0908 -0.0651
 2392SOL    HW2 9695   3.956   0.833   3.835 -0.7209  0.7322 -0.7647
 2392SOL    HW3 9696   4.030   0.866   3.707  0.7335 -0.8084 -0.3368
 2392SOL    MW4 9697   4.031   0.850   3.793 -0.1998 -0.0768 -0.1936
 2393SOL     OW 9698   2.409   1.531   3.901 -0.1053  0.0011 -0.0450
 2393SOL    HW2 9699   2.332   1.587   3.893 -0.5472 -0.4623  0.8498
 2393SOL    HW3 9700   2.425   1.526   3.996 -0.7271 -2.2505 -0.0345
 2393SOL    MW4 9701   2.401   1.538   3.913 -0.2456 -0.3572  0.0744
 2394SOL     OW 9702   4.008   1.110   3.888 -0.6196  0.6491 -0.4164
 2394SOL    HW2 9703   4.086   1.155   3.854  0.1892 -0.5083 -0.1191
 2394SOL    HW3 9704   4.022   1.018   3.866 -0.2536 -0.0955  2.6814
 2394SOL    MW4 9705   4.021   1.104   3.881 -0.4644  0.3982  0.0315
 2395SOL     OW 9706   4.481   4.178   4.621  0.3762 -0.0160 -0.2544
 2395SOL    HW2 9707   4.421   4.251   4.607  1.7201  0.9502 -0.9989
 2395SOL    HW3 9708   4.472   4.157   4.715 -0.0847  1.0236 -0.0664
 2395SOL    MW4 9709   4.471   4.185   4.632  0.4926  0.2484 -0.3276
 2396SOL     OW 9710   4.087   1.678   3.766 -0.9636 -0.2424 -0.6127
 2396SOL    HW2 9711   4.163   1.645   3.814  1.1716  0.3748 -3.5014
 2396SOL    HW3 9712   4.073   1.766   3.801 -0.5230 -0.4594  0.1152
 2396SOL    MW4 9713   4.095   1.686   3.777 -0.6237 -0.1895 -0.8979
 2397SOL     OW 9714   4.284   2.056   3.801 -0.6749  0.2481 -0.0713
 2397SOL    HW2 9715   4.365   2.020   3.838 -0.0197  0.0287 -1.6800
 2397SOL    HW3 9716   4.301   2.062   3.707 -3.1720 -1.4767 -0.6776
 2397SOL    MW4 9717   4.297   2.052   3.793 -0.9179 -0.0083 -0.3638
 2398SOL     OW 9718   3.735   2.035   4.236 -0.3612 -0.2667 -0.0390
 2398SOL    HW2 9719   3.671   1.988   4.182 -0.2390 -0.7177  0.2050
 2398SOL    HW3 9720   3.731   2.125   4.204 -4.3219  0.7241  2.8871
 2398SOL    MW4 9721   3.726   2.040   4.224 -0.8678 -0.1955  0.3791
 2399SOL     OW 9722   0.714   2.398   4.435  0.2852  0.0189  0.0460
 2399SOL    HW2 9723   0.680   2.485   4.457  0.4075  0.1566 -0.3132
 2399SOL    HW3 9724   0.642   2.353   4.393  0.4537  0.2046 -0.4397
 2399SOL    MW4 9725   0.700   2.404   4.432  0.3235  0.0618 -0.0648
 2400SOL     OW 9726   3.825   2.038   3.744  0.2674  0.5433 -0.5109
 2400SOL    HW2 9727   3.748   1.990   3.776 -0.5886  2.3589  0.2383
 2400SOL    HW3 9728   3.898   2.006   3.797 -0.4911  0.8503  0.7436
 2400SOL    MW4 9729   3.824   2.028   3.755  0.0544  0.8233 -0.2465
 2401SOL     OW 9730   4.047   2.693   3.896  0.2320  0.6865  0.2245
 2401SOL    HW2 9731   4.032   2.702   3.990  0.9678  2.5981  0.1846
 2401SOL    HW3 9732   4.133   2.733   3.882  0.4890 -0.3247 -1.1391
 2401SOL    MW4 9733   4.057   2.699   3.907  0.3629  0.8051  0.0396
 2402SOL     OW 9734   4.282   2.792   3.786 -0.2531  0.1393 -0.3484
 2402SOL    HW2 9735   4.278   2.888   3.794 -0.4902  0.0902  0.1289
 2402SOL    HW3 9736   4.363   2.768   3.830 -0.8226  0.0049  0.6278
 2402SOL    MW4 9737   4.292   2.802   3.792 -0.3600  0.1149 -0.1566
 2403SOL     OW 9738   4.293   3.061   3.858 -0.3911 -0.3078  0.4672
 2403SOL    HW2 9739   4.372   3.115   3.850 -0.8757  0.6371  1.8733
 2403SOL    HW3 9740   4.226   3.109   3.809 -0.0968 -1.1407 -0.7773
 2403SOL    MW4 9741   4.295   3.074   3.850 -0.4163 -0.2930  0.4883
 2404SOL     OW 9742   4.037   3.206   3.770 -0.1806 -0.2109  0.0724
 2404SOL    HW2 9743   3.968   3.151   3.807 -0.6753  1.0427  1.0534
 2404SOL    HW3 9744   4.018   3.208   3.676 -1.4441  0.0473  0.3166
 2404SOL    MW4 9745   4.025   3.199   3.762 -0.4129 -0.0112  0.2341
 2405SOL     OW 9746   3.284   4.616   4.174  0.0120  0.2673 -0.0584
 2405SOL    HW2 9747   3.357   4.649   4.227 -0.5941  0.1224  0.8871
 2405SOL    HW3 9748   3.207   4.661   4.209 -0.4283 -0.0047 -0.6708
 2405SOL    MW4 9749   3.284   4.626   4.186 -0.1261  0.2122 -0.0143
 2406SOL     OW 9750   4.234   3.608   3.742 -0.1746  0.0065  0.2620
 2406SOL    HW2 9751   4.312   3.556   3.764  0.4401  1.2443  1.0737
 2406SOL    HW3 9752   4.162   3.563   3.784  0.2817 -0.4716  0.5400
 2406SOL    MW4 9753   4.235   3.595   3.750 -0.0334  0.1068  0.4055
 2407SOL     OW 9754   4.061   4.004   3.778 -0.0067  0.0656  0.4264
 2407SOL    HW2 9755   4.070   4.097   3.799  0.9174  0.0572  0.0655
 2407SOL    HW3 9756   4.048   4.001   3.684  1.3506 -0.2548  0.2369
 2407SOL    MW4 9757   4.060   4.016   3.769  0.2942  0.0219  0.3541
 2408SOL     OW 9758   4.262   3.834   3.893  0.1483 -0.2360  0.5357
 2408SOL    HW2 9759   4.256   3.750   3.848  0.6772  1.2042 -2.3712
 2408SOL    HW3 9760   4.177   3.875   3.878  0.7223  0.7245 -0.2103
 2408SOL    MW4 9761   4.250   3.828   3.885  0.2937  0.0808  0.0536
 2409SOL     OW 9762   4.082   4.277   3.845  0.0848  0.3728 -0.0695
 2409SOL    HW2 9763   4.090   4.292   3.939 -0.4334  2.9440 -0.4080
 2409SOL    HW3 9764   4.169   4.298   3.810 -0.7340  3.1975 -0.5833
 2409SOL    MW4 9765   4.095   4.282   3.853 -0.0916  1.0843 -0.1822
 2410SOL     OW 9766   4.319   4.373   3.721 -0.2760 -0.3251  0.4417
 2410SOL    HW2 9767   4.286   4.445   3.775  0.7591  0.0277  0.6140
 2410SOL    HW3 9768   4.387   4.332   3.775 -1.5411 -2.0679  0.7592
 2410SOL    MW4 9769   4.323   4.377   3.735 -0.3066 -0.5083  0.5062
 2411SOL     OW 9770   2.657   3.856   4.687 -0.1586  0.5976 -0.0212
 2411SOL    HW2 9771   2.565   3.831   4.677 -0.1787 -0.1319  1.8187
 2411SOL    HW3 9772   2.654   3.945   4.722 -0.2246 -0.4848  2.8056
 2411SOL    MW4 9773   2.644   3.864   4.690 -0.1702  0.3583  0.5941
 2412SOL     OW 9774   0.041   0.378   4.389 -0.0967 -0.2133  0.2595
 2412SOL    HW2 9775   0.072   0.340   4.307  0.8234 -0.0491  0.5182
 2412SOL    HW3 9776  -0.027   0.440   4.362  1.6713  1.4230 -0.5978
 2412SOL    MW4 9777   0.036   0.381   4.374  0.2580  0.0243  0.1802
 2413SOL     OW 9778   2.629   1.270   4.873  0.5587  0.1756  0.4354
 2413SOL    HW2 9779   2.567   1.320   4.820  1.2301 -0.7542 -1.2484
 2413SOL    HW3 9780   2.635   1.319   4.955 -0.4975  1.6248 -0.3299
 2413SOL    MW4 9781   2.621   1.283   4.877  0.5081  0.2441  0.1121
 2414SOL     OW 9782   4.080   4.235   4.134  0.2295 -0.9030 -0.3144
 2414SOL    HW2 9783   4.163   4.275   4.161 -0.3520 -0.9895  1.6822
 2414SOL    HW3 9784   4.094   4.141   4.144 -0.1498 -0.9116  0.1504
 2414SOL    MW4 9785   4.093   4.228   4.139  0.1025 -0.9155  0.0105
 2415SOL     OW 9786   1.633   4.611   4.128 -0.0591 -0.5086  0.5837
 2415SOL    HW2 9787   1.563   4.558   4.165  0.7745 -1.0559  1.3997
 2415SOL    HW3 9788   1.628   4.694   4.175  0.6942 -1.0319  1.6216
 2415SOL    MW4 9789   1.623   4.615   4.139  0.1503 -0.6499  0.8283
 2416SOL     OW 9790   1.403   3.144   4.367 -0.2808  0.1231 -0.1373
 2416SOL    HW2 9791   1.462   3.088   4.316  2.7838  2.2159  0.9766
 2416SOL    HW3 9792   1.382   3.216   4.308 -1.3961 -0.3738 -0.3640
 2416SOL    MW4 9793   1.408   3.146   4.352 -0.0235  0.3335 -0.0205
 2417SOL     OW 9794   4.180   2.887   4.634 -0.3080 -0.3118  0.2135
 2417SOL    HW2 9795   4.094   2.912   4.599 -0.4505  0.6265  1.1820
 2417SOL    HW3 9796   4.165   2.801   4.674 -0.9542  0.1215  0.9194
 2417SOL    MW4 9797   4.166   2.879   4.635 -0.4125 -0.1304  0.4344
 2418SOL     OW 9798   1.571   1.509   4.542 -0.1866  0.2927  0.1791
 2418SOL    HW2 9799   1.506   1.507   4.472 -0.0763 -0.9226  0.1149
 2418SOL    HW3 9800   1.537   1.573   4.604 -2.0341 -1.1978  0.7207
 2418SOL    MW4 9801   1.558   1.518   4.541 -0.4157 -0.0643  0.2422
 2419SOL     OW 9802   4.158   1.247   4.598  0.3295 -0.2447  0.0672
 2419SOL    HW2 9803   4.157   1.155   4.572  0.8105 -0.3140  0.2833
 2419SOL    HW3 9804   4.068   1.266   4.622 -0.0680 -0.2440 -1.4078
 2419SOL    MW4 9805   4.146   1.237   4.598  0.3405 -0.2538 -0.0987
 2420SOL     OW 9806   2.634   3.170   4.595  0.2100 -0.3971  0.0192
 2420SOL    HW2 9807   2.720   3.185   4.556  0.0375 -0.1978 -0.2880
 2420SOL    HW3 9808   2.572   3.202   4.529 -0.1164 -0.9827  0.0369
 2420SOL    MW4 9809   2.637   3.176   4.581  0.1440 -0.4480 -0.0186
 2421SOL     OW 9810   2.008   3.386   4.484  0.0200  0.0446  0.2474
 2421SOL    HW2 9811   1.966   3.311   4.526 -1.0953  0.6869  0.2764
 2421SOL    HW3 9812   2.049   3.349   4.406 -0.5133 -0.5977  0.2696
 2421SOL    MW4 9813   2.008   3.371   4.479 -0.1974  0.0448  0.2542
 2422SOL     OW 9814   0.660   1.268   4.180  0.2202 -0.1400 -0.2130
 2422SOL    HW2 9815   0.652   1.363   4.182  1.0347 -0.0477 -0.9820
 2422SOL    HW3 9816   0.752   1.252   4.157  0.2525 -1.1128  0.5662
 2422SOL    MW4 9817   0.671   1.278   4.178  0.3319 -0.2562 -0.2117
 2423SOL     OW 9818   3.065   0.294   4.510  0.6063  0.6623  0.3171
 2423SOL    HW2 9819   3.063   0.319   4.417  0.8991  0.9609  0.3890
 2423SOL    HW3 9820   3.043   0.374   4.557 -0.8534  0.1851  0.4590
 2423SOL    MW4 9821   3.062   0.308   4.504  0.4523  0.6388  0.3452
 2424SOL     OW 9822   3.165   2.428   4.608  0.0275 -0.3103  0.4251
 2424SOL    HW2 9823   3.079   2.460   4.581  0.1676 -0.7379 -0.5657
 2424SOL    HW3 9824   3.146   2.350   4.661 -0.2038 -0.3506  0.2842
 2424SOL    MW4 9825   3.151   2.422   4.611  0.0155 -0.3719  0.2761
 2425SOL     OW 9826   3.027   0.298   4.209  0.0065  0.0369 -0.4966
 2425SOL    HW2 9827   2.938   0.320   4.181  0.9024  0.0945 -3.4320
 2425SOL    HW3 9828   3.081   0.367   4.171  1.4607 -0.5948  0.4043
 2425SOL    MW4 9829   3.022   0.310   4.201  0.3164 -0.0389 -0.7644
 2426SOL     OW 9830   0.477   0.321   4.572 -0.7188  0.2673  0.4136
 2426SOL    HW2 9831   0.469   0.226   4.561 -1.3789  0.3108  0.4781
 2426SOL    HW3 9832   0.540   0.332   4.642 -1.8933 -0.1651  1.5611
 2426SOL    MW4 9833   0.484   0.310   4.580 -0.9608  0.2160  0.5736
 2427SOL     OW 9834   1.565   3.020   4.739 -0.2421  0.1934 -0.4723
 2427SOL    HW2 9835   1.556   3.099   4.686 -0.3202 -0.9853 -2.2691
 2427SOL    HW3 9836   1.483   3.014   4.788 -1.1340  0.0766 -1.9538
 2427SOL    MW4 9837   1.553   3.029   4.738 -0.3701  0.0226 -0.9046
 2428SOL     OW 9838   1.358   1.404   4.822  0.1414  0.1020  0.2840
 2428SOL    HW2 9839   1.275   1.401   4.775 -0.1156 -0.6970  0.7784
 2428SOL    HW3 9840   1.415   1.345   4.774  0.7526  1.4471 -0.6644
 2428SOL    MW4 9841   1.355   1.396   4.810  0.1881  0.1740  0.2236
 2429SOL     OW 9842   1.918   4.549   4.091 -0.1749  0.0202  0.0593
 2429SOL    HW2 9843   1.824   4.564   4.101 -0.0260  0.7564  0.3723
 2429SOL    HW3 9844   1.936   4.570   3.999 -0.7095 -2.2915 -0.6176
 2429SOL    MW4 9845   1.908   4.554   4.080 -0.2259 -0.1879  0.0114
 2430SOL     OW 9846   2.228   0.715   4.202 -0.2896  0.1565 -0.2233
 2430SOL    HW2 9847   2.167   0.788   4.216 -1.3803 -0.5477 -1.2092
 2430SOL    HW3 9848   2.312   0.757   4.187 -0.7354  1.1901  0.1033
 2430SOL    MW4 9849   2.231   0.730   4.202 -0.4923  0.2000 -0.3099
 2431SOL     OW 9850   0.492   1.920   3.924  0.1705  0.1657 -0.7239
 2431SOL    HW2 9851   0.416   1.965   3.888 -0.6445  0.7328  1.6486
 2431SOL    HW3 9852   0.567   1.964   3.882 -0.6861  2.2237 -0.1448
 2431SOL    MW4 9853   0.492   1.932   3.914 -0.0501  0.5121 -0.3345
 2432SOL     OW 9854   4.111   3.637   4.549  0.2136 -0.3139 -0.4214
 2432SOL    HW2 9855   4.137   3.545   4.547 -0.3829 -0.5100  0.3303
 2432SOL    HW3 9856   4.193   3.686   4.543  0.5886 -0.9047 -0.1407
 2432SOL    MW4 9857   4.125   3.632   4.548  0.1841 -0.4175 -0.2851
 2433SOL     OW 9858   0.915   4.198   4.144 -0.0209  0.2846 -0.2700
 2433SOL    HW2 9859   0.841   4.254   4.170 -0.2522  0.0357 -0.3860
 2433SOL    HW3 9860   0.980   4.212   4.212 -0.5473 -0.2081  0.3431
 2433SOL    MW4 9861   0.913   4.208   4.156 -0.1208  0.1869 -0.2046
 2434SOL     OW 9862   3.822   0.677   4.869  0.4405  0.3034  0.2106
 2434SOL    HW2 9863   3.841   0.751   4.812 -1.2188 -0.1918 -1.0184
 2434SOL    HW3 9864   3.872   0.695   4.949  1.1150  2.0562 -0.5803
 2434SOL    MW4 9865   3.831   0.689   4.872  0.3104  0.4693 -0.0553
 2435SOL     OW 9866   1.623   1.877   4.728  0.1603  0.0676  0.2339
 2435SOL    HW2 9867   1.569   1.798   4.733 -0.9215  0.8618  1.3875
 2435SOL    HW3 9868   1.698   1.860   4.786  0.6598 -0.6614 -0.6239
 2435SOL    MW4 9869   1.626   1.865   4.736  0.0834  0.0762  0.2723
 2436SOL     OW 9870   3.488   2.776   4.539  0.4600  0.1362  0.4072
 2436SOL    HW2 9871   3.434   2.727   4.601 -1.3075 -0.1688 -1.3486
 2436SOL    HW3 9872   3.577   2.747   4.558 -0.3603 -2.2559  0.7853
 2436SOL    MW4 9873   3.493   2.766   4.550  0.1185 -0.2196  0.2251
 2437SOL     OW 9874   0.478   2.683   4.132 -0.7170 -0.3411 -0.6205
 2437SOL    HW2 9875   0.522   2.733   4.202  0.2976  0.6392 -1.9301
 2437SOL    HW3 9876   0.385   2.689   4.154 -0.3886 -0.2632  0.7952
 2437SOL    MW4 9877   0.472   2.691   4.144 -0.5398 -0.2017 -0.6061
 2438SOL     OW 9878   3.751   3.077   4.669 -0.0812  0.5515 -0.1104
 2438SOL    HW2 9879   3.798   3.145   4.621  0.1836  0.2727 -0.2547
 2438SOL    HW3 9880   3.662   3.079   4.634 -0.1810  1.1047  0.1860
 2438SOL    MW4 9881   3.746   3.086   4.658 -0.0596  0.5877 -0.0906
 2439SOL     OW 9882   2.017   1.711   4.115  0.4445  0.0442  0.4384
 2439SOL    HW2 9883   2.042   1.802   4.128 -0.7357  0.9580 -3.2204
 2439SOL    HW3 9884   1.924   1.714   4.093  0.5164 -1.9772 -0.3004
 2439SOL    MW4 9885   2.008   1.723   4.114  0.2983 -0.1020 -0.1411
 2440SOL     OW 9886   3.848   3.303   4.491 -0.1547 -0.3348  0.3686
 2440SOL    HW2 9887   3.804   3.275   4.411  1.0067 -0.0099 -0.3930
 2440SOL    HW3 9888   3.820   3.394   4.503 -0.3625 -0.3973  0.3636
 2440SOL    MW4 9889   3.839   3.311   4.482 -0.0288 -0.3004  0.2670
 2441SOL     OW 9890   1.117   3.726   4.153 -0.3025  0.0525 -0.6285
 2441SOL    HW2 9891   1.205   3.729   4.192 -0.3788  1.1478 -0.5278
 2441SOL    HW3 9892   1.069   3.796   4.198 -1.5052 -1.1520 -0.0090
 2441SOL    MW4 9893   1.123   3.736   4.164 -0.4714  0.0379 -0.5336
 2442SOL     OW 9894   1.413   1.679   4.703 -0.0010  0.0282 -0.0158
 2442SOL    HW2 9895   1.386   1.608   4.761 -0.7972  2.0459  2.1415
 2442SOL    HW3 9896   1.334   1.704   4.655  0.0010  0.2617  0.1004
 2442SOL    MW4 9897   1.399   1.673   4.704 -0.1057  0.3252  0.2842
 2443SOL     OW 9898   0.082   2.832   4.492  0.1239  0.1052 -0.1748
 2443SOL    HW2 9899   0.052   2.891   4.562 -1.5852 -0.5632 -0.3053
 2443SOL    HW3 9900   0.027   2.754   4.502  2.0357 -1.2906 -0.2869
 2443SOL    MW4 9901   0.071   2.830   4.503  0.1506 -0.1674 -0.2069
 2444SOL     OW 9902   1.550   2.949   4.231  0.1837 -0.7085 -0.2297
 2444SOL    HW2 9903   1.587   2.865   4.259  0.6722 -0.2519  0.5349
 2444SOL    HW3 9904   1.623   3.011   4.240 -0.1861 -0.1976 -0.7412
 2444SOL    MW4 9905   1.564   2.946   4.236  0.1994 -0.5808 -0.1960
 2445SOL     OW 9906   3.540   0.811   4.508 -0.3532 -0.4480 -0.4651
 2445SOL    HW2 9907   3.513   0.724   4.538 -1.0364  0.3901  1.4073
 2445SOL    HW3 9908   3.460   0.862   4.503  0.3076  0.7406  0.6990
 2445SOL    MW4 9909   3.526   0.806   4.511 -0.3564 -0.1807 -0.0644
 2446SOL     OW 9910   0.700   4.365   4.218 -0.2363 -0.3599 -0.2976
 2446SOL    HW2 9911   0.735   4.451   4.197  0.5311 -0.7465 -0.6557
 2446SOL    HW3 9912   0.675   4.370   4.310  0.0044  0.1828 -0.2632
 2446SOL    MW4 9913   0.701   4.377   4.227 -0.1033 -0.3395 -0.3405
 2447SOL     OW 9914   2.260   3.336   4.613 -0.6424 -0.4649 -0.3774
 2447SOL    HW2 9915   2.189   3.393   4.582 -0.8289 -0.4803  0.0180
 2447SOL    HW3 9916   2.219   3.251   4.624 -0.3796 -0.6565 -0.8949
 2447SOL    MW4 9917   2.245   3.333   4.610 -0.6323 -0.4923 -0.3929
 2448SOL     OW 9918   2.936   1.811   4.555  0.0876 -0.1435 -0.1334
 2448SOL    HW2 9919   2.955   1.892   4.508  0.0880  0.8017  1.4421
 2448SOL    HW3 9920   3.015   1.759   4.547  1.1058  1.1720  1.1403
 2448SOL    MW4 9921   2.949   1.815   4.548  0.2220  0.1547  0.2427
 2449SOL     OW 9922   0.761   1.828   4.863 -0.0597  0.2108  0.2371
 2449SOL    HW2 9923   0.738   1.915   4.896 -0.2667  0.4711 -0.6022
 2449SOL    HW3 9924   0.685   1.799   4.814  0.2089 -0.2357  0.0777
 2449SOL    MW4 9925   0.748   1.835   4.861 -0.0516  0.1862  0.1054
 2450SOL     OW 9926   0.051   1.671   3.757  0.1446 -0.2981 -0.0761
 2450SOL    HW2 9927   0.061   1.664   3.662 -0.2319 -0.9325 -0.0762
 2450SOL    HW3 9928   0.130   1.631   3.793 -0.3135 -1.2652 -0.1170
 2450SOL    MW4 9929   0.063   1.665   3.749  0.0344 -0.5094 -0.0818
 2451SOL     OW 9930   2.229   4.548   4.591  0.1485 -0.3979 -0.0704
 2451SOL    HW2 9931   2.237   4.643   4.601  3.0982 -0.6922  1.1382
 2451SOL    HW3 9932   2.300   4.524   4.531 -0.8874 -1.7762 -0.7618
 2451SOL    MW4 9933   2.240   4.557   4.585  0.4013 -0.6185 -0.0024
 2452SOL     OW 9934   2.683   0.910   4.525 -0.6124 -0.3260  0.2274
 2452SOL    HW2 9935   2.722   0.949   4.447 -0.9642 -0.2718  0.0779
 2452SOL    HW3 9936   2.589   0.925   4.515 -0.4338  2.2360  2.0865
 2452SOL    MW4 9937   2.675   0.917   4.513 -0.6354  0.0192  0.4535
 2453SOL     OW 9938   0.001   2.214   4.700 -0.3849  0.7072  0.5344
 2453SOL    HW2 9939  -0.084   2.231   4.741 -0.9231  0.2103 -0.3490
 2453SOL    HW3 9940   0.017   2.121   4.716 -1.2977  0.1519 -1.6245
 2453SOL    MW4 9941  -0.008   2.204   4.707 -0.5763  0.5684  0.1326
 2454SOL     OW 9942   0.991   0.945   4.195  0.0041  0.2073  0.3248
 2454SOL    HW2 9943   1.070   0.904   4.163  1.0276  1.6888  0.8898
 2454SOL    HW3 9944   0.933   0.872   4.217  1.3508 -0.8926  0.2652
 2454SOL    MW4 9945   0.994   0.930   4.194  0.3168  0.2577  0.3920
 2455SOL     OW 9946   4.346   0.802   4.701  0.2545 -0.2592  0.2767
 2455SOL    HW2 9947   4.408   0.851   4.647 -1.8989  1.8566 -0.3846
 2455SOL    HW3 9948   4.387   0.798   4.787  0.9619  1.8481  0.0727
 2455SOL    MW4 9949   4.360   0.808   4.705  0.0639  0.2980  0.1626
 2456SOL     OW 9950   3.969   0.647   4.239  0.1909  0.1634  0.2803
 2456SOL    HW2 9951   4.016   0.568   4.211  1.0181  0.1779  1.5792
 2456SOL    HW3 9952   3.951   0.633   4.332 -0.4441  1.1273  0.3156
 2456SOL    MW4 9953   3.973   0.635   4.248  0.2162  0.2925  0.4568
 2457SOL     OW 9954   1.330   3.850   4.310  0.1992  0.2282  0.1631
 2457SOL    HW2 9955   1.364   3.769   4.348  1.0866  1.0384  1.1354
 2457SOL    HW3 9956   1.402   3.884   4.257  0.3881  1.1745  1.0111
 2457SOL    MW4 9957   1.344   3.844   4.308  0.3413  0.4597  0.4029
 2458SOL     OW 9958   4.475   0.038   4.211  0.6505  0.1206  0.5119
 2458SOL    HW2 9959   4.464   0.030   4.305 -0.2984 -1.2517  0.2930
 2458SOL    HW3 9960   4.514   0.124   4.199 -3.1287  2.1507  1.8696
 2458SOL    MW4 9961   4.479   0.048   4.221  0.0267  0.2074  0.6623
 2459SOL     OW 9962   0.424   3.616   4.543  0.0777  0.2316  0.1816
 2459SOL    HW2 9963   0.409   3.537   4.489 -0.4062  1.6221 -1.7862
 2459SOL    HW3 9964   0.513   3.606   4.575  0.0525 -1.0904 -0.0946
 2459SOL    MW4 9965   0.434   3.604   4.540  0.0105  0.2408 -0.1144
 2460SOL     OW 9966   2.428   0.950   4.462  0.4460  0.2277  0.1160
 2460SOL    HW2 9967   2.412   0.915   4.374  0.8125 -0.0328  0.1532
 2460SOL    HW3 9968   2.365   0.905   4.518  1.4108 -0.9290  0.2936
 2460SOL    MW4 9969   2.417   0.940   4.458  0.6216  0.0407  0.1440
 2461SOL     OW 9970   2.309   4.153   4.131 -0.2540  0.1957 -0.3727
 2461SOL    HW2 9971   2.257   4.125   4.207  0.9985 -0.2816  0.3353
 2461SOL    HW3 9972   2.377   4.086   4.124  0.2688  0.8261 -1.2672
 2461SOL    MW4 9973   2.311   4.140   4.140 -0.0200  0.2160 -0.3967
 2462SOL     OW 9974   0.002   3.465   4.071 -0.5482 -0.3140 -0.3366
 2462SOL    HW2 9975  -0.086   3.454   4.107 -0.3690 -1.3633 -0.2012
 2462SOL    HW3 9976  -0.011   3.464   3.976 -0.7191 -0.1531 -0.3148
 2462SOL    MW4 9977  -0.012   3.463   4.063 -0.5472 -0.4311 -0.3152
 2463SOL     OW 9978   4.089   4.046   4.512  0.1050  0.2996 -0.1985
 2463SOL    HW2 9979   4.011   4.005   4.548  0.1714 -0.9089 -1.4185
 2463SOL    HW3 9980   4.069   4.140   4.510 -0.9907  0.0743  0.2338
 2463SOL    MW4 9981   4.076   4.053   4.517 -0.0310  0.1106 -0.3023
 2464SOL     OW 9982   3.930   0.613   4.502 -0.1763 -0.1305  0.0708
 2464SOL    HW2 9983   3.913   0.687   4.561 -1.7997 -0.7360  0.3771
 2464SOL    HW3 9984   4.018   0.584   4.526 -0.3731  0.3468  1.4299
 2464SOL    MW4 9985   3.940   0.619   4.513 -0.4165 -0.1474  0.2909
 2465SOL     OW 9986   0.209   1.021   4.713  0.1326  0.0850 -0.2397
 2465SOL    HW2 9987   0.292   1.021   4.666 -0.3887 -0.3872 -1.1902
 2465SOL    HW3 9988   0.170   1.106   4.692 -0.9673 -0.8810 -2.2790
 2465SOL    MW4 9989   0.215   1.032   4.704 -0.0813 -0.1049 -0.6337
 2466SOL     OW 9990   0.869   2.921   4.653 -0.0929  0.0547  0.2520
 2466SOL    HW2 9991   0.920   2.976   4.714  0.5575 -0.9526  0.6256
 2466SOL    HW3 9992   0.792   2.974   4.632  1.7889  2.1949 -1.4455
 2466SOL    MW4 9993   0.865   2.935   4.659  0.2412  0.2041  0.0772
 2467SOL     OW 9994   0.216   1.372   4.336  0.0843 -0.3509 -0.5585
 2467SOL    HW2 9995   0.267   1.437   4.287  0.4687  0.9006  1.4798
 2467SOL    HW3 9996   0.125   1.403   4.328  0.1446 -0.1552 -0.4864
 2467SOL    MW4 9997   0.211   1.385   4.328  0.1429 -0.1601 -0.2799
 2468SOL     OW 9998   1.371   1.020   4.062 -0.2657  1.0024  0.2626
 2468SOL    HW2 9999   1.466   1.011   4.063 -0.2970  0.7921  1.3322
 2468SOL    HW310000   1.353   1.100   4.110 -0.6873  0.4587  1.0235
 2468SOL    MW410001   1.381   1.029   4.068 -0.3254  0.9030  0.5040
 2469SOL     OW10002   1.949   3.905   4.079 -0.0103 -0.1195  0.5116
 2469SOL    HW210003   1.881   3.838   4.091 -1.3894  0.8827 -1.5371
 2469SOL    HW310004   1.983   3.889   3.991  1.8329 -0.0509  1.1862
 2469SOL    MW410005   1.945   3.894   4.069  0.0510  0.0219  0.3300
 2470SOL     OW10006   0.730   2.319   3.823  0.2052 -0.3019  0.0434
 2470SOL    HW210007   0.812   2.353   3.788 -0.2355  0.7383  0.0184
 2470SOL    HW310008   0.739   2.325   3.918 -0.0979  0.4191  0.0270
 2470SOL    MW410009   0.742   2.324   3.831  0.1071 -0.0694  0.0377
 2471SOL     OW10010   4.045   1.931   3.869 -0.2952 -0.6363  0.1554
 2471SOL    HW210011   4.126   1.977   3.847  1.1300 -2.7358  0.8777
 2471SOL    HW310012   4.025   1.959   3.958 -0.4193 -0.0145 -0.0701
 2471SOL    MW410013   4.053   1.941   3.878 -0.1230 -0.8312  0.2210
 2472SOL     OW10014   0.497   3.389   4.129 -0.0365  0.2733  0.4150
 2472SOL    HW210015   0.532   3.301   4.146 -0.8076 -0.3350 -1.0943
 2472SOL    HW310016   0.552   3.447   4.182  1.0954 -1.0161  0.6855
 2472SOL    MW410017   0.509   3.385   4.139  0.0110  0.0229  0.2518
 2473SOL     OW10018   3.842   4.382   4.258 -0.2540  0.4774 -0.6369
 2473SOL    HW210019   3.915   4.344   4.208  0.3094  0.9050 -0.1439
 2473SOL    HW310020   3.767   4.326   4.237  0.2574 -0.0795 -1.0006
 2473SOL    MW410021   3.842   4.369   4.248 -0.1123  0.4601 -0.6199
 2474SOL     OW10022   0.123   3.152   4.590  0.5583 -0.2134 -0.3131
 2474SOL    HW210023   0.071   3.212   4.643  0.4566  0.7842 -1.5004
 2474SOL    HW310024   0.082   3.155   4.503  1.6070 -0.6585 -0.8393
 2474SOL    MW410025   0.111   3.161   4.585  0.6833 -0.1407 -0.5393
 2475SOL     OW10026   2.676   4.665   4.365  0.2866 -0.0092  0.1155
 2475SOL    HW210027   2.605   4.709   4.319  0.5081  0.3990  0.1681
 2475SOL    HW310028   2.712   4.731   4.425  1.5250  0.1733 -0.8030
 2475SOL    MW410029   2.671   4.679   4.367  0.4792  0.0691  0.0014
 2476SOL     OW10030   3.538   1.103   4.152 -0.4551  0.0279  0.1757
 2476SOL    HW210031   3.523   1.178   4.209  0.5092  0.7577 -0.5049
 2476SOL    HW310032   3.539   1.140   4.064  0.2431 -0.7512 -0.1478
 2476SOL    MW410033   3.536   1.118   4.148 -0.2356  0.0213  0.0439
 2477SOL     OW10034   2.712   4.318   4.122 -0.1193  0.1721 -0.6241
 2477SOL    HW210035   2.683   4.297   4.033  0.0158  0.4036 -0.7249
 2477SOL    HW310036   2.634   4.349   4.166  0.1364  1.6330 -1.1561
 2477SOL    MW410037   2.698   4.319   4.116 -0.0677  0.3958 -0.7076
 2478SOL     OW10038   1.041   0.026   4.166  0.1332 -0.3775 -0.1724
 2478SOL    HW210039   1.059  -0.001   4.076  0.9532  1.6474 -0.6529
 2478SOL    HW310040   0.947   0.015   4.177 -0.0782  0.0534 -1.5331
 2478SOL    MW410041   1.031   0.021   4.156  0.2135 -0.0535 -0.4153
 2479SOL     OW10042   1.701   1.197   4.446 -0.2580 -0.1253 -0.1627
 2479SOL    HW210043   1.631   1.203   4.510  0.2357 -1.4524  0.5206
 2479SOL    HW310044   1.778   1.233   4.491 -0.4257  1.0863 -0.8204
 2479SOL    MW410045   1.702   1.202   4.460 -0.2152 -0.1404 -0.1597
 2480SOL     OW10046   1.408   0.330   4.313 -0.4181 -0.0473 -0.4921
 2480SOL    HW210047   1.481   0.278   4.280  0.3706  1.1387 -0.6474
 2480SOL    HW310048   1.371   0.372   4.235 -0.0541  0.8597 -0.1859
 2480SOL    MW410049   1.413   0.329   4.298 -0.2660  0.2288 -0.4725
 2481SOL     OW10050   1.660   1.991   4.472 -0.0407  0.1802  0.2491
 2481SOL    HW210051   1.639   1.958   4.559 -0.1102 -0.6440 -0.0828
 2481SOL    HW310052   1.636   1.920   4.412 -0.1700  0.8144 -0.4593
 2481SOL    MW410053   1.654   1.978   4.475 -0.0670  0.1551  0.1116
 2482SOL     OW10054   0.462   2.269   4.395  0.4143  0.3630 -0.1758
 2482SOL    HW210055   0.448   2.316   4.313 -0.8108  1.8038  0.8173
 2482SOL    HW310056   0.441   2.334   4.463  1.6548 -0.7200  1.2787
 2482SOL    MW410057   0.458   2.284   4.393  0.4163  0.4101  0.1469
 2483SOL     OW10058   1.724   1.708   4.377  0.8196  0.2495 -0.7508
 2483SOL    HW210059   1.689   1.624   4.407  0.0691  1.0116  0.5535
 2483SOL    HW310060   1.746   1.694   4.285 -1.1945 -0.7842 -1.0899
 2483SOL    MW410061   1.722   1.695   4.369  0.4549  0.2136 -0.6237
 2484SOL     OW10062   0.445   4.224   3.880 -0.0117  0.2150  0.1082
 2484SOL    HW210063   0.444   4.233   3.976 -0.6178  0.8236  0.0473
 2484SOL    HW310064   0.527   4.263   3.853  0.6891 -0.9638  0.4699
 2484SOL    MW410065   0.455   4.230   3.889  0.0008  0.1397  0.1478
 2485SOL     OW10066   1.381   2.720   3.922 -0.5147 -0.1181  0.4579
 2485SOL    HW210067   1.463   2.725   3.873 -0.3321  1.6479  0.8924
 2485SOL    HW310068   1.385   2.636   3.967  1.7281  0.5735  1.6200
 2485SOL    MW410069   1.392   2.709   3.921 -0.1948  0.2062  0.6685
 2486SOL     OW10070   0.591   1.526   4.236  0.3192  0.3187 -0.0863
 2486SOL    HW210071   0.621   1.613   4.213 -1.1211  1.0945  0.8368
 2486SOL    HW310072   0.596   1.523   4.332 -1.1674 -0.0088  0.0075
 2486SOL    MW410073   0.595   1.537   4.246 -0.0669  0.3778  0.0482
 2487SOL     OW10074   0.099   2.414   4.555 -0.0716 -0.0244 -0.0314
 2487SOL    HW210075   0.070   2.349   4.619 -1.0317 -0.9450 -1.3785
 2487SOL    HW310076   0.110   2.365   4.474 -1.6693  1.6104 -1.2937
 2487SOL    MW410077   0.096   2.399   4.552 -0.4091  0.0696 -0.3757
 2488SOL     OW10078   1.294   0.460   4.075 -0.2547  0.0821 -0.7031
 2488SOL    HW210079   1.322   0.408   4.000  0.6592  0.9375 -0.9710
 2488SOL    HW310080   1.352   0.536   4.074 -0.6475  0.4078  0.5076
 2488SOL    MW410081   1.305   0.463   4.065 -0.1860  0.2379 -0.5789
 2489SOL     OW10082   0.671   2.087   4.905 -0.3547 -0.0216 -0.3241
 2489SOL    HW210083   0.621   2.082   4.987  1.0248 -0.5282  0.4956
 2489SOL    HW310084   0.606   2.114   4.840 -1.3126  1.1317  1.0681
 2489SOL    MW410085   0.656   2.089   4.907 -0.2990  0.0637 -0.0319
 2490SOL     OW10086   1.158   3.609   4.576 -0.1139 -0.1157  0.7365
 2490SOL    HW210087   1.183   3.592   4.485  0.3028  0.7739  0.6865
 2490SOL    HW310088   1.143   3.522   4.612  0.1677 -0.5044 -0.0591
 2490SOL    MW410089   1.159   3.595   4.568 -0.0217 -0.0496  0.6251
 2491SOL     OW10090   1.048   2.784   4.152 -0.3134  0.1709 -0.4376
 2491SOL    HW210091   1.004   2.827   4.226  1.3708 -1.7474  1.7459
 2491SOL    HW310092   1.131   2.830   4.144  0.7148 -1.4231  0.7364
 2491SOL    MW410093   1.053   2.796   4.161  0.0445 -0.2923  0.0052
 2492SOL     OW10094   1.606   2.794   3.777  0.1799 -0.1720  0.6018
 2492SOL    HW210095   1.702   2.796   3.781  0.3204 -2.7349 -0.3185
 2492SOL    HW310096   1.585   2.821   3.688  0.0653  0.0509  0.6964
 2492SOL    MW410097   1.616   2.798   3.766  0.1833 -0.4807  0.4928
 2493SOL     OW10098   1.255   1.880   3.684  0.1434 -0.1806 -0.4679
 2493SOL    HW210099   1.345   1.902   3.708 -0.3216  1.1866  0.1141
 2493SOL    HW310100   1.237   1.936   3.608 -0.9498  1.2781  0.8198
 2493SOL    MW410101   1.265   1.890   3.677 -0.0622  0.1922 -0.2213
 2494SOL     OW10102   1.831   2.453   3.751  0.0837 -0.0355  0.4086
 2494SOL    HW210103   1.845   2.548   3.747 -0.7352  0.0995  0.6854
 2494SOL    HW310104   1.763   2.442   3.818  0.4066 -0.8416  0.6050
 2494SOL    MW410105   1.824   2.464   3.759  0.0182 -0.1240  0.4711
 2495SOL     OW10106   2.259   3.255   3.731  0.1169  0.2275 -0.3688
 2495SOL    HW210107   2.177   3.215   3.761  0.5174 -0.0986  0.2845
 2495SOL    HW310108   2.328   3.203   3.772  0.6478  0.9886 -0.2870
 2495SOL    MW410109   2.257   3.243   3.740  0.2394  0.2849 -0.2718
 2496SOL     OW10110   3.955   2.482   4.240 -0.6740 -0.1814 -0.6398
 2496SOL    HW210111   3.889   2.415   4.220  0.2328 -1.4978  0.6770
 2496SOL    HW310112   4.038   2.440   4.219 -0.0051  0.0143  1.5791
 2496SOL    MW410113   3.957   2.468   4.234 -0.4663 -0.3295 -0.1736
 2497SOL     OW10114   1.776   0.915   3.773 -0.0319  0.0633  0.2512
 2497SOL    HW210115   1.795   1.006   3.799  1.7629 -0.1124 -0.4123
 2497SOL    HW310116   1.755   0.920   3.680 -1.9843  0.0688  0.6789
 2497SOL    MW410117   1.776   0.928   3.764 -0.0528  0.0409  0.2196
 2498SOL     OW10118   4.179   2.368   4.121 -0.4789 -0.0084  0.4185
 2498SOL    HW210119   4.217   2.329   4.042 -0.7687  0.0461  0.2549
 2498SOL    HW310120   4.242   2.437   4.145 -0.7867  0.4962 -0.2088
 2498SOL    MW410121   4.193   2.372   4.114 -0.5574  0.0653  0.3147
 2499SOL     OW10122   1.161   2.812   3.771 -0.1877 -0.3154 -0.1394
 2499SOL    HW210123   1.083   2.771   3.807 -0.6606  0.8936  0.2477
 2499SOL    HW310124   1.233   2.774   3.820 -0.8331  1.4887  2.3192
 2499SOL    MW410125   1.160   2.802   3.782 -0.3353  0.0823  0.2360
 2500SOL     OW10126   1.382   3.986   4.545 -0.4918  0.1691 -0.0245
 2500SOL    HW210127   1.368   3.950   4.457  0.2051 -1.8833  0.6934
 2500SOL    HW310128   1.390   3.910   4.602 -0.7797  1.4852  1.8206
 2500SOL    MW410129   1.382   3.971   4.541 -0.4380  0.0720  0.3133
 2501SOL     OW10130   1.207   2.447   3.753  0.3095  0.2313  0.5083
 2501SOL    HW210131   1.239   2.357   3.749  1.1171  0.4834  0.9808
 2501SOL    HW310132   1.237   2.479   3.838  1.3834  1.4275 -0.2885
 2501SOL    MW410133   1.215   2.440   3.764  0.5577  0.4227  0.4656
 2502SOL     OW10134   4.066   4.469   4.671 -0.1325 -0.0349 -0.1602
 2502SOL    HW210135   4.049   4.560   4.649  0.2236 -0.0714 -0.5993
 2502SOL    HW310136   4.029   4.419   4.597  1.6554 -0.1231 -1.0056
 2502SOL    MW410137   4.059   4.474   4.658  0.1507 -0.0515 -0.3295
 2503SOL     OW10138   1.100   3.056   4.731  0.2849  0.2050 -0.6855
 2503SOL    HW210139   1.133   3.047   4.642  0.3625 -0.1725 -0.6194
 2503SOL    HW310140   1.177   3.038   4.786 -0.2157 -1.5102 -0.5170
 2503SOL    MW410141   1.115   3.052   4.727  0.2292 -0.0713 -0.6542
 2504SOL     OW10142   3.777   1.067   4.313  0.0226  0.1523 -0.0377
 2504SOL    HW210143   3.699   1.075   4.258 -0.4486 -0.9900  0.4454
 2504SOL    HW310144   3.821   1.152   4.305 -0.3374  0.2036 -1.7161
 2504SOL    MW410145   3.772   1.079   4.305 -0.0868  0.0085 -0.1955
 2505SOL     OW10146   0.158   3.632   4.231  0.1640 -0.0869 -0.0363
 2505SOL    HW210147   0.113   3.586   4.160 -1.2786 -0.2900  1.0010
 2505SOL    HW310148   0.088   3.663   4.288  1.3493 -0.7683  1.8268
 2505SOL    MW410149   0.143   3.630   4.229  0.1301 -0.2036  0.3462
 2506SOL     OW10150   3.589   0.406   3.895  0.3310 -0.2601 -0.1483
 2506SOL    HW210151   3.573   0.315   3.869 -0.5197  0.1433 -1.0890
 2506SOL    HW310152   3.606   0.401   3.989 -0.3454 -1.3173 -0.0668
 2506SOL    MW410153   3.589   0.393   3.904  0.1295 -0.3464 -0.2615
 2507SOL     OW10154   2.379   3.792   4.332  0.2971  0.3794 -0.0176
 2507SOL    HW210155   2.402   3.699   4.329  0.9581  0.5257  0.4673
 2507SOL    HW310156   2.288   3.795   4.303  0.4832 -0.3456 -0.7019
 2507SOL    MW410157   2.370   3.780   4.327  0.4086  0.3030 -0.0439
 2508SOL     OW10158   2.696   1.684   4.499  0.2373  0.5183  0.0687
 2508SOL    HW210159   2.773   1.736   4.523  0.6537 -0.1163  0.1284
 2508SOL    HW310160   2.731   1.595   4.487 -0.5598  0.1483  0.4929
 2508SOL    MW410161   2.711   1.679   4.500  0.1872  0.3859  0.1321
 2509SOL     OW10162   2.145   0.430   4.169 -0.0060  0.6354  0.1796
 2509SOL    HW210163   2.192   0.369   4.112 -1.3048  0.4052 -0.6909
 2509SOL    HW310164   2.183   0.515   4.150  0.8356  0.2998  0.3327
 2509SOL    MW410165   2.156   0.433   4.159 -0.0663  0.5608  0.0849
 2510SOL     OW10166   3.639   3.506   4.148  0.4938 -0.0807  0.1194
 2510SOL    HW210167   3.679   3.422   4.173  0.9331 -0.0742 -0.5413
 2510SOL    HW310168   3.549   3.499   4.178 -0.1167 -1.7078 -1.8843
 2510SOL    MW410169   3.633   3.494   4.155  0.4714 -0.2947 -0.2317
 2511SOL     OW10170   0.407   2.901   4.520  0.4096 -0.1652  0.5902
 2511SOL    HW210171   0.444   2.982   4.555 -0.3617 -0.1130  1.2979
 2511SOL    HW310172   0.320   2.925   4.488  1.5517  0.0323 -2.4588
 2511SOL    MW410173   0.400   2.915   4.520  0.4585 -0.1321  0.2818
 2512SOL     OW10174   0.268   3.853   4.101 -0.0442  0.6255 -0.0610
 2512SOL    HW210175   0.339   3.892   4.153  0.3343  0.4008 -0.4172
 2512SOL    HW310176   0.239   3.778   4.153 -0.1664  0.8340  0.1817
 2512SOL    MW410177   0.273   3.848   4.115 -0.0104  0.6235 -0.0763
 2513SOL     OW10178   3.617   4.433   4.776 -0.4410 -0.2647  0.2311
 2513SOL    HW210179   3.528   4.462   4.756  0.4093  0.5469 -2.6829
 2513SOL    HW310180   3.670   4.512   4.769  0.7808 -1.0877 -0.0001
 2513SOL    MW410181   3.612   4.447   4.772 -0.1676 -0.2666 -0.1836
 2514SOL     OW10182   4.305   1.555   3.887  0.0255  0.4678  0.1045
 2514SOL    HW210183   4.328   1.580   3.976  0.2694  0.3714  0.0699
 2514SOL    HW310184   4.385   1.571   3.836  0.3989 -1.0124  0.2115
 2514SOL    MW410185   4.319   1.560   3.892  0.1073  0.2600  0.1140
 2515SOL     OW10186   1.406   3.727   4.669 -0.0937  0.0987  0.1863
 2515SOL    HW210187   1.326   3.690   4.631 -0.6906  2.0296 -0.4898
 2515SOL    HW310188   1.475   3.667   4.641 -1.3615 -1.9421  1.2954
 2515SOL    MW410189   1.405   3.714   4.660 -0.3397  0.0844  0.2437
 2516SOL     OW10190   2.520   2.320   3.847 -0.1217 -0.1597 -0.3180
 2516SOL    HW210191   2.508   2.293   3.938 -1.7465  1.8669  0.1113
 2516SOL    HW310192   2.435   2.354   3.821  1.1849  2.2917 -1.5401
 2516SOL    MW410193   2.507   2.321   3.856 -0.1638  0.4313 -0.4227
 2517SOL     OW10194   2.357   1.270   4.484  0.4172  0.6832  0.4839
 2517SOL    HW210195   2.365   1.181   4.519  0.7157  0.5544  0.0884
 2517SOL    HW310196   2.384   1.326   4.556  1.2818  0.4051  0.3848
 2517SOL    MW410197   2.361   1.265   4.498  0.5705  0.6295  0.4182
 2518SOL     OW10198   3.020   2.053   4.467 -0.4881 -0.2730  0.0036
 2518SOL    HW210199   2.965   2.058   4.389  1.2320 -1.0711 -1.2783
 2518SOL    HW310200   3.109   2.064   4.435  0.2093 -0.1373  1.9185
 2518SOL    MW410201   3.024   2.055   4.452 -0.1690 -0.3603  0.0873
 2519SOL     OW10202   1.626   4.140   4.223 -0.2994 -0.2852 -0.1374
 2519SOL    HW210203   1.607   4.050   4.196 -1.1712  0.1438 -0.9826
 2519SOL    HW310204   1.698   4.167   4.165 -0.3146 -0.2980 -0.1627
 2519SOL    MW410205   1.633   4.132   4.212 -0.4164 -0.2303 -0.2522
 2520SOL     OW10206   2.525   3.531   4.345  0.1559  0.1185 -0.4415
 2520SOL    HW210207   2.578   3.504   4.270  0.8500  0.7992 -0.1986
 2520SOL    HW310208   2.585   3.578   4.402 -0.5704  0.3649  0.1350
 2520SOL    MW410209   2.540   3.534   4.343  0.1516  0.2408 -0.3338
 2521SOL     OW10210   2.065   1.566   3.685 -0.5412  0.3264 -0.3124
 2521SOL    HW210211   2.103   1.618   3.756 -0.2583  0.2018 -0.3723
 2521SOL    HW310212   1.972   1.589   3.686 -0.6947 -0.3132  0.6573
 2521SOL    MW410213   2.057   1.576   3.695 -0.5243  0.2255 -0.1926
 2522SOL     OW10214   3.187   2.974   4.272 -0.2403 -0.0383  0.4216
 2522SOL    HW210215   3.124   3.019   4.216  0.5336 -0.2549 -0.6371
 2522SOL    HW310216   3.150   2.981   4.360 -1.8987 -0.4271 -0.2181
 2522SOL    MW410217   3.174   2.981   4.277 -0.3569 -0.1185  0.1979
 2523SOL     OW10218   2.666   0.366   4.678  0.3103  0.2875  0.4513
 2523SOL    HW210219   2.616   0.404   4.606  0.3282 -0.1785  0.1937
 2523SOL    HW310220   2.729   0.307   4.636  0.9259  0.6929  0.7837
 2523SOL    MW410221   2.668   0.363   4.663  0.3936  0.2795  0.4611
 2524SOL     OW10222   2.061   0.962   4.244 -0.5748  0.0741 -0.3151
 2524SOL    HW210223   2.126   1.023   4.210 -2.1260  1.7718 -0.2831
 2524SOL    HW310224   2.061   0.977   4.338 -0.0292 -0.9348 -0.1419
 2524SOL    MW410225   2.070   0.972   4.252 -0.7076  0.1649 -0.2880
 2525SOL     OW10226   1.134   1.056   4.697  0.4506 -0.0842 -0.8333
 2525SOL    HW210227   1.217   1.024   4.734 -0.0916  0.5116  0.9622
 2525SOL    HW310228   1.067   1.005   4.742 -0.2305  0.5434 -1.1294
 2525SOL    MW410229   1.136   1.045   4.708  0.2892  0.0771 -0.6351
 2526SOL     OW10230   0.221   2.344   4.084  0.0802  0.6371  0.2167
 2526SOL    HW210231   0.314   2.353   4.106  0.1968 -1.9468  0.9268
 2526SOL    HW310232   0.220   2.330   3.989  0.4282  0.5252  0.2291
 2526SOL    MW410233   0.233   2.343   4.074  0.1415  0.2813  0.3119
 2527SOL     OW10234   4.094   3.517   4.117  0.6762 -0.3962 -0.5760
 2527SOL    HW210235   4.128   3.605   4.130 -1.0594  0.1370  0.6595
 2527SOL    HW310236   4.154   3.461   4.166  0.3920  0.4030  0.7291
 2527SOL    MW410237   4.106   3.521   4.125  0.4096 -0.2205 -0.2408
 2528SOL     OW10238   2.039   2.917   4.251 -0.4639  0.2378  0.4633
 2528SOL    HW210239   2.135   2.910   4.246 -0.5108 -0.7563  0.8874
 2528SOL    HW310240   2.016   2.874   4.333 -1.2757  0.5067  0.3790
 2528SOL    MW410241   2.049   2.910   4.261 -0.5772  0.1421  0.5074
 2529SOL     OW10242   2.141   3.518   4.152 -0.1188  0.2075  0.3991
 2529SOL    HW210243   2.192   3.502   4.073  0.1309 -1.7750  0.9445
 2529SOL    HW310244   2.134   3.432   4.194 -2.5366  0.7366  1.1529
 2529SOL    MW410245   2.147   3.505   4.147 -0.4048  0.0157  0.5698
 2530SOL     OW10246   2.494   3.952   4.139 -0.0003 -0.4709 -0.0780
 2530SOL    HW210247   2.462   3.907   4.061 -2.5962 -0.3539  0.8543
 2530SOL    HW310248   2.467   3.895   4.211  0.7922  0.3055  0.8297
 2530SOL    MW410249   2.486   3.938   4.138 -0.2382 -0.3531  0.1645
 2531SOL     OW10250   2.797   2.081   4.279  0.5428  0.2470 -0.5186
 2531SOL    HW210251   2.743   2.014   4.237  0.7215 -1.1701  1.4403
 2531SOL    HW310252   2.739   2.123   4.343  1.2004  0.0418  0.2264
 2531SOL    MW410253   2.782   2.078   4.282  0.6530  0.0331 -0.1616
 2532SOL     OW10254   1.620   0.941   4.410  0.6472 -0.2247 -0.0544
 2532SOL    HW210255   1.633   1.036   4.402  2.6792 -0.3453  1.4652
 2532SOL    HW310256   1.536   0.933   4.457  0.4030  0.8090 -0.2983
 2532SOL    MW410257   1.610   0.953   4.415  0.8831 -0.1043  0.1140
 2533SOL     OW10258   0.159   2.237   4.338  0.2300  0.3747  0.1292
 2533SOL    HW210259   0.213   2.161   4.362 -0.3772 -0.6004 -1.5262
 2533SOL    HW310260   0.182   2.256   4.247  0.2514  2.0935  0.4772
 2533SOL    MW410261   0.169   2.229   4.329  0.1527  0.4730 -0.0434
 2534SOL     OW10262   4.149   2.177   4.304  0.1297 -0.1856 -0.6249
 2534SOL    HW210263   4.240   2.162   4.326  0.1689  0.4267 -0.3906
 2534SOL    HW310264   4.151   2.246   4.238 -0.3299  1.6414  1.2402
 2534SOL    MW410265   4.161   2.184   4.298  0.0749  0.1361 -0.3476
 2535SOL     OW10266   2.650   4.615   4.780 -0.3070 -0.2532  0.2159
 2535SOL    HW210267   2.609   4.548   4.835 -0.0405  0.0257  0.7611
 2535SOL    HW310268   2.733   4.577   4.753 -1.6968 -1.5288 -2.3572
 2535SOL    MW410269   2.656   4.601   4.784 -0.4551 -0.3839 -0.0520
 2536SOL     OW10270   2.491   0.783   4.194 -0.4698  0.2227  0.2592
 2536SOL    HW210271   2.481   0.790   4.099 -1.3265 -0.1422  0.3214
 2536SOL    HW310272   2.555   0.713   4.206 -2.0333 -1.2848 -0.0005
 2536SOL    MW410273   2.498   0.774   4.183 -0.7892 -0.0244  0.2332
 2537SOL     OW10274   3.394   2.325   4.472  0.2757  0.1354 -0.1384
 2537SOL    HW210275   3.312   2.365   4.502 -0.5930 -1.5112 -0.2257
 2537SOL    HW310276   3.409   2.365   4.386  0.0811  1.1466  0.2836
 2537SOL    MW410277   3.385   2.336   4.465  0.1359  0.0515 -0.0939
 2538SOL     OW10278   1.731   0.592   4.158  0.4045 -0.5063 -0.1287
 2538SOL    HW210279   1.642   0.627   4.149  0.4926 -0.4732 -0.8901
 2538SOL    HW310280   1.787   0.662   4.123  0.6943 -0.7324 -0.1159
 2538SOL    MW410281   1.727   0.606   4.152  0.4542 -0.5317 -0.2275
 2539SOL     OW10282   3.280   0.755   4.095 -0.1708 -0.0402  0.1799
 2539SOL    HW210283   3.368   0.735   4.127  0.0779  1.3595  0.3964
 2539SOL    HW310284   3.267   0.846   4.118 -1.4454 -0.0702 -0.4188
 2539SOL    MW410285   3.290   0.764   4.103 -0.3061  0.1405  0.1297
 2540SOL     OW10286   1.754   1.666   4.085 -0.0171 -0.4160 -0.5281
 2540SOL    HW210287   1.702   1.588   4.065  0.4873 -0.3353 -2.2129
 2540SOL    HW310288   1.714   1.736   4.034 -0.4007  0.4343  0.8932
 2540SOL    MW410289   1.742   1.665   4.076 -0.0013 -0.2933 -0.5622
 2541SOL     OW10290   1.804   1.657   3.450  0.9254  0.1867  0.4359
 2541SOL    HW210291   1.800   1.675   3.544 -0.7539  1.8369  0.0996
 2541SOL    HW310292   1.810   1.744   3.409 -0.6681 -0.3518 -1.0477
 2541SOL    MW410293   1.804   1.671   3.457  0.4935  0.3332  0.1960
 2542SOL     OW10294   2.906   2.581   4.276 -0.3565 -0.3964 -0.2984
 2542SOL    HW210295   2.990   2.604   4.237 -0.9954  0.2100 -1.3598
 2542SOL    HW310296   2.885   2.496   4.238 -0.9359  0.1528 -1.2460
 2542SOL    MW410297   2.914   2.573   4.266 -0.5171 -0.2439 -0.5636
 2543SOL     OW10298   2.250   2.659   3.851  0.1755  0.5115 -0.6588
 2543SOL    HW210299   2.226   2.646   3.942 -1.9753  0.8240 -1.1550
 2543SOL    HW310300   2.278   2.573   3.821 -1.3554 -0.1143 -0.3341
 2543SOL    MW410301   2.251   2.646   3.859 -0.3102  0.4702 -0.6814
 2544SOL     OW10302   2.003   4.191   4.747 -0.5405  0.1478 -0.0989
 2544SOL    HW210303   2.098   4.205   4.748 -0.6798  1.1609 -0.8659
 2544SOL    HW310304   1.977   4.199   4.839  0.3208 -1.6445  0.3279
 2544SOL    MW410305   2.012   4.194   4.759 -0.4454  0.0448 -0.1435
 2545SOL     OW10306   0.687   3.806   4.178  0.0105  0.9224 -0.2350
 2545SOL    HW210307   0.775   3.838   4.200  0.5799 -0.0432 -1.0726
 2545SOL    HW310308   0.683   3.811   4.083 -0.3093 -0.3805 -0.3054
 2545SOL    MW410309   0.698   3.811   4.168  0.0435  0.6232 -0.3552
 2546SOL     OW10310   1.599   1.422   4.067 -0.1158  0.3299 -0.0461
 2546SOL    HW210311   1.661   1.358   4.100 -0.6820  0.8064  2.0466
 2546SOL    HW310312   1.513   1.388   4.093 -0.5396  1.0856 -0.4254
 2546SOL    MW410313   1.596   1.409   4.075 -0.2465  0.4925  0.1793
 2547SOL     OW10314   2.284   4.109   4.559  0.2932 -0.0546 -0.5651
 2547SOL    HW210315   2.304   4.018   4.580 -1.9488 -0.3132  0.6708
 2547SOL    HW310316   2.230   4.104   4.480  0.5955  0.2436 -0.7919
 2547SOL    MW410317   2.279   4.096   4.552  0.0372 -0.0491 -0.4315
 2548SOL     OW10318   1.866   3.453   3.808  0.1692 -0.2998  0.0563
 2548SOL    HW210319   1.866   3.481   3.899  2.4641  0.0404 -0.0238
 2548SOL    HW310320   1.954   3.473   3.776 -0.4770 -0.7561 -2.1283
 2548SOL    MW410321   1.878   3.459   3.815  0.3867 -0.3154 -0.2425
 2549SOL     OW10322   3.955   2.494   4.517  0.0008 -0.5368 -0.1133
 2549SOL    HW210323   3.956   2.400   4.537 -2.7684 -0.4694  0.4971
 2549SOL    HW310324   3.948   2.498   4.421 -0.3266 -0.9721 -0.1097
 2549SOL    MW410325   3.954   2.482   4.507 -0.4077 -0.5851 -0.0319
 2550SOL     OW10326   3.390   3.446   4.272  0.4425 -0.3805 -0.0974
 2550SOL    HW210327   3.381   3.502   4.350 -1.3957 -1.9836  0.8799
 2550SOL    HW310328   3.431   3.366   4.305 -1.5539 -1.5831 -0.5312
 2550SOL    MW410329   3.395   3.443   4.287 -0.0632 -0.7505 -0.0262
 2551SOL     OW10330   0.049   4.267   4.142 -0.2403 -0.2919  0.5417
 2551SOL    HW210331  -0.029   4.298   4.188 -0.6431  0.3211 -0.5521
 2551SOL    HW310332   0.062   4.178   4.176 -0.9118 -0.0928  1.3521
 2551SOL    MW410333   0.040   4.259   4.153 -0.3821 -0.1845  0.5040
 2552SOL     OW10334   2.948   3.443   4.620 -0.1292 -0.1111  0.0772
 2552SOL    HW210335   3.024   3.471   4.671 -0.9229 -0.1592  1.3048
 2552SOL    HW310336   2.874   3.484   4.664 -0.9128 -0.8882 -0.5164
 2552SOL    MW410337   2.948   3.452   4.633 -0.3374 -0.2201  0.1607
 2553SOL     OW10338   3.417   2.306   3.931 -0.6015 -0.0757 -0.1622
 2553SOL    HW210339   3.402   2.229   3.876 -0.6128 -0.8244  0.8804
 2553SOL    HW310340   3.330   2.341   3.947 -0.6466 -0.2027 -0.1268
 2553SOL    MW410341   3.404   2.300   3.926 -0.6089 -0.1912 -0.0198
 2554SOL     OW10342   1.167   2.441   4.856 -0.4124  0.2272 -0.1975
 2554SOL    HW210343   1.079   2.405   4.850 -0.2349 -0.4322  0.8326
 2554SOL    HW310344   1.224   2.367   4.835 -0.0361 -0.1917  2.1026
 2554SOL    MW410345   1.163   2.426   4.852 -0.3393  0.0849  0.2413
 2555SOL     OW10346   1.357   1.166   4.415  0.3092  0.0739  0.1749
 2555SOL    HW210347   1.393   1.197   4.498  0.6270 -1.2283  0.5364
 2555SOL    HW310348   1.272   1.129   4.438  0.4864 -0.4748 -0.0371
 2555SOL    MW410349   1.350   1.165   4.429  0.3744 -0.1702  0.1945
 2556SOL     OW10350   2.273   1.102   4.115 -0.2499  0.2433  0.1807
 2556SOL    HW210351   2.258   1.133   4.026  0.6140 -0.4507 -0.2235
 2556SOL    HW310352   2.369   1.093   4.121 -0.2074  1.3430  1.5409
 2556SOL    MW410353   2.284   1.105   4.104 -0.1304  0.2967  0.3066
 2557SOL     OW10354   1.189   3.003   4.471  0.2026  0.2189  0.3555
 2557SOL    HW210355   1.246   2.927   4.479 -0.1934 -0.0573  0.5515
 2557SOL    HW310356   1.242   3.067   4.423 -0.2381 -0.9367 -1.7367
 2557SOL    MW410357   1.204   3.002   4.466  0.0921  0.0300  0.1049
 2558SOL     OW10358   2.881   3.206   4.495  0.1381 -0.4132  0.2786
 2558SOL    HW210359   2.897   3.232   4.405 -1.0110 -0.6507 -0.0001
 2558SOL    HW310360   2.890   3.287   4.546 -2.8728  0.4791 -0.5079
 2558SOL    MW410361   2.884   3.220   4.490 -0.4106 -0.3269  0.1378
 2559SOL     OW10362   2.372   3.838   4.608 -0.1257  0.0869  0.5067
 2559SOL    HW210363   2.291   3.798   4.640  0.3013 -1.1023  0.1442
 2559SOL    HW310364   2.371   3.819   4.514  0.2717  0.6006  0.4029
 2559SOL    MW410365   2.361   3.830   4.600 -0.0167 -0.0021  0.4454
 2560SOL     OW10366   1.395   0.969   4.834 -0.2325 -0.0306 -0.2307
 2560SOL    HW210367   1.426   0.909   4.903 -0.3176  0.6278  0.3841
 2560SOL    HW310368   1.473   1.019   4.810 -0.0300 -0.7538 -1.1406
 2560SOL    MW410369   1.409   0.968   4.840 -0.2170 -0.0392 -0.2694
 2561SOL     OW10370   3.498   1.905   4.090  0.1871  0.4713  0.3441
 2561SOL    HW210371   3.469   1.815   4.110 -0.1286  0.7751  1.3193
 2561SOL    HW310372   3.425   1.960   4.120  0.4521  1.0592 -0.0933
 2561SOL    MW410373   3.484   1.900   4.097  0.1805  0.5890  0.4148
 2562SOL     OW10374   3.229   1.981   4.121 -0.2588  1.1145  0.1081
 2562SOL    HW210375   3.217   1.957   4.029  1.4562  0.8437 -0.0539
 2562SOL    HW310376   3.212   1.899   4.168 -0.5082  1.0977 -0.0067
 2562SOL    MW410377   3.225   1.967   4.115 -0.0656  1.0766  0.0715
 2563SOL     OW10378   0.945   2.915   4.362 -0.2891 -0.2832  0.1559
 2563SOL    HW210379   1.031   2.938   4.399  0.8586 -1.0382 -1.9450
 2563SOL    HW310380   0.890   2.897   4.438  0.8030  2.2952  1.6039
 2563SOL    MW410381   0.949   2.916   4.377  0.0064 -0.0429  0.0691
 2564SOL     OW10382   2.540   1.370   4.312 -0.1551  0.2787 -0.0162
 2564SOL    HW210383   2.473   1.326   4.365 -1.2316  0.3078 -1.3597
 2564SOL    HW310384   2.496   1.444   4.272  0.2923 -0.5512 -2.0995
 2564SOL    MW410385   2.526   1.374   4.314 -0.2379  0.1730 -0.4683
 2565SOL     OW10386   1.205   0.232   4.477  0.7066 -0.4211 -0.4516
 2565SOL    HW210387   1.254   0.188   4.547  0.0158 -0.8905 -0.2577
 2565SOL    HW310388   1.271   0.253   4.411  1.6581  1.4842  1.0512
 2565SOL    MW410389   1.220   0.229   4.478  0.7410 -0.2317 -0.2284
 2566SOL     OW10390   3.174   2.442   3.991  0.0541 -0.2885  0.4340
 2566SOL    HW210391   3.168   2.500   3.915  1.1791 -0.3402  0.2916
 2566SOL    HW310392   3.171   2.501   4.066  0.2378 -0.1241  0.3136
 2566SOL    MW410393   3.173   2.458   3.991  0.2267 -0.2735  0.3994
 2567SOL     OW10394   1.106   1.366   4.689  0.3529 -0.0179  0.8530
 2567SOL    HW210395   1.094   1.374   4.595  0.7091  2.1341  0.9684
 2567SOL    HW310396   1.098   1.272   4.706  0.5810 -0.4654 -1.3460
 2567SOL    MW410397   1.104   1.355   4.679  0.4300  0.2071  0.5779
 2568SOL     OW10398   1.597   3.238   4.559 -0.0877  0.0842 -0.0108
 2568SOL    HW210399   1.681   3.214   4.521  0.0795  0.6167  0.0185
 2568SOL    HW310400   1.531   3.200   4.501  0.1516  1.7268 -1.3724
 2568SOL    MW410401   1.599   3.230   4.547 -0.0341  0.3712 -0.1869
 2569SOL     OW10402   3.154   2.211   4.781 -0.3381  0.1042  1.0371
 2569SOL    HW210403   3.069   2.167   4.772 -0.4502  0.5832 -0.4377
 2569SOL    HW310404   3.218   2.144   4.758 -0.5085  0.6694 -1.1872
 2569SOL    MW410405   3.151   2.196   4.777 -0.3755  0.2420  0.5493
 2570SOL     OW10406   0.271   1.095   4.335  0.2825 -0.7525  0.5323
 2570SOL    HW210407   0.250   1.188   4.346 -0.2444 -0.8975  0.7727
 2570SOL    HW310408   0.193   1.058   4.295  0.8484 -0.9130 -0.4479
 2570SOL    MW410409   0.258   1.103   4.331  0.2876 -0.7930  0.4344
 2571SOL     OW10410   4.149   0.867   4.261 -0.2965  0.4556 -0.3148
 2571SOL    HW210411   4.084   0.796   4.262 -0.0142  0.1868 -0.9064
 2571SOL    HW310412   4.231   0.823   4.236  0.2214  0.6951  0.9325
 2571SOL    MW410413   4.151   0.852   4.258 -0.1907  0.4517 -0.2279
 2572SOL     OW10414   2.695   2.709   3.841  0.2978  0.2041 -0.3141
 2572SOL    HW210415   2.694   2.619   3.808  0.3949  0.1702 -0.2254
 2572SOL    HW310416   2.698   2.700   3.936  1.8191  0.2957 -0.3442
 2572SOL    MW410417   2.695   2.696   3.849  0.5114  0.2117 -0.3064
 2573SOL     OW10418   4.222   3.103   4.141 -0.2590 -0.0027 -0.0328
 2573SOL    HW210419   4.238   3.013   4.168  1.9815  0.5005  0.4112
 2573SOL    HW310420   4.247   3.105   4.049 -0.0038  0.2161  0.0385
 2573SOL    MW410421   4.228   3.092   4.132  0.0701  0.0925  0.0353
 2574SOL     OW10422   0.310   4.354   4.385 -0.1050  0.3865  0.2420
 2574SOL    HW210423   0.344   4.326   4.300 -3.3186 -0.1892 -0.9280
 2574SOL    HW310424   0.277   4.273   4.424  0.0563  0.8978  1.4462
 2574SOL    MW410425   0.310   4.339   4.379 -0.5077  0.3777  0.2460
 2575SOL     OW10426   1.299   2.884   4.129  0.1048 -0.1363 -0.4945
 2575SOL    HW210427   1.383   2.913   4.165 -0.8836  1.0484  0.8790
 2575SOL    HW310428   1.324   2.827   4.055  2.0979  1.1602 -0.8720
 2575SOL    MW410429   1.313   2.880   4.124  0.2373  0.1912 -0.3629
 2576SOL     OW10430   0.424   0.981   4.540  0.1098  0.5153 -0.8402
 2576SOL    HW210431   0.387   0.894   4.524  2.5546 -0.4365 -1.6207
 2576SOL    HW310432   0.396   1.033   4.465  0.2397 -0.1354 -1.3459
 2576SOL    MW410433   0.415   0.976   4.528  0.4495  0.3038 -1.0095
 2577SOL     OW10434   0.773   3.260   4.373 -0.1765 -0.1740 -0.1721
 2577SOL    HW210435   0.759   3.307   4.455 -1.9091 -2.6423  0.9976
 2577SOL    HW310436   0.868   3.254   4.365  0.0156  0.2033  1.5871
 2577SOL    MW410437   0.783   3.265   4.383 -0.3798 -0.4501  0.2146
 2578SOL     OW10438   2.299   4.304   4.757  0.1131  0.0762 -0.2088
 2578SOL    HW210439   2.256   4.380   4.719 -1.0406 -0.7353 -0.5654
 2578SOL    HW310440   2.316   4.246   4.683  0.8301 -0.0845  0.0818
 2578SOL    MW410441   2.296   4.306   4.742  0.0556 -0.0525 -0.2179
 2579SOL     OW10442   4.008   0.077   4.544 -0.5170  0.1195  0.3977
 2579SOL    HW210443   4.086   0.114   4.585  0.2024  0.7509 -1.5119
 2579SOL    HW310444   3.937   0.137   4.569  0.1556  1.2541 -0.4049
 2579SOL    MW410445   4.009   0.089   4.553 -0.3328  0.3525  0.0401
 2580SOL     OW10446   4.420   4.647   4.470  0.1152 -0.5291  0.3626
 2580SOL    HW210447   4.514   4.633   4.487  0.4619  0.8646 -0.3124
 2580SOL    HW310448   4.391   4.701   4.543  0.0062 -0.3112  0.1539
 2580SOL    MW410449   4.429   4.652   4.482  0.1469 -0.3171  0.2460
 2581SOL     OW10450   3.735   2.643   4.621  0.3747  0.1375 -0.0398
 2581SOL    HW210451   3.691   2.599   4.694  0.7475  1.9880  1.3482
 2581SOL    HW310452   3.794   2.577   4.585 -1.8096 -1.6432 -0.4336
 2581SOL    MW410453   3.737   2.628   4.626  0.1359  0.1466  0.0916
 2582SOL     OW10454   0.648   4.084   4.561 -0.5751  0.5261 -0.0332
 2582SOL    HW210455   0.724   4.029   4.542 -0.1471  0.7864  0.8702
 2582SOL    HW310456   0.573   4.030   4.540 -0.1433 -0.0589 -0.0922
 2582SOL    MW410457   0.648   4.070   4.556 -0.4617  0.4830  0.0782
 2583SOL     OW10458   3.778   0.403   4.391  0.2910  0.3524  0.0093
 2583SOL    HW210459   3.774   0.328   4.450 -1.3804  0.7018  0.3605
 2583SOL    HW310460   3.813   0.475   4.444  2.5861 -0.3200 -0.5179
 2583SOL    MW410461   3.782   0.403   4.406  0.3734  0.3098 -0.0138
 2584SOL     OW10462   2.803   0.158   4.549  0.0568 -0.6171  0.2130
 2584SOL    HW210463   2.783   0.084   4.606 -0.6331 -2.4618 -2.3526
 2584SOL    HW310464   2.899   0.162   4.548  0.0723  0.0717  2.2630
 2584SOL    MW410465   2.813   0.149   4.557 -0.0322 -0.7696  0.1450
 2585SOL     OW10466   4.066   0.397   4.157  0.6240 -0.3445  0.0889
 2585SOL    HW210467   4.058   0.309   4.196 -0.3722 -0.9064 -1.3240
 2585SOL    HW310468   4.046   0.383   4.065  0.5701  1.3714 -0.1624
 2585SOL    MW410469   4.062   0.383   4.150  0.4859 -0.1922 -0.1307
 2586SOL     OW10470   0.301   1.508   4.561 -0.1476  0.4654  0.2578
 2586SOL    HW210471   0.254   1.461   4.492 -0.4584  1.4662 -0.2137
 2586SOL    HW310472   0.252   1.590   4.572 -1.7218 -0.7920  3.4954
 2586SOL    MW410473   0.288   1.513   4.553 -0.3963  0.4315  0.6227
 2587SOL     OW10474   3.320   2.636   4.728  0.5761  0.4134 -0.0016
 2587SOL    HW210475   3.269   2.558   4.708 -0.1910  1.3621 -1.9728
 2587SOL    HW310476   3.405   2.603   4.755  0.5999 -1.1043 -1.8160
 2587SOL    MW410477   3.324   2.622   4.729  0.4780  0.3383 -0.5012
 2588SOL     OW10478   1.332   3.564   4.353  0.1455 -0.7383 -0.0150
 2588SOL    HW210479   1.334   3.505   4.278 -1.2480 -1.3213  0.3895
 2588SOL    HW310480   1.405   3.535   4.408  1.3499 -0.1151 -1.2795
 2588SOL    MW410481   1.342   3.552   4.351  0.1205 -0.7327 -0.1283
 2589SOL     OW10482   1.787   1.682   3.724 -0.3098 -0.1667 -0.3004
 2589SOL    HW210483   1.728   1.624   3.774 -1.0542 -1.1180 -2.2370
 2589SOL    HW310484   1.764   1.770   3.755 -1.1401 -0.6910  0.6441
 2589SOL    MW410485   1.776   1.686   3.735 -0.5176 -0.3616 -0.4311
 2590SOL     OW10486   4.350   1.227   4.202  0.4334  0.1809  0.1062
 2590SOL    HW210487   4.261   1.197   4.187  1.0616 -1.8591  0.1631
 2590SOL    HW310488   4.394   1.151   4.242  2.1784  1.1446  0.0814
 2590SOL    MW410489   4.344   1.213   4.205  0.7467  0.0390  0.1106
 2591SOL     OW10490   1.347   1.279   4.166  0.1378  0.4317  0.0655
 2591SOL    HW210491   1.344   1.249   4.257 -0.6639 -0.2302 -0.1705
 2591SOL    HW310492   1.262   1.321   4.153  0.9594  2.1702  0.1696
 2591SOL    MW410493   1.335   1.280   4.177  0.1404  0.5739  0.0482
 2592SOL     OW10494   3.569   2.208   4.672 -0.1621  0.0438 -0.2465
 2592SOL    HW210495   3.516   2.129   4.686  0.5717 -0.2381  1.0004
 2592SOL    HW310496   3.530   2.248   4.595 -1.6824 -0.6011  0.1434
 2592SOL    MW410497   3.557   2.203   4.664 -0.2658 -0.0782 -0.0305
 2593SOL     OW10498   1.461   0.680   4.092  0.2931  0.1318 -0.9423
 2593SOL    HW210499   1.385   0.736   4.111  0.8616  0.6890 -0.2933
 2593SOL    HW310500   1.495   0.714   4.009 -0.2445 -0.2092 -1.3071
 2593SOL    MW410501   1.455   0.692   4.084  0.2971  0.1603 -0.9041
 2594SOL     OW10502   2.262   0.601   4.451 -0.1413 -0.0945 -0.5274
 2594SOL    HW210503   2.186   0.544   4.460 -1.0468  1.1655 -0.1205
 2594SOL    HW310504   2.257   0.634   4.361  0.1464 -0.3178 -0.6265
 2594SOL    MW410505   2.251   0.598   4.440 -0.2229  0.0423 -0.4864
 2595SOL     OW10506   0.224   2.779   4.234 -0.2104  0.2469  0.2381
 2595SOL    HW210507   0.271   2.860   4.213  0.8462 -0.6726 -1.0437
 2595SOL    HW310508   0.192   2.792   4.324  1.3599  1.4231  0.6430
 2595SOL    MW410509   0.226   2.791   4.243  0.1361  0.2809  0.1221
 2596SOL     OW10510   4.098   1.121   4.154  0.0698 -0.1328  0.4972
 2596SOL    HW210511   4.063   1.109   4.066 -0.9409  2.4273  0.5110
 2596SOL    HW310512   4.102   1.033   4.191 -0.6418 -1.0948 -1.6646
 2596SOL    MW410513   4.094   1.108   4.148 -0.1574  0.0780  0.2136
 2597SOL     OW10514   3.053   0.033   4.296  0.2548 -0.0495  0.2425
 2597SOL    HW210515   2.989  -0.021   4.250  1.1350 -1.7736  0.9743
 2597SOL    HW310516   3.023   0.123   4.283 -1.2514 -0.7095 -1.0047
 2597SOL    MW410517   3.041   0.038   4.288  0.1721 -0.3638  0.1745
 2598SOL     OW10518   1.424   0.845   4.584  0.5687 -0.0554  0.2453
 2598SOL    HW210519   1.404   0.893   4.665 -2.2676 -0.4271 -0.1721
 2598SOL    HW310520   1.436   0.755   4.611 -4.5191 -0.9952 -0.0988
 2598SOL    MW410521   1.423   0.840   4.598 -0.4768 -0.2284  0.1450
 2599SOL     OW10522   3.194   1.725   4.243 -0.4038  0.2624  0.0361
 2599SOL    HW210523   3.107   1.713   4.205 -0.7038  2.0113  0.0897
 2599SOL    HW310524   3.181   1.708   4.337 -0.6757  0.4493  0.0345
 2599SOL    MW410525   3.181   1.721   4.251 -0.4795  0.5178  0.0434
 2600SOL     OW10526   2.513   0.708   4.721 -0.5240  0.3131  0.0674
 2600SOL    HW210527   2.575   0.758   4.668 -0.8838  1.3407  0.5960
 2600SOL    HW310528   2.539   0.617   4.710 -0.3992  0.5407 -1.6204
 2600SOL    MW410529   2.524   0.703   4.713 -0.5553  0.4788 -0.0858
 2601SOL     OW10530   3.278   4.260   4.499 -0.4751 -0.5679  0.5841
 2601SOL    HW210531   3.335   4.184   4.498  0.9916  0.4939  1.0274
 2601SOL    HW310532   3.190   4.225   4.511  0.3743 -2.0522  2.6365
 2601SOL    MW410533   3.274   4.246   4.500 -0.1693 -0.6242  0.9131
 2602SOL     OW10534   0.618   1.927   4.415 -0.2150 -0.4289  0.1818
 2602SOL    HW210535   0.530   1.947   4.383 -0.7349 -0.5052  1.5403
 2602SOL    HW310536   0.651   2.011   4.448  0.0232 -0.5083  0.1425
 2602SOL    MW410537   0.610   1.941   4.415 -0.2522 -0.4494  0.3552
 2603SOL     OW10538   0.221   4.123   4.501 -0.0626  0.5139 -0.2796
 2603SOL    HW210539   0.170   4.085   4.429 -0.5516  2.9888 -1.2947
 2603SOL    HW310540   0.155   4.158   4.561  0.3672 -0.7307  0.9467
 2603SOL    MW410541   0.205   4.123   4.499 -0.0704  0.6757 -0.2518
 2604SOL     OW10542   1.378   4.229   4.157  0.2176 -0.4135  0.1616
 2604SOL    HW210543   1.354   4.216   4.066  0.2910  0.9114 -0.0512
 2604SOL    HW310544   1.467   4.194   4.164  0.8488  0.9814 -0.6702
 2604SOL    MW410545   1.386   4.222   4.146  0.3105 -0.0544  0.0243
 2605SOL     OW10546   3.503   3.180   4.288 -0.7491 -0.2015 -0.0507
 2605SOL    HW210547   3.472   3.105   4.238 -2.2117 -0.3065  0.9932
 2605SOL    HW310548   3.506   3.149   4.379  0.6725  0.3609  0.1052
 2605SOL    MW410549   3.500   3.166   4.294 -0.7544 -0.1414  0.1073
 2606SOL     OW10550   2.907   2.073   4.731 -0.0457 -0.2680 -0.4427
 2606SOL    HW210551   2.950   2.061   4.647  1.9546  0.1888  0.4732
 2606SOL    HW310552   2.900   1.984   4.767 -0.9111 -0.4627 -1.0883
 2606SOL    MW410553   2.911   2.059   4.725  0.1040 -0.2332 -0.4072
 2607SOL     OW10554   1.893   0.807   4.085 -0.2438  0.9716 -0.0618
 2607SOL    HW210555   1.943   0.797   4.004  1.2709 -1.0900  1.0979
 2607SOL    HW310556   1.950   0.859   4.142 -0.0578 -0.0726  0.7165
 2607SOL    MW410557   1.907   0.813   4.082 -0.0196  0.5618  0.1945
 2608SOL     OW10558   3.077   0.797   4.601 -0.1052  0.2899  0.2150
 2608SOL    HW210559   3.009   0.778   4.537  0.1242  0.2651 -0.0221
 2608SOL    HW310560   3.100   0.711   4.637 -0.1824  0.2956  0.2779
 2608SOL    MW410561   3.071   0.783   4.598 -0.0851  0.2874  0.1922
 2609SOL     OW10562   2.733   0.338   4.124  0.0171  0.1953  0.2249
 2609SOL    HW210563   2.730   0.370   4.034  2.3069 -1.5071 -0.5141
 2609SOL    HW310564   2.669   0.267   4.126 -0.3696  0.5372  0.0740
 2609SOL    MW410565   2.724   0.333   4.113  0.2682  0.0158  0.1078
 2610SOL     OW10566   3.841   3.648   4.275 -0.0378 -0.1748  0.2145
 2610SOL    HW210567   3.772   3.606   4.223 -1.2614  2.6957 -0.5673
 2610SOL    HW310568   3.922   3.615   4.237 -0.9621 -1.0216 -1.0706
 2610SOL    MW410569   3.842   3.638   4.263 -0.3214  0.0923 -0.0577
 2611SOL     OW10570   1.319   2.216   4.758 -0.2820 -0.2185 -0.0780
 2611SOL    HW210571   1.358   2.209   4.671 -1.0453 -0.0279 -0.4383
 2611SOL    HW310572   1.326   2.128   4.795  1.6192  0.0969  0.3585
 2611SOL    MW410573   1.325   2.203   4.752 -0.1320 -0.1519 -0.0682
 2612SOL     OW10574   2.442   3.104   3.868  0.5171  0.3334  0.2708
 2612SOL    HW210575   2.444   3.011   3.846 -0.1471  0.0197  1.4828
 2612SOL    HW310576   2.448   3.106   3.964  0.8591  1.5508  0.2330
 2612SOL    MW410577   2.443   3.092   3.878  0.4745  0.4525  0.4256
 2613SOL     OW10578   3.153   3.452   4.143 -0.1731  0.4448  0.3931
 2613SOL    HW210579   3.233   3.443   4.195 -1.4983 -1.2206  2.2022
 2613SOL    HW310580   3.182   3.442   4.052  1.6155 -0.6299  1.0635
 2613SOL    MW410581   3.167   3.449   4.137 -0.1118  0.0834  0.7205
 2614SOL     OW10582   2.507   4.506   4.537 -0.8039  0.4903 -0.1456
 2614SOL    HW210583   2.544   4.525   4.623 -0.3502 -2.1026  0.2834
 2614SOL    HW310584   2.569   4.546   4.475  0.5167 -0.2378  0.6747
 2614SOL    MW410585   2.520   4.514   4.540 -0.5701  0.0525  0.0196
 2615SOL     OW10586   3.994   1.993   4.135 -0.5126  0.0983 -0.2036
 2615SOL    HW210587   3.902   2.012   4.158 -0.3718  1.3214 -0.5998
 2615SOL    HW310588   4.044   2.052   4.191  0.1381 -1.9486  1.4377
 2615SOL    MW410589   3.988   2.003   4.146 -0.4082 -0.0105 -0.0391
 2616SOL     OW10590   2.928   3.303   4.244  0.0578 -0.3902 -0.1842
 2616SOL    HW210591   2.929   3.221   4.195  3.1793 -0.6970  0.3193
 2616SOL    HW310592   2.999   3.354   4.207 -0.3262  1.1339  1.1182
 2616SOL    MW410593   2.937   3.299   4.233  0.4189 -0.2296  0.0544
 2617SOL     OW10594   4.103   1.756   4.254  0.1266  0.5863 -0.0418
 2617SOL    HW210595   4.060   1.835   4.219 -0.3865  0.1134 -0.4969
 2617SOL    HW310596   4.045   1.684   4.227  0.7435  0.0277  0.1199
 2617SOL    MW410597   4.089   1.757   4.246  0.1407  0.4503 -0.0801
 2618SOL     OW10598   2.714   3.710   4.437 -0.1927 -0.3764 -0.0026
 2618SOL    HW210599   2.719   3.788   4.383  2.3820 -0.0902  0.5518
 2618SOL    HW310600   2.726   3.741   4.527  0.4390 -1.3304  0.2621
 2618SOL    MW410601   2.717   3.724   4.442  0.2301 -0.4644  0.1063
 2619SOL     OW10602   0.883   2.293   4.827  0.4585 -0.2927  0.0655
 2619SOL    HW210603   0.938   2.228   4.783 -0.6757 -0.4153 -1.1887
 2619SOL    HW310604   0.821   2.240   4.878  0.1379 -0.1871 -0.2135
 2619SOL    MW410605   0.882   2.277   4.828  0.2666 -0.2949 -0.1369
 2620SOL     OW10606   1.965   3.143   4.105 -0.0228  0.0751  0.0268
 2620SOL    HW210607   1.996   3.062   4.144  0.1119  0.1897  0.1578
 2620SOL    HW310608   1.995   3.139   4.014 -0.3951 -0.2228 -0.0813
 2620SOL    MW410609   1.973   3.132   4.098 -0.0541  0.0505  0.0300
 2621SOL     OW10610   4.049   3.465   3.847 -0.1419  0.2564 -0.2448
 2621SOL    HW210611   4.040   3.462   3.943  2.0715  1.7173  0.0676
 2621SOL    HW310612   4.047   3.374   3.820 -2.1174 -0.1150  1.0455
 2621SOL    MW410613   4.048   3.453   3.856 -0.1106  0.3998 -0.0331
 2622SOL     OW10614   2.511   0.479   4.479  0.1450  0.0055 -0.1824
 2622SOL    HW210615   2.549   0.501   4.394  1.0113 -2.9427 -0.6449
 2622SOL    HW310616   2.429   0.527   4.483  0.5900  0.9776 -2.2495
 2622SOL    MW410617   2.505   0.488   4.468  0.3178 -0.2553 -0.5164
 2623SOL     OW10618   2.873   2.514   4.574  0.5083 -0.1043  0.5712
 2623SOL    HW210619   2.804   2.453   4.600  0.4539 -0.2086  0.1722
 2623SOL    HW310620   2.855   2.534   4.482  0.7440  0.2220  0.5940
 2623SOL    MW410621   2.861   2.509   4.566  0.5319 -0.0751  0.5221
 2624SOL     OW10622   3.835   3.883   3.877 -0.3547 -0.5157 -0.3915
 2624SOL    HW210623   3.908   3.932   3.839  2.0235 -2.5786  1.2811
 2624SOL    HW310624   3.829   3.804   3.823  1.0248 -2.0097  1.5683
 2624SOL    MW410625   3.844   3.879   3.864  0.1411 -0.9849  0.0875
 2625SOL     OW10626   0.704   2.291   4.094 -0.1735 -0.5792 -0.1362
 2625SOL    HW210627   0.694   2.198   4.113 -1.0353 -0.5563 -0.4741
 2625SOL    HW310628   0.787   2.315   4.135  0.4971 -1.6946 -0.8041
 2625SOL    MW410629   0.713   2.282   4.102 -0.1987 -0.7234 -0.2685
 2626SOL     OW10630   0.500   2.684   4.705  0.0635 -0.1268 -0.3315
 2626SOL    HW210631   0.449   2.728   4.637  0.4067 -0.4291 -0.7924
 2626SOL    HW310632   0.496   2.743   4.780 -2.5182 -1.0062  0.2617
 2626SOL    MW410633   0.493   2.698   4.706 -0.2318 -0.2830 -0.3138
 2627SOL     OW10634   3.943   3.061   4.174 -0.3453 -0.2632  0.2622
 2627SOL    HW210635   3.923   3.060   4.080  0.2194 -1.5093  0.1379
 2627SOL    HW310636   4.039   3.064   4.178 -0.3195 -1.4828  0.7759
 2627SOL    MW410637   3.953   3.061   4.162 -0.2675 -0.5882  0.3138
 2628SOL     OW10638   2.179   2.488   4.102  0.0748 -0.1504 -0.0069
 2628SOL    HW210639   2.176   2.392   4.106  1.3435 -0.1816  0.2581
 2628SOL    HW310640   2.247   2.513   4.164 -1.5756  1.0473  1.3656
 2628SOL    MW410641   2.188   2.478   4.111  0.0243  0.0038  0.2089
 2629SOL     OW10642   1.115   0.719   3.908  0.0583  0.3312  0.2058
 2629SOL    HW210643   1.054   0.792   3.912  0.2119  0.5196 -0.8948
 2629SOL    HW310644   1.144   0.707   3.999 -0.4777  1.1982  0.4913
 2629SOL    MW410645   1.111   0.727   3.921  0.0079  0.4704  0.0980
 2630SOL     OW10646   2.554   1.140   4.154  0.0944 -0.2402 -0.4756
 2630SOL    HW210647   2.583   1.169   4.067 -1.0949  0.4027 -0.6625
 2630SOL    HW310648   2.533   1.220   4.201 -0.9298 -0.6732 -0.1809
 2630SOL    MW410649   2.555   1.154   4.148 -0.1976 -0.2124 -0.4616
 2631SOL     OW10650   4.452   1.468   4.336  0.0272 -0.1845  0.1508
 2631SOL    HW210651   4.438   1.456   4.430 -1.3115  1.0638  0.1227
 2631SOL    HW310652   4.421   1.387   4.296  0.0522 -0.4847  0.7349
 2631SOL    MW410653   4.446   1.456   4.343 -0.1459 -0.0595  0.2246
 2632SOL     OW10654   2.451   2.207   4.095 -0.1259  0.1626  0.3895
 2632SOL    HW210655   2.356   2.214   4.085 -0.0353  0.6836 -0.1462
 2632SOL    HW310656   2.473   2.271   4.163 -0.0236  0.8440 -0.2817
 2632SOL    MW410657   2.441   2.216   4.103 -0.1004  0.3214  0.2303
 2633SOL     OW10658   0.959   3.510   4.192 -0.4512  0.0818 -0.1886
 2633SOL    HW210659   0.940   3.488   4.101 -0.8340  1.8848 -0.5597
 2633SOL    HW310660   1.017   3.586   4.187 -0.6172  0.3070  1.0741
 2633SOL    MW410661   0.964   3.517   4.180 -0.5236  0.3495 -0.0710
 2634SOL     OW10662   0.456   3.953   4.262  0.4490  0.9707  0.4452
 2634SOL    HW210663   0.532   3.900   4.239 -2.0301 -2.7017  0.2277
 2634SOL    HW310664   0.448   3.942   4.357 -0.8687 -0.2659  0.2154
 2634SOL    MW410665   0.465   3.945   4.272 -0.0519  0.3231  0.3858
 2635SOL     OW10666   3.566   0.907   3.763  0.8107 -0.1606  0.3531
 2635SOL    HW210667   3.489   0.863   3.800  0.7951 -0.2769  0.1853
 2635SOL    HW310668   3.558   0.998   3.792 -1.1946  0.6384 -2.4226
 2635SOL    MW410669   3.555   0.913   3.771  0.5438 -0.0705 -0.0355
 2636SOL     OW10670   2.461   3.262   4.403 -0.2644  0.8275  0.1672
 2636SOL    HW210671   2.394   3.280   4.470 -0.3269  0.6591  0.1499
 2636SOL    HW310672   2.487   3.348   4.372  0.3249  0.9396  0.9558
 2636SOL    MW410673   2.455   3.276   4.408 -0.1950  0.8202  0.2685
 2637SOL     OW10674   4.252   1.282   3.798  0.0732  0.2768 -0.1868
 2637SOL    HW210675   4.266   1.370   3.834 -1.6121  0.2923  0.4547
 2637SOL    HW310676   4.252   1.295   3.703  0.9684  0.7838 -0.1316
 2637SOL    MW410677   4.254   1.296   3.790 -0.0310  0.3457 -0.0947
 2638SOL     OW10678   4.434   3.761   4.356 -0.1947  0.5351 -0.1002
 2638SOL    HW210679   4.364   3.758   4.291  1.0690 -1.7499 -1.4217
 2638SOL    HW310680   4.407   3.830   4.417 -2.8716  0.6899 -1.3735
 2638SOL    MW410681   4.421   3.770   4.356 -0.3805  0.2542 -0.4425
 2639SOL     OW10682   1.840   3.634   4.476  0.2508 -0.2853  0.1736
 2639SOL    HW210683   1.876   3.545   4.469  1.6195  0.2492  0.3874
 2639SOL    HW310684   1.907   3.684   4.521 -0.4556  0.9063 -0.0707
 2639SOL    MW410685   1.853   3.629   4.481  0.3383 -0.0575  0.1702
 2640SOL     OW10686   0.586   4.349   4.467 -0.4092 -0.2583 -0.4906
 2640SOL    HW210687   0.599   4.255   4.483 -0.2685  0.1749  2.1127
 2640SOL    HW310688   0.495   4.356   4.440 -0.0328 -1.2808 -2.1657
 2640SOL    MW410689   0.576   4.338   4.465 -0.3409 -0.3357 -0.3686
 2641SOL     OW10690   1.335   2.199   3.761  0.2605  0.4049 -0.5721
 2641SOL    HW210691   1.316   2.156   3.845  0.9992  1.4256  0.1286
 2641SOL    HW310692   1.412   2.154   3.728  0.6145  0.7212 -0.1785
 2641SOL    MW410693   1.342   2.188   3.768  0.4046  0.5813 -0.4277
 2642SOL     OW10694   4.307   2.590   4.240  0.1342 -0.5179  0.1384
 2642SOL    HW210695   4.396   2.589   4.204  0.0697  0.4313 -0.0554
 2642SOL    HW310696   4.288   2.682   4.254 -0.1664 -0.8070  1.8153
 2642SOL    MW410697   4.316   2.602   4.237  0.0863 -0.4308  0.3338
 2643SOL     OW10698   2.969   3.054   4.132 -0.5861 -0.0989 -0.2432
 2643SOL    HW210699   2.882   3.030   4.163 -0.9191  1.5745  0.1797
 2643SOL    HW310700   2.966   3.041   4.037 -0.9105 -1.1868 -0.0849
 2643SOL    MW410701   2.957   3.049   4.123 -0.6728 -0.0215 -0.1664
 2644SOL     OW10702   1.859   0.335   4.129  0.1774 -0.1824 -0.2675
 2644SOL    HW210703   1.951   0.359   4.117  0.2597  0.0276  0.7449
 2644SOL    HW310704   1.815   0.416   4.152 -0.2697 -0.2871 -0.7251
 2644SOL    MW410705   1.866   0.349   4.130  0.1293 -0.1686 -0.1941
 2645SOL     OW10706   1.889   4.022   4.546 -0.1604  0.4199 -0.4067
 2645SOL    HW210707   1.797   4.049   4.540 -0.4026 -0.7088 -2.2030
 2645SOL    HW310708   1.926   4.076   4.616 -2.1134  1.1003  0.1171
 2645SOL    MW410709   1.882   4.033   4.555 -0.4500  0.3610 -0.5746
 2646SOL     OW10710   2.457   1.657   4.611  0.5712  0.1324 -0.1029
 2646SOL    HW210711   2.542   1.679   4.572  0.6926  0.5435  0.3881
 2646SOL    HW310712   2.393   1.690   4.549  0.7553  1.7801  0.5550
 2646SOL    MW410713   2.460   1.664   4.598  0.6115  0.4040  0.0482
 2647SOL     OW10714   3.290   2.071   4.389 -0.2551 -0.2011 -0.0787
 2647SOL    HW210715   3.263   2.065   4.297 -0.8593 -1.1851  0.1541
 2647SOL    HW310716   3.305   2.164   4.403 -2.8258  0.3197 -0.4608
 2647SOL    MW410717   3.288   2.082   4.378 -0.6740 -0.2620 -0.0987
 2648SOL     OW10718   3.882   3.684   4.699 -0.3153  0.7185  0.1912
 2648SOL    HW210719   3.848   3.772   4.684  1.0349  1.3149  0.5384
 2648SOL    HW310720   3.967   3.683   4.653 -0.9126 -0.8383 -0.9490
 2648SOL    MW410721   3.889   3.696   4.691 -0.2160  0.5915  0.0863
 2649SOL     OW10722   3.537   0.702   4.236  0.0569  0.3403  0.4551
 2649SOL    HW210723   3.620   0.747   4.222 -0.5345  1.1869 -0.3866
 2649SOL    HW310724   3.520   0.710   4.330  0.1334  1.5796  0.3708
 2649SOL    MW410725   3.545   0.709   4.247 -0.0110  0.6155  0.3333
 2650SOL     OW10726   2.391   1.981   4.466 -0.2064 -0.0129 -0.0892
 2650SOL    HW210727   2.460   2.042   4.493  1.7955 -2.4347  0.4266
 2650SOL    HW310728   2.355   1.948   4.548 -2.2439  1.4438 -0.3495
 2650SOL    MW410729   2.396   1.985   4.481 -0.2110 -0.1403 -0.0558
 2651SOL     OW10730   2.743   3.466   4.135  0.4711 -0.7467  0.2943
 2651SOL    HW210731   2.774   3.556   4.130 -0.5904 -0.1654  2.9985
 2651SOL    HW310732   2.813   3.419   4.181 -0.5976 -0.4325  2.2951
 2651SOL    MW410733   2.756   3.471   4.141  0.1900 -0.6285  0.9155
 2652SOL     OW10734   1.344   1.961   4.851 -0.4222 -0.3123  0.4447
 2652SOL    HW210735   1.432   1.951   4.814 -0.1466  0.2812  0.9401
 2652SOL    HW310736   1.311   1.871   4.859  0.4328 -0.5845  0.9503
 2652SOL    MW410737   1.351   1.948   4.847 -0.2730 -0.2698  0.5770
 2653SOL     OW10738   2.809   4.250   4.584  0.0247 -0.1528  0.6100
 2653SOL    HW210739   2.877   4.194   4.548 -0.0742  0.1677 -0.0831
 2653SOL    HW310740   2.734   4.237   4.526  0.1019  0.9306  0.2633
 2653SOL    MW410741   2.808   4.241   4.572  0.0217  0.0324  0.4730
 2654SOL     OW10742   0.009   0.990   4.289  0.3145 -0.4497 -0.6934
 2654SOL    HW210743  -0.006   0.904   4.251  0.5831 -0.4685 -0.7541
 2654SOL    HW310744   0.015   0.973   4.383  1.1346 -0.6005 -0.7701
 2654SOL    MW410745   0.008   0.976   4.297  0.4582 -0.4721 -0.7119
 2655SOL     OW10746   2.916   4.157   4.243 -0.2049  0.6615 -0.2345
 2655SOL    HW210747   2.989   4.170   4.183  0.4905 -1.0571  0.2234
 2655SOL    HW310748   2.845   4.209   4.205  1.0616  1.9018 -0.9818
 2655SOL    MW410749   2.916   4.166   4.230  0.0541  0.5984 -0.2728
 2656SOL     OW10750   2.741   2.287   4.682 -0.1851 -0.1522 -0.0481
 2656SOL    HW210751   2.661   2.288   4.734 -0.6114 -1.1608 -0.6682
 2656SOL    HW310752   2.799   2.227   4.729 -0.1412 -0.1659 -0.1205
 2656SOL    MW410753   2.738   2.280   4.695 -0.2356 -0.2868 -0.1397
 2657SOL     OW10754   3.928   1.392   4.583 -0.0511 -0.2912 -0.0168
 2657SOL    HW210755   3.917   1.355   4.496 -1.8708  0.0390  0.0450
 2657SOL    HW310756   3.950   1.484   4.567  0.9216 -0.5461 -0.1390
 2657SOL    MW410757   3.929   1.400   4.569 -0.1631 -0.2813 -0.0248
 2658SOL     OW10758   4.217   4.617   4.135 -0.3204 -0.1256 -0.2807
 2658SOL    HW210759   4.293   4.663   4.170 -1.3013  1.0989  0.2592
 2658SOL    HW310760   4.143   4.654   4.181 -1.4729  0.1931 -2.3321
 2658SOL    MW410761   4.217   4.628   4.145 -0.6018  0.0782 -0.4802
 2659SOL     OW10762   1.140   4.254   4.297 -0.4732  0.0102 -0.1155
 2659SOL    HW210763   1.218   4.228   4.249 -0.3590  0.6738 -0.2908
 2659SOL    HW310764   1.147   4.349   4.305 -2.0277  0.2752 -1.5134
 2659SOL    MW410765   1.151   4.263   4.292 -0.6632  0.1326 -0.3228
 2660SOL     OW10766   4.433   3.080   4.373  0.1027  0.2899  0.0756
 2660SOL    HW210767   4.481   3.104   4.294 -1.0887 -0.8773 -1.0299
 2660SOL    HW310768   4.402   2.991   4.356 -0.2332  0.0393  1.8357
 2660SOL    MW410769   4.436   3.071   4.361 -0.0987  0.1028  0.1621
 2661SOL     OW10770   3.311   3.919   4.117  0.5285 -0.3182 -0.2704
 2661SOL    HW210771   3.252   3.852   4.150 -0.5314  1.2082  1.0516
 2661SOL    HW310772   3.254   3.994   4.099  1.4513 -0.2256 -3.1702
 2661SOL    MW410773   3.296   3.920   4.119  0.5102 -0.1047 -0.4787
 2662SOL     OW10774   4.355   1.668   4.177  0.4625  0.4448  0.3508
 2662SOL    HW210775   4.384   1.601   4.238  0.6592  0.8535  0.7110
 2662SOL    HW310776   4.271   1.698   4.211  0.8598  1.1046  0.7720
 2662SOL    MW410777   4.348   1.663   4.189  0.5407  0.5857  0.4535
 2663SOL     OW10778   1.535   4.398   4.511  0.1265 -0.2361 -0.2048
 2663SOL    HW210779   1.459   4.433   4.557 -0.6740  0.0817 -1.7448
 2663SOL    HW310780   1.548   4.311   4.549 -1.0057 -0.2912  0.0712
 2663SOL    MW410781   1.527   4.391   4.522 -0.1284 -0.2012 -0.3724
 2664SOL     OW10782   3.547   1.184   3.868 -0.5251 -0.2015 -0.1529
 2664SOL    HW210783   3.468   1.221   3.830 -0.4247  0.0894 -0.0752
 2664SOL    HW310784   3.618   1.212   3.809 -0.3965  0.0771  0.1344
 2664SOL    MW410785   3.546   1.192   3.855 -0.4952 -0.1264 -0.1049
 2665SOL     OW10786   1.534   3.895   4.124  0.0260 -0.1530 -0.6561
 2665SOL    HW210787   1.588   3.826   4.165  0.3260 -0.4821 -1.5846
 2665SOL    HW310788   1.528   3.868   4.033 -1.1754  0.2390 -0.6973
 2665SOL    MW410789   1.540   3.882   4.118 -0.0929 -0.1447 -0.7844
 2666SOL     OW10790   0.717   2.044   3.778  0.0347 -0.2030  0.4422
 2666SOL    HW210791   0.712   2.140   3.785  0.7279 -0.0688 -0.8360
 2666SOL    HW310792   0.808   2.023   3.799 -0.3261 -0.6656  1.5732
 2666SOL    MW410793   0.729   2.054   3.782  0.0785 -0.2465  0.4227
 2667SOL     OW10794   1.122   3.797   3.865  0.4965  0.2842  0.1735
 2667SOL    HW210795   1.125   3.779   3.959 -0.8451  1.4367  0.4488
 2667SOL    HW310796   1.190   3.862   3.851 -0.0636  0.9519  0.5394
 2667SOL    MW410797   1.131   3.803   3.876  0.2456  0.5243  0.2580
 2668SOL     OW10798   3.757   3.284   4.232  0.5609  0.2698  0.0253
 2668SOL    HW210799   3.677   3.232   4.238  0.1863  0.7140 -1.0461
 2668SOL    HW310800   3.827   3.220   4.218  0.1837  0.0064 -0.6524
 2668SOL    MW410801   3.756   3.269   4.231  0.4613  0.2937 -0.2050
 2669SOL     OW10802   4.287   2.334   3.851 -0.2749  0.1109  0.2171
 2669SOL    HW210803   4.297   2.242   3.825 -0.8617  0.3576 -0.9086
 2669SOL    HW310804   4.209   2.364   3.804 -0.2396  1.1159  0.7811
 2669SOL    MW410805   4.278   2.326   3.841 -0.3476  0.2761  0.1428
 2670SOL     OW10806   0.680   3.557   4.277 -0.1349  0.5792  0.1101
 2670SOL    HW210807   0.678   3.647   4.245  1.0233  0.6059  0.0762
 2670SOL    HW310808   0.764   3.523   4.247 -0.0854 -0.1657  1.0695
 2670SOL    MW410809   0.691   3.564   4.269  0.0246  0.4847  0.2327
 2671SOL     OW10810   3.126   3.732   4.207  0.1111 -0.3838 -0.1194
 2671SOL    HW210811   3.144   3.652   4.157  0.0505 -0.1166 -0.5756
 2671SOL    HW310812   3.105   3.701   4.295 -0.0665 -0.8813 -0.3314
 2671SOL    MW410813   3.126   3.717   4.212  0.0796 -0.4141 -0.2079
 2672SOL     OW10814   1.646   0.952   4.124 -0.3604 -0.5367  0.1738
 2672SOL    HW210815   1.721   0.900   4.098  0.1558 -0.1221  0.8132
 2672SOL    HW310816   1.639   0.939   4.219 -0.8991 -0.3287  0.1666
 2672SOL    MW410817   1.655   0.944   4.133 -0.3633 -0.4547  0.2575
 2673SOL     OW10818   4.030   0.098   4.265  0.2466  0.2538  0.7060
 2673SOL    HW210819   4.042   0.099   4.360  0.6688 -0.7725  0.6656
 2673SOL    HW310820   3.939   0.071   4.253  0.5417 -0.8257  0.8031
 2673SOL    MW410821   4.019   0.095   4.276  0.3414 -0.0240  0.7138
 2674SOL     OW10822   0.100   0.798   4.874  0.1187  0.4580  0.0617
 2674SOL    HW210823   0.146   0.870   4.832  0.3220  0.4559  0.2847
 2674SOL    HW310824   0.119   0.807   4.967  2.6038 -1.6180 -0.2097
 2674SOL    MW410825   0.108   0.809   4.881  0.4734  0.1838  0.0553
 2675SOL     OW10826   2.662   1.677   3.750 -0.3927 -0.0602  0.2300
 2675SOL    HW210827   2.577   1.648   3.785 -0.1706  0.4115  1.1867
 2675SOL    HW310828   2.692   1.743   3.813  0.6324 -0.1465 -0.1635
 2675SOL    MW410829   2.654   1.681   3.763 -0.2282 -0.0093  0.3045
 2676SOL     OW10830   0.586   2.832   4.321  0.1268  0.0367 -0.8721
 2676SOL    HW210831   0.532   2.848   4.398  2.1123  1.6408  0.2490
 2676SOL    HW310832   0.595   2.917   4.279  1.0416 -0.3773 -1.5524
 2676SOL    MW410833   0.580   2.845   4.325  0.5094  0.1936 -0.8140
 2677SOL     OW10834   2.581   3.423   4.731  0.0889  0.2305  0.2002
 2677SOL    HW210835   2.615   3.347   4.684 -0.1029  0.5476 -0.4493
 2677SOL    HW310836   2.489   3.426   4.707  0.3839  1.4368 -0.8071
 2677SOL    MW410837   2.574   3.413   4.722  0.1023  0.4315 -0.0186
 2678SOL     OW10838   3.478   1.769   4.598 -0.1526  0.2785 -0.2028
 2678SOL    HW210839   3.521   1.684   4.605 -1.6319 -0.6353 -1.8006
 2678SOL    HW310840   3.538   1.823   4.547 -0.3264 -0.6074 -1.3623
 2678SOL    MW410841   3.492   1.765   4.592 -0.3707  0.0411 -0.5665
 2679SOL     OW10842   0.413   2.428   4.625  0.1665  0.4425 -0.0491
 2679SOL    HW210843   0.441   2.506   4.672  1.4568 -0.0426  0.0086
 2679SOL    HW310844   0.319   2.439   4.614  0.1440  1.4096  1.0475
 2679SOL    MW410845   0.405   2.440   4.629  0.3338  0.5062  0.1030
 2680SOL     OW10846   2.037   2.307   3.855  0.4439  0.1995  0.2915
 2680SOL    HW210847   2.062   2.338   3.942 -1.0561  1.0579  0.4331
 2680SOL    HW310848   1.976   2.374   3.822 -0.5524 -1.1184 -0.5951
 2680SOL    MW410849   2.032   2.320   3.862  0.1147  0.1388  0.1931
 2681SOL     OW10850   2.067   0.960   4.529 -0.0040  0.1968 -0.3272
 2681SOL    HW210851   1.989   0.905   4.532  0.2606 -0.1889 -0.5587
 2681SOL    HW310852   2.135   0.909   4.573  0.1779  0.4440 -0.3176
 2681SOL    MW410853   2.066   0.946   4.535  0.0544  0.1785 -0.3562
 2682SOL     OW10854   1.881   2.340   4.902  0.4762  0.5070 -0.1006
 2682SOL    HW210855   1.902   2.427   4.869 -0.1822  0.5330 -0.4567
 2682SOL    HW310856   1.786   2.340   4.912  0.2207 -0.8354 -2.0804
 2682SOL    MW410857   1.871   2.351   4.899  0.3556  0.3333 -0.4091
 2683SOL     OW10858   3.467   1.308   4.305 -0.2508  0.6133 -0.4471
 2683SOL    HW210859   3.494   1.282   4.393  0.5998  0.0273 -0.8706
 2683SOL    HW310860   3.521   1.384   4.284 -0.9348  1.1670 -0.1991
 2683SOL    MW410861   3.478   1.314   4.314 -0.2286  0.6090 -0.4702
 2684SOL     OW10862   1.544   0.748   3.848  0.1748 -0.0311  0.3034
 2684SOL    HW210863   1.456   0.781   3.831  0.0727 -0.6495 -0.3730
 2684SOL    HW310864   1.603   0.810   3.806 -0.0009 -0.4641 -0.5929
 2684SOL    MW410865   1.540   0.760   3.841  0.1382 -0.1698  0.0961
 2685SOL     OW10866   3.346   4.334   4.232 -0.0377  0.1983  0.4258
 2685SOL    HW210867   3.298   4.414   4.211 -0.2261 -0.1603 -0.5703
 2685SOL    HW310868   3.317   4.309   4.319 -1.4757  0.1266 -0.0625
 2685SOL    MW410869   3.336   4.341   4.241 -0.2520  0.1411  0.2303
 2686SOL     OW10870   2.225   1.993   3.873 -0.0355  0.0682  0.7739
 2686SOL    HW210871   2.190   1.988   3.962 -0.4571 -1.0638  0.5489
 2686SOL    HW310872   2.152   2.028   3.821  0.1742  0.6213  0.8434
 2686SOL    MW410873   2.210   1.997   3.878 -0.0637 -0.0082  0.7532
 2687SOL     OW10874   3.430   1.628   4.140  0.0705 -0.0378 -0.3318
 2687SOL    HW210875   3.340   1.652   4.163  0.2556  1.5894 -1.2396
 2687SOL    HW310876   3.424   1.593   4.052  0.4903  1.3592 -0.9392
 2687SOL    MW410877   3.417   1.627   4.132  0.1504  0.3612 -0.5317
 2688SOL     OW10878   2.065   2.562   4.816  0.2030  0.5735 -0.6264
 2688SOL    HW210879   2.156   2.545   4.790  0.5452  0.7727  0.4341
 2688SOL    HW310880   2.056   2.657   4.809  0.4481  0.6770  0.4906
 2688SOL    MW410881   2.076   2.572   4.811  0.2804  0.6135 -0.3390
 2689SOL     OW10882   3.152   2.671   4.201  0.0864  0.0510 -0.0876
 2689SOL    HW210883   3.133   2.759   4.233  0.9228  0.0621  0.4132
 2689SOL    HW310884   3.243   2.655   4.228 -0.2283 -1.1667  0.2719
 2689SOL    MW410885   3.162   2.680   4.209  0.1552 -0.1080  0.0262
 2690SOL     OW10886   1.516   2.221   4.560 -0.2547  0.2722  0.1829
 2690SOL    HW210887   1.476   2.262   4.484 -0.6157 -0.8434 -0.2389
 2690SOL    HW310888   1.574   2.154   4.523 -0.3760 -0.2252  0.8914
 2690SOL    MW410889   1.519   2.218   4.545 -0.3183  0.0594  0.2208
 2691SOL     OW10890   2.145   3.256   4.280 -0.2592  0.5724  0.2088
 2691SOL    HW210891   2.120   3.216   4.197  0.0108  2.0470 -0.6058
 2691SOL    HW310892   2.141   3.184   4.344 -1.8245 -0.2637 -0.8060
 2691SOL    MW410893   2.141   3.241   4.277 -0.4301  0.6566 -0.0324
 2692SOL     OW10894   0.605   3.098   4.230 -0.0215 -0.3507  0.4564
 2692SOL    HW210895   0.669   3.133   4.293  0.4664 -0.6916  0.1547
 2692SOL    HW310896   0.654   3.092   4.148 -1.0560  1.4903 -0.3320
 2692SOL    MW410897   0.620   3.102   4.227 -0.0936 -0.1528  0.3123
 2693SOL     OW10898   3.188   1.668   4.518  0.2697 -0.2412  0.0728
 2693SOL    HW210899   3.205   1.575   4.502  0.6855 -0.0825 -0.4028
 2693SOL    HW310900   3.274   1.707   4.528  0.1118  0.1859 -0.2248
 2693SOL    MW410901   3.201   1.661   4.517  0.3035 -0.1640 -0.0291
 2694SOL     OW10902   0.918   1.675   3.794 -0.2119 -0.3013 -0.5200
 2694SOL    HW210903   0.991   1.630   3.835 -0.1816  0.4394  0.2511
 2694SOL    HW310904   0.840   1.627   3.822 -0.1730  0.0622  0.2118
 2694SOL    MW410905   0.918   1.663   3.803 -0.2028 -0.1556 -0.3216
 2695SOL     OW10906   0.669   3.872   3.897  0.3915  0.0277  0.1287
 2695SOL    HW210907   0.739   3.922   3.855 -0.3773  1.2454  0.2558
 2695SOL    HW310908   0.588   3.907   3.858 -0.4691  2.3110  3.6962
 2695SOL    MW410909   0.667   3.883   3.886  0.1765  0.4895  0.6161
 2696SOL     OW10910   3.061   3.694   4.862 -0.0532  0.0426 -0.0044
 2696SOL    HW210911   3.107   3.611   4.847 -0.1342 -0.0178  0.0815
 2696SOL    HW310912   2.972   3.669   4.886  0.0225  0.1391  0.3981
 2696SOL    MW410913   3.055   3.680   4.863 -0.0541  0.0474  0.0601
 2697SOL     OW10914   0.414   1.138   3.871 -0.4271  0.0566 -0.0302
 2697SOL    HW210915   0.437   1.123   3.963 -0.8302  0.0007  0.0653
 2697SOL    HW310916   0.488   1.186   3.835  0.0526 -0.5390  0.1451
 2697SOL    MW410917   0.427   1.142   3.878 -0.4171 -0.0294  0.0055
 2698SOL     OW10918   4.379   1.438   4.617 -0.3979 -0.0845  0.4891
 2698SOL    HW210919   4.326   1.514   4.640 -1.3709 -0.5681 -0.1354
 2698SOL    HW310920   4.316   1.367   4.604  0.4966 -0.9957  1.0423
 2698SOL    MW410921   4.364   1.439   4.618 -0.4082 -0.2685  0.4797
 2699SOL     OW10922   0.564   0.800   4.139 -0.1722  0.0852  0.5350
 2699SOL    HW210923   0.526   0.888   4.128 -0.5878 -0.3149 -1.4346
 2699SOL    HW310924   0.491   0.747   4.171 -0.7637 -0.2046 -1.2161
 2699SOL    MW410925   0.549   0.805   4.141 -0.3051 -0.0059  0.0439
 2700SOL     OW10926   1.939   1.233   4.589 -0.1560  0.0106 -0.3520
 2700SOL    HW210927   1.992   1.297   4.541 -1.2058 -0.0891 -1.6355
 2700SOL    HW310928   1.987   1.151   4.580  0.1251  0.1813 -0.4291
 2700SOL    MW410929   1.952   1.231   4.582 -0.2574  0.0200 -0.5312
 2701SOL     OW10930   3.221   3.480   4.729 -0.1200 -0.1964  0.2489
 2701SOL    HW210931   3.291   3.518   4.676  0.1171  0.0045  0.7031
 2701SOL    HW310932   3.242   3.387   4.735 -0.8106 -0.4568 -1.0399
 2701SOL    MW410933   3.233   3.473   4.722 -0.1795 -0.2043  0.1392
 2702SOL     OW10934   0.580   0.373   4.313 -0.1283 -0.0233 -0.3082
 2702SOL    HW210935   0.538   0.356   4.398 -0.7200 -1.0168 -0.7941
 2702SOL    HW310936   0.665   0.410   4.336 -0.5657  0.3867  0.7153
 2702SOL    MW410937   0.586   0.376   4.328 -0.2640 -0.1003 -0.2370
 2703SOL     OW10938   2.414   1.412   4.717  0.2453  0.0182  0.0009
 2703SOL    HW210939   2.330   1.425   4.762 -0.0975 -1.8778 -0.0423
 2703SOL    HW310940   2.434   1.498   4.680 -0.3147  1.1803  2.2888
 2703SOL    MW410941   2.405   1.426   4.718  0.1264 -0.0787  0.2971
 2704SOL     OW10942   2.853   4.548   4.174  0.4044  0.3722 -0.0204
 2704SOL    HW210943   2.793   4.577   4.243 -0.4535 -1.1263 -0.1077
 2704SOL    HW310944   2.824   4.460   4.153  1.7995  0.1371 -1.0401
 2704SOL    MW410945   2.841   4.540   4.181  0.4752  0.1435 -0.1664
 2705SOL     OW10946   0.338   2.027   4.397  0.3806  0.2537  0.6465
 2705SOL    HW210947   0.386   2.108   4.412 -1.1345  1.1885  0.5684
 2705SOL    HW310948   0.319   1.993   4.485 -0.5981  0.9723  0.7241
 2705SOL    MW410949   0.342   2.033   4.411  0.0515  0.4721  0.6466
 2706SOL     OW10950   0.285   0.729   4.482 -0.0051 -0.3361 -0.2971
 2706SOL    HW210951   0.297   0.698   4.393  0.7323 -0.9763  0.0216
 2706SOL    HW310952   0.286   0.649   4.535  3.6955  0.2968  0.7380
 2706SOL    MW410953   0.287   0.714   4.477  0.5804 -0.3371 -0.1187
 2707SOL     OW10954   0.921   0.550   4.672 -0.2304 -0.1521  0.2635
 2707SOL    HW210955   0.914   0.546   4.577  1.0625  1.5460  0.0975
 2707SOL    HW310956   0.881   0.468   4.702  0.5191 -1.2870 -1.7904
 2707SOL    MW410957   0.915   0.538   4.663  0.0391 -0.0778 -0.0296
 2708SOL     OW10958   0.235   1.757   4.298  0.1940  0.4462 -0.1219
 2708SOL    HW210959   0.289   1.832   4.322  0.9096  0.1020 -0.6209
 2708SOL    HW310960   0.193   1.730   4.379  0.9033  0.6189  0.3068
 2708SOL    MW410961   0.236   1.763   4.312  0.3820  0.4236 -0.1311
 2709SOL     OW10962   3.539   1.261   4.596  0.3486 -0.5199 -0.1374
 2709SOL    HW210963   3.601   1.188   4.608  1.2904  0.3099  0.1391
 2709SOL    HW310964   3.454   1.223   4.617  0.9802 -1.2121  1.3265
 2709SOL    MW410965   3.536   1.246   4.601  0.5560 -0.5019  0.0920
 2710SOL     OW10966   4.396   0.737   4.174  0.7303 -0.3103  0.0706
 2710SOL    HW210967   4.370   0.744   4.082  0.1223  1.1553  0.3362
 2710SOL    HW310968   4.361   0.653   4.203 -0.3433 -0.1113 -0.6320
 2710SOL    MW410969   4.388   0.727   4.166  0.5083 -0.0907  0.0129
 2711SOL     OW10970   3.046   4.125   4.499  0.2616 -0.1195 -0.2998
 2711SOL    HW210971   3.010   4.105   4.413 -0.6982 -0.0612  0.0799
 2711SOL    HW310972   3.044   4.041   4.545 -0.8066  0.1785  0.2248
 2711SOL    MW410973   3.041   4.111   4.494 -0.0057 -0.0725 -0.1802
 2712SOL     OW10974   4.124   0.952   4.557  0.5778 -0.4422  0.1472
 2712SOL    HW210975   4.186   0.913   4.619  0.0743 -0.5835  0.5632
 2712SOL    HW310976   4.141   0.907   4.474  1.9884  0.4885 -0.0918
 2712SOL    MW410977   4.134   0.941   4.554  0.6976 -0.3380  0.1707
 2713SOL     OW10978   0.674   4.624   3.899  0.5543 -0.4672  0.2512
 2713SOL    HW210979   0.583   4.651   3.888  0.4871 -0.0252  1.7341
 2713SOL    HW310980   0.679   4.539   3.855  0.0700  0.6716 -2.0248
 2713SOL    MW410981   0.663   4.616   3.892  0.4815 -0.2584  0.1464
 2714SOL     OW10982   0.154   4.532   4.106  0.3405  0.3274  0.0275
 2714SOL    HW210983   0.124   4.446   4.137 -1.2566  0.4542 -1.1559
 2714SOL    HW310984   0.097   4.595   4.151  0.6907  0.7119 -0.0676
 2714SOL    MW410985   0.143   4.529   4.116  0.1760  0.3948 -0.1411
 2715SOL     OW10986   0.080   0.502   4.844 -0.1208 -0.2540  0.2389
 2715SOL    HW210987   0.065   0.594   4.867  0.1854 -0.3316  0.7677
 2715SOL    HW310988   0.165   0.502   4.799 -0.6286 -0.1296 -0.7177
 2715SOL    MW410989   0.089   0.514   4.841 -0.1474 -0.2478  0.1822
 2716SOL     OW10990   3.763   0.224   4.589 -0.0189  0.2523 -0.3207
 2716SOL    HW210991   3.753   0.297   4.650  1.5282 -0.1105  0.3919
 2716SOL    HW310992   3.673   0.199   4.566 -0.6039  0.9881  1.0997
 2716SOL    MW410993   3.750   0.230   4.594  0.1082  0.3015 -0.0396
 2717SOL     OW10994   3.600   4.270   4.173  0.2545 -0.0553 -0.4727
 2717SOL    HW210995   3.511   4.298   4.195 -0.4144  1.1361 -4.3322
 2717SOL    HW310996   3.600   4.176   4.187 -1.4532  0.0201  0.1214
 2717SOL    MW410997   3.588   4.262   4.178 -0.0589  0.1121 -0.9036
 2718SOL     OW10998   2.119   0.030   4.218  0.3103 -0.2653 -0.3290
 2718SOL    HW210999   2.042  -0.011   4.178 -0.6340  2.6451 -1.6299
 2718SOL    HW311000   2.085   0.073   4.296  0.6770  0.7596 -0.7301
 2718SOL    MW411001   2.105   0.030   4.223  0.2341  0.2539 -0.5536
 2719SOL     OW11002   1.662   1.084   4.817  0.1723 -0.0134 -0.0923
 2719SOL    HW211003   1.674   0.990   4.825 -0.1233 -0.1515 -1.2010
 2719SOL    HW311004   1.737   1.122   4.863  0.8938 -0.7996 -0.6051
 2719SOL    MW411005   1.673   1.077   4.824  0.2286 -0.1353 -0.3061
 2720SOL     OW11006   0.324   3.415   4.341  0.1010  0.3165 -0.2967
 2720SOL    HW211007   0.379   3.402   4.264  0.8243 -0.4980  0.3514
 2720SOL    HW311008   0.266   3.488   4.317  0.2292 -0.0203 -1.6456
 2720SOL    MW411009   0.324   3.423   4.328  0.2133  0.1645 -0.3886
 2721SOL     OW11010   2.040   0.450   4.448 -0.8504  0.2825 -0.6941
 2721SOL    HW211011   1.951   0.480   4.464 -0.5372  0.2622  1.2099
 2721SOL    HW311012   2.046   0.441   4.353 -2.3158  2.0140 -0.9708
 2721SOL    MW411013   2.029   0.453   4.438 -1.0023  0.5083 -0.4797
 2722SOL     OW11014   2.084   3.789   4.551 -0.2300 -0.0346 -0.2774
 2722SOL    HW211015   2.089   3.779   4.456  1.7617  1.3591 -0.3574
 2722SOL    HW311016   2.029   3.866   4.564  0.0885  0.2054 -0.3386
 2722SOL    MW411017   2.077   3.798   4.541  0.0751  0.1807 -0.2961
 2723SOL     OW11018   3.013   1.148   4.128 -0.2661 -0.2640 -0.3199
 2723SOL    HW211019   3.094   1.111   4.161 -0.6938 -1.0295 -0.1208
 2723SOL    HW311020   3.010   1.236   4.164  1.3371  0.4114 -1.7557
 2723SOL    MW411021   3.023   1.155   4.137 -0.1113 -0.2760 -0.4835
 2724SOL     OW11022   3.438   2.647   4.285  0.4046  0.1272  0.3485
 2724SOL    HW211023   3.492   2.696   4.223  0.4132  0.8514  0.9198
 2724SOL    HW311024   3.459   2.684   4.371  1.1313 -1.5467  0.9201
 2724SOL    MW411025   3.448   2.658   4.288  0.5014  0.0021  0.4988
 2725SOL     OW11026   2.028   3.138   3.825  0.1366  0.3113 -0.4924
 2725SOL    HW211027   1.937   3.138   3.795  0.1439 -0.4931 -0.5386
 2725SOL    HW311028   2.061   3.051   3.802  0.9459  0.6265 -0.5563
 2725SOL    MW411029   2.021   3.126   3.818  0.2444  0.2470 -0.5069
 2726SOL     OW11030   3.367   3.817   4.662  0.2346 -0.2565  0.3170
 2726SOL    HW211031   3.366   3.824   4.758 -0.1803  0.2004  0.2832
 2726SOL    HW311032   3.275   3.825   4.637  0.4763  0.9531 -0.2164
 2726SOL    MW411033   3.354   3.819   4.672  0.2120 -0.0365  0.2427
 2727SOL     OW11034   0.076   1.919   4.743 -0.3776  0.0531  0.0182
 2727SOL    HW211035   0.168   1.896   4.730 -1.0580 -1.3858 -2.5341
 2727SOL    HW311036   0.046   1.857   4.810  0.1789 -0.3994 -0.1435
 2727SOL    MW411037   0.084   1.908   4.750 -0.3939 -0.1963 -0.3395
 2728SOL     OW11038   2.300   1.852   4.734 -0.1388 -0.0672 -0.4882
 2728SOL    HW211039   2.364   1.782   4.722  0.4503  0.2469  0.7768
 2728SOL    HW311040   2.228   1.809   4.781  0.0023  0.0555 -0.1604
 2728SOL    MW411041   2.299   1.837   4.739 -0.0422 -0.0097 -0.2780
 2729SOL     OW11042   4.261   0.145   4.673  0.2649  0.3095 -0.2986
 2729SOL    HW211043   4.301   0.231   4.660  0.2604  0.3631  0.0524
 2729SOL    HW311044   4.283   0.121   4.763 -0.3637  0.2768 -0.1471
 2729SOL    MW411045   4.269   0.153   4.683  0.1807  0.3123 -0.2322
 2730SOL     OW11046   2.950   1.647   4.145 -0.2862  0.3696  0.8453
 2730SOL    HW211047   2.870   1.655   4.197 -0.8148  0.4041  0.0390
 2730SOL    HW311048   2.919   1.630   4.056  0.6239 -0.4095  0.6740
 2730SOL    MW411049   2.936   1.646   4.140 -0.2358  0.2716  0.7162
 2731SOL     OW11050   2.346   1.864   4.238  0.0050  0.1063  0.0100
 2731SOL    HW211051   2.268   1.914   4.214  1.1437  2.0634  0.2595
 2731SOL    HW311052   2.380   1.907   4.316  0.0765 -2.1359  1.2584
 2731SOL    MW411053   2.341   1.876   4.245  0.1647  0.0687  0.2079
 2732SOL     OW11054   0.091   4.029   4.264 -0.2711 -0.2957 -0.1865
 2732SOL    HW211055   0.031   3.965   4.302 -1.5229  2.0095  1.8355
 2732SOL    HW311056   0.143   3.978   4.202 -1.7992 -3.0919  0.7148
 2732SOL    MW411057   0.090   4.014   4.261 -0.6379 -0.3610  0.1984
 2733SOL     OW11058   4.485   1.907   4.175 -0.7359 -0.5401  0.0836
 2733SOL    HW211059   4.556   1.871   4.229 -0.4576 -0.8711 -0.5001
 2733SOL    HW311060   4.422   1.835   4.167 -1.0512 -0.3037  0.4533
 2733SOL    MW411061   4.486   1.893   4.181 -0.7407 -0.5527  0.0563
 2734SOL     OW11062   1.173   4.521   4.337 -0.2062  0.1420  0.4010
 2734SOL    HW211063   1.263   4.523   4.305  0.6794  0.6183  2.8142
 2734SOL    HW311064   1.125   4.577   4.275  1.2494  0.3023 -0.6133
 2734SOL    MW411065   1.178   4.529   4.325  0.1028  0.2255  0.5851
 2735SOL     OW11066   2.783   3.627   4.808 -0.4765 -0.2616 -0.0406
 2735SOL    HW211067   2.706   3.570   4.809 -0.3927 -0.3792 -0.2186
 2735SOL    HW311068   2.750   3.711   4.776 -0.3549 -0.5764 -1.0276
 2735SOL    MW411069   2.768   3.630   4.804 -0.4494 -0.3188 -0.1945
 2736SOL     OW11070   3.266   1.011   4.196 -0.0716 -0.4520 -0.2505
 2736SOL    HW211071   3.354   1.046   4.184  0.3095 -1.2901  0.0444
 2736SOL    HW311072   3.266   0.975   4.285 -0.3087 -1.6013 -0.7066
 2736SOL    MW411073   3.278   1.011   4.206 -0.0527 -0.7141 -0.2718
 2737SOL     OW11074   2.834   0.777   4.183 -0.3329 -0.4032 -0.0143
 2737SOL    HW211075   2.808   0.864   4.212  3.3709  0.2961  1.4043
 2737SOL    HW311076   2.889   0.792   4.107  0.0849 -1.5246  0.0621
 2737SOL    MW411077   2.838   0.790   4.177  0.2110 -0.4589  0.1822
 2738SOL     OW11078   4.395   0.382   4.645  0.2268  0.4887 -0.2059
 2738SOL    HW211079   4.459   0.362   4.577 -0.3125 -0.5536 -0.4067
 2738SOL    HW311080   4.448   0.401   4.723  0.8285  1.2264 -0.7859
 2738SOL    MW411081   4.411   0.382   4.646  0.2351  0.4485 -0.3090
 2739SOL     OW11082   0.479   2.171   4.717 -0.7723 -0.2559  0.3172
 2739SOL    HW211083   0.447   2.261   4.704  0.4611  0.1045 -0.3345
 2739SOL    HW311084   0.554   2.164   4.657  0.5955 -0.9450  2.0563
 2739SOL    MW411085   0.485   2.182   4.707 -0.4291 -0.2992  0.4606
 2740SOL     OW11086   3.704   4.241   4.610  0.3725  0.1327  0.0611
 2740SOL    HW211087   3.626   4.196   4.575  0.7955 -0.5358 -0.0279
 2740SOL    HW311088   3.669   4.305   4.672 -0.2756  0.0937 -0.2624
 2740SOL    MW411089   3.689   4.243   4.614  0.3428  0.0396  0.0067
 2741SOL     OW11090   3.708   1.018   4.578  0.1616 -0.2772  0.1162
 2741SOL    HW211091   3.741   1.049   4.493 -0.2608  1.3826  0.5416
 2741SOL    HW311092   3.648   0.947   4.556  0.4185 -0.1769 -0.9507
 2741SOL    MW411093   3.705   1.013   4.564  0.1400 -0.0449  0.0310
 2742SOL     OW11094   3.022   2.757   4.620 -0.1624 -0.0299 -0.3595
 2742SOL    HW211095   3.100   2.713   4.654 -0.5004 -0.4599 -0.1431
 2742SOL    HW311096   2.959   2.687   4.605  0.3794  0.0004 -2.9999
 2742SOL    MW411097   3.024   2.742   4.623 -0.1357 -0.0827 -0.6795
 2743SOL     OW11098   2.682   2.702   4.121 -0.0175 -0.7774 -0.1180
 2743SOL    HW211099   2.740   2.657   4.182 -0.5805 -1.1274  0.1617
 2743SOL    HW311100   2.594   2.673   4.145 -0.5095  1.4792  0.9077
 2743SOL    MW411101   2.678   2.692   4.132 -0.1564 -0.5260  0.0539
 2744SOL     OW11102   3.672   1.518   4.574 -0.1154  0.2438 -0.3248
 2744SOL    HW211103   3.620   1.438   4.574 -1.6585  1.2141 -1.6469
 2744SOL    HW311104   3.763   1.487   4.579 -0.6738 -1.5976 -1.0227
 2744SOL    MW411105   3.677   1.503   4.575 -0.3929  0.1290 -0.5913
 2745SOL     OW11106   3.520   0.072   4.277 -0.0701  0.5626 -0.2683
 2745SOL    HW211107   3.525   0.068   4.372 -0.0938  1.6299 -0.2134
 2745SOL    HW311108   3.607   0.046   4.247  0.1380  0.8833  0.0626
 2745SOL    MW411109   3.532   0.068   4.285 -0.0455  0.7458 -0.2170
 2746SOL     OW11110   2.389   1.566   4.182  0.0617  0.0706  0.0648
 2746SOL    HW211111   2.312   1.518   4.215  0.0522  0.4249  0.5646
 2746SOL    HW311112   2.363   1.658   4.187 -0.5825  0.0610 -2.5809
 2746SOL    MW411113   2.375   1.571   4.187 -0.0241  0.1161 -0.2184
 2747SOL     OW11114   1.045   3.288   4.342 -0.3971  0.1488  0.3557
 2747SOL    HW211115   1.016   3.363   4.290 -1.4459 -1.4369 -1.3960
 2747SOL    HW311116   1.081   3.226   4.278 -0.1349 -1.1219  1.7001
 2747SOL    MW411117   1.046   3.290   4.327 -0.5008 -0.2279  0.3023
 2748SOL     OW11118   1.474   0.598   4.713 -0.1807  0.0888 -0.2132
 2748SOL    HW211119   1.538   0.532   4.686 -0.4013 -0.6011  0.9082
 2748SOL    HW311120   1.390   0.560   4.689 -0.3015 -0.0084  0.3492
 2748SOL    MW411121   1.471   0.584   4.706 -0.2258 -0.0150  0.0086
 2749SOL     OW11122   3.112   4.647   4.586 -0.2267 -0.0140  0.1247
 2749SOL    HW211123   3.118   4.740   4.607 -0.3305 -0.2214  1.0635
 2749SOL    HW311124   3.125   4.644   4.491  0.0587  0.9274  0.1256
 2749SOL    MW411125   3.114   4.659   4.576 -0.2029  0.0820  0.2484
 2750SOL     OW11126   4.362   3.942   4.552  0.0289 -0.1803 -0.3769
 2750SOL    HW211127   4.270   3.970   4.555 -0.1025 -0.6929  0.5997
 2750SOL    HW311128   4.411   4.022   4.572 -0.2750 -0.2349  0.6361
 2750SOL    MW411129   4.356   3.956   4.555 -0.0286 -0.2553 -0.1140
 2751SOL     OW11130   3.274   0.936   4.458  0.3925 -0.6531  0.1462
 2751SOL    HW211131   3.208   0.889   4.508 -1.9847  1.5232 -0.8196
 2751SOL    HW311132   3.289   1.016   4.508  1.6890 -0.7517 -0.0751
 2751SOL    MW411133   3.267   0.940   4.471  0.2499 -0.3790 -0.0105
 2752SOL     OW11134   1.323   1.134   3.808  0.1443  0.3168 -0.1966
 2752SOL    HW211135   1.398   1.181   3.773 -0.0314  0.8921  0.1873
 2752SOL    HW311136   1.352   1.102   3.893 -0.2436  1.0851  0.2329
 2752SOL    MW411137   1.337   1.136   3.815  0.0700  0.4941 -0.0894
 2753SOL     OW11138   0.962   1.952   3.802 -0.1993  0.3639  0.5486
 2753SOL    HW211139   1.040   1.956   3.747 -0.4709  1.5020  0.2348
 2753SOL    HW311140   0.934   1.861   3.796 -0.4609  0.5536 -1.5584
 2753SOL    MW411141   0.968   1.941   3.794 -0.2697  0.5391  0.2289
 2754SOL     OW11142   3.686   1.996   4.521  0.0620  0.1045 -0.0302
 2754SOL    HW211143   3.709   2.002   4.429  1.0324 -1.6638  0.0745
 2754SOL    HW311144   3.671   2.087   4.548 -2.6113  0.4524 -2.5012
 2754SOL    MW411145   3.687   2.009   4.512 -0.1624 -0.0830 -0.3428
 2755SOL     OW11146   1.348   3.354   4.172 -0.4549 -0.7413 -0.0490
 2755SOL    HW211147   1.364   3.402   4.091 -1.7534  0.8954  0.6356
 2755SOL    HW311148   1.275   3.296   4.152  0.1046 -1.3212 -0.4283
 2755SOL    MW411149   1.340   3.353   4.159 -0.5524 -0.6018 -0.0086
 2756SOL     OW11150   0.336   3.044   4.146  0.2163  0.4160 -0.0186
 2756SOL    HW211151   0.421   3.072   4.178 -0.5183  2.6423  0.0571
 2756SOL    HW311152   0.275   3.112   4.175 -1.3516 -0.3629 -1.3748
 2756SOL    MW411153   0.339   3.056   4.154 -0.0875  0.6070 -0.1879
 2757SOL     OW11154   4.218   2.878   4.315 -0.5396  0.1985 -0.3093
 2757SOL    HW211155   4.209   2.868   4.410 -1.4315 -0.1678 -0.4227
 2757SOL    HW311156   4.139   2.836   4.280 -0.2291  0.3688 -1.2077
 2757SOL    MW411157   4.206   2.871   4.323 -0.6161  0.1726 -0.4430
 2758SOL     OW11158   1.661   0.184   4.276  0.7272  0.1814  0.0611
 2758SOL    HW211159   1.737   0.227   4.240  0.3568 -0.2404 -1.2439
 2758SOL    HW311160   1.687   0.159   4.365  2.8497 -1.8155 -1.0614
 2758SOL    MW411161   1.674   0.186   4.283  0.9583 -0.1377 -0.2589
 2759SOL     OW11162   1.759   4.560   4.557  0.2512  0.1269 -0.1726
 2759SOL    HW211163   1.834   4.501   4.555 -1.0973 -1.7735  2.1369
 2759SOL    HW311164   1.683   4.501   4.554 -1.1358  1.9228 -0.9414
 2759SOL    MW411165   1.759   4.544   4.557 -0.1098  0.1135  0.0310
 2760SOL     OW11166   4.272   3.362   4.258  0.0417  0.6033 -0.1116
 2760SOL    HW211167   4.231   3.366   4.345 -0.8218  0.2916 -0.5069
 2760SOL    HW311168   4.253   3.274   4.226  0.8245  0.5359 -0.3975
 2760SOL    MW411169   4.264   3.351   4.265  0.0305  0.5531 -0.2012
 2761SOL     OW11170   3.489   0.522   4.580  0.3099 -0.0492  0.0899
 2761SOL    HW211171   3.565   0.490   4.628 -0.0869 -1.3888 -0.1669
 2761SOL    HW311172   3.438   0.444   4.560  0.5468  0.4387 -2.6648
 2761SOL    MW411173   3.492   0.508   4.584  0.2890 -0.1615 -0.3076
 2762SOL     OW11174   1.090   1.070   4.433 -0.0731 -0.0490  0.3861
 2762SOL    HW211175   1.050   0.998   4.384 -1.0891  0.0434  1.0774
 2762SOL    HW311176   1.086   1.042   4.524  3.9378 -1.2817  0.2827
 2762SOL    MW411177   1.084   1.056   4.438  0.3221 -0.1994  0.4640
 2763SOL     OW11178   3.632   0.451   4.162 -0.4304 -0.0667  0.4395
 2763SOL    HW211179   3.700   0.426   4.225  0.8195  0.2248 -0.7758
 2763SOL    HW311180   3.614   0.543   4.182  0.1319  0.0922  0.2126
 2763SOL    MW411181   3.639   0.460   4.173 -0.1912 -0.0073  0.2499
 2764SOL     OW11182   1.028   1.340   4.421  0.0398 -0.1346 -0.1149
 2764SOL    HW211183   1.062   1.385   4.343  2.0397 -0.1902  0.7027
 2764SOL    HW311184   1.050   1.248   4.407  0.4056 -0.1413  0.5371
 2764SOL    MW411185   1.035   1.334   4.409  0.3519 -0.1427  0.0787
 2765SOL     OW11186   3.950   4.294   4.502  0.6924  0.3457  0.1649
 2765SOL    HW211187   3.881   4.277   4.567  0.7312 -1.1204 -0.1511
 2765SOL    HW311188   3.903   4.318   4.423  0.6233  1.4759  0.5414
 2765SOL    MW411189   3.935   4.295   4.500  0.6883  0.3014  0.1726
 2766SOL     OW11190   1.006   0.306   4.176 -0.1500  0.2102 -0.7260
 2766SOL    HW211191   1.028   0.214   4.187 -0.8284  0.0787 -0.4626
 2766SOL    HW311192   1.089   0.348   4.151  0.1534 -0.4671 -0.8529
 2766SOL    MW411193   1.020   0.300   4.174 -0.1994  0.1035 -0.7076
 2767SOL     OW11194   2.649   0.582   4.257 -0.0925  0.0118  0.2442
 2767SOL    HW211195   2.711   0.648   4.228  0.1007 -0.0047  0.6212
 2767SOL    HW311196   2.671   0.504   4.205 -0.6008  0.3640 -0.5140
 2767SOL    MW411197   2.660   0.580   4.246 -0.1340  0.0561  0.1945
 2768SOL     OW11198   1.790   0.580   4.427  0.1237 -0.3006  0.3394
 2768SOL    HW211199   1.767   0.599   4.336  1.1054  0.0640  0.1618
 2768SOL    HW311200   1.708   0.552   4.467 -0.4919  0.3498 -0.4458
 2768SOL    MW411201   1.776   0.579   4.421  0.1720 -0.1667  0.2122
 2769SOL     OW11202   3.931   1.929   4.616 -0.5481 -0.3213 -0.3577
 2769SOL    HW211203   3.939   1.912   4.710 -0.3949 -0.4390 -0.3902
 2769SOL    HW311204   3.838   1.947   4.602 -0.3989  0.7281 -0.0137
 2769SOL    MW411205   3.920   1.929   4.626 -0.5083 -0.1985 -0.3161
 2770SOL     OW11206   4.073   3.968   4.229  0.1151  0.0600  0.2415
 2770SOL    HW211207   3.978   3.955   4.225 -0.0207  0.9716  0.3698
 2770SOL    HW311208   4.091   3.984   4.321  0.5791 -1.3781  0.4173
 2770SOL    MW411209   4.063   3.968   4.241  0.1583 -0.0095  0.2813
 2771SOL     OW11210   1.513   1.256   4.649  0.1998  0.0663  0.2975
 2771SOL    HW211211   1.570   1.211   4.710  0.8631  2.2287  1.3065
 2771SOL    HW311212   1.554   1.341   4.636 -1.0868  0.4405 -1.4781
 2771SOL    MW411213   1.526   1.261   4.655  0.1175  0.4010  0.1960
 2772SOL     OW11214   3.932   1.301   4.334  0.5118 -0.1492  0.4777
 2772SOL    HW211215   3.931   1.381   4.281  0.9112 -1.4463 -1.5887
 2772SOL    HW311216   4.008   1.252   4.301 -0.9915 -2.3460  0.1673
 2772SOL    MW411217   3.942   1.305   4.322  0.3660 -0.6101  0.1640
 2773SOL     OW11218   0.848   0.489   4.375 -0.5582  0.5715 -0.4327
 2773SOL    HW211219   0.904   0.432   4.322 -0.2464  0.4239  0.0493
 2773SOL    HW311220   0.846   0.572   4.327 -1.1241  0.1157 -1.2084
 2773SOL    MW411221   0.855   0.493   4.362 -0.5916  0.4919 -0.4711
 2774SOL     OW11222   0.589   1.760   4.653  0.2799  0.3587 -0.7102
 2774SOL    HW211223   0.622   1.809   4.577  1.9328 -1.6008 -1.2814
 2774SOL    HW311224   0.576   1.671   4.620  1.6880 -0.6869  1.4886
 2774SOL    MW411225   0.592   1.755   4.638  0.6837 -0.0379 -0.4954
 2775SOL     OW11226   1.570   1.262   3.744  0.0112 -0.1760  0.3413
 2775SOL    HW211227   1.647   1.232   3.792  0.5176  1.3380  0.4732
 2775SOL    HW311228   1.559   1.353   3.770 -0.6746  0.1848 -1.1676
 2775SOL    MW411229   1.579   1.270   3.754 -0.0125  0.0713  0.1597
 2776SOL     OW11230   1.548   4.617   3.862 -0.1866 -0.0828  0.1796
 2776SOL    HW211231   1.547   4.524   3.840  0.7637  0.2071 -1.1656
 2776SOL    HW311232   1.583   4.620   3.951 -0.7190 -1.0422  0.4294
 2776SOL    MW411233   1.553   4.605   3.871 -0.1314 -0.1712  0.0353
 2777SOL     OW11234   1.092   1.289   3.757  0.4683  0.6300  0.0359
 2777SOL    HW211235   1.174   1.248   3.784  0.5436  1.3279  0.9073
 2777SOL    HW311236   1.086   1.368   3.811 -0.6479  0.7218 -0.2085
 2777SOL    MW411237   1.102   1.294   3.768  0.3309  0.7342  0.1185
 2778SOL     OW11238   0.119   1.283   4.641  0.2538  0.2794  0.1772
 2778SOL    HW211239   0.182   1.353   4.660 -0.8826  1.0136  1.4201
 2778SOL    HW311240   0.034   1.327   4.645 -0.4882 -1.1955  1.0777
 2778SOL    MW411241   0.116   1.298   4.644  0.0060  0.1817  0.4601
 2779SOL     OW11242   0.583   1.520   4.504 -0.4862  0.4754 -0.0866
 2779SOL    HW211243   0.640   1.443   4.497 -0.1143  0.7786 -0.3774
 2779SOL    HW311244   0.499   1.484   4.532  0.0556  0.1097  1.1104
 2779SOL    MW411245   0.579   1.505   4.507 -0.3657  0.4672  0.0329
 2780SOL     OW11246   4.154   3.364   4.510  0.5668 -0.2242  0.2440
 2780SOL    HW211247   4.062   3.339   4.508  0.6805 -0.6594 -2.6355
 2780SOL    HW311248   4.196   3.299   4.566 -0.7657 -0.4413  1.0019
 2780SOL    MW411249   4.147   3.352   4.517  0.4053 -0.3104 -0.0362
 2781SOL     OW11250   1.154   3.136   4.135 -0.1248 -0.3051  0.2883
 2781SOL    HW211251   1.128   3.128   4.043  1.4963  0.2375 -0.2356
 2781SOL    HW311252   1.205   3.056   4.152 -1.1580 -0.8254  0.9770
 2781SOL    MW411253   1.157   3.124   4.125 -0.0472 -0.3021  0.3104
 2782SOL     OW11254   3.897   0.842   4.645 -0.2823 -0.1864  0.4578
 2782SOL    HW211255   3.978   0.885   4.618 -0.2824  0.6431  1.7665
 2782SOL    HW311256   3.828   0.904   4.621 -0.4977 -0.6516 -0.1458
 2782SOL    MW411257   3.899   0.856   4.638 -0.3107 -0.1383  0.5507
 2783SOL     OW11258   0.129   3.237   4.217 -0.2060 -0.3653  0.2402
 2783SOL    HW211259   0.100   3.293   4.144 -1.5677  0.0874  1.1049
 2783SOL    HW311260   0.169   3.298   4.279  1.4409 -0.8236 -0.3616
 2783SOL    MW411261   0.131   3.252   4.215 -0.1684 -0.3662  0.2756
 2784SOL     OW11262   3.984   2.213   4.534 -0.3536 -0.7167  0.2678
 2784SOL    HW211263   4.048   2.205   4.463  1.3997 -0.4211  1.7770
 2784SOL    HW311264   3.972   2.124   4.566 -1.7270 -0.9580 -0.8736
 2784SOL    MW411265   3.991   2.200   4.528 -0.3035 -0.7095  0.3171
 2785SOL     OW11266   3.165   4.171   4.093  0.0586  0.2743 -0.4188
 2785SOL    HW211267   3.153   4.199   4.002 -0.1699 -0.9596 -0.7669
 2785SOL    HW311268   3.229   4.234   4.129  0.6039  0.4039 -1.5907
 2785SOL    MW411269   3.172   4.183   4.086  0.1001  0.1287 -0.6199
 2786SOL     OW11270   0.322   1.545   4.134 -0.3971  0.1074  0.0331
 2786SOL    HW211271   0.416   1.546   4.153 -0.6779 -1.1749  1.5222
 2786SOL    HW311272   0.287   1.619   4.183 -0.1032  0.9654 -1.0098
 2786SOL    MW411273   0.330   1.555   4.143 -0.3954  0.0515  0.0916
 2787SOL     OW11274   4.331   4.394   4.521  0.2384  0.2657  0.0768
 2787SOL    HW211275   4.374   4.478   4.504 -1.2327  0.8877 -0.6706
 2787SOL    HW311276   4.256   4.416   4.576  1.2351 -0.8977  1.9575
 2787SOL    MW411277   4.327   4.408   4.526  0.1755  0.1945  0.2265
 2788SOL     OW11278   3.585   2.490   4.795  0.0268 -0.5809 -0.3926
 2788SOL    HW211279   3.553   2.456   4.879 -2.1141 -0.2982 -1.0492
 2788SOL    HW311280   3.597   2.412   4.741  1.1077 -0.7405  0.0760
 2788SOL    MW411281   3.582   2.475   4.799 -0.1130 -0.5646 -0.4172
 2789SOL     OW11282   2.322   2.107   4.799  0.0130 -0.0821  0.2006
 2789SOL    HW211283   2.232   2.114   4.831  0.0513 -0.1752  0.3284
 2789SOL    HW311284   2.337   2.013   4.790  0.5905 -0.1256  1.5610
 2789SOL    MW411285   2.312   2.095   4.802  0.0939 -0.1004  0.3977
 2790SOL     OW11286   0.201   4.612   4.489 -0.2332 -0.1241 -0.0273
 2790SOL    HW211287   0.228   4.523   4.466 -0.1201  0.1000 -0.7609
 2790SOL    HW311288   0.283   4.660   4.498 -0.3362  0.3166 -1.2938
 2790SOL    MW411289   0.216   4.607   4.487 -0.2319 -0.0367 -0.2913
 2791SOL     OW11290   3.506   0.119   4.569 -0.1131 -0.1724  0.6708
 2791SOL    HW211291   3.460   0.041   4.601 -0.9215 -0.0699 -0.2118
 2791SOL    HW311292   3.436   0.182   4.551  0.3844  0.0356 -0.5569
 2791SOL    MW411293   3.491   0.117   4.571 -0.1540 -0.1314  0.3924
 2792SOL     OW11294   3.558   4.003   4.247  0.0147 -0.5008 -0.0531
 2792SOL    HW211295   3.478   3.971   4.204  0.4037 -0.2166 -1.0016
 2792SOL    HW311296   3.627   3.946   4.213  0.0832 -1.3852  1.5205
 2792SOL    MW411297   3.556   3.991   4.237  0.0753 -0.5798  0.0291
 2793SOL     OW11298   1.664   0.802   4.812 -0.0426  0.3938  0.7120
 2793SOL    HW211299   1.723   0.807   4.737  0.9381 -0.4754  1.3999
 2793SOL    HW311300   1.595   0.742   4.785 -0.4541  1.1692  0.0123
 2793SOL    MW411301   1.663   0.795   4.799  0.0324  0.3814  0.7105
 2794SOL     OW11302   4.302   0.508   4.307 -0.0941  0.1582 -0.0601
 2794SOL    HW211303   4.254   0.532   4.386  0.0665  2.2813 -0.5713
 2794SOL    HW311304   4.236   0.464   4.252 -0.3874 -0.6623  0.9479
 2794SOL    MW411305   4.287   0.506   4.310 -0.1116  0.3301  0.0052
 2795SOL     OW11306   1.041   3.351   4.633 -0.4349 -0.1731  0.0515
 2795SOL    HW211307   1.052   3.272   4.686  1.0529  1.2649  1.9538
 2795SOL    HW311308   1.056   3.322   4.543  0.7991 -1.9255  0.7998
 2795SOL    MW411309   1.044   3.337   4.628 -0.0758 -0.2143  0.4015
 2796SOL     OW11310   2.021   0.174   4.465 -0.2137  0.4856 -0.0920
 2796SOL    HW211311   2.021   0.269   4.454 -0.7560  0.3678 -1.2359
 2796SOL    HW311312   2.100   0.156   4.516  0.6444  1.4314 -1.0579
 2796SOL    MW411313   2.032   0.184   4.470 -0.1721  0.5948 -0.3710
 2797SOL     OW11314   1.132   4.143   4.547 -0.2682  0.1493  0.2759
 2797SOL    HW211315   1.134   4.178   4.458  0.4341 -0.1558  0.1657
 2797SOL    HW311316   1.211   4.089   4.553 -0.9350 -0.7936  0.6969
 2797SOL    MW411317   1.143   4.140   4.536 -0.2635 -0.0157  0.3166
 2798SOL     OW11318   2.693   1.940   3.857  0.2766  0.5926  0.0464
 2798SOL    HW211319   2.619   1.974   3.806 -0.6916 -0.4478  0.7278
 2798SOL    HW311320   2.665   1.950   3.949  1.3556  1.0164  0.3369
 2798SOL    MW411321   2.679   1.946   3.863  0.2913  0.5114  0.1748
 2799SOL     OW11322   3.878   1.532   3.898  0.2738 -0.0733 -0.0671
 2799SOL    HW211323   3.795   1.560   3.860  0.0701 -0.6747 -0.0774
 2799SOL    HW311324   3.944   1.586   3.855 -0.2158  1.2029  0.7656
 2799SOL    MW411325   3.876   1.542   3.887  0.1824  0.0156  0.0415
 2800SOL     OW11326   1.596   0.395   4.550  0.6124  0.1833 -0.0190
 2800SOL    HW211327   1.653   0.318   4.559 -0.3074 -0.4282  0.6468
 2800SOL    HW311328   1.530   0.368   4.485 -0.1938  0.1078  0.8195
 2800SOL    MW411329   1.595   0.381   4.543  0.3846  0.0927  0.1793
 2801SOL     OW11330   3.333   2.002   4.684 -0.1582  1.0747  0.4373
 2801SOL    HW211331   3.316   2.005   4.590 -1.6539 -0.3537  0.6336
 2801SOL    HW311332   3.387   1.923   4.695 -1.0835  0.4946  0.9127
 2801SOL    MW411333   3.338   1.992   4.673 -0.4778  0.8094  0.5260
 2802SOL     OW11334   0.917   0.164   4.503  0.4087  0.1702  0.2861
 2802SOL    HW211335   0.993   0.217   4.477 -0.1898  1.4959  1.1836
 2802SOL    HW311336   0.949   0.074   4.503  1.3150  0.4549 -1.7841
 2802SOL    MW411337   0.931   0.159   4.500  0.4493  0.3826  0.1316
 2803SOL     OW11338   1.568   1.527   3.808 -0.1815 -0.1568  0.0323
 2803SOL    HW211339   1.563   1.495   3.898  1.1469  1.7358  0.8071
 2803SOL    HW311340   1.491   1.583   3.798 -0.7226 -0.9393 -0.2638
 2803SOL    MW411341   1.557   1.530   3.819 -0.0777 -0.0104  0.0954
 2804SOL     OW11342   2.787   2.344   4.182 -0.0780 -0.1956  1.0638
 2804SOL    HW211343   2.700   2.373   4.208 -0.0306  1.0712 -0.1182
 2804SOL    HW311344   2.788   2.250   4.203 -1.8048 -0.2758  0.8798
 2804SOL    MW411345   2.776   2.335   4.188 -0.2995 -0.0393  0.8831
 2805SOL     OW11346   3.271   3.195   4.674 -0.2657  0.2792 -0.4092
 2805SOL    HW211347   3.246   3.138   4.746  0.3986  1.2758  0.6184
 2805SOL    HW311348   3.211   3.172   4.603 -2.4994  0.9170  1.2289
 2805SOL    MW411349   3.260   3.185   4.674 -0.4730  0.4950 -0.0577
 2806SOL     OW11350   1.578   2.334   4.837 -0.2450 -0.0137  0.3333
 2806SOL    HW211351   1.616   2.324   4.750  1.5368  0.3103  1.0565
 2806SOL    HW311352   1.491   2.297   4.829  0.3449 -1.1045 -1.2796
 2806SOL    MW411353   1.572   2.328   4.825  0.0679 -0.1152  0.2151
 2807SOL     OW11354   0.160   0.266   4.147 -0.1019 -0.0793 -0.1225
 2807SOL    HW211355   0.121   0.292   4.064  0.3226  1.7978  0.2516
 2807SOL    HW311356   0.245   0.310   4.149 -0.4230  0.5244  1.6301
 2807SOL    MW411357   0.166   0.275   4.137 -0.0882  0.2480  0.1583
 2808SOL     OW11358   1.971   4.390   4.520  0.5638  0.1955 -0.2420
 2808SOL    HW211359   1.971   4.336   4.599 -1.9354  1.1359  0.4366
 2808SOL    HW311360   2.031   4.462   4.541 -0.9635  1.0717  1.2830
 2808SOL    MW411361   1.979   4.393   4.533  0.0325  0.4349  0.0486
 2809SOL     OW11362   4.313   3.159   4.614 -0.5253  0.0059  0.0559
 2809SOL    HW211363   4.267   3.083   4.649 -0.5663  0.1730  0.3703
 2809SOL    HW311364   4.334   3.136   4.524 -1.8588  0.2088 -0.3107
 2809SOL    MW411365   4.310   3.146   4.607 -0.7062  0.0548  0.0496
 2810SOL     OW11366   3.080   3.852   4.607 -0.3392 -0.3110  0.2532
 2810SOL    HW211367   3.046   3.827   4.692 -0.6693 -0.0227  0.2052
 2810SOL    HW311368   3.048   3.784   4.547 -0.4826 -0.2689  0.2816
 2810SOL    MW411369   3.071   3.839   4.610 -0.4015 -0.2673  0.2503
 2811SOL     OW11370   3.721   3.568   4.510 -0.3436  0.6967 -0.0125
 2811SOL    HW211371   3.766   3.601   4.588 -0.6357  2.4988 -0.5990
 2811SOL    HW311372   3.774   3.599   4.437  0.3060 -1.5497 -0.5473
 2811SOL    MW411373   3.734   3.576   4.511 -0.2964  0.6382 -0.1597
 2812SOL     OW11374   3.274   1.190   4.570  0.1445  0.1046  0.2992
 2812SOL    HW211375   3.186   1.162   4.594  0.1679  0.0414  0.3114
 2812SOL    HW311376   3.261   1.272   4.522  0.0083 -0.3779 -0.5083
 2812SOL    MW411377   3.261   1.197   4.567  0.1297  0.0325  0.1950
 2813SOL     OW11378   2.936   0.508   4.630  0.2662  0.5074 -0.3932
 2813SOL    HW211379   2.885   0.540   4.554  0.6158  0.9468 -0.4464
 2813SOL    HW311380   2.870   0.492   4.697  0.1287  1.9646 -0.1543
 2813SOL    MW411381   2.920   0.510   4.629  0.2940  0.7576 -0.3691
 2814SOL     OW11382   0.765   0.309   4.711  0.2280  0.3400 -0.6987
 2814SOL    HW211383   0.803   0.258   4.639 -0.7191 -0.9068 -0.3456
 2814SOL    HW311384   0.769   0.250   4.786 -0.7963  0.8249 -0.2511
 2814SOL    MW411385   0.770   0.294   4.711 -0.0321  0.2395 -0.5932
 2815SOL     OW11386   3.760   4.654   4.182 -0.5278 -0.3169 -0.3487
 2815SOL    HW211387   3.782   4.563   4.202  0.5686 -0.3125 -1.4850
 2815SOL    HW311388   3.780   4.664   4.089  0.2485  1.3341 -0.0148
 2815SOL    MW411389   3.766   4.643   4.173 -0.2806 -0.0987 -0.4544
 2816SOL     OW11390   0.632   3.110   4.620 -0.0564  0.4210 -0.2998
 2816SOL    HW211391   0.554   3.157   4.589 -0.1505  1.0887  0.9145
 2816SOL    HW311392   0.695   3.179   4.642  0.7254 -0.1048 -0.8755
 2816SOL    MW411393   0.630   3.125   4.619  0.0343  0.4399 -0.2160
 2817SOL     OW11394   3.089   3.020   4.527  0.2806 -0.4427  0.0011
 2817SOL    HW211395   3.013   3.075   4.545  0.6539  0.2209 -0.4547
 2817SOL    HW311396   3.068   2.936   4.567 -0.3807 -0.0322  0.5120
 2817SOL    MW411397   3.076   3.016   4.535  0.2427 -0.3009  0.0086
 2818SOL     OW11398   2.950   3.033   3.853  0.4390  0.0804  0.2453
 2818SOL    HW211399   3.019   3.090   3.820  0.1617  0.3738  0.1740
 2818SOL    HW311400   2.869   3.077   3.829  0.2086 -0.7013 -0.4715
 2818SOL    MW411401   2.949   3.046   3.845  0.3722  0.0160  0.1411
 2819SOL     OW11402   1.860   4.166   4.092  0.4773 -0.2961  0.0481
 2819SOL    HW211403   1.928   4.219   4.134  1.4734 -0.6468 -1.0938
 2819SOL    HW311404   1.897   4.078   4.086  0.2936 -0.2945 -1.3973
 2819SOL    MW411405   1.874   4.161   4.097  0.5846 -0.3424 -0.2928
 2820SOL     OW11406   4.207   2.311   4.703 -0.3859  0.3046  0.3239
 2820SOL    HW211407   4.184   2.404   4.705 -0.4317  0.3049 -0.2681
 2820SOL    HW311408   4.150   2.273   4.636  0.1364 -0.0152  0.0631
 2820SOL    MW411409   4.196   2.318   4.695 -0.3228  0.2625  0.2112
 2821SOL     OW11410   0.806   0.762   4.277 -0.2147 -0.0224 -0.0730
 2821SOL    HW211411   0.735   0.772   4.214 -0.8477  0.4957  0.7160
 2821SOL    HW311412   0.781   0.819   4.350  0.7938 -0.1770  0.3946
 2821SOL    MW411413   0.793   0.771   4.278 -0.1652  0.0256  0.0925
 2822SOL     OW11414   1.325   0.095   4.681 -0.2245 -0.0739  0.1251
 2822SOL    HW211415   1.317  -0.000   4.673 -2.1307  0.0614  0.3379
 2822SOL    HW311416   1.376   0.108   4.762  1.6950 -0.9387 -0.9194
 2822SOL    MW411417   1.331   0.084   4.691 -0.2228 -0.1702  0.0148
 2823SOL     OW11418   0.343   1.933   4.664  0.0176 -0.4164 -0.4877
 2823SOL    HW211419   0.390   2.014   4.683 -1.2767  0.2488 -0.1075
 2823SOL    HW311420   0.408   1.864   4.678  0.4815  0.3864  1.4330
 2823SOL    MW411421   0.358   1.935   4.668 -0.0920 -0.2226 -0.1841
 2824SOL     OW11422   4.442   1.722   4.911  0.1891  0.2563  0.5539
 2824SOL    HW211423   4.378   1.679   4.855 -0.2164  1.1619  0.3077
 2824SOL    HW311424   4.389   1.771   4.974  0.6288  1.5482 -0.0625
 2824SOL    MW411425   4.427   1.723   4.912  0.1931  0.5462  0.4401
 2825SOL     OW11426   0.712   2.666   4.514  0.0546 -0.0993  0.2527
 2825SOL    HW211427   0.694   2.738   4.453  0.2460 -0.1263  0.1621
 2825SOL    HW311428   0.652   2.680   4.587 -1.2203 -0.9092 -0.6290
 2825SOL    MW411429   0.702   2.677   4.516 -0.0883 -0.2096  0.1245
 2826SOL     OW11430   1.885   2.753   3.805  0.2792  0.2841 -0.4716
 2826SOL    HW211431   1.898   2.724   3.896 -0.8132  0.1643 -0.3373
 2826SOL    HW311432   1.968   2.792   3.780  0.4658  0.6912  0.7314
 2826SOL    MW411433   1.897   2.754   3.814  0.1597  0.3221 -0.2949
 2827SOL     OW11434   0.474   1.072   4.127 -0.2589  0.0482 -0.6293
 2827SOL    HW211435   0.405   1.081   4.193 -0.2199 -0.0429 -0.5752
 2827SOL    HW311436   0.541   1.135   4.153 -0.0404 -0.3071 -0.3224
 2827SOL    MW411437   0.474   1.081   4.139 -0.2250 -0.0106 -0.5817
 2828SOL     OW11438   1.225   0.810   4.162 -0.3455 -0.1017 -0.0697
 2828SOL    HW211439   1.223   0.809   4.257  1.5915 -0.7963 -0.0074
 2828SOL    HW311440   1.266   0.894   4.140 -1.1564  0.2335 -0.2982
 2828SOL    MW411441   1.230   0.821   4.171 -0.1968 -0.1491 -0.0916
 2829SOL     OW11442   2.578   1.963   4.109 -0.3564 -0.2650 -0.2813
 2829SOL    HW211443   2.537   2.047   4.086 -1.5410  0.1827  3.1270
 2829SOL    HW311444   2.505   1.908   4.138  0.6308 -1.9209 -0.8552
 2829SOL    MW411445   2.563   1.967   4.110 -0.3824 -0.4243  0.0925
 2830SOL     OW11446   0.374   3.209   4.517  0.3587  0.0943 -0.4727
 2830SOL    HW211447   0.290   3.202   4.562  0.5620  2.7435  0.4098
 2830SOL    HW311448   0.368   3.290   4.466  2.3066  0.2542 -0.5016
 2830SOL    MW411449   0.362   3.219   4.516  0.6425  0.4649 -0.3605
 2831SOL     OW11450   0.420   3.907   4.515  0.2669  0.2144  0.3284
 2831SOL    HW211451   0.412   3.822   4.559 -0.3252 -1.2240 -2.4003
 2831SOL    HW311452   0.347   3.959   4.549 -0.0660 -0.7898  1.1732
 2831SOL    MW411453   0.409   3.902   4.525  0.1449 -0.1080  0.0801
 2832SOL     OW11454   2.785   1.028   4.265  0.1705  0.0735 -0.3976
 2832SOL    HW211455   2.861   1.068   4.224 -0.4105  0.6116 -0.9680
 2832SOL    HW311456   2.710   1.075   4.228 -0.4434 -0.4987  0.0955
 2832SOL    MW411457   2.785   1.040   4.255  0.0129  0.0690 -0.4077
 2833SOL     OW11458   0.011   2.709   3.903 -0.2267 -0.2265 -0.1314
 2833SOL    HW211459   0.030   2.657   3.981 -0.0308  0.0253 -0.0132
 2833SOL    HW311460   0.096   2.744   3.876 -0.0537 -1.4736 -1.2800
 2833SOL    MW411461   0.024   2.706   3.910 -0.1780 -0.3576 -0.2673
 2834SOL     OW11462   3.803   3.894   4.165 -0.1168  0.0617 -0.0599
 2834SOL    HW211463   3.816   3.882   4.071 -0.6131  1.4268 -0.3050
 2834SOL    HW311464   3.823   3.808   4.203 -0.0907 -0.5434 -1.4262
 2834SOL    MW411465   3.807   3.881   4.158 -0.1788  0.1619 -0.2728
 2835SOL     OW11466   2.586   4.133   4.755  0.1959 -0.1326  0.1293
 2835SOL    HW211467   2.668   4.166   4.717 -0.6892  1.0648 -0.7823
 2835SOL    HW311468   2.557   4.202   4.814  0.5561 -1.1612  1.5418
 2835SOL    MW411469   2.593   4.146   4.758  0.1266 -0.1101  0.1950
 2836SOL     OW11470   0.698   3.609   4.553 -0.3968  0.4388  0.2306
 2836SOL    HW211471   0.712   3.602   4.458 -1.4923 -0.3780  0.1158
 2836SOL    HW311472   0.766   3.669   4.583  1.2983 -0.9623 -0.7465
 2836SOL    MW411473   0.709   3.616   4.544 -0.3176  0.1459  0.0868
 2837SOL     OW11474   3.337   0.316   4.487 -0.1847 -0.0954 -0.3800
 2837SOL    HW211475   3.362   0.334   4.396  0.1874  1.4937  0.0196
 2837SOL    HW311476   3.241   0.311   4.485 -0.3033  1.7956 -0.5692
 2837SOL    MW411477   3.327   0.318   4.475 -0.1512  0.3638 -0.3524
 2838SOL     OW11478   0.485   2.700   3.867  0.2937 -0.0207 -0.0742
 2838SOL    HW211479   0.401   2.736   3.837 -0.7597 -2.0663  0.3162
 2838SOL    HW311480   0.482   2.709   3.963  0.6667  0.1618 -0.0764
 2838SOL    MW411481   0.473   2.706   3.876  0.2039 -0.2666 -0.0229
 2839SOL     OW11482   1.667   1.416   4.886 -0.2821 -0.0652  0.9917
 2839SOL    HW211483   1.710   1.490   4.844 -0.9000  0.2034  0.8306
 2839SOL    HW311484   1.584   1.451   4.920  0.4008 -0.1758  2.8317
 2839SOL    MW411485   1.661   1.430   4.885 -0.2736 -0.0443  1.2136
 2840SOL     OW11486   0.029   1.925   3.905 -0.2258  0.5269 -0.7255
 2840SOL    HW211487   0.025   1.912   3.999  0.2402  2.6390 -0.4002
 2840SOL    HW311488   0.027   1.836   3.869 -1.6820 -0.2678  1.1942
 2840SOL    MW411489   0.028   1.911   3.912 -0.3564  0.7007 -0.4296
 2841SOL     OW11490   1.305   4.490   4.615 -0.2382  0.1155  0.5556
 2841SOL    HW211491   1.239   4.450   4.672 -0.7285 -0.1010 -0.1611
 2841SOL    HW311492   1.263   4.495   4.529  0.4975  0.4409  0.2105
 2841SOL    MW411493   1.290   4.485   4.611 -0.2058  0.1297  0.4153
 2842SOL     OW11494   2.485   2.363   4.776 -0.5804 -0.0183  0.0340
 2842SOL    HW211495   2.426   2.438   4.771  0.0603  0.4312 -0.8857
 2842SOL    HW311496   2.429   2.291   4.808 -1.7928  0.2267 -1.4934
 2842SOL    MW411497   2.470   2.363   4.780 -0.6557  0.0732 -0.2890
 2843SOL     OW11498   0.917   3.933   4.254 -0.1990 -0.5073 -0.0352
 2843SOL    HW211499   0.901   3.951   4.346  1.4987 -0.4301  0.2549
 2843SOL    HW311500   0.903   4.017   4.210 -2.7177 -0.9284 -0.1037
 2843SOL    MW411501   0.913   3.947   4.260 -0.3073 -0.5527 -0.0052
 2844SOL     OW11502   1.285   2.687   4.796 -0.0747  0.0013 -0.0450
 2844SOL    HW211503   1.266   2.597   4.822  0.3646 -0.3454 -0.9154
 2844SOL    HW311504   1.222   2.707   4.727  0.0849  0.2345 -0.1252
 2844SOL    MW411505   1.275   2.678   4.790  0.0043 -0.0138 -0.1702
 2845SOL     OW11506   2.860   4.526   4.641  0.1035 -0.2069 -0.0905
 2845SOL    HW211507   2.859   4.433   4.620  0.7678 -0.3848  0.6468
 2845SOL    HW311508   2.945   4.557   4.609  0.0426  0.0620  0.0090
 2845SOL    MW411509   2.871   4.518   4.634  0.1833 -0.1945  0.0205
 2846SOL     OW11510   2.502   0.143   4.181 -0.4552  0.5230 -0.1188
 2846SOL    HW211511   2.452   0.187   4.250  0.5003  0.6650  0.4952
 2846SOL    HW311512   2.447   0.070   4.154 -1.0519  0.7564  0.4514
 2846SOL    MW411513   2.488   0.139   4.187 -0.4079  0.5725  0.0372
 2847SOL     OW11514   1.108   4.594   3.920 -0.2814  0.1294  0.8208
 2847SOL    HW211515   1.112   4.510   3.876  1.1024  0.2185  0.7596
 2847SOL    HW311516   1.185   4.641   3.889 -1.5447  1.7965  0.1023
 2847SOL    MW411517   1.119   4.589   3.910 -0.2654  0.3610  0.7181
 2848SOL     OW11518   2.135   1.448   4.799  0.2429 -0.4998 -0.1306
 2848SOL    HW211519   2.096   1.375   4.847  0.3772  0.3341  1.2571
 2848SOL    HW311520   2.075   1.462   4.725 -0.1323 -1.5795 -0.0407
 2848SOL    MW411521   2.122   1.440   4.796  0.2108 -0.5323  0.0644
 2849SOL     OW11522   0.480   2.417   4.169 -0.2073 -0.0304 -0.3061
 2849SOL    HW211523   0.564   2.374   4.156 -0.5412 -0.6391 -0.4584
 2849SOL    HW311524   0.496   2.508   4.144  0.3103 -0.2210 -0.6823
 2849SOL    MW411525   0.493   2.423   4.164 -0.1830 -0.1357 -0.3757
 2850SOL     OW11526   2.044   1.482   4.486  0.6775  0.1195  0.1414
 2850SOL    HW211527   2.105   1.556   4.482 -1.3634  1.9537  1.6383
 2850SOL    HW311528   2.005   1.479   4.399  0.3486  1.2060  0.2373
 2850SOL    MW411529   2.047   1.492   4.474  0.3650  0.5049  0.3514
 2851SOL     OW11530   0.114   1.710   4.552  0.1286  0.4019  0.1427
 2851SOL    HW211531   0.105   1.794   4.598 -1.1194  0.4583 -0.1678
 2851SOL    HW311532   0.027   1.671   4.558 -0.1590  0.5757 -2.4935
 2851SOL    MW411533   0.101   1.716   4.559 -0.0740  0.4323 -0.2460
 2852SOL     OW11534   2.344   4.591   4.105  1.0425 -0.2633 -0.0357
 2852SOL    HW211535   2.357   4.512   4.157  0.8172  0.0792  0.5422
 2852SOL    HW311536   2.262   4.627   4.136  2.0664  1.2075  1.0092
 2852SOL    MW411537   2.335   4.585   4.116  1.1477 -0.0238  0.1783
 2853SOL     OW11538   2.445   4.370   4.231  0.6025  0.3106 -0.0681
 2853SOL    HW211539   2.413   4.298   4.178 -0.7847  1.4722 -0.8491
 2853SOL    HW311540   2.453   4.334   4.320  0.1310 -0.8396 -0.4944
 2853SOL    MW411541   2.442   4.356   4.236  0.3572  0.3123 -0.2279
 2854SOL     OW11542   3.604   2.782   4.109  0.2649  0.2119  0.2131
 2854SOL    HW211543   3.539   2.851   4.116  2.2588  2.1478  0.0510
 2854SOL    HW311544   3.675   2.809   4.167  1.2004 -1.5747 -0.0460
 2854SOL    MW411545   3.605   2.794   4.117  0.6516  0.2317  0.1578
 2855SOL     OW11546   0.688   0.730   3.910 -0.2288  0.2389  0.2942
 2855SOL    HW211547   0.756   0.795   3.894  1.0427 -0.5844  2.1310
 2855SOL    HW311548   0.658   0.748   3.999 -1.0652 -0.6297  0.1955
 2855SOL    MW411549   0.693   0.741   3.920 -0.1713  0.0156  0.5236
 2856SOL     OW11550   2.876   3.715   4.133 -0.4440 -0.0482 -0.1524
 2856SOL    HW211551   2.826   3.786   4.174 -0.1188  0.7005 -1.0345
 2856SOL    HW311552   2.966   3.728   4.164 -0.5777 -0.7163  0.5304
 2856SOL    MW411553   2.881   3.726   4.143 -0.4187 -0.0374 -0.1788
 2857SOL     OW11554   3.370   4.528   4.613  0.8120  0.3092 -0.3013
 2857SOL    HW211555   3.278   4.554   4.614  1.0148  1.0541  1.0949
 2857SOL    HW311556   3.369   4.436   4.587 -0.4954 -0.1980  1.4349
 2857SOL    MW411557   3.358   4.519   4.610  0.6664  0.3400  0.1125
 2858SOL     OW11558   4.404   2.602   4.504  0.4385  0.0057 -0.5343
 2858SOL    HW211559   4.456   2.525   4.524 -0.3495 -0.6491 -0.9668
 2858SOL    HW311560   4.369   2.584   4.416  0.8682  1.1901 -0.9593
 2858SOL    MW411561   4.406   2.590   4.495  0.3910  0.0756 -0.6475
 2859SOL     OW11562   4.180   2.597   4.662 -0.0875 -0.0418 -0.5817
 2859SOL    HW211563   4.264   2.590   4.617 -0.5070  0.8340 -1.5140
 2859SOL    HW311564   4.115   2.573   4.596 -0.7120  1.2962 -0.4675
 2859SOL    MW411565   4.182   2.593   4.648 -0.2251  0.2503 -0.6900
 2860SOL     OW11566   1.787   3.965   3.773  0.8591 -0.0742  0.6751
 2860SOL    HW211567   1.812   4.053   3.802  1.6615 -0.0443 -0.0856
 2860SOL    HW311568   1.862   3.910   3.795  0.7327 -0.3960  0.3082
 2860SOL    MW411569   1.800   3.970   3.780  0.9483 -0.1125  0.5262
 2861SOL     OW11570   1.074   4.340   4.748  0.3159  0.4104  0.0353
 2861SOL    HW211571   0.985   4.312   4.771 -0.7790  2.3187 -1.7317
 2861SOL    HW311572   1.101   4.279   4.680 -0.1363  0.5864 -0.3066
 2861SOL    MW411573   1.066   4.328   4.742  0.1116  0.6852 -0.2432
 2862SOL     OW11574   1.793   1.229   4.147  0.5125 -0.0170 -0.0763
 2862SOL    HW211575   1.773   1.171   4.220  0.0287  1.2895  0.8536
 2862SOL    HW311576   1.859   1.289   4.181  3.2281 -1.8627 -1.9423
 2862SOL    MW411577   1.799   1.229   4.161  0.8070 -0.0881 -0.1993
 2863SOL     OW11578   0.926   1.202   4.117 -0.3614  0.4555 -0.7057
 2863SOL    HW211579   0.953   1.112   4.136 -1.5322  0.0234 -1.0406
 2863SOL    HW311580   1.005   1.254   4.131  0.5339 -0.7216 -1.2464
 2863SOL    MW411581   0.940   1.197   4.121 -0.3977  0.2432 -0.8211
 2864SOL     OW11582   2.034   4.361   4.250 -0.5748 -0.4130 -0.0967
 2864SOL    HW211583   2.005   4.431   4.191  0.0742 -0.3244 -0.3148
 2864SOL    HW311584   1.997   4.384   4.335  1.9095  1.6831  0.4703
 2864SOL    MW411585   2.025   4.373   4.253 -0.1612 -0.1249 -0.0505
 2865SOL     OW11586   2.525   4.381   4.899  0.2524 -0.4221  0.4305
 2865SOL    HW211587   2.447   4.360   4.847 -0.2988  0.1849  0.9904
 2865SOL    HW311588   2.506   4.343   4.985  1.0711 -1.2518  0.2498
 2865SOL    MW411589   2.512   4.373   4.904  0.2875 -0.4511  0.4802
 2866SOL     OW11590   0.315   0.685   4.216  0.4473  0.0913  0.1331
 2866SOL    HW211591   0.331   0.592   4.199  0.0735 -0.0104  0.3245
 2866SOL    HW311592   0.304   0.724   4.129 -2.5090 -0.6171  0.1129
 2866SOL    MW411593   0.315   0.678   4.202  0.0080 -0.0156  0.1559
 2867SOL     OW11594   4.398   2.104   4.371  0.2440 -0.4306  0.0997
 2867SOL    HW211595   4.415   2.038   4.304 -1.5570  0.4590 -1.2682
 2867SOL    HW311596   4.481   2.149   4.382  1.0946 -1.9381 -0.0196
 2867SOL    MW411597   4.411   2.101   4.364  0.1187 -0.5121 -0.0968
 2868SOL     OW11598   2.205   1.725   3.896 -0.5762 -0.1058  0.2635
 2868SOL    HW211599   2.218   1.818   3.879 -1.0087  0.0850  0.9369
 2868SOL    HW311600   2.136   1.723   3.963 -0.1740 -0.8845  0.6577
 2868SOL    MW411601   2.197   1.737   3.903 -0.5803 -0.1833  0.4044
 2869SOL     OW11602   1.940   2.696   4.087  0.0773 -0.1209  0.0447
 2869SOL    HW211603   1.954   2.764   4.153 -1.8775 -1.1065  1.5381
 2869SOL    HW311604   2.010   2.632   4.103  1.3908  1.0989 -0.7900
 2869SOL    MW411605   1.951   2.696   4.098 -0.0072 -0.0901  0.1316
 2870SOL     OW11606   3.187   0.483   4.109  0.0059  0.2382 -0.0225
 2870SOL    HW211607   3.204   0.577   4.105  1.2411  0.0396  0.5071
 2870SOL    HW311608   3.273   0.443   4.126 -0.4164 -1.0193 -0.7405
 2870SOL    MW411609   3.201   0.490   4.111  0.1132  0.0461 -0.0477
 2871SOL     OW11610   0.965   4.551   4.543 -0.1249 -0.0559  0.3569
 2871SOL    HW211611   1.003   4.500   4.615  0.4831 -1.8595 -1.1871
 2871SOL    HW311612   1.031   4.547   4.474 -2.1749 -1.3959 -1.5756
 2871SOL    MW411613   0.979   4.544   4.543 -0.3152 -0.4702 -0.1020
 2872SOL     OW11614   3.810   3.940   4.523  0.2948  0.0661 -0.3421
 2872SOL    HW211615   3.744   4.007   4.539  0.9841  0.4752  0.8364
 2872SOL    HW311616   3.779   3.894   4.446 -1.3848  0.2372  0.2143
 2872SOL    MW411617   3.798   3.943   4.515  0.1640  0.1428 -0.1130
 2873SOL     OW11618   1.871   3.520   4.072  0.0423 -0.3506 -0.0582
 2873SOL    HW211619   1.963   3.525   4.099  0.3026  1.9688 -1.2316
 2873SOL    HW311620   1.831   3.459   4.134  2.1142 -0.4933  1.1821
 2873SOL    MW411621   1.878   3.513   4.084  0.3501 -0.0634 -0.0501
 2874SOL     OW11622   2.264   0.154   4.612 -0.4291  0.0660  0.0886
 2874SOL    HW211623   2.326   0.163   4.684 -0.6916  0.3473  0.2841
 2874SOL    HW311624   2.314   0.175   4.533  0.0433 -0.9535  0.1128
 2874SOL    MW411625   2.278   0.158   4.611 -0.4013 -0.0314  0.1178
 2875SOL     OW11626   2.624   2.199   4.457 -0.0714 -0.3291 -0.0297
 2875SOL    HW211627   2.666   2.228   4.538 -2.7662  0.6864  1.0523
 2875SOL    HW311628   2.593   2.280   4.416 -0.1002 -0.9804 -1.3274
 2875SOL    MW411629   2.626   2.213   4.462 -0.4308 -0.2809 -0.0582
 2876SOL     OW11630   1.910   1.268   4.865  0.1777 -0.2972 -0.0777
 2876SOL    HW211631   1.834   1.324   4.882 -0.9273 -1.9521  0.5749
 2876SOL    HW311632   1.920   1.270   4.770 -1.1094 -0.5892 -0.2309
 2876SOL    MW411633   1.901   1.275   4.855 -0.1379 -0.5540 -0.0124
 2877SOL     OW11634   2.744   3.923   4.253 -0.1739  0.6650 -0.0502
 2877SOL    HW211635   2.797   4.000   4.230  0.8206  0.3140  0.9991
 2877SOL    HW311636   2.662   3.935   4.206 -0.4569  2.9352  0.9648
 2877SOL    MW411637   2.740   3.935   4.244 -0.0801  0.9181  0.2222
 2878SOL     OW11638   2.858   0.711   4.445  0.4039  0.3925 -0.0330
 2878SOL    HW211639   2.875   0.739   4.355 -1.8627 -0.6234 -0.8178
 2878SOL    HW311640   2.787   0.768   4.475 -1.0723 -1.3806 -0.0460
 2878SOL    MW411641   2.850   0.722   4.437 -0.0901  0.0246 -0.1383
 2879SOL     OW11642   1.819   0.820   4.575 -0.5828  0.3479  0.8353
 2879SOL    HW211643   1.746   0.870   4.537 -0.2776  0.8798  0.9404
 2879SOL    HW311644   1.820   0.738   4.525  1.4679  2.1022 -2.1399
 2879SOL    MW411645   1.809   0.816   4.563 -0.2719  0.6495  0.4563
 2880SOL     OW11646   0.728   0.980   4.459  0.1206 -0.3729 -0.0784
 2880SOL    HW211647   0.755   1.071   4.442 -0.1580 -0.0302  1.1979
 2880SOL    HW311648   0.642   0.989   4.501  1.4214 -1.0358  2.8536
 2880SOL    MW411649   0.720   0.993   4.462  0.2555 -0.4151  0.4773
 2881SOL     OW11650   2.268   0.809   4.642 -0.1909 -0.0042 -0.3816
 2881SOL    HW211651   2.258   0.725   4.598 -1.7902  0.4865 -0.9601
 2881SOL    HW311652   2.338   0.794   4.707 -0.1958 -1.6498 -0.7517
 2881SOL    MW411653   2.276   0.796   4.645 -0.4025 -0.1566 -0.5069
 2882SOL     OW11654   3.501   3.067   4.542  0.0475 -0.1642 -0.9683
 2882SOL    HW211655   3.431   3.106   4.594  0.0426  0.3637 -1.3743
 2882SOL    HW311656   3.478   2.974   4.538  0.1400 -0.2479  0.1219
 2882SOL    MW411657   3.489   3.060   4.548  0.0591 -0.1054 -0.8779
 2883SOL     OW11658   2.368   0.261   4.382  0.0392 -0.0287  0.2230
 2883SOL    HW211659   2.294   0.311   4.348  1.5591  0.9719 -1.6829
 2883SOL    HW311660   2.419   0.325   4.433  2.2344  0.5821 -2.5918
 2883SOL    MW411661   2.365   0.276   4.384  0.5293  0.1839 -0.4001
 2884SOL     OW11662   3.705   0.454   4.754 -0.6743  0.3505  0.0752
 2884SOL    HW211663   3.639   0.445   4.823 -0.5845  0.6635  0.2013
 2884SOL    HW311664   3.755   0.532   4.778 -0.7579  0.5668 -0.4361
 2884SOL    MW411665   3.703   0.463   4.766 -0.6735  0.4203  0.0248
 2885SOL     OW11666   4.209   0.572   4.560  0.2802 -0.0503 -0.3651
 2885SOL    HW211667   4.265   0.497   4.582  0.1400 -0.3726 -1.0740
 2885SOL    HW311668   4.240   0.642   4.616 -2.2416 -1.7180  3.2849
 2885SOL    MW411669   4.221   0.571   4.570 -0.0710 -0.3128  0.0229
 2886SOL     OW11670   3.659   1.533   4.286  0.2485  0.3393 -0.5758
 2886SOL    HW211671   3.592   1.583   4.240 -1.5644 -1.8498 -0.4006
 2886SOL    HW311672   3.656   1.567   4.376 -0.7031  0.1508 -0.5390
 2886SOL    MW411673   3.650   1.544   4.292 -0.1159  0.0256 -0.5484
 2887SOL     OW11674   0.948   3.740   4.670 -0.1309 -0.0918 -0.2073
 2887SOL    HW211675   0.972   3.749   4.762  0.8114 -0.0501 -0.4579
 2887SOL    HW311676   1.022   3.695   4.629 -0.2568  0.4771 -1.0786
 2887SOL    MW411677   0.961   3.735   4.677 -0.0232 -0.0110 -0.3548
 2888SOL     OW11678   3.894   2.854   4.541  0.2626  0.5139  0.3509
 2888SOL    HW211679   3.859   2.932   4.583  1.8915  0.0784  2.5964
 2888SOL    HW311680   3.843   2.781   4.577  0.6101  0.2843  0.3880
 2888SOL    MW411681   3.883   2.854   4.551  0.5233  0.4261  0.6518
 2889SOL     OW11682   4.019   2.745   4.176  0.0259 -0.0510  0.4896
 2889SOL    HW211683   4.007   2.651   4.186  0.2575 -0.1533 -0.1739
 2889SOL    HW311684   3.934   2.783   4.201 -0.1228 -0.4398  0.5819
 2889SOL    MW411685   4.006   2.738   4.181  0.0372 -0.1156  0.4139
 2890SOL     OW11686   3.507   2.379   4.230  0.2030  0.4640  0.4586
 2890SOL    HW211687   3.485   2.371   4.137  1.3780 -1.0838  0.2886
 2890SOL    HW311688   3.497   2.472   4.250 -1.4096  0.5942 -0.8652
 2890SOL    MW411689   3.503   2.390   4.221  0.1452  0.2770  0.2613
 2891NA      NA11690   1.255   2.202   0.581 -0.0917  0.4150  0.7324
 2892NA      NA11691   2.063   3.109   0.850 -0.4248 -0.4045  0.2121
 2893NA      NA11692   0.716   0.210   0.724 -0.3276 -0.3406  0.2211
 2894NA      NA11693   0.958   3.533   0.856 -0.3073  0.2947 -0.6470
   4.49070   4.66690  10.00000
