This is U3
31
    1U3     P    33   -0.300   0.010   0.340
    1U3   OP1    34   -0.350   0.130   0.410
    1U3   OP2    35   -0.170  -0.050   0.380
    1U3    O5'   36   -0.410  -0.100   0.360
    1U3    C5'   37   -0.550  -0.070   0.340
    1U3   H5'1   38   -0.565  -0.010   0.250
    1U3   H5'2   39   -0.585  -0.010   0.430
    1U3    C4'   40   -0.630  -0.200   0.330
    1U3    H4'   41   -0.735  -0.170   0.320
    1U3    O4'   42   -0.585  -0.275   0.215
    1U3    C3'   43   -0.605  -0.290   0.450
    1U3    H3'   44   -0.500  -0.270   0.490
    1U3    O3'   45   -0.700  -0.260   0.550
    1U3    C2'   46   -0.625  -0.430   0.395
    1U3    C1'   47   -0.575  -0.410   0.250
    1U3    H1'   48   -0.645  -0.465   0.185
    1U3    H2'   49   -0.555  -0.500   0.445
    1U3    O2'   50   -0.760  -0.455   0.395
    1U3   HO2'   51   -0.800  -0.405   0.470
    1U3     N1   52   -0.435  -0.455   0.240
    1U3     C2   53   -0.400  -0.560   0.200
    1U3     O2   54   -0.480  -0.620   0.150
    1U3     N3   55   -0.300  -0.610   0.210
    1U3     H3   56   -0.270  -0.690   0.170
    1U3     C4   57   -0.200  -0.570   0.280
    1U3     O4   58   -0.120  -0.640   0.300
    1U3     C5   59   -0.210  -0.460   0.310
    1U3     H5   60   -0.150  -0.420   0.380
    1U3     C6   61   -0.310  -0.400   0.260
    1U3     H6   62   -0.340  -0.320   0.320
    1U3    H3T   63   -0.685  -0.185   0.610
   4.49070   4.66690  10.00000