This is 5 End U
   28
    1RU5    O5'    1  -0.023  -0.097   0.093
    1RU5    C5'    2  -0.054   0.037   0.059
    1RU5    H5'    3   0.020   0.075  -0.014
    1RU5   H5''    4  -0.052   0.100   0.150
    1RU5    C4'    5  -0.192   0.043  -0.003
    1RU5    H4'    6  -0.220   0.148  -0.022
    1RU5    O4'    7  -0.191  -0.031  -0.128
    1RU5    C3'    8  -0.291  -0.031   0.087
    1RU5    H3'    9  -0.240  -0.117   0.136
    1RU5    O3'   10  -0.340   0.058   0.186
    1RU5    C2'   11  -0.403  -0.067  -0.010
    1RU5    C1'   12  -0.327  -0.083  -0.141
    1RU5    H1'   13  -0.374  -0.019  -0.219
    1RU5    H2'   14  -0.447  -0.165   0.019
    1RU5    O2'   15  -0.493   0.042  -0.020
    1RU5   HO'2   16  -0.490   0.091   0.062
    1RU5     N1   17  -0.324  -0.225  -0.180
    1RU5     C2   18  -0.396  -0.282  -0.283
    1RU5     O2   19  -0.471  -0.214  -0.353
    1RU5     N3   20  -0.382  -0.415  -0.305
    1RU5     H3   21  -0.432  -0.495  -0.385
    1RU5     C4   22  -0.300  -0.489  -0.229
    1RU5     O4   23  -0.289  -0.620  -0.254
    1RU5     C5   24  -0.225  -0.431  -0.122
    1RU5     H5   25  -0.160  -0.493  -0.063
    1RU5     C6   26  -0.241  -0.298  -0.101
    1RU5     H6   27  -0.186  -0.250  -0.022
    1RU5    H5T   28  -0.043  -0.132   0.181
   4.49070   4.66690  10.00000