This is 5 End U
   28
    1RU5    O5'    1   4.247   4.059   4.160
    1RU5    C5'    2   4.216   4.193   4.126
    1RU5    H5'    3   4.290   4.231   4.053
    1RU5   H5''    4   4.218   4.256   4.217
    1RU5    C4'    5   4.078   4.199   4.064
    1RU5    H4'    6   4.050   4.304   4.045
    1RU5    O4'    7   4.079   4.125   3.939
    1RU5    C3'    8   3.979   4.125   4.154
    1RU5    H3'    9   4.030   4.039   4.203
    1RU5    O3'   10   3.930   4.214   4.253
    1RU5    C2'   11   3.867   4.089   4.057
    1RU5    C1'   12   3.943   4.073   3.926
    1RU5    H1'   13   3.896   4.137   3.848
    1RU5    H2'   14   3.823   3.991   4.086
    1RU5    O2'   15   3.777   4.198   4.047
    1RU5   HO'2   16   3.780   4.247   4.129
    1RU5     N1   17   3.946   3.931   3.887
    1RU5     C2   18   3.874   3.874   3.784
    1RU5     O2   19   3.799   3.942   3.714
    1RU5     N3   20   3.888   3.741   3.762
    1RU5     H3   21   3.838   3.661   3.682
    1RU5     C4   22   3.970   3.667   3.838
    1RU5     O4   23   3.981   3.536   3.813
    1RU5     C5   24   4.045   3.725   3.945
    1RU5     H5   25   4.110   3.663   4.004
    1RU5     C6   26   4.029   3.858   3.966
    1RU5     H6   27   4.084   3.906   4.045
    1RU5    H5T   28   4.227   4.024   4.248
   4.49070   4.66690  10.00000
