This is 5 End U
   28
    1RU5    O5'    1   0.247   0.059   0.160
    1RU5    C5'    2   0.216   0.193   0.126
    1RU5    H5'    3   0.290   0.231   0.053
    1RU5   H5''    4   0.218   0.256   0.217
    1RU5    C4'    5   0.078   0.199   0.064
    1RU5    H4'    6   0.050   0.304   0.045
    1RU5    O4'    7   0.079   0.125  -0.061
    1RU5    C3'    8  -0.021   0.125   0.154
    1RU5    H3'    9   0.030   0.039   0.203
    1RU5    O3'   10  -0.070   0.214   0.253
    1RU5    C2'   11  -0.133   0.089   0.057
    1RU5    C1'   12  -0.057   0.073  -0.074
    1RU5    H1'   13  -0.104   0.137  -0.152
    1RU5    H2'   14  -0.177  -0.009   0.086
    1RU5    O2'   15  -0.223   0.198   0.047
    1RU5   HO'2   16  -0.220   0.247   0.129
    1RU5     N1   17  -0.054  -0.069  -0.113
    1RU5     C2   18  -0.126  -0.126  -0.216
    1RU5     O2   19  -0.201  -0.058  -0.286
    1RU5     N3   20  -0.112  -0.259  -0.238
    1RU5     H3   21  -0.162  -0.339  -0.318
    1RU5     C4   22  -0.030  -0.333  -0.162
    1RU5     O4   23  -0.019  -0.464  -0.187
    1RU5     C5   24   0.045  -0.275  -0.055
    1RU5     H5   25   0.110  -0.337   0.004
    1RU5     C6   26   0.029  -0.142  -0.034
    1RU5     H6   27   0.084  -0.094   0.045
    1RU5    H5T   28   0.227   0.024   0.248
   4.49070   4.66690  10.00000
