This is U3
   89
    1U3       P    1  -0.300   0.010   0.340
    1U3     OP1    2  -0.350   0.130   0.410
    1U3     OP2    3  -0.170  -0.050   0.380
    1U3     O5'    4  -0.410  -0.100   0.360
    1U3     C5'    5  -0.550  -0.070   0.340
    1U3    H5'1    6  -0.565  -0.010   0.250
    1U3    H5'2    7  -0.585  -0.010   0.430
    1U3     C4'    8  -0.630  -0.200   0.330
    1U3     H4'    9  -0.735  -0.170   0.320
    1U3     O4'   10  -0.585  -0.275   0.215
    1U3     C3'   11  -0.605  -0.290   0.450
    1U3     H3'   12  -0.500  -0.270   0.490
    1U3     O3'   13  -0.700  -0.260   0.550
    1U3     C2'   14  -0.625  -0.430   0.395
    1U3     C1'   15  -0.575  -0.410   0.250
    1U3     H1'   16  -0.645  -0.465   0.185
    1U3     H2'   17  -0.555  -0.500   0.445
    1U3     O2'   18  -0.760  -0.455   0.395
    1U3    HO2'   19  -0.800  -0.405   0.470
    1U3      N1   20  -0.435  -0.455   0.240
    1U3      C2   21  -0.400  -0.560   0.200
    1U3      O2   22  -0.480  -0.620   0.150
    1U3      N3   23  -0.300  -0.610   0.210
    1U3      H3   24  -0.270  -0.690   0.170
    1U3      C4   25  -0.200  -0.570   0.280
    1U3      O4   26  -0.120  -0.640   0.300
    1U3      C5   27  -0.210  -0.460   0.310
    1U3      H5   28  -0.150  -0.420   0.380
    1U3      C6   29  -0.310  -0.400   0.260
    1U3      H6   30  -0.340  -0.320   0.320
    1U3     H3T   31  -0.685  -0.185   0.610
    2U3       P   32   0.701  -0.054  -6.386
    2U3     OP1   33   0.597  -0.083  -6.486
    2U3     OP2   34   0.845  -0.065  -6.424
    2U3     O5'   35   0.676   0.093  -6.340
    2U3     C5'   36   0.543   0.139  -6.306
    2U3    H5'1   37   0.490   0.065  -6.245
    2U3    H5'2   38   0.487   0.154  -6.403
    2U3     C4'   39   0.552   0.272  -6.231
    2U3     H4'   40   0.448   0.303  -6.213
    2U3     O4'   41   0.623   0.252  -6.107
    2U3     C3'   42   0.632   0.375  -6.308
    2U3     H3'   43   0.710   0.321  -6.373
    2U3     O3'   44   0.545   0.448  -6.391
    2U3     C2'   45   0.693   0.463  -6.200
    2U3     C1'   46   0.712   0.359  -6.087
    2U3     H1'   47   0.681   0.408  -5.994
    2U3     H2'   48   0.793   0.497  -6.232
    2U3     O2'   49   0.597   0.554  -6.164
    2U3    HO2'   50   0.541   0.572  -6.243
    2U3      N1   51   0.851   0.311  -6.088
    2U3      C2   52   0.937   0.350  -6.018
    2U3      O2   53   0.902   0.415  -5.934
    2U3      N3   54   1.048   0.336  -6.027
    2U3      H3   55   1.115   0.360  -5.966
    2U3      C4   56   1.111   0.283  -6.125
    2U3      O4   57   1.218   0.298  -6.132
    2U3      C5   58   1.042   0.222  -6.193
    2U3      H5   59   1.073   0.191  -6.284
    2U3      C6   60   0.923   0.212  -6.152
    2U3      H6   61   0.857   0.196  -6.232
    3RU5    O5'   62   0.850  -0.774  -5.101
    3RU5    C5'   63   0.775  -0.813  -5.214
    3RU5    H5'   64   0.823  -0.773  -5.306
    3RU5   H5''   65   0.671  -0.773  -5.207
    3RU5    C4'   66   0.770  -0.964  -5.222
    3RU5    H4'   67   0.705  -0.994  -5.306
    3RU5    O4'   68   0.904  -1.015  -5.244
    3RU5    C3'   69   0.726  -1.020  -5.087
    3RU5    H3'   70   0.766  -0.956  -5.005
    3RU5    O3'   71   0.585  -1.023  -5.081
    3RU5    C2'   72   0.781  -1.163  -5.091
    3RU5    C1'   73   0.905  -1.146  -5.179
    3RU5    H1'   74   0.900  -1.219  -5.263
    3RU5    H2'   75   0.812  -1.194  -4.989
    3RU5    O2'   76   0.687  -1.247  -5.158
    3RU5   HO'2   77   0.600  -1.209  -5.145
    3RU5     N1   78   1.025  -1.162  -5.097
    3RU5     C2   79   1.110  -1.271  -5.099
    3RU5     O2   80   1.090  -1.366  -5.174
    3RU5     N3   81   1.218  -1.270  -5.017
    3RU5     H3   82   1.310  -1.350  -4.993
    3RU5     C4   83   1.241  -1.166  -4.934
    3RU5     O4   84   1.348  -1.170  -4.855
    3RU5     C5   85   1.153  -1.053  -4.932
    3RU5     H5   86   1.175  -0.972  -4.865
    3RU5     C6   87   1.046  -1.056  -5.015
    3RU5     H6   88   0.978  -0.973  -5.016
    3RU5    H5T   89   0.807  -0.758  -5.015
   4.49070   4.66690  10.00000
