This is 5 End U
  118
    1RU5    O5'    1   4.247   4.059   4.160
    1RU5    C5'    2   4.216   4.193   4.126
    1RU5    H5'    3   4.290   4.231   4.053
    1RU5   H5''    4   4.218   4.256   4.217
    1RU5    C4'    5   4.078   4.199   4.064
    1RU5    H4'    6   4.050   4.304   4.045
    1RU5    O4'    7   4.079   4.125   3.939
    1RU5    C3'    8   3.979   4.125   4.154
    1RU5    H3'    9   4.030   4.039   4.203
    1RU5    O3'   10   3.930   4.214   4.253
    1RU5    C2'   11   3.867   4.089   4.057
    1RU5    C1'   12   3.943   4.073   3.926
    1RU5    H1'   13   3.896   4.137   3.848
    1RU5    H2'   14   3.823   3.991   4.086
    1RU5    O2'   15   3.777   4.198   4.047
    1RU5   HO'2   16   3.780   4.247   4.129
    1RU5     N1   17   3.946   3.931   3.887
    1RU5     C2   18   3.874   3.874   3.784
    1RU5     O2   19   3.799   3.942   3.714
    1RU5     N3   20   3.888   3.741   3.762
    1RU5     H3   21   3.838   3.661   3.682
    1RU5     C4   22   3.970   3.667   3.838
    1RU5     O4   23   3.981   3.536   3.813
    1RU5     C5   24   4.045   3.725   3.945
    1RU5     H5   25   4.110   3.663   4.004
    1RU5     C6   26   4.029   3.858   3.966
    1RU5     H6   27   4.084   3.906   4.045
    1RU5    H5T   28   4.227   4.024   4.248
    2U3       P   29   4.407   4.152   4.871
    2U3     OP1   30   4.535   4.079   4.879
    2U3     OP2   31   4.355   4.223   4.991
    2U3     O5'   32   4.426   4.260   4.759
    2U3     C5'   33   4.486   4.225   4.632
    2U3    H5'1   34   4.447   4.131   4.594
    2U3    H5'2   35   4.598   4.215   4.649
    2U3     C4'   36   4.460   4.337   4.530
    2U3     H4'   37   4.512   4.306   4.438
    2U3     O4'   38   4.318   4.349   4.509
    2U3     C3'   39   4.505   4.472   4.582
    2U3     H3'   40   4.498   4.472   4.696
    2U3     O3'   41   4.640   4.493   4.544
    2U3     C2'   42   4.412   4.570   4.514
    2U3     C1'   43   4.284   4.485   4.504
    2U3     H1'   44   4.241   4.504   4.404
    2U3     H2'   45   4.391   4.655   4.582
    2U3     O2'   46   4.463   4.594   4.388
    2U3    HO2'   47   4.561   4.585   4.393
    2U3      N1   48   4.194   4.518   4.616
    2U3      C2   49   4.103   4.592   4.610
    2U3      O2   50   4.074   4.623   4.506
    2U3      N3   51   4.045   4.640   4.693
    2U3      H3   52   3.966   4.692   4.688
    2U3      C4   53   4.071   4.637   4.819
    2U3      O4   54   4.022   4.707   4.884
    2U3      C5   55   4.146   4.553   4.844
    2U3      H5   56   4.191   4.550   4.934
    2U3      C6   57   4.177   4.478   4.747
    2U3      H6   58   4.271   4.435   4.760
    3U3       P   59   4.282   3.824   5.691
    3U3     OP1   60   4.315   3.881   5.559
    3U3     OP2   61   4.158   3.744   5.708
    3U3     O5'   62   4.402   3.731   5.729
    3U3     C5'   63   4.539   3.776   5.713
    3U3    H5'1   64   4.551   3.878   5.748
    3U3    H5'2   65   4.563   3.772   5.602
    3U3     C4'   66   4.633   3.683   5.790
    3U3     H4'   67   4.735   3.720   5.769
    3U3     O4'   68   4.602   3.689   5.931
    3U3     C3'   69   4.613   3.538   5.750
    3U3     H3'   70   4.505   3.523   5.717
    3U3     O3'   71   4.700   3.508   5.642
    3U3     C2'   72   4.651   3.460   5.874
    3U3     C1'   73   4.606   3.560   5.984
    3U3     H1'   74   4.684   3.559   6.061
    3U3     H2'   75   4.588   3.370   5.883
    3U3     O2'   76   4.788   3.449   5.875
    3U3    HO2'   77   4.819   3.446   5.782
    3U3      N1   78   4.472   3.521   6.033
    3U3      C2   79   4.451   3.459   6.130
    3U3      O2   80   4.539   3.446   6.198
    3U3      N3   81   4.357   3.406   6.162
    3U3      H3   82   4.338   3.364   6.244
    3U3      C4   83   4.250   3.390   6.093
    3U3      O4   84   4.178   3.317   6.126
    3U3      C5   85   4.246   3.461   6.003
    3U3      H5   86   4.179   3.447   5.929
    3U3      C6   87   4.341   3.545   5.997
    3U3      H6   88   4.359   3.575   5.898
    4U3       P   89   3.622   4.218   6.876
    4U3     OP1   90   3.527   4.288   6.966
    4U3     OP2   91   3.612   4.071   6.858
    4U3     O5'   92   3.604   4.284   6.735
    4U3     C5'   93   3.598   4.428   6.720
    4U3    H5'1   94   3.674   4.477   6.781
    4U3    H5'2   95   3.495   4.461   6.755
    4U3     C4'   96   3.616   4.465   6.573
    4U3     H4'   97   3.606   4.574   6.568
    4U3     O4'   98   3.747   4.422   6.529
    4U3     C3'   99   3.517   4.391   6.484
    4U3     H3'  100   3.491   4.292   6.533
    4U3     O3'  101   3.401   4.470   6.471
    4U3     C2'  102   3.590   4.378   6.351
    4U3     C1'  103   3.736   4.365   6.401
    4U3     H1'  104   3.798   4.426   6.334
    4U3     H2'  105   3.563   4.282   6.303
    4U3     O2'  106   3.574   4.496   6.284
    4U3    HO2'  107   3.487   4.535   6.310
    4U3      N1  108   3.774   4.223   6.406
    4U3      C2  109   3.834   4.166   6.323
    4U3      O2  110   3.881   4.232   6.245
    4U3      N3  111   3.847   4.055   6.307
    4U3      H3  112   3.904   4.011   6.246
    4U3      C4  113   3.787   3.961   6.370
    4U3      O4  114   3.791   3.861   6.329
    4U3      C5  115   3.739   3.998   6.467
    4U3      H5  116   3.673   3.940   6.517
    4U3      C6  117   3.764   4.119   6.496
    4U3      H6  118   3.688   4.159   6.555
   4.49070   4.66690  10.00000
