This is RU
   58
    1U3       P    1  -0.300   0.010   0.340
    1U3     OP1    2  -0.350   0.130   0.410
    1U3     OP2    3  -0.170  -0.050   0.380
    1U3     O5'    4  -0.410  -0.100   0.360
    1U3     C5'    5  -0.550  -0.070   0.340
    1U3    H5'1    6  -0.565  -0.010   0.250
    1U3    H5'2    7  -0.585  -0.010   0.430
    1U3     C4'    8  -0.630  -0.200   0.330
    1U3     H4'    9  -0.735  -0.170   0.320
    1U3     O4'   10  -0.585  -0.275   0.215
    1U3     C3'   11  -0.605  -0.290   0.450
    1U3     H3'   12  -0.500  -0.270   0.490
    1U3     O3'   13  -0.700  -0.260   0.550
    1U3     C2'   14  -0.625  -0.430   0.395
    1U3     C1'   15  -0.575  -0.410   0.250
    1U3     H1'   16  -0.645  -0.465   0.185
    1U3     H2'   17  -0.555  -0.500   0.445
    1U3     O2'   18  -0.760  -0.455   0.395
    1U3    HO2'   19  -0.800  -0.405   0.470
    1U3      N1   20  -0.435  -0.455   0.240
    1U3      C2   21  -0.400  -0.560   0.200
    1U3      O2   22  -0.480  -0.620   0.150
    1U3      N3   23  -0.300  -0.610   0.210
    1U3      H3   24  -0.270  -0.690   0.170
    1U3      C4   25  -0.200  -0.570   0.280
    1U3      O4   26  -0.120  -0.640   0.300
    1U3      C5   27  -0.210  -0.460   0.310
    1U3      H5   28  -0.150  -0.420   0.380
    1U3      C6   29  -0.310  -0.400   0.260
    1U3      H6   30  -0.340  -0.320   0.320
    2RU5    O5'   31  -0.039  -0.059  -1.116
    2RU5    C5'   32  -0.057   0.056  -1.036
    2RU5    H5'   33  -0.022   0.036  -0.933
    2RU5   H5''   34  -0.165   0.084  -1.033
    2RU5    C4'   35   0.022   0.171  -1.094
    2RU5    H4'   36   0.002   0.263  -1.037
    2RU5    O4'   37   0.164   0.139  -1.087
    2RU5    C3'   38  -0.009   0.184  -1.243
    2RU5    H3'   39  -0.028   0.083  -1.286
    2RU5    O3'   40  -0.124   0.265  -1.260
    2RU5    C2'   41   0.114   0.257  -1.297
    2RU5    C1'   42   0.223   0.208  -1.202
    2RU5    H1'   43   0.275   0.296  -1.158
    2RU5    H2'   44   0.136   0.222  -1.400
    2RU5    O2'   45   0.096   0.397  -1.280
    2RU5   HO'2   46   0.002   0.415  -1.282
    2RU5     N1   47   0.314   0.118  -1.274
    2RU5     C2   48   0.443   0.149  -1.313
    2RU5     O2   49   0.493   0.258  -1.288
    2RU5     N3   50   0.514   0.054  -1.379
    2RU5     H3   51   0.628   0.050  -1.428
    2RU5     C4   52   0.460  -0.066  -1.407
    2RU5     O4   53   0.534  -0.156  -1.472
    2RU5     C5   54   0.327  -0.098  -1.367
    2RU5     H5   55   0.287  -0.195  -1.390
    2RU5     C6   56   0.257  -0.002  -1.301
    2RU5     H6   57   0.157  -0.022  -1.269
    2RU5    H5T   58  -0.100  -0.079  -1.189
   4.49070   4.66690  10.00000
