This is RU
  114
    1U3       P    1  -0.300   0.010   0.340
    1U3     OP1    2  -0.350   0.130   0.410
    1U3     OP2    3  -0.170  -0.050   0.380
    1U3     O5'    4  -0.410  -0.100   0.360
    1U3     C5'    5  -0.550  -0.070   0.340
    1U3    H5'1    6  -0.565  -0.010   0.250
    1U3    H5'2    7  -0.585  -0.010   0.430
    1U3     C4'    8  -0.630  -0.200   0.330
    1U3     H4'    9  -0.735  -0.170   0.320
    1U3     O4'   10  -0.585  -0.275   0.215
    1U3     C3'   11  -0.605  -0.290   0.450
    1U3     H3'   12  -0.500  -0.270   0.490
    1U3     O3'   13  -0.700  -0.260   0.550
    1U3     C2'   14  -0.625  -0.430   0.395
    1U3     C1'   15  -0.575  -0.410   0.250
    1U3     H1'   16  -0.645  -0.465   0.185
    1U3     H2'   17  -0.555  -0.500   0.445
    1U3     O2'   18  -0.760  -0.455   0.395
    1U3    HO2'   19  -0.800  -0.405   0.470
    1U3      N1   20  -0.435  -0.455   0.240
    1U3      C2   21  -0.400  -0.560   0.200
    1U3      O2   22  -0.480  -0.620   0.150
    1U3      N3   23  -0.300  -0.610   0.210
    1U3      H3   24  -0.270  -0.690   0.170
    1U3      C4   25  -0.200  -0.570   0.280
    1U3      O4   26  -0.120  -0.640   0.300
    1U3      C5   27  -0.210  -0.460   0.310
    1U3      H5   28  -0.150  -0.420   0.380
    1U3      C6   29  -0.310  -0.400   0.260
    1U3      H6   30  -0.340  -0.320   0.320
    2RU5    O5'   31   0.282   0.102   0.982
    2RU5    C5'   32   0.313  -0.026   1.035
    2RU5    H5'   33   0.347  -0.015   1.140
    2RU5   H5''   34   0.393  -0.073   0.975
    2RU5    C4'   35   0.189  -0.113   1.033
    2RU5    H4'   36   0.215  -0.215   1.067
    2RU5    O4'   37   0.089  -0.056   1.121
    2RU5    C3'   38   0.128  -0.109   0.893
    2RU5    H3'   39   0.143  -0.009   0.848
    2RU5    O3'   40   0.190  -0.208   0.812
    2RU5    C2'   41  -0.017  -0.149   0.920
    2RU5    C1'   42  -0.039  -0.094   1.060
    2RU5    H1'   43  -0.077  -0.176   1.126
    2RU5    H2'   44  -0.084  -0.095   0.849
    2RU5    O2'   45  -0.028  -0.290   0.921
    2RU5   HO'2   46   0.041  -0.326   0.865
    2RU5     N1   47  -0.130   0.021   1.056
    2RU5     C2   48  -0.261   0.022   1.099
    2RU5     O2   49  -0.313  -0.079   1.147
    2RU5     N3   50  -0.332   0.137   1.087
    2RU5     H3   51  -0.448   0.170   1.113
    2RU5     C4   52  -0.275   0.247   1.035
    2RU5     O4   53  -0.348   0.359   1.025
    2RU5     C5   54  -0.139   0.247   0.990
    2RU5     H5   55  -0.097   0.337   0.949
    2RU5     C6   56  -0.071   0.131   1.002
    2RU5     H6   57   0.032   0.127   0.970
    2RU5    H5T   58   0.294   0.121   0.888
    3RU5    O5'   59   0.055   0.206   1.788
    3RU5    C5'   60  -0.067   0.261   1.835
    3RU5    H5'   61  -0.146   0.246   1.758
    3RU5   H5''   62  -0.055   0.369   1.854
    3RU5    C4'   63  -0.109   0.191   1.962
    3RU5    H4'   64  -0.200   0.239   2.003
    3RU5    O4'   65  -0.136   0.051   1.933
    3RU5    C3'   66   0.008   0.190   2.060
    3RU5    H3'   67   0.104   0.181   2.004
    3RU5    O3'   68   0.008   0.311   2.135
    3RU5    C2'   69  -0.026   0.073   2.151
    3RU5    C1'   70  -0.102  -0.019   2.057
    3RU5    H1'   71  -0.200  -0.045   2.102
    3RU5    H2'   72   0.068   0.022   2.184
    3RU5    O2'   73  -0.112   0.117   2.255
    3RU5   HO'2   74  -0.095   0.210   2.270
    3RU5     N1   75  -0.021  -0.139   2.027
    3RU5     C2   76  -0.045  -0.266   2.075
    3RU5     O2   77  -0.140  -0.289   2.150
    3RU5     N3   78   0.040  -0.365   2.039
    3RU5     H3   79   0.049  -0.485   2.065
    3RU5     C4   80   0.144  -0.340   1.957
    3RU5     O4   81   0.226  -0.440   1.923
    3RU5     C5   82   0.169  -0.208   1.907
    3RU5     H5   83   0.253  -0.192   1.842
    3RU5     C6   84   0.083  -0.111   1.946
    3RU5     H6   85   0.098  -0.010   1.910
    3RU5    H5T   86   0.140   0.244   1.815
    4RU5    O5'   87   0.045  -0.040   2.706
    4RU5    C5'   88   0.132   0.071   2.722
    4RU5    H5'   89   0.087   0.160   2.673
    4RU5   H5''   90   0.230   0.049   2.676
    4RU5    C4'   91   0.150   0.100   2.869
    4RU5    H4'   92   0.224   0.182   2.882
    4RU5    O4'   93   0.023   0.140   2.926
    4RU5    C3'   94   0.189  -0.029   2.942
    4RU5    H3'   95   0.138  -0.115   2.893
    4RU5    O3'   96   0.329  -0.046   2.935
    4RU5    C2'   97   0.147   0.001   3.085
    4RU5    C1'   98   0.029   0.095   3.065
    4RU5    H1'   99   0.045   0.188   3.124
    4RU5    H2'  100   0.111  -0.093   3.133
    4RU5    O2'  101   0.252   0.069   3.151
    4RU5   HO'2  102   0.335   0.044   3.110
    4RU5     N1  103  -0.096   0.027   3.102
    4RU5     C2  104  -0.171   0.052   3.215
    4RU5     O2  105  -0.137   0.138   3.296
    4RU5     N3  106  -0.284  -0.021   3.235
    4RU5     H3  107  -0.370  -0.025   3.324
    4RU5     C4  108  -0.322  -0.114   3.146
    4RU5     O4  109  -0.434  -0.184   3.169
    4RU5     C5  110  -0.245  -0.141   3.029
    4RU5     H5  111  -0.278  -0.217   2.960
    4RU5     C6  112  -0.132  -0.068   3.012
    4RU5     H6  113  -0.071  -0.084   2.924
    4RU5    H5T  114   0.080  -0.130   2.700
   4.49070   4.66690  10.00000
