This is RU
  114
    1U3       P    1  -0.300   0.010   0.340
    1U3     OP1    2  -0.350   0.130   0.410
    1U3     OP2    3  -0.170  -0.050   0.380
    1U3     O5'    4  -0.410  -0.100   0.360
    1U3     C5'    5  -0.550  -0.070   0.340
    1U3    H5'1    6  -0.565  -0.010   0.250
    1U3    H5'2    7  -0.585  -0.010   0.430
    1U3     C4'    8  -0.630  -0.200   0.330
    1U3     H4'    9  -0.735  -0.170   0.320
    1U3     O4'   10  -0.585  -0.275   0.215
    1U3     C3'   11  -0.605  -0.290   0.450
    1U3     H3'   12  -0.500  -0.270   0.490
    1U3     O3'   13  -0.700  -0.260   0.550
    1U3     C2'   14  -0.625  -0.430   0.395
    1U3     C1'   15  -0.575  -0.410   0.250
    1U3     H1'   16  -0.645  -0.465   0.185
    1U3     H2'   17  -0.555  -0.500   0.445
    1U3     O2'   18  -0.760  -0.455   0.395
    1U3    HO2'   19  -0.800  -0.405   0.470
    1U3      N1   20  -0.435  -0.455   0.240
    1U3      C2   21  -0.400  -0.560   0.200
    1U3      O2   22  -0.480  -0.620   0.150
    1U3      N3   23  -0.300  -0.610   0.210
    1U3      H3   24  -0.270  -0.690   0.170
    1U3      C4   25  -0.200  -0.570   0.280
    1U3      O4   26  -0.120  -0.640   0.300
    1U3      C5   27  -0.210  -0.460   0.310
    1U3      H5   28  -0.150  -0.420   0.380
    1U3      C6   29  -0.310  -0.400   0.260
    1U3      H6   30  -0.340  -0.320   0.320
    2RU5    O5'   31   0.054   0.112  -0.056
    2RU5    C5'   32   0.033   0.046   0.068
    2RU5    H5'   33  -0.046  -0.030   0.056
    2RU5   H5''   34   0.004   0.119   0.145
    2RU5    C4'   35   0.161  -0.023   0.110
    2RU5    H4'   36   0.148  -0.067   0.211
    2RU5    O4'   37   0.194  -0.127   0.014
    2RU5    C3'   38   0.277   0.077   0.103
    2RU5    H3'   39   0.260   0.147   0.018
    2RU5    O3'   40   0.284   0.150   0.225
    2RU5    C2'   41   0.398  -0.014   0.090
    2RU5    C1'   42   0.340  -0.134   0.016
    2RU5    H1'   43   0.362  -0.227   0.073
    2RU5    H2'   44   0.475   0.035   0.026
    2RU5    O2'   45   0.441  -0.054   0.220
    2RU5   HO'2   46   0.416   0.014   0.282
    2RU5     N1   47   0.393  -0.138  -0.121
    2RU5     C2   48   0.485  -0.228  -0.169
    2RU5     O2   49   0.532  -0.316  -0.097
    2RU5     N3   50   0.524  -0.218  -0.299
    2RU5     H3   51   0.604  -0.279  -0.370
    2RU5     C4   52   0.473  -0.122  -0.378
    2RU5     O4   53   0.514  -0.115  -0.505
    2RU5     C5   54   0.377  -0.028  -0.329
    2RU5     H5   55   0.338   0.047  -0.395
    2RU5     C6   56   0.340  -0.040  -0.199
    2RU5     H6   57   0.268   0.028  -0.158
    2RU5    H5T   58   0.082   0.205  -0.059
    3RU5    O5'   59  -0.060  -0.107   1.059
    3RU5    C5'   60  -0.082  -0.002   0.967
    3RU5    H5'   61  -0.005   0.076   0.981
    3RU5   H5''   62  -0.182   0.042   0.984
    3RU5    C4'   63  -0.073  -0.055   0.826
    3RU5    H4'   64  -0.099   0.024   0.754
    3RU5    O4'   65   0.062  -0.103   0.801
    3RU5    C3'   66  -0.162  -0.179   0.813
    3RU5    H3'   67  -0.162  -0.235   0.910
    3RU5    O3'   68  -0.294  -0.139   0.782
    3RU5    C2'   69  -0.101  -0.252   0.694
    3RU5    C1'   70   0.046  -0.212   0.705
    3RU5    H1'   71   0.080  -0.169   0.609
    3RU5    H2'   72  -0.110  -0.362   0.709
    3RU5    O2'   73  -0.155  -0.200   0.574
    3RU5   HO'2   74  -0.243  -0.167   0.593
    3RU5     N1   75   0.127  -0.328   0.746
    3RU5     C2   76   0.213  -0.399   0.665
    3RU5     O2   77   0.230  -0.367   0.548
    3RU5     N3   78   0.279  -0.504   0.719
    3RU5     H3   79   0.360  -0.587   0.675
    3RU5     C4   80   0.262  -0.538   0.847
    3RU5     O4   81   0.329  -0.643   0.896
    3RU5     C5   82   0.172  -0.466   0.932
    3RU5     H5   83   0.160  -0.496   1.035
    3RU5     C6   84   0.106  -0.361   0.876
    3RU5     H6   85   0.038  -0.303   0.937
    3RU5    H5T   86  -0.134  -0.159   1.095
    4RU5    O5'   87   0.091  -0.098   2.026
    4RU5    C5'   88   0.061   0.007   1.937
    4RU5    H5'   89  -0.046   0.035   1.946
    4RU5   H5''   90   0.081  -0.025   1.833
    4RU5    C4'   91   0.147   0.127   1.970
    4RU5    H4'   92   0.130   0.207   1.895
    4RU5    O4'   93   0.112   0.176   2.102
    4RU5    C3'   94   0.293   0.084   1.980
    4RU5    H3'   95   0.298  -0.020   2.021
    4RU5    O3'   96   0.352   0.086   1.851
    4RU5    C2'   97   0.354   0.193   2.067
    4RU5    C1'   98   0.236   0.233   2.154
    4RU5    H1'   99   0.221   0.343   2.148
    4RU5    H2'  100   0.434   0.149   2.131
    4RU5    O2'  101   0.392   0.302   1.985
    4RU5   HO'2  102   0.412   0.268   1.898
    4RU5     N1  103   0.259   0.188   2.293
    4RU5     C2  104   0.290   0.270   2.400
    4RU5     O2  105   0.301   0.391   2.386
    4RU5     N3  106   0.308   0.212   2.521
    4RU5     H3  107   0.338   0.254   2.633
    4RU5     C4  108   0.296   0.079   2.536
    4RU5     O4  109   0.315   0.026   2.658
    4RU5     C5  110   0.264  -0.006   2.426
    4RU5     H5  111   0.255  -0.112   2.442
    4RU5     C6  112   0.247   0.053   2.306
    4RU5     H6  113   0.222  -0.007   2.220
    4RU5    H5T  114   0.158  -0.165   2.004
   4.49070   4.66690  10.00000
