This is U3
   89
    1U3       P    1   1.316   2.367   8.918
    1U3     OP1    2   1.266   2.487   8.988
    1U3     OP2    3   1.446   2.307   8.958
    1U3     O5'    4   1.206   2.257   8.938
    1U3     C5'    5   1.066   2.287   8.918
    1U3    H5'1    6   1.051   2.347   8.828
    1U3    H5'2    7   1.031   2.347   9.008
    1U3     C4'    8   0.986   2.157   8.908
    1U3     H4'    9   0.881   2.187   8.898
    1U3     O4'   10   1.031   2.082   8.793
    1U3     C3'   11   1.011   2.067   9.028
    1U3     H3'   12   1.116   2.087   9.068
    1U3     O3'   13   0.916   2.097   9.128
    1U3     C2'   14   0.991   1.927   8.973
    1U3     C1'   15   1.041   1.947   8.828
    1U3     H1'   16   0.971   1.892   8.763
    1U3     H2'   17   1.061   1.857   9.023
    1U3     O2'   18   0.856   1.902   8.973
    1U3    HO2'   19   0.816   1.952   9.048
    1U3      N1   20   1.181   1.902   8.818
    1U3      C2   21   1.216   1.797   8.778
    1U3      O2   22   1.136   1.737   8.728
    1U3      N3   23   1.316   1.747   8.788
    1U3      H3   24   1.346   1.667   8.748
    1U3      C4   25   1.416   1.787   8.858
    1U3      O4   26   1.496   1.717   8.878
    1U3      C5   27   1.406   1.897   8.888
    1U3      H5   28   1.466   1.937   8.958
    1U3      C6   29   1.306   1.957   8.838
    1U3      H6   30   1.276   2.037   8.898
    1U3     H3T   31   0.931   2.172   9.188
    2U3       P   32   2.317   2.303   2.192
    2U3     OP1   33   2.213   2.274   2.092
    2U3     OP2   34   2.461   2.292   2.154
    2U3     O5'   35   2.292   2.450   2.238
    2U3     C5'   36   2.159   2.496   2.272
    2U3    H5'1   37   2.106   2.422   2.333
    2U3    H5'2   38   2.103   2.511   2.175
    2U3     C4'   39   2.168   2.629   2.347
    2U3     H4'   40   2.064   2.660   2.365
    2U3     O4'   41   2.239   2.609   2.471
    2U3     C3'   42   2.248   2.732   2.270
    2U3     H3'   43   2.326   2.678   2.205
    2U3     O3'   44   2.161   2.805   2.187
    2U3     C2'   45   2.309   2.820   2.378
    2U3     C1'   46   2.328   2.716   2.491
    2U3     H1'   47   2.297   2.765   2.584
    2U3     H2'   48   2.409   2.854   2.346
    2U3     O2'   49   2.213   2.911   2.414
    2U3    HO2'   50   2.157   2.929   2.335
    2U3      N1   51   2.467   2.668   2.490
    2U3      C2   52   2.553   2.707   2.560
    2U3      O2   53   2.518   2.772   2.644
    2U3      N3   54   2.664   2.693   2.551
    2U3      H3   55   2.731   2.717   2.612
    2U3      C4   56   2.727   2.640   2.453
    2U3      O4   57   2.834   2.655   2.446
    2U3      C5   58   2.658   2.579   2.385
    2U3      H5   59   2.689   2.548   2.294
    2U3      C6   60   2.539   2.569   2.426
    2U3      H6   61   2.473   2.553   2.346
    3RU5    O5'   62   2.466   1.583   3.477
    3RU5    C5'   63   2.391   1.544   3.364
    3RU5    H5'   64   2.439   1.584   3.272
    3RU5   H5''   65   2.287   1.584   3.371
    3RU5    C4'   66   2.386   1.393   3.356
    3RU5    H4'   67   2.321   1.363   3.272
    3RU5    O4'   68   2.520   1.342   3.334
    3RU5    C3'   69   2.342   1.337   3.491
    3RU5    H3'   70   2.382   1.401   3.573
    3RU5    O3'   71   2.201   1.334   3.497
    3RU5    C2'   72   2.397   1.194   3.487
    3RU5    C1'   73   2.521   1.211   3.399
    3RU5    H1'   74   2.516   1.138   3.315
    3RU5    H2'   75   2.428   1.163   3.589
    3RU5    O2'   76   2.303   1.110   3.420
    3RU5   HO'2   77   2.216   1.148   3.433
    3RU5     N1   78   2.641   1.195   3.481
    3RU5     C2   79   2.726   1.086   3.479
    3RU5     O2   80   2.706   0.991   3.404
    3RU5     N3   81   2.834   1.087   3.561
    3RU5     H3   82   2.926   1.007   3.585
    3RU5     C4   83   2.857   1.191   3.644
    3RU5     O4   84   2.964   1.187   3.723
    3RU5     C5   85   2.769   1.304   3.646
    3RU5     H5   86   2.791   1.385   3.713
    3RU5     C6   87   2.662   1.301   3.563
    3RU5     H6   88   2.594   1.384   3.562
    3RU5    H5T   89   2.423   1.599   3.563
   4.49070   4.66690  10.00000
