This is RU
   58
    1U3       P    1   1.854   2.130   5.771
    1U3     OP1    2   1.804   2.250   5.841
    1U3     OP2    3   1.984   2.070   5.811
    1U3     O5'    4   1.744   2.020   5.791
    1U3     C5'    5   1.604   2.050   5.771
    1U3    H5'1    6   1.589   2.110   5.681
    1U3    H5'2    7   1.569   2.110   5.861
    1U3     C4'    8   1.524   1.920   5.761
    1U3     H4'    9   1.419   1.950   5.751
    1U3     O4'   10   1.569   1.845   5.646
    1U3     C3'   11   1.549   1.830   5.881
    1U3     H3'   12   1.654   1.850   5.921
    1U3     O3'   13   1.454   1.860   5.981
    1U3     C2'   14   1.529   1.690   5.826
    1U3     C1'   15   1.579   1.710   5.681
    1U3     H1'   16   1.509   1.655   5.616
    1U3     H2'   17   1.599   1.620   5.876
    1U3     O2'   18   1.394   1.665   5.826
    1U3    HO2'   19   1.354   1.715   5.901
    1U3      N1   20   1.719   1.665   5.671
    1U3      C2   21   1.754   1.560   5.631
    1U3      O2   22   1.674   1.500   5.581
    1U3      N3   23   1.854   1.510   5.641
    1U3      H3   24   1.884   1.430   5.601
    1U3      C4   25   1.954   1.550   5.711
    1U3      O4   26   2.034   1.480   5.731
    1U3      C5   27   1.944   1.660   5.741
    1U3      H5   28   2.004   1.700   5.811
    1U3      C6   29   1.844   1.720   5.691
    1U3      H6   30   1.814   1.800   5.751
    2RU5    O5'   31   2.115   2.061   4.315
    2RU5    C5'   32   2.097   2.176   4.395
    2RU5    H5'   33   2.132   2.156   4.498
    2RU5   H5''   34   1.989   2.204   4.398
    2RU5    C4'   35   2.176   2.291   4.337
    2RU5    H4'   36   2.156   2.383   4.394
    2RU5    O4'   37   2.318   2.259   4.344
    2RU5    C3'   38   2.145   2.304   4.188
    2RU5    H3'   39   2.126   2.203   4.145
    2RU5    O3'   40   2.030   2.385   4.171
    2RU5    C2'   41   2.268   2.377   4.134
    2RU5    C1'   42   2.377   2.328   4.229
    2RU5    H1'   43   2.429   2.416   4.273
    2RU5    H2'   44   2.290   2.342   4.031
    2RU5    O2'   45   2.250   2.517   4.151
    2RU5   HO'2   46   2.156   2.535   4.149
    2RU5     N1   47   2.468   2.238   4.157
    2RU5     C2   48   2.597   2.269   4.118
    2RU5     O2   49   2.647   2.378   4.143
    2RU5     N3   50   2.668   2.174   4.052
    2RU5     H3   51   2.782   2.170   4.003
    2RU5     C4   52   2.614   2.054   4.024
    2RU5     O4   53   2.688   1.964   3.959
    2RU5     C5   54   2.481   2.022   4.064
    2RU5     H5   55   2.441   1.925   4.041
    2RU5     C6   56   2.411   2.118   4.130
    2RU5     H6   57   2.311   2.098   4.162
    2RU5    H5T   58   2.054   2.041   4.242
   4.49070   4.66690  10.00000
