This is 5 End U
  118
    1RU5    O5'    1  -0.023  -0.097   0.093
    1RU5    C5'    2  -0.054   0.037   0.059
    1RU5    H5'    3   0.020   0.075  -0.014
    1RU5   H5''    4  -0.052   0.100   0.150
    1RU5    C4'    5  -0.192   0.043  -0.003
    1RU5    H4'    6  -0.220   0.148  -0.022
    1RU5    O4'    7  -0.191  -0.031  -0.128
    1RU5    C3'    8  -0.291  -0.031   0.087
    1RU5    H3'    9  -0.240  -0.117   0.136
    1RU5    O3'   10  -0.340   0.058   0.186
    1RU5    C2'   11  -0.403  -0.067  -0.010
    1RU5    C1'   12  -0.327  -0.083  -0.141
    1RU5    H1'   13  -0.374  -0.019  -0.219
    1RU5    H2'   14  -0.447  -0.165   0.019
    1RU5    O2'   15  -0.493   0.042  -0.020
    1RU5   HO'2   16  -0.490   0.091   0.062
    1RU5     N1   17  -0.324  -0.225  -0.180
    1RU5     C2   18  -0.396  -0.282  -0.283
    1RU5     O2   19  -0.471  -0.214  -0.353
    1RU5     N3   20  -0.382  -0.415  -0.305
    1RU5     H3   21  -0.432  -0.495  -0.385
    1RU5     C4   22  -0.300  -0.489  -0.229
    1RU5     O4   23  -0.289  -0.620  -0.254
    1RU5     C5   24  -0.225  -0.431  -0.122
    1RU5     H5   25  -0.160  -0.493  -0.063
    1RU5     C6   26  -0.241  -0.298  -0.101
    1RU5     H6   27  -0.186  -0.250  -0.022
    1RU5    H5T   28  -0.043  -0.132   0.181
    2U3       P   29   1.832   0.636   3.024
    2U3     OP1   30   1.882   0.773   3.045
    2U3     OP2   31   1.919   0.535   2.958
    2U3     O5'   32   1.798   0.581   3.166
    2U3     C5'   33   1.723   0.660   3.261
    2U3    H5'1   34   1.639   0.710   3.213
    2U3    H5'2   35   1.793   0.740   3.302
    2U3     C4'   36   1.672   0.572   3.375
    2U3     H4'   37   1.621   0.639   3.445
    2U3     O4'   38   1.583   0.472   3.322
    2U3     C3'   39   1.786   0.494   3.440
    2U3     H3'   40   1.868   0.476   3.362
    2U3     O3'   41   1.839   0.571   3.546
    2U3     C2'   42   1.720   0.368   3.490
    2U3     C1'   43   1.610   0.349   3.383
    2U3     H1'   44   1.519   0.318   3.436
    2U3     H2'   45   1.790   0.282   3.482
    2U3     O2'   46   1.662   0.398   3.611
    2U3    HO2'   47   1.716   0.468   3.654
    2U3      N1   48   1.657   0.252   3.282
    2U3      C2   49   1.629   0.138   3.279
    2U3      O2   50   1.547   0.108   3.349
    2U3      N3   51   1.677   0.054   3.222
    2U3      H3   52   1.649  -0.035   3.213
    2U3      C4   53   1.785   0.060   3.152
    2U3      O4   54   1.832  -0.033   3.123
    2U3      C5   55   1.814   0.168   3.128
    2U3      H5   56   1.905   0.189   3.091
    2U3      C6   57   1.731   0.256   3.165
    2U3      H6   58   1.777   0.348   3.182
    3U3       P   59   3.126   2.664   5.808
    3U3     OP1   60   3.007   2.677   5.895
    3U3     OP2   61   3.189   2.531   5.788
    3U3     O5'   62   3.081   2.716   5.667
    3U3     C5'   63   3.006   2.839   5.652
    3U3    H5'1   64   3.047   2.918   5.716
    3U3    H5'2   65   2.899   2.818   5.685
    3U3     C4'   66   3.008   2.884   5.506
    3U3     H4'   67   2.945   2.974   5.502
    3U3     O4'   68   3.144   2.911   5.466
    3U3     C3'   69   2.959   2.774   5.414
    3U3     H3'   70   2.983   2.672   5.461
    3U3     O3'   71   2.819   2.786   5.398
    3U3     C2'   72   3.032   2.801   5.284
    3U3     C1'   73   3.164   2.859   5.338
    3U3     H1'   74   3.190   2.944   5.273
    3U3     H2'   75   3.056   2.704   5.234
    3U3     O2'   76   2.962   2.898   5.217
    3U3    HO2'   77   2.866   2.888   5.241
    3U3      N1   78   3.266   2.753   5.342
    3U3      C2   79   3.349   2.734   5.260
    3U3      O2   80   3.359   2.816   5.185
    3U3      N3   81   3.414   2.645   5.244
    3U3      H3   82   3.486   2.634   5.184
    3U3      C4   83   3.407   2.531   5.304
    3U3      O4   84   3.459   2.447   5.262
    3U3      C5   85   3.344   2.538   5.400
    3U3      H5   86   3.314   2.455   5.448
    3U3      C6   87   3.306   2.655   5.431
    3U3      H6   88   3.219   2.652   5.488
    4U3       P   89   2.180   1.680   3.073
    4U3     OP1   90   2.068   1.777   3.074
    4U3     OP2   91   2.210   1.601   3.195
    4U3     O5'   92   2.148   1.579   2.958
    4U3     C5'   93   2.104   1.625   2.828
    4U3    H5'1   94   2.163   1.711   2.795
    4U3    H5'2   95   1.995   1.657   2.838
    4U3     C4'   96   2.115   1.512   2.726
    4U3     H4'   97   2.076   1.552   2.632
    4U3     O4'   98   2.253   1.472   2.714
    4U3     C3'   99   2.041   1.387   2.773
    4U3     H3'  100   2.041   1.385   2.887
    4U3     O3'  101   1.908   1.393   2.726
    4U3     C2'  102   2.118   1.273   2.709
    4U3     C1'  103   2.260   1.333   2.709
    4U3     H1'  104   2.305   1.306   2.612
    4U3     H2'  105   2.118   1.186   2.777
    4U3     O2'  106   2.072   1.260   2.580
    4U3    HO2'  107   1.977   1.288   2.579
    4U3      N1  108   2.335   1.281   2.826
    4U3      C2  109   2.410   1.191   2.824
    4U3      O2  110   2.439   1.156   2.722
    4U3      N3  111   2.453   1.133   2.910
    4U3      H3  112   2.520   1.067   2.908
    4U3      C4  113   2.419   1.141   3.034
    4U3      O4  114   2.450   1.062   3.101
    4U3      C5  115   2.361   1.237   3.056
    4U3      H5  116   2.311   1.248   3.143
    4U3      C6  117   2.351   1.317   2.958
    4U3      H6  118   2.266   1.377   2.966
   4.49070   4.66690  10.00000
