This is RU
  114
    1U3       P    1  -0.300   0.010   0.340
    1U3     OP1    2  -0.350   0.130   0.410
    1U3     OP2    3  -0.170  -0.050   0.380
    1U3     O5'    4  -0.410  -0.100   0.360
    1U3     C5'    5  -0.550  -0.070   0.340
    1U3    H5'1    6  -0.565  -0.010   0.250
    1U3    H5'2    7  -0.585  -0.010   0.430
    1U3     C4'    8  -0.630  -0.200   0.330
    1U3     H4'    9  -0.735  -0.170   0.320
    1U3     O4'   10  -0.585  -0.275   0.215
    1U3     C3'   11  -0.605  -0.290   0.450
    1U3     H3'   12  -0.500  -0.270   0.490
    1U3     O3'   13  -0.700  -0.260   0.550
    1U3     C2'   14  -0.625  -0.430   0.395
    1U3     C1'   15  -0.575  -0.410   0.250
    1U3     H1'   16  -0.645  -0.465   0.185
    1U3     H2'   17  -0.555  -0.500   0.445
    1U3     O2'   18  -0.760  -0.455   0.395
    1U3    HO2'   19  -0.800  -0.405   0.470
    1U3      N1   20  -0.435  -0.455   0.240
    1U3      C2   21  -0.400  -0.560   0.200
    1U3      O2   22  -0.480  -0.620   0.150
    1U3      N3   23  -0.300  -0.610   0.210
    1U3      H3   24  -0.270  -0.690   0.170
    1U3      C4   25  -0.200  -0.570   0.280
    1U3      O4   26  -0.120  -0.640   0.300
    1U3      C5   27  -0.210  -0.460   0.310
    1U3      H5   28  -0.150  -0.420   0.380
    1U3      C6   29  -0.310  -0.400   0.260
    1U3      H6   30  -0.340  -0.320   0.320
    2RU5    O5'   31   0.002   0.299   0.980
    2RU5    C5'   32   0.088   0.274   0.871
    2RU5    H5'   33   0.191   0.305   0.897
    2RU5   H5''   34   0.054   0.331   0.782
    2RU5    C4'   35   0.087   0.126   0.838
    2RU5    H4'   36   0.148   0.108   0.748
    2RU5    O4'   37   0.143   0.053   0.951
    2RU5    C3'   38  -0.057   0.078   0.826
    2RU5    H3'   39  -0.122   0.135   0.897
    2RU5    O3'   40  -0.103   0.100   0.693
    2RU5    C2'   41  -0.045  -0.071   0.852
    2RU5    C1'   42   0.074  -0.076   0.947
    2RU5    H1'   43   0.150  -0.147   0.908
    2RU5    H2'   44  -0.136  -0.107   0.906
    2RU5    O2'   45  -0.012  -0.137   0.731
    2RU5   HO'2   46  -0.047  -0.086   0.659
    2RU5     N1   47   0.029  -0.113   1.082
    2RU5     C2   48   0.049  -0.235   1.144
    2RU5     O2   49   0.111  -0.325   1.087
    2RU5     N3   50  -0.000  -0.253   1.269
    2RU5     H3   51  -0.001  -0.347   1.349
    2RU5     C4   52  -0.067  -0.155   1.331
    2RU5     O4   53  -0.114  -0.176   1.454
    2RU5     C5   54  -0.089  -0.028   1.268
    2RU5     H5   55  -0.143   0.049   1.321
    2RU5     C6   56  -0.040  -0.013   1.143
    2RU5     H6   57  -0.053   0.081   1.092
    2RU5    H5T   58  -0.091   0.323   0.966
    3RU5    O5'   59   0.282   0.084   1.941
    3RU5    C5'   60   0.261   0.170   2.051
    3RU5    H5'   61   0.254   0.275   2.015
    3RU5   H5''   62   0.346   0.161   2.122
    3RU5    C4'   63   0.132   0.133   2.121
    3RU5    H4'   64   0.120   0.195   2.211
    3RU5    O4'   65   0.021   0.156   2.030
    3RU5    C3'   66   0.132  -0.017   2.149
    3RU5    H3'   67   0.185  -0.071   2.067
    3RU5    O3'   68   0.197  -0.042   2.272
    3RU5    C2'   69  -0.017  -0.047   2.162
    3RU5    C1'   70  -0.079   0.056   2.069
    3RU5    H1'   71  -0.156   0.114   2.124
    3RU5    H2'   72  -0.038  -0.149   2.123
    3RU5    O2'   73  -0.058  -0.022   2.295
    3RU5   HO'2   74   0.017  -0.034   2.353
    3RU5     N1   75  -0.133  -0.011   1.949
    3RU5     C2   76  -0.267  -0.029   1.921
    3RU5     O2   77  -0.354   0.012   1.998
    3RU5     N3   78  -0.300  -0.094   1.807
    3RU5     H3   79  -0.407  -0.127   1.754
    3RU5     C4   80  -0.205  -0.138   1.723
    3RU5     O4   81  -0.242  -0.201   1.611
    3RU5     C5   82  -0.066  -0.119   1.751
    3RU5     H5   83   0.007  -0.156   1.682
    3RU5     C6   84  -0.035  -0.055   1.866
    3RU5     H6   85   0.068  -0.039   1.891
    3RU5    H5T   86   0.333   0.002   1.950
    4RU5    O5'   87  -0.029   0.196   2.775
    4RU5    C5'   88  -0.036   0.079   2.696
    4RU5    H5'   89   0.057   0.069   2.636
    4RU5   H5''   90  -0.123   0.084   2.629
    4RU5    C4'   91  -0.049  -0.042   2.786
    4RU5    H4'   92  -0.062  -0.133   2.726
    4RU5    O4'   93   0.071  -0.054   2.867
    4RU5    C3'   94  -0.163  -0.018   2.886
    4RU5    H3'   95  -0.167   0.090   2.912
    4RU5    O3'   96  -0.285  -0.058   2.827
    4RU5    C2'   97  -0.127  -0.113   3.000
    4RU5    C1'   98   0.025  -0.116   2.992
    4RU5    H1'   99   0.060  -0.221   2.986
    4RU5    H2'  100  -0.158  -0.068   3.097
    4RU5    O2'  101  -0.178  -0.242   2.971
    4RU5   HO'2  102  -0.255  -0.232   2.916
    4RU5     N1  103   0.083  -0.045   3.108
    4RU5     C2  104   0.146  -0.104   3.215
    4RU5     O2  105   0.160  -0.226   3.221
    4RU5     N3  106   0.192  -0.024   3.314
    4RU5     H3  107   0.250  -0.044   3.422
    4RU5     C4  108   0.177   0.109   3.308
    4RU5     O4  109   0.225   0.185   3.407
    4RU5     C5  110   0.112   0.172   3.197
    4RU5     H5  111   0.102   0.278   3.194
    4RU5     C6  112   0.065   0.090   3.099
    4RU5     H6  113   0.016   0.132   3.014
    4RU5    H5T  114  -0.109   0.246   2.797
   4.49070   4.66690  10.00000
