This is 5 End U
  118
    1RU5    O5'    1  -0.023  -0.097   0.093
    1RU5    C5'    2  -0.054   0.037   0.059
    1RU5    H5'    3   0.020   0.075  -0.014
    1RU5   H5''    4  -0.052   0.100   0.150
    1RU5    C4'    5  -0.192   0.043  -0.003
    1RU5    H4'    6  -0.220   0.148  -0.022
    1RU5    O4'    7  -0.191  -0.031  -0.128
    1RU5    C3'    8  -0.291  -0.031   0.087
    1RU5    H3'    9  -0.240  -0.117   0.136
    1RU5    O3'   10  -0.340   0.058   0.186
    1RU5    C2'   11  -0.403  -0.067  -0.010
    1RU5    C1'   12  -0.327  -0.083  -0.141
    1RU5    H1'   13  -0.374  -0.019  -0.219
    1RU5    H2'   14  -0.447  -0.165   0.019
    1RU5    O2'   15  -0.493   0.042  -0.020
    1RU5   HO'2   16  -0.490   0.091   0.062
    1RU5     N1   17  -0.324  -0.225  -0.180
    1RU5     C2   18  -0.396  -0.282  -0.283
    1RU5     O2   19  -0.471  -0.214  -0.353
    1RU5     N3   20  -0.382  -0.415  -0.305
    1RU5     H3   21  -0.432  -0.495  -0.385
    1RU5     C4   22  -0.300  -0.489  -0.229
    1RU5     O4   23  -0.289  -0.620  -0.254
    1RU5     C5   24  -0.225  -0.431  -0.122
    1RU5     H5   25  -0.160  -0.493  -0.063
    1RU5     C6   26  -0.241  -0.298  -0.101
    1RU5     H6   27  -0.186  -0.250  -0.022
    1RU5    H5T   28  -0.043  -0.132   0.181
    2U3       P   29  -0.138   0.405  -0.151
    2U3     OP1   30  -0.054   0.508  -0.215
    2U3     OP2   31  -0.143   0.394  -0.003
    2U3     O5'   32  -0.284   0.432  -0.201
    2U3     C5'   33  -0.312   0.458  -0.340
    2U3    H5'1   34  -0.256   0.390  -0.405
    2U3    H5'2   35  -0.278   0.564  -0.362
    2U3     C4'   36  -0.462   0.445  -0.367
    2U3     H4'   37  -0.476   0.471  -0.472
    2U3     O4'   38  -0.503   0.309  -0.339
    2U3     C3'   39  -0.543   0.533  -0.272
    2U3     H3'   40  -0.485   0.545  -0.175
    2U3     O3'   41  -0.561   0.659  -0.333
    2U3     C2'   42  -0.674   0.459  -0.258
    2U3     C1'   43  -0.625   0.312  -0.270
    2U3     H1'   44  -0.699   0.260  -0.333
    2U3     H2'   45  -0.714   0.472  -0.155
    2U3     O2'   46  -0.752   0.491  -0.367
    2U3    HO2'   47  -0.728   0.583  -0.394
    2U3      N1   48  -0.609   0.255  -0.135
    2U3      C2   49  -0.687   0.187  -0.080
    2U3      O2   50  -0.771   0.150  -0.145
    2U3      N3   51  -0.693   0.158   0.028
    2U3      H3   52  -0.751   0.096   0.070
    2U3      C4   53  -0.621   0.204   0.124
    2U3      O4   54  -0.654   0.187   0.226
    2U3      C5   55  -0.527   0.257   0.086
    2U3      H5   56  -0.472   0.315   0.147
    2U3      C6   57  -0.509   0.250  -0.039
    2U3      H6   58  -0.453   0.331  -0.074
    3U3       P   59  -0.265  -0.366   1.043
    3U3     OP1   60  -0.255  -0.470   1.147
    3U3     OP2   61  -0.177  -0.372   0.924
    3U3     O5'   62  -0.413  -0.370   0.992
    3U3     C5'   63  -0.524  -0.376   1.085
    3U3    H5'1   64  -0.509  -0.307   1.168
    3U3    H5'2   65  -0.528  -0.482   1.126
    3U3     C4'   66  -0.654  -0.343   1.012
    3U3     H4'   67  -0.734  -0.355   1.087
    3U3     O4'   68  -0.647  -0.208   0.962
    3U3     C3'   69  -0.674  -0.432   0.890
    3U3     H3'   70  -0.571  -0.462   0.850
    3U3     O3'   71  -0.745  -0.547   0.929
    3U3     C2'   72  -0.755  -0.346   0.796
    3U3     C1'   73  -0.701  -0.206   0.832
    3U3     H1'   74  -0.787  -0.138   0.835
    3U3     H2'   75  -0.725  -0.367   0.691
    3U3     O2'   76  -0.887  -0.356   0.834
    3U3    HO2'   77  -0.900  -0.446   0.873
    3U3      N1   78  -0.596  -0.167   0.735
    3U3      C2   79  -0.613  -0.097   0.642
    3U3      O2   80  -0.711  -0.044   0.640
    3U3      N3   81  -0.547  -0.082   0.552
    3U3      H3   82  -0.557  -0.019   0.483
    3U3      C4   83  -0.440  -0.147   0.523
    3U3      O4   84  -0.401  -0.138   0.422
    3U3      C5   85  -0.399  -0.205   0.612
    3U3      H5   86  -0.328  -0.275   0.600
    3U3      C6   87  -0.460  -0.185   0.721
    3U3      H6   88  -0.451  -0.267   0.786
    4U3       P   89   0.052  -0.423   2.156
    4U3     OP1   90   0.069  -0.545   2.075
    4U3     OP2   91  -0.084  -0.369   2.181
    4U3     O5'   92   0.116  -0.455   2.296
    4U3     C5'   93   0.245  -0.519   2.306
    4U3    H5'1   94   0.316  -0.476   2.235
    4U3    H5'2   95   0.230  -0.629   2.281
    4U3     C4'   96   0.298  -0.505   2.449
    4U3     H4'   97   0.393  -0.560   2.451
    4U3     O4'   98   0.317  -0.365   2.480
    4U3     C3'   99   0.198  -0.557   2.551
    4U3     H3'  100   0.093  -0.543   2.509
    4U3     O3'  101   0.222  -0.694   2.574
    4U3     C2'  102   0.227  -0.474   2.675
    4U3     C1'  103   0.271  -0.341   2.610
    4U3     H1'  104   0.357  -0.305   2.668
    4U3     H2'  105   0.132  -0.455   2.729
    4U3     O2'  106   0.333  -0.532   2.739
    4U3    HO2'  107   0.330  -0.629   2.721
    4U3      N1  108   0.157  -0.248   2.606
    4U3      C2  109   0.137  -0.162   2.685
    4U3      O2  110   0.222  -0.141   2.754
    4U3      N3  111   0.043  -0.103   2.703
    4U3      H3  112   0.031  -0.028   2.759
    4U3      C4  113  -0.072  -0.123   2.650
    4U3      O4  114  -0.158  -0.074   2.695
    4U3      C5  115  -0.066  -0.190   2.558
    4U3      H5  116  -0.150  -0.230   2.518
    4U3      C6  117   0.051  -0.221   2.522
    4U3      H6  118   0.052  -0.311   2.470
   4.49070   4.66690  10.00000
