Great Red Owns Many ACres of Sand 
  149
    1U     HO5'    1   0.034   0.088  -0.043
    1U      O5'    2   0.025   0.112   0.050
    1U      C5'    3   0.156   0.143   0.099
    1U      H5'    4   0.158   0.246   0.133
    1U     H5''    5   0.229   0.131   0.019
    1U      C4'    6   0.194   0.052   0.214
    1U      H4'    7   0.299   0.026   0.202
    1U      O4'    8   0.164   0.121   0.339
    1U      C1'    9   0.062   0.052   0.409
    1U      H1'   10   0.111  -0.002   0.491
    1U       N1   11  -0.030   0.151   0.467
    1U       C6   12  -0.073   0.259   0.393
    1U       H6   13  -0.038   0.271   0.291
    1U       C2   14  -0.071   0.132   0.597
    1U       O2   15  -0.036   0.038   0.665
    1U       N3   16  -0.157   0.228   0.645
    1U       H3   17  -0.189   0.216   0.740
    1U       C4   18  -0.204   0.338   0.578
    1U       O4   19  -0.280   0.416   0.635
    1U       C5   20  -0.156   0.350   0.443
    1U       H5   21  -0.188   0.435   0.382
    1U      C2'   22  -0.003  -0.043   0.309
    1U      H2'   23  -0.079   0.007   0.250
    1U      O2'   24  -0.053  -0.156   0.379
    1U     HO2'   25  -0.095  -0.212   0.314
    1U      C3'   26   0.117  -0.079   0.222
    1U      H3'   27   0.087  -0.115   0.123
    1U      O3'   28   0.197  -0.183   0.279
    2U        P   29   0.154  -0.337   0.262
    2U      OP1   30   0.027  -0.341   0.185
    2U      OP2   31   0.162  -0.402   0.394
    2U      O5'   32   0.269  -0.398   0.169
    2U      C5'   33   0.402  -0.415   0.218
    2U      H5'   34   0.405  -0.500   0.287
    2U     H5''   35   0.433  -0.325   0.271
    2U      C4'   36   0.497  -0.440   0.104
    2U      H4'   37   0.597  -0.448   0.145
    2U      O4'   38   0.454  -0.560   0.033
    2U      C1'   39   0.410  -0.526  -0.097
    2U      H1'   40   0.486  -0.560  -0.167
    2U       N1   41   0.286  -0.600  -0.125
    2U       C6   42   0.187  -0.612  -0.030
    2U       H6   43   0.201  -0.565   0.067
    2U       C2   44   0.272  -0.659  -0.249
    2U       O2   45   0.358  -0.651  -0.336
    2U       N3   46   0.155  -0.727  -0.269
    2U       H3   47   0.143  -0.770  -0.359
    2U       C4   48   0.052  -0.742  -0.179
    2U       O4   49  -0.048  -0.807  -0.212
    2U       C5   50   0.073  -0.679  -0.053
    2U       H5   51  -0.002  -0.686   0.025
    2U      C2'   52   0.393  -0.374  -0.100
    2U      H2'   53   0.294  -0.344  -0.065
    2U      O2'   54   0.420  -0.328  -0.231
    2U     HO2'   55   0.515  -0.313  -0.235
    2U      C3'   56   0.501  -0.331  -0.002
    2U      H3'   57   0.481  -0.232   0.040
    2U      O3'   58   0.629  -0.322  -0.064
    3U        P   59   0.742  -0.226  -0.002
    3U      OP1   60   0.862  -0.236  -0.088
    3U      OP2   61   0.754  -0.255   0.144
    3U      O5'   62   0.681  -0.080  -0.018
    3U      C5'   63   0.620  -0.039  -0.140
    3U      H5'   64   0.525  -0.090  -0.154
    3U     H5''   65   0.685  -0.063  -0.224
    3U      C4'   66   0.596   0.111  -0.139
    3U      H4'   67   0.589   0.144  -0.243
    3U      O4'   68   0.477   0.139  -0.061
    3U      C1'   69   0.495   0.259   0.011
    3U      H1'   70   0.412   0.325  -0.017
    3U       N1   71   0.483   0.230   0.155
    3U       C6   72   0.545   0.121   0.211
    3U       H6   73   0.605   0.055   0.147
    3U       C2   74   0.406   0.315   0.232
    3U       O2   75   0.349   0.412   0.186
    3U       N3   76   0.398   0.282   0.365
    3U       H3   77   0.342   0.342   0.423
    3U       C4   78   0.458   0.175   0.427
    3U       O4   79   0.443   0.160   0.548
    3U       C5   80   0.536   0.092   0.341
    3U       H5   81   0.587   0.004   0.381
    3U      C2'   82   0.631   0.318  -0.028
    3U      H2'   83   0.681   0.364   0.057
    3U      O2'   84   0.611   0.408  -0.136
    3U     HO2'   85   0.673   0.382  -0.205
    3U      C3'   86   0.706   0.194  -0.074
    3U      H3'   87   0.752   0.140   0.009
    3U      O3'   88   0.810   0.224  -0.166
    4U        P   89   0.960   0.175  -0.135
    4U      OP1   90   0.962   0.027  -0.146
    4U      OP2   91   1.005   0.240  -0.009
    4U      O5'   92   1.046   0.234  -0.255
    4U      C5'   93   1.033   0.371  -0.295
    4U      H5'   94   1.055   0.436  -0.211
    4U     H5''   95   0.931   0.389  -0.329
    4U      C4'   96   1.128   0.401  -0.408
    4U      H4'   97   1.094   0.493  -0.456
    4U      O4'   98   1.263   0.412  -0.354
    4U      C1'   99   1.345   0.311  -0.410
    4U      H1'  100   1.407   0.359  -0.486
    4U       N1  101   1.433   0.259  -0.305
    4U       C6  102   1.383   0.221  -0.182
    4U       H6  103   1.276   0.229  -0.164
    4U       C2  104   1.568   0.250  -0.333
    4U       O2  105   1.616   0.283  -0.439
    4U       N3  106   1.645   0.200  -0.231
    4U       H3  107   1.744   0.192  -0.249
    4U       C4  108   1.602   0.160  -0.106
    4U       O4  109   1.684   0.117  -0.025
    4U       C5  110   1.462   0.173  -0.085
    4U       H5  111   1.418   0.143   0.010
    4U      C2'  112   1.251   0.207  -0.470
    4U      H2'  113   1.217   0.136  -0.395
    4U      O2'  114   1.317   0.144  -0.579
    4U     HO2'  115   1.315   0.206  -0.652
    4U      C3'  116   1.136   0.295  -0.517
    4U      H3'  117   1.043   0.240  -0.527
    4U      O3'  118   1.161   0.353  -0.645
    5U        P  119   1.081   0.301  -0.774
    5U      OP1  120   0.938   0.291  -0.738
    5U      OP2  121   1.152   0.181  -0.827
    5U      O5'  122   1.097   0.419  -0.880
    5U      C5'  123   1.069   0.554  -0.845
    5U      H5'  124   1.131   0.584  -0.760
    5U     H5''  125   0.964   0.564  -0.817
    5U      C4'  126   1.098   0.646  -0.961
    5U      H4'  127   1.024   0.726  -0.959
    5U      O4'  128   1.235   0.693  -0.951
    5U      C1'  129   1.296   0.693  -1.079
    5U      H1'  130   1.340   0.792  -1.092
    5U       N1  131   1.404   0.594  -1.079
    5U       C6  132   1.397   0.481  -1.001
    5U       H6  133   1.309   0.465  -0.938
    5U       C2  134   1.513   0.618  -1.160
    5U       O2  135   1.523   0.717  -1.230
    5U       N3  136   1.611   0.522  -1.156
    5U       H3  137   1.692   0.538  -1.214
    5U       C4  138   1.610   0.407  -1.081
    5U       O4  139   1.706   0.329  -1.088
    5U       C5  140   1.494   0.389  -1.000
    5U       H5  141   1.485   0.301  -0.937
    5U      C2'  142   1.186   0.665  -1.181
    5U      H2'  143   1.224   0.608  -1.266
    5U      O2'  144   1.127   0.788  -1.220
    5U     HO2'  145   1.033   0.773  -1.228
    5U      H3'  146   1.117   0.476  -1.096
    5U      C3'  147   1.089   0.581  -1.099
    5U      O3'  148   0.956   0.584  -1.152
    5U     HO3'  149   0.899   0.542  -1.087
   0.00000   0.00000   0.00000
