Gromacs Runs On Most of All Computer Systems in water
11584
    1RU5    O5'    1   2.947   2.359   4.113 -0.1333  0.7732  0.1594
    1RU5    H5T    2   2.909   2.408   4.186  2.4622  1.3862  1.1225
    1RU5    C5'    3   2.893   2.222   4.113 -0.1666 -0.5198 -0.5902
    1RU5   H5'1    4   2.928   2.167   4.026  1.6460  1.8329 -1.3727
    1RU5   H5'2    5   2.786   2.241   4.104 -0.3164 -1.5716 -1.1256
    1RU5    C4'    6   2.933   2.153   4.245  0.4099  0.3043  0.5646
    1RU5    H4'    7   2.860   2.073   4.257  1.1757 -0.4189  0.3370
    1RU5    O4'    8   3.065   2.099   4.234  0.2597 -0.6787  0.2421
    1RU5    C1'    9   3.106   2.073   4.366 -0.5278  0.6755 -0.3717
    1RU5    H1'   10   3.091   1.967   4.388 -0.8803  0.4321 -1.7197
    1RU5     N1   11   3.247   2.107   4.391 -0.0008  0.3683  0.3349
    1RU5     C6   12   3.290   2.236   4.375  0.1290  0.3811 -0.1977
    1RU5     H6   13   3.226   2.311   4.330 -0.0865 -0.3609 -1.1351
    1RU5     C5   14   3.422   2.269   4.399 -0.2873  0.3778  0.0864
    1RU5     H5   15   3.460   2.367   4.375  0.0147  0.3924  0.6181
    1RU5     C4   16   3.520   2.172   4.443 -0.3751 -0.6412 -0.3375
    1RU5     O4   17   3.639   2.183   4.466 -0.3588 -0.3268  0.2116
    1RU5     N3   18   3.464   2.044   4.454 -0.2151  0.4020  0.4970
    1RU5     H3   19   3.529   1.969   4.473 -0.6219 -0.3868 -1.1945
    1RU5     C2   20   3.331   2.007   4.436  0.2388  0.1468  0.5905
    1RU5     O2   21   3.293   1.892   4.455  0.3776 -0.1543  0.5269
    1RU5    C3'   22   2.936   2.238   4.374  0.5273  1.1257  0.6640
    1RU5    H3'   23   2.996   2.328   4.357 -0.5098  1.8548  0.7981
    1RU5    C2'   24   3.012   2.140   4.466  0.0354  0.2074 -0.6003
    1RU5   H2'1   25   3.065   2.206   4.535  1.0133 -2.0208  0.8277
    1RU5    O2'   26   2.936   2.033   4.521 -0.1104  0.1998 -0.2845
    1RU5   HO'2   27   2.863   2.074   4.566  0.3587  1.4740 -0.6475
    1RU5    O3'   28   2.803   2.258   4.424  0.2931 -0.1128  0.3508
    2RG3      P   29   2.744   2.406   4.432 -0.1995  0.2349 -0.1638
    2RG3    O1P   30   2.608   2.392   4.491  0.2259  0.0846  0.1546
    2RG3    O2P   31   2.756   2.465   4.301 -0.8484  0.3436  0.3339
    2RG3    O5'   32   2.851   2.481   4.529  0.5757 -0.0948 -0.3803
    2RG3    C5'   33   2.841   2.619   4.560 -0.3121  0.4776 -0.4156
    2RG3   H5'1   34   2.742   2.630   4.604  0.5490  0.6094  1.5172
    2RG3   H5'2   35   2.843   2.674   4.466 -0.5341 -0.6965 -1.1257
    2RG3    C4'   36   2.955   2.665   4.651  0.2047 -0.1714 -0.5636
    2RG3    H4'   37   2.943   2.771   4.670 -0.4767 -0.3842  0.2007
    2RG3    O4'   38   2.963   2.599   4.772  0.1674 -0.3774 -0.3595
    2RG3    C1'   39   3.070   2.500   4.772 -0.0971 -0.7898  0.2269
    2RG3    H1'   40   3.131   2.536   4.855  0.7670 -0.7909 -0.3969
    2RG3     N9   41   3.025   2.362   4.778 -0.2433  0.7431  0.6503
    2RG3     C8   42   2.901   2.299   4.771  0.2371 -0.4344  0.1450
    2RG3     H8   43   2.806   2.350   4.768  0.0222 -0.8899 -1.1144
    2RG3     N7   44   2.902   2.174   4.794  0.0209  0.1685 -0.3097
    2RG3     C5   45   3.035   2.140   4.792  0.8569  0.2198 -0.4755
    2RG3     C6   46   3.097   2.009   4.788 -0.0825 -0.8062 -0.1535
    2RG3     O6   47   3.042   1.898   4.794 -0.3170  0.1502 -0.1514
    2RG3     N1   48   3.237   2.019   4.775  0.0533  0.4690  0.1384
    2RG3     H1   49   3.287   1.932   4.768 -0.9014 -0.1664  1.0673
    2RG3     C2   50   3.305   2.135   4.768  0.0779  0.0300 -0.2986
    2RG3     N2   51   3.433   2.125   4.750 -0.1849 -0.0857 -0.2201
    2RG3    H21   52   3.481   2.036   4.757  0.1294  0.0235 -0.9449
    2RG3    H22   53   3.479   2.215   4.751 -1.7343  0.7263  0.3740
    2RG3     N3   54   3.247   2.258   4.774 -0.1801  0.2037  0.3032
    2RG3     C4   55   3.111   2.253   4.783 -0.4390  0.5535  0.0237
    2RG3    C3'   56   3.089   2.637   4.573 -0.0109 -0.5989 -0.4115
    2RG3    H3'   57   3.072   2.611   4.468  1.7244 -1.0660 -0.5819
    2RG3    C2'   58   3.158   2.518   4.643 -0.0919 -0.4640 -0.9132
    2RG3   H2'1   59   3.158   2.432   4.576 -1.9941  0.1978 -1.7897
    2RG3    O2'   60   3.291   2.558   4.675 -0.5281  0.3260  0.1075
    2RG3   HO'2   61   3.339   2.481   4.706 -0.4104  0.4578  0.2597
    2RG3    O3'   62   3.170   2.756   4.587  0.1447 -0.1685 -0.0892
    2RG3    H3T   63   3.257   2.719   4.608 -0.9905 -1.8992  1.6897
    5SOL     OW   64   4.402   2.414   0.260  0.0925 -0.4648 -0.3361
    5SOL    HW2   65   4.311   2.437   0.242  0.3050  0.4923 -0.1641
    5SOL    HW3   66   4.452   2.464   0.196  0.4730 -1.3151 -0.7067
    5SOL    MW4   67   4.397   2.423   0.249  0.1707 -0.4506 -0.3623
    6SOL     OW   68   2.237   1.671   0.716 -0.3410 -0.0011 -0.2551
    6SOL    HW2   69   2.305   1.625   0.766  2.7498  1.9127 -2.5062
    6SOL    HW3   70   2.247   1.763   0.742 -2.1510  0.2861 -0.5494
    6SOL    MW4   71   2.247   1.677   0.726 -0.1721  0.2893 -0.5909
    7SOL     OW   72   0.883   3.946   0.719 -0.6883 -0.1474  0.3173
    7SOL    HW2   73   0.879   3.899   0.636 -0.1896  1.0148 -0.3812
    7SOL    HW3   74   0.972   3.932   0.750 -1.2926 -1.7921  1.4031
    7SOL    MW4   75   0.894   3.938   0.712 -0.7023 -0.2110  0.3684
    8SOL     OW   76   3.766   2.070   1.191  0.0254 -0.4250 -0.2619
    8SOL    HW2   77   3.762   2.082   1.286  1.0144 -0.3067 -0.2239
    8SOL    HW3   78   3.852   2.031   1.176  0.3078  0.5326 -1.2014
    8SOL    MW4   79   3.777   2.066   1.201  0.1929 -0.2832 -0.3808
    9SOL     OW   80   2.310   3.891   0.222 -0.0819  0.2042 -0.7833
    9SOL    HW2   81   2.405   3.883   0.218 -0.2331 -1.3373 -1.8931
    9SOL    HW3   82   2.281   3.820   0.279 -0.6621 -0.3820 -1.7683
    9SOL    MW4   83   2.318   3.880   0.229 -0.1781 -0.0765 -1.0597
   10SOL     OW   84   1.572   0.005   1.173 -0.0250  0.4217  0.2432
   10SOL    HW2   85   1.562  -0.007   1.079  0.9083 -2.1850  0.4487
   10SOL    HW3   86   1.577  -0.083   1.209  1.4187  1.3685  2.5260
   10SOL    MW4   87   1.572  -0.008   1.165  0.2886  0.2027  0.5715
   11SOL     OW   88   3.583   1.165   1.113 -0.0210 -0.0162 -0.2196
   11SOL    HW2   89   3.511   1.198   1.168  0.7980 -0.4688  1.1421
   11SOL    HW3   90   3.662   1.201   1.154  0.6264 -0.7309 -0.8369
   11SOL    MW4   91   3.584   1.174   1.126  0.1726 -0.1702 -0.1214
   12SOL     OW   92   1.775   0.532   0.422  0.2989  0.3898 -0.2284
   12SOL    HW2   93   1.689   0.489   0.425  0.2853  0.5262  1.4043
   12SOL    HW3   94   1.837   0.463   0.444  0.6996  0.1189 -2.0888
   12SOL    MW4   95   1.772   0.517   0.425  0.3500  0.3720 -0.2584
   13SOL     OW   96   4.203   2.070   0.701 -0.1875  0.2818 -0.6612
   13SOL    HW2   97   4.143   2.042   0.771 -2.0656  0.7534 -2.0370
   13SOL    HW3   98   4.217   2.163   0.718 -0.3243  0.3049 -0.6722
   13SOL    MW4   99   4.197   2.079   0.712 -0.4535  0.3471 -0.8442
   14SOL     OW  100   4.028   2.479   0.738  0.2057  0.2260  0.6519
   14SOL    HW2  101   3.940   2.451   0.762  0.2861 -0.3532  0.2809
   14SOL    HW3  102   4.037   2.567   0.775 -1.2088  1.0422 -0.8714
   14SOL    MW4  103   4.018   2.487   0.746  0.0296  0.2570  0.4019
   15SOL     OW  104   1.520   0.715   0.814 -0.1255 -0.1863 -0.0562
   15SOL    HW2  105   1.602   0.754   0.784 -0.6386  0.8959 -0.0650
   15SOL    HW3  106   1.527   0.717   0.910 -0.1566 -0.0570 -0.0563
   15SOL    MW4  107   1.532   0.720   0.823 -0.1974 -0.0264 -0.0573
   16SOL     OW  108   1.203   1.926   0.498 -0.6043  0.0077 -0.0575
   16SOL    HW2  109   1.161   1.944   0.581  1.1311 -2.0409  1.3315
   16SOL    HW3  110   1.257   2.003   0.480 -1.9565  0.9932  0.0425
   16SOL    MW4  111   1.205   1.938   0.506 -0.5538 -0.1327  0.1390
   17SOL     OW  112   3.360   0.567   0.712  0.2734  0.1702  0.2037
   17SOL    HW2  113   3.346   0.579   0.618  1.6208 -0.5040 -0.0914
   17SOL    HW3  114   3.439   0.513   0.718 -0.9246 -1.4818  1.6765
   17SOL    MW4  115   3.369   0.561   0.701  0.2930 -0.1367  0.3591
   18SOL     OW  116   0.929   3.487   0.833  0.6377  0.5012  0.0469
   18SOL    HW2  117   0.942   3.402   0.792 -0.8504  0.1300  0.3338
   18SOL    HW3  118   0.839   3.511   0.812  0.5976  1.3598  1.1413
   18SOL    MW4  119   0.919   3.479   0.825  0.4360  0.5655  0.2292
   19SOL     OW  120   2.022   3.111   0.896  0.2116 -0.6175 -0.1542
   19SOL    HW2  121   1.943   3.149   0.857  0.3641  1.2658  1.3151
   19SOL    HW3  122   2.094   3.158   0.853  0.4300 -0.0994  0.7570
   19SOL    MW4  123   2.021   3.123   0.885  0.2604 -0.3009  0.1599
   20SOL     OW  124   1.768   1.132   1.108 -0.4051  0.1063  0.3737
   20SOL    HW2  125   1.780   1.047   1.151  0.3902  0.3122  0.5755
   20SOL    HW3  126   1.687   1.166   1.145 -0.7345 -0.5618  0.2919
   20SOL    MW4  127   1.759   1.125   1.119 -0.3437  0.0453  0.3896
   21SOL     OW  128   2.458   2.081   0.662 -0.1660 -0.6017  0.0310
   21SOL    HW2  129   2.458   2.168   0.702  0.2333 -0.6799  0.2022
   21SOL    HW3  130   2.393   2.087   0.592  0.3238  0.0206 -0.3663
   21SOL    MW4  131   2.449   2.093   0.658 -0.0486 -0.5300  0.0012
   22SOL     OW  132   2.492   4.365   0.681  0.2085  0.0714 -0.0401
   22SOL    HW2  133   2.462   4.350   0.591  0.7625 -1.5092  0.0107
   22SOL    HW3  134   2.521   4.456   0.683  0.3049  0.0792 -1.5048
   22SOL    MW4  135   2.492   4.375   0.670  0.2942 -0.1359 -0.2267
   23SOL     OW  136   1.846   3.264   0.497 -0.3953  0.1186 -0.4964
   23SOL    HW2  137   1.834   3.258   0.592 -1.9968  0.8683 -0.6387
   23SOL    HW3  138   1.796   3.191   0.462 -0.0561  0.0241 -0.7904
   23SOL    MW4  139   1.838   3.254   0.505 -0.5618  0.2053 -0.5540
   24SOL     OW  140   1.040   0.775   0.812  0.1929  0.3843  0.2774
   24SOL    HW2  141   1.099   0.838   0.772 -0.6701  0.4200 -0.9925
   24SOL    HW3  142   1.071   0.765   0.902  1.7212  0.8723 -0.1920
   24SOL    MW4  143   1.052   0.782   0.819  0.2809  0.4535  0.0479
   25SOL     OW  144   2.268   0.295   0.884  0.4295 -0.3843 -0.2861
   25SOL    HW2  145   2.183   0.317   0.846 -0.1475  1.1671  1.8277
   25SOL    HW3  146   2.325   0.368   0.858  0.1883  0.3722  1.2469
   25SOL    MW4  147   2.265   0.308   0.875  0.3219 -0.0798  0.1950
   26SOL     OW  148   0.395   0.766   0.266 -0.3138  0.3226 -0.5745
   26SOL    HW2  149   0.405   0.732   0.177  0.4456 -2.4457  0.5212
   26SOL    HW3  150   0.308   0.738   0.292 -0.7558  1.6251 -0.6326
   26SOL    MW4  151   0.385   0.758   0.257 -0.2719  0.1292 -0.4376
   27SOL     OW  152   0.349   1.851   0.179 -0.5931 -0.2488 -0.2546
   27SOL    HW2  153   0.261   1.855   0.142 -0.7478  0.3154  0.1707
   27SOL    HW3  154   0.349   1.772   0.232 -1.6514  1.0680  1.7675
   27SOL    MW4  155   0.338   1.841   0.181 -0.7531 -0.0007  0.0683
   28SOL     OW  156   0.697   4.617   0.808 -0.2269 -0.0049  0.5415
   28SOL    HW2  157   0.698   4.628   0.903  0.0321  0.8147  0.4434
   28SOL    HW3  158   0.767   4.674   0.776  0.0742 -0.7346 -0.0954
   28SOL    MW4  159   0.706   4.626   0.817 -0.1530  0.0072  0.4445
   29SOL     OW  160   1.885   2.944   0.236  0.3179  0.0590 -0.4573
   29SOL    HW2  161   1.963   2.981   0.278 -1.0711  2.9982 -0.3612
   29SOL    HW3  162   1.889   2.975   0.146  0.6715 -2.1142 -1.2324
   29SOL    MW4  163   1.896   2.953   0.230  0.1814  0.1602 -0.5469
   30SOL     OW  164   2.435   1.539   0.853  0.0721  0.0913 -0.5548
   30SOL    HW2  165   2.514   1.584   0.824  1.3878 -1.8883 -0.1699
   30SOL    HW3  166   2.435   1.456   0.805 -0.6121 -0.8581  1.0367
   30SOL    MW4  167   2.445   1.534   0.843  0.1552 -0.2950 -0.2940
   31SOL     OW  168   3.612   0.449   0.685 -0.2656 -0.2256  0.6219
   31SOL    HW2  169   3.617   0.362   0.724 -0.7707  0.3506  2.0155
   31SOL    HW3  170   3.696   0.489   0.705 -0.4119 -0.0339  0.8491
   31SOL    MW4  171   3.624   0.443   0.693 -0.3512 -0.1243  0.8358
   32SOL     OW  172   1.522   3.336   0.361  0.1736 -0.0517 -0.1992
   32SOL    HW2  173   1.576   3.258   0.348  0.0685 -0.3084  0.8819
   32SOL    HW3  174   1.585   3.405   0.383  0.1177 -0.1923  0.3912
   32SOL    MW4  175   1.537   3.335   0.362  0.1523 -0.1042  0.0213
   33SOL     OW  176   2.349   4.057   0.703  0.2200  0.0321 -0.0917
   33SOL    HW2  177   2.336   4.144   0.741  0.3823 -0.1704  0.4324
   33SOL    HW3  178   2.273   4.044   0.647 -0.0062  0.3497  0.1376
   33SOL    MW4  179   2.337   4.067   0.701  0.2117  0.0477  0.0077
   34SOL     OW  180   2.913   2.846   0.745 -0.0657 -0.0924 -0.5388
   34SOL    HW2  181   2.882   2.838   0.655  3.3139  0.3437 -1.8066
   34SOL    HW3  182   2.924   2.940   0.759  1.1069 -0.2539 -0.2977
   34SOL    MW4  183   2.910   2.858   0.735  0.5350 -0.0563 -0.6743
   35SOL     OW  184   0.503   0.094   0.460  0.1048  0.3142 -0.3423
   35SOL    HW2  185   0.560   0.168   0.438 -0.2375  0.7330  0.1699
   35SOL    HW3  186   0.561   0.018   0.455  0.5221  0.6449 -0.6232
   35SOL    MW4  187   0.518   0.094   0.456  0.1147  0.4131 -0.3118
   36SOL     OW  188   4.272   3.066   0.813 -0.3729  0.0368  0.4716
   36SOL    HW2  189   4.196   3.108   0.774  0.5099  0.9942 -0.2679
   36SOL    HW3  190   4.288   2.989   0.759 -0.9322 -0.2733  0.7488
   36SOL    MW4  191   4.264   3.062   0.801 -0.3300  0.1223  0.4106
   37SOL     OW  192   1.153   3.087   0.815  0.0165 -0.2534  0.1281
   37SOL    HW2  193   1.224   3.131   0.770 -1.5635  0.6956 -1.5015
   37SOL    HW3  194   1.164   3.111   0.907  0.5725  1.6223 -0.4161
   37SOL    MW4  195   1.164   3.096   0.821 -0.1184  0.1192 -0.1587
   38SOL     OW  196   1.082   1.349   0.171  0.4599 -0.5943 -0.2473
   38SOL    HW2  197   1.119   1.338   0.084 -0.5299  3.0325 -1.2408
   38SOL    HW3  198   1.158   1.366   0.227  0.9667 -1.3458 -0.6949
   38SOL    MW4  199   1.097   1.350   0.167  0.3963 -0.2151 -0.4374
   39SOL     OW  200   2.266   2.721   0.868  0.1122 -0.0310  0.1101
   39SOL    HW2  201   2.190   2.769   0.837  0.3940  0.2027 -0.2343
   39SOL    HW3  202   2.341   2.776   0.842  0.3477  0.1982  1.2556
   39SOL    MW4  203   2.266   2.734   0.860  0.1805  0.0300  0.2158
   40SOL     OW  204   3.623   1.182   0.840  0.2961  0.3722  0.4027
   40SOL    HW2  205   3.543   1.215   0.799  0.6546 -0.5249 -1.0693
   40SOL    HW3  206   3.603   1.179   0.933 -1.4891 -0.0897  0.0239
   40SOL    MW4  207   3.610   1.186   0.847  0.1075  0.1929  0.1585
   41SOL     OW  208   1.548   0.987   0.486  0.0263 -0.2468 -0.2560
   41SOL    HW2  209   1.509   0.907   0.521  0.0443 -0.0836  0.1362
   41SOL    HW3  210   1.544   1.050   0.558 -2.2320  0.8720 -1.2872
   41SOL    MW4  211   1.542   0.985   0.500 -0.2692 -0.0777 -0.3403
   42SOL     OW  212   2.650   0.896   0.701 -0.0649  0.0180  0.3871
   42SOL    HW2  213   2.659   0.921   0.609 -0.2067 -1.8895 -0.1700
   42SOL    HW3  214   2.737   0.865   0.726  0.0201  0.7118  0.9552
   42SOL    MW4  215   2.663   0.895   0.692 -0.0722 -0.1421  0.3885
   43SOL     OW  216   1.345   2.450   1.202 -0.1064  0.6676 -0.1251
   43SOL    HW2  217   1.353   2.542   1.178 -0.7929  0.3685 -1.6018
   43SOL    HW3  218   1.355   2.448   1.297  1.3250  2.0890 -0.2273
   43SOL    MW4  219   1.348   2.462   1.211 -0.0082  0.8159 -0.3334
   44SOL     OW  220   2.931   3.905   1.057 -0.1394  0.5417 -0.0015
   44SOL    HW2  221   2.949   3.812   1.073 -0.5580  0.4117 -0.3004
   44SOL    HW3  222   3.005   3.950   1.097 -0.0574  0.0914  0.3636
   44SOL    MW4  223   2.943   3.899   1.065 -0.1836  0.4649  0.0073
   45SOL     OW  224   3.570   2.711   1.064  0.4369 -0.0500  0.0861
   45SOL    HW2  225   3.553   2.619   1.087  2.9956 -0.5490  0.1890
   45SOL    HW3  226   3.496   2.759   1.100 -1.7800 -2.2412 -1.3598
   45SOL    MW4  227   3.558   2.705   1.072  0.4821 -0.4048 -0.0910
   46SOL     OW  228   3.020   2.441   0.434 -0.5901 -0.6387 -0.1620
   46SOL    HW2  229   3.036   2.461   0.526 -0.5216 -0.2649 -0.2522
   46SOL    HW3  230   3.090   2.487   0.387 -1.0036 -0.2886 -0.4474
   46SOL    MW4  231   3.031   2.450   0.440 -0.6356 -0.5431 -0.2115
   47SOL     OW  232   1.801   2.707   0.849 -0.0898  0.0270 -0.3525
   47SOL    HW2  233   1.794   2.679   0.940  1.9147 -0.5113 -0.3445
   47SOL    HW3  234   1.714   2.741   0.828 -0.4608  0.5311  1.8755
   47SOL    MW4  235   1.789   2.708   0.858  0.1258  0.0224 -0.0575
   48SOL     OW  236   0.490   4.010   0.709  0.0687 -0.0875  0.0422
   48SOL    HW2  237   0.484   4.100   0.741 -1.2842 -0.0975 -0.1617
   48SOL    HW3  238   0.410   3.968   0.741 -0.6596 -0.4610 -2.2170
   48SOL    MW4  239   0.479   4.017   0.718 -0.2059 -0.1388 -0.2828
   49SOL     OW  240   3.505   0.398   0.357 -0.1214 -0.5634 -0.0806
   49SOL    HW2  241   3.546   0.384   0.442 -2.6897 -0.9891  1.1496
   49SOL    HW3  242   3.467   0.485   0.362  0.9901  0.0086 -1.3593
   49SOL    MW4  243   3.505   0.407   0.369 -0.3135 -0.5441 -0.0870
   50SOL     OW  244   1.022   2.325   0.337 -0.4246  0.1490  0.3257
   50SOL    HW2  245   0.954   2.364   0.391  0.1960  0.8800  0.5887
   50SOL    HW3  246   1.082   2.397   0.318 -0.3943 -0.2037 -0.9524
   50SOL    MW4  247   1.021   2.339   0.341 -0.3387  0.1988  0.1918
   51SOL     OW  248   0.821   2.465   0.478  0.4854  0.1569 -0.8256
   51SOL    HW2  249   0.836   2.547   0.431  0.5734  0.6283 -0.0003
   51SOL    HW3  250   0.733   2.438   0.452  0.6822  0.2040 -1.5521
   51SOL    MW4  251   0.811   2.473   0.469  0.5230  0.2255 -0.8126
   52SOL     OW  252   1.573   0.001   0.885  0.3218 -0.0649 -0.3854
   52SOL    HW2  253   1.600  -0.073   0.831  0.9350 -0.3015  0.2368
   52SOL    HW3  254   1.647   0.062   0.880  0.0959  0.2100 -0.3637
   52SOL    MW4  255   1.586  -0.001   0.877  0.3730 -0.0601 -0.3004
   53SOL     OW  256   2.459   3.614   0.723  0.0946 -0.2695 -0.2198
   53SOL    HW2  257   2.450   3.697   0.770 -2.0559 -1.1522  0.9740
   53SOL    HW3  258   2.537   3.574   0.760 -0.0001  0.3151  0.6138
   53SOL    MW4  259   2.468   3.620   0.734 -0.2017 -0.3090  0.0477
   54SOL     OW  260   4.282   2.881   0.383 -0.0084 -0.3994 -0.2274
   54SOL    HW2  261   4.263   2.951   0.321 -0.0845  1.2290  1.6067
   54SOL    HW3  262   4.210   2.818   0.372 -0.5093  0.3304 -1.1192
   54SOL    MW4  263   4.270   2.882   0.374 -0.0849 -0.0885 -0.1031
   55SOL     OW  264   1.118   4.213   0.330  0.4112 -0.2083  0.4566
   55SOL    HW2  265   1.113   4.286   0.392  0.5012 -0.6264  0.9640
   55SOL    HW3  266   1.174   4.246   0.259  1.0171 -0.0158  1.0148
   55SOL    MW4  267   1.125   4.227   0.329  0.5031 -0.2379  0.5971
   56SOL     OW  268   4.002   4.098   0.291  0.2170  0.3127  0.3780
   56SOL    HW2  269   4.083   4.144   0.312  0.7879 -0.1879 -0.6476
   56SOL    HW3  270   3.997   4.101   0.196 -0.8265  0.0914  0.4212
   56SOL    MW4  271   4.012   4.104   0.281  0.1545  0.2170  0.2484
   57SOL     OW  272   0.417   3.482   0.827 -0.0921 -0.5405 -0.1204
   57SOL    HW2  273   0.505   3.515   0.809 -0.4826 -0.9739 -3.1252
   57SOL    HW3  274   0.404   3.497   0.920  2.6409  0.7815  0.0894
   57SOL    MW4  275   0.427   3.488   0.837  0.2169 -0.4234 -0.4892
   58SOL     OW  276   1.570   2.815   0.501 -0.0607  0.1403 -0.0407
   58SOL    HW2  277   1.661   2.790   0.484 -0.5038 -1.2436 -0.4353
   58SOL    HW3  278   1.519   2.737   0.479 -1.2871  0.6734  0.8554
   58SOL    MW4  279   1.576   2.801   0.496 -0.2807  0.0279  0.0254
   59SOL     OW  280   1.980   2.805   1.245 -0.0554  0.0307 -0.1235
   59SOL    HW2  281   1.971   2.892   1.205 -1.2095 -0.7242 -1.5366
   59SOL    HW3  282   2.070   2.779   1.223  0.1257  0.6400 -0.1336
   59SOL    MW4  283   1.991   2.813   1.236 -0.1837  0.0114 -0.3114
   60SOL     OW  284   1.594   3.065   0.851 -0.5227  0.3693 -0.1264
   60SOL    HW2  285   1.518   3.115   0.820 -0.8682 -0.6597 -0.9696
   60SOL    HW3  286   1.581   2.977   0.815  0.7385  0.0129  0.2724
   60SOL    MW4  287   1.582   3.060   0.842 -0.4020  0.1867 -0.1851
   61SOL     OW  288   4.050   1.137   0.870  0.0012  0.2928  0.2309
   61SOL    HW2  289   4.128   1.185   0.840  0.2777 -0.4989 -0.3465
   61SOL    HW3  290   4.050   1.147   0.965  0.5138  0.7540  0.1832
   61SOL    MW4  291   4.060   1.144   0.878  0.1054  0.2493  0.1485
   62SOL     OW  292   3.153   1.195   0.823 -0.5606 -0.1206 -0.2177
   62SOL    HW2  293   3.161   1.189   0.919  0.8383  2.4457 -0.1288
   62SOL    HW3  294   3.160   1.105   0.793  0.2197 -0.8444  2.0249
   62SOL    MW4  295   3.155   1.183   0.832 -0.2730  0.1224  0.0899
   63SOL     OW  296   3.805   3.075   0.867 -0.0533  0.8672  0.0408
   63SOL    HW2  297   3.884   3.106   0.822 -0.4561 -0.6231 -1.7742
   63SOL    HW3  298   3.733   3.116   0.820 -0.4241  0.7181  0.4771
   63SOL    MW4  299   3.806   3.084   0.855 -0.1552  0.6506 -0.1411
   64SOL     OW  300   1.343   3.778   0.397 -0.0683 -0.0592 -0.1518
   64SOL    HW2  301   1.277   3.847   0.398  0.0233  0.0506 -1.3438
   64SOL    HW3  302   1.293   3.696   0.403 -0.2288  0.0775  0.3544
   64SOL    MW4  303   1.327   3.776   0.398 -0.0774 -0.0265 -0.2423
   65SOL     OW  304   0.632   3.641   0.500  0.0516 -0.6250 -0.2155
   65SOL    HW2  305   0.588   3.576   0.444 -1.4462  0.7220 -0.6362
   65SOL    HW3  306   0.625   3.723   0.451 -3.0858  1.0261  2.8030
   65SOL    MW4  307   0.626   3.643   0.486 -0.5599 -0.2294  0.1273
   66SOL     OW  308   3.188   2.835   0.451  0.0169 -0.4868 -0.0557
   66SOL    HW2  309   3.228   2.841   0.538  0.7062 -1.6541 -0.2744
   66SOL    HW3  310   3.094   2.831   0.469  0.1904 -1.5055  0.6833
   66SOL    MW4  311   3.181   2.835   0.465  0.1307 -0.7753  0.0130
   67SOL     OW  312   3.155   4.075   0.676 -0.5922  0.3152 -0.5303
   67SOL    HW2  313   3.152   4.144   0.743  0.9227 -1.5508  1.5001
   67SOL    HW3  314   3.213   4.111   0.609 -0.8396  1.5454 -0.1162
   67SOL    MW4  315   3.162   4.089   0.676 -0.4251  0.2313 -0.2078
   68SOL     OW  316   1.823   4.005   1.219  0.0850  0.0129  0.2864
   68SOL    HW2  317   1.737   3.976   1.187  0.8294 -0.8687 -0.9984
   68SOL    HW3  318   1.815   4.002   1.314 -1.7744  1.3728  0.2091
   68SOL    MW4  319   1.810   4.001   1.227 -0.0621  0.0763  0.1066
   69SOL     OW  320   0.646   1.365   0.179 -0.0195 -0.2914  0.0829
   69SOL    HW2  321   0.559   1.335   0.206 -0.5290  0.1713 -0.9985
   69SOL    HW3  322   0.636   1.460   0.170  1.0310 -0.0321  1.4999
   69SOL    MW4  323   0.633   1.374   0.181  0.0519 -0.1962  0.1272
   70SOL     OW  324   4.257   1.585   1.099  0.6434  0.3366 -0.4631
   70SOL    HW2  325   4.328   1.626   1.148 -2.3046  2.6952  1.9890
   70SOL    HW3  326   4.251   1.497   1.135  1.5230  0.5306  0.1822
   70SOL    MW4  327   4.265   1.579   1.110  0.3715  0.6733 -0.0545
   71SOL     OW  328   0.876   0.263   0.437  0.2850  0.0115  0.2736
   71SOL    HW2  329   0.796   0.308   0.465  0.1565  0.9206 -1.5186
   71SOL    HW3  330   0.942   0.333   0.431  0.8465 -0.5071  0.3398
   71SOL    MW4  331   0.874   0.278   0.440  0.3421  0.0630  0.0458
   72SOL     OW  332   4.443   1.700   0.685  0.0565 -0.3153 -0.4727
   72SOL    HW2  333   4.434   1.783   0.731 -1.7171  0.6240 -2.4245
   72SOL    HW3  334   4.379   1.642   0.727  0.8869 -0.5589  0.4984
   72SOL    MW4  335   4.433   1.703   0.697 -0.0677 -0.2234 -0.6021
   73SOL     OW  336   3.822   1.574   0.867  0.5720 -0.2014 -0.2685
   73SOL    HW2  337   3.830   1.481   0.848 -0.8733 -0.2749 -0.5803
   73SOL    HW3  338   3.901   1.614   0.830  1.1344 -1.2794 -0.2328
   73SOL    MW4  339   3.834   1.567   0.860  0.4556 -0.3533 -0.3049
   74SOL     OW  340   3.714   4.257   0.838 -0.1344  0.2214  0.0304
   74SOL    HW2  341   3.663   4.186   0.800  1.0250 -1.2590  1.1488
   74SOL    HW3  342   3.681   4.336   0.797 -0.2331 -1.1370 -2.5647
   74SOL    MW4  343   3.703   4.258   0.828  0.0057 -0.1526 -0.1644
   75SOL     OW  344   4.041   2.724   0.345  0.0496  0.3097  0.6038
   75SOL    HW2  345   3.983   2.801   0.352 -0.3315  0.1857 -1.0495
   75SOL    HW3  346   4.004   2.661   0.407 -1.1369  0.5164  0.1183
   75SOL    MW4  347   4.029   2.726   0.354 -0.1569  0.3207  0.3216
   76SOL     OW  348   4.066   4.006   0.661 -0.5360 -0.3024 -0.0838
   76SOL    HW2  349   4.127   3.939   0.693  1.0565  0.3662 -1.6531
   76SOL    HW3  350   4.029   3.968   0.581 -2.0729 -0.6073  0.7284
   76SOL    MW4  351   4.069   3.992   0.655 -0.5288 -0.2542 -0.1836
   77SOL     OW  352   1.724   4.135   0.390 -0.1712 -0.1989  0.1759
   77SOL    HW2  353   1.720   4.141   0.295  0.5053  1.0484  0.2092
   77SOL    HW3  354   1.818   4.132   0.410 -0.2737  0.7081  0.8537
   77SOL    MW4  355   1.736   4.136   0.380 -0.0952  0.0854  0.2697
   78SOL     OW  356   0.197   2.065   0.733  0.1973  0.0987  0.2417
   78SOL    HW2  357   0.181   2.089   0.642 -0.4085 -1.0912  0.0224
   78SOL    HW3  358   0.219   2.147   0.776  1.3606  0.5379 -1.1599
   78SOL    MW4  359   0.198   2.079   0.727  0.2708 -0.0005  0.0279
   79SOL     OW  360   1.772   2.480   0.686 -0.1049 -0.1932 -0.0884
   79SOL    HW2  361   1.762   2.572   0.708 -0.7919 -0.4835  0.8567
   79SOL    HW3  362   1.854   2.454   0.727  0.6690  0.2591 -1.2998
   79SOL    MW4  363   1.782   2.488   0.694 -0.0933 -0.1719 -0.1236
   80SOL     OW  364   3.387   1.427   0.436 -0.1196 -0.2648 -0.1123
   80SOL    HW2  365   3.307   1.480   0.423  1.2556  1.7216 -0.7507
   80SOL    HW3  366   3.377   1.354   0.375 -0.8600  0.6821 -1.1531
   80SOL    MW4  367   3.375   1.425   0.426 -0.0360  0.1222 -0.3338
   81SOL     OW  368   0.747   2.272   0.825  0.3206  0.0285 -0.0053
   81SOL    HW2  369   0.749   2.186   0.784 -0.0525 -1.1893  2.4938
   81SOL    HW3  370   0.822   2.318   0.787 -0.4179 -0.7877 -2.5658
   81SOL    MW4  371   0.757   2.267   0.814  0.1739 -0.2396 -0.0135
   82SOL     OW  372   2.979   0.006   0.810  0.2849  0.6349 -0.1438
   82SOL    HW2  373   2.977  -0.084   0.778  1.3794  0.6138 -0.1915
   82SOL    HW3  374   2.943   0.002   0.898  0.6761  0.0808 -0.0058
   82SOL    MW4  375   2.974  -0.006   0.817  0.4809  0.5598 -0.1318
   83SOL     OW  376   3.747   0.827   0.432 -0.0516 -0.4130 -0.6646
   83SOL    HW2  377   3.787   0.908   0.463  0.5137 -0.4993 -1.1688
   83SOL    HW3  378   3.653   0.844   0.438 -0.0115 -1.0068  2.6057
   83SOL    MW4  379   3.740   0.840   0.437  0.0281 -0.5027 -0.2996
   84SOL     OW  380   3.596   3.454   0.813  0.1538 -0.3836  0.0878
   84SOL    HW2  381   3.526   3.513   0.786  0.3232  0.1827  0.8684
   84SOL    HW3  382   3.677   3.499   0.787  0.2468 -1.1282 -1.0024
   84SOL    MW4  383   3.598   3.468   0.806  0.1886 -0.4075  0.0469
   85SOL     OW  384   4.245   1.552   0.832 -0.6510 -0.3436  0.6159
   85SOL    HW2  385   4.270   1.462   0.813 -1.7854 -0.4988 -0.1961
   85SOL    HW3  386   4.258   1.562   0.926 -0.8454 -1.4586  0.7633
   85SOL    MW4  387   4.250   1.542   0.842 -0.8264 -0.5113  0.5282
   86SOL     OW  388   1.225   0.975   0.722 -0.0026 -0.3659  0.2509
   86SOL    HW2  389   1.188   1.038   0.660 -0.8813 -0.8300  0.2977
   86SOL    HW3  390   1.278   1.029   0.782 -1.0638  0.3743  0.5312
   86SOL    MW4  391   1.227   0.991   0.722 -0.2586 -0.3295  0.2941
   87SOL     OW  392   1.358   0.088   0.748  0.2399 -0.6421 -0.3597
   87SOL    HW2  393   1.431   0.065   0.805 -0.5381 -0.1997  0.8467
   87SOL    HW3  394   1.336   0.178   0.773 -1.4258 -1.1532  0.0858
   87SOL    MW4  395   1.364   0.097   0.759 -0.0825 -0.6512 -0.1417
   88SOL     OW  396   2.887   0.799   0.808 -0.1766  0.1084  0.5094
   88SOL    HW2  397   2.890   0.793   0.903  0.0406 -1.3829  0.4170
   88SOL    HW3  398   2.890   0.708   0.778 -2.3442  0.4755 -0.8795
   88SOL    MW4  399   2.888   0.786   0.817 -0.4342 -0.0399  0.3140
   89SOL     OW  400   2.665   4.261   0.394  0.2121 -0.1306 -0.5159
   89SOL    HW2  401   2.639   4.207   0.468 -0.6808  1.6950  0.5489
   89SOL    HW3  402   2.711   4.335   0.433  0.5087  0.4059 -1.8578
   89SOL    MW4  403   2.667   4.264   0.409  0.1333  0.1812 -0.5524
   90SOL     OW  404   0.063   1.820   0.449 -0.1716 -0.7222  0.3418
   90SOL    HW2  405   0.010   1.784   0.519 -1.2349 -0.3608 -0.2741
   90SOL    HW3  406   0.012   1.806   0.369  1.1916 -1.5033 -0.4310
   90SOL    MW4  407   0.050   1.813   0.447 -0.1320 -0.7775  0.1586
   91SOL     OW  408   2.825   2.222   0.453  0.8602 -0.4958  0.2881
   91SOL    HW2  409   2.898   2.278   0.425  0.1407  1.2707  1.8198
   91SOL    HW3  410   2.858   2.177   0.530  0.4109  0.1392  0.8529
   91SOL    MW4  411   2.839   2.223   0.459  0.7060 -0.1791  0.5648
   92SOL     OW  412   3.593   1.945   0.828  0.3457  0.1592  0.3140
   92SOL    HW2  413   3.677   1.978   0.795 -0.1933  0.6190 -0.6199
   92SOL    HW3  414   3.584   1.858   0.788  0.1553  0.3039  0.0452
   92SOL    MW4  415   3.603   1.938   0.818  0.2496  0.2390  0.1553
   93SOL     OW  416   0.675   3.103   0.860  0.5401  0.1718  0.3749
   93SOL    HW2  417   0.608   3.159   0.819  0.1812 -1.4732 -1.3601
   93SOL    HW3  418   0.654   3.015   0.829  2.8346 -0.5292  0.7334
   93SOL    MW4  419   0.663   3.099   0.850  0.7955 -0.1380  0.1933
   94SOL     OW  420   2.695   4.242   0.842  0.2129 -0.1094 -0.7628
   94SOL    HW2  421   2.703   4.148   0.832  0.6454  0.0278 -1.7819
   94SOL    HW3  422   2.638   4.269   0.770 -0.6361  0.3019  0.0441
   94SOL    MW4  423   2.688   4.233   0.831  0.1578 -0.0372 -0.7908
   95SOL     OW  424   3.928   2.212   0.354  0.1990  0.1820 -0.0433
   95SOL    HW2  425   3.854   2.157   0.380  0.1053  0.1968 -0.2790
   95SOL    HW3  426   4.005   2.161   0.377  0.1140 -1.1083 -2.5305
   95SOL    MW4  427   3.928   2.198   0.361  0.1755  0.0136 -0.4026
   96SOL     OW  428   3.389   0.771   0.877 -0.5939  0.3573 -0.1259
   96SOL    HW2  429   3.401   0.689   0.831 -1.9603  1.9031 -3.3985
   96SOL    HW3  430   3.467   0.822   0.857 -0.0844  0.1525  1.2868
   96SOL    MW4  431   3.401   0.767   0.868 -0.7069  0.5342 -0.3713
   97SOL     OW  432   0.451   4.270   0.854  0.4488 -0.0794 -0.0242
   97SOL    HW2  433   0.458   4.268   0.949 -1.3043 -1.2750  0.1074
   97SOL    HW3  434   0.363   4.304   0.837  1.1791  1.2448 -1.2474
   97SOL    MW4  435   0.440   4.274   0.864  0.3139 -0.0625 -0.1683
   98SOL     OW  436   4.269   2.835   0.663  0.1891  0.2646 -0.1010
   98SOL    HW2  437   4.347   2.790   0.692 -0.0696  0.0140  0.2069
   98SOL    HW3  438   4.288   2.861   0.573  0.9570  0.9712  0.2546
   98SOL    MW4  439   4.281   2.833   0.655  0.2561  0.3250 -0.0135
   99SOL     OW  440   3.557   2.484   0.722 -0.0105 -0.0250  0.0813
   99SOL    HW2  441   3.537   2.574   0.748 -0.3739 -0.3387  0.9357
   99SOL    HW3  442   3.474   2.438   0.733  0.4999 -0.7482  0.9519
   99SOL    MW4  443   3.543   2.490   0.727  0.0091 -0.1619  0.3089
  100SOL     OW  444   1.127   4.447   0.496 -0.4418 -0.1632  0.0692
  100SOL    HW2  445   1.064   4.513   0.466 -0.0180  1.5168  2.7368
  100SOL    HW3  446   1.213   4.484   0.476 -0.1935  0.2981  1.8862
  100SOL    MW4  447   1.130   4.460   0.489 -0.3532  0.1192  0.6609
  101SOL     OW  448   2.002   4.181   0.406  0.3594 -0.2541  0.4382
  101SOL    HW2  449   1.995   4.277   0.410 -0.3313 -0.2721 -0.1698
  101SOL    HW3  450   2.075   4.165   0.346  0.5594 -0.1113  0.6410
  101SOL    MW4  451   2.011   4.192   0.399  0.2944 -0.2375  0.3847
  102SOL     OW  452   0.869   4.240   0.827  0.1634 -0.0311 -0.2385
  102SOL    HW2  453   0.803   4.291   0.779  0.8770  0.2569 -0.9173
  102SOL    HW3  454   0.863   4.152   0.790  0.4856  0.1104 -0.6257
  102SOL    MW4  455   0.859   4.235   0.816  0.3001  0.0262 -0.3791
  103SOL     OW  456   2.954   3.258   0.328  0.1910 -0.3175  0.3168
  103SOL    HW2  457   3.049   3.250   0.336  0.2536 -0.4940 -0.6146
  103SOL    HW3  458   2.930   3.325   0.393  1.0368  0.2661  0.0319
  103SOL    MW4  459   2.963   3.266   0.338  0.3107 -0.2637  0.1563
  104SOL     OW  460   0.385   1.879   0.819 -0.1036  0.1701 -0.4226
  104SOL    HW2  461   0.409   1.902   0.908 -0.1555  0.4958 -0.4899
  104SOL    HW3  462   0.304   1.928   0.803  0.1634  0.4924 -0.8115
  104SOL    MW4  463   0.377   1.889   0.828 -0.0753  0.2556 -0.4828
  105SOL     OW  464   3.810   2.824   0.699  0.6503 -0.1420 -0.6663
  105SOL    HW2  465   3.815   2.860   0.610  0.6599 -0.1683 -0.6761
  105SOL    HW3  466   3.802   2.902   0.755 -0.9160 -0.1799 -0.8049
  105SOL    MW4  467   3.810   2.839   0.694  0.4449 -0.1504 -0.6859
  106SOL     OW  468   1.797   1.954   0.794  0.0400  0.1230 -0.1730
  106SOL    HW2  469   1.814   1.941   0.887  0.2319  1.5004  0.0028
  106SOL    HW3  470   1.813   1.869   0.754 -0.6201 -0.6305  1.1373
  106SOL    MW4  471   1.801   1.941   0.801 -0.0218  0.2053  0.0232
  107SOL     OW  472   1.688   3.064   0.399  0.5783 -0.0036  0.1161
  107SOL    HW2  473   1.740   3.013   0.336  0.7248 -1.3170  1.2649
  107SOL    HW3  474   1.635   2.998   0.445  0.1391  0.9849  1.0505
  107SOL    MW4  475   1.688   3.048   0.397  0.5397 -0.0467  0.3910
  108SOL     OW  476   3.374   0.641   0.446  0.3972 -0.2392  1.0012
  108SOL    HW2  477   3.281   0.661   0.431  0.6160  0.5025  0.6340
  108SOL    HW3  478   3.413   0.725   0.468  1.3965 -0.1977 -0.9087
  108SOL    MW4  479   3.367   0.655   0.447  0.5581 -0.1359  0.7007
  109SOL     OW  480   2.829   4.034   0.355 -0.1728  0.0108  0.1712
  109SOL    HW2  481   2.916   4.049   0.318 -0.4133  0.0592 -0.3911
  109SOL    HW3  482   2.786   4.119   0.349 -1.1225 -0.5813 -1.8948
  109SOL    MW4  483   2.835   4.047   0.349 -0.3295 -0.0610 -0.1756
  110SOL     OW  484   3.819   1.747   0.323  0.0093 -0.3656  0.0628
  110SOL    HW2  485   3.824   1.705   0.237 -0.7017 -1.9047  0.7462
  110SOL    HW3  486   3.762   1.689   0.375 -0.1737  0.9275  1.3460
  110SOL    MW4  487   3.812   1.734   0.319 -0.1085 -0.3979  0.3223
  111SOL     OW  488   2.452   1.528   0.366 -0.5551  0.0543  0.5754
  111SOL    HW2  489   2.536   1.572   0.378  0.0833 -0.8458 -0.5358
  111SOL    HW3  490   2.387   1.599   0.371  0.3379  0.8921  0.4323
  111SOL    MW4  491   2.455   1.543   0.369 -0.3531  0.0459  0.4098
  112SOL     OW  492   1.212   0.770   0.241 -0.5111 -0.5601 -0.0179
  112SOL    HW2  493   1.129   0.775   0.290 -0.6211  0.5730 -0.3055
  112SOL    HW3  494   1.185   0.759   0.150 -0.3629  0.2997 -0.1723
  112SOL    MW4  495   1.197   0.769   0.235 -0.5062 -0.2971 -0.0762
  113SOL     OW  496   2.411   1.244   0.445  0.0596 -0.0570  0.1098
  113SOL    HW2  497   2.425   1.336   0.423  1.1843 -0.0986  0.6606
  113SOL    HW3  498   2.316   1.237   0.454  0.0472  1.3509  1.3459
  113SOL    MW4  499   2.400   1.256   0.443  0.2067  0.1233  0.3455
  114SOL     OW  500   4.105   3.331   0.391 -0.0561 -0.5769  0.1275
  114SOL    HW2  501   4.176   3.387   0.421 -1.0014 -0.3481  2.0046
  114SOL    HW3  502   4.144   3.277   0.322  0.9252  2.2362 -1.6090
  114SOL    MW4  503   4.119   3.331   0.386 -0.0515 -0.1760  0.1461
  115SOL     OW  504   2.085   2.850   0.534 -0.2246  0.4152 -0.1405
  115SOL    HW2  505   2.075   2.927   0.479 -0.6906  0.6080  0.2195
  115SOL    HW3  506   2.048   2.875   0.618  0.5875  0.1572  0.2993
  115SOL    MW4  507   2.079   2.863   0.538 -0.1791  0.4067 -0.0350
  116SOL     OW  508   2.750   0.161   0.706  0.1163  0.1823 -0.0140
  116SOL    HW2  509   2.827   0.118   0.744  0.4322  0.3269 -0.4842
  116SOL    HW3  510   2.783   0.205   0.628 -0.2145  1.2440  0.4402
  116SOL    MW4  511   2.764   0.161   0.701  0.1144  0.3414 -0.0160
  117SOL     OW  512   1.384   1.889   0.780  0.1003 -0.0423  0.1198
  117SOL    HW2  513   1.296   1.926   0.768 -0.0135 -0.4613 -0.3331
  117SOL    HW3  514   1.442   1.954   0.740  0.0167  0.3311  0.5957
  117SOL    MW4  515   1.380   1.903   0.773  0.0743 -0.0483  0.1228
  118SOL     OW  516   0.509   4.202   0.463 -0.0389 -0.0339 -0.2280
  118SOL    HW2  517   0.511   4.113   0.429  0.8118 -0.1240  0.0328
  118SOL    HW3  518   0.558   4.253   0.399  0.5317  0.0154  0.2394
  118SOL    MW4  519   0.516   4.197   0.450  0.1487 -0.0391 -0.1319
  119SOL     OW  520   0.681   4.323   0.265  0.2697 -0.6561  0.4758
  119SOL    HW2  521   0.666   4.322   0.170  1.3131  1.7347  0.2588
  119SOL    HW3  522   0.717   4.237   0.284 -0.4216 -1.3530 -1.2145
  119SOL    MW4  523   0.684   4.312   0.255  0.3161 -0.4320  0.2242
  120SOL     OW  524   0.240   2.332   0.820  0.0116 -0.0764  0.2203
  120SOL    HW2  525   0.329   2.354   0.795 -0.4088  0.7088 -0.5988
  120SOL    HW3  526   0.237   2.349   0.914  0.5725  0.3971  0.1547
  120SOL    MW4  527   0.251   2.337   0.829  0.0302  0.0896  0.1037
  121SOL     OW  528   0.013   2.455   0.732 -0.3873  0.3593 -0.1067
  121SOL    HW2  529   0.020   2.445   0.637  1.8662  1.3950 -0.0951
  121SOL    HW3  530   0.085   2.402   0.767  0.9976  2.7362  0.7889
  121SOL    MW4  531   0.024   2.447   0.724  0.0927  0.8094  0.0130
  122SOL     OW  532   1.885   2.492   0.438  0.4884  0.4334 -0.4266
  122SOL    HW2  533   1.883   2.586   0.420 -0.3141  0.5548  0.2800
  122SOL    HW3  534   1.839   2.483   0.521  1.6358 -0.4403  0.1301
  122SOL    MW4  535   1.879   2.504   0.447  0.5338  0.3343 -0.2599
  123SOL     OW  536   0.922   4.660   0.471 -0.1416 -0.3295 -0.0295
  123SOL    HW2  537   0.840   4.613   0.456 -0.2981 -0.1355  0.2100
  123SOL    HW3  538   0.906   4.748   0.438 -0.2265 -0.1247  0.5571
  123SOL    MW4  539   0.909   4.665   0.464 -0.1734 -0.2769  0.0794
  124SOL     OW  540   3.401   3.133   0.378 -0.3732 -0.1880  0.2841
  124SOL    HW2  541   3.453   3.061   0.415 -0.1459  1.2031  2.7998
  124SOL    HW3  542   3.348   3.091   0.310  0.7547 -2.4796  0.7430
  124SOL    MW4  543   3.401   3.118   0.374 -0.1943 -0.3068  0.6766
  125SOL     OW  544   2.659   1.130   0.849  0.3713 -0.1921  0.2779
  125SOL    HW2  545   2.744   1.172   0.833  0.2442 -0.2482 -0.5644
  125SOL    HW3  546   2.660   1.051   0.795 -0.4615  0.1246 -0.2122
  125SOL    MW4  547   2.670   1.125   0.840  0.2449 -0.1577  0.1020
  126SOL     OW  548   1.802   0.382   0.838  0.3879 -0.8356  0.3636
  126SOL    HW2  549   1.813   0.288   0.824 -1.4459 -1.0232  0.0252
  126SOL    HW3  550   1.722   0.404   0.790  0.8142  0.9071  0.4173
  126SOL    MW4  551   1.793   0.373   0.830  0.2021 -0.6304  0.3260
  127SOL     OW  552   0.025   0.443   0.662  0.3347  0.7682  0.0070
  127SOL    HW2  553  -0.062   0.480   0.675  0.0161  0.6789 -1.8270
  127SOL    HW3  554   0.014   0.376   0.595  1.2596 -1.3964  1.9451
  127SOL    MW4  555   0.012   0.439   0.655  0.4147  0.4708  0.0207
  128SOL     OW  556   0.503   2.363   0.725 -0.0019 -0.3499  0.3427
  128SOL    HW2  557   0.486   2.455   0.744 -1.5664 -0.5260 -0.0773
  128SOL    HW3  558   0.580   2.341   0.777  1.3497  1.6048 -0.7576
  128SOL    MW4  559   0.511   2.372   0.734 -0.0300 -0.1152  0.1421
  129SOL     OW  560   0.540   1.922   0.580  0.0232  0.1209  0.4664
  129SOL    HW2  561   0.487   1.908   0.659 -0.5366  2.0872  0.4743
  129SOL    HW3  562   0.564   1.834   0.551 -0.4786 -0.6622  2.3508
  129SOL    MW4  563   0.536   1.909   0.587 -0.1169  0.2769  0.7161
  130SOL     OW  564   3.480   2.266   0.390 -0.0414 -0.0237  0.5123
  130SOL    HW2  565   3.560   2.317   0.406 -0.2530  0.9907 -1.4485
  130SOL    HW3  566   3.409   2.326   0.413 -0.2830  0.5062 -1.4582
  130SOL    MW4  567   3.481   2.281   0.395 -0.1011  0.1800 -0.0064
  131SOL     OW  568   4.211   0.877   0.472  0.1578  0.1769  0.1330
  131SOL    HW2  569   4.168   0.906   0.552  0.9879 -0.0610  0.6760
  131SOL    HW3  570   4.190   0.785   0.464 -2.1199  0.7913 -1.3607
  131SOL    MW4  571   4.203   0.869   0.481 -0.0329  0.2266  0.0076
  132SOL     OW  572   1.434   2.543   0.497 -0.1862  0.4094  0.2023
  132SOL    HW2  573   1.417   2.505   0.584  0.8060 -2.3070 -0.7450
  132SOL    HW3  574   1.347   2.565   0.463 -0.7479 -0.5660  0.9799
  132SOL    MW4  575   1.420   2.541   0.504 -0.1293 -0.0777  0.1798
  133SOL     OW  576   2.145   1.173   0.459 -0.4514  0.5514 -0.0784
  133SOL    HW2  577   2.103   1.087   0.451 -1.6466  0.9943  1.1899
  133SOL    HW3  578   2.090   1.231   0.405 -1.2777  1.0592  1.2888
  133SOL    MW4  579   2.132   1.170   0.450 -0.7181  0.6769  0.2693
  134SOL     OW  580   1.263   1.646   0.442  0.1256 -0.4587 -0.7512
  134SOL    HW2  581   1.347   1.641   0.397 -0.6534 -0.3862 -2.2330
  134SOL    HW3  582   1.253   1.739   0.464 -0.0192 -0.3044 -1.4569
  134SOL    MW4  583   1.272   1.658   0.439  0.0038 -0.4288 -1.0398
  135SOL     OW  584   2.292   4.579   0.308 -0.6501 -0.5224 -0.0388
  135SOL    HW2  585   2.369   4.634   0.317 -1.1278  0.2252 -0.4199
  135SOL    HW3  586   2.320   4.492   0.337  0.0789 -0.0547  0.6711
  135SOL    MW4  587   2.306   4.574   0.313 -0.6173 -0.3619  0.0046
  136SOL     OW  588   3.341   4.161   0.468  0.3693  0.2907  0.2171
  136SOL    HW2  589   3.345   4.255   0.452  0.5008  0.2647  0.0901
  136SOL    HW3  590   3.431   4.131   0.457  0.2033  0.0335 -0.4534
  136SOL    MW4  591   3.354   4.170   0.465  0.3650  0.2537  0.1119
  137SOL     OW  592   3.395   1.323   0.721 -0.2864 -0.0080  0.0034
  137SOL    HW2  593   3.388   1.364   0.635 -1.2661 -1.4576 -0.6433
  137SOL    HW3  594   3.310   1.280   0.734  0.2373 -0.7038  1.2166
  137SOL    MW4  595   3.383   1.322   0.712 -0.3467 -0.2910  0.0781
  138SOL     OW  596   2.861   0.300   0.460  0.6260  0.5320 -0.5173
  138SOL    HW2  597   2.858   0.396   0.457  0.0333  0.5645  0.7508
  138SOL    HW3  598   2.808   0.272   0.385  1.7828  1.1876 -1.5958
  138SOL    MW4  599   2.853   0.309   0.450  0.7005  0.6228 -0.4923
  139SOL     OW  600   2.700   1.938   0.773 -0.1169  0.3939  0.1234
  139SOL    HW2  601   2.628   1.977   0.723 -0.7207  0.7212  1.2183
  139SOL    HW3  602   2.778   1.983   0.741 -0.4149  0.1896 -0.9262
  139SOL    MW4  603   2.701   1.949   0.762 -0.2358  0.4100  0.1293
  140SOL     OW  604   4.295   4.476   0.485 -0.3359 -0.0610  0.3181
  140SOL    HW2  605   4.218   4.527   0.459 -0.2665  0.2226  0.6713
  140SOL    HW3  606   4.263   4.385   0.486 -0.5368  0.0035 -0.0093
  140SOL    MW4  607   4.280   4.470   0.481 -0.3533 -0.0148  0.3215
  141SOL     OW  608   0.197   1.247   0.696  0.0347 -0.2074  0.0811
  141SOL    HW2  609   0.154   1.211   0.618  1.2308  0.3562 -0.8656
  141SOL    HW3  610   0.160   1.334   0.707 -2.7336 -1.5921  2.2693
  141SOL    MW4  611   0.187   1.253   0.687 -0.1728 -0.3158  0.2449
  142SOL     OW  612   3.438   2.009   0.466  0.3997 -0.0748  0.2493
  142SOL    HW2  613   3.382   1.950   0.415  0.5822 -0.4834  0.5168
  142SOL    HW3  614   3.440   2.090   0.415  0.6316 -0.4979 -0.4334
  142SOL    MW4  615   3.431   2.012   0.452  0.4547 -0.1845  0.1945
  143SOL     OW  616   3.158   0.388   0.804  0.1528 -0.2953 -0.4291
  143SOL    HW2  617   3.233   0.445   0.790 -0.2515  0.5796  0.9093
  143SOL    HW3  618   3.158   0.371   0.898 -0.3038 -1.7118 -0.6853
  143SOL    MW4  619   3.168   0.394   0.814  0.0393 -0.3668 -0.2863
  144SOL     OW  620   0.009   2.723   0.783 -0.0382  0.0846  0.1340
  144SOL    HW2  621  -0.006   2.734   0.877  1.3198  0.1858  0.3380
  144SOL    HW3  622   0.017   2.629   0.770  1.3132  0.1705  0.3516
  144SOL    MW4  623   0.008   2.712   0.794  0.3193  0.1094  0.1896
  145SOL     OW  624   2.057   4.653   0.879  0.0610 -0.1286 -0.0635
  145SOL    HW2  625   2.062   4.649   0.975  0.6714 -0.3557 -0.1037
  145SOL    HW3  626   2.149   4.656   0.851 -0.0563 -2.2112 -0.7340
  145SOL    MW4  627   2.070   4.653   0.888  0.1261 -0.4334 -0.1572
  146SOL     OW  628   0.541   3.412   0.346  0.2371 -0.0511 -0.0490
  146SOL    HW2  629   0.456   3.383   0.314  0.3219  0.7242 -0.9898
  146SOL    HW3  630   0.597   3.335   0.342 -0.3627 -0.5143  0.3911
  146SOL    MW4  631   0.537   3.398   0.341  0.1691 -0.0098 -0.1150
  147SOL     OW  632   4.488   2.720   1.073 -0.1313  0.0615  0.0041
  147SOL    HW2  633   4.412   2.770   1.102  0.1077 -0.0549  0.8217
  147SOL    HW3  634   4.493   2.647   1.133 -0.4742 -0.9624 -1.1846
  147SOL    MW4  635   4.478   2.717   1.084 -0.1450 -0.0889 -0.0449
  148SOL     OW  636   4.051   2.740   0.826 -0.5748 -0.2143  0.3881
  148SOL    HW2  637   4.118   2.773   0.766  0.6958 -1.6582  0.9754
  148SOL    HW3  638   3.968   2.757   0.781  0.1741  1.4926 -0.4037
  148SOL    MW4  639   4.049   2.747   0.812 -0.3085 -0.1798  0.3611
  149SOL     OW  640   0.885   1.193   0.791  0.4320 -0.4025  0.4080
  149SOL    HW2  641   0.897   1.221   0.700  1.1953 -1.8883  0.0336
  149SOL    HW3  642   0.840   1.109   0.783 -0.3481 -0.0869  1.4452
  149SOL    MW4  643   0.880   1.186   0.778  0.4297 -0.5568  0.4954
  150SOL     OW  644   2.570   4.642   0.660 -0.2786  0.2286 -0.1292
  150SOL    HW2  645   2.490   4.658   0.711 -0.2615 -0.8679  0.2587
  150SOL    HW3  646   2.633   4.706   0.694 -0.4574 -0.0854  0.8047
  150SOL    MW4  647   2.568   4.653   0.672 -0.2999  0.0424  0.0453
  151SOL     OW  648   0.157   3.594   0.434  0.1683 -0.0763  0.4837
  151SOL    HW2  649   0.171   3.584   0.528  0.7570  0.0658  0.4111
  151SOL    HW3  650   0.196   3.678   0.413 -2.0534  1.0106  0.5369
  151SOL    MW4  651   0.164   3.604   0.444 -0.0471  0.0854  0.4811
  152SOL     OW  652   4.154   0.609   0.435  0.0482  0.4709 -0.3468
  152SOL    HW2  653   4.187   0.568   0.515  0.4357  0.3531 -0.5635
  152SOL    HW3  654   4.218   0.585   0.368  0.5595  1.8599 -0.3703
  152SOL    MW4  655   4.167   0.600   0.437  0.1664  0.6388 -0.3785
  153SOL     OW  656   2.568   3.888   0.288  0.1371  0.2943  0.5234
  153SOL    HW2  657   2.554   3.879   0.382  0.3821  2.5332  0.8143
  153SOL    HW3  658   2.637   3.954   0.280 -0.1941  0.4606 -1.2354
  153SOL    MW4  659   2.575   3.896   0.299  0.1256  0.6118  0.3297
  154SOL     OW  660   3.595   1.675   0.748 -0.2488  0.0198  0.0196
  154SOL    HW2  661   3.521   1.640   0.798 -0.6478  0.2910 -0.3759
  154SOL    HW3  662   3.672   1.654   0.801 -0.7283  0.9247  1.0986
  154SOL    MW4  663   3.595   1.668   0.761 -0.3648  0.1750  0.1098
  155SOL     OW  664   2.228   2.044   0.486  0.0559 -0.3274  0.3520
  155SOL    HW2  665   2.154   2.003   0.531  0.0012 -1.6835 -0.9280
  155SOL    HW3  666   2.190   2.122   0.444 -0.4159 -0.4044  0.6323
  155SOL    MW4  667   2.213   2.049   0.486 -0.0138 -0.5162  0.2201
  156SOL     OW  668   2.022   1.523   0.857 -0.2097 -0.2200  0.2380
  156SOL    HW2  669   2.018   1.440   0.809 -0.2871 -0.3210  0.4181
  156SOL    HW3  670   2.101   1.566   0.824 -0.2082 -0.3346  0.0933
  156SOL    MW4  671   2.032   1.517   0.846 -0.2198 -0.2484  0.2427
  157SOL     OW  672   0.447   0.533   0.725  0.1460 -0.0085  0.7019
  157SOL    HW2  673   0.532   0.556   0.764  0.3282 -0.2836  0.4674
  157SOL    HW3  674   0.410   0.469   0.786 -0.4677  1.0839  1.4796
  157SOL    MW4  675   0.453   0.527   0.738  0.0891  0.0994  0.7735
  158SOL     OW  676   0.808   2.712   0.350 -0.1086  0.6003  0.2097
  158SOL    HW2  677   0.726   2.757   0.371 -0.6992 -0.5907  0.5323
  158SOL    HW3  678   0.876   2.766   0.389 -0.8065  1.1728  0.6504
  158SOL    MW4  679   0.806   2.725   0.358 -0.2787  0.5186  0.3105
  159SOL     OW  680   0.260   4.640   0.425 -0.4913 -0.4000  0.1154
  159SOL    HW2  681   0.348   4.678   0.426 -0.2690 -0.8597 -0.9797
  159SOL    HW3  682   0.276   4.545   0.416 -1.1008 -0.4187 -0.8414
  159SOL    MW4  683   0.274   4.632   0.424 -0.5424 -0.4635 -0.1553
  160SOL     OW  684   3.234   1.811   0.376 -0.0465  0.4399  0.7804
  160SOL    HW2  685   3.161   1.839   0.321  0.8322  1.4570  0.0929
  160SOL    HW3  686   3.206   1.728   0.413 -1.4610  0.7127  0.3611
  160SOL    MW4  687   3.221   1.804   0.374 -0.1171  0.6101  0.6344
  161SOL     OW  688   1.054   0.492   0.457  0.3719 -0.0016 -0.3600
  161SOL    HW2  689   1.147   0.509   0.441  0.1970  2.2614  0.8226
  161SOL    HW3  690   1.009   0.570   0.425 -1.1536 -1.1034 -0.9818
  161SOL    MW4  691   1.060   0.504   0.451  0.1475  0.1516 -0.2860
  162SOL     OW  692   0.179   4.129   0.294  0.1903  0.3576 -0.0053
  162SOL    HW2  693   0.183   4.214   0.339  0.7178  0.2120  0.2253
  162SOL    HW3  694   0.214   4.147   0.206 -2.1556  0.9556 -0.8498
  162SOL    MW4  695   0.184   4.143   0.288 -0.0496  0.4177 -0.0863
  163SOL     OW  696   0.542   1.669   0.480 -0.1537 -0.6967  0.2071
  163SOL    HW2  697   0.449   1.647   0.485 -0.8039  2.2615  1.8998
  163SOL    HW3  698   0.562   1.664   0.386 -2.0751 -1.0762 -0.2024
  163SOL    MW4  699   0.533   1.665   0.468 -0.4929 -0.3564  0.3764
  164SOL     OW  700   2.875   2.332   0.827  0.1827  0.2300  0.2112
  164SOL    HW2  701   2.791   2.375   0.811 -1.1304 -1.8759  1.3676
  164SOL    HW3  702   2.884   2.332   0.922  0.7864 -0.8932  0.1589
  164SOL    MW4  703   2.865   2.338   0.837  0.0889 -0.1960  0.3570
  165SOL     OW  704   2.682   3.257   0.257 -0.1041 -0.1140 -0.4757
  165SOL    HW2  705   2.654   3.344   0.285  0.7845  0.3381 -0.9832
  165SOL    HW3  706   2.773   3.250   0.285  0.0268 -0.6314 -1.0020
  165SOL    MW4  707   2.690   3.267   0.264  0.0308 -0.1228 -0.6121
  166SOL     OW  708   0.943   0.739   0.339  0.0667 -0.0039  0.5869
  166SOL    HW2  709   0.923   0.814   0.396 -0.0558 -0.1908  0.7897
  166SOL    HW3  710   0.858   0.703   0.316  0.0531  0.8984 -0.8269
  166SOL    MW4  711   0.929   0.744   0.344  0.0487  0.0905  0.4272
  167SOL     OW  712   1.237   1.431   0.870 -0.1132  0.1099 -0.8224
  167SOL    HW2  713   1.320   1.479   0.870 -0.0742  0.0765  0.9033
  167SOL    HW3  714   1.181   1.480   0.930 -0.6879 -0.9634 -0.4735
  167SOL    MW4  715   1.240   1.444   0.878 -0.1838 -0.0361 -0.5487
  168SOL     OW  716   0.248   3.902   0.422 -0.3508  0.3065  0.2462
  168SOL    HW2  717   0.206   3.968   0.366 -0.6584 -1.1990 -1.3444
  168SOL    HW3  718   0.206   3.913   0.507 -0.2499  2.2964  0.0709
  168SOL    MW4  719   0.237   3.912   0.425 -0.3781  0.3705  0.0132
  169SOL     OW  720   0.001   0.002   0.498  0.2321 -0.6376  0.4532
  169SOL    HW2  721  -0.051  -0.077   0.484  0.1623 -0.4870 -0.1302
  169SOL    HW3  722   0.089  -0.023   0.470  0.0124 -0.2185 -0.6330
  169SOL    MW4  723   0.006  -0.012   0.493  0.1941 -0.5627  0.2329
  170SOL     OW  724   4.103   1.101   0.345 -0.0375  0.0302 -0.0158
  170SOL    HW2  725   4.016   1.088   0.384  0.1201  0.9672  0.6651
  170SOL    HW3  726   4.150   1.019   0.363 -0.7453 -0.4383 -0.2957
  170SOL    MW4  727   4.098   1.088   0.353 -0.1101  0.0921  0.0371
  171SOL     OW  728   1.643   1.561   0.621  0.2020 -0.2855  0.0461
  171SOL    HW2  729   1.716   1.617   0.646  0.2817 -0.5412  0.3956
  171SOL    HW3  730   1.578   1.574   0.691 -0.1147 -0.0018 -0.3036
  171SOL    MW4  731   1.644   1.570   0.634  0.1707 -0.2819  0.0461
  172SOL     OW  732   4.355   0.576   0.228 -0.3767  0.0078  0.0889
  172SOL    HW2  733   4.434   0.611   0.269 -0.6614  0.1059  0.5515
  172SOL    HW3  734   4.347   0.626   0.146  0.0361 -0.0007  0.0419
  172SOL    MW4  735   4.364   0.587   0.222 -0.3600  0.0196  0.1438
  173SOL     OW  736   1.555   2.294   1.120  0.2209  0.2778  0.0839
  173SOL    HW2  737   1.566   2.306   1.026 -0.2345  0.7121  0.0841
  173SOL    HW3  738   1.489   2.358   1.145  1.2356  1.0303  0.9110
  173SOL    MW4  739   1.548   2.304   1.111  0.2948  0.4344  0.1931
  174SOL     OW  740   0.730   1.401   0.479 -0.0974  0.1963  0.2620
  174SOL    HW2  741   0.695   1.313   0.493 -0.6082  0.4950  0.8778
  174SOL    HW3  742   0.745   1.406   0.384  0.2103 -0.6530  0.2695
  174SOL    MW4  743   0.727   1.390   0.468 -0.1242  0.1236  0.3442
  175SOL     OW  744   4.051   1.732   0.760 -0.7537 -0.1562 -0.4809
  175SOL    HW2  745   4.118   1.664   0.757  0.2461  0.8237 -0.3371
  175SOL    HW3  746   4.030   1.749   0.668 -0.9974 -0.6407 -0.5179
  175SOL    MW4  747   4.057   1.725   0.747 -0.6537 -0.0908 -0.4668
  176SOL     OW  748   0.854   3.258   0.447 -0.0239 -0.0367 -0.0559
  176SOL    HW2  749   0.857   3.250   0.542 -2.6677 -0.0574  0.0618
  176SOL    HW3  750   0.937   3.221   0.417  1.3445  0.9744  2.2773
  176SOL    MW4  751   0.866   3.252   0.455 -0.1922  0.0942  0.2675
  177SOL     OW  752   2.669   1.980   0.474 -0.1402  0.1864 -0.2238
  177SOL    HW2  753   2.721   2.049   0.433 -0.6118  0.4457 -0.3978
  177SOL    HW3  754   2.594   2.027   0.513 -1.1308 -0.3683 -1.4291
  177SOL    MW4  755   2.666   1.995   0.474 -0.3331  0.1475 -0.4058
  178SOL     OW  756   1.556   2.802   0.778  0.2635 -0.3048  0.3001
  178SOL    HW2  757   1.572   2.807   0.684  1.0296  0.1503  0.4459
  178SOL    HW3  758   1.477   2.750   0.787  0.0093 -0.0752 -0.6141
  178SOL    MW4  759   1.548   2.796   0.767  0.3310 -0.2143  0.1988
  179SOL     OW  760   2.963   0.042   0.418  0.8195 -0.2009 -0.1586
  179SOL    HW2  761   3.057   0.038   0.400  0.8928 -0.3007  0.2355
  179SOL    HW3  762   2.947   0.134   0.439  0.8703 -0.2238 -0.0171
  179SOL    MW4  763   2.974   0.054   0.419  0.8359 -0.2171 -0.0879
  180SOL     OW  764   0.401   1.020   0.381 -0.0188 -0.1519  0.0728
  180SOL    HW2  765   0.406   0.935   0.337 -0.5009  0.0384 -0.3530
  180SOL    HW3  766   0.390   0.999   0.474  0.8390 -0.5559  0.0829
  180SOL    MW4  767   0.400   1.006   0.388  0.0308 -0.1801  0.0179
  181SOL     OW  768   1.540   2.156   0.427  0.2650 -0.3092 -0.3871
  181SOL    HW2  769   1.447   2.179   0.429  0.5686  0.9738 -0.2994
  181SOL    HW3  770   1.581   2.230   0.383  1.1969 -1.0638 -0.7943
  181SOL    MW4  771   1.533   2.169   0.421  0.4280 -0.2396 -0.4292
  182SOL     OW  772   2.685   0.902   0.437  0.2511 -0.0498 -0.0723
  182SOL    HW2  773   2.611   0.934   0.385 -1.1559 -1.2379  1.1596
  182SOL    HW3  774   2.702   0.814   0.404  0.7812  0.0279 -0.0087
  182SOL    MW4  775   2.677   0.895   0.426  0.1352 -0.1963  0.0986
  183SOL     OW  776   1.125   1.078   0.485  0.0844  0.1800 -0.1319
  183SOL    HW2  777   1.113   1.173   0.489  0.8482  0.3346 -1.2135
  183SOL    HW3  778   1.193   1.066   0.418  1.2277 -1.0168  1.2137
  183SOL    MW4  779   1.133   1.089   0.476  0.3359  0.0426 -0.0971
  184SOL     OW  780   2.360   3.492   0.485 -0.0544  0.4937  0.0686
  184SOL    HW2  781   2.297   3.560   0.460 -0.2431  0.2293 -0.1796
  184SOL    HW3  782   2.390   3.518   0.572  0.5512  1.3801 -0.4051
  184SOL    MW4  783   2.355   3.504   0.494  0.0007  0.5758 -0.0266
  185SOL     OW  784   3.865   0.580   0.427 -0.4720  0.2510 -0.1519
  185SOL    HW2  785   3.960   0.596   0.426 -0.7683  2.0314 -0.4040
  185SOL    HW3  786   3.826   0.667   0.422 -2.1320 -0.4863 -0.1555
  185SOL    MW4  787   3.873   0.593   0.426 -0.7303  0.3886 -0.1856
  186SOL     OW  788   0.201   3.597   0.704 -0.4140 -0.3172 -0.5273
  186SOL    HW2  789   0.284   3.565   0.740 -0.2817 -0.3088 -0.8202
  186SOL    HW3  790   0.135   3.537   0.739 -0.3672  0.0615  0.2281
  186SOL    MW4  791   0.203   3.585   0.713 -0.3904 -0.2663 -0.4663
  187SOL     OW  792   0.650   2.817   0.747 -0.5510 -0.1194 -0.5523
  187SOL    HW2  793   0.623   2.840   0.658  0.7311 -1.4047 -1.2981
  187SOL    HW3  794   0.601   2.736   0.766 -0.3657 -0.1802 -0.3317
  187SOL    MW4  795   0.640   2.809   0.738 -0.3573 -0.2971 -0.6216
  188SOL     OW  796   1.990   1.551   1.133  0.0457 -0.4655 -0.2221
  188SOL    HW2  797   2.015   1.540   1.041 -0.4451  0.9148 -0.5446
  188SOL    HW3  798   1.974   1.463   1.165 -0.6420 -0.9039 -1.7259
  188SOL    MW4  799   1.991   1.538   1.125 -0.1098 -0.3412 -0.4630
  189SOL     OW  800   2.949   4.376   0.743 -0.4314 -0.2295 -0.3261
  189SOL    HW2  801   2.896   4.300   0.769 -1.5129  0.8535  0.6737
  189SOL    HW3  802   2.915   4.399   0.656 -0.3004 -0.7022 -0.5065
  189SOL    MW4  803   2.937   4.369   0.735 -0.5569 -0.1493 -0.2179
  190SOL     OW  804   0.897   3.848   0.446  0.0683 -0.0899 -0.3063
  190SOL    HW2  805   0.908   3.763   0.404  1.0887 -0.5336  0.8179
  190SOL    HW3  806   0.987   3.880   0.458 -0.2815  0.8051 -0.0262
  190SOL    MW4  807   0.911   3.841   0.442  0.1568 -0.0305 -0.1210
  191SOL     OW  808   0.870   1.182   0.238 -0.2962 -0.1992 -0.1499
  191SOL    HW2  809   0.943   1.243   0.229 -0.7272  0.3235 -0.0747
  191SOL    HW3  810   0.793   1.231   0.210 -0.7761 -0.4077  0.7824
  191SOL    MW4  811   0.869   1.196   0.233 -0.4164 -0.1577 -0.0170
  192SOL     OW  812   2.165   0.518   0.392  0.2301 -0.1763  0.6240
  192SOL    HW2  813   2.117   0.548   0.314 -0.1466  0.7887  1.2171
  192SOL    HW3  814   2.205   0.597   0.427 -0.0863 -0.5068  1.7459
  192SOL    MW4  815   2.164   0.532   0.386  0.1383 -0.0926  0.8503
  193SOL     OW  816   3.543   2.918   0.487 -0.0057 -0.1898  0.3859
  193SOL    HW2  817   3.540   2.911   0.582  0.1649  0.6285  0.4561
  193SOL    HW3  818   3.539   2.827   0.456 -1.1817 -0.4098  1.1322
  193SOL    MW4  819   3.542   2.905   0.496 -0.1383 -0.1109  0.4936
  194SOL     OW  820   3.131   1.950   0.781  0.2969 -0.3413 -0.0232
  194SOL    HW2  821   3.123   1.953   0.876 -0.1503  1.7085 -0.0987
  194SOL    HW3  822   3.212   1.996   0.762 -0.8213  1.3914 -0.7493
  194SOL    MW4  823   3.141   1.957   0.791  0.0906  0.1578 -0.1290
  195SOL     OW  824   2.512   0.092   0.400  0.1485 -0.3826 -0.2660
  195SOL    HW2  825   2.541   0.055   0.483 -0.1790 -1.8769 -0.7934
  195SOL    HW3  826   2.486   0.181   0.421  0.4853 -0.6050  1.1531
  195SOL    MW4  827   2.512   0.099   0.414  0.1497 -0.6091 -0.1484
  196SOL     OW  828   3.869   3.861   0.830 -0.2809 -0.1424  0.0901
  196SOL    HW2  829   3.859   3.774   0.792 -2.0015  0.3536 -0.6545
  196SOL    HW3  830   3.926   3.907   0.768 -0.8323 -0.1955 -0.4665
  196SOL    MW4  831   3.875   3.856   0.817 -0.5808 -0.0842 -0.0816
  197SOL     OW  832   0.796   1.767   0.373 -0.3052  0.2199  0.1013
  197SOL    HW2  833   0.861   1.700   0.352 -0.6076 -0.2327  0.5755
  197SOL    HW3  834   0.847   1.846   0.388  0.3258 -0.5365  2.2122
  197SOL    MW4  835   0.811   1.768   0.372 -0.2618  0.0604  0.4424
  198SOL     OW  836   0.526   3.924   0.428  0.1747 -0.4418 -0.1471
  198SOL    HW2  837   0.516   3.948   0.520 -0.8442 -0.2443 -0.3091
  198SOL    HW3  838   0.437   3.914   0.396  0.4681  1.5543 -1.6532
  198SOL    MW4  839   0.513   3.926   0.436  0.0790 -0.1523 -0.3672
  199SOL     OW  840   3.110   0.957   0.460  0.1949 -0.5554  0.3662
  199SOL    HW2  841   3.097   0.872   0.417  0.1245 -0.2367 -0.2496
  199SOL    HW3  842   3.123   0.936   0.552  1.2414 -1.3066  0.0484
  199SOL    MW4  843   3.110   0.943   0.466  0.3238 -0.6124  0.2430
  200SOL     OW  844   1.783   0.824   0.745 -0.0575 -0.1859 -0.3259
  200SOL    HW2  845   1.771   0.829   0.650  1.4553  1.0124 -0.4817
  200SOL    HW3  846   1.788   0.916   0.773  0.7887 -0.5488  0.7231
  200SOL    MW4  847   1.782   0.837   0.736  0.2536 -0.0757 -0.2080
  201SOL     OW  848   3.863   1.316   0.802 -0.5114 -0.4138 -0.1239
  201SOL    HW2  849   3.793   1.253   0.819 -0.2441 -0.8337 -0.6067
  201SOL    HW3  850   3.944   1.266   0.811 -0.2904 -0.0715 -0.2049
  201SOL    MW4  851   3.864   1.301   0.806 -0.4468 -0.4240 -0.1983
  202SOL     OW  852   1.807   2.658   1.111  0.1323 -0.3410 -0.4882
  202SOL    HW2  853   1.799   2.566   1.138 -0.6967 -0.0075  0.4388
  202SOL    HW3  854   1.868   2.696   1.173 -1.0122  0.1906  0.3296
  202SOL    MW4  855   1.814   2.651   1.122 -0.1281 -0.2272 -0.2580
  203SOL     OW  856   1.128   2.270   0.836 -0.3828 -0.0427 -0.0120
  203SOL    HW2  857   1.068   2.331   0.794  2.1039  1.5071 -1.4414
  203SOL    HW3  858   1.114   2.284   0.930 -0.7122  1.8514 -0.3200
  203SOL    MW4  859   1.118   2.280   0.843 -0.0981  0.4120 -0.2413
  204SOL     OW  860   1.518   0.401   0.467 -1.0120  0.1626 -0.0341
  204SOL    HW2  861   1.461   0.466   0.427 -0.2885  0.8498  0.0372
  204SOL    HW3  862   1.527   0.429   0.558 -0.6981 -0.0415  0.0003
  204SOL    MW4  863   1.512   0.413   0.474 -0.8751  0.2263 -0.0202
  205SOL     OW  864   0.068   2.359   0.474 -0.1315 -0.0906  0.0539
  205SOL    HW2  865   0.114   2.280   0.445  2.1121  1.7900 -1.6573
  205SOL    HW3  866   0.013   2.383   0.399  0.1192  0.6652  0.1154
  205SOL    MW4  867   0.067   2.352   0.460  0.1976  0.2570 -0.1638
  206SOL     OW  868   1.132   1.987   0.754 -0.1432 -0.2293  0.0950
  206SOL    HW2  869   1.120   2.079   0.777  1.6224 -0.2392  1.1677
  206SOL    HW3  870   1.061   1.942   0.799  0.6424  0.2977  1.9097
  206SOL    MW4  871   1.121   1.993   0.763  0.1934 -0.1611  0.4759
  207SOL     OW  872   3.872   3.171   0.467 -0.0048 -0.1323 -0.0705
  207SOL    HW2  873   3.940   3.224   0.426 -1.0381  1.8444  0.6929
  207SOL    HW3  874   3.790   3.211   0.437 -0.7839 -0.3441  1.7401
  207SOL    MW4  875   3.870   3.183   0.457 -0.2441  0.1006  0.2691
  208SOL     OW  876   3.028   3.669   0.561 -0.2109  0.3654  0.2131
  208SOL    HW2  877   2.959   3.629   0.509  0.5240 -0.3053 -0.2562
  208SOL    HW3  878   3.000   3.760   0.571 -1.3312  0.0113  0.3336
  208SOL    MW4  879   3.015   3.676   0.555 -0.2615  0.2301  0.1670
  209SOL     OW  880   0.030   0.860   0.741  0.0397  0.3861 -0.2587
  209SOL    HW2  881  -0.038   0.801   0.775  0.3493  0.8972  1.2934
  209SOL    HW3  882   0.111   0.828   0.780  0.2707  1.5718  0.2679
  209SOL    MW4  883   0.031   0.848   0.751  0.1110  0.6099  0.0156
  210SOL     OW  884   2.051   0.718   0.821  0.2106  0.3430 -0.8294
  210SOL    HW2  885   2.055   0.628   0.789 -0.1140  0.2482 -0.5990
  210SOL    HW3  886   1.967   0.751   0.788  0.7911  0.8863 -1.7876
  210SOL    MW4  887   2.041   0.711   0.812  0.2441  0.4022 -0.9254
  211SOL     OW  888   4.000   1.381   0.296 -0.4059  0.0590 -0.2735
  211SOL    HW2  889   4.022   1.295   0.262 -0.3058  0.3413 -0.9358
  211SOL    HW3  890   3.956   1.364   0.380 -0.3275 -0.6250 -0.3709
  211SOL    MW4  891   3.997   1.368   0.303 -0.3819  0.0058 -0.3737
  212SOL     OW  892   1.819   0.120   0.814 -0.6163  0.3913 -0.1971
  212SOL    HW2  893   1.899   0.072   0.837 -1.2074  0.0692  1.2019
  212SOL    HW3  894   1.808   0.103   0.720 -0.3950 -1.5773  0.1144
  212SOL    MW4  895   1.828   0.111   0.804 -0.6651  0.0891  0.0285
  213SOL     OW  896   4.224   0.324   0.278 -0.2264 -0.5178  0.2702
  213SOL    HW2  897   4.300   0.288   0.323 -0.9319 -1.8167  0.4290
  213SOL    HW3  898   4.252   0.411   0.250  1.4998 -1.1924 -0.1470
  213SOL    MW4  899   4.238   0.331   0.280 -0.0911 -0.7782  0.2361
  214SOL     OW  900   3.786   2.347   0.798 -0.0304  0.1927 -0.6207
  214SOL    HW2  901   3.798   2.334   0.892  2.0794 -0.5798 -0.9615
  214SOL    HW3  902   3.694   2.372   0.789 -0.9210 -2.0798  1.4047
  214SOL    MW4  903   3.775   2.348   0.809  0.1302 -0.2093 -0.3985
  215SOL     OW  904   4.247   3.801   0.472 -0.1733 -0.4608 -0.0877
  215SOL    HW2  905   4.281   3.877   0.425  1.4344  0.4196  2.4101
  215SOL    HW3  906   4.153   3.814   0.474  0.0587  1.2890  0.0084
  215SOL    MW4  907   4.239   3.812   0.466  0.0696 -0.1137  0.2546
  216SOL     OW  908   3.336   0.044   0.850  0.3509 -0.1405  0.4290
  216SOL    HW2  909   3.353  -0.032   0.794  0.2884  0.7148 -0.7681
  216SOL    HW3  910   3.268   0.093   0.803 -0.4216  0.0727  1.7541
  216SOL    MW4  911   3.329   0.040   0.836  0.2410  0.0005  0.4458
  217SOL     OW  912   1.781   4.280   0.885 -0.0188  0.2704  0.4547
  217SOL    HW2  913   1.843   4.280   0.812 -3.1136 -2.5034 -2.3415
  217SOL    HW3  914   1.713   4.343   0.858  0.1491  1.2285  2.2040
  217SOL    MW4  915   1.780   4.289   0.872 -0.4050  0.0310  0.3166
  218SOL     OW  916   0.002   0.879   0.467 -0.2003 -0.0910  0.4416
  218SOL    HW2  917   0.021   0.880   0.560 -0.1171 -0.1608  0.4260
  218SOL    HW3  918  -0.094   0.872   0.462 -0.1335 -1.2029  0.5264
  218SOL    MW4  919  -0.008   0.878   0.478 -0.1807 -0.2470  0.4507
  219SOL     OW  920   2.741   0.164   0.252  0.0423 -0.3791 -0.0704
  219SOL    HW2  921   2.788   0.081   0.249 -0.1169 -0.6364  3.0041
  219SOL    HW3  922   2.654   0.142   0.284  0.7462  1.1968  3.1542
  219SOL    MW4  923   2.736   0.150   0.256  0.1140 -0.2051  0.7607
  220SOL     OW  924   3.372   2.064   0.719  0.0890 -0.0673 -0.1835
  220SOL    HW2  925   3.449   2.040   0.770 -0.2460  1.1912  0.9426
  220SOL    HW3  926   3.396   2.044   0.629  1.2272 -0.9645  0.3041
  220SOL    MW4  927   3.385   2.059   0.714  0.1953 -0.0196  0.0294
  221SOL     OW  928   4.196   1.492   0.442 -0.1599  0.4036  0.1362
  221SOL    HW2  929   4.160   1.578   0.464  0.8127  1.5212 -2.4506
  221SOL    HW3  930   4.133   1.454   0.382  0.2598  0.0379 -0.0728
  221SOL    MW4  931   4.183   1.498   0.437  0.0238  0.5027 -0.2326
  222SOL     OW  932   3.609   4.002   0.763  0.0036 -0.3483  0.5299
  222SOL    HW2  933   3.522   3.963   0.762  0.2098 -0.8096 -0.2684
  222SOL    HW3  934   3.666   3.932   0.793  0.2633 -0.4086 -0.1028
  222SOL    MW4  935   3.605   3.988   0.767  0.0651 -0.4170  0.3411
  223SOL     OW  936   1.082   3.104   0.340 -0.0592 -0.1675 -0.4741
  223SOL    HW2  937   1.118   3.112   0.251 -0.6534  0.0680 -0.6978
  223SOL    HW3  938   1.149   3.142   0.396 -0.4643  1.3497 -1.0029
  223SOL    MW4  939   1.096   3.110   0.335 -0.1911  0.0639 -0.5734
  224SOL     OW  940   0.263   3.338   0.389 -0.2651  0.1363  0.1964
  224SOL    HW2  941   0.310   3.321   0.471  0.6240 -0.0544 -0.3411
  224SOL    HW3  942   0.223   3.424   0.402  0.4653  0.4287  0.5729
  224SOL    MW4  943   0.264   3.347   0.402 -0.0515  0.1497  0.1751
  225SOL     OW  944   4.026   0.114   0.746 -0.1710 -0.3162  0.1025
  225SOL    HW2  945   4.031   0.098   0.652 -0.9831  0.3828 -0.0666
  225SOL    HW3  946   3.947   0.069   0.775  0.3712 -0.9882  0.5516
  225SOL    MW4  947   4.016   0.106   0.738 -0.2069 -0.3126  0.1394
  226SOL     OW  948   2.436   0.754   0.796 -0.0657  0.4380  0.1673
  226SOL    HW2  949   2.366   0.807   0.758 -0.9527 -0.8006  0.0527
  226SOL    HW3  950   2.516   0.792   0.761 -0.7443  0.9409 -0.8810
  226SOL    MW4  951   2.437   0.766   0.786 -0.2723  0.3409  0.0138
  227SOL     OW  952   2.445   0.988   0.322 -0.4174  0.3355  0.2578
  227SOL    HW2  953   2.439   1.058   0.387 -2.0025 -0.5134  1.0669
  227SOL    HW3  954   2.388   1.017   0.251  0.6319  0.8560 -0.3890
  227SOL    MW4  955   2.437   1.001   0.321 -0.4883  0.2922  0.2792
  228SOL     OW  956   1.366   2.721   1.145  0.0731  0.2897 -0.4879
  228SOL    HW2  957   1.363   2.712   1.050  1.9605  2.8246 -0.8404
  228SOL    HW3  958   1.293   2.779   1.166 -0.2488 -0.1448 -0.3980
  228SOL    MW4  959   1.356   2.728   1.135  0.2797  0.5667 -0.5227
  229SOL     OW  960   1.564   0.456   0.734  0.0551  0.3067 -0.7489
  229SOL    HW2  961   1.553   0.548   0.758  0.0663 -0.0256  0.5982
  229SOL    HW3  962   1.489   0.412   0.774  1.6695 -0.7226  1.2444
  229SOL    MW4  963   1.552   0.462   0.743  0.2697  0.1270 -0.3082
  230SOL     OW  964   2.219   3.493   0.814  0.0676 -0.0872  0.5170
  230SOL    HW2  965   2.143   3.543   0.784 -0.2744  0.2591  1.9466
  230SOL    HW3  966   2.294   3.545   0.785 -0.2701  0.5722  0.8125
  230SOL    MW4  967   2.219   3.507   0.806 -0.0222  0.0455  0.7446
  231SOL     OW  968   0.470   3.225   0.701  0.2064 -0.1929  0.2752
  231SOL    HW2  969   0.431   3.308   0.726 -0.1337 -0.5614  0.9689
  231SOL    HW3  970   0.402   3.160   0.717  0.3259 -0.5597 -0.6564
  231SOL    MW4  971   0.456   3.227   0.706  0.1773 -0.2902  0.2438
  232SOL     OW  972   4.211   4.205   0.464  0.0295  0.2205  0.0683
  232SOL    HW2  973   4.294   4.161   0.448 -1.4713 -2.0772 -1.6729
  232SOL    HW3  974   4.172   4.158   0.538 -0.0091  0.9296  0.5102
  232SOL    MW4  975   4.217   4.193   0.472 -0.1731  0.0110 -0.1031
  233SOL     OW  976   3.363   3.628   0.705  0.0446  0.4582  0.1830
  233SOL    HW2  977   3.332   3.611   0.616  0.2803  1.6221 -0.1356
  233SOL    HW3  978   3.357   3.723   0.714  0.7235  0.4117  1.1492
  233SOL    MW4  979   3.358   3.639   0.694  0.1655  0.6056  0.2685
  234SOL     OW  980   0.182   0.784   1.115  0.3114 -0.2957 -0.1085
  234SOL    HW2  981   0.098   0.821   1.140  0.1472  0.3116 -1.5248
  234SOL    HW3  982   0.247   0.846   1.149  0.1237  0.1228 -0.5210
  234SOL    MW4  983   0.180   0.797   1.123  0.2650 -0.1603 -0.3499
  235SOL     OW  984   0.634   0.785   0.617  0.1542  0.3066 -0.4803
  235SOL    HW2  985   0.656   0.724   0.688  1.4270  1.1400 -0.1319
  235SOL    HW3  986   0.707   0.847   0.616 -0.4147  0.9686 -1.7842
  235SOL    MW4  987   0.647   0.785   0.626  0.2470  0.5038 -0.6064
  236SOL     OW  988   2.270   4.247   1.077  0.3520 -0.2311 -0.2008
  236SOL    HW2  989   2.331   4.306   1.122  0.4840 -0.9134  0.5452
  236SOL    HW3  990   2.183   4.282   1.098  0.4659  0.3718 -0.7310
  236SOL    MW4  991   2.267   4.260   1.086  0.3846 -0.2408 -0.1723
  237SOL     OW  992   3.670   4.481   0.688 -0.0941 -0.2886 -0.3682
  237SOL    HW2  993   3.729   4.475   0.613 -1.8601  0.1926 -1.8033
  237SOL    HW3  994   3.708   4.551   0.742  2.0456 -1.6819 -0.0037
  237SOL    MW4  995   3.683   4.490   0.686 -0.0448 -0.4091 -0.5094
  238SOL     OW  996   0.550   2.363   0.431  0.1561  0.5827 -0.3547
  238SOL    HW2  997   0.552   2.330   0.521 -0.0011  0.9834 -0.2024
  238SOL    HW3  998   0.537   2.286   0.377 -1.0025  0.4928  0.0482
  238SOL    MW4  999   0.549   2.349   0.436 -0.0175  0.6239 -0.2814
  239SOL     OW 1000   1.101   4.655   0.842  0.0972 -0.5012 -0.4684
  239SOL    HW2 1001   1.100   4.560   0.826 -1.0586 -0.4928 -0.4525
  239SOL    HW3 1002   1.190   4.682   0.818 -0.3675 -1.1530 -3.0450
  239SOL    MW4 1003   1.113   4.646   0.837 -0.1168 -0.5856 -0.8063
  240SOL     OW 1004   0.776   2.037   0.666 -0.3659  0.2980 -0.1216
  240SOL    HW2 1005   0.824   2.053   0.585  0.1581  0.6520  0.2537
  240SOL    HW3 1006   0.687   2.015   0.638  0.1711 -1.0021 -0.8557
  240SOL    MW4 1007   0.771   2.036   0.652 -0.2259  0.1731 -0.1690
  241SOL     OW 1008   1.313   2.687   0.856  0.0307 -0.1984 -0.4923
  241SOL    HW2 1009   1.318   2.596   0.826 -0.9684 -0.1758 -0.7329
  241SOL    HW3 1010   1.235   2.722   0.813  0.1372  0.6336 -0.0113
  241SOL    MW4 1011   1.304   2.680   0.846 -0.0870 -0.0856 -0.4606
  242SOL     OW 1012   3.868   1.074   0.501 -0.0534  0.2666  0.1521
  242SOL    HW2 1013   3.900   1.050   0.588 -0.7830 -1.0570  0.0673
  242SOL    HW3 1014   3.831   1.161   0.512 -0.9758 -0.2789  1.3758
  242SOL    MW4 1015   3.868   1.082   0.514 -0.2713  0.0200  0.3024
  243SOL     OW 1016   3.778   0.355   0.264  0.2209  0.6161 -0.3749
  243SOL    HW2 1017   3.685   0.367   0.282 -0.0019  1.6285 -2.0946
  243SOL    HW3 1018   3.821   0.421   0.318  0.0040 -0.1527  0.7764
  243SOL    MW4 1019   3.771   0.365   0.274  0.1628  0.6482 -0.4499
  244SOL     OW 1020   1.334   1.325   0.290  0.4782 -0.0129  0.0077
  244SOL    HW2 1021   1.428   1.347   0.290  0.3443  0.5828  0.8199
  244SOL    HW3 1022   1.332   1.232   0.267  1.3853 -0.4565  1.6054
  244SOL    MW4 1023   1.346   1.316   0.287  0.5802  0.0072  0.3256
  245SOL     OW 1024   2.665   1.666   0.744 -0.0679  0.1836  0.2241
  245SOL    HW2 1025   2.751   1.624   0.746  0.4325  1.0882 -1.0875
  245SOL    HW3 1026   2.682   1.758   0.766 -0.4457  0.7156 -1.6013
  245SOL    MW4 1027   2.678   1.673   0.747 -0.0517  0.3731 -0.1898
  246SOL     OW 1028   2.208   3.727   0.413  0.2815 -0.2016 -0.2593
  246SOL    HW2 1029   2.124   3.684   0.398  0.4525 -0.4355 -0.5501
  246SOL    HW3 1030   2.187   3.803   0.467 -0.0451 -0.5679  0.1420
  246SOL    MW4 1031   2.194   3.731   0.418  0.2611 -0.2809 -0.2448
  247SOL     OW 1032   2.214   2.488   0.746 -0.0160  0.6498 -0.4189
  247SOL    HW2 1033   2.233   2.493   0.652  2.7640  1.0663  0.1381
  247SOL    HW3 1034   2.239   2.573   0.780  0.6284 -0.0900  0.9921
  247SOL    MW4 1035   2.220   2.500   0.738  0.4358  0.6073 -0.1593
  248SOL     OW 1036   3.967   3.849   0.456 -0.0310  0.0068  0.2855
  248SOL    HW2 1037   3.942   3.899   0.378  0.3234 -0.2938 -0.0181
  248SOL    HW3 1038   3.921   3.766   0.447 -0.2582  0.1027  0.5648
  248SOL    MW4 1039   3.958   3.845   0.444 -0.0141 -0.0200  0.2823
  249SOL     OW 1040   0.885   2.705   0.846  0.2519  0.3932 -0.2992
  249SOL    HW2 1041   0.888   2.730   0.938  1.5592 -0.8681  0.0085
  249SOL    HW3 1042   0.806   2.747   0.813 -0.3248  0.7081  1.4303
  249SOL    MW4 1043   0.875   2.714   0.854  0.3484  0.2685 -0.0305
  250SOL     OW 1044   3.287   2.855   0.714 -0.2449 -0.3444  0.4072
  250SOL    HW2 1045   3.375   2.837   0.747  0.0463 -0.4202 -0.4057
  250SOL    HW3 1046   3.232   2.787   0.753  0.3433 -1.2843 -0.3855
  250SOL    MW4 1047   3.291   2.844   0.723 -0.1290 -0.4785  0.1954
  251SOL     OW 1048   1.740   1.332   0.523 -0.8233 -0.5403 -0.4705
  251SOL    HW2 1049   1.700   1.336   0.436 -1.3664  0.6812 -0.1777
  251SOL    HW3 1050   1.706   1.409   0.568 -1.1483 -1.5723  1.0801
  251SOL    MW4 1051   1.730   1.343   0.517 -0.9379 -0.5153 -0.2273
  252SOL     OW 1052   1.372   0.799   0.592  0.1109  0.0897 -0.3986
  252SOL    HW2 1053   1.317   0.869   0.627  0.8195  0.3619  0.1970
  252SOL    HW3 1054   1.410   0.757   0.670 -0.3305 -0.9721 -0.7502
  252SOL    MW4 1055   1.370   0.803   0.607  0.1462 -0.0145 -0.3664
  253SOL     OW 1056   1.985   1.699   0.450 -0.1270  0.1627  0.2666
  253SOL    HW2 1057   1.961   1.777   0.400  0.5205 -0.3276 -0.8296
  253SOL    HW3 1058   2.081   1.695   0.444  0.0722  0.7946  2.6164
  253SOL    MW4 1059   1.995   1.709   0.443 -0.0153  0.1813  0.4320
  254SOL     OW 1060   3.637   1.588   0.487  0.1837 -0.2996 -0.0285
  254SOL    HW2 1061   3.615   1.614   0.576 -0.3631 -1.3527  0.1633
  254SOL    HW3 1062   3.566   1.529   0.461 -0.3386  0.9988 -1.6311
  254SOL    MW4 1063   3.625   1.583   0.495  0.0427 -0.2671 -0.2146
  255SOL     OW 1064   4.244   4.651   0.909  0.0596  0.2873 -0.1475
  255SOL    HW2 1065   4.186   4.710   0.860  0.7607 -0.3935 -1.8336
  255SOL    HW3 1066   4.219   4.563   0.880 -0.9417 -0.2870  2.3108
  255SOL    MW4 1067   4.233   4.647   0.899  0.0196  0.1216 -0.0457
  256SOL     OW 1068   0.658   1.375   0.846  0.3593  0.3830  0.0706
  256SOL    HW2 1069   0.592   1.309   0.828 -0.6504  1.1172  1.0107
  256SOL    HW3 1070   0.740   1.336   0.815 -0.4137 -0.7678 -0.5659
  256SOL    MW4 1071   0.660   1.362   0.840  0.1241  0.3279  0.1107
  257SOL     OW 1072   2.408   0.341   0.496  0.2262 -0.1197  0.2415
  257SOL    HW2 1073   2.423   0.364   0.588 -0.8707 -0.3545  0.4884
  257SOL    HW3 1074   2.319   0.371   0.478  0.6843  0.5370 -0.9478
  257SOL    MW4 1075   2.398   0.348   0.506  0.1419 -0.0640  0.1172
  258SOL     OW 1076   0.659   3.846   0.855 -0.2882  0.7140  0.2538
  258SOL    HW2 1077   0.592   3.893   0.806 -1.4132 -1.6790 -0.5332
  258SOL    HW3 1078   0.742   3.874   0.815 -1.0245  1.0159 -1.0655
  258SOL    MW4 1079   0.661   3.856   0.843 -0.5338  0.4380 -0.0241
  259SOL     OW 1080   4.050   0.902   0.723  0.1335  0.0173 -0.0272
  259SOL    HW2 1081   4.062   0.979   0.778 -0.0312  0.0052  0.0265
  259SOL    HW3 1082   3.970   0.861   0.756  0.6018 -0.5533  0.3838
  259SOL    MW4 1083   4.041   0.907   0.734  0.1736 -0.0596  0.0341
  260SOL     OW 1084   4.068   3.450   0.811 -0.4551 -0.3584 -0.4176
  260SOL    HW2 1085   4.148   3.491   0.777  0.0270 -0.6697  0.3306
  260SOL    HW3 1086   4.059   3.485   0.900 -1.2900 -0.1396 -0.5819
  260SOL    MW4 1087   4.077   3.460   0.818 -0.5012 -0.3707 -0.3406
  261SOL     OW 1088   1.584   3.874   0.698 -0.0258  0.1924 -0.3176
  261SOL    HW2 1089   1.654   3.919   0.745  2.0948 -1.7098 -1.6141
  261SOL    HW3 1090   1.607   3.883   0.606 -1.2187 -0.9267 -0.7404
  261SOL    MW4 1091   1.596   3.881   0.692  0.0967 -0.2062 -0.5444
  262SOL     OW 1092   3.103   3.298   0.699 -0.0062  0.2898  0.4799
  262SOL    HW2 1093   3.188   3.263   0.722  0.7330  0.7726 -1.3964
  262SOL    HW3 1094   3.102   3.387   0.734  0.2587  0.2790  0.5094
  262SOL    MW4 1095   3.114   3.305   0.707  0.1261  0.3519  0.2363
  263SOL     OW 1096   1.697   3.590   0.424  0.0319  0.0669 -0.1101
  263SOL    HW2 1097   1.666   3.673   0.386 -0.6368 -0.0921  0.0823
  263SOL    HW3 1098   1.669   3.594   0.515  0.8852  0.0670  0.1560
  263SOL    MW4 1099   1.689   3.602   0.431  0.0564  0.0460 -0.0496
  264SOL     OW 1100   2.912   2.102   0.690  0.1237  0.2723  0.0345
  264SOL    HW2 1101   2.913   2.181   0.743  0.4480 -0.0628  0.5277
  264SOL    HW3 1102   2.991   2.055   0.715  0.1112 -0.0399 -0.5097
  264SOL    MW4 1103   2.922   2.106   0.700  0.1645  0.1874  0.0277
  265SOL     OW 1104   2.430   0.485   0.730 -0.0478 -0.1511 -0.1981
  265SOL    HW2 1105   2.410   0.578   0.740  1.0444  0.0206  0.4678
  265SOL    HW3 1106   2.521   0.477   0.759  0.4087 -1.1364 -1.8622
  265SOL    MW4 1107   2.439   0.496   0.735  0.1564 -0.2584 -0.3298
  266SOL     OW 1108   1.977   3.534   0.460 -0.1845  0.4279  0.3765
  266SOL    HW2 1109   1.981   3.439   0.447  0.1775  0.4221  0.5359
  266SOL    HW3 1110   1.888   3.558   0.433 -0.0338  0.1495 -0.3697
  266SOL    MW4 1111   1.966   3.525   0.455 -0.1169  0.3903  0.2991
  267SOL     OW 1112   2.026   1.264   0.733  0.8985 -0.4721 -0.1113
  267SOL    HW2 1113   2.024   1.273   0.638  1.5270  0.8689 -0.0153
  267SOL    HW3 1114   2.103   1.210   0.751 -0.3302 -2.3826 -0.4584
  267SOL    MW4 1115   2.036   1.258   0.723  0.8194 -0.5472 -0.1444
  268SOL     OW 1116   3.366   4.440   0.417  0.0372  0.2289  0.3482
  268SOL    HW2 1117   3.304   4.511   0.402 -1.0674 -0.7809  0.0614
  268SOL    HW3 1118   3.443   4.464   0.365  0.0564  1.6866  1.0296
  268SOL    MW4 1119   3.368   4.452   0.408 -0.1063  0.2880  0.4003
  269SOL     OW 1120   0.461   2.468   1.181  0.5652  0.0605  0.8134
  269SOL    HW2 1121   0.452   2.460   1.276  1.6499  0.7688  0.9816
  269SOL    HW3 1122   0.543   2.423   1.161  0.9101  0.8895  0.3544
  269SOL    MW4 1123   0.470   2.461   1.191  0.7538  0.2635  0.7750
  270SOL     OW 1124   3.343   3.897   0.765 -0.6929 -0.0800 -0.4139
  270SOL    HW2 1125   3.276   3.960   0.741 -1.5511 -0.7788  0.1156
  270SOL    HW3 1126   3.336   3.889   0.860  1.8719  1.7716 -0.0285
  270SOL    MW4 1127   3.333   3.904   0.775 -0.4675  0.0720 -0.2932
  271SOL     OW 1128   4.280   1.275   0.782 -0.0181 -0.1089  0.7745
  271SOL    HW2 1129   4.359   1.223   0.796 -0.9056 -1.1177  2.0569
  271SOL    HW3 1130   4.257   1.259   0.690  1.1395  0.0115  0.4635
  271SOL    MW4 1131   4.287   1.266   0.771  0.0181 -0.2261  0.9027
  272SOL     OW 1132   0.258   2.801   0.690  0.3771 -0.2047  0.0031
  272SOL    HW2 1133   0.168   2.771   0.705  0.2589  0.5243  0.7696
  272SOL    HW3 1134   0.270   2.794   0.595 -0.7678  0.4899 -0.1968
  272SOL    MW4 1135   0.248   2.796   0.679  0.2104 -0.0167  0.0779
  273SOL     OW 1136   1.578   2.363   0.853  0.2513  0.0258  0.6435
  273SOL    HW2 1137   1.576   2.273   0.819  0.5487  0.6151 -0.9897
  273SOL    HW3 1138   1.653   2.403   0.808 -0.9844  1.6231 -0.0323
  273SOL    MW4 1139   1.588   2.356   0.842  0.1274  0.3142  0.3389
  274SOL     OW 1140   0.101   0.272   0.876 -0.0356 -0.3466 -0.2988
  274SOL    HW2 1141   0.079   0.344   0.817 -1.0172 -0.0858  0.3728
  274SOL    HW3 1142   0.061   0.195   0.836 -1.0280 -0.1057  0.2022
  274SOL    MW4 1143   0.093   0.271   0.863 -0.2960 -0.2804 -0.1441
  275SOL     OW 1144   2.472   2.858   0.759  0.0796 -0.2236  0.0797
  275SOL    HW2 1145   2.551   2.819   0.796  0.8153  1.5339  0.4295
  275SOL    HW3 1146   2.478   2.950   0.783 -0.5266  0.5503 -2.5391
  275SOL    MW4 1147   2.484   2.865   0.767  0.0966  0.1104 -0.2196
  276SOL     OW 1148   0.406   1.621   0.729 -0.0356  0.3004  0.4277
  276SOL    HW2 1149   0.384   1.706   0.767 -2.3953 -0.6346  1.2663
  276SOL    HW3 1150   0.324   1.572   0.731  1.3812 -2.1675  0.3738
  276SOL    MW4 1151   0.392   1.625   0.734 -0.1600 -0.1485  0.5311
  277SOL     OW 1152   1.877   1.722   0.702 -0.2351  0.1376 -0.3105
  277SOL    HW2 1153   1.929   1.663   0.756  0.5403  0.4956 -0.6459
  277SOL    HW3 1154   1.927   1.729   0.620  0.0968  1.8626  0.0171
  277SOL    MW4 1155   1.891   1.715   0.698 -0.0892  0.4123 -0.3115
  278SOL     OW 1156   2.894   1.532   0.818 -0.0055 -0.0352 -0.0764
  278SOL    HW2 1157   2.966   1.566   0.765  0.3045 -0.2254  0.2218
  278SOL    HW3 1158   2.889   1.439   0.795 -0.5671  0.1193 -0.5676
  278SOL    MW4 1159   2.903   1.524   0.808 -0.0386 -0.0399 -0.1019
  279SOL     OW 1160   0.254   0.726   0.838  0.1420  0.3487  0.5173
  279SOL    HW2 1161   0.299   0.643   0.819  0.7077  0.6463  0.5362
  279SOL    HW3 1162   0.237   0.723   0.932 -1.1807 -0.4003  0.2712
  279SOL    MW4 1163   0.258   0.714   0.848  0.0421  0.2890  0.4874
  280SOL     OW 1164   0.379   0.894   0.625  0.4698  0.2468  0.2010
  280SOL    HW2 1165   0.359   0.872   0.716 -1.9043 -0.3076 -0.4196
  280SOL    HW3 1166   0.468   0.861   0.611  0.5348 -0.4233  2.0692
  280SOL    MW4 1167   0.388   0.887   0.635  0.1652  0.0852  0.3656
  281SOL     OW 1168   3.199   3.297   0.439 -0.0652 -0.4941 -0.4235
  281SOL    HW2 1169   3.164   3.275   0.526  0.7602  0.9385  0.2835
  281SOL    HW3 1170   3.257   3.224   0.418  1.3891  0.1605  1.1824
  281SOL    MW4 1171   3.202   3.285   0.448  0.2353 -0.2186 -0.1183
  282SOL     OW 1172   1.994   2.339   0.815 -0.3275 -0.4132  0.1463
  282SOL    HW2 1173   2.069   2.398   0.811  0.7544 -1.8165 -0.5241
  282SOL    HW3 1174   1.997   2.303   0.903 -0.8718  0.3581  0.4887
  282SOL    MW4 1175   2.004   2.342   0.826 -0.2565 -0.4966  0.1030
  283SOL     OW 1176   0.648   1.141   0.541 -0.0726 -0.0669  0.3842
  283SOL    HW2 1177   0.730   1.106   0.505 -0.5991  0.7067 -1.6372
  283SOL    HW3 1178   0.582   1.118   0.476 -1.5579 -1.1156  2.2502
  283SOL    MW4 1179   0.650   1.134   0.528 -0.3380 -0.1031  0.3637
  284SOL     OW 1180   2.345   0.005   0.841 -0.6244  0.0900 -0.0969
  284SOL    HW2 1181   2.325   0.099   0.849  0.1714  0.2922 -0.3866
  284SOL    HW3 1182   2.400  -0.014   0.917  1.5848  0.5326 -1.5167
  284SOL    MW4 1183   2.350   0.015   0.852 -0.2279  0.1751 -0.3225
  285SOL     OW 1184   0.009   1.114   0.873 -0.6872 -0.1379  0.4974
  285SOL    HW2 1185  -0.016   1.029   0.838 -2.2584 -0.1901  1.6953
  285SOL    HW3 1186   0.082   1.142   0.819 -2.2092 -0.8051 -1.9513
  285SOL    MW4 1187   0.015   1.107   0.862 -1.0953 -0.2329  0.3324
  286SOL     OW 1188   2.717   1.681   0.467 -0.3422  0.0405 -0.2052
  286SOL    HW2 1189   2.713   1.774   0.444 -0.4185 -0.0616 -0.6081
  286SOL    HW3 1190   2.688   1.678   0.558 -0.0676  0.4428 -0.1032
  286SOL    MW4 1191   2.712   1.693   0.476 -0.3159  0.0801 -0.2449
  287SOL     OW 1192   0.682   0.616   0.836 -0.7182  0.0009  0.0482
  287SOL    HW2 1193   0.658   0.673   0.909  0.0697  0.8276 -0.3356
  287SOL    HW3 1194   0.764   0.575   0.863 -0.0128  0.9062 -0.6972
  287SOL    MW4 1195   0.689   0.618   0.849 -0.5211  0.2294 -0.1008
  288SOL     OW 1196   0.913   1.928   1.143 -0.2549  0.2267  0.0523
  288SOL    HW2 1197   0.997   1.970   1.161 -0.1234  0.5148 -1.1811
  288SOL    HW3 1198   0.915   1.909   1.049 -2.2018  1.6465 -0.2986
  288SOL    MW4 1199   0.924   1.931   1.133 -0.4944  0.4520 -0.1568
  289SOL     OW 1200   1.148   2.886   1.232 -0.0302  0.0534  0.2563
  289SOL    HW2 1201   1.076   2.837   1.192  1.0290 -1.5711  0.3268
  289SOL    HW3 1202   1.140   2.870   1.326 -0.8054  1.5689  0.4713
  289SOL    MW4 1203   1.137   2.878   1.239  0.0072  0.0391  0.2941
  290SOL     OW 1204   3.110   2.668   0.864 -0.2144 -0.4033  0.4694
  290SOL    HW2 1205   3.037   2.721   0.834  0.6698  0.2983 -0.4944
  290SOL    HW3 1206   3.114   2.595   0.802  1.8102  1.2132 -1.3876
  290SOL    MW4 1207   3.101   2.665   0.852  0.1695 -0.0978  0.0972
  291SOL     OW 1208   1.751   3.246   1.246 -0.0219 -0.3602  0.2984
  291SOL    HW2 1209   1.671   3.203   1.217 -0.3068 -0.5242  1.3230
  291SOL    HW3 1210   1.749   3.239   1.341  0.8568  0.2659  0.3661
  291SOL    MW4 1211   1.740   3.239   1.254  0.0565 -0.2995  0.4425
  292SOL     OW 1212   3.202   3.021   0.210  0.4305  0.0899 -0.3518
  292SOL    HW2 1213   3.205   2.977   0.294  2.2356  1.0833  0.1214
  292SOL    HW3 1214   3.109   3.022   0.187 -0.0524 -0.3584  1.5182
  292SOL    MW4 1215   3.190   3.015   0.218  0.6049  0.1616 -0.0426
  293SOL     OW 1216   3.652   2.495   0.463  0.1104  0.2593 -0.1446
  293SOL    HW2 1217   3.630   2.500   0.557  1.0134  1.0909  0.0299
  293SOL    HW3 1218   3.747   2.500   0.460  0.0532  0.8396 -1.1453
  293SOL    MW4 1219   3.661   2.497   0.475  0.2217  0.4456 -0.2536
  294SOL     OW 1220   3.830   3.589   0.739  0.0145 -0.0510 -0.5234
  294SOL    HW2 1221   3.826   3.581   0.644  0.6034 -1.4531 -0.4392
  294SOL    HW3 1222   3.914   3.550   0.763 -0.0388  0.4634  0.5637
  294SOL    MW4 1223   3.841   3.583   0.730  0.0851 -0.1681 -0.3689
  295SOL     OW 1224   1.564   2.084   0.698  0.1183 -0.1631 -0.2375
  295SOL    HW2 1225   1.564   2.114   0.607 -0.5799 -1.2060 -0.5855
  295SOL    HW3 1226   1.641   2.027   0.704  0.4072  0.2441 -0.0583
  295SOL    MW4 1227   1.574   2.080   0.686  0.0641 -0.2470 -0.2598
  296SOL     OW 1228   2.059   0.896   0.414  0.0976  0.4009 -0.0848
  296SOL    HW2 1229   2.090   0.875   0.503  0.0916 -1.1215 -0.4181
  296SOL    HW3 1230   1.964   0.893   0.421  0.0479  2.2012  0.2790
  296SOL    MW4 1231   2.051   0.893   0.427  0.0901  0.4376 -0.0808
  297SOL     OW 1232   0.264   1.639   0.368  0.0629 -0.2889 -0.5403
  297SOL    HW2 1233   0.203   1.588   0.315 -0.4099 -0.4915  0.1941
  297SOL    HW3 1234   0.208   1.693   0.424  0.5576 -0.6851  0.3426
  297SOL    MW4 1235   0.248   1.639   0.368  0.0658 -0.3679 -0.3269
  298SOL     OW 1236   2.050   4.449   0.428  0.6026  0.1055  0.2762
  298SOL    HW2 1237   2.061   4.442   0.522 -0.6709  0.7737  0.4821
  298SOL    HW3 1238   2.122   4.506   0.399  0.7252  0.2648  0.9017
  298SOL    MW4 1239   2.061   4.456   0.436  0.4508  0.2146  0.3859
  299SOL     OW 1240   1.108   2.822   0.693  0.1453  0.0565 -0.1210
  299SOL    HW2 1241   1.023   2.797   0.729  0.3485 -1.0397 -0.3860
  299SOL    HW3 1242   1.116   2.916   0.713 -0.8748  0.0400  0.3918
  299SOL    MW4 1243   1.098   2.831   0.701  0.0376 -0.0904 -0.0883
  300SOL     OW 1244   4.067   0.383   0.815  0.4466 -0.0878  0.2484
  300SOL    HW2 1245   4.064   0.386   0.911 -1.5664  0.3574  0.2114
  300SOL    HW3 1246   4.073   0.290   0.794  0.1122 -0.2430  0.8160
  300SOL    MW4 1247   4.067   0.371   0.825  0.1364 -0.0496  0.3185
  301SOL     OW 1248   1.575   1.650   0.377  0.4750  0.0264  0.2855
  301SOL    HW2 1249   1.582   1.607   0.462 -0.6245 -0.7120  0.0026
  301SOL    HW3 1250   1.604   1.740   0.393 -0.7841  0.1862  1.6638
  301SOL    MW4 1251   1.580   1.656   0.390  0.1639 -0.0499  0.4300
  302SOL     OW 1252   2.013   4.419   0.727  0.0428  0.4043 -0.1467
  302SOL    HW2 1253   2.021   4.504   0.771 -0.6743  0.5083 -0.2064
  302SOL    HW3 1254   2.083   4.366   0.764 -0.2189  0.6602  0.7231
  302SOL    MW4 1255   2.023   4.423   0.738 -0.0863  0.4525 -0.0398
  303SOL     OW 1256   1.560   3.103   1.124 -0.1187 -0.1231  0.3764
  303SOL    HW2 1257   1.559   3.084   1.030 -1.7835 -0.4077  0.4278
  303SOL    HW3 1258   1.559   3.017   1.166  0.1774  0.0082  0.6603
  303SOL    MW4 1259   1.560   3.089   1.117 -0.2993 -0.1431  0.4207
  304SOL     OW 1260   0.270   4.351   0.464 -0.0587  0.2074 -0.2495
  304SOL    HW2 1261   0.346   4.295   0.482  0.0187  0.7091  0.9620
  304SOL    HW3 1262   0.224   4.358   0.547 -0.2998  1.6075 -0.4834
  304SOL    MW4 1263   0.274   4.345   0.477 -0.0803  0.4582 -0.1205
  305SOL     OW 1264   0.607   2.870   0.475  0.1647 -0.2639  0.5604
  305SOL    HW2 1265   0.517   2.844   0.458 -0.0818 -0.2803  1.8740
  305SOL    HW3 1266   0.609   2.964   0.455 -0.0021 -0.3762  0.0057
  305SOL    MW4 1267   0.596   2.879   0.470  0.1102 -0.2811  0.6605
  306SOL     OW 1268   1.271   2.226   0.482  0.2609 -0.0573 -0.5152
  306SOL    HW2 1269   1.195   2.255   0.431 -0.7219 -1.1191  0.3068
  306SOL    HW3 1270   1.288   2.298   0.543  0.7087  0.7139 -1.5303
  306SOL    MW4 1271   1.263   2.240   0.484  0.1903 -0.0956 -0.5407
  307SOL     OW 1272   3.600   4.025   0.470 -0.0542  0.4961 -0.1769
  307SOL    HW2 1273   3.614   4.026   0.565 -1.0494  1.1916 -0.0321
  307SOL    HW3 1274   3.591   3.932   0.448 -0.8758  0.3864  0.5745
  307SOL    MW4 1275   3.601   4.013   0.480 -0.2937  0.5736 -0.0587
  308SOL     OW 1276   1.344   2.428   0.725  0.2614 -0.0649  0.1758
  308SOL    HW2 1277   1.418   2.405   0.781  0.5369  1.0341  0.2704
  308SOL    HW3 1278   1.269   2.386   0.766  0.6576 -0.2735  0.6940
  308SOL    MW4 1279   1.344   2.419   0.737  0.3499  0.0525  0.2566
  309SOL     OW 1280   0.630   0.369   0.499 -0.0928  0.1053  0.0398
  309SOL    HW2 1281   0.625   0.447   0.444  0.6864 -0.5797 -1.0307
  309SOL    HW3 1282   0.579   0.391   0.577 -0.8870  1.2417 -0.7778
  309SOL    MW4 1283   0.622   0.382   0.502 -0.0948  0.1649 -0.2093
  310SOL     OW 1284   1.340   3.519   0.781  0.1623 -0.2378  0.4552
  310SOL    HW2 1285   1.268   3.570   0.743 -0.7049 -1.2091  0.7937
  310SOL    HW3 1286   1.339   3.542   0.874 -0.5425 -1.2298  0.7013
  310SOL    MW4 1287   1.331   3.529   0.788 -0.0451 -0.4966  0.5323
  311SOL     OW 1288   1.805   1.082   0.840 -0.2114 -0.0896  0.2414
  311SOL    HW2 1289   1.876   1.137   0.806  0.8882 -0.7272  1.4756
  311SOL    HW3 1290   1.802   1.102   0.933 -1.0085 -0.7986  0.3676
  311SOL    MW4 1291   1.814   1.092   0.848 -0.1715 -0.2674  0.4208
  312SOL     OW 1292   4.257   3.830   0.778 -0.1769 -0.2550 -0.3309
  312SOL    HW2 1293   4.334   3.869   0.738 -0.9076  0.0115 -1.4895
  312SOL    HW3 1294   4.272   3.840   0.872  0.9756  0.2157 -0.5504
  312SOL    MW4 1295   4.269   3.836   0.785 -0.1206 -0.1578 -0.5127
  313SOL     OW 1296   2.212   0.878   0.664 -0.1186  0.0813  0.1295
  313SOL    HW2 1297   2.158   0.830   0.728 -1.4243  0.9770 -0.2714
  313SOL    HW3 1298   2.224   0.965   0.702 -0.3100  0.3937 -0.5123
  313SOL    MW4 1299   2.206   0.883   0.678 -0.3159  0.2407 -0.0081
  314SOL     OW 1300   3.843   2.085   0.690  0.1906 -0.4565  0.2257
  314SOL    HW2 1301   3.835   2.180   0.689  0.6793 -0.3993  1.2641
  314SOL    HW3 1302   3.814   2.057   0.603  0.0476  0.6383 -0.0773
  314SOL    MW4 1303   3.838   2.094   0.678  0.2363 -0.3045  0.3226
  315SOL     OW 1304   0.885   3.579   0.376 -0.2438 -0.4165  0.0551
  315SOL    HW2 1305   0.793   3.593   0.401 -0.4700 -1.2459 -0.3079
  315SOL    HW3 1306   0.887   3.490   0.342  0.6280 -0.2653 -0.2868
  315SOL    MW4 1307   0.873   3.569   0.375 -0.1586 -0.5059 -0.0379
  316SOL     OW 1308   1.978   3.908   0.787 -0.3018 -0.6114  0.3777
  316SOL    HW2 1309   2.036   3.909   0.863 -0.4130  1.2134  0.4705
  316SOL    HW3 1310   1.970   3.816   0.763  1.1817 -1.0333  1.4725
  316SOL    MW4 1311   1.985   3.896   0.794 -0.1208 -0.4261  0.5345
  317SOL     OW 1312   0.440   0.097   0.736  0.0302  0.2267  0.2284
  317SOL    HW2 1313   0.423   0.104   0.642  0.6337  1.8889  0.2147
  317SOL    HW3 1314   0.523   0.049   0.742  0.8577  1.5535 -0.1942
  317SOL    MW4 1315   0.449   0.092   0.724  0.2191  0.6211  0.1709
  318SOL     OW 1316   2.012   3.636   0.720  0.3405 -0.1476  0.2609
  318SOL    HW2 1317   2.009   3.618   0.626  1.3599 -0.4728  0.2846
  318SOL    HW3 1318   1.930   3.599   0.753  0.0822 -0.2404 -0.4614
  318SOL    MW4 1319   2.001   3.629   0.712  0.4411 -0.2027  0.1686
  319SOL     OW 1320   4.246   2.339   1.086 -0.1386 -0.0008 -0.1767
  319SOL    HW2 1321   4.168   2.392   1.101  0.4463  0.9134 -0.2666
  319SOL    HW3 1322   4.246   2.323   0.991 -1.9530 -2.7874  0.2401
  319SOL    MW4 1323   4.236   2.344   1.075 -0.3014 -0.2477 -0.1336
  320SOL     OW 1324   4.251   0.532   0.679 -0.6022  0.1189  0.0257
  320SOL    HW2 1325   4.252   0.604   0.742  1.0991 -0.2634  0.4791
  320SOL    HW3 1326   4.184   0.472   0.711 -1.1833  0.9127  0.3145
  320SOL    MW4 1327   4.243   0.534   0.691 -0.4544  0.1733  0.1236
  321SOL     OW 1328   0.147   1.327   0.264 -0.1769 -0.1453 -0.1865
  321SOL    HW2 1329   0.110   1.261   0.322  1.2068  0.8702  1.9011
  321SOL    HW3 1330   0.087   1.402   0.270  0.8131  0.5594  1.2324
  321SOL    MW4 1331   0.135   1.329   0.272  0.1363  0.0817  0.2761
  322SOL     OW 1332   2.351   0.767   0.459 -0.1274  0.0009  0.3610
  322SOL    HW2 1333   2.370   0.833   0.392  1.5712 -0.5576  0.2709
  322SOL    HW3 1334   2.322   0.817   0.535  1.1710  0.8555  0.3018
  322SOL    MW4 1335   2.350   0.782   0.460  0.2680  0.0399  0.3413
  323SOL     OW 1336   3.777   4.234   0.353 -0.4530 -0.0283 -0.6157
  323SOL    HW2 1337   3.712   4.174   0.391  0.9577 -1.0184  0.2946
  323SOL    HW3 1338   3.846   4.177   0.321  0.1319  1.0371 -1.2731
  323SOL    MW4 1339   3.777   4.219   0.354 -0.1895 -0.0186 -0.5823
  324SOL     OW 1340   3.305   3.135   0.789 -0.3135 -0.9029  0.5861
  324SOL    HW2 1341   3.332   3.139   0.881 -0.7942 -1.7044  0.7659
  324SOL    HW3 1342   3.284   3.043   0.774  1.8393 -1.1689 -0.9265
  324SOL    MW4 1343   3.306   3.123   0.799 -0.0930 -1.0436  0.4103
  325SOL     OW 1344   1.281   3.278   0.470 -0.1242  0.0175  0.2439
  325SOL    HW2 1345   1.361   3.284   0.418 -0.3476 -1.5804 -0.3126
  325SOL    HW3 1346   1.239   3.364   0.459  0.8573  0.4080 -0.5329
  325SOL    MW4 1347   1.286   3.291   0.462 -0.0242 -0.1416  0.0679
  326SOL     OW 1348   3.481   0.890   0.487  0.2759 -0.3715 -0.0415
  326SOL    HW2 1349   3.424   0.967   0.487  0.0349 -0.5267  1.5375
  326SOL    HW3 1350   3.513   0.885   0.577  3.5500  0.2581 -1.1161
  326SOL    MW4 1351   3.477   0.900   0.499  0.6764 -0.3089  0.0250
  327SOL     OW 1352   3.112   0.672   0.374  0.2266  0.1928 -0.1876
  327SOL    HW2 1353   3.022   0.657   0.403  0.6557 -0.4783  0.7983
  327SOL    HW3 1354   3.111   0.653   0.280 -0.4900 -0.5634 -0.0279
  327SOL    MW4 1355   3.100   0.668   0.366  0.1886  0.0045 -0.0364
  328SOL     OW 1356   0.949   2.013   0.431 -0.0662  0.0540  0.2347
  328SOL    HW2 1357   1.028   1.963   0.450 -0.5645 -1.6086 -1.8489
  328SOL    HW3 1358   0.981   2.094   0.390  0.6659  0.5949  1.8605
  328SOL    MW4 1359   0.964   2.017   0.428 -0.0353 -0.0939  0.1743
  329SOL     OW 1360   2.601   4.078   0.586  0.8339 -0.2054 -0.0401
  329SOL    HW2 1361   2.633   3.993   0.555  0.2706 -0.1379 -0.8023
  329SOL    HW3 1362   2.510   4.062   0.611  1.1362 -0.1493  1.1550
  329SOL    MW4 1363   2.593   4.065   0.585  0.7997 -0.1888  0.0170
  330SOL     OW 1364   4.471   0.375   1.125  0.1031 -0.0578  0.2842
  330SOL    HW2 1365   4.497   0.334   1.042 -1.5254  1.8650 -1.2231
  330SOL    HW3 1366   4.445   0.301   1.181 -1.5443 -1.1964 -1.9251
  330SOL    MW4 1367   4.471   0.360   1.122 -0.3295  0.0457 -0.2061
  331SOL     OW 1368   3.235   2.582   0.306  0.3236 -0.0365 -0.1663
  331SOL    HW2 1369   3.219   2.661   0.356  2.0125  0.7591 -0.8411
  331SOL    HW3 1370   3.203   2.601   0.218  1.4557  0.1952 -0.5351
  331SOL    MW4 1371   3.229   2.595   0.301  0.6957  0.0992 -0.3040
  332SOL     OW 1372   1.733   4.000   0.885 -0.3432 -0.2233  0.2807
  332SOL    HW2 1373   1.741   4.096   0.880  0.7201 -0.2932  0.5421
  332SOL    HW3 1374   1.822   3.968   0.869 -0.7194 -1.1766  0.0776
  332SOL    MW4 1375   1.746   4.009   0.882 -0.2526 -0.3581  0.2884
  333SOL     OW 1376   4.465   1.166   1.137  0.5929 -0.2894  0.0746
  333SOL    HW2 1377   4.474   1.152   1.043 -0.5712 -1.7232  0.1557
  333SOL    HW3 1378   4.392   1.227   1.145  1.1269  0.3661  0.0340
  333SOL    MW4 1379   4.457   1.172   1.125  0.5097 -0.3922  0.0800
  334SOL     OW 1380   0.069   2.933   0.400  0.7217 -0.3061  0.1058
  334SOL    HW2 1381  -0.021   2.911   0.377  1.7137 -1.6814 -2.6420
  334SOL    HW3 1382   0.072   3.029   0.394 -0.5574 -0.2525  0.1956
  334SOL    MW4 1383   0.057   2.943   0.396  0.6838 -0.4809 -0.2449
  335SOL     OW 1384   4.329   3.532   0.459 -0.0026 -0.3874  0.3806
  335SOL    HW2 1385   4.414   3.549   0.418 -0.5171  1.2108 -0.0455
  335SOL    HW3 1386   4.283   3.616   0.454 -1.3055 -1.0404  1.3178
  335SOL    MW4 1387   4.335   3.545   0.453 -0.2427 -0.2625  0.4480
  336SOL     OW 1388   3.786   0.034   0.853  0.4673 -0.2242 -0.2056
  336SOL    HW2 1389   3.727   0.109   0.842 -1.1210 -1.4488 -0.1728
  336SOL    HW3 1390   3.806   0.034   0.947  1.5050  0.8928 -0.4029
  336SOL    MW4 1391   3.781   0.044   0.864  0.3948 -0.2384 -0.2274
  337SOL     OW 1392   1.552   4.389   1.229 -0.5337  0.0541 -0.0732
  337SOL    HW2 1393   1.538   4.400   1.323  1.5093  0.2029  0.2452
  337SOL    HW3 1394   1.638   4.347   1.223 -0.5030  0.3439 -1.8816
  337SOL    MW4 1395   1.562   4.385   1.241 -0.2601  0.1121 -0.2698
  338SOL     OW 1396   3.344   4.639   1.112 -0.1781  0.2095  0.2322
  338SOL    HW2 1397   3.419   4.692   1.138  0.3316 -0.7489  0.7207
  338SOL    HW3 1398   3.342   4.645   1.017  0.2806  0.5547  0.2445
  338SOL    MW4 1399   3.353   4.647   1.103 -0.0501  0.1283  0.2983
  339SOL     OW 1400   2.222   1.940   0.788 -0.3868 -0.0009 -0.1289
  339SOL    HW2 1401   2.302   1.994   0.791 -1.5255  1.7524 -0.7215
  339SOL    HW3 1402   2.154   2.000   0.757 -1.8801 -1.5632  0.0848
  339SOL    MW4 1403   2.224   1.955   0.784 -0.7339  0.0242 -0.1789
  340SOL     OW 1404   3.149   0.906   0.727 -0.2630  0.1273  0.2185
  340SOL    HW2 1405   3.222   0.858   0.765 -0.2966  0.8460  1.2042
  340SOL    HW3 1406   3.071   0.875   0.773 -0.4428  0.2195 -0.0149
  340SOL    MW4 1407   3.148   0.896   0.738 -0.2911  0.2343  0.3177
  341SOL     OW 1408   1.948   0.312   0.511 -0.3204 -0.0241  0.3082
  341SOL    HW2 1409   1.871   0.264   0.540 -0.3698  0.1157  0.4110
  341SOL    HW3 1410   2.005   0.245   0.473 -0.6666 -0.0638 -0.1418
  341SOL    MW4 1411   1.945   0.297   0.510 -0.3725 -0.0109  0.2624
  342SOL     OW 1412   2.722   3.489   0.738  0.6440 -0.0519  0.1053
  342SOL    HW2 1413   2.716   3.393   0.742 -1.3287  0.0313 -0.2629
  342SOL    HW3 1414   2.757   3.514   0.823  0.5172 -1.0693  0.4712
  342SOL    MW4 1415   2.726   3.479   0.750  0.3669 -0.1750  0.1050
  343SOL     OW 1416   2.042   4.647   1.147 -0.3066 -0.4605  0.9711
  343SOL    HW2 1417   1.959   4.680   1.180 -0.5064  0.3591 -0.2849
  343SOL    HW3 1418   2.042   4.554   1.170 -2.0132 -0.6949  0.1486
  343SOL    MW4 1419   2.031   4.639   1.154 -0.5581 -0.3834  0.6970
  344SOL     OW 1420   0.167   2.074   0.456 -0.0507 -0.1480  0.4137
  344SOL    HW2 1421   0.262   2.072   0.441 -0.0978 -0.4548  0.1367
  344SOL    HW3 1422   0.142   1.982   0.464 -0.4549 -0.1128 -0.3812
  344SOL    MW4 1423   0.176   2.062   0.455 -0.1102 -0.1836  0.2723
  345SOL     OW 1424   3.194   4.304   0.827  0.3152 -0.3288  0.3797
  345SOL    HW2 1425   3.113   4.342   0.793 -0.3647 -1.8520  0.2986
  345SOL    HW3 1426   3.262   4.342   0.771 -0.2752  1.2716  0.6989
  345SOL    MW4 1427   3.192   4.314   0.815  0.1476 -0.3190  0.4112
  346SOL     OW 1428   2.827   3.479   0.476 -0.4327 -0.3907  0.5261
  346SOL    HW2 1429   2.743   3.499   0.434  0.6456  0.8256 -1.1552
  346SOL    HW3 1430   2.806   3.468   0.568 -2.0253  2.9599  0.6452
  346SOL    MW4 1431   2.814   3.480   0.482 -0.5007  0.2120  0.3200
  347SOL     OW 1432   2.121   0.159   0.360  0.2841 -0.1605 -0.1452
  347SOL    HW2 1433   2.152   0.246   0.335  0.6682  0.3539  2.0222
  347SOL    HW3 1434   2.180   0.099   0.314  0.3781  0.7248 -1.2006
  347SOL    MW4 1435   2.133   0.162   0.350  0.3471  0.0242  0.0015
  348SOL     OW 1436   3.844   1.392   0.527  0.2358  0.6855 -0.3039
  348SOL    HW2 1437   3.861   1.386   0.621  2.6444  1.7076 -0.6447
  348SOL    HW3 1438   3.775   1.458   0.519  0.2070  0.7783  0.7135
  348SOL    MW4 1439   3.837   1.400   0.538  0.5496  0.8327 -0.2147
  349SOL     OW 1440   2.695   2.726   0.853 -0.6661  0.0052  0.5751
  349SOL    HW2 1441   2.702   2.719   0.948  0.4951  0.1812  0.4999
  349SOL    HW3 1442   2.778   2.764   0.825 -1.4087  0.9249 -0.4152
  349SOL    MW4 1443   2.707   2.730   0.862 -0.6108  0.1497  0.4346
  350SOL     OW 1444   3.115   4.066   0.292 -0.4160  0.4125 -0.0619
  350SOL    HW2 1445   3.150   4.133   0.233 -0.0380 -0.4248 -0.7986
  350SOL    HW3 1446   3.171   4.071   0.369  0.1700  0.3599 -0.4739
  350SOL    MW4 1447   3.127   4.076   0.294 -0.2887  0.2952 -0.2134
  351SOL     OW 1448   2.601   3.126   0.481 -0.0827  0.4608 -0.1830
  351SOL    HW2 1449   2.639   3.173   0.406 -0.8900  0.4685 -0.5893
  351SOL    HW3 1450   2.603   3.034   0.454 -1.5616  0.5784 -0.7590
  351SOL    MW4 1451   2.606   3.120   0.467 -0.3846  0.4778 -0.3125
  352SOL     OW 1452   1.321   0.378   1.097 -0.2727 -0.6478 -0.2393
  352SOL    HW2 1453   1.328   0.296   1.146  1.7715  0.0107  0.5957
  352SOL    HW3 1454   1.245   0.422   1.134 -0.1549 -1.2281  0.7038
  352SOL    MW4 1455   1.312   0.373   1.108  0.0126 -0.6375 -0.0046
  353SOL     OW 1456   2.009   2.085   0.695 -0.3185 -0.0621 -0.0131
  353SOL    HW2 1457   1.931   2.046   0.734 -1.0192  0.4584 -0.8732
  353SOL    HW3 1458   2.008   2.176   0.727  0.0526 -0.1135  0.1437
  353SOL    MW4 1459   1.999   2.092   0.705 -0.3619 -0.0002 -0.1059
  354SOL     OW 1460   0.594   1.658   0.170  0.5539  0.4550  0.3710
  354SOL    HW2 1461   0.541   1.725   0.128  0.4449 -0.1834 -0.5229
  354SOL    HW3 1462   0.669   1.705   0.207 -0.1104  1.2179  0.7602
  354SOL    MW4 1463   0.597   1.673   0.169  0.4520  0.4716  0.3044
  355SOL     OW 1464   0.857   0.979   0.435  0.2904  0.2057  0.2287
  355SOL    HW2 1465   0.861   1.035   0.358  0.5291 -0.9618 -0.6238
  355SOL    HW3 1466   0.935   1.003   0.486 -1.2080  2.7694  1.3979
  355SOL    MW4 1467   0.868   0.990   0.432  0.1243  0.3900  0.2705
  356SOL     OW 1468   0.446   2.621   0.801  0.0134  0.1162  0.0551
  356SOL    HW2 1469   0.379   2.675   0.760 -0.3621 -1.1762 -1.0363
  356SOL    HW3 1470   0.462   2.664   0.885 -1.1288  1.2543 -0.2876
  356SOL    MW4 1471   0.439   2.634   0.807 -0.1869  0.0961 -0.1341
  357SOL     OW 1472   1.138   3.898   0.839 -0.2261  0.3258  0.2808
  357SOL    HW2 1473   1.146   3.912   0.934  1.1349  0.1910  0.2005
  357SOL    HW3 1474   1.215   3.942   0.802 -0.2315 -0.4361 -0.6697
  357SOL    MW4 1475   1.149   3.905   0.847 -0.0473  0.2074  0.1448
  358SOL     OW 1476   1.011   1.604   0.329  0.7235  0.3156 -0.5708
  358SOL    HW2 1477   1.010   1.533   0.264  1.4469 -0.7170  0.5281
  358SOL    HW3 1478   1.104   1.622   0.342  0.6253 -0.3877  1.1544
  358SOL    MW4 1479   1.023   1.597   0.322  0.8060  0.0865 -0.1982
  359SOL     OW 1480   2.058   0.445   0.738 -0.0817 -0.0441  0.0300
  359SOL    HW2 1481   2.041   0.418   0.648 -1.9538 -1.0459  0.6661
  359SOL    HW3 1482   1.979   0.421   0.786  0.8888  0.4946  1.9509
  359SOL    MW4 1483   2.045   0.438   0.733 -0.2007 -0.1052  0.3674
  360SOL     OW 1484   3.286   3.575   0.440  0.1586  0.1270 -0.3011
  360SOL    HW2 1485   3.279   3.480   0.431 -0.0689  0.2391 -1.4183
  360SOL    HW3 1486   3.196   3.606   0.444  0.2262  0.3300 -0.3365
  360SOL    MW4 1487   3.273   3.567   0.439  0.1376  0.1683 -0.4532
  361SOL     OW 1488   1.613   1.399   0.293 -0.2725 -0.3997  0.1008
  361SOL    HW2 1489   1.665   1.398   0.212  0.4768 -0.4926  0.5745
  361SOL    HW3 1490   1.604   1.491   0.315  0.6957 -0.4277  0.6447
  361SOL    MW4 1491   1.619   1.411   0.285 -0.0459 -0.4157  0.2351
  362SOL     OW 1492   0.618   0.642   0.383  0.1138  0.2027  0.1992
  362SOL    HW2 1493   0.532   0.667   0.349 -0.9134 -2.7418  0.5176
  362SOL    HW3 1494   0.626   0.692   0.465 -2.8606 -2.0606  1.9965
  362SOL    MW4 1495   0.607   0.652   0.390 -0.4141 -0.4845  0.4784
  363SOL     OW 1496   4.125   2.478   0.197 -0.1971  0.0486  0.1462
  363SOL    HW2 1497   4.090   2.565   0.217 -0.0686  0.2341 -0.4423
  363SOL    HW3 1498   4.051   2.419   0.210 -0.6460  0.4033 -0.8004
  363SOL    MW4 1499   4.110   2.482   0.202 -0.2394  0.1197 -0.0563
  364SOL     OW 1500   4.262   2.324   0.772  0.0183  0.0287 -0.2061
  364SOL    HW2 1501   4.188   2.382   0.754 -0.7935 -0.3744  1.5849
  364SOL    HW3 1502   4.339   2.372   0.745 -0.5789  2.2532  1.9162
  364SOL    MW4 1503   4.262   2.338   0.766 -0.1674  0.2692  0.3101
  365SOL     OW 1504   1.784   3.525   0.850 -0.0061 -0.0696 -0.4903
  365SOL    HW2 1505   1.788   3.542   0.944  0.9777 -0.6496 -0.4152
  365SOL    HW3 1506   1.693   3.541   0.826 -0.4438 -0.7274  0.7087
  365SOL    MW4 1507   1.773   3.529   0.859  0.0658 -0.2329 -0.3222
  366SOL     OW 1508   2.312   2.491   0.478  0.0455 -1.0617  0.2960
  366SOL    HW2 1509   2.401   2.455   0.478  0.0697 -1.0435  1.8430
  366SOL    HW3 1510   2.325   2.586   0.486 -0.1178 -1.0662  0.6067
  366SOL    MW4 1511   2.326   2.499   0.479  0.0272 -1.0598  0.5411
  367SOL     OW 1512   3.368   1.558   0.857 -0.2985 -0.4270  0.2626
  367SOL    HW2 1513   3.382   1.468   0.831  0.9678  0.0652 -0.7727
  367SOL    HW3 1514   3.358   1.554   0.953  1.3397 -1.4595  0.4000
  367SOL    MW4 1515   3.369   1.546   0.866  0.0846 -0.4982  0.1441
  368SOL     OW 1516   2.233   0.346   1.153 -0.2890 -0.6380  0.4391
  368SOL    HW2 1517   2.246   0.351   1.058  0.8192  0.2803  0.6203
  368SOL    HW3 1518   2.158   0.402   1.170 -1.1827 -1.6752 -0.0099
  368SOL    MW4 1519   2.225   0.354   1.143 -0.2608 -0.6537  0.4038
  369SOL     OW 1520   4.463   0.278   0.426  0.0537  0.1495 -0.4909
  369SOL    HW2 1521   4.469   0.183   0.435 -0.0674  0.0381 -1.5064
  369SOL    HW3 1522   4.539   0.302   0.373 -0.2050  0.5553 -0.6800
  369SOL    MW4 1523   4.474   0.269   0.420  0.0033  0.1883 -0.6498
  370SOL     OW 1524   1.089   2.824   0.406  0.3859  0.4099  0.3108
  370SOL    HW2 1525   1.109   2.834   0.499 -2.0579  0.7244  0.8458
  370SOL    HW3 1526   1.079   2.914   0.374  0.2108  0.2696 -0.0319
  370SOL    MW4 1527   1.090   2.837   0.414  0.0403  0.4330  0.3362
  371SOL     OW 1528   1.108   3.660   0.681 -0.3881  0.1569 -0.4285
  371SOL    HW2 1529   1.042   3.613   0.732 -2.1812  0.7064 -2.1787
  371SOL    HW3 1530   1.110   3.748   0.720 -1.1682  0.3343 -0.7823
  371SOL    MW4 1531   1.100   3.665   0.693 -0.7277  0.2530 -0.7060
  372SOL     OW 1532   3.170   2.684   1.128 -0.3400 -0.5006  0.4569
  372SOL    HW2 1533   3.152   2.689   1.034  1.0373  0.1447  0.2214
  372SOL    HW3 1534   3.093   2.724   1.169 -0.9001 -0.6885 -0.4048
  372SOL    MW4 1535   3.157   2.690   1.121 -0.2322 -0.4401  0.3122
  373SOL     OW 1536   3.325   1.120   0.406 -0.0742  0.4692  0.1052
  373SOL    HW2 1537   3.237   1.090   0.428 -0.5542  1.1782 -0.8032
  373SOL    HW3 1538   3.348   1.072   0.326  0.4922  0.0516  0.5152
  373SOL    MW4 1539   3.317   1.110   0.398 -0.0632  0.5077  0.0395
  374SOL     OW 1540   3.989   0.196   0.323 -0.3294 -0.4651  0.1847
  374SOL    HW2 1541   3.928   0.259   0.284 -0.4646  1.3356  3.1461
  374SOL    HW3 1542   4.074   0.239   0.320 -0.1011 -0.8735  0.6546
  374SOL    MW4 1543   3.992   0.210   0.318 -0.3173 -0.2814  0.6375
  375SOL     OW 1544   3.991   1.956   0.880 -0.2585 -0.8750 -0.6997
  375SOL    HW2 1545   3.944   2.004   0.811  0.2265 -1.1456 -1.2202
  375SOL    HW3 1546   3.998   1.867   0.847 -1.5002 -1.4199  0.4403
  375SOL    MW4 1547   3.986   1.951   0.867 -0.3583 -0.9826 -0.6180
  376SOL     OW 1548   4.393   1.846   0.229  0.1469  0.5749  0.5781
  376SOL    HW2 1549   4.384   1.941   0.233 -1.0463  0.5270 -0.6393
  376SOL    HW3 1550   4.302   1.814   0.228  0.5386 -0.5868  1.2282
  376SOL    MW4 1551   4.380   1.854   0.230  0.0415  0.4152  0.5033
  377SOL     OW 1552   0.423   1.377   0.571 -0.0042 -0.3073  0.3071
  377SOL    HW2 1553   0.420   1.368   0.476  0.4005  2.5931 -0.0143
  377SOL    HW3 1554   0.332   1.361   0.599 -0.7856  1.7599 -0.9001
  377SOL    MW4 1555   0.410   1.374   0.562 -0.0539  0.3480  0.1054
  378SOL     OW 1556   2.037   2.849   0.801  0.0753 -0.4500  0.3287
  378SOL    HW2 1557   1.963   2.798   0.834  0.4026 -1.2288 -0.1257
  378SOL    HW3 1558   2.028   2.935   0.844 -2.9913  0.6174 -2.2622
  378SOL    MW4 1559   2.026   2.854   0.811 -0.2863 -0.4120 -0.0730
  379SOL     OW 1560   2.125   3.962   0.555  0.1161  0.4311  0.7755
  379SOL    HW2 1561   2.062   3.946   0.625  0.2291 -0.1952  0.7375
  379SOL    HW3 1562   2.074   4.006   0.487 -0.3252 -0.2689  0.6564
  379SOL    MW4 1563   2.110   3.966   0.555  0.0730  0.2563  0.7547
  380SOL     OW 1564   3.090   3.556   0.795  0.7412 -0.0952  0.3243
  380SOL    HW2 1565   3.057   3.598   0.716  2.0575 -0.5551 -0.4957
  380SOL    HW3 1566   3.182   3.583   0.799  0.9511 -0.9219  1.1255
  380SOL    MW4 1567   3.098   3.565   0.785  0.9425 -0.2646  0.3218
  381SOL     OW 1568   3.722   1.993   0.437 -0.2194  0.0978  0.3566
  381SOL    HW2 1569   3.755   1.910   0.402  0.5309  0.3141  0.5442
  381SOL    HW3 1570   3.626   1.985   0.431 -0.1163 -0.1531 -1.0627
  381SOL    MW4 1571   3.713   1.981   0.432 -0.1066  0.0932  0.1941
  382SOL     OW 1572   1.367   4.508   0.409  0.0189 -0.7875 -0.1766
  382SOL    HW2 1573   1.384   4.601   0.395 -0.2251 -0.6900  0.1561
  382SOL    HW3 1574   1.453   4.467   0.411  0.1539 -0.4784  0.2850
  382SOL    MW4 1575   1.380   4.515   0.407  0.0045 -0.7339 -0.0718
  383SOL     OW 1576   0.367   0.323   0.875  0.0327 -0.3667  0.3757
  383SOL    HW2 1577   0.393   0.252   0.817  0.6079 -0.7522  1.1054
  383SOL    HW3 1578   0.274   0.307   0.893  0.1128 -0.8091  0.3791
  383SOL    MW4 1579   0.358   0.312   0.870  0.1192 -0.4759  0.4725
  384SOL     OW 1580   4.242   4.404   0.763 -0.1008  0.1026 -0.0758
  384SOL    HW2 1581   4.157   4.365   0.745  0.0088 -0.3122  0.3181
  384SOL    HW3 1582   4.272   4.436   0.678 -0.9180  0.7853 -0.1050
  384SOL    MW4 1583   4.235   4.403   0.749 -0.1936  0.1383 -0.0278
  385SOL     OW 1584   1.753   0.133   0.537 -0.2278  0.0629  0.5735
  385SOL    HW2 1585   1.658   0.139   0.537 -0.2054  0.4545  0.9711
  385SOL    HW3 1586   1.772   0.051   0.491 -0.6909  0.9203 -1.2139
  385SOL    MW4 1587   1.743   0.123   0.531 -0.2859  0.2277  0.3901
  386SOL     OW 1588   2.679   0.411   0.794  0.0048  0.1675  0.5677
  386SOL    HW2 1589   2.667   0.400   0.889  0.4518 -0.1833  0.5851
  386SOL    HW3 1590   2.705   0.324   0.763  1.3664  0.6426  0.3628
  386SOL    MW4 1591   2.681   0.398   0.803  0.2434  0.1839  0.5429
  387SOL     OW 1592   1.813   3.252   0.770  0.1314 -0.2132  0.1571
  387SOL    HW2 1593   1.738   3.194   0.775 -0.4328  0.4762 -0.2061
  387SOL    HW3 1594   1.780   3.337   0.799  0.3875  0.4573 -1.4563
  387SOL    MW4 1595   1.799   3.256   0.775  0.0910 -0.0339 -0.1037
  388SOL     OW 1596   1.585   4.416   0.748  0.1733 -0.2185 -0.1766
  388SOL    HW2 1597   1.576   4.419   0.653 -2.9479  1.6675  0.1452
  388SOL    HW3 1598   1.505   4.374   0.779  1.2454 -0.9993  1.6363
  388SOL    MW4 1599   1.574   4.411   0.739 -0.0970 -0.0734  0.1050
  389SOL     OW 1600   4.028   4.638   0.494  0.4797  0.3125 -0.0067
  389SOL    HW2 1601   3.954   4.578   0.488  1.3962 -0.6983 -1.6397
  389SOL    HW3 1602   4.013   4.703   0.425  1.4645 -0.3390 -0.8605
  389SOL    MW4 1603   4.016   4.638   0.484  0.7300  0.0935 -0.3349
  390SOL     OW 1604   0.057   1.159   0.472 -0.2213 -0.3141 -0.2452
  390SOL    HW2 1605   0.046   1.064   0.463  0.3799 -0.5234  1.0910
  390SOL    HW3 1606  -0.030   1.192   0.492 -0.2940 -0.6817  0.0452
  390SOL    MW4 1607   0.044   1.151   0.474 -0.1516 -0.3903 -0.0306
  391SOL     OW 1608   2.227   4.147   0.232  0.1543  0.0355 -0.3377
  391SOL    HW2 1609   2.264   4.059   0.239 -1.3663 -0.7261 -1.6207
  391SOL    HW3 1610   2.236   4.170   0.140  1.9087  1.8512  0.2699
  391SOL    MW4 1611   2.233   4.139   0.221  0.1850  0.1750 -0.4268
  392SOL     OW 1612   1.612   4.390   0.471 -0.0301  0.0903  0.0233
  392SOL    HW2 1613   1.656   4.306   0.455 -0.5723 -0.2944  0.5365
  392SOL    HW3 1614   1.671   4.455   0.433 -0.4080 -0.6560 -1.9045
  392SOL    MW4 1615   1.626   4.387   0.464 -0.1515 -0.0587 -0.1634
  393SOL     OW 1616   2.882   1.265   0.773 -0.5541 -0.3004 -0.1024
  393SOL    HW2 1617   2.878   1.233   0.683  0.1637 -3.0937  0.7844
  393SOL    HW3 1618   2.972   1.247   0.801 -0.2473  2.1558  0.6344
  393SOL    MW4 1619   2.894   1.258   0.765 -0.4187 -0.3448  0.1118
  394SOL     OW 1620   1.454   0.114   0.497  0.3334 -0.0540 -0.2323
  394SOL    HW2 1621   1.410   0.100   0.581 -2.2407  0.2881 -1.4648
  394SOL    HW3 1622   1.445   0.208   0.481  1.0759 -0.0684 -0.7409
  394SOL    MW4 1623   1.447   0.125   0.506  0.0917 -0.0108 -0.4620
  395SOL     OW 1624   0.905   0.407   0.855  0.0218  0.2731  0.2225
  395SOL    HW2 1625   0.983   0.423   0.802  2.2314 -0.7396  3.0240
  395SOL    HW3 1626   0.873   0.322   0.825  1.0017 -0.0934  0.1990
  395SOL    MW4 1627   0.911   0.398   0.844  0.4426  0.0911  0.5890
  396SOL     OW 1628   2.874   1.122   0.516  0.5136 -0.1084 -0.3840
  396SOL    HW2 1629   2.962   1.093   0.490  0.0888 -0.7844 -1.0941
  396SOL    HW3 1630   2.819   1.045   0.503 -0.3454  0.5577 -0.7517
  396SOL    MW4 1631   2.879   1.108   0.511  0.3443 -0.1097 -0.5262
  397SOL     OW 1632   3.094   2.458   0.706  0.3616 -0.4205  0.0721
  397SOL    HW2 1633   3.172   2.414   0.740  0.9373 -0.7670 -1.6352
  397SOL    HW3 1634   3.020   2.411   0.744  0.9867 -0.6919  0.9487
  397SOL    MW4 1635   3.095   2.446   0.716  0.5200 -0.5021 -0.0374
  398SOL     OW 1636   0.004   3.162   0.642 -0.0027  0.2807 -0.1636
  398SOL    HW2 1637  -0.068   3.134   0.699 -0.9533  0.7135 -1.1483
  398SOL    HW3 1638   0.081   3.116   0.677 -0.8975 -0.7974  0.4048
  398SOL    MW4 1639   0.005   3.152   0.654 -0.2461  0.1957 -0.2186
  399SOL     OW 1640   4.054   1.744   0.466  0.0727 -0.4870 -0.0089
  399SOL    HW2 1641   3.969   1.735   0.424  0.0642  0.1233 -0.1321
  399SOL    HW3 1642   4.078   1.835   0.451  0.7909 -0.6830 -0.0580
  399SOL    MW4 1643   4.046   1.755   0.459  0.1669 -0.4324 -0.0316
  400SOL     OW 1644   0.886   0.147   0.738  0.0350  0.6261 -0.3222
  400SOL    HW2 1645   0.907   0.155   0.645 -1.2011  1.8053 -0.5197
  400SOL    HW3 1646   0.954   0.090   0.774  0.8848  0.6827 -1.8235
  400SOL    MW4 1647   0.898   0.141   0.731 -0.0160  0.7892 -0.5463
  401SOL     OW 1648   3.800   4.488   0.439 -0.0328 -0.6777  0.1224
  401SOL    HW2 1649   3.790   4.395   0.421 -0.1163 -0.6383 -0.0284
  401SOL    HW3 1650   3.720   4.528   0.406  0.6198 -0.3573 -1.1059
  401SOL    MW4 1651   3.788   4.481   0.433  0.0422 -0.6304 -0.0595
  402SOL     OW 1652   3.342   3.097   1.066  0.0114  0.3819 -0.9449
  402SOL    HW2 1653   3.421   3.138   1.101 -0.0585 -0.3478  0.1115
  402SOL    HW3 1654   3.270   3.144   1.108 -0.0859 -0.0490 -0.6238
  402SOL    MW4 1655   3.343   3.108   1.076 -0.0107  0.2289 -0.7632
  403SOL     OW 1656   0.669   4.541   0.458  0.1107 -0.5812  0.3102
  403SOL    HW2 1657   0.657   4.476   0.527 -0.0341 -0.2294  0.6187
  403SOL    HW3 1658   0.662   4.492   0.377 -1.9667 -0.6458  0.5009
  403SOL    MW4 1659   0.666   4.526   0.456 -0.1825 -0.5431  0.3760
  404SOL     OW 1660   1.166   3.549   0.424  0.4184  0.6645 -0.1475
  404SOL    HW2 1661   1.079   3.554   0.385  0.7329  1.6468 -0.7628
  404SOL    HW3 1662   1.154   3.579   0.514 -0.1817 -0.8836  0.2885
  404SOL    MW4 1663   1.153   3.554   0.431  0.3808  0.5898 -0.1712
  405SOL     OW 1664   1.669   1.901   0.453  0.1369 -0.4078  0.0186
  405SOL    HW2 1665   1.620   1.981   0.435 -0.8206 -0.8439  0.6476
  405SOL    HW3 1666   1.761   1.927   0.447 -0.1636  0.8295  0.6187
  405SOL    MW4 1667   1.675   1.915   0.450 -0.0290 -0.3022  0.1807
  406SOL     OW 1668   2.236   3.457   1.105 -0.2216 -0.8530 -0.0148
  406SOL    HW2 1669   2.218   3.459   1.011 -0.1930  0.6644  0.0001
  406SOL    HW3 1670   2.316   3.507   1.116 -1.0101  0.2280  0.9728
  406SOL    MW4 1671   2.244   3.464   1.094 -0.3219 -0.5102  0.1175
  407SOL     OW 1672   4.434   1.504   0.284  0.3060 -0.2782 -0.1423
  407SOL    HW2 1673   4.370   1.536   0.348  1.4321  2.6113 -0.3624
  407SOL    HW3 1674   4.382   1.490   0.204 -0.5727 -0.8813  0.5314
  407SOL    MW4 1675   4.419   1.507   0.282  0.3386  0.0235 -0.0825
  408SOL     OW 1676   2.228   2.708   1.148 -0.6949 -0.3743  0.0456
  408SOL    HW2 1677   2.240   2.736   1.057 -1.3828  2.0228  0.6673
  408SOL    HW3 1678   2.233   2.612   1.144  1.9178 -0.2227 -2.1367
  408SOL    MW4 1679   2.230   2.699   1.135 -0.4411 -0.0381 -0.1602
  409SOL     OW 1680   4.136   2.053   0.414 -0.2129  0.5689  0.1223
  409SOL    HW2 1681   4.143   2.061   0.509  2.0310 -1.7097  0.2113
  409SOL    HW3 1682   4.215   2.095   0.380 -0.4355  0.3582 -0.6812
  409SOL    MW4 1683   4.147   2.060   0.422  0.0544  0.2406  0.0281
  410SOL     OW 1684   0.902   3.236   0.733  0.1245 -0.3177 -0.5907
  410SOL    HW2 1685   0.830   3.205   0.788  0.7542  1.0413  1.0713
  410SOL    HW3 1686   0.975   3.178   0.753 -0.0164 -0.6193 -0.9584
  410SOL    MW4 1687   0.902   3.224   0.743  0.1889 -0.1781 -0.4200
  411SOL     OW 1688   2.077   3.088   0.426 -0.1895  0.0182 -0.1081
  411SOL    HW2 1689   2.013   3.159   0.434 -0.0179  0.0675  0.8763
  411SOL    HW3 1690   2.161   3.131   0.443 -0.3309 -0.9463  3.2881
  411SOL    MW4 1691   2.080   3.103   0.429 -0.1855 -0.1025  0.4699
  412SOL     OW 1692   2.651   2.486   0.739 -0.3283  0.0789 -0.1416
  412SOL    HW2 1693   2.647   2.567   0.790 -0.4962 -0.4069  0.6259
  412SOL    HW3 1694   2.580   2.432   0.774 -0.0606 -0.4943 -0.4771
  412SOL    MW4 1695   2.641   2.490   0.751 -0.3152 -0.0610 -0.0846
  413SOL     OW 1696   0.252   3.855   0.779  0.0997  0.6981 -0.1195
  413SOL    HW2 1697   0.251   3.844   0.874  0.1635  0.9752 -0.0885
  413SOL    HW3 1698   0.243   3.766   0.745 -1.2673  0.7248  0.1427
  413SOL    MW4 1699   0.250   3.842   0.787 -0.0723  0.7381 -0.0807
  414SOL     OW 1700   2.247   1.115   0.813  0.0143  0.2015 -0.3323
  414SOL    HW2 1701   2.252   1.108   0.909  1.1289  0.8518 -0.3355
  414SOL    HW3 1702   2.323   1.168   0.789 -1.1222  1.3605 -1.4439
  414SOL    MW4 1703   2.258   1.121   0.823  0.0114  0.4402 -0.4794
  415SOL     OW 1704   3.547   2.775   0.778 -0.5374  0.3450  0.4988
  415SOL    HW2 1705   3.550   2.788   0.873  0.4552  0.5185  0.4543
  415SOL    HW3 1706   3.639   2.766   0.752 -0.7723  0.6765 -0.4934
  415SOL    MW4 1707   3.560   2.776   0.787 -0.4373  0.4115  0.3620
  416SOL     OW 1708   1.372   1.162   0.874 -0.2032  0.1333  0.1092
  416SOL    HW2 1709   1.445   1.191   0.819 -1.8518  0.7219 -1.8426
  416SOL    HW3 1710   1.304   1.227   0.860 -1.2514 -0.6000  1.6163
  416SOL    MW4 1711   1.372   1.174   0.865 -0.5590  0.1141  0.0505
  417SOL     OW 1712   4.448   1.965   0.835  0.0636  0.2951  0.4619
  417SOL    HW2 1713   4.374   2.013   0.797  0.0123 -1.1582 -1.3588
  417SOL    HW3 1714   4.526   2.012   0.805 -0.0743  1.0970  1.3459
  417SOL    MW4 1715   4.449   1.978   0.826  0.0381  0.2093  0.3383
  418SOL     OW 1716   3.844   0.786   0.854 -0.6460 -0.2341 -0.2539
  418SOL    HW2 1717   3.854   0.697   0.822 -0.5740 -1.2064  2.3632
  418SOL    HW3 1718   3.831   0.777   0.949 -0.6407  2.5177  0.0674
  418SOL    MW4 1719   3.844   0.773   0.863 -0.6359  0.0007  0.1338
  419SOL     OW 1720   1.095   4.393   0.761  0.1193  0.1829 -0.2928
  419SOL    HW2 1721   1.109   4.408   0.668  2.4380 -0.1383 -0.0179
  419SOL    HW3 1722   1.014   4.341   0.765  0.0490  0.1203 -2.1154
  419SOL    MW4 1723   1.086   4.388   0.749  0.4160  0.1321 -0.4970
  420SOL     OW 1724   2.240   3.219   0.761 -0.0319 -0.4980 -0.1646
  420SOL    HW2 1725   2.227   3.313   0.768 -0.9924 -0.5317 -1.2990
  420SOL    HW3 1726   2.252   3.203   0.668  1.2860 -1.3651  0.1394
  420SOL    MW4 1727   2.240   3.229   0.750  0.0155 -0.6168 -0.2742
  421SOL     OW 1728   0.024   3.420   0.826  0.3641 -0.2242 -0.0747
  421SOL    HW2 1729  -0.062   3.450   0.797 -0.9048 -3.4149  0.2731
  421SOL    HW3 1730   0.037   3.337   0.781  3.3015  0.2152 -0.1399
  421SOL    MW4 1731   0.015   3.413   0.816  0.5842 -0.5870 -0.0374
  422SOL     OW 1732   2.311   3.226   0.484  0.4959 -0.0064  0.1780
  422SOL    HW2 1733   2.398   3.186   0.489  0.3759 -0.0994  2.0456
  422SOL    HW3 1734   2.329   3.320   0.478  0.7236 -0.0256  0.5397
  422SOL    MW4 1735   2.325   3.233   0.484  0.5102 -0.0215  0.4722
  423SOL     OW 1736   2.609   2.410   0.484 -0.1450  0.3467  0.3634
  423SOL    HW2 1737   2.676   2.343   0.473 -0.8866 -0.2231 -0.8673
  423SOL    HW3 1738   2.629   2.451   0.568  0.8624 -0.7958  0.6985
  423SOL    MW4 1739   2.620   2.407   0.493 -0.1101  0.1206  0.2453
  424SOL     OW 1740   3.950   2.474   0.462 -0.0783 -0.1196  0.8225
  424SOL    HW2 1741   3.942   2.385   0.426 -0.3152 -0.4694  1.7252
  424SOL    HW3 1742   3.970   2.460   0.554  0.4501  0.7746  0.8441
  424SOL    MW4 1743   3.952   2.460   0.469 -0.0398 -0.0474  0.9445
  425SOL     OW 1744   3.392   4.479   0.711  0.2188 -0.0635  0.9939
  425SOL    HW2 1745   3.486   4.472   0.723  0.5686  0.4887 -1.1169
  425SOL    HW3 1746   3.381   4.488   0.616 -1.9380  0.0860  1.2341
  425SOL    MW4 1747   3.403   4.479   0.700 -0.0198  0.0291  0.7471
  426SOL     OW 1748   1.602   2.417   0.308  0.1700 -0.3622  0.4266
  426SOL    HW2 1749   1.537   2.456   0.368 -0.2884 -2.1058  1.0984
  426SOL    HW3 1750   1.684   2.458   0.333 -0.2354 -0.1074  1.4021
  426SOL    MW4 1751   1.604   2.428   0.319  0.0560 -0.5586  0.6440
  427SOL     OW 1752   2.245   4.286   0.820  0.0056 -0.1675 -0.3595
  427SOL    HW2 1753   2.247   4.277   0.915  0.9106 -0.8058 -0.4312
  427SOL    HW3 1754   2.334   4.315   0.797 -0.1075 -0.3553 -1.0389
  427SOL    MW4 1755   2.257   4.289   0.830  0.1101 -0.2761 -0.4586
  428SOL     OW 1756   1.312   0.577   0.422  0.0764  0.2238  0.1868
  428SOL    HW2 1757   1.322   0.650   0.482 -0.7761  0.7458 -0.2905
  428SOL    HW3 1758   1.301   0.618   0.336 -2.6421 -0.3441  0.1914
  428SOL    MW4 1759   1.312   0.592   0.418 -0.3946  0.2177  0.1244
  429SOL     OW 1760   3.608   0.912   0.764  0.0535 -0.0244 -0.1199
  429SOL    HW2 1761   3.619   1.007   0.774 -0.4113 -0.0752  0.9677
  429SOL    HW3 1762   3.690   0.875   0.795 -0.0732 -0.0219  0.2121
  429SOL    MW4 1763   3.620   0.920   0.769 -0.0246 -0.0307  0.0674
  430SOL     OW 1764   0.929   3.257   1.190  0.3610  0.1814  0.2898
  430SOL    HW2 1765   1.000   3.218   1.140 -0.0092  0.7191 -0.6682
  430SOL    HW3 1766   0.932   3.350   1.168  0.2448  0.4418  1.3374
  430SOL    MW4 1767   0.939   3.264   1.181  0.2968  0.2868  0.3018
  431SOL     OW 1768   4.418   4.042   0.417 -0.4277  0.1750  0.2764
  431SOL    HW2 1769   4.457   4.035   0.505  0.1210 -2.7559 -0.1555
  431SOL    HW3 1770   4.489   4.075   0.362 -0.0921 -0.1991  0.4851
  431SOL    MW4 1771   4.433   4.045   0.422 -0.3119 -0.2608  0.2469
  432SOL     OW 1772   0.600   3.147   0.454  0.3159 -0.0367 -0.0219
  432SOL    HW2 1773   0.574   3.198   0.530 -0.8637  0.1149 -0.5159
  432SOL    HW3 1774   0.693   3.166   0.442  0.4605  0.0753  1.2680
  432SOL    MW4 1775   0.609   3.156   0.462  0.1794 -0.0019  0.0831
  433SOL     OW 1776   1.124   0.511   0.720 -0.6480  0.4238 -0.4032
  433SOL    HW2 1777   1.097   0.600   0.740  0.3952  0.8327 -0.7953
  433SOL    HW3 1778   1.094   0.497   0.630  0.5406  0.9348 -0.8965
  433SOL    MW4 1779   1.117   0.521   0.711 -0.3536  0.5451 -0.5200
  434SOL     OW 1780   3.247   0.032   0.438  0.5761  0.4349  0.4545
  434SOL    HW2 1781   3.221   0.086   0.513  0.7905  1.4158 -0.1693
  434SOL    HW3 1782   3.305   0.088   0.387  0.8581 -0.4177 -0.1685
  434SOL    MW4 1783   3.251   0.046   0.442  0.6416  0.4516  0.2900
  435SOL     OW 1784   4.025   3.192   0.728 -0.0366  0.0010 -0.3877
  435SOL    HW2 1785   4.037   3.287   0.737  0.7332 -0.1588  0.3879
  435SOL    HW3 1786   3.997   3.180   0.637  0.8817  0.8819 -0.8031
  435SOL    MW4 1787   4.023   3.203   0.717  0.1860  0.0961 -0.3401
  436SOL     OW 1788   3.561   0.225   0.838  0.0359  0.4399  0.4398
  436SOL    HW2 1789   3.474   0.187   0.830  0.5504 -0.5587 -0.6401
  436SOL    HW3 1790   3.550   0.299   0.897 -1.4532  0.0499  0.6682
  436SOL    MW4 1791   3.548   0.230   0.845 -0.0930  0.2567  0.3274
  437SOL     OW 1792   0.432   1.279   0.292  0.9577 -0.0309  0.0426
  437SOL    HW2 1793   0.342   1.298   0.265  0.7676 -2.5948 -1.2505
  437SOL    HW3 1794   0.429   1.189   0.324  2.7650  0.3869  1.4788
  437SOL    MW4 1795   0.419   1.270   0.293  1.1711 -0.3139  0.0615
  438SOL     OW 1796   0.653   4.372   0.687 -0.3246 -0.0916 -0.3580
  438SOL    HW2 1797   0.570   4.337   0.718 -0.2773  0.0834 -0.0297
  438SOL    HW3 1798   0.665   4.454   0.736 -0.0892  0.0183 -0.5950
  438SOL    MW4 1799   0.644   4.378   0.698 -0.2872 -0.0539 -0.3458
  439SOL     OW 1800   1.813   4.585   0.385 -0.3427  0.2268  0.1664
  439SOL    HW2 1801   1.892   4.542   0.419 -0.1574  0.2682 -0.2170
  439SOL    HW3 1802   1.841   4.627   0.304 -1.1212 -1.1156 -0.8252
  439SOL    MW4 1803   1.827   4.585   0.379 -0.4210  0.0553 -0.0150
  440SOL     OW 1804   0.007   3.984   0.690  0.4691  0.2159 -0.0060
  440SOL    HW2 1805   0.085   3.954   0.737  0.0233 -1.1730 -0.1369
  440SOL    HW3 1806  -0.014   4.069   0.730  1.3185  0.0224  0.8592
  440SOL    MW4 1807   0.014   3.992   0.702  0.5224  0.0069  0.0909
  441SOL     OW 1808   0.327   2.785   0.426  0.3388  0.2670  0.0571
  441SOL    HW2 1809   0.240   2.812   0.398 -0.0214 -0.1215  0.7948
  441SOL    HW3 1810   0.331   2.691   0.406  0.6217  0.3004 -0.0544
  441SOL    MW4 1811   0.316   2.776   0.419  0.3286  0.2203  0.1397
  442SOL     OW 1812   1.778   3.518   1.123  0.3681 -0.7710  0.0862
  442SOL    HW2 1813   1.857   3.568   1.143  0.0833 -1.1567  2.2440
  442SOL    HW3 1814   1.795   3.430   1.156  0.1103 -1.6152 -1.9538
  442SOL    MW4 1815   1.791   3.513   1.130  0.2964 -0.9332  0.1018
  443SOL     OW 1816   4.257   4.646   1.184  0.0140  0.0876  0.0420
  443SOL    HW2 1817   4.249   4.551   1.194  2.3127 -0.0969  0.3493
  443SOL    HW3 1818   4.256   4.660   1.090  0.7799 -0.3501 -0.0341
  443SOL    MW4 1819   4.256   4.635   1.173  0.4187  0.0052  0.0725
  444SOL     OW 1820   0.915   0.390   1.119 -0.1766 -0.0049 -0.2509
  444SOL    HW2 1821   0.913   0.399   1.024 -1.7853  0.7982 -0.1602
  444SOL    HW3 1822   0.920   0.295   1.134  0.4344 -0.1194 -1.1324
  444SOL    MW4 1823   0.916   0.379   1.108 -0.3082  0.0859 -0.3554
  445SOL     OW 1824   1.350   4.289   0.826  0.2044 -0.1459 -0.0274
  445SOL    HW2 1825   1.347   4.301   0.921 -0.1498 -1.4583  0.1316
  445SOL    HW3 1826   1.265   4.319   0.795 -0.1764 -0.9512  0.2229
  445SOL    MW4 1827   1.339   4.294   0.834  0.1075 -0.4253  0.0266
  446SOL     OW 1828   2.686   3.215   0.725 -0.5124  0.0849 -0.1022
  446SOL    HW2 1829   2.616   3.184   0.782 -1.0011 -1.0012 -1.2904
  446SOL    HW3 1830   2.661   3.188   0.637  0.6559  1.0027 -0.7478
  446SOL    MW4 1831   2.674   3.208   0.721 -0.4227  0.0627 -0.3441
  447SOL     OW 1832   2.582   0.585   0.438 -0.2876 -0.1363 -0.9714
  447SOL    HW2 1833   2.508   0.644   0.451  0.0093 -0.1236  0.6884
  447SOL    HW3 1834   2.546   0.498   0.450  0.2286 -0.0744  1.2562
  447SOL    MW4 1835   2.567   0.582   0.441 -0.1805 -0.1264 -0.4585
  448SOL     OW 1836   2.429   2.342   0.823  0.0141  0.2525 -0.0043
  448SOL    HW2 1837   2.345   2.380   0.798 -0.2641 -0.2072  0.2168
  448SOL    HW3 1838   2.424   2.334   0.918  0.4147  0.4731  0.0339
  448SOL    MW4 1839   2.417   2.346   0.832  0.0303  0.2210  0.0299
  449SOL     OW 1840   3.785   2.328   1.074 -0.3185  0.9133  0.0067
  449SOL    HW2 1841   3.867   2.364   1.109 -0.2214  1.4765 -0.7955
  449SOL    HW3 1842   3.779   2.241   1.113  0.5082  0.9911  0.3200
  449SOL    MW4 1843   3.795   2.321   1.084 -0.1965  0.9980 -0.0578
  450SOL     OW 1844   3.161   2.411   1.213 -0.0942 -0.2113  0.0093
  450SOL    HW2 1845   3.175   2.502   1.188 -2.0508 -0.1914 -1.1230
  450SOL    HW3 1846   3.151   2.414   1.308  1.7610  0.4786  0.1952
  450SOL    MW4 1847   3.161   2.424   1.222 -0.1075 -0.1178 -0.1156
  451SOL     OW 1848   0.895   1.879   0.864  0.4074 -0.0589 -0.8296
  451SOL    HW2 1849   0.852   1.953   0.822 -0.9426  0.4383  1.3427
  451SOL    HW3 1850   0.858   1.802   0.821 -3.1124  0.3340  1.2726
  451SOL    MW4 1851   0.884   1.878   0.853 -0.2351  0.0587 -0.2657
  452SOL     OW 1852   4.382   2.122   0.296 -0.0717  0.0708 -0.4445
  452SOL    HW2 1853   4.452   2.102   0.358  0.3236  1.5834 -0.3629
  452SOL    HW3 1854   4.388   2.217   0.284 -1.8398  0.1549 -0.7606
  452SOL    MW4 1855   4.392   2.132   0.303 -0.2522  0.2811 -0.4754
  453SOL     OW 1856   3.508   2.683   0.336  0.3251 -0.2922  0.5008
  453SOL    HW2 1857   3.550   2.608   0.378 -0.2855 -0.7348  0.3211
  453SOL    HW3 1858   3.419   2.654   0.318  0.6868 -0.2257 -1.4451
  453SOL    MW4 1859   3.502   2.669   0.339  0.2921 -0.3419  0.2204
  454SOL     OW 1860   3.343   2.303   1.046  0.7447  0.3591 -0.2113
  454SOL    HW2 1861   3.423   2.340   1.083  0.6539 -0.9394  1.3028
  454SOL    HW3 1862   3.273   2.330   1.106  0.3797 -0.4521 -0.2610
  454SOL    MW4 1863   3.344   2.311   1.059  0.6847  0.0808 -0.0181
  455SOL     OW 1864   1.597   1.176   0.690 -0.8184 -0.8601 -0.5232
  455SOL    HW2 1865   1.638   1.227   0.620 -0.2809 -1.1339 -0.4040
  455SOL    HW3 1866   1.670   1.141   0.740 -1.2115  0.1595  0.7739
  455SOL    MW4 1867   1.612   1.178   0.687 -0.7994 -0.7617 -0.3363
  456SOL     OW 1868   2.902   2.814   0.469 -0.3774 -0.6850  0.2796
  456SOL    HW2 1869   2.909   2.871   0.392  0.0933 -1.3015 -0.1379
  456SOL    HW3 1870   2.849   2.740   0.439 -0.9557 -0.4959  0.8113
  456SOL    MW4 1871   2.896   2.812   0.455 -0.3915 -0.7417  0.2946
  457SOL     OW 1872   1.334   0.344   0.826  0.0329  0.0767 -0.2239
  457SOL    HW2 1873   1.331   0.353   0.921 -1.2576 -0.3565 -0.2106
  457SOL    HW3 1874   1.272   0.410   0.794  0.5692  0.3224 -0.7749
  457SOL    MW4 1875   1.325   0.354   0.834 -0.0668  0.0520 -0.2948
  458SOL     OW 1876   1.588   3.609   0.677 -0.0986  0.1849  0.2302
  458SOL    HW2 1877   1.502   3.586   0.712 -0.9282  1.5038 -0.8704
  458SOL    HW3 1878   1.593   3.704   0.686  0.8939  0.2073 -0.4737
  458SOL    MW4 1879   1.578   3.619   0.683 -0.0771  0.3617 -0.0078
  459SOL     OW 1880   3.635   3.313   0.455  0.2262  0.3028  0.1285
  459SOL    HW2 1881   3.582   3.277   0.383  1.7878  0.8296 -1.3141
  459SOL    HW3 1882   3.599   3.272   0.534 -0.1963 -1.8850 -1.1497
  459SOL    MW4 1883   3.623   3.303   0.456  0.3767  0.0837 -0.2304
  460SOL     OW 1884   1.328   1.034   0.302  0.1641 -0.3910  0.1119
  460SOL    HW2 1885   1.405   1.016   0.356 -0.8178 -0.8812  1.3914
  460SOL    HW3 1886   1.297   0.948   0.275  0.0633 -0.1985 -0.3916
  460SOL    MW4 1887   1.334   1.020   0.306  0.0213 -0.4302  0.2142
  461SOL     OW 1888   0.752   4.051   0.308  0.5655 -0.1229  0.0523
  461SOL    HW2 1889   0.680   3.998   0.342  0.7622 -0.0489  0.5894
  461SOL    HW3 1890   0.831   4.006   0.338  0.7475 -0.1393 -0.4343
  461SOL    MW4 1891   0.753   4.038   0.316  0.6155 -0.1149  0.0590
  462SOL     OW 1892   1.575   3.929   1.099  0.0890 -0.0915 -0.1364
  462SOL    HW2 1893   1.615   3.963   1.019 -0.5415 -1.0164 -0.8513
  462SOL    HW3 1894   1.525   4.003   1.134  0.7912  0.4689 -0.3076
  462SOL    MW4 1895   1.574   3.943   1.093  0.0985 -0.1397 -0.2533
  463SOL     OW 1896   0.010   3.208   0.371  0.1298 -0.0615 -0.2003
  463SOL    HW2 1897   0.094   3.253   0.365 -0.2265  0.4539 -1.6877
  463SOL    HW3 1898  -0.001   3.190   0.464  1.6979  0.2184  0.0570
  463SOL    MW4 1899   0.020   3.212   0.382  0.2897  0.0434 -0.3626
  464SOL     OW 1900   2.922   2.956   0.212 -0.0161  0.6342  0.0845
  464SOL    HW2 1901   2.870   2.943   0.132  1.6374  0.5186 -0.9920
  464SOL    HW3 1902   2.918   3.050   0.228 -0.0803  0.7072 -0.3382
  464SOL    MW4 1903   2.915   2.966   0.203  0.1936  0.6287 -0.1133
  465SOL     OW 1904   0.786   1.678   0.671  0.4234  0.5578  0.1543
  465SOL    HW2 1905   0.775   1.721   0.586 -0.2586  1.9424  0.9199
  465SOL    HW3 1906   0.870   1.632   0.664  0.3766  0.6555 -1.2580
  465SOL    MW4 1907   0.796   1.677   0.659  0.3272  0.7532  0.0691
  466SOL     OW 1908   3.576   4.563   0.295 -0.8843  0.0996 -0.1267
  466SOL    HW2 1909   3.566   4.657   0.278  0.6051  0.4241  0.6980
  466SOL    HW3 1910   3.644   4.535   0.234 -0.0623 -0.0611  0.8502
  466SOL    MW4 1911   3.584   4.572   0.285 -0.5794  0.1216  0.1110
  467SOL     OW 1912   1.152   0.788   1.077 -0.4190  0.3260  0.0259
  467SOL    HW2 1913   1.185   0.708   1.117  0.1383  0.9770  0.8541
  467SOL    HW3 1914   1.061   0.793   1.106 -1.1064 -1.1219 -1.7418
  467SOL    MW4 1915   1.144   0.778   1.086 -0.4363  0.2209 -0.0981
  468SOL     OW 1916   3.333   2.331   0.768  0.6663 -0.1433 -0.4680
  468SOL    HW2 1917   3.350   2.242   0.736  1.4366  0.1752 -0.9473
  468SOL    HW3 1918   3.338   2.323   0.864  1.8395 -0.3938 -0.5426
  468SOL    MW4 1919   3.336   2.318   0.777  0.9229 -0.1342 -0.5411
  469SOL     OW 1920   3.827   2.894   0.437 -0.3798 -0.0170  0.1239
  469SOL    HW2 1921   3.846   2.987   0.450 -1.9897  0.1686  1.3480
  469SOL    HW3 1922   3.743   2.893   0.391 -0.3750 -0.8595  0.1278
  469SOL    MW4 1923   3.818   2.906   0.433 -0.5918 -0.1040  0.2859
  470SOL     OW 1924   3.584   3.185   0.724 -0.6011  0.0028  0.0423
  470SOL    HW2 1925   3.594   3.276   0.755  1.6166 -0.4405  0.7383
  470SOL    HW3 1926   3.490   3.168   0.730 -0.9179  1.8950  0.9713
  470SOL    MW4 1927   3.573   3.195   0.729 -0.3502  0.1938  0.2567
  471SOL     OW 1928   2.595   3.807   0.554  0.0566  0.0070 -0.0633
  471SOL    HW2 1929   2.549   3.783   0.635  0.9550 -0.0716  0.4321
  471SOL    HW3 1930   2.643   3.729   0.529  0.1667  0.1824 -0.4104
  471SOL    MW4 1931   2.595   3.794   0.562  0.1895  0.0198 -0.0437
  472SOL     OW 1932   0.963   2.467   0.728  0.0288 -0.2740  0.3041
  472SOL    HW2 1933   0.941   2.553   0.766  0.9261  0.1088 -0.0252
  472SOL    HW3 1934   0.932   2.472   0.638  0.0561 -0.2992  0.2932
  472SOL    MW4 1935   0.956   2.479   0.721  0.1508 -0.2270  0.2592
  473SOL     OW 1936   0.247   0.530   0.521 -0.4053  0.0954 -0.2614
  473SOL    HW2 1937   0.178   0.496   0.577  1.4296 -0.9006  1.4784
  473SOL    HW3 1938   0.319   0.549   0.582  0.6927  1.4983 -1.9644
  473SOL    MW4 1939   0.248   0.528   0.537 -0.0183  0.1491 -0.2565
  474SOL     OW 1940   3.874   0.560   0.713  0.3899  0.3450  0.9131
  474SOL    HW2 1941   3.943   0.494   0.722 -0.6576 -1.0177 -0.6148
  474SOL    HW3 1942   3.861   0.568   0.619 -1.9474  0.1215  1.1857
  474SOL    MW4 1943   3.881   0.552   0.702 -0.0567  0.1358  0.7475
  475SOL     OW 1944   4.481   0.042   0.773  0.3949 -0.1673  0.0114
  475SOL    HW2 1945   4.462   0.031   0.680  1.9112  0.1520 -0.3427
  475SOL    HW3 1946   4.400   0.014   0.817 -0.5792  0.3435 -1.4138
  475SOL    MW4 1947   4.468   0.037   0.767  0.4663 -0.0578 -0.2233
  476SOL     OW 1948   4.272   1.231   0.517  0.0022 -0.2590 -0.2658
  476SOL    HW2 1949   4.246   1.323   0.510  1.1760  0.2542  1.6246
  476SOL    HW3 1950   4.219   1.186   0.451 -2.1256  1.4462  0.2066
  476SOL    MW4 1951   4.261   1.237   0.507 -0.1240  0.0336  0.0460
  477SOL     OW 1952   1.159   3.974   0.473  0.4268  0.3341  0.0939
  477SOL    HW2 1953   1.216   3.982   0.549 -3.0916  1.4293  2.6977
  477SOL    HW3 1954   1.149   4.063   0.440  0.2180  0.1477 -0.3591
  477SOL    MW4 1955   1.165   3.987   0.479 -0.0651  0.4539  0.3777
  478SOL     OW 1956   0.668   2.301   1.090 -0.2682  0.3155  0.5228
  478SOL    HW2 1957   0.710   2.286   1.005 -1.5484  1.0229 -0.2515
  478SOL    HW3 1958   0.675   2.217   1.135  0.8985  0.0866 -0.0742
  478SOL    MW4 1959   0.674   2.288   1.085 -0.2831  0.3786  0.3420
  479SOL     OW 1960   2.740   2.607   0.344 -0.1665  0.0626 -0.2840
  479SOL    HW2 1961   2.821   2.569   0.310  0.3420  0.2079  0.7342
  479SOL    HW3 1962   2.690   2.533   0.377  0.1454  0.1080  0.2991
  479SOL    MW4 1963   2.744   2.593   0.344 -0.0582  0.0877 -0.0727
  480SOL     OW 1964   1.978   1.394   0.397 -0.5488  0.0009 -0.0178
  480SOL    HW2 1965   1.989   1.486   0.422  0.3328 -0.0943 -0.0477
  480SOL    HW3 1966   1.893   1.369   0.433  0.0403  0.2939  1.5898
  480SOL    MW4 1967   1.968   1.403   0.405 -0.3549  0.0269  0.1903
  481SOL     OW 1968   3.547   3.717   0.477 -0.1605  0.0910  0.4162
  481SOL    HW2 1969   3.539   3.697   0.570 -0.2229  0.6578  0.5360
  481SOL    HW3 1970   3.474   3.672   0.435 -1.0014  1.0570  0.8378
  481SOL    MW4 1971   3.537   3.709   0.483 -0.2794  0.2933  0.4876
  482SOL     OW 1972   2.920   3.097   0.800 -0.2430 -0.1007  0.1015
  482SOL    HW2 1973   2.831   3.122   0.773 -0.0276  0.4742 -0.0898
  482SOL    HW3 1974   2.976   3.162   0.758  0.1031  0.7898  1.8974
  482SOL    MW4 1975   2.915   3.109   0.791 -0.1688  0.0927  0.3132
  483SOL     OW 1976   2.464   3.109   0.853  0.1714 -0.1715 -0.1818
  483SOL    HW2 1977   2.448   3.101   0.947  0.8321  0.8234  0.0301
  483SOL    HW3 1978   2.387   3.154   0.819  0.2970  0.2066  0.0273
  483SOL    MW4 1979   2.452   3.114   0.861  0.2751  0.0093 -0.1263
  484SOL     OW 1980   3.864   3.567   0.460  0.3346 -0.0403 -0.5605
  484SOL    HW2 1981   3.783   3.569   0.409 -1.4197  0.5766  2.1425
  484SOL    HW3 1982   3.905   3.484   0.437 -2.0859 -1.2975 -0.4554
  484SOL    MW4 1983   3.859   3.556   0.450 -0.2160 -0.1249 -0.1900
  485SOL     OW 1984   0.232   4.605   0.830  0.3955  0.2391  0.0266
  485SOL    HW2 1985   0.149   4.645   0.804  0.1057  0.1731  0.8232
  485SOL    HW3 1986   0.298   4.647   0.775  0.2375  2.5831  1.5674
  485SOL    MW4 1987   0.230   4.616   0.819  0.3364  0.5398  0.3349
  486SOL     OW 1988   0.230   4.657   1.107 -0.3014 -0.1930 -0.7020
  486SOL    HW2 1989   0.238   4.665   1.012  0.0631  1.9206 -0.5119
  486SOL    HW3 1990   0.310   4.696   1.142 -0.5399 -0.7259  0.4914
  486SOL    MW4 1991   0.241   4.663   1.099 -0.2848  0.0155 -0.5194
  487SOL     OW 1992   0.004   0.118   1.235 -0.1159 -0.4559 -0.2477
  487SOL    HW2 1993  -0.062   0.049   1.227 -0.3212 -0.2255 -0.5479
  487SOL    HW3 1994   0.077   0.087   1.181 -1.1510  0.6859 -2.3796
  487SOL    MW4 1995   0.005   0.105   1.227 -0.2796 -0.2749 -0.5685
  488SOL     OW 1996   0.217   0.505   1.190 -0.1357  0.3239 -0.0137
  488SOL    HW2 1997   0.205   0.596   1.162  0.0063  0.3458 -0.0028
  488SOL    HW3 1998   0.130   0.465   1.179 -0.0865  0.3375 -0.4640
  488SOL    MW4 1999   0.204   0.512   1.185 -0.1105  0.3286 -0.0716
  489SOL     OW 2000   4.439   0.903   1.193 -0.1060 -0.3064  0.2376
  489SOL    HW2 2001   4.456   0.994   1.170  0.6514 -0.3172  0.7370
  489SOL    HW3 2002   4.442   0.902   1.289 -0.2705 -0.8275  0.2363
  489SOL    MW4 2003   4.442   0.915   1.203 -0.0277 -0.3766  0.3033
  490SOL     OW 2004   4.209   0.759   1.097  0.3545  0.2824 -0.2632
  490SOL    HW2 2005   4.278   0.819   1.126  0.6158  0.4777 -1.2675
  490SOL    HW3 2006   4.231   0.676   1.139  0.6528  0.5856  0.1956
  490SOL    MW4 2007   4.221   0.756   1.107  0.4287  0.3481 -0.3353
  491SOL     OW 2008   4.259   0.510   1.201  0.1384 -0.5304  0.5102
  491SOL    HW2 2009   4.263   0.508   1.296 -1.6926 -0.3035  0.6124
  491SOL    HW3 2010   4.335   0.460   1.173  1.0232 -0.0917  2.0787
  491SOL    MW4 2011   4.269   0.503   1.210  0.0134 -0.4425  0.7306
  492SOL     OW 2012   0.209   1.289   1.215  0.0763  0.0400  0.0645
  492SOL    HW2 2013   0.285   1.248   1.175 -0.0250  0.0494 -0.1335
  492SOL    HW3 2014   0.135   1.235   1.189 -0.1643  0.8004 -0.8656
  492SOL    MW4 2015   0.210   1.277   1.207  0.0312  0.1416 -0.0843
  493SOL     OW 2016   0.388   1.649   1.170 -0.1791 -0.2426  0.8050
  493SOL    HW2 2017   0.405   1.742   1.151  1.7444 -0.8329 -0.5523
  493SOL    HW3 2018   0.408   1.639   1.263  2.5989  0.1007  0.2938
  493SOL    MW4 2019   0.393   1.660   1.179  0.4413 -0.2750  0.5585
  494SOL     OW 2020   4.484   1.703   1.242 -0.1108 -0.6865 -0.4995
  494SOL    HW2 2021   4.486   1.792   1.206  1.1445 -0.0195  1.1549
  494SOL    HW3 2022   4.525   1.649   1.174 -0.7635  0.0029 -1.4608
  494SOL    MW4 2023   4.490   1.708   1.228 -0.0310 -0.5075 -0.4081
  495SOL     OW 2024   4.485   1.949   1.117  0.0229 -0.3011 -0.1916
  495SOL    HW2 2025   4.422   2.015   1.146 -0.9818 -2.0070  1.6699
  495SOL    HW3 2026   4.462   1.932   1.026 -1.1255  0.2925 -0.0184
  495SOL    MW4 2027   4.474   1.956   1.109 -0.2613 -0.4478  0.0769
  496SOL     OW 2028   0.235   2.079   1.202 -0.3225 -0.1261 -0.2438
  496SOL    HW2 2029   0.232   2.160   1.150  0.1521 -0.2244 -0.4289
  496SOL    HW3 2030   0.161   2.027   1.169 -1.7459  0.9907  1.1497
  496SOL    MW4 2031   0.225   2.083   1.191 -0.4477  0.0083 -0.0844
  497SOL     OW 2032   2.585   2.861   0.416 -0.2449  0.0018  0.1235
  497SOL    HW2 2033   2.645   2.791   0.393 -1.0665 -0.5598 -0.3446
  497SOL    HW3 2034   2.500   2.818   0.424 -0.9998  1.1248 -1.4463
  497SOL    MW4 2035   2.582   2.846   0.414 -0.4530  0.0761 -0.1453
  498SOL     OW 2036   0.239   2.336   1.098 -0.4184 -0.1522  0.1516
  498SOL    HW2 2037   0.316   2.377   1.137 -0.6880 -0.4347  0.9879
  498SOL    HW3 2038   0.165   2.366   1.151 -0.7261 -0.9468  0.1876
  498SOL    MW4 2039   0.240   2.345   1.110 -0.4946 -0.2942  0.2667
  499SOL     OW 2040   0.494   2.740   1.075  0.5747  0.0110  0.4850
  499SOL    HW2 2041   0.408   2.773   1.100 -0.5925 -0.8387 -2.2379
  499SOL    HW3 2042   0.503   2.657   1.121 -0.3027 -0.1493  0.3722
  499SOL    MW4 2043   0.484   2.733   1.084  0.3049 -0.1218  0.1109
  500SOL     OW 2044   0.236   2.845   1.137 -0.1083  0.0914 -0.1460
  500SOL    HW2 2045   0.218   2.842   1.231  0.4050  0.2053 -0.0412
  500SOL    HW3 2046   0.159   2.805   1.096 -0.0018 -0.6484  0.3659
  500SOL    MW4 2047   0.224   2.839   1.144 -0.0265  0.0088 -0.0647
  501SOL     OW 2048   0.273   3.111   1.058 -0.0588  0.3006 -0.3411
  501SOL    HW2 2049   0.270   3.018   1.083 -0.5092  0.4146  0.0318
  501SOL    HW3 2050   0.343   3.148   1.111 -0.8569  0.4906  0.5807
  501SOL    MW4 2051   0.282   3.103   1.068 -0.2235  0.3405 -0.1702
  502SOL     OW 2052   0.052   3.189   1.222  0.8354 -0.5086  0.4747
  502SOL    HW2 2053  -0.031   3.169   1.178  0.5636  0.4190  0.5658
  502SOL    HW3 2054   0.119   3.148   1.167  0.3700 -0.6655  0.0251
  502SOL    MW4 2055   0.050   3.181   1.209  0.7382 -0.4067  0.4275
  503SOL     OW 2056   0.036   3.458   1.119 -0.1458  0.5106  0.5594
  503SOL    HW2 2057   0.062   3.374   1.156  1.6255  1.0605  0.6515
  503SOL    HW3 2058   0.041   3.445   1.024 -0.2137  0.4070  0.5706
  503SOL    MW4 2059   0.040   3.445   1.111  0.0790  0.5698  0.5730
  504SOL     OW 2060   0.238   3.638   1.219 -0.0170 -0.4034  0.3007
  504SOL    HW2 2061   0.233   3.641   1.314  1.1498 -1.3366  0.4054
  504SOL    HW3 2062   0.165   3.582   1.192  0.5011 -1.2927  0.7419
  504SOL    MW4 2063   0.228   3.631   1.228  0.2053 -0.6442  0.3728
  505SOL     OW 2064   0.226   3.874   1.070 -0.3239  0.4683 -0.2492
  505SOL    HW2 2065   0.150   3.918   1.109  0.7464  0.9270  1.3569
  505SOL    HW3 2066   0.227   3.788   1.111 -0.2182  0.2974 -0.6069
  505SOL    MW4 2067   0.216   3.869   1.081 -0.1687  0.5062 -0.0845
  506SOL     OW 2068   0.007   4.014   1.182 -0.1728  0.2899  0.1808
  506SOL    HW2 2069  -0.018   4.016   1.274  0.3260 -1.1335  0.3736
  506SOL    HW3 2070  -0.066   3.969   1.138 -0.0065  0.1691  0.0263
  506SOL    MW4 2071  -0.006   4.008   1.188 -0.0849  0.0854  0.1857
  507SOL     OW 2072   0.014   4.278   1.075  0.2385 -0.0627  0.2552
  507SOL    HW2 2073   0.083   4.337   1.105  0.6695 -0.9027  0.9024
  507SOL    HW3 2074   0.032   4.194   1.117 -1.3215 -0.2299  0.6390
  507SOL    MW4 2075   0.025   4.275   1.084  0.0896 -0.1955  0.3912
  508SOL     OW 2076   0.244   4.401   1.206 -0.5249 -0.8371  0.3075
  508SOL    HW2 2077   0.204   4.411   1.293 -1.4301 -0.0634 -0.2035
  508SOL    HW3 2078   0.237   4.487   1.166  0.1413 -1.1282 -0.4462
  508SOL    MW4 2079   0.238   4.414   1.212 -0.5564 -0.7730  0.1407
  509SOL     OW 2080   0.694   0.000   1.083  0.1693  0.7223 -0.1579
  509SOL    HW2 2081   0.766   0.055   1.115 -0.9877  1.2436  1.6261
  509SOL    HW3 2082   0.714  -0.087   1.116  0.4237  0.6961 -0.3825
  509SOL    MW4 2083   0.706  -0.004   1.092  0.0502  0.7877  0.0478
  510SOL     OW 2084   0.463   0.093   1.232  0.5242  0.1261  0.0261
  510SOL    HW2 2085   0.471   0.184   1.204  0.3877 -0.3639 -1.6516
  510SOL    HW3 2086   0.535   0.048   1.188  0.4527 -0.6215  0.6689
  510SOL    MW4 2087   0.473   0.099   1.222  0.4967 -0.0372 -0.1105
  511SOL     OW 2088   2.592   3.528   0.335 -0.0101  0.3355 -0.2440
  511SOL    HW2 2089   2.514   3.519   0.390 -0.0184  1.0462 -0.1338
  511SOL    HW3 2090   2.569   3.596   0.272  1.4755  2.4786  1.4776
  511SOL    MW4 2091   2.578   3.535   0.334  0.1848  0.7119 -0.0024
  512SOL     OW 2092   0.453   0.362   1.133 -0.1772  0.0929 -0.0660
  512SOL    HW2 2093   0.432   0.329   1.046  0.1740  0.4020 -0.2708
  512SOL    HW3 2094   0.372   0.402   1.164 -0.4843 -0.5708  0.0089
  512SOL    MW4 2095   0.440   0.363   1.126 -0.1714  0.0461 -0.0831
  513SOL     OW 2096   0.632   0.756   1.062  0.2780  0.5889  0.0463
  513SOL    HW2 2097   0.637   0.678   1.117 -0.4343 -1.0704 -2.1945
  513SOL    HW3 2098   0.549   0.797   1.085  0.3831  0.3765  0.8077
  513SOL    MW4 2099   0.622   0.752   1.072  0.1978  0.3420 -0.1489
  514SOL     OW 2100   0.412   0.916   1.175 -0.2780 -0.0270 -0.3867
  514SOL    HW2 2101   0.417   0.926   1.270 -1.3152 -0.8260 -0.2459
  514SOL    HW3 2102   0.416   1.006   1.142 -0.9172  0.3221  0.4586
  514SOL    MW4 2103   0.413   0.929   1.183 -0.4992 -0.0864 -0.2567
  515SOL     OW 2104   0.436   1.181   1.086 -0.3405  0.4308  0.0969
  515SOL    HW2 2105   0.516   1.199   1.136  0.6496  2.2407 -2.0335
  515SOL    HW3 2106   0.466   1.174   0.996 -2.3990 -0.4941 -0.5392
  515SOL    MW4 2107   0.450   1.183   1.081 -0.4814  0.5475 -0.2681
  516SOL     OW 2108   0.661   1.263   1.211  0.6746  0.3211 -0.2454
  516SOL    HW2 2109   0.726   1.213   1.162  1.2415  0.6543  0.1519
  516SOL    HW3 2110   0.664   1.351   1.172  1.0350  0.5512  0.2928
  516SOL    MW4 2111   0.670   1.268   1.200  0.7969  0.3955 -0.1218
  517SOL     OW 2112   1.201   2.560   0.338  0.4966 -0.6252  0.2171
  517SOL    HW2 2113   1.158   2.638   0.372  0.2143 -1.1044  0.9546
  517SOL    HW3 2114   1.230   2.586   0.250  0.8831  0.4805  0.6598
  517SOL    MW4 2115   1.199   2.574   0.331  0.5103 -0.5424  0.3728
  518SOL     OW 2116   0.647   1.535   1.087  0.7016  0.3501 -0.1113
  518SOL    HW2 2117   0.556   1.564   1.088  0.9884  1.2513  1.1265
  518SOL    HW3 2118   0.660   1.498   1.000 -0.7665  0.4704 -0.3885
  518SOL    MW4 2119   0.637   1.534   1.076  0.5457  0.4848  0.0155
  519SOL     OW 2120   0.445   1.933   1.087  0.5938  0.2986 -0.4063
  519SOL    HW2 2121   0.512   1.975   1.141 -0.4463  2.6823 -0.9235
  519SOL    HW3 2122   0.362   1.960   1.126 -0.1090 -2.6048  0.2092
  519SOL    MW4 2123   0.443   1.942   1.099  0.3638  0.2300 -0.3933
  520SOL     OW 2124   0.672   2.067   1.226 -0.0487  0.1962 -0.3181
  520SOL    HW2 2125   0.685   2.076   1.320  0.5844  1.3491 -0.5131
  520SOL    HW3 2126   0.754   2.031   1.194  0.3325  1.3280 -0.6438
  520SOL    MW4 2127   0.684   2.063   1.234  0.0852  0.4976 -0.3870
  521SOL     OW 2128   3.145   1.577   0.466  0.0889  0.4662 -0.4648
  521SOL    HW2 2129   3.141   1.609   0.556 -0.7750 -1.3432  0.1612
  521SOL    HW3 2130   3.057   1.545   0.448  0.7199 -0.8179 -1.3297
  521SOL    MW4 2131   3.133   1.577   0.476  0.0582  0.0579 -0.4963
  522SOL     OW 2132   0.872   1.666   1.215  0.1310 -0.2507  0.5414
  522SOL    HW2 2133   0.785   1.642   1.183  0.4307 -1.0136  0.2851
  522SOL    HW3 2134   0.885   1.756   1.183 -1.0426  0.3054  1.6103
  522SOL    MW4 2135   0.862   1.675   1.206  0.0157 -0.2780  0.6486
  523SOL     OW 2136   0.499   1.147   0.781  0.0192 -0.0274  0.3522
  523SOL    HW2 2137   0.413   1.144   0.740 -0.2420  0.1013  0.8759
  523SOL    HW3 2138   0.562   1.139   0.709 -0.4208  0.7022 -0.1137
  523SOL    MW4 2139   0.496   1.145   0.766 -0.0733  0.0859  0.3599
  524SOL     OW 2140   1.927   2.025   0.425 -0.1867  0.8953 -0.2614
  524SOL    HW2 2141   1.958   2.092   0.364  2.0898 -0.5721 -0.7938
  524SOL    HW3 2142   1.961   2.053   0.510 -1.7850  1.9607  0.0508
  524SOL    MW4 2143   1.936   2.038   0.428 -0.0972  0.8426 -0.2905
  525SOL     OW 2144   0.691   3.133   1.140 -0.1145  0.2572  0.4921
  525SOL    HW2 2145   0.770   3.184   1.157  0.2034  0.0890 -0.4852
  525SOL    HW3 2146   0.681   3.134   1.045 -1.8599  1.1199  0.6620
  525SOL    MW4 2147   0.700   3.140   1.130 -0.3029  0.3490  0.3855
  526SOL     OW 2148   0.458   3.216   1.243 -0.5154  0.8963 -0.2389
  526SOL    HW2 2149   0.449   3.307   1.214  0.6525  1.0930 -0.0061
  526SOL    HW3 2150   0.546   3.191   1.217  0.3332  0.8668  2.5527
  526SOL    MW4 2151   0.468   3.225   1.236 -0.2494  0.9184  0.1601
  527SOL     OW 2152   0.419   3.446   1.108  0.1622 -0.5685 -0.1019
  527SOL    HW2 2153   0.502   3.489   1.128 -0.7954  0.8781  0.7765
  527SOL    HW3 2154   0.352   3.498   1.152 -1.1652 -2.1229 -0.1993
  527SOL    MW4 2155   0.421   3.458   1.116 -0.1393 -0.5829  0.0010
  528SOL     OW 2156   0.675   3.579   1.168  0.1999 -0.2588 -0.1576
  528SOL    HW2 2157   0.684   3.566   1.263 -0.2880  1.2171  0.0986
  528SOL    HW3 2158   0.686   3.673   1.156 -0.0644 -0.4041 -1.5388
  528SOL    MW4 2159   0.677   3.590   1.179  0.1007 -0.0832 -0.3060
  529SOL     OW 2160   0.706   3.850   1.126  0.1629  0.6214 -0.1110
  529SOL    HW2 2161   0.617   3.876   1.149 -0.2572 -0.6396 -0.2580
  529SOL    HW3 2162   0.709   3.858   1.031 -0.0368 -0.0684 -0.1769
  529SOL    MW4 2163   0.694   3.855   1.116  0.0812  0.3641 -0.1391
  530SOL     OW 2164   0.454   3.993   1.163  0.1270 -0.3381  0.2893
  530SOL    HW2 2165   0.450   4.084   1.133  1.4033 -0.7273 -1.1199
  530SOL    HW3 2166   0.368   3.957   1.139  0.6082 -0.2468 -1.6720
  530SOL    MW4 2167   0.442   4.000   1.155  0.3589 -0.3772 -0.1553
  531SOL     OW 2168   0.476   4.279   1.123 -0.3779  0.1829  0.1645
  531SOL    HW2 2169   0.552   4.329   1.154 -0.1987 -0.8154  1.3409
  531SOL    HW3 2170   0.400   4.326   1.159 -0.2899  0.7212 -0.3474
  531SOL    MW4 2171   0.476   4.292   1.132 -0.3426  0.1221  0.2521
  532SOL     OW 2172   0.692   4.402   1.204  0.4838 -0.2813 -0.1015
  532SOL    HW2 2173   0.679   4.390   1.298  0.0730 -1.4933 -0.3006
  532SOL    HW3 2174   0.772   4.352   1.184  0.0020 -0.8761 -0.5645
  532SOL    MW4 2175   0.701   4.394   1.214  0.3661 -0.5198 -0.1889
  533SOL     OW 2176   1.141   4.660   1.126 -0.0979 -0.4635 -0.7707
  533SOL    HW2 2177   1.117   4.573   1.157  2.9948 -1.0711  0.0189
  533SOL    HW3 2178   1.138   4.652   1.030 -0.2860 -1.2768 -0.7029
  533SOL    MW4 2179   1.137   4.648   1.117  0.2853 -0.6510 -0.6576
  534SOL     OW 2180   0.897   0.125   1.188 -0.1199 -0.1972  0.1395
  534SOL    HW2 2181   0.896   0.128   1.284  0.3723  1.4952  0.1104
  534SOL    HW3 2182   0.986   0.095   1.167 -0.2508 -0.6409  0.1960
  534SOL    MW4 2183   0.909   0.121   1.198 -0.0722 -0.0325  0.1432
  535SOL     OW 2184   0.680   0.511   1.205 -0.6370  0.2895 -0.2181
  535SOL    HW2 2185   0.761   0.464   1.185  0.5387  1.6693  1.1969
  535SOL    HW3 2186   0.613   0.462   1.158  0.8190 -1.6290 -0.4034
  535SOL    MW4 2187   0.682   0.498   1.196 -0.2897  0.2185 -0.0558
  536SOL     OW 2188   1.130   0.529   1.228  0.0821 -0.0945  0.5406
  536SOL    HW2 2189   1.115   0.540   1.322 -0.7019  0.6605  0.3356
  536SOL    HW3 2190   1.044   0.509   1.192  0.2075  0.5571 -0.1445
  536SOL    MW4 2191   1.117   0.528   1.235 -0.0049  0.0911  0.4232
  537SOL     OW 2192   0.790   0.944   0.803  0.1541 -0.2784  0.4539
  537SOL    HW2 2193   0.865   0.891   0.827 -0.6595 -0.6943  2.0852
  537SOL    HW3 2194   0.721   0.920   0.865 -0.6768  1.6137  0.3219
  537SOL    MW4 2195   0.790   0.934   0.814 -0.0629 -0.0836  0.6517
  538SOL     OW 2196   0.889   0.856   1.156 -0.2401  0.0781 -0.1821
  538SOL    HW2 2197   0.877   0.946   1.124 -1.2478 -0.2810 -0.8401
  538SOL    HW3 2198   0.808   0.812   1.133  0.1738 -0.9593  0.3269
  538SOL    MW4 2199   0.877   0.862   1.149 -0.3185 -0.1062 -0.2019
  539SOL     OW 2200   0.864   1.130   1.068 -0.0877  0.2306  0.0627
  539SOL    HW2 2201   0.886   1.158   0.979 -0.7609 -0.0356 -0.1885
  539SOL    HW3 2202   0.931   1.171   1.123 -0.5695  1.6466 -0.3917
  539SOL    MW4 2203   0.876   1.139   1.063 -0.2400  0.3823 -0.0305
  540SOL     OW 2204   1.062   1.249   1.220  0.3975  0.4707 -0.2997
  540SOL    HW2 2205   1.083   1.255   1.313  0.7987  0.1833 -0.3676
  540SOL    HW3 2206   1.144   1.220   1.179 -0.0527 -0.3889 -0.6129
  540SOL    MW4 2207   1.076   1.246   1.227  0.3910  0.3192 -0.3499
  541SOL     OW 2208   1.136   1.497   1.133  0.0083  0.2722  0.4242
  541SOL    HW2 2209   1.111   1.407   1.154 -1.0539  0.5097  0.2088
  541SOL    HW3 2210   1.059   1.549   1.156 -0.1258  0.8741 -1.3620
  541SOL    MW4 2211   1.123   1.492   1.139 -0.1495  0.3830  0.1602
  542SOL     OW 2212   4.440   4.222   0.823 -0.0984  0.1668  0.3712
  542SOL    HW2 2213   4.454   4.223   0.918 -0.4149  0.7055  0.4159
  542SOL    HW3 2214   4.368   4.283   0.810 -1.7837 -1.8585  0.0535
  542SOL    MW4 2215   4.432   4.230   0.834 -0.3629 -0.0300  0.3352
  543SOL     OW 2216   1.457   1.628   0.829  0.0030  0.0949  0.2537
  543SOL    HW2 2217   1.545   1.639   0.866 -0.0230  0.1333  0.3029
  543SOL    HW3 2218   1.435   1.715   0.795  0.1304  0.0031 -0.0754
  543SOL    MW4 2219   1.466   1.641   0.829  0.0163  0.0879  0.2167
  544SOL     OW 2220   1.171   2.049   1.194 -0.1079  0.5381 -0.1596
  544SOL    HW2 2221   1.152   2.140   1.173  0.2451  1.0903  1.7824
  544SOL    HW3 2222   1.148   2.040   1.287 -0.2408 -1.3794 -0.3394
  544SOL    MW4 2223   1.165   2.060   1.204 -0.0789  0.3581  0.0731
  545SOL     OW 2224   2.934   0.541   0.724  0.1588 -0.0428 -0.2979
  545SOL    HW2 2225   3.013   0.489   0.744  0.5611 -0.4512 -2.8372
  545SOL    HW3 2226   2.866   0.503   0.780  1.3455 -0.8116  0.6628
  545SOL    MW4 2227   2.936   0.529   0.734  0.3684 -0.1981 -0.5062
  546SOL     OW 2228   0.893   2.480   1.184  0.2641  0.3788  0.0875
  546SOL    HW2 2229   0.881   2.465   1.277  3.6330 -0.7714  0.4257
  546SOL    HW3 2230   0.814   2.444   1.143 -1.3920  1.1790  2.4696
  546SOL    MW4 2231   0.881   2.473   1.191  0.4901  0.3326  0.4464
  547SOL     OW 2232   0.695   2.875   1.209  0.0780 -0.1183  0.0001
  547SOL    HW2 2233   0.695   2.961   1.167 -0.1927  0.0391  0.3229
  547SOL    HW3 2234   0.629   2.825   1.161 -0.0445 -0.0228  0.0712
  547SOL    MW4 2235   0.686   2.880   1.197  0.0261 -0.0851  0.0521
  548SOL     OW 2236   3.115   1.684   0.708 -0.2684 -0.0082  0.1652
  548SOL    HW2 2237   3.098   1.777   0.722 -0.6245 -0.1781  0.8432
  548SOL    HW3 2238   3.186   1.663   0.768 -1.1125 -0.4937  1.0071
  548SOL    MW4 2239   3.122   1.694   0.718 -0.4268 -0.0947  0.3657
  549SOL     OW 2240   0.444   2.092   0.403 -0.1583  0.1195  0.3181
  549SOL    HW2 2241   0.436   2.041   0.322 -1.3707  1.8715 -0.7060
  549SOL    HW3 2242   0.478   2.030   0.467 -2.5086 -2.2523 -0.6235
  549SOL    MW4 2243   0.447   2.077   0.401 -0.6284  0.0377  0.0588
  550SOL     OW 2244   1.149   3.124   1.094  0.1425  0.1692 -0.2431
  550SOL    HW2 2245   1.219   3.178   1.130 -0.3840 -0.3310  1.5809
  550SOL    HW3 2246   1.142   3.050   1.154 -1.5320 -0.0992 -0.7425
  550SOL    MW4 2247   1.157   3.121   1.107 -0.1478  0.0677 -0.0684
  551SOL     OW 2248   0.947   3.539   1.112  0.0717 -0.2953  0.5165
  551SOL    HW2 2249   0.852   3.552   1.111  0.0036 -0.8138  0.1911
  551SOL    HW3 2250   0.969   3.517   1.021  0.1680 -2.5125  1.0428
  551SOL    MW4 2251   0.937   3.538   1.100  0.0753 -0.6561  0.5430
  552SOL     OW 2252   1.163   3.668   1.233  0.0559  0.2045  0.2662
  552SOL    HW2 2253   1.076   3.637   1.209 -0.3462  2.0675 -0.7552
  552SOL    HW3 2254   1.223   3.612   1.183 -0.5945 -0.3193  0.0721
  552SOL    MW4 2255   1.160   3.657   1.223 -0.0830  0.3812  0.1059
  553SOL     OW 2256   1.167   3.921   1.120  0.5452  0.0611  0.2950
  553SOL    HW2 2257   1.078   3.938   1.150  0.2975  0.2407 -0.5358
  553SOL    HW3 2258   1.192   3.839   1.164 -0.6906 -0.9541 -0.8713
  553SOL    MW4 2259   1.159   3.913   1.130  0.3494 -0.0494  0.0315
  554SOL     OW 2260   0.920   3.986   1.219  0.0793 -0.4357  0.2716
  554SOL    HW2 2261   0.840   3.945   1.187 -1.1535  1.1811  1.2157
  554SOL    HW3 2262   0.901   4.009   1.310  1.8812 -0.6980  0.7286
  554SOL    MW4 2263   0.907   3.984   1.227  0.1544 -0.2570  0.4565
  555SOL     OW 2264   0.942   4.257   1.093  0.1009 -0.1808 -0.7739
  555SOL    HW2 2265   0.937   4.164   1.114 -0.8087  0.0533  0.0638
  555SOL    HW3 2266   0.920   4.262   1.000 -0.9849 -0.6911 -0.5537
  555SOL    MW4 2267   0.939   4.245   1.083 -0.1624 -0.2170 -0.6343
  556SOL     OW 2268   1.095   4.425   1.253 -0.3096 -0.2879  0.1324
  556SOL    HW2 2269   1.085   4.394   1.343  0.2524 -0.6415  0.0764
  556SOL    HW3 2270   1.038   4.367   1.202 -1.5958  0.7022  0.4095
  556SOL    MW4 2271   1.086   4.413   1.258 -0.4051 -0.2041  0.1615
  557SOL     OW 2272   1.308   4.329   1.107  0.6872 -0.5129 -0.6123
  557SOL    HW2 2273   1.390   4.367   1.139  0.5511  0.6736 -1.6542
  557SOL    HW3 2274   1.240   4.367   1.164  0.6339  0.2311 -1.1623
  557SOL    MW4 2275   1.309   4.339   1.119  0.6623 -0.2584 -0.8223
  558SOL     OW 2276   1.349   0.138   1.239 -0.5427 -0.5506  0.4866
  558SOL    HW2 2277   1.430   0.101   1.203 -0.2316 -1.5480  2.1131
  558SOL    HW3 2278   1.279   0.092   1.193 -0.2124  0.9664 -1.5813
  558SOL    MW4 2279   1.351   0.127   1.228 -0.4581 -0.4820  0.4286
  559SOL     OW 2280   1.570   0.509   1.188 -0.2874  0.3174  0.9932
  559SOL    HW2 2281   1.574   0.499   1.283  2.0401  0.7029  0.9637
  559SOL    HW3 2282   1.487   0.468   1.163 -1.3359  0.9847  3.2660
  559SOL    MW4 2283   1.560   0.502   1.197 -0.1186  0.4563  1.2894
  560SOL     OW 2284   1.588   0.786   1.093 -0.1732 -0.2718 -0.2151
  560SOL    HW2 2285   1.584   0.698   1.130  1.7302 -0.7952 -1.1801
  560SOL    HW3 2286   1.670   0.823   1.127 -0.3273  0.6627 -0.8254
  560SOL    MW4 2287   1.598   0.779   1.102  0.0576 -0.2176 -0.4230
  561SOL     OW 2288   3.503   0.146   0.206 -0.2087  0.0302  0.0956
  561SOL    HW2 2289   3.517   0.234   0.242  0.3070 -0.5657  1.4014
  561SOL    HW3 2290   3.529   0.153   0.115 -1.4943  1.5787 -0.1760
  561SOL    MW4 2291   3.508   0.159   0.199 -0.3102  0.1559  0.2321
  562SOL     OW 2292   1.367   0.911   1.217 -0.1881  0.2478 -0.2512
  562SOL    HW2 2293   1.445   0.876   1.173  0.1028  0.9732 -0.3265
  562SOL    HW3 2294   1.293   0.871   1.172  0.1354 -0.2308 -0.3614
  562SOL    MW4 2295   1.368   0.901   1.206 -0.1070  0.2804 -0.2757
  563SOL     OW 2296   1.312   1.191   1.142  0.0055 -0.3788 -0.0875
  563SOL    HW2 2297   1.341   1.176   1.052  0.2665  0.0364 -0.0746
  563SOL    HW3 2298   1.333   1.110   1.188 -1.0309 -0.9508 -0.6287
  563SOL    MW4 2299   1.319   1.179   1.136 -0.0968 -0.3995 -0.1572
  564SOL     OW 2300   4.257   3.134   0.238  0.2794  0.0017  0.3159
  564SOL    HW2 2301   4.293   3.137   0.149 -0.4075 -0.7324  0.0043
  564SOL    HW3 2302   4.332   3.147   0.295  1.0599 -1.6398 -0.3175
  564SOL    MW4 2303   4.271   3.136   0.234  0.2918 -0.3121  0.1913
  565SOL     OW 2304   0.963   1.311   0.557  0.2529 -0.3116  0.2985
  565SOL    HW2 2305   0.884   1.349   0.519  0.0189  1.0766  2.0954
  565SOL    HW3 2306   1.021   1.386   0.570  1.0659 -1.0372  0.8815
  565SOL    MW4 2307   0.960   1.326   0.553  0.3293 -0.2242  0.6125
  566SOL     OW 2308   1.356   1.649   1.213 -0.1306  0.2904 -0.4270
  566SOL    HW2 2309   1.361   1.728   1.159  0.4778 -0.5347 -1.6125
  566SOL    HW3 2310   1.287   1.596   1.171 -2.5493  1.3766  2.0053
  566SOL    MW4 2311   1.347   1.652   1.200 -0.3695  0.3250 -0.2625
  567SOL     OW 2312   1.593   2.017   1.197 -0.6264  0.6666  0.2934
  567SOL    HW2 2313   1.514   1.975   1.162  0.5428 -0.0229 -1.6053
  567SOL    HW3 2314   1.587   2.107   1.167 -0.2810  0.4008 -0.5987
  567SOL    MW4 2315   1.582   2.023   1.188 -0.4265  0.5405 -0.0750
  568SOL     OW 2316   1.374   1.881   1.089 -0.0339 -0.1939 -0.2661
  568SOL    HW2 2317   1.298   1.935   1.113  0.0491 -0.1552 -0.0861
  568SOL    HW3 2318   1.385   1.895   0.995  0.7218  1.0689 -0.0134
  568SOL    MW4 2319   1.366   1.890   1.080  0.0767 -0.0222 -0.2091
  569SOL     OW 2320   0.922   2.737   1.126  0.1723 -0.4152 -0.4227
  569SOL    HW2 2321   0.908   2.649   1.162 -0.8132  0.6459  1.8934
  569SOL    HW3 2322   0.848   2.788   1.159  0.0653  1.0106 -2.7676
  569SOL    MW4 2323   0.910   2.732   1.135  0.0281 -0.0873 -0.4263
  570SOL     OW 2324   1.826   2.765   0.427  0.6292 -0.0902 -0.5335
  570SOL    HW2 2325   1.832   2.806   0.341  0.0493  2.2112  0.4909
  570SOL    HW3 2326   1.908   2.787   0.470  1.1171 -1.6320 -0.6442
  570SOL    MW4 2327   1.837   2.773   0.421  0.6171  0.0100 -0.4129
  571SOL     OW 2328   2.352   2.767   0.504  0.1999  0.0688 -0.0264
  571SOL    HW2 2329   2.393   2.798   0.585  0.9275 -0.3765 -0.2229
  571SOL    HW3 2330   2.259   2.788   0.515  0.4936  1.2074  0.3584
  571SOL    MW4 2331   2.345   2.774   0.516  0.3345  0.1600 -0.0015
  572SOL     OW 2332   1.612   2.850   1.211  0.3644  0.0246  0.2914
  572SOL    HW2 2333   1.677   2.799   1.164 -0.2138 -0.1165 -0.3500
  572SOL    HW3 2334   1.530   2.803   1.199  0.2467 -0.1370  1.6222
  572SOL    MW4 2335   1.610   2.837   1.203  0.2725 -0.0155  0.3823
  573SOL     OW 2336   1.074   1.562   0.655 -0.1276  0.0509  0.0107
  573SOL    HW2 2337   1.121   1.517   0.725 -0.4217 -1.7533 -0.9376
  573SOL    HW3 2338   1.141   1.582   0.589 -0.1195  0.4284  0.1287
  573SOL    MW4 2339   1.089   1.559   0.656 -0.1653 -0.1372 -0.0989
  574SOL     OW 2340   1.345   3.524   1.061 -0.4501 -0.0069 -0.0403
  574SOL    HW2 2341   1.366   3.438   1.097 -2.6026 -0.6021 -0.1774
  574SOL    HW3 2342   1.406   3.584   1.105 -0.6505 -1.2293  1.9650
  574SOL    MW4 2343   1.356   3.521   1.071 -0.7606 -0.2468  0.2062
  575SOL     OW 2344   1.359   3.267   1.182 -0.3888  0.1243  0.1227
  575SOL    HW2 2345   1.368   3.255   1.276 -1.2786 -1.0680  0.0577
  575SOL    HW3 2346   1.420   3.204   1.144 -0.7399 -0.0757 -0.1115
  575SOL    MW4 2347   1.369   3.257   1.189 -0.5525 -0.0594  0.0832
  576SOL     OW 2348   1.549   3.673   1.192  0.2118  0.3258  0.1414
  576SOL    HW2 2349   1.550   3.760   1.154 -1.0478 -0.1503 -1.0383
  576SOL    HW3 2350   1.627   3.630   1.157  0.3716  0.7038  0.0380
  576SOL    MW4 2351   1.559   3.679   1.182  0.0668  0.3128 -0.0279
  577SOL     OW 2352   4.310   3.556   0.739 -0.1897  0.1005 -0.0959
  577SOL    HW2 2353   4.288   3.649   0.749  0.0545  0.1638 -0.1532
  577SOL    HW3 2354   4.318   3.544   0.644 -0.4212 -0.0259 -0.1007
  577SOL    MW4 2355   4.308   3.567   0.727 -0.1879  0.0923 -0.1041
  578SOL     OW 2356   1.362   4.089   1.218 -0.2510 -0.6224 -0.2545
  578SOL    HW2 2357   1.300   4.041   1.163  0.5030 -1.2259 -0.5839
  578SOL    HW3 2358   1.351   4.180   1.193 -1.0925 -0.7120 -0.2244
  578SOL    MW4 2359   1.352   4.094   1.208 -0.2625 -0.7138 -0.2940
  579SOL     OW 2360   2.822   4.482   0.506  0.3990 -0.5540 -0.7044
  579SOL    HW2 2361   2.737   4.512   0.539  2.3250  1.8369  2.4115
  579SOL    HW3 2362   2.862   4.561   0.469  2.8102 -0.7428  1.4061
  579SOL    MW4 2363   2.816   4.496   0.505  0.9711 -0.2637 -0.0148
  580SOL     OW 2364   1.790   0.825   0.477 -0.2562 -0.4063  0.5203
  580SOL    HW2 2365   1.711   0.872   0.450  0.1495 -0.2721 -0.4439
  580SOL    HW3 2366   1.778   0.736   0.444 -0.7742 -0.8578  1.8726
  580SOL    MW4 2367   1.778   0.820   0.469 -0.2708 -0.4482  0.5715
  581SOL     OW 2368   2.890   1.476   0.473  0.3048 -0.0372  0.0211
  581SOL    HW2 2369   2.818   1.537   0.463  0.4882  0.3522  0.9552
  581SOL    HW3 2370   2.849   1.389   0.474 -0.1246  0.1685  0.2763
  581SOL    MW4 2371   2.875   1.472   0.472  0.2725  0.0414  0.1780
  582SOL     OW 2372   2.251   1.744   0.446  0.2582  0.3107  0.1498
  582SOL    HW2 2373   2.253   1.715   0.537  0.9427  0.2398  0.1098
  582SOL    HW3 2374   2.291   1.831   0.448 -0.7262  0.7765  0.0842
  582SOL    MW4 2375   2.256   1.752   0.459  0.2186  0.3629  0.1358
  583SOL     OW 2376   1.800   0.367   1.120 -0.1069  0.2100 -0.1693
  583SOL    HW2 2377   1.720   0.409   1.150 -0.7871 -1.4630  0.4484
  583SOL    HW3 2378   1.796   0.371   1.024 -1.1009 -0.1595 -0.1443
  583SOL    MW4 2379   1.789   0.373   1.111 -0.3278 -0.0594 -0.0845
  584SOL     OW 2380   1.821   0.108   1.209  0.1752 -0.4476  0.8434
  584SOL    HW2 2381   1.808   0.202   1.195  0.4150 -0.6713 -0.9762
  584SOL    HW3 2382   1.740   0.067   1.177  1.0170 -1.0309 -0.5610
  584SOL    MW4 2383   1.808   0.115   1.203  0.3179 -0.5540  0.4181
  585SOL     OW 2384   2.017   0.751   1.079  0.4741 -0.1284 -0.1404
  585SOL    HW2 2385   2.016   0.660   1.107  0.5289 -0.5574 -1.4601
  585SOL    HW3 2386   2.031   0.746   0.984 -1.1890  1.1935 -0.4734
  585SOL    MW4 2387   2.019   0.739   1.070  0.2618 -0.0106 -0.3585
  586SOL     OW 2388   1.829   0.882   1.198 -0.3177 -0.0814  0.2506
  586SOL    HW2 2389   1.834   0.849   1.288  1.5525 -1.7741 -0.4479
  586SOL    HW3 2390   1.897   0.834   1.151 -0.3106  1.8196 -1.7549
  586SOL    MW4 2391   1.839   0.871   1.204 -0.0700 -0.0539 -0.1061
  587SOL     OW 2392   1.562   1.295   1.229  0.0808 -0.2117  0.0661
  587SOL    HW2 2393   1.477   1.269   1.192 -0.0490  1.5539 -0.9601
  587SOL    HW3 2394   1.552   1.283   1.323 -0.3761 -2.6199 -0.2699
  587SOL    MW4 2395   1.549   1.290   1.236  0.0035 -0.2965 -0.1137
  588SOL     OW 2396   1.970   1.277   1.239  0.9645  0.1907 -0.0669
  588SOL    HW2 2397   1.913   1.231   1.178 -0.7106  2.2221 -0.1029
  588SOL    HW3 2398   2.058   1.257   1.210  0.2462 -1.7731 -0.9516
  588SOL    MW4 2399   1.974   1.269   1.227  0.6486  0.1997 -0.1884
  589SOL     OW 2400   1.698   1.641   0.987 -0.0582 -0.4398  0.2135
  589SOL    HW2 2401   1.644   1.635   1.065  0.8365  1.5998  1.0186
  589SOL    HW3 2402   1.770   1.580   1.002 -0.3209 -0.6409  0.6395
  589SOL    MW4 2403   1.700   1.632   0.999  0.0253 -0.1973  0.3760
  590SOL     OW 2404   1.610   1.565   1.239 -0.3507  0.0796  0.1342
  590SOL    HW2 2405   1.518   1.591   1.240 -0.2813  0.3389 -0.3970
  590SOL    HW3 2406   1.607   1.470   1.228 -0.5058  0.3270 -2.0041
  590SOL    MW4 2407   1.597   1.556   1.238 -0.3620  0.1465 -0.2180
  591SOL     OW 2408   1.819   1.891   1.078 -0.0299  0.1743  0.4038
  591SOL    HW2 2409   1.802   1.805   1.038 -0.4227  0.3136  0.2663
  591SOL    HW3 2410   1.734   1.918   1.113  0.4002 -0.1177  1.6843
  591SOL    MW4 2411   1.805   1.883   1.077 -0.0250  0.1540  0.5547
  592SOL     OW 2412   2.033   2.016   1.218 -0.2521  0.3757  0.0202
  592SOL    HW2 2413   2.032   2.021   1.314  0.4919 -0.5601  0.0888
  592SOL    HW3 2414   1.952   1.970   1.196 -0.5516  0.8255  0.1916
  592SOL    MW4 2415   2.023   2.010   1.228 -0.1936  0.3116  0.0519
  593SOL     OW 2416   2.018   2.281   1.101  0.0715 -0.4352 -0.2063
  593SOL    HW2 2417   2.080   2.335   1.149 -0.4321 -0.6106  0.6590
  593SOL    HW3 2418   2.013   2.200   1.152 -1.6360 -0.0289  0.2954
  593SOL    MW4 2419   2.025   2.277   1.114 -0.2198 -0.4046 -0.0260
  594SOL     OW 2420   1.795   2.409   1.224 -0.2321 -0.4199 -0.1703
  594SOL    HW2 2421   1.872   2.357   1.200 -0.4941 -1.0056  0.2556
  594SOL    HW3 2422   1.721   2.360   1.189 -0.5960 -1.1479  1.5767
  594SOL    MW4 2423   1.795   2.396   1.216 -0.3146 -0.5934  0.1163
  595SOL     OW 2424   0.185   4.347   0.722  0.2085 -0.2802  0.1213
  595SOL    HW2 2425   0.118   4.298   0.769  0.3971 -0.7436 -0.0950
  595SOL    HW3 2426   0.176   4.437   0.754 -0.0973 -0.4663  0.5575
  595SOL    MW4 2427   0.175   4.352   0.732  0.1931 -0.3653  0.1504
  596SOL     OW 2428   1.961   3.070   1.174  0.0828  0.2936 -0.0601
  596SOL    HW2 2429   1.971   3.099   1.083  0.7952  2.8830  0.8060
  596SOL    HW3 2430   1.883   3.114   1.205 -2.2817 -3.4367 -0.4318
  596SOL    MW4 2431   1.952   3.079   1.166 -0.1352  0.1431  0.0052
  597SOL     OW 2432   1.124   2.331   1.119  0.2850  0.0352  0.4443
  597SOL    HW2 2433   1.208   2.372   1.141 -0.2334  0.2998  2.0412
  597SOL    HW3 2434   1.060   2.401   1.129 -0.2527 -0.4320  0.2905
  597SOL    MW4 2435   1.126   2.346   1.123  0.1457  0.0083  0.6347
  598SOL     OW 2436   2.760   3.956   0.829  0.2158  0.7066  0.3763
  598SOL    HW2 2437   2.825   3.948   0.760  0.4083 -0.5548  0.6979
  598SOL    HW3 2438   2.808   3.939   0.910 -0.8168 -1.8713  0.4898
  598SOL    MW4 2439   2.775   3.953   0.831  0.1049  0.2000  0.4337
  599SOL     OW 2440   0.671   3.578   0.765  0.3383 -0.6356 -0.4782
  599SOL    HW2 2441   0.666   3.665   0.806 -1.7666 -1.4866  1.1863
  599SOL    HW3 2442   0.649   3.594   0.673  0.0767  0.6274 -0.2103
  599SOL    MW4 2443   0.667   3.592   0.758  0.0261 -0.5815 -0.2232
  600SOL     OW 2444   2.108   2.303   0.390 -0.0850 -0.0237  0.0757
  600SOL    HW2 2445   2.183   2.362   0.401  1.0335 -1.6642  1.3317
  600SOL    HW3 2446   2.032   2.362   0.389  1.2456  1.7514 -2.1032
  600SOL    MW4 2447   2.108   2.319   0.391  0.2382 -0.0060 -0.0461
  601SOL     OW 2448   1.619   3.862   0.423 -0.2454 -0.2247 -0.0298
  601SOL    HW2 2449   1.527   3.843   0.405 -0.5496 -0.4012  1.5953
  601SOL    HW3 2450   1.630   3.954   0.399  0.0582 -1.0867 -3.5084
  601SOL    MW4 2451   1.608   3.871   0.417 -0.2455 -0.3617 -0.2744
  602SOL     OW 2452   2.050   3.899   1.066  0.0008 -0.1385  0.1181
  602SOL    HW2 2453   2.049   3.810   1.101 -1.7921 -0.3139 -0.3336
  602SOL    HW3 2454   1.971   3.940   1.101  0.9143  1.3586  0.4921
  602SOL    MW4 2455   2.040   3.893   1.075 -0.1152  0.0362  0.1078
  603SOL     OW 2456   1.795   4.275   1.155 -0.6202  0.0441 -0.0386
  603SOL    HW2 2457   1.803   4.184   1.182 -2.4716 -0.2598 -0.4569
  603SOL    HW3 2458   1.803   4.273   1.060 -1.5396  0.1980 -0.1270
  603SOL    MW4 2459   1.797   4.263   1.146 -0.9859  0.0238 -0.1055
  604SOL     OW 2460   2.039   4.360   1.205 -0.0711  0.2477 -0.2114
  604SOL    HW2 2461   2.037   4.366   1.300 -0.8840  2.7295 -0.3537
  604SOL    HW3 2462   1.951   4.331   1.181  0.2687 -0.8087 -0.1845
  604SOL    MW4 2463   2.027   4.357   1.214 -0.1335  0.4358 -0.2267
  605SOL     OW 2464   2.482   4.610   1.071  0.0014 -0.2996  0.1238
  605SOL    HW2 2465   2.566   4.653   1.087  0.0107  0.1178 -0.9696
  605SOL    HW3 2466   2.419   4.660   1.122  0.0546  0.8708 -0.9453
  605SOL    MW4 2467   2.484   4.622   1.080  0.0100 -0.0901 -0.1615
  606SOL     OW 2468   2.281   0.074   1.234 -0.3865 -0.5636 -0.0610
  606SOL    HW2 2469   2.282   0.169   1.222  0.5440 -0.6400 -0.7023
  606SOL    HW3 2470   2.190   0.048   1.220 -1.2326  0.5755  3.0634
  606SOL    MW4 2471   2.269   0.083   1.230 -0.3755 -0.4234  0.2666
  607SOL     OW 2472   2.015   0.501   1.199  0.5069 -0.2433  0.2199
  607SOL    HW2 2473   2.032   0.507   1.293 -0.8160 -2.0917  0.6279
  607SOL    HW3 2474   1.938   0.444   1.193  0.4025  0.0856 -1.9758
  607SOL    MW4 2475   2.007   0.494   1.210  0.3185 -0.4438 -0.0160
  608SOL     OW 2476   2.482   0.485   1.193  0.1573  0.0719  0.6016
  608SOL    HW2 2477   2.464   0.501   1.286 -0.4944  0.8948  0.3492
  608SOL    HW3 2478   2.409   0.430   1.164 -0.4991  1.1317  0.2143
  608SOL    MW4 2479   2.470   0.480   1.201 -0.0153  0.3203  0.5172
  609SOL     OW 2480   2.455   0.755   1.076 -0.7780 -0.0260 -0.3312
  609SOL    HW2 2481   2.462   0.661   1.094  1.7045 -0.1714 -1.7378
  609SOL    HW3 2482   2.444   0.760   0.981  0.2547  1.1313 -0.4021
  609SOL    MW4 2483   2.455   0.743   1.066 -0.3142  0.1075 -0.5262
  610SOL     OW 2484   2.216   0.912   1.169  0.8184  0.1788  0.2073
  610SOL    HW2 2485   2.291   0.862   1.137 -0.5034 -1.1027 -0.9175
  610SOL    HW3 2486   2.141   0.855   1.157 -0.5831  2.0374 -0.1689
  610SOL    MW4 2487   2.216   0.898   1.163  0.4594  0.2549  0.0093
  611SOL     OW 2488   2.215   1.192   1.098 -0.1750  0.0655  0.1611
  611SOL    HW2 2489   2.292   1.221   1.146 -0.0477  1.2229 -0.7022
  611SOL    HW3 2490   2.201   1.102   1.126  0.8356  0.2063  1.1480
  611SOL    MW4 2491   2.223   1.184   1.108 -0.0248  0.2369  0.1775
  612SOL     OW 2492   2.448   1.272   1.244  0.4303 -0.6673 -0.0089
  612SOL    HW2 2493   2.524   1.227   1.206  0.6362 -0.4649  0.1611
  612SOL    HW3 2494   2.450   1.359   1.205 -0.6688 -1.1885 -1.2697
  612SOL    MW4 2495   2.458   1.278   1.234  0.3126 -0.7094 -0.1528
  613SOL     OW 2496   2.446   1.526   1.129 -0.3205  0.0245  0.0605
  613SOL    HW2 2497   2.444   1.525   1.033  0.1961 -1.3602  0.0503
  613SOL    HW3 2498   2.355   1.540   1.155 -0.5289 -0.0508 -0.6215
  613SOL    MW4 2499   2.433   1.528   1.119 -0.2799 -0.1682 -0.0309
  614SOL     OW 2500   2.202   1.672   1.245  0.0790  0.0466 -0.0003
  614SOL    HW2 2501   2.119   1.642   1.208  0.5179  0.2754 -1.2031
  614SOL    HW3 2502   2.215   1.759   1.207  0.7246  0.1341  0.4065
  614SOL    MW4 2503   2.193   1.679   1.235  0.2222  0.0882 -0.1053
  615SOL     OW 2504   2.244   1.895   1.069  0.0777 -0.4467 -0.2636
  615SOL    HW2 2505   2.175   1.947   1.111  1.0881 -0.6397  1.6972
  615SOL    HW3 2506   2.224   1.900   0.976 -2.6779 -0.6207  0.2683
  615SOL    MW4 2507   2.232   1.903   1.063 -0.1526 -0.4952  0.0652
  616SOL     OW 2508   2.474   2.024   1.204 -0.7364 -0.3119  0.3256
  616SOL    HW2 2509   2.553   1.977   1.178  0.2023 -0.3874  3.1351
  616SOL    HW3 2510   2.403   1.978   1.159  0.7035 -0.8831 -1.4155
  616SOL    MW4 2511   2.475   2.012   1.195 -0.4227 -0.3972  0.4666
  617SOL     OW 2512   2.451   2.306   1.099 -0.1708  0.4322 -0.2852
  617SOL    HW2 2513   2.443   2.225   1.149 -0.5255  0.5764 -0.1072
  617SOL    HW3 2514   2.537   2.341   1.123 -0.1749  0.2975 -0.0787
  617SOL    MW4 2515   2.461   2.300   1.109 -0.2184  0.4332 -0.2345
  618SOL     OW 2516   2.228   2.437   1.192  0.4397 -0.3953  0.4548
  618SOL    HW2 2517   2.222   2.421   1.286  0.3802 -2.7374  0.0676
  618SOL    HW3 2518   2.311   2.398   1.165  0.7889  0.8636 -0.3715
  618SOL    MW4 2519   2.238   2.430   1.201  0.4778 -0.5381  0.2947
  619SOL     OW 2520   2.480   2.808   1.232 -0.1099  0.5018 -0.3396
  619SOL    HW2 2521   2.474   2.817   1.327 -0.4109 -1.1028 -0.1860
  619SOL    HW3 2522   2.394   2.777   1.206  0.2338  0.1216 -1.0362
  619SOL    MW4 2523   2.468   2.805   1.241 -0.1044  0.2401 -0.4112
  620SOL     OW 2524   2.456   3.065   1.132 -0.5145 -0.4083 -0.1123
  620SOL    HW2 2525   2.464   2.979   1.174 -2.2126 -1.2359 -1.3996
  620SOL    HW3 2526   2.383   3.108   1.178 -1.1715 -0.5896 -0.9602
  620SOL    MW4 2527   2.447   3.059   1.143 -0.8254 -0.5414 -0.3941
  621SOL     OW 2528   1.333   4.030   0.703  0.2731  0.3695  0.5962
  621SOL    HW2 2529   1.419   3.992   0.719 -0.5717 -1.2791  1.3022
  621SOL    HW3 2530   1.341   4.121   0.731  1.6783  0.1208  1.0065
  621SOL    MW4 2531   1.345   4.037   0.709  0.3471  0.1202  0.7434
  622SOL     OW 2532   2.030   3.647   1.159  0.0062  0.0079  0.6787
  622SOL    HW2 2533   2.095   3.579   1.144  0.2706  0.1654  1.1278
  622SOL    HW3 2534   2.022   3.653   1.254 -0.6298  0.0219  0.6325
  622SOL    MW4 2535   2.037   3.639   1.170 -0.0432  0.0308  0.7318
  623SOL     OW 2536   2.216   3.200   1.225 -0.3054  0.0433  0.1915
  623SOL    HW2 2537   2.221   3.286   1.184 -0.9364  0.0289  0.0725
  623SOL    HW3 2538   2.137   3.161   1.187 -0.3556 -0.3465  0.7021
  623SOL    MW4 2539   2.206   3.206   1.214 -0.3953 -0.0100  0.2431
  624SOL     OW 2540   2.469   3.602   1.153  0.5730 -0.0081 -0.0738
  624SOL    HW2 2541   2.460   3.588   1.247  0.2571  1.5510  0.1447
  624SOL    HW3 2542   2.463   3.697   1.142  2.1182 -0.0596 -1.5147
  624SOL    MW4 2543   2.467   3.613   1.164  0.7353  0.1910 -0.2351
  625SOL     OW 2544   2.494   3.853   0.834  0.4192 -0.1793 -0.3882
  625SOL    HW2 2545   2.584   3.884   0.824  0.2428  0.1609 -0.8680
  625SOL    HW3 2546   2.439   3.928   0.814 -0.0289 -1.0321 -2.4367
  625SOL    MW4 2547   2.498   3.867   0.830  0.3366 -0.2472 -0.7219
  626SOL     OW 2548   2.497   3.891   1.147  0.6008  0.6816  0.0396
  626SOL    HW2 2549   2.482   3.883   1.053 -1.6560 -0.4417  0.4634
  626SOL    HW3 2550   2.422   3.942   1.179  0.0360 -1.0694  1.5637
  626SOL    MW4 2551   2.485   3.897   1.139  0.2286  0.3023  0.2965
  627SOL     OW 2552   2.260   4.009   1.216 -0.0942 -0.1634  0.2909
  627SOL    HW2 2553   2.188   3.963   1.172 -0.6708  1.7149 -0.7840
  627SOL    HW3 2554   2.254   4.099   1.184  1.2582  0.5776  2.0475
  627SOL    MW4 2555   2.250   4.015   1.206  0.0079  0.1826  0.3808
  628SOL     OW 2556   2.498   4.385   1.232 -0.0713  0.0730 -0.2329
  628SOL    HW2 2557   2.498   4.460   1.173 -0.0711  0.6898  0.5412
  628SOL    HW3 2558   2.585   4.346   1.221 -0.2338 -0.0902 -0.9718
  628SOL    MW4 2559   2.510   4.390   1.223 -0.0925  0.1330 -0.2283
  629SOL     OW 2560   3.992   4.252   0.774 -0.2348 -0.2974 -0.1372
  629SOL    HW2 2561   3.899   4.248   0.796 -0.3928 -0.9721 -0.8954
  629SOL    HW3 2562   4.009   4.170   0.728  0.5962  0.0874 -0.5265
  629SOL    MW4 2563   3.982   4.241   0.771 -0.1462 -0.3352 -0.2886
  630SOL     OW 2564   2.693   0.125   1.185 -0.4813 -0.0485 -0.1712
  630SOL    HW2 2565   2.711   0.123   1.279 -1.2376 -0.1430 -0.0226
  630SOL    HW3 2566   2.775   0.097   1.144 -0.1379  0.0261  0.4593
  630SOL    MW4 2567   2.706   0.121   1.192 -0.5360 -0.0511 -0.0684
  631SOL     OW 2568   2.712   0.384   1.083 -0.0777 -0.3722 -0.6436
  631SOL    HW2 2569   2.709   0.296   1.122  0.4220  0.0295  0.2993
  631SOL    HW3 2570   2.639   0.430   1.124  0.7490  0.2032  0.2013
  631SOL    MW4 2571   2.702   0.378   1.093  0.0973 -0.2433 -0.4077
  632SOL     OW 2572   2.920   0.526   1.193  0.2539  0.3651 -0.2513
  632SOL    HW2 2573   2.920   0.615   1.157 -0.6851  1.4991  2.4758
  632SOL    HW3 2574   2.843   0.485   1.153 -0.6207  1.5075  0.2231
  632SOL    MW4 2575   2.910   0.533   1.183  0.0148  0.6655  0.1711
  633SOL     OW 2576   2.903   0.773   1.093 -0.6404 -0.5926  0.2768
  633SOL    HW2 2577   2.981   0.818   1.127 -0.2252 -1.3355  0.3328
  633SOL    HW3 2578   2.831   0.805   1.146 -0.3109 -0.1800  0.4780
  633SOL    MW4 2579   2.904   0.783   1.104 -0.5419 -0.6362  0.3107
  634SOL     OW 2580   2.679   0.865   1.213  0.3217 -0.6407  0.1697
  634SOL    HW2 2581   2.661   0.958   1.203  0.1818 -0.5994  0.7988
  634SOL    HW3 2582   2.607   0.822   1.166  0.0941 -0.4377  0.3310
  634SOL    MW4 2583   2.667   0.871   1.206  0.2732 -0.6084  0.2739
  635SOL     OW 2584   2.654   1.136   1.129  0.0077  0.1008  0.2023
  635SOL    HW2 2585   2.731   1.185   1.154  0.2966  0.0427 -0.5506
  635SOL    HW3 2586   2.667   1.116   1.036 -0.4707 -0.7126  0.2973
  635SOL    MW4 2587   2.666   1.140   1.120 -0.0176 -0.0142  0.1155
  636SOL     OW 2588   2.887   1.257   1.211  0.6036 -0.6975  0.2677
  636SOL    HW2 2589   2.901   1.237   1.303  1.1816  0.8607  0.5330
  636SOL    HW3 2590   2.901   1.352   1.204 -1.2374 -0.4914 -1.0808
  636SOL    MW4 2591   2.891   1.267   1.222  0.4368 -0.4647  0.1247
  637SOL     OW 2592   2.469   1.290   0.727 -0.2502 -0.2120  0.0142
  637SOL    HW2 2593   2.543   1.254   0.775  0.5257 -1.4702 -2.1007
  637SOL    HW3 2594   2.491   1.279   0.635 -2.4061  0.7584 -0.6608
  637SOL    MW4 2595   2.482   1.284   0.721 -0.4323 -0.2501 -0.3539
  638SOL     OW 2596   2.686   1.638   1.165 -0.3772 -0.4010 -0.3003
  638SOL    HW2 2597   2.762   1.581   1.151 -0.1469  0.3445 -2.3797
  638SOL    HW3 2598   2.612   1.585   1.136 -0.2685  0.0141 -1.3532
  638SOL    MW4 2599   2.686   1.624   1.159 -0.3324 -0.2480 -0.7136
  639SOL     OW 2600   2.696   1.910   1.098  0.0885 -0.3808  0.0366
  639SOL    HW2 2601   2.669   1.820   1.114  0.3356 -0.2945  0.9848
  639SOL    HW3 2602   2.713   1.914   1.004  0.1912 -1.3559  0.0060
  639SOL    MW4 2603   2.695   1.899   1.088  0.1347 -0.4981  0.1578
  640SOL     OW 2604   2.917   2.053   1.200 -0.0242 -0.1838 -0.7348
  640SOL    HW2 2605   2.919   2.062   1.295  2.4506 -0.1387 -0.7744
  640SOL    HW3 2606   2.843   1.994   1.183 -2.0930  1.7841  1.0130
  640SOL    MW4 2607   2.907   2.047   1.210  0.0296  0.0818 -0.5094
  641SOL     OW 2608   2.914   2.314   1.110  0.1385  0.0277 -0.1461
  641SOL    HW2 2609   2.910   2.223   1.139  0.1793 -0.2373 -0.9598
  641SOL    HW3 2610   3.001   2.344   1.137  0.3305 -0.3387 -0.3483
  641SOL    MW4 2611   2.925   2.306   1.118  0.1693 -0.0558 -0.2803
  642SOL     OW 2612   2.681   2.427   1.201  0.3884 -0.4971 -0.0167
  642SOL    HW2 2613   2.679   2.431   1.296 -0.5178 -1.7539  0.0362
  642SOL    HW3 2614   2.768   2.393   1.180  1.3085  1.6151  0.2563
  642SOL    MW4 2615   2.692   2.423   1.211  0.3905 -0.3841  0.0262
  643SOL     OW 2616   2.719   2.697   1.139  0.1497  0.0129 -0.3255
  643SOL    HW2 2617   2.639   2.734   1.175  0.2907  0.0137 -0.0115
  643SOL    HW3 2618   2.712   2.603   1.155  0.0679 -0.0240 -0.5788
  643SOL    MW4 2619   2.708   2.690   1.146  0.1574  0.0081 -0.3176
  644SOL     OW 2620   2.950   2.840   1.186 -0.5938 -0.7190  0.0884
  644SOL    HW2 2621   2.875   2.781   1.175 -0.5332 -0.6010 -1.0283
  644SOL    HW3 2622   2.934   2.883   1.271 -2.0292 -0.3760 -0.3261
  644SOL    MW4 2623   2.938   2.838   1.196 -0.7751 -0.6583 -0.1136
  645SOL     OW 2624   0.309   2.511   0.392  0.0881 -0.2038  0.1313
  645SOL    HW2 2625   0.390   2.461   0.397 -0.1225 -0.6683 -0.9064
  645SOL    HW3 2626   0.250   2.467   0.453 -0.0331 -1.1245 -0.6392
  645SOL    MW4 2627   0.312   2.498   0.401  0.0444 -0.3862 -0.1073
  646SOL     OW 2628   2.693   3.232   1.192  0.8739  0.1512  0.0624
  646SOL    HW2 2629   2.770   3.183   1.162  0.4741 -1.1728  1.1307
  646SOL    HW3 2630   2.619   3.188   1.150  0.6076  0.6453  0.0114
  646SOL    MW4 2631   2.693   3.220   1.183  0.7861  0.0417  0.1966
  647SOL     OW 2632   2.726   3.486   1.062  0.3853  0.0343  0.2508
  647SOL    HW2 2633   2.723   3.401   1.105  2.5202  0.0171  0.4559
  647SOL    HW3 2634   2.644   3.528   1.084 -2.5508 -3.5219 -3.1824
  647SOL    MW4 2635   2.715   3.481   1.070  0.2794 -0.4370 -0.1751
  648SOL     OW 2636   3.087   3.545   1.261  0.2573 -1.2388  0.0838
  648SOL    HW2 2637   3.179   3.569   1.249 -0.3305  0.9196 -0.1357
  648SOL    HW3 2638   3.044   3.571   1.180 -0.6530 -1.8149  0.3756
  648SOL    MW4 2639   3.093   3.551   1.249  0.0596 -1.0302  0.0933
  649SOL     OW 2640   2.959   3.620   1.033 -0.2611 -0.3079  0.8259
  649SOL    HW2 2641   2.988   3.603   0.944 -0.0110  1.6849  0.5089
  649SOL    HW3 2642   2.870   3.585   1.037  0.3438 -1.9309  0.3197
  649SOL    MW4 2643   2.951   3.613   1.022 -0.1481 -0.2592  0.7174
  650SOL     OW 2644   2.735   4.016   1.208  0.5081  0.6761  0.5415
  650SOL    HW2 2645   2.807   3.967   1.167  0.0380 -0.0821  0.6152
  650SOL    HW3 2646   2.657   3.967   1.184 -0.0094  1.6105  0.2999
  650SOL    MW4 2647   2.734   4.003   1.199  0.3777  0.6986  0.5194
  651SOL     OW 2648   2.727   4.279   1.110  0.3423  0.0185 -0.3443
  651SOL    HW2 2649   2.700   4.262   1.020  1.2910 -1.1463 -0.4205
  651SOL    HW3 2650   2.733   4.192   1.150 -1.3072  0.5836  1.2222
  651SOL    MW4 2651   2.724   4.265   1.104  0.2499 -0.0606 -0.1477
  652SOL     OW 2652   2.962   4.397   1.188 -0.3890 -0.3411 -0.1159
  652SOL    HW2 2653   3.029   4.334   1.160 -1.1431 -0.4960 -1.6370
  652SOL    HW3 2654   2.880   4.362   1.154 -0.6640  2.0769 -2.1001
  652SOL    MW4 2655   2.960   4.384   1.180 -0.5245 -0.0424 -0.5785
  653SOL     OW 2656   3.115   0.107   1.207  0.0188  0.5640 -0.0504
  653SOL    HW2 2657   3.193   0.058   1.180 -1.3072 -1.3792 -0.4197
  653SOL    HW3 2658   3.119   0.109   1.302 -0.4402 -1.1895  0.0231
  653SOL    MW4 2659   3.126   0.101   1.216 -0.2165  0.0763 -0.0894
  654SOL     OW 2660   2.910   4.660   1.084  0.4071  0.0657  0.3128
  654SOL    HW2 2661   2.912   4.567   1.105  0.1668  0.2282  1.0774
  654SOL    HW3 2662   2.990   4.695   1.123  0.9505  0.0246 -0.7470
  654SOL    MW4 2663   2.921   4.652   1.092  0.4470  0.0815  0.2739
  655SOL     OW 2664   3.118   0.350   1.069 -0.0038  0.2458  0.0223
  655SOL    HW2 2665   3.105   0.268   1.116  0.1441  0.5964  0.6920
  655SOL    HW3 2666   3.046   0.406   1.097 -1.9026 -0.6766 -2.8106
  655SOL    MW4 2667   3.107   0.347   1.079 -0.2346  0.1704 -0.2631
  656SOL     OW 2668   3.333   0.487   1.203 -0.5432 -0.3854  0.1504
  656SOL    HW2 2669   3.332   0.578   1.176  0.5686 -0.5864 -0.6130
  656SOL    HW3 2670   3.251   0.451   1.169 -1.9872  0.8142  2.2657
  656SOL    MW4 2671   3.322   0.494   1.195 -0.5870 -0.2537  0.3287
  657SOL     OW 2672   3.348   0.753   1.150 -0.2208  0.3232 -0.3677
  657SOL    HW2 2673   3.274   0.806   1.178 -1.3764 -0.7326 -1.3739
  657SOL    HW3 2674   3.346   0.758   1.055 -0.1051 -1.1991 -0.4542
  657SOL    MW4 2675   3.338   0.761   1.141 -0.3581 -0.0169 -0.5119
  658SOL     OW 2676   3.124   0.903   1.206  0.0920 -0.3798  0.1309
  658SOL    HW2 2677   3.131   0.894   1.301  1.5302  0.3483  0.1125
  658SOL    HW3 2678   3.104   0.996   1.192  2.0207 -0.0108 -0.3493
  658SOL    MW4 2679   3.122   0.914   1.217  0.5362 -0.2351  0.0652
  659SOL     OW 2680   3.131   1.163   1.116 -0.4109 -0.4041 -0.3046
  659SOL    HW2 2681   3.194   1.188   1.183  0.4195 -1.5001 -0.6692
  659SOL    HW3 2682   3.048   1.203   1.145 -0.0071 -0.6371  1.2138
  659SOL    MW4 2683   3.128   1.172   1.128 -0.2480 -0.5795 -0.1525
  660SOL     OW 2684   3.324   1.495   1.130  0.0707 -0.0604 -0.5950
  660SOL    HW2 2685   3.405   1.540   1.152 -0.1048 -0.4338  0.8641
  660SOL    HW3 2686   3.255   1.558   1.150 -0.0838 -0.3680 -0.1291
  660SOL    MW4 2687   3.325   1.509   1.136  0.0269 -0.1502 -0.3409
  661SOL     OW 2688   3.121   1.685   1.190  0.2264  0.3310 -0.7207
  661SOL    HW2 2689   3.106   1.768   1.145  1.3265  0.1335 -1.4804
  661SOL    HW3 2690   3.128   1.709   1.283 -1.3752  0.8270 -0.7050
  661SOL    MW4 2691   3.120   1.699   1.196  0.1602  0.3704 -0.8188
  662SOL     OW 2692   2.914   1.515   1.119 -0.5257  0.0737 -0.0293
  662SOL    HW2 2693   2.997   1.560   1.134  0.4662 -1.6325 -0.2706
  662SOL    HW3 2694   2.906   1.512   1.024 -0.7018 -0.0705 -0.0090
  662SOL    MW4 2695   2.924   1.521   1.108 -0.4184 -0.1704 -0.0584
  663SOL     OW 2696   3.119   1.937   1.046 -0.2265  0.1662  0.1197
  663SOL    HW2 2697   3.202   1.953   1.091 -0.3238  0.0277  0.3502
  663SOL    HW3 2698   3.053   1.982   1.100 -0.6086 -1.6675  1.2093
  663SOL    MW4 2699   3.121   1.945   1.059 -0.2897 -0.0941  0.2939
  664SOL     OW 2700   3.334   2.063   1.177  0.6755  0.1411 -0.3097
  664SOL    HW2 2701   3.395   1.993   1.154 -1.3322 -1.4012 -1.1480
  664SOL    HW3 2702   3.347   2.130   1.111  1.2879 -0.2937 -0.6328
  664SOL    MW4 2703   3.344   2.063   1.165  0.4914 -0.1199 -0.4629
  665SOL     OW 2704   1.385   3.224   0.728  0.2162 -0.7056 -0.0506
  665SOL    HW2 2705   1.357   3.217   0.637  0.9008 -0.2037 -0.3037
  665SOL    HW3 2706   1.378   3.318   0.748  0.3560 -0.7713  0.3221
  665SOL    MW4 2707   1.380   3.236   0.719  0.3251 -0.6480 -0.0348
  666SOL     OW 2708   3.103   2.454   1.495  0.2877  0.2271 -0.0958
  666SOL    HW2 2709   3.023   2.406   1.515 -0.5021  1.9417  1.0039
  666SOL    HW3 2710   3.172   2.409   1.545  0.0624 -1.3634 -1.1954
  666SOL    MW4 2711   3.102   2.442   1.504  0.1538  0.2437 -0.0957
  667SOL     OW 2712   3.161   0.161   0.669  0.1008  0.5969  0.0612
  667SOL    HW2 2713   3.091   0.116   0.718  0.3516 -0.1070 -0.2137
  667SOL    HW3 2714   3.165   0.248   0.707 -1.4457  0.8949 -0.4114
  667SOL    MW4 2715   3.152   0.166   0.681 -0.0701  0.5433 -0.0375
  668SOL     OW 2716   2.918   3.103   1.082 -0.1439 -0.3722  0.9141
  668SOL    HW2 2717   2.914   3.010   1.104 -1.1861 -0.4489  0.4533
  668SOL    HW3 2718   2.921   3.105   0.986 -1.4855  0.0908  0.8714
  668SOL    MW4 2719   2.918   3.091   1.072 -0.4585 -0.3214  0.8477
  669SOL     OW 2720   3.372   2.859   1.202 -0.2383 -0.4907 -0.1239
  669SOL    HW2 2721   3.361   2.949   1.170 -0.0370 -0.9222 -1.4154
  669SOL    HW3 2722   3.296   2.812   1.168 -0.1919 -0.8755  0.3043
  669SOL    MW4 2723   3.360   2.865   1.193 -0.2055 -0.5984 -0.2378
  670SOL     OW 2724   3.140   3.270   1.184 -0.0609 -0.0278  0.5648
  670SOL    HW2 2725   3.108   3.358   1.204 -0.6800 -0.3118  0.8298
  670SOL    HW3 2726   3.072   3.232   1.128 -0.9942 -1.2197  2.4646
  670SOL    MW4 2727   3.127   3.277   1.179 -0.2661 -0.2224  0.8503
  671SOL     OW 2728   3.359   3.614   1.173  0.4529 -0.5531 -0.2840
  671SOL    HW2 2729   3.391   3.631   1.261  0.3403 -1.2585 -0.1073
  671SOL    HW3 2730   3.418   3.547   1.139  1.0669  0.3638 -1.0828
  671SOL    MW4 2731   3.371   3.608   1.180  0.5193 -0.5252 -0.3660
  672SOL     OW 2732   3.569   3.460   1.106  0.1345 -0.4038 -0.3180
  672SOL    HW2 2733   3.649   3.502   1.138  0.4749 -2.2780  1.3786
  672SOL    HW3 2734   3.586   3.445   1.013  1.1572  0.5682 -0.3013
  672SOL    MW4 2735   3.582   3.464   1.098  0.3142 -0.5226 -0.0918
  673SOL     OW 2736   3.352   3.866   1.039  0.0261  0.2085 -0.3793
  673SOL    HW2 2737   3.348   3.782   1.085 -0.5854 -0.0363 -0.8623
  673SOL    HW3 2738   3.272   3.911   1.066 -0.0274  0.3178 -0.7244
  673SOL    MW4 2739   3.341   3.861   1.049 -0.0618  0.1907 -0.4885
  674SOL     OW 2740   3.142   3.994   1.192 -0.5768 -0.1205 -0.2138
  674SOL    HW2 2741   3.130   3.992   1.287 -1.0140 -1.5589 -0.2889
  674SOL    HW3 2742   3.155   4.087   1.171 -0.3937  0.1911  1.2564
  674SOL    MW4 2743   3.142   4.006   1.201 -0.6106 -0.2689 -0.0297
  675SOL     OW 2744   3.183   4.241   1.115 -1.0210  0.1445  0.0577
  675SOL    HW2 2745   3.249   4.285   1.168 -1.6975 -0.4626  1.4434
  675SOL    HW3 2746   3.192   4.279   1.028 -1.8389  3.3469  1.2808
  675SOL    MW4 2747   3.193   4.252   1.110 -1.2181  0.4873  0.4020
  676SOL     OW 2748   3.400   4.400   1.230  0.1633 -0.1660  0.0119
  676SOL    HW2 2749   3.460   4.353   1.172 -0.4280 -0.4540 -0.3749
  676SOL    HW3 2750   3.394   4.488   1.192 -0.5881 -0.4932 -0.6411
  676SOL    MW4 2751   3.407   4.405   1.217 -0.0138 -0.2465 -0.1253
  677SOL     OW 2752   3.819   4.666   1.121  0.4095  0.7826 -0.1791
  677SOL    HW2 2753   3.894   4.711   1.158 -0.2501  1.6678  0.1103
  677SOL    HW3 2754   3.826   4.576   1.153  1.4134  0.8266 -0.2788
  677SOL    MW4 2755   3.830   4.660   1.130  0.4549  0.9050 -0.1540
  678SOL     OW 2756   3.573   0.113   1.177 -0.6462 -0.2444 -0.5489
  678SOL    HW2 2757   3.570   0.202   1.144  0.0340 -0.1036 -0.2520
  678SOL    HW3 2758   3.660   0.081   1.152  0.2480  0.1714  1.8296
  678SOL    MW4 2759   3.584   0.120   1.170 -0.4387 -0.1710 -0.1957
  679SOL     OW 2760   3.552   0.377   1.065 -0.0193 -0.2179 -0.2387
  679SOL    HW2 2761   3.621   0.429   1.106 -1.1530  1.3271 -0.2539
  679SOL    HW3 2762   3.471   0.409   1.104 -0.9209 -0.3762 -1.9482
  679SOL    MW4 2763   3.551   0.388   1.075 -0.2880 -0.0349 -0.4662
  680SOL     OW 2764   3.796   0.465   1.188  0.4874  0.0241 -0.1917
  680SOL    HW2 2765   3.869   0.436   1.133 -0.5829  0.5727 -1.9846
  680SOL    HW3 2766   3.785   0.558   1.165 -0.0389  0.2395  0.8954
  680SOL    MW4 2767   3.804   0.474   1.177  0.2768  0.1249 -0.2848
  681SOL     OW 2768   3.792   0.750   1.120  0.4381  0.1019  0.1113
  681SOL    HW2 2769   3.867   0.804   1.145 -0.9814  1.5368  1.3322
  681SOL    HW3 2770   3.716   0.797   1.154 -0.9619 -1.7528 -0.3994
  681SOL    MW4 2771   3.792   0.763   1.127  0.0663  0.0465  0.2050
  682SOL     OW 2772   3.593   0.900   1.231  0.0617  0.1336  0.3286
  682SOL    HW2 2773   3.583   0.989   1.199 -0.4353 -0.6857 -1.9019
  682SOL    HW3 2774   3.510   0.857   1.210  0.3534 -0.9011  1.2344
  682SOL    MW4 2775   3.581   0.906   1.224  0.0348 -0.1110  0.1538
  683SOL     OW 2776   3.359   1.232   1.262  0.1710  0.2476 -0.3971
  683SOL    HW2 2777   3.334   1.315   1.221  0.3338  0.5295  0.0620
  683SOL    HW3 2778   3.354   1.250   1.356  2.2237  0.3625 -0.2865
  683SOL    MW4 2779   3.355   1.245   1.269  0.4632  0.2999 -0.3220
  684SOL     OW 2780   3.809   1.296   1.210 -0.3592  0.0015  0.0448
  684SOL    HW2 2781   3.822   1.299   1.305  1.1088  0.4155 -0.1553
  684SOL    HW3 2782   3.821   1.387   1.181 -0.3712 -0.1967 -0.5908
  684SOL    MW4 2783   3.813   1.309   1.218 -0.1669  0.0300 -0.0654
  685SOL     OW 2784   3.803   1.581   1.147 -0.0475 -0.0222  0.3290
  685SOL    HW2 2785   3.818   1.574   1.053  0.0417  0.2531  0.3235
  685SOL    HW3 2786   3.878   1.631   1.179 -0.3348  0.3097  0.4761
  685SOL    MW4 2787   3.815   1.586   1.139 -0.0737  0.0578  0.3477
  686SOL     OW 2788   3.540   1.647   1.195  0.1920 -0.0286 -0.3486
  686SOL    HW2 2789   3.552   1.734   1.156  0.0233  0.0735 -0.1737
  686SOL    HW3 2790   3.622   1.602   1.177  0.8313  0.6556  0.8096
  686SOL    MW4 2791   3.552   1.653   1.187  0.2544  0.0751 -0.1727
  687SOL     OW 2792   3.551   1.900   1.098 -0.1356 -0.1558 -0.2193
  687SOL    HW2 2793   3.617   1.946   1.151 -1.0518 -0.2943  1.0729
  687SOL    HW3 2794   3.575   1.919   1.008  1.1032  0.6066  0.2565
  687SOL    MW4 2795   3.563   1.909   1.093 -0.0932 -0.0734  0.0141
  688SOL     OW 2796   4.034   1.962   1.146  0.4509 -0.3583 -0.1790
  688SOL    HW2 2797   4.026   1.869   1.163  1.0121 -0.5112 -0.7201
  688SOL    HW3 2798   4.019   1.971   1.052 -0.9133  0.2628  0.0698
  688SOL    MW4 2799   4.031   1.951   1.136  0.3452 -0.2965 -0.2177
  689SOL     OW 2800   4.011   2.475   1.168 -0.1167 -0.1189  0.1328
  689SOL    HW2 2801   4.021   2.567   1.146  1.6735 -0.6619 -1.4226
  689SOL    HW3 2802   4.017   2.473   1.264 -1.1347  1.4610  0.2590
  689SOL    MW4 2803   4.013   2.487   1.178 -0.0148  0.0179 -0.0558
  690SOL     OW 2804   3.529   2.449   1.168 -0.0649 -0.2935  0.4040
  690SOL    HW2 2805   3.610   2.410   1.135 -1.1129 -2.1669 -0.0529
  690SOL    HW3 2806   3.544   2.460   1.262  0.4782 -1.2899  0.4426
  690SOL    MW4 2807   3.542   2.445   1.176 -0.1314 -0.6723  0.3488
  691SOL     OW 2808   0.251   3.074   0.769  0.2712  0.5298 -0.3410
  691SOL    HW2 2809   0.265   2.979   0.763  0.2580  0.5457 -0.6277
  691SOL    HW3 2810   0.255   3.093   0.863  0.7196  0.3142 -0.3158
  691SOL    MW4 2811   0.253   3.064   0.781  0.3286  0.5035 -0.3755
  692SOL     OW 2812   4.025   2.752   1.099  0.0157  0.4163 -0.1694
  692SOL    HW2 2813   3.940   2.788   1.124  0.7321  1.8267  0.2489
  692SOL    HW3 2814   4.021   2.746   1.003 -1.6682 -2.3643  0.0236
  692SOL    MW4 2815   4.013   2.756   1.089 -0.1116  0.2353 -0.0887
  693SOL     OW 2816   4.055   3.270   1.185 -0.1263  0.4356  0.0272
  693SOL    HW2 2817   4.040   3.267   1.279  2.6772 -2.7885  0.4571
  693SOL    HW3 2818   3.984   3.218   1.148  0.3565 -0.6370  0.6013
  693SOL    MW4 2819   4.044   3.263   1.192  0.3076 -0.1314  0.1596
  694SOL     OW 2820   3.551   3.219   1.210 -0.1120 -0.0559  0.3511
  694SOL    HW2 2821   3.563   3.312   1.193 -0.8447  0.1205  0.7896
  694SOL    HW3 2822   3.637   3.180   1.195 -0.0279  0.5510 -0.7490
  694SOL    MW4 2823   3.564   3.226   1.206 -0.1976  0.0477  0.2639
  695SOL     OW 2824   2.852   0.589   0.459 -0.4189  0.1888  0.3079
  695SOL    HW2 2825   2.868   0.574   0.552 -0.6166  1.4478  0.5607
  695SOL    HW3 2826   2.757   0.595   0.451 -0.3265  2.5279  0.4611
  695SOL    MW4 2827   2.842   0.588   0.470 -0.4327  0.6635  0.3615
  696SOL     OW 2828   3.790   3.599   1.169 -0.1623 -0.1871 -0.1036
  696SOL    HW2 2829   3.789   3.588   1.264  0.5241 -1.3395 -0.2176
  696SOL    HW3 2830   3.797   3.693   1.155  1.0147 -0.0942  1.0045
  696SOL    MW4 2831   3.791   3.610   1.180  0.0837 -0.3269  0.0275
  697SOL     OW 2832   3.796   3.856   1.107  0.4464  0.0592  0.1158
  697SOL    HW2 2833   3.711   3.900   1.112 -0.8222 -2.2898 -0.0641
  697SOL    HW3 2834   3.818   3.853   1.014  1.1192  1.3682  0.2256
  697SOL    MW4 2835   3.788   3.861   1.096  0.3676 -0.0780  0.1065
  698SOL     OW 2836   3.572   4.006   1.158 -0.5674  0.3139  0.5394
  698SOL    HW2 2837   3.577   3.999   1.253 -1.4015 -1.4140  0.4739
  698SOL    HW3 2838   3.493   3.958   1.134 -0.5405  0.9944 -1.0035
  698SOL    MW4 2839   3.563   3.999   1.167 -0.6738  0.1757  0.3272
  699SOL     OW 2840   3.585   4.270   1.076 -0.2755 -0.1487 -0.0381
  699SOL    HW2 2841   3.584   4.181   1.109 -0.5586 -0.4578 -0.8599
  699SOL    HW3 2842   3.648   4.269   1.004  0.2807  0.4919  0.4327
  699SOL    MW4 2843   3.593   4.258   1.071 -0.2394 -0.1049 -0.0844
  700SOL     OW 2844   3.824   4.404   1.198 -0.0269  0.5769  0.1084
  700SOL    HW2 2845   3.825   4.411   1.294 -2.7925  3.4557 -0.0226
  700SOL    HW3 2846   3.740   4.364   1.178  0.1972  0.7592 -1.2052
  700SOL    MW4 2847   3.813   4.399   1.208 -0.3622  0.9809 -0.0821
  701SOL     OW 2848   4.039   0.132   1.211  0.1066 -0.2683  0.5398
  701SOL    HW2 2849   4.109   0.067   1.201  0.9788  0.5123  1.4078
  701SOL    HW3 2850   4.019   0.131   1.305  0.9597  1.5439  0.7584
  701SOL    MW4 2851   4.046   0.123   1.222  0.3338  0.0738  0.6832
  702SOL     OW 2852   0.127   0.689   0.324  0.2774  0.0896  0.3023
  702SOL    HW2 2853   0.174   0.631   0.383 -0.4619  0.0922  0.8981
  702SOL    HW3 2854   0.098   0.762   0.379  0.9069  0.8564 -0.3680
  702SOL    MW4 2855   0.129   0.691   0.339  0.2629  0.1911  0.2925
  703SOL     OW 2856   4.040   0.379   1.081  0.1837 -0.3382  0.5193
  703SOL    HW2 2857   4.053   0.301   1.135  0.4133  0.1671  1.2073
  703SOL    HW3 2858   4.109   0.439   1.110 -0.4851  0.4155  0.5402
  703SOL    MW4 2859   4.051   0.377   1.092  0.1254 -0.1721  0.6129
  704SOL     OW 2860   4.270   0.754   0.825 -0.1641 -0.4582 -0.2481
  704SOL    HW2 2861   4.258   0.747   0.920  0.8787  0.6229 -0.0218
  704SOL    HW3 2862   4.200   0.813   0.796  1.8990  2.4648  0.4639
  704SOL    MW4 2863   4.259   0.761   0.834  0.2460  0.0700 -0.1243
  705SOL     OW 2864   2.404   4.315   0.402  0.4144 -0.1260  0.4966
  705SOL    HW2 2865   2.351   4.243   0.369 -0.4650 -0.0070  1.6295
  705SOL    HW3 2866   2.494   4.284   0.393  0.0969 -0.8442 -0.2455
  705SOL    MW4 2867   2.409   4.302   0.397  0.2565 -0.2050  0.5482
  706SOL     OW 2868   4.011   0.889   1.241  0.6968  0.5073 -0.1334
  706SOL    HW2 2869   4.040   0.891   1.332  1.6559 -0.3501 -0.4085
  706SOL    HW3 2870   4.082   0.846   1.194 -0.4572 -0.4554 -1.0413
  706SOL    MW4 2871   4.024   0.884   1.247  0.6714  0.2671 -0.2893
  707SOL     OW 2872   4.047   1.154   1.152  0.2196 -0.4105 -0.1355
  707SOL    HW2 2873   4.045   1.064   1.186  1.0172 -0.2929  0.2523
  707SOL    HW3 2874   3.959   1.188   1.168 -0.0623 -1.1028 -0.2143
  707SOL    MW4 2875   4.035   1.147   1.159  0.2875 -0.4864 -0.0947
  708SOL     OW 2876   4.240   1.336   1.195  0.1374  0.5937  0.2118
  708SOL    HW2 2877   4.258   1.329   1.289  1.5854  0.6351 -0.0511
  708SOL    HW3 2878   4.166   1.276   1.180 -0.5239  1.0797  1.4765
  708SOL    MW4 2879   4.232   1.327   1.205  0.2418  0.6633  0.3440
  709SOL     OW 2880   1.942   0.659   0.225  0.4291 -0.2209  0.2383
  709SOL    HW2 2881   1.881   0.619   0.287  1.0855 -1.2575  0.2322
  709SOL    HW3 2882   1.989   0.725   0.277  0.2757 -0.3910  0.5942
  709SOL    MW4 2883   1.940   0.662   0.240  0.4953 -0.3801  0.2844
  710SOL     OW 2884   4.034   1.700   1.226 -0.5473  0.0291  0.2570
  710SOL    HW2 2885   4.050   1.690   1.320  0.1002  0.4422  0.1961
  710SOL    HW3 2886   4.119   1.684   1.185 -0.9533 -0.7410 -0.3091
  710SOL    MW4 2887   4.047   1.696   1.233 -0.5150 -0.0180  0.1745
  711SOL     OW 2888   0.132   1.509   0.768 -0.1634 -0.1221  0.1865
  711SOL    HW2 2889   0.149   1.519   0.861 -0.6249 -0.3321  0.2926
  711SOL    HW3 2890   0.071   1.579   0.746  0.5976  0.4441 -0.1329
  711SOL    MW4 2891   0.126   1.519   0.777 -0.1239 -0.0751  0.1584
  712SOL     OW 2892   4.288   2.101   1.228 -0.1447  0.4283 -0.7799
  712SOL    HW2 2893   4.273   2.192   1.203 -1.2124  0.3285 -0.5177
  712SOL    HW3 2894   4.213   2.054   1.193  1.2090 -0.6147 -2.3131
  712SOL    MW4 2895   4.276   2.107   1.220 -0.1078  0.2775 -0.9475
  713SOL     OW 2896   0.019   2.444   1.216 -0.3898 -0.2925 -0.2414
  713SOL    HW2 2897  -0.072   2.439   1.185 -0.5919  2.5613 -0.2869
  713SOL    HW3 2898   0.011   2.459   1.310  0.1093 -2.6748  0.1983
  713SOL    MW4 2899   0.006   2.445   1.224 -0.3505 -0.2303 -0.1894
  714SOL     OW 2900   0.169   1.543   1.048  0.5025 -0.5953  0.4270
  714SOL    HW2 2901   0.248   1.580   1.086  0.8049 -2.4282  1.6264
  714SOL    HW3 2902   0.161   1.457   1.088 -1.8338 -0.6332 -0.0603
  714SOL    MW4 2903   0.178   1.536   1.058  0.2341 -0.8421  0.5209
  715SOL     OW 2904   2.918   3.923   0.610 -0.4787  0.2309  0.3677
  715SOL    HW2 2905   2.916   3.959   0.521 -0.4326  0.3960  0.4338
  715SOL    HW3 2906   3.004   3.947   0.644  0.1224 -1.1592 -0.0919
  715SOL    MW4 2907   2.929   3.931   0.603 -0.3934  0.0691  0.3157
  716SOL     OW 2908   4.268   2.866   1.143 -0.3767 -0.0654 -0.0147
  716SOL    HW2 2909   4.256   2.958   1.121  0.4394 -0.5247 -2.5193
  716SOL    HW3 2910   4.189   2.823   1.109 -1.1092 -0.1927  1.8203
  716SOL    MW4 2911   4.256   2.872   1.135 -0.3662 -0.1428 -0.1030
  717SOL     OW 2912   4.290   3.163   1.072 -0.1400 -0.3754 -0.2811
  717SOL    HW2 2913   4.204   3.197   1.097  0.7910  0.8077  1.3871
  717SOL    HW3 2914   4.278   3.134   0.981 -2.1365  0.3216 -0.2789
  717SOL    MW4 2915   4.277   3.164   1.063 -0.2799 -0.1273 -0.0606
  718SOL     OW 2916   3.805   3.126   1.139 -0.2535 -0.0642 -0.2423
  718SOL    HW2 2917   3.784   3.040   1.176 -0.2892 -0.3947 -1.0056
  718SOL    HW3 2918   3.798   3.113   1.044 -1.1831  1.0269 -0.3301
  718SOL    MW4 2919   3.801   3.113   1.131 -0.3808  0.0360 -0.3545
  719SOL     OW 2920   4.047   3.514   1.082 -0.0613 -0.0942  0.0899
  719SOL    HW2 2921   4.052   3.428   1.122 -1.2987 -0.6107 -0.8415
  719SOL    HW3 2922   3.960   3.547   1.107 -0.5450 -0.1161 -1.5152
  719SOL    MW4 2923   4.036   3.507   1.091 -0.2885 -0.1655 -0.2449
  720SOL     OW 2924   4.297   3.613   1.179  0.0067  0.2782 -0.4748
  720SOL    HW2 2925   4.218   3.563   1.156  0.5734 -0.7702 -0.1669
  720SOL    HW3 2926   4.369   3.560   1.147  0.6520  0.5169  0.5480
  720SOL    MW4 2927   4.296   3.600   1.172  0.1664  0.1712 -0.2992
  721SOL     OW 2928   4.278   3.863   1.054  0.1841  0.5161 -0.1807
  721SOL    HW2 2929   4.291   3.778   1.097 -0.3019  0.3126 -0.4186
  721SOL    HW3 2930   4.199   3.898   1.095  1.4097  1.6920  1.2030
  721SOL    MW4 2931   4.269   3.856   1.065  0.2818  0.6444 -0.0294
  722SOL     OW 2932   4.043   3.991   1.147 -0.4601  0.1474 -0.2803
  722SOL    HW2 2933   4.032   4.080   1.114 -0.2868  0.2191 -0.1472
  722SOL    HW3 2934   3.955   3.955   1.148 -0.4181 -0.0055 -1.2385
  722SOL    MW4 2935   4.030   3.998   1.143 -0.4311  0.1369 -0.3892
  723SOL     OW 2936   4.023   4.241   1.059 -0.1817 -0.0569  0.0958
  723SOL    HW2 2937   3.955   4.300   1.092 -1.0537 -0.5060 -0.8890
  723SOL    HW3 2938   4.017   4.247   0.964  0.5969 -0.7480 -0.0107
  723SOL    MW4 2939   4.014   4.250   1.051 -0.1941 -0.2074 -0.0482
  724SOL     OW 2940   4.245   4.372   1.214 -0.0609 -0.5131  0.1336
  724SOL    HW2 2941   4.178   4.321   1.168  0.0281 -1.5580  1.1521
  724SOL    HW3 2942   4.325   4.357   1.163 -0.1545 -0.9561  0.1155
  724SOL    MW4 2943   4.247   4.363   1.201 -0.0606 -0.7095  0.2656
  725SOL     OW 2944   0.168   4.641   1.597  0.2311 -0.0926 -0.4517
  725SOL    HW2 2945   0.249   4.673   1.556  0.6433  0.7058  0.9616
  725SOL    HW3 2946   0.100   4.702   1.566  0.4837  0.3214 -0.1986
  725SOL    MW4 2947   0.170   4.653   1.587  0.3188  0.0677 -0.2317
  726SOL     OW 2948   4.477   0.147   1.512 -0.0656 -0.3758 -0.2752
  726SOL    HW2 2949   4.401   0.098   1.544  0.4607 -0.0678  1.5083
  726SOL    HW3 2950   4.485   0.122   1.420 -2.4516 -0.2370 -0.5545
  726SOL    MW4 2951   4.468   0.137   1.504 -0.3109 -0.3168 -0.0768
  727SOL     OW 2952   0.014   0.409   1.569 -0.1172  0.2502 -0.2581
  727SOL    HW2 2953   0.001   0.399   1.663  1.6580  0.1066 -0.0174
  727SOL    HW3 2954   0.028   0.320   1.537  2.0283  0.5491 -0.2187
  727SOL    MW4 2955   0.014   0.396   1.577  0.4001  0.2707 -0.2210
  728SOL     OW 2956   0.237   0.534   1.469  0.0230  0.0695  0.3898
  728SOL    HW2 2957   0.156   0.493   1.498  0.6632 -1.3128  0.2268
  728SOL    HW3 2958   0.229   0.539   1.374  0.5717 -1.0103  0.2854
  728SOL    MW4 2959   0.225   0.530   1.460  0.1798 -0.2554  0.3543
  729SOL     OW 2960   0.213   0.793   1.578 -0.6082  0.3198 -0.4466
  729SOL    HW2 2961   0.284   0.844   1.538  0.6006 -0.1058  1.1315
  729SOL    HW3 2962   0.227   0.704   1.547 -0.5191  0.2509 -0.2034
  729SOL    MW4 2963   0.224   0.788   1.569 -0.4369  0.2546 -0.2064
  730SOL     OW 2964   4.451   0.869   1.485 -0.3152 -0.4061  0.3614
  730SOL    HW2 2965   4.455   0.961   1.510  0.9049  0.4882 -2.8613
  730SOL    HW3 2966   4.538   0.835   1.503  0.3210  0.0345 -1.6805
  730SOL    MW4 2967   4.463   0.877   1.490 -0.0701 -0.2300 -0.3332
  731SOL     OW 2968   4.468   1.132   1.580 -0.1829 -0.2076 -0.7098
  731SOL    HW2 2969   4.486   1.124   1.673 -0.1863 -3.1783 -0.9004
  731SOL    HW3 2970   4.543   1.181   1.545  0.0255  0.5590  0.7637
  731SOL    MW4 2971   4.480   1.137   1.587 -0.1559 -0.4984 -0.5405
  732SOL     OW 2972   0.228   1.305   1.501  0.1040  0.1898 -0.4355
  732SOL    HW2 2973   0.207   1.397   1.517 -0.7867  0.1989 -1.6006
  732SOL    HW3 2974   0.215   1.293   1.407 -0.9495 -1.4278 -0.1104
  732SOL    MW4 2975   0.224   1.315   1.491 -0.1525 -0.0224 -0.5463
  733SOL     OW 2976   0.231   1.575   1.603  0.1778  0.2995  0.0235
  733SOL    HW2 2977   0.222   1.562   1.698 -0.9858 -0.1532 -0.1350
  733SOL    HW3 2978   0.154   1.627   1.579 -0.4747 -1.0697 -0.9410
  733SOL    MW4 2979   0.220   1.580   1.612 -0.0618  0.0590 -0.1246
  734SOL     OW 2980   4.477   1.674   1.514 -0.2767 -0.1103 -0.2648
  734SOL    HW2 2981   4.468   1.764   1.543  1.7228 -0.0354  0.1654
  734SOL    HW3 2982   4.479   1.679   1.418 -0.3770  0.2795 -0.2458
  734SOL    MW4 2983   4.476   1.686   1.505 -0.0262 -0.0490 -0.2056
  735SOL     OW 2984   4.474   1.947   1.570 -0.2986  0.0375  0.0827
  735SOL    HW2 2985   4.475   1.964   1.664 -0.0868 -1.9703  0.4800
  735SOL    HW3 2986   4.400   1.998   1.537  0.1354  1.3942  1.2030
  735SOL    MW4 2987   4.464   1.956   1.578 -0.2136 -0.0485  0.2829
  736SOL     OW 2988   0.211   2.065   1.483 -0.0545  0.4908  0.0492
  736SOL    HW2 2989   0.133   2.017   1.512  0.4009  0.5389  1.3840
  736SOL    HW3 2990   0.206   2.063   1.387 -0.7370 -1.0706  0.1015
  736SOL    MW4 2991   0.200   2.058   1.474 -0.0845  0.2911  0.2322
  737SOL     OW 2992   0.221   2.325   1.554  0.4357 -0.1315 -0.0833
  737SOL    HW2 2993   0.209   2.310   1.648  1.1071 -0.3813 -0.0326
  737SOL    HW3 2994   0.220   2.237   1.516 -1.2836  0.0410 -0.5009
  737SOL    MW4 2995   0.219   2.311   1.561  0.2974 -0.1419 -0.1317
  738SOL     OW 2996   4.484   2.469   1.483  0.1872 -0.7048  0.2640
  738SOL    HW2 2997   4.408   2.432   1.527 -0.4496 -0.2676 -0.4668
  738SOL    HW3 2998   4.557   2.414   1.512 -0.2912 -0.7176  1.4840
  738SOL    MW4 2999   4.484   2.457   1.493  0.0401 -0.6487  0.3285
  739SOL     OW 3000   4.488   2.732   1.546 -0.1143 -0.1060  0.1222
  739SOL    HW2 3001   4.401   2.741   1.508 -0.1028 -0.9300 -0.1279
  739SOL    HW3 3002   4.512   2.640   1.528  0.8257  0.1323  0.1268
  739SOL    MW4 3003   4.480   2.721   1.539  0.0110 -0.1833  0.0898
  740SOL     OW 3004   0.238   2.813   1.426 -0.0173 -0.4416 -0.2750
  740SOL    HW2 3005   0.309   2.757   1.457 -0.8101 -1.3752 -0.0844
  740SOL    HW3 3006   0.164   2.791   1.483 -0.5074  0.3822 -0.5854
  740SOL    MW4 3007   0.238   2.802   1.437 -0.1866 -0.4559 -0.2908
  741SOL     OW 3008   0.248   3.086   1.548  0.0141  0.2511  0.1288
  741SOL    HW2 3009   0.168   3.134   1.529  0.2056  0.0916 -1.1571
  741SOL    HW3 3010   0.242   3.006   1.495  0.4520 -0.3533  0.9728
  741SOL    MW4 3011   0.237   3.082   1.539  0.0971  0.1502  0.0705
  742SOL     OW 3012   0.004   3.186   1.494 -0.3828 -0.0843 -0.0410
  742SOL    HW2 3013   0.006   3.277   1.522 -0.0592 -0.2808  0.5816
  742SOL    HW3 3014   0.035   3.188   1.403 -1.6468  0.5812 -0.4660
  742SOL    MW4 3015   0.008   3.198   1.486 -0.5069 -0.0224 -0.0149
  743SOL     OW 3016   4.472   3.472   1.556  0.2396 -0.4602 -0.1951
  743SOL    HW2 3017   4.462   3.502   1.646 -0.5922 -2.2680  0.3389
  743SOL    HW3 3018   4.398   3.510   1.509  0.6081  0.3835 -0.1062
  743SOL    MW4 3019   4.461   3.481   1.561  0.1788 -0.5875 -0.1129
  744SOL     OW 3020   0.225   3.607   1.495  0.0173 -0.0586  0.3746
  744SOL    HW2 3021   0.188   3.691   1.519  0.7395  1.2528 -2.7841
  744SOL    HW3 3022   0.154   3.544   1.506 -1.3284  1.4218  0.2235
  744SOL    MW4 3023   0.211   3.610   1.499 -0.0649  0.3099 -0.0622
  745SOL     OW 3024   0.172   3.859   1.565  0.2534  0.1703 -0.1799
  745SOL    HW2 3025   0.202   3.873   1.655  0.7224  1.1880 -0.4894
  745SOL    HW3 3026   0.241   3.896   1.510  0.5268 -1.5206 -0.9993
  745SOL    MW4 3027   0.185   3.865   1.570  0.3514  0.0815 -0.3287
  746SOL     OW 3028   4.439   4.004   1.459 -0.2348 -0.6557  0.2376
  746SOL    HW2 3029   4.438   4.097   1.481  0.9952 -0.0430 -2.0560
  746SOL    HW3 3030   4.502   3.965   1.519 -0.2265  0.1182  0.7327
  746SOL    MW4 3031   4.447   4.011   1.470 -0.0715 -0.4725  0.0002
  747SOL     OW 3032   4.425   4.258   1.581 -0.3866 -0.0001  0.2568
  747SOL    HW2 3033   4.414   4.279   1.674  0.5063  0.5039  0.2539
  747SOL    HW3 3034   4.358   4.310   1.536 -0.5285  0.0981  0.5817
  747SOL    MW4 3035   4.415   4.268   1.587 -0.2875  0.0796  0.2993
  748SOL     OW 3036   0.135   4.402   1.455  0.1540  0.1316  0.2342
  748SOL    HW2 3037   0.064   4.352   1.496  0.8622 -0.5868  0.5836
  748SOL    HW3 3038   0.136   4.485   1.503 -0.8170  0.3809 -0.1468
  748SOL    MW4 3039   0.126   4.406   1.466  0.1193  0.0691  0.2302
  749SOL     OW 3040   0.674   0.004   1.587 -0.5212  0.0995 -0.1177
  749SOL    HW2 3041   0.751   0.043   1.547 -0.1697 -2.7114 -2.2608
  749SOL    HW3 3042   0.600   0.051   1.547 -0.0064  1.2728  0.2969
  749SOL    MW4 3043   0.674   0.016   1.577 -0.4069 -0.1173 -0.3457
  750SOL     OW 3044   0.401   0.085   1.499  0.3162  0.1626 -0.3463
  750SOL    HW2 3045   0.406   0.176   1.530  2.0962  0.3699 -1.2006
  750SOL    HW3 3046   0.398   0.092   1.404 -1.1458 -0.6343 -0.3708
  750SOL    MW4 3047   0.402   0.098   1.491  0.3582  0.0848 -0.4624
  751SOL     OW 3048   0.439   0.360   1.548  0.1419 -0.0788 -0.0923
  751SOL    HW2 3049   0.523   0.400   1.527  0.5576 -0.3124  1.0972
  751SOL    HW3 3050   0.375   0.429   1.531  0.7135  0.6045  0.5002
  751SOL    MW4 3051   0.442   0.374   1.543  0.2721 -0.0194  0.1428
  752SOL     OW 3052   0.685   0.486   1.485  0.6850 -0.0074  0.0481
  752SOL    HW2 3053   0.678   0.579   1.506  0.1385 -0.0636  0.1226
  752SOL    HW3 3054   0.674   0.482   1.390  0.4728 -0.0228  0.0745
  752SOL    MW4 3055   0.683   0.498   1.476  0.5850 -0.0168  0.0614
  753SOL     OW 3056   0.663   0.761   1.556  0.1935 -0.2042 -0.3195
  753SOL    HW2 3057   0.656   0.766   1.652  1.4299  0.5407 -0.2569
  753SOL    HW3 3058   0.750   0.795   1.537 -0.1968  0.0102 -1.7472
  753SOL    MW4 3059   0.674   0.767   1.566  0.3051 -0.0775 -0.4996
  754SOL     OW 3060   0.431   0.912   1.462  0.4765  0.5677 -0.1003
  754SOL    HW2 3061   0.445   1.002   1.492  1.9051  0.5100 -0.5659
  754SOL    HW3 3062   0.510   0.865   1.489  0.1921 -0.3121 -0.7692
  754SOL    MW4 3063   0.443   0.918   1.470  0.6275  0.4440 -0.2500
  755SOL     OW 3064   0.431   1.156   1.621 -0.0089  0.6039  0.3332
  755SOL    HW2 3065   0.510   1.199   1.590 -0.6136  0.0145 -2.1313
  755SOL    HW3 3066   0.359   1.212   1.590 -0.6251  0.1465  0.9121
  755SOL    MW4 3067   0.432   1.169   1.613 -0.1700  0.4660  0.0844
  756SOL     OW 3068   0.643   1.283   1.499 -0.1456  0.3794  0.3054
  756SOL    HW2 3069   0.638   1.372   1.533 -1.8702  0.7829 -0.9150
  756SOL    HW3 3070   0.642   1.294   1.404 -0.7521 -0.9575  0.1496
  756SOL    MW4 3071   0.642   1.296   1.491 -0.4531  0.2562  0.1237
  757SOL     OW 3072   0.627   1.549   1.574  0.0181  0.0133 -0.0272
  757SOL    HW2 3073   0.711   1.586   1.546  0.5881  0.1720  1.7979
  757SOL    HW3 3074   0.562   1.611   1.542  0.8297  1.5363  1.1978
  757SOL    MW4 3075   0.630   1.562   1.566  0.2004  0.2352  0.3752
  758SOL     OW 3076   0.426   1.700   1.455 -0.3596  0.0030  0.2970
  758SOL    HW2 3077   0.442   1.778   1.508  0.0910 -0.3998  0.7695
  758SOL    HW3 3078   0.362   1.649   1.504  0.5793 -0.7043  0.8126
  758SOL    MW4 3079   0.420   1.703   1.468 -0.1763 -0.1434  0.4274
  759SOL     OW 3080   0.448   1.943   1.590  0.1173  0.3473  0.4579
  759SOL    HW2 3081   0.452   1.951   1.685  0.3573  0.9112  0.4018
  759SOL    HW3 3082   0.369   1.991   1.565 -1.1685 -1.6490  0.5674
  759SOL    MW4 3083   0.438   1.950   1.599 -0.0207  0.1583  0.4649
  760SOL     OW 3084   0.667   2.068   1.490  0.5473 -0.0118  0.1181
  760SOL    HW2 3085   0.729   2.004   1.525 -0.2426 -0.7610  0.1869
  760SOL    HW3 3086   0.581   2.033   1.515  0.1335  1.5078  0.8715
  760SOL    MW4 3087   0.664   2.055   1.498  0.3885  0.0899  0.2266
  761SOL     OW 3088   0.675   2.334   1.565  0.4300 -0.0336 -0.0269
  761SOL    HW2 3089   0.597   2.364   1.518  1.0913  0.1002 -1.0531
  761SOL    HW3 3090   0.682   2.242   1.541  0.0331 -0.3014  0.8538
  761SOL    MW4 3091   0.665   2.326   1.555  0.4649 -0.0513 -0.0464
  762SOL     OW 3092   0.457   2.432   1.448  0.2972 -0.2430  0.0988
  762SOL    HW2 3093   0.451   2.523   1.477 -0.3457 -0.2439 -0.0303
  762SOL    HW3 3094   0.377   2.391   1.480  0.8434 -0.8967  0.6161
  762SOL    MW4 3095   0.446   2.439   1.456  0.2844 -0.3297  0.1500
  763SOL     OW 3096   0.456   2.695   1.549  0.2810 -0.0547  0.1124
  763SOL    HW2 3097   0.441   2.697   1.644  1.2397  0.8568  0.2608
  763SOL    HW3 3098   0.521   2.764   1.534 -0.7502  0.6124 -1.3760
  763SOL    MW4 3099   0.463   2.704   1.560  0.2714  0.1538 -0.0644
  764SOL     OW 3100   0.677   2.884   1.484 -0.0202 -0.3113  0.3969
  764SOL    HW2 3101   0.679   2.977   1.506 -0.0732 -0.1024 -0.4773
  764SOL    HW3 3102   0.678   2.881   1.389 -1.1683 -1.1780  0.3910
  764SOL    MW4 3103   0.677   2.896   1.474 -0.1786 -0.3979  0.2807
  765SOL     OW 3104   0.699   3.135   1.575 -0.4700 -0.2951 -0.2318
  765SOL    HW2 3105   0.775   3.182   1.541 -0.4364  0.4134  0.8064
  765SOL    HW3 3106   0.624   3.192   1.556 -0.5517 -0.2748  0.1573
  765SOL    MW4 3107   0.699   3.148   1.568 -0.4763 -0.1986 -0.0435
  766SOL     OW 3108   0.470   3.254   1.507  0.5649 -0.3509  0.6346
  766SOL    HW2 3109   0.404   3.187   1.524  0.7006 -0.9480 -1.1154
  766SOL    HW3 3110   0.486   3.248   1.413  0.4762  2.2258  0.4217
  766SOL    MW4 3111   0.463   3.244   1.496  0.5711 -0.0899  0.3756
  767SOL     OW 3112   0.455   3.502   1.617  0.2383  0.1783  0.0221
  767SOL    HW2 3113   0.454   3.409   1.595 -3.3289  0.2261 -0.4023
  767SOL    HW3 3114   0.382   3.539   1.567  1.0381  3.0390  0.8683
  767SOL    MW4 3115   0.445   3.495   1.608 -0.1268  0.5622  0.0777
  768SOL     OW 3116   0.655   3.580   1.465 -0.2755 -0.7017 -0.7094
  768SOL    HW2 3117   0.724   3.542   1.519 -0.3297 -0.0555 -0.1861
  768SOL    HW3 3118   0.574   3.564   1.513  0.0029  2.7662  1.0526
  768SOL    MW4 3119   0.653   3.573   1.478 -0.2459 -0.1585 -0.4078
  769SOL     OW 3120   0.628   3.849   1.502  0.1927 -0.3495  0.6302
  769SOL    HW2 3121   0.710   3.893   1.479  1.4117 -0.8284  3.6771
  769SOL    HW3 3122   0.646   3.756   1.486 -0.0861 -0.3650  0.4073
  769SOL    MW4 3123   0.642   3.843   1.497  0.3167 -0.4148  1.0027
  770SOL     OW 3124   0.376   3.996   1.431 -0.2739  0.3336 -0.3957
  770SOL    HW2 3125   0.460   3.952   1.448  0.2521  1.7264  0.6844
  770SOL    HW3 3126   0.379   4.015   1.337  0.4445  0.0113 -0.4485
  770SOL    MW4 3127   0.388   3.993   1.420 -0.1097  0.4747 -0.2601
  771SOL     OW 3128   0.359   4.280   1.568  0.4530 -0.3056  0.3138
  771SOL    HW2 3129   0.348   4.194   1.526 -1.0518 -0.6272  1.3540
  771SOL    HW3 3130   0.275   4.324   1.556  0.5238  0.2088  1.5943
  771SOL    MW4 3131   0.347   4.274   1.561  0.2638 -0.2804  0.6200
  772SOL     OW 3132   0.612   4.415   1.481  0.1003  0.1443  0.3304
  772SOL    HW2 3133   0.521   4.389   1.494  0.8761 -1.8754  2.0642
  772SOL    HW3 3134   0.619   4.499   1.526 -0.8535  0.1734  0.4341
  772SOL    MW4 3135   0.601   4.423   1.489  0.0768 -0.1183  0.5728
  773SOL     OW 3136   1.091   4.613   1.593  0.0626  0.2905 -0.0677
  773SOL    HW2 3137   1.099   4.627   1.687 -1.5965 -2.0888  0.4830
  773SOL    HW3 3138   1.164   4.661   1.555 -0.1298  2.5710  2.2943
  773SOL    MW4 3139   1.102   4.621   1.600 -0.1817  0.2775  0.3165
  774SOL     OW 3140   0.900   0.125   1.464 -0.3881 -0.4480  0.6151
  774SOL    HW2 3141   0.894   0.206   1.514  0.4419  1.0076 -1.5472
  774SOL    HW3 3142   0.972   0.076   1.504  0.3745  0.7706  0.7377
  774SOL    MW4 3143   0.909   0.129   1.476 -0.1780 -0.0951  0.3461
  775SOL     OW 3144   0.896   0.355   1.612  0.1181  0.0854 -0.3326
  775SOL    HW2 3145   0.895   0.371   1.706  0.0550  0.5179 -0.4034
  775SOL    HW3 3146   0.825   0.410   1.578  0.6882  0.5777 -0.7309
  775SOL    MW4 3147   0.886   0.365   1.620  0.1850  0.2075 -0.3946
  776SOL     OW 3148   1.085   0.505   1.488 -0.4368 -0.2123 -0.6661
  776SOL    HW2 3149   1.020   0.448   1.528 -1.2777 -0.0876 -1.8189
  776SOL    HW3 3150   1.072   0.590   1.529 -1.2614 -0.0971 -1.1471
  776SOL    MW4 3151   1.075   0.509   1.498 -0.6566 -0.1807 -0.8818
  777SOL     OW 3152   1.122   0.787   1.573  0.3464 -0.0305  0.1740
  777SOL    HW2 3153   1.133   0.792   1.668  0.9531 -0.9146  0.1648
  777SOL    HW3 3154   1.208   0.810   1.538  0.5325 -1.1051 -0.1044
  777SOL    MW4 3155   1.135   0.790   1.581  0.4511 -0.2889  0.1360
  778SOL     OW 3156   0.881   0.893   1.435  0.4505 -0.2289 -0.1111
  778SOL    HW2 3157   0.967   0.877   1.473  0.5006  0.4600  0.0609
  778SOL    HW3 3158   0.894   0.886   1.341  0.8263  0.5471 -0.1135
  778SOL    MW4 3159   0.894   0.890   1.428  0.5067 -0.0357 -0.0887
  779SOL     OW 3160   0.868   1.122   1.570  0.8303 -0.5719  0.3036
  779SOL    HW2 3161   0.854   1.043   1.517  0.3212 -0.8834  0.8865
  779SOL    HW3 3162   0.800   1.182   1.540 -0.0521 -1.0862  1.2322
  779SOL    MW4 3163   0.857   1.119   1.559  0.6467 -0.6808  0.5029
  780SOL     OW 3164   1.109   1.261   1.513 -0.0306  0.2070  0.7228
  780SOL    HW2 3165   1.185   1.228   1.561  0.1973 -1.0519 -0.4599
  780SOL    HW3 3166   1.035   1.214   1.551  0.2454 -1.4111 -0.6746
  780SOL    MW4 3167   1.109   1.250   1.524  0.0359 -0.1724  0.3824
  781SOL     OW 3168   1.087   1.511   1.599  0.5035 -0.0306 -0.2016
  781SOL    HW2 3169   1.151   1.568   1.556 -0.5946  2.1267  0.9341
  781SOL    HW3 3170   1.106   1.424   1.565  2.7112  0.8865 -1.4343
  781SOL    MW4 3171   1.097   1.507   1.588  0.6497  0.3752 -0.2146
  782SOL     OW 3172   0.863   1.657   1.489 -0.2345 -0.4984  0.2926
  782SOL    HW2 3173   0.938   1.604   1.517  0.0534 -0.0841  0.3167
  782SOL    HW3 3174   0.861   1.647   1.394  0.2293 -0.0188  0.2303
  782SOL    MW4 3175   0.873   1.649   1.480 -0.1352 -0.3804  0.2877
  783SOL     OW 3176   0.871   1.913   1.589  0.0959  0.4273  0.4527
  783SOL    HW2 3177   0.946   1.958   1.551 -0.2724 -0.4401 -1.3430
  783SOL    HW3 3178   0.873   1.825   1.550 -2.4253  0.7115 -0.4222
  783SOL    MW4 3179   0.881   1.907   1.579 -0.2853  0.3505  0.1004
  784SOL     OW 3180   1.076   2.049   1.456  0.1032  0.0375 -0.4465
  784SOL    HW2 3181   1.156   2.009   1.490 -0.0496  0.2751  0.2001
  784SOL    HW3 3182   1.085   2.142   1.478 -1.3108 -0.2690  1.5397
  784SOL    MW4 3183   1.088   2.056   1.464 -0.1036  0.0284 -0.0992
  785SOL     OW 3184   1.127   2.308   1.526  0.5760  0.3884 -0.5157
  785SOL    HW2 3185   1.195   2.372   1.509  0.6293  0.7409  1.0080
  785SOL    HW3 3186   1.046   2.351   1.496  0.6779  0.9715  0.0404
  785SOL    MW4 3187   1.125   2.322   1.519  0.5964  0.5119 -0.2412
  786SOL     OW 3188   0.869   2.457   1.448 -0.4792 -0.0095 -0.2025
  786SOL    HW2 3189   0.871   2.541   1.495  0.9518  0.0610 -0.3822
  786SOL    HW3 3190   0.793   2.411   1.484 -0.2226  0.6293  1.1704
  786SOL    MW4 3191   0.859   2.462   1.459 -0.2566  0.0839 -0.0452
  787SOL     OW 3192   0.872   2.710   1.555 -0.0279 -0.3188 -0.4352
  787SOL    HW2 3193   0.886   2.720   1.649  0.3770 -1.2262 -0.4008
  787SOL    HW3 3194   0.817   2.785   1.532 -0.0323 -0.0222  0.4988
  787SOL    MW4 3195   0.866   2.721   1.565  0.0250 -0.3996 -0.3073
  788SOL     OW 3196   1.121   2.839   1.494 -0.4606 -0.6382 -0.2773
  788SOL    HW2 3197   1.124   2.928   1.530  0.2163 -0.2752 -1.1923
  788SOL    HW3 3198   1.039   2.802   1.527 -0.4964  0.1499  0.5303
  788SOL    MW4 3199   1.111   2.846   1.503 -0.3761 -0.4861 -0.2916
  789SOL     OW 3200   1.135   3.106   1.611 -0.2223 -0.0582 -0.3699
  789SOL    HW2 3201   1.133   3.130   1.704 -1.6448  1.3133 -0.7417
  789SOL    HW3 3202   1.200   3.164   1.573  0.0959 -0.3715 -0.3094
  789SOL    MW4 3203   1.143   3.116   1.618 -0.3681  0.0815 -0.4109
  790SOL     OW 3204   0.931   3.244   1.477 -0.0273  0.2297  0.1308
  790SOL    HW2 3205   1.000   3.190   1.518  0.4933  0.7744 -0.0208
  790SOL    HW3 3206   0.943   3.232   1.383 -0.0431  0.4455  0.1004
  790SOL    MW4 3207   0.942   3.235   1.470  0.0393  0.3300  0.1068
  791SOL     OW 3208   0.898   3.507   1.585  0.2985 -0.5834  0.7155
  791SOL    HW2 3209   0.964   3.573   1.562  1.4521 -2.0525 -0.3063
  791SOL    HW3 3210   0.942   3.424   1.570 -1.5208 -1.5936  0.8882
  791SOL    MW4 3211   0.913   3.505   1.580  0.2106 -0.9105  0.6034
  792SOL     OW 3212   1.130   3.665   1.517 -0.1697 -0.5355  0.4479
  792SOL    HW2 3213   1.197   3.600   1.538 -2.7086 -2.8621  1.5886
  792SOL    HW3 3214   1.139   3.679   1.422  2.0571 -0.6254  0.6347
  792SOL    MW4 3215   1.140   3.658   1.507 -0.2108 -0.8545  0.6230
  793SOL     OW 3216   1.116   3.933   1.578 -0.4831  0.7102  0.0661
  793SOL    HW2 3217   1.198   3.968   1.542 -0.4131  0.3961 -0.0762
  793SOL    HW3 3218   1.125   3.838   1.570 -0.6055  0.6529  0.6174
  793SOL    MW4 3219   1.128   3.925   1.572 -0.4901  0.6611  0.1200
  794SOL     OW 3220   0.857   4.023   1.488 -0.3782 -0.5067  0.5549
  794SOL    HW2 3221   0.851   4.106   1.535 -0.9425 -0.1655 -0.1159
  794SOL    HW3 3222   0.919   3.971   1.540 -0.5225  0.0858  1.3368
  794SOL    MW4 3223   0.864   4.027   1.501 -0.4717 -0.3839  0.5696
  795SOL     OW 3224   0.840   4.281   1.585 -0.1984  0.1984 -0.2091
  795SOL    HW2 3225   0.843   4.299   1.679  0.0560  3.4469 -0.7601
  795SOL    HW3 3226   0.758   4.320   1.556  0.7075  1.0826 -1.6495
  795SOL    MW4 3227   0.830   4.289   1.594 -0.0453  0.7434 -0.4718
  796SOL     OW 3228   1.080   4.347   1.515  0.1206  0.3021 -0.5909
  796SOL    HW2 3229   0.996   4.305   1.531  0.8436 -0.3599  1.6467
  796SOL    HW3 3230   1.067   4.439   1.540  0.4902 -0.1438  1.2734
  796SOL    MW4 3231   1.067   4.354   1.520  0.2648  0.1559 -0.0496
  797SOL     OW 3232   1.553   0.026   1.591  0.3090 -0.0212 -0.2564
  797SOL    HW2 3233   1.550  -0.009   1.680  0.1733 -0.3304 -0.3800
  797SOL    HW3 3234   1.466   0.061   1.575  0.0241 -0.8896 -0.6316
  797SOL    MW4 3235   1.541   0.026   1.601  0.2534 -0.1766 -0.3221
  798SOL     OW 3236   1.298   0.140   1.519 -0.3472  0.0170  0.0999
  798SOL    HW2 3237   1.300   0.234   1.538 -0.7398  0.1483 -0.4926
  798SOL    HW3 3238   1.300   0.135   1.424  0.1778 -0.5943  0.1379
  798SOL    MW4 3239   1.299   0.152   1.509 -0.3296 -0.0463  0.0268
  799SOL     OW 3240   1.335   0.400   1.597 -0.2911 -0.8164  0.1093
  799SOL    HW2 3241   1.252   0.437   1.567  0.9723  1.5398 -0.6285
  799SOL    HW3 3242   1.325   0.392   1.692 -1.0047  0.3639  0.1368
  799SOL    MW4 3243   1.323   0.404   1.606 -0.2186 -0.3498  0.0155
  800SOL     OW 3244   1.575   0.470   1.461 -0.0930  0.2356  0.4451
  800SOL    HW2 3245   1.641   0.429   1.517  0.7188  1.0315  0.0809
  800SOL    HW3 3246   1.492   0.447   1.502  0.4673  0.3816  1.6878
  800SOL    MW4 3247   1.573   0.462   1.474  0.0880  0.3599  0.5610
  801SOL     OW 3248   1.608   0.719   1.582  0.1155  0.8862 -0.1588
  801SOL    HW2 3249   1.600   0.719   1.678 -0.7006  0.2722 -0.2160
  801SOL    HW3 3250   1.596   0.628   1.558  1.1170  0.9279 -0.7913
  801SOL    MW4 3251   1.605   0.707   1.592  0.1398  0.8107 -0.2497
  802SOL     OW 3252   1.371   0.887   1.513 -0.1563  0.5564 -0.5665
  802SOL    HW2 3253   1.444   0.835   1.547  0.4469  1.8256  0.0958
  802SOL    HW3 3254   1.379   0.881   1.418  0.1044 -0.2696 -0.4968
  802SOL    MW4 3255   1.381   0.879   1.505 -0.0422  0.6149 -0.4699
  803SOL     OW 3256   1.345   1.152   1.630 -0.0262  0.3054 -0.1930
  803SOL    HW2 3257   1.326   1.141   1.724 -1.3111 -0.1934 -0.5094
  803SOL    HW3 3258   1.352   1.062   1.597  1.1898  0.4809 -0.4298
  803SOL    MW4 3259   1.344   1.139   1.638 -0.0352  0.2627 -0.2660
  804SOL     OW 3260   1.553   1.295   1.500  0.5674  0.0671  0.1249
  804SOL    HW2 3261   1.489   1.248   1.554  0.4541  0.6133  0.4645
  804SOL    HW3 3262   1.548   1.385   1.530 -0.0062  0.5137 -1.2732
  804SOL    MW4 3263   1.544   1.300   1.511  0.4768  0.1981 -0.0147
  805SOL     OW 3264   1.510   1.552   1.572  0.2627 -0.0269 -0.5498
  805SOL    HW2 3265   1.526   1.539   1.666 -0.8236 -1.1671 -0.5033
  805SOL    HW3 3266   1.594   1.581   1.537  0.5942  0.7472  0.8316
  805SOL    MW4 3267   1.523   1.554   1.580  0.1631 -0.0752 -0.3614
  806SOL     OW 3268   1.283   1.672   1.477 -0.0827 -0.9787 -0.1347
  806SOL    HW2 3269   1.361   1.634   1.517 -1.0141 -1.5625  1.1584
  806SOL    HW3 3270   1.302   1.671   1.383  2.2758  0.7513  0.2749
  806SOL    MW4 3271   1.296   1.667   1.470  0.1055 -0.8274  0.0899
  807SOL     OW 3272   1.310   1.951   1.557 -0.4092  0.2115 -0.4191
  807SOL    HW2 3273   1.321   1.944   1.651 -0.9795  0.1716 -0.3519
  807SOL    HW3 3274   1.297   1.860   1.528  2.2948 -0.0518 -0.8684
  807SOL    MW4 3275   1.310   1.938   1.565 -0.1278  0.1713 -0.4696
  808SOL     OW 3276   1.559   2.051   1.468 -0.2480 -0.4640 -0.0198
  808SOL    HW2 3277   1.482   1.997   1.483  0.1774 -1.2217 -0.5096
  808SOL    HW3 3278   1.562   2.063   1.373 -0.0160 -0.0517  0.0329
  808SOL    MW4 3279   1.549   2.046   1.457 -0.1613 -0.5097 -0.0775
  809SOL     OW 3280   1.518   2.301   1.609 -0.3687  0.0471  0.1500
  809SOL    HW2 3281   1.600   2.346   1.589  0.4550 -1.4461  0.0651
  809SOL    HW3 3282   1.529   2.213   1.572 -1.5538 -0.5304  1.1213
  809SOL    MW4 3283   1.531   2.295   1.602 -0.4163 -0.2260  0.2670
  810SOL     OW 3284   1.345   2.478   1.465 -0.1044  0.2535 -0.2552
  810SOL    HW2 3285   1.358   2.568   1.496 -2.4049  0.5963 -0.2383
  810SOL    HW3 3286   1.406   2.426   1.518  1.8980  1.8816 -0.8694
  810SOL    MW4 3287   1.355   2.483   1.476 -0.1438  0.5136 -0.3340
  811SOL     OW 3288   1.363   2.739   1.555 -0.2213  0.6637 -0.3979
  811SOL    HW2 3289   1.369   2.732   1.650 -0.7537 -0.8553 -0.4545
  811SOL    HW3 3290   1.275   2.773   1.538 -0.5356 -0.1363 -0.3817
  811SOL    MW4 3291   1.352   2.742   1.565 -0.3328  0.3579 -0.4032
  812SOL     OW 3292   1.594   2.855   1.485 -0.5308  0.2429 -0.4816
  812SOL    HW2 3293   1.504   2.824   1.488 -0.4762  0.1565  0.5850
  812SOL    HW3 3294   1.620   2.848   1.393 -1.2347 -0.8083 -0.5984
  812SOL    MW4 3295   1.586   2.850   1.473 -0.6164  0.0930 -0.3564
  813SOL     OW 3296   1.536   3.101   1.609  0.0976  0.4951  0.2380
  813SOL    HW2 3297   1.610   3.154   1.580  0.1794  0.1709 -0.1519
  813SOL    HW3 3298   1.546   3.018   1.563 -1.0135  0.7677 -0.5438
  813SOL    MW4 3299   1.547   3.097   1.599 -0.0383  0.4883  0.0834
  814SOL     OW 3300   1.342   3.227   1.470 -0.0743  0.0053  0.3084
  814SOL    HW2 3301   1.353   3.317   1.501 -0.4941 -0.0978  0.7513
  814SOL    HW3 3302   1.407   3.177   1.520 -1.3410 -0.3088  1.6720
  814SOL    MW4 3303   1.352   3.232   1.481 -0.2968 -0.0496  0.5467
  815SOL     OW 3304   1.356   3.508   1.598 -0.1329  0.1498 -0.2145
  815SOL    HW2 3305   1.353   3.524   1.693  2.0463 -0.9090  0.0717
  815SOL    HW3 3306   1.442   3.541   1.572  0.4110 -2.0519 -1.3212
  815SOL    MW4 3307   1.367   3.514   1.607  0.2264 -0.2806 -0.3227
  816SOL     OW 3308   1.607   3.586   1.468 -0.3432 -0.1982 -0.0196
  816SOL    HW2 3309   1.616   3.672   1.510  1.6724  0.4090 -1.6494
  816SOL    HW3 3310   1.595   3.606   1.375 -1.7873 -1.6326 -0.1584
  816SOL    MW4 3311   1.606   3.600   1.462 -0.2676 -0.3071 -0.2530
  817SOL     OW 3312   1.581   3.854   1.579  0.0388 -0.2320  0.3663
  817SOL    HW2 3313   1.565   3.836   1.672  1.7822 -1.0158  0.5251
  817SOL    HW3 3314   1.520   3.925   1.558 -0.5779 -0.2474  2.0292
  817SOL    MW4 3315   1.571   3.861   1.588  0.1875 -0.3374  0.6068
  818SOL     OW 3316   1.365   4.043   1.488 -0.2910  0.0316  0.0013
  818SOL    HW2 3317   1.357   4.131   1.525  1.6424  0.3867 -0.3956
  818SOL    HW3 3318   1.358   4.057   1.393 -1.3864 -0.4263  0.0036
  818SOL    MW4 3319   1.363   4.057   1.480 -0.1806  0.0186 -0.0509
  819SOL     OW 3320   1.323   4.289   1.639  0.2467 -0.1888 -0.2246
  819SOL    HW2 3321   1.390   4.336   1.591 -0.5885  0.5877 -0.6516
  819SOL    HW3 3322   1.242   4.304   1.589 -0.6305  0.6220  1.3926
  819SOL    MW4 3323   1.321   4.297   1.626  0.0209  0.0205 -0.0676
  820SOL     OW 3324   1.515   4.433   1.499 -0.1266 -0.3839 -0.0874
  820SOL    HW2 3325   1.598   4.385   1.498  0.0053 -0.1965  1.0848
  820SOL    HW3 3326   1.540   4.522   1.524 -0.6734 -0.3149  0.2153
  820SOL    MW4 3327   1.529   4.439   1.502 -0.1813 -0.3495  0.1072
  821SOL     OW 3328   2.039   4.654   1.603 -0.0013  0.0977 -0.3170
  821SOL    HW2 3329   2.039   4.679   1.695 -0.1719  0.4935 -0.4243
  821SOL    HW3 3330   1.964   4.700   1.566 -0.5919 -0.9216 -0.4171
  821SOL    MW4 3331   2.029   4.663   1.610 -0.1018  0.0157 -0.3443
  822SOL     OW 3332   1.817   0.096   1.517 -0.2744  0.0304  0.1942
  822SOL    HW2 3333   1.724   0.081   1.533 -0.7991  2.2974 -0.4579
  822SOL    HW3 3334   1.824   0.103   1.422  0.6537 -0.6130  0.2072
  822SOL    MW4 3335   1.806   0.095   1.506 -0.2214  0.2446  0.1098
  823SOL     OW 3336   1.799   0.362   1.577 -0.1796 -0.4842 -0.2504
  823SOL    HW2 3337   1.871   0.409   1.536  0.0715 -0.0816  0.6369
  823SOL    HW3 3338   1.816   0.270   1.557 -0.6370 -0.2309 -1.9301
  823SOL    MW4 3339   1.810   0.356   1.569 -0.2067 -0.3977 -0.3549
  824SOL     OW 3340   2.038   0.483   1.497  0.2364 -0.1625  0.1049
  824SOL    HW2 3341   2.111   0.441   1.543  0.8690 -0.5539 -1.2334
  824SOL    HW3 3342   2.032   0.570   1.537 -0.8810 -1.3673  2.6720
  824SOL    MW4 3343   2.047   0.489   1.509  0.1724 -0.3731  0.2670
  825SOL     OW 3344   2.045   0.745   1.600  0.0912  0.3309  0.2772
  825SOL    HW2 3345   2.114   0.804   1.567  0.7403 -0.6292 -0.1031
  825SOL    HW3 3346   1.968   0.769   1.549  0.0280  1.7047  1.0029
  825SOL    MW4 3347   2.044   0.756   1.589  0.1686  0.3855  0.3227
  826SOL     OW 3348   1.827   0.842   1.463  0.2496  0.3613 -0.3562
  826SOL    HW2 3349   1.792   0.923   1.501 -0.0699  0.4732 -0.8814
  826SOL    HW3 3350   1.761   0.776   1.484  0.5848  0.2072  0.2057
  826SOL    MW4 3351   1.814   0.844   1.471  0.2519  0.3557 -0.3513
  827SOL     OW 3352   1.759   1.110   1.565 -0.4327  0.5068 -0.1568
  827SOL    HW2 3353   1.841   1.152   1.538 -0.1622 -0.3355 -0.6623
  827SOL    HW3 3354   1.690   1.166   1.528 -0.1183  2.1147  1.6467
  827SOL    MW4 3355   1.760   1.123   1.556 -0.3555  0.6078  0.0144
  828SOL     OW 3356   1.965   1.260   1.503  0.7794  0.2900  0.2034
  828SOL    HW2 3357   1.952   1.353   1.522  0.5775  0.5277 -0.9954
  828SOL    HW3 3358   1.971   1.257   1.407 -1.5705 -1.2073  0.0766
  828SOL    MW4 3359   1.964   1.272   1.493  0.4426  0.1239  0.0285
  829SOL     OW 3360   1.994   1.528   1.626 -0.2151 -0.0503  0.0367
  829SOL    HW2 3361   2.066   1.561   1.571 -0.1780 -0.2098 -0.0114
  829SOL    HW3 3362   1.915   1.546   1.576 -0.2919  1.0847  0.5598
  829SOL    MW4 3363   1.993   1.535   1.612 -0.2203  0.0783  0.0994
  830SOL     OW 3364   1.772   1.607   1.465  0.5289 -0.7179 -0.7009
  830SOL    HW2 3365   1.773   1.702   1.476  1.5829 -0.7074 -0.8455
  830SOL    HW3 3366   1.729   1.593   1.381  0.2541 -0.3773 -0.6192
  830SOL    MW4 3367   1.766   1.618   1.455  0.6317 -0.6715 -0.7091
  831SOL     OW 3368   1.768   1.888   1.537 -0.0378 -0.2365  0.0434
  831SOL    HW2 3369   1.848   1.938   1.521 -0.1181  0.1239  0.7195
  831SOL    HW3 3370   1.697   1.949   1.517 -0.1401 -0.4231 -0.1598
  831SOL    MW4 3371   1.769   1.903   1.532 -0.0620 -0.2136  0.1059
  832SOL     OW 3372   1.992   2.052   1.497  0.6496 -0.0787 -0.4535
  832SOL    HW2 3373   2.064   2.007   1.541  0.6999  0.3941 -0.0389
  832SOL    HW3 3374   1.987   2.137   1.542 -2.4154 -1.4202  1.8680
  832SOL    MW4 3375   2.001   2.057   1.509  0.2520 -0.1934 -0.0925
  833SOL     OW 3376   1.988   2.297   1.605  0.2433 -0.0396  0.2901
  833SOL    HW2 3377   1.984   2.309   1.700 -0.2135 -0.6350  0.3499
  833SOL    HW3 3378   1.909   2.340   1.571 -0.6462 -1.5633  0.3745
  833SOL    MW4 3379   1.977   2.304   1.613  0.0657 -0.3192  0.3092
  834SOL     OW 3380   1.757   2.410   1.499 -0.7563  0.0688  0.4876
  834SOL    HW2 3381   1.778   2.419   1.406 -1.2590 -1.9188  0.1673
  834SOL    HW3 3382   1.748   2.500   1.530  0.0128  0.7695 -1.2426
  834SOL    MW4 3383   1.759   2.423   1.491 -0.7210 -0.1011  0.2170
  835SOL     OW 3384   1.758   2.673   1.605 -0.1519 -0.0669 -0.1596
  835SOL    HW2 3385   1.849   2.695   1.585 -0.1106 -0.3171 -0.2494
  835SOL    HW3 3386   1.707   2.741   1.561  0.0153  0.4366  0.4164
  835SOL    MW4 3387   1.763   2.685   1.597 -0.1245 -0.0336 -0.0952
  836SOL     OW 3388   2.009   2.780   1.527  0.1338 -0.1741  0.2618
  836SOL    HW2 3389   1.989   2.864   1.568 -0.2834 -0.5652  0.8651
  836SOL    HW3 3390   1.993   2.794   1.434  0.2969  0.4834  0.3337
  836SOL    MW4 3391   2.005   2.793   1.520  0.1006 -0.1390  0.3510
  837SOL     OW 3392   1.960   3.034   1.591 -0.3962 -0.4673 -0.1775
  837SOL    HW2 3393   1.957   3.058   1.684  0.6743 -2.1876  0.3291
  837SOL    HW3 3394   2.027   3.091   1.553 -1.5199  0.9101 -0.1050
  837SOL    MW4 3395   1.969   3.045   1.598 -0.4033 -0.5126 -0.1011
  838SOL     OW 3396   1.763   3.228   1.535 -0.0617 -0.1134  0.0592
  838SOL    HW2 3397   1.797   3.311   1.570 -0.2890  0.2597 -0.5877
  838SOL    HW3 3398   1.829   3.163   1.558  0.3144  0.3255  0.2229
  838SOL    MW4 3399   1.776   3.230   1.543 -0.0418 -0.0062 -0.0046
  839SOL     OW 3400   1.839   3.504   1.592  0.1874  0.0386  0.0236
  839SOL    HW2 3401   1.829   3.516   1.686 -0.6883 -2.1042  0.2384
  839SOL    HW3 3402   1.753   3.525   1.555 -0.5021 -2.5350  0.1023
  839SOL    MW4 3403   1.827   3.508   1.599 -0.0192 -0.5836  0.0623
  840SOL     OW 3404   2.014   3.633   1.430 -0.5130 -0.3306 -1.0408
  840SOL    HW2 3405   2.098   3.591   1.451 -0.3061  0.5999 -0.0086
  840SOL    HW3 3406   1.949   3.580   1.475 -0.4064 -0.5121 -1.0978
  840SOL    MW4 3407   2.017   3.620   1.438 -0.4718 -0.2317 -0.9121
  841SOL     OW 3408   2.014   3.852   1.592  0.3186  0.2873 -0.1324
  841SOL    HW2 3409   2.094   3.887   1.554  2.0046 -1.0985  2.0256
  841SOL    HW3 3410   2.002   3.767   1.550 -0.4212  0.7914 -0.9576
  841SOL    MW4 3411   2.023   3.846   1.581  0.4435  0.1709  0.0435
  842SOL     OW 3412   1.806   4.010   1.498  0.2599 -0.2699  0.1611
  842SOL    HW2 3413   1.882   3.974   1.544 -0.1754 -0.2523  0.9183
  842SOL    HW3 3414   1.733   3.957   1.529 -0.3410  1.0276  1.0308
  842SOL    MW4 3415   1.806   3.999   1.508  0.1231 -0.0963  0.3756
  843SOL     OW 3416   1.761   4.304   1.515 -0.3740  0.1727 -0.4592
  843SOL    HW2 3417   1.848   4.344   1.512 -0.0588 -0.5078 -0.4593
  843SOL    HW3 3418   1.777   4.210   1.507 -1.0336 -0.0427  0.6156
  843SOL    MW4 3419   1.774   4.297   1.513 -0.4195  0.0548 -0.3173
  844SOL     OW 3420   2.040   4.381   1.485  0.0822  0.5055 -0.1813
  844SOL    HW2 3421   2.121   4.336   1.508 -0.2236  0.2498  0.4006
  844SOL    HW3 3422   2.052   4.470   1.518  0.3344  0.6091 -0.5543
  844SOL    MW4 3423   2.052   4.387   1.492  0.0751  0.4854 -0.1537
  845SOL     OW 3424   2.556   0.007   1.596  0.3708  0.5290 -0.1383
  845SOL    HW2 3425   2.551   0.008   1.691  0.4195  1.5589 -0.1376
  845SOL    HW3 3426   2.469   0.037   1.567 -0.4994 -2.1631 -0.4692
  845SOL    MW4 3427   2.543   0.012   1.605  0.2625  0.3095 -0.1820
  846SOL     OW 3428   2.293   0.097   1.513 -0.1302 -0.9192 -0.0714
  846SOL    HW2 3429   2.214   0.054   1.545 -0.2380 -1.3490 -0.8978
  846SOL    HW3 3430   2.294   0.078   1.419 -0.3256  1.1108 -0.5021
  846SOL    MW4 3431   2.282   0.089   1.505 -0.1705 -0.7081 -0.2372
  847SOL     OW 3432   2.250   0.353   1.600  0.5588 -0.5549  0.4014
  847SOL    HW2 3433   2.241   0.354   1.695 -0.9983 -0.4472  0.2732
  847SOL    HW3 3434   2.252   0.260   1.577  0.0603 -0.5917  0.4853
  847SOL    MW4 3435   2.249   0.340   1.610  0.2875 -0.5456  0.3957
  848SOL     OW 3436   2.454   0.528   1.471 -0.3237  0.3591 -0.2877
  848SOL    HW2 3437   2.528   0.473   1.500 -0.8738  0.5180  1.5117
  848SOL    HW3 3438   2.377   0.484   1.507 -1.1362  0.1841 -2.1877
  848SOL    MW4 3439   2.454   0.515   1.480 -0.5033  0.3570 -0.3010
  849SOL     OW 3440   2.446   0.774   1.568 -0.3605 -0.3706 -0.9509
  849SOL    HW2 3441   2.386   0.832   1.521 -0.4772 -0.6694 -1.1712
  849SOL    HW3 3442   2.435   0.689   1.525 -0.6174 -0.6929 -0.2467
  849SOL    MW4 3443   2.437   0.770   1.556 -0.4098 -0.4525 -0.8869
  850SOL     OW 3444   2.226   0.922   1.456  0.1711 -0.0893  0.2822
  850SOL    HW2 3445   2.228   1.017   1.472 -0.2805  0.1098 -0.7901
  850SOL    HW3 3446   2.233   0.914   1.361 -3.0297 -1.0156  0.0977
  850SOL    MW4 3447   2.227   0.934   1.446 -0.3109 -0.1853  0.1165
  851SOL     OW 3448   2.232   1.168   1.567  0.4476  0.1023  0.4606
  851SOL    HW2 3449   2.221   1.145   1.659 -0.3655 -0.5317  0.2161
  851SOL    HW3 3450   2.147   1.205   1.541  0.7154  0.4099  0.0060
  851SOL    MW4 3451   2.219   1.170   1.576  0.3755  0.0591  0.3684
  852SOL     OW 3452   2.496   1.249   1.520  0.5526  0.5343  0.2232
  852SOL    HW2 3453   2.414   1.212   1.552  1.6293 -1.0641  1.1891
  852SOL    HW3 3454   2.478   1.271   1.428 -0.7255 -0.4943  0.2141
  852SOL    MW4 3455   2.483   1.247   1.512  0.5262  0.1879  0.3494
  853SOL     OW 3456   2.473   1.515   1.584 -0.1759  0.4149 -0.1913
  853SOL    HW2 3457   2.539   1.544   1.520 -1.7546  2.2529 -1.0124
  853SOL    HW3 3458   2.481   1.419   1.584  1.9844  0.5549 -0.8121
  853SOL    MW4 3459   2.483   1.506   1.576 -0.0989  0.6758 -0.3816
  854SOL     OW 3460   2.232   1.644   1.511  0.3045 -0.0707  0.1792
  854SOL    HW2 3461   2.309   1.589   1.522  0.5784  0.7466  2.6865
  854SOL    HW3 3462   2.228   1.661   1.417  3.0420 -0.3379 -0.0342
  854SOL    MW4 3463   2.242   1.639   1.500  0.7019  0.0020  0.4818
  855SOL     OW 3464   2.228   1.923   1.589 -0.0407  0.4086 -0.1732
  855SOL    HW2 3465   2.214   1.929   1.683 -0.6269  0.3319 -0.2543
  855SOL    HW3 3466   2.231   1.829   1.572 -1.7141  0.3892 -0.4835
  855SOL    MW4 3467   2.227   1.911   1.599 -0.3388  0.3959 -0.2248
  856SOL     OW 3468   2.436   2.070   1.477 -0.2529 -0.0814  0.1050
  856SOL    HW2 3469   2.362   2.020   1.511  1.5174 -2.5426  0.4359
  856SOL    HW3 3470   2.438   2.048   1.384  0.2285 -0.2336  0.1521
  856SOL    MW4 3471   2.426   2.060   1.469  0.0441 -0.4261  0.1550
  857SOL     OW 3472   2.479   2.332   1.610  0.4359  0.0404  0.3216
  857SOL    HW2 3473   2.472   2.335   1.705  2.7179 -1.7860  0.5721
  857SOL    HW3 3474   2.472   2.239   1.588 -0.8202  0.5070 -1.3771
  857SOL    MW4 3475   2.477   2.320   1.620  0.5713 -0.1390  0.1304
  858SOL     OW 3476   2.225   2.414   1.482  0.1432  0.1384 -0.0313
  858SOL    HW2 3477   2.304   2.377   1.522 -0.2848 -0.1104  0.5980
  858SOL    HW3 3478   2.153   2.371   1.528 -0.3598  0.0161 -0.9203
  858SOL    MW4 3479   2.226   2.403   1.494  0.0200  0.0894 -0.0654
  859SOL     OW 3480   2.236   2.658   1.602  0.2426  0.5420  0.4785
  859SOL    HW2 3481   2.240   2.579   1.548  0.2203 -0.0287  1.3145
  859SOL    HW3 3482   2.157   2.703   1.572  1.2900  1.2504 -1.3576
  859SOL    MW4 3483   2.226   2.654   1.591  0.3777  0.5600  0.3465
  860SOL     OW 3484   2.439   2.819   1.507 -0.4534 -0.1857 -0.3725
  860SOL    HW2 3485   2.413   2.909   1.529  1.6542  0.1372  0.9138
  860SOL    HW3 3486   2.370   2.765   1.547 -0.0161  0.7139  1.6867
  860SOL    MW4 3487   2.426   2.824   1.515 -0.1175 -0.0248  0.0689
  861SOL     OW 3488   2.394   3.090   1.558  0.4364 -0.1671  0.1189
  861SOL    HW2 3489   2.460   3.144   1.514  0.6991 -1.2237 -0.7957
  861SOL    HW3 3490   2.312   3.137   1.544  0.9313  0.9794  0.9692
  861SOL    MW4 3491   2.392   3.103   1.550  0.5362 -0.1550  0.1105
  862SOL     OW 3492   2.158   3.205   1.491 -0.4423 -0.1288  0.4129
  862SOL    HW2 3493   2.178   3.296   1.512  0.5431 -0.4277  0.8036
  862SOL    HW3 3494   2.180   3.197   1.398 -1.8372  0.3803  0.0293
  862SOL    MW4 3495   2.164   3.216   1.481 -0.4964 -0.1009  0.4139
  863SOL     OW 3496   2.218   3.480   1.551  0.1121 -0.3244  0.4182
  863SOL    HW2 3497   2.221   3.499   1.644 -0.5262  1.0897  0.1651
  863SOL    HW3 3498   2.310   3.478   1.524  0.2326  1.1847  0.7042
  863SOL    MW4 3499   2.230   3.482   1.559  0.0439  0.0610  0.4225
  864SOL     OW 3500   2.487   3.580   1.438  0.2092  0.4582  0.1065
  864SOL    HW2 3501   2.567   3.543   1.478  0.3947 -0.8921 -1.4541
  864SOL    HW3 3502   2.487   3.672   1.465  1.3227  0.0340  1.6424
  864SOL    MW4 3503   2.498   3.587   1.447  0.3805  0.2239  0.1034
  865SOL     OW 3504   2.503   3.831   1.534 -0.1175 -0.1901  0.2257
  865SOL    HW2 3505   2.503   3.835   1.630  0.7468 -0.9309  0.2645
  865SOL    HW3 3506   2.578   3.884   1.508 -0.3090 -0.0494 -0.0424
  865SOL    MW4 3507   2.513   3.838   1.543 -0.0286 -0.2692  0.1955
  866SOL     OW 3508   2.261   3.953   1.492 -0.3658  0.6822  0.2940
  866SOL    HW2 3509   2.352   3.925   1.502 -1.4713 -2.9004  0.9674
  866SOL    HW3 3510   2.253   3.975   1.399  0.6112 -1.2516 -0.2724
  866SOL    MW4 3511   2.272   3.952   1.481 -0.3827 -0.0458  0.3082
  867SOL     OW 3512   2.258   4.236   1.560  0.2508  0.2753 -0.3319
  867SOL    HW2 3513   2.334   4.282   1.525  0.6697 -0.9051 -1.0037
  867SOL    HW3 3514   2.274   4.144   1.539 -1.4347  0.0376 -0.6036
  867SOL    MW4 3515   2.270   4.230   1.553  0.0837  0.0877 -0.4565
  868SOL     OW 3516   2.495   4.412   1.502  0.4028  0.4583 -0.1150
  868SOL    HW2 3517   2.543   4.491   1.527  1.7016  0.1604 -1.5749
  868SOL    HW3 3518   2.494   4.414   1.406 -0.6105 -0.6758 -0.1428
  868SOL    MW4 3519   2.501   4.423   1.493  0.4401  0.2689 -0.3113
  869SOL     OW 3520   2.932   4.657   1.590  0.3698 -0.1214  0.3470
  869SOL    HW2 3521   2.909   4.655   1.683 -0.8867 -0.6738  0.0339
  869SOL    HW3 3522   2.879   4.727   1.553  0.8802  0.1110  0.0468
  869SOL    MW4 3523   2.922   4.666   1.597  0.2713 -0.1636  0.2660
  870SOL     OW 3524   2.743   0.165   1.455  0.5705 -0.0462 -0.3700
  870SOL    HW2 3525   2.721   0.252   1.488 -2.2166 -0.2729 -1.4403
  870SOL    HW3 3526   2.679   0.107   1.496  2.2976 -1.5701  0.2003
  870SOL    MW4 3527   2.731   0.169   1.465  0.4308 -0.2772 -0.4359
  871SOL     OW 3528   2.690   0.411   1.565  0.4503 -0.3235 -0.4981
  871SOL    HW2 3529   2.703   0.394   1.658  0.1815  1.9426 -0.0061
  871SOL    HW3 3530   2.775   0.442   1.534  0.1063  0.4931 -0.6305
  871SOL    MW4 3531   2.703   0.413   1.573  0.3693  0.0832 -0.4506
  872SOL     OW 3532   2.931   0.515   1.486 -0.5351 -0.3659 -0.0868
  872SOL    HW2 3533   2.905   0.596   1.529 -0.6415 -1.0788  1.2326
  872SOL    HW3 3534   2.928   0.534   1.393 -0.9270  1.0292  0.2119
  872SOL    MW4 3535   2.927   0.528   1.480 -0.6011 -0.2759  0.1267
  873SOL     OW 3536   2.925   0.768   1.601  0.2297 -0.1275 -0.4585
  873SOL    HW2 3537   2.923   0.766   1.697  0.1846 -0.3455 -0.4629
  873SOL    HW3 3538   2.845   0.814   1.577  0.7024  0.7487 -0.3714
  873SOL    MW4 3539   2.914   0.773   1.611  0.2861 -0.0406 -0.4478
  874SOL     OW 3540   2.692   0.873   1.483 -0.1131 -0.1658 -0.0508
  874SOL    HW2 3541   2.616   0.829   1.521 -0.0686 -0.4514 -0.2932
  874SOL    HW3 3542   2.690   0.849   1.391 -0.0960  0.3515 -0.1842
  874SOL    MW4 3543   2.682   0.864   1.476 -0.1047 -0.1352 -0.1004
  875SOL     OW 3544   2.727   1.141   1.597  0.1477  0.5024  0.1757
  875SOL    HW2 3545   2.723   1.050   1.566  0.5886  0.4421  0.2875
  875SOL    HW3 3546   2.644   1.179   1.570  0.2553  0.2668 -0.5078
  875SOL    MW4 3547   2.716   1.134   1.589  0.2203  0.4634  0.1003
  876SOL     OW 3548   2.959   1.260   1.470  0.6625  0.9709  0.0598
  876SOL    HW2 3549   3.041   1.233   1.512 -0.3219 -1.1604  0.7314
  876SOL    HW3 3550   2.891   1.222   1.526 -0.7403  1.2195 -1.4532
  876SOL    MW4 3551   2.961   1.251   1.483  0.3476  0.7224 -0.0514
  877SOL     OW 3552   2.908   1.524   1.554 -0.2087 -0.0078 -0.0928
  877SOL    HW2 3553   2.830   1.553   1.508  0.2258 -1.0502 -1.5452
  877SOL    HW3 3554   2.919   1.433   1.528  2.6854  0.7114 -1.6478
  877SOL    MW4 3555   2.899   1.516   1.545  0.2308 -0.0504 -0.4897
  878SOL     OW 3556   2.688   1.637   1.431 -0.3662  0.3830  0.1133
  878SOL    HW2 3557   2.694   1.724   1.469 -0.5182  0.0999  0.7958
  878SOL    HW3 3558   2.679   1.652   1.337  1.7870  1.0490 -0.0015
  878SOL    MW4 3559   2.688   1.650   1.424 -0.1023  0.4336  0.1884
  879SOL     OW 3560   2.673   1.888   1.596  0.2329  0.0698 -0.3724
  879SOL    HW2 3561   2.681   1.900   1.691  0.1260  0.4395 -0.4108
  879SOL    HW3 3562   2.604   1.949   1.570 -0.2914 -0.5974 -0.5680
  879SOL    MW4 3563   2.665   1.897   1.605  0.1497  0.0305 -0.4033
  880SOL     OW 3564   2.902   2.035   1.476  0.0265  0.5271  0.1615
  880SOL    HW2 3565   2.877   2.124   1.499 -2.3591 -0.1395  0.3631
  880SOL    HW3 3566   2.830   1.981   1.510  0.8556 -1.3468 -0.9735
  880SOL    MW4 3567   2.889   2.039   1.483 -0.1788  0.1919  0.0384
  881SOL     OW 3568   2.890   2.291   1.570  0.2796  0.2436 -0.0518
  881SOL    HW2 3569   2.904   2.297   1.665 -0.0128  1.1710 -0.0621
  881SOL    HW3 3570   2.800   2.322   1.557  0.9699  1.9945 -0.8352
  881SOL    MW4 3571   2.880   2.296   1.581  0.3321  0.5972 -0.1565
  882SOL     OW 3572   2.672   2.458   1.470 -0.5224 -0.0438  0.5749
  882SOL    HW2 3573   2.691   2.540   1.515 -0.2637 -1.3576  2.9854
  882SOL    HW3 3574   2.596   2.423   1.516  0.2110 -1.7967  0.4935
  882SOL    MW4 3575   2.664   2.464   1.482 -0.3915 -0.4485  0.8821
  883SOL     OW 3576   2.698   2.714   1.596 -0.5341  0.1147  0.3791
  883SOL    HW2 3577   2.757   2.755   1.533  0.7920 -1.1825  0.7279
  883SOL    HW3 3578   2.611   2.744   1.571  0.1307  0.8632 -1.0973
  883SOL    MW4 3579   2.694   2.723   1.584 -0.2713  0.0424  0.2304
  884SOL     OW 3580   2.881   2.861   1.465 -0.0618 -0.2116 -0.2715
  884SOL    HW2 3581   2.957   2.815   1.502  0.2815  1.1815  0.7624
  884SOL    HW3 3582   2.886   2.949   1.500  0.0996  1.1059 -3.4169
  884SOL    MW4 3583   2.891   2.866   1.474  0.0048  0.1462 -0.5502
  885SOL     OW 3584   2.874   3.111   1.581 -0.1104  0.0398  0.2604
  885SOL    HW2 3585   2.903   3.100   1.672 -2.4867  1.4023  1.2113
  885SOL    HW3 3586   2.939   3.170   1.542 -0.5055  1.5460  1.8250
  885SOL    MW4 3587   2.886   3.117   1.588 -0.4759  0.4184  0.5924
  886SOL     OW 3588   2.632   3.207   1.475  0.0986  0.5818 -0.0477
  886SOL    HW2 3589   2.710   3.163   1.508  0.3099  1.5048  0.7032
  886SOL    HW3 3590   2.646   3.214   1.381  1.6498  2.1488  0.2915
  886SOL    MW4 3591   2.644   3.202   1.467  0.3314  0.9100  0.0961
  887SOL     OW 3592   2.717   3.475   1.539  0.3629  0.0995 -0.2332
  887SOL    HW2 3593   2.693   3.472   1.631 -0.7381  0.0132 -0.5158
  887SOL    HW3 3594   2.704   3.385   1.508 -0.3527  0.3696 -0.7332
  887SOL    MW4 3595   2.712   3.462   1.547  0.1230  0.1240 -0.3363
  888SOL     OW 3596   2.959   3.603   1.495 -0.3436  0.0645 -0.1938
  888SOL    HW2 3597   2.881   3.549   1.506 -0.1950 -0.0422  0.3293
  888SOL    HW3 3598   2.986   3.587   1.405 -0.5741 -0.3651 -0.1904
  888SOL    MW4 3599   2.952   3.594   1.485 -0.3543 -0.0062 -0.1243
  889SOL     OW 3600   2.917   3.858   1.600 -0.1393  0.1702 -0.1185
  889SOL    HW2 3601   2.854   3.917   1.560  0.7379  0.7691 -0.6275
  889SOL    HW3 3602   2.910   3.777   1.549 -1.3602 -0.2006  0.6001
  889SOL    MW4 3603   2.908   3.855   1.588 -0.1845  0.2000 -0.0908
  890SOL     OW 3604   2.714   4.004   1.486  0.1904  0.1727  0.2858
  890SOL    HW2 3605   2.707   4.091   1.525  0.0820 -0.2957  1.3327
  890SOL    HW3 3606   2.737   4.021   1.394 -0.7502  1.3324  0.2414
  890SOL    MW4 3607   2.716   4.018   1.479  0.0517  0.2637  0.4181
  891SOL     OW 3608   2.712   4.269   1.602  0.5013  0.0998 -0.1573
  891SOL    HW2 3609   2.781   4.310   1.549 -0.3957  0.8790 -0.7674
  891SOL    HW3 3610   2.630   4.298   1.560 -0.1930 -0.6909  0.6291
  891SOL    MW4 3611   2.710   4.278   1.589  0.2913  0.0982 -0.1340
  892SOL     OW 3612   2.912   4.405   1.477  0.1589 -0.6188  0.4661
  892SOL    HW2 3613   2.919   4.495   1.510 -1.1693 -0.5821  0.6772
  892SOL    HW3 3614   2.931   4.413   1.383 -2.6479  0.3620 -0.0899
  892SOL    MW4 3615   2.915   4.418   1.469 -0.3865 -0.4840  0.4206
  893SOL     OW 3616   3.365   4.665   1.612  0.3797 -0.4406 -0.1809
  893SOL    HW2 3617   3.437   4.701   1.561  0.0399 -1.0914 -1.1435
  893SOL    HW3 3618   3.359   4.574   1.582 -0.7433 -0.4260  0.0127
  893SOL    MW4 3619   3.374   4.657   1.601  0.1867 -0.5245 -0.2824
  894SOL     OW 3620   3.154   0.117   1.484 -0.0728 -0.3364  0.1908
  894SOL    HW2 3621   3.229   0.074   1.526  0.3815 -1.5889 -1.8679
  894SOL    HW3 3622   3.077   0.077   1.526  0.3833  0.3112  1.6760
  894SOL    MW4 3623   3.154   0.106   1.495  0.0474 -0.4162  0.1153
  895SOL     OW 3624   3.148   0.374   1.612 -0.6039 -0.0042  0.0699
  895SOL    HW2 3625   3.153   0.286   1.575 -0.1927 -0.0435  0.2140
  895SOL    HW3 3626   3.073   0.415   1.568  0.8629  0.5265 -2.0257
  895SOL    MW4 3627   3.139   0.368   1.601 -0.3560  0.0607 -0.1876
  896SOL     OW 3628   3.372   0.533   1.485 -0.3561 -0.2188  0.3147
  896SOL    HW2 3629   3.286   0.510   1.522  0.0883 -1.6552  0.4826
  896SOL    HW3 3630   3.368   0.502   1.395  0.5166 -1.6027  0.7542
  896SOL    MW4 3631   3.360   0.526   1.478 -0.1824 -0.5909  0.3949
  897SOL     OW 3632   3.407   0.787   1.568  0.0089 -0.4370 -0.5286
  897SOL    HW2 3633   3.391   0.771   1.661 -0.6733 -1.1226 -0.7503
  897SOL    HW3 3634   3.394   0.701   1.527  2.2923 -0.5705 -1.0156
  897SOL    MW4 3635   3.403   0.773   1.575  0.2203 -0.5450 -0.6222
  898SOL     OW 3636   3.150   0.864   1.480 -0.7775  0.2688  0.1989
  898SOL    HW2 3637   3.231   0.837   1.523 -0.3335  1.5480  0.2028
  898SOL    HW3 3638   3.080   0.827   1.534 -0.2185  1.1663  1.5801
  898SOL    MW4 3639   3.152   0.856   1.493 -0.6452  0.5560  0.3816
  899SOL     OW 3640   3.180   1.120   1.595 -0.3603  0.3663  0.5948
  899SOL    HW2 3641   3.177   1.110   1.690 -1.3136  0.8699  0.6342
  899SOL    HW3 3642   3.164   1.032   1.561  0.2907  0.1301  0.9009
  899SOL    MW4 3643   3.177   1.107   1.603 -0.4005  0.4015  0.6404
  900SOL     OW 3644   3.380   1.314   1.533 -0.0191  0.5113  0.0012
  900SOL    HW2 3645   3.464   1.294   1.574 -0.1167  1.1525  0.5253
  900SOL    HW3 3646   3.323   1.242   1.558  0.4651 -0.0939 -0.6278
  900SOL    MW4 3647   3.383   1.302   1.541  0.0319  0.5162 -0.0126
  901SOL     OW 3648   3.357   1.581   1.606  0.3798 -0.0404  0.0662
  901SOL    HW2 3649   3.360   1.570   1.701  0.8376  0.0448  0.0635
  901SOL    HW3 3650   3.361   1.492   1.571  0.0538 -0.0793  0.1325
  901SOL    MW4 3651   3.358   1.568   1.614  0.3970 -0.0342  0.0746
  902SOL     OW 3652   3.128   1.681   1.476 -0.6497 -0.0446  0.1233
  902SOL    HW2 3653   3.194   1.628   1.521 -0.8710 -0.3297  0.1175
  902SOL    HW3 3654   3.045   1.636   1.493 -0.8185  0.2073 -0.0243
  902SOL    MW4 3655   3.126   1.668   1.484 -0.7010 -0.0490  0.1030
  903SOL     OW 3656   3.143   1.926   1.586 -0.0643  0.1318  0.4493
  903SOL    HW2 3657   3.138   1.840   1.545 -0.1640  0.7990 -0.9892
  903SOL    HW3 3658   3.069   1.974   1.548  0.4550  1.0845  0.6447
  903SOL    MW4 3659   3.133   1.921   1.575 -0.0088  0.3456  0.2853
  904SOL     OW 3660   3.340   2.082   1.458 -0.2285 -0.3129 -0.1129
  904SOL    HW2 3661   3.329   2.085   1.363  0.8803 -1.3754 -0.2865
  904SOL    HW3 3662   3.270   2.023   1.488 -1.4656  1.1277 -0.1004
  904SOL    MW4 3663   3.329   2.074   1.450 -0.2453 -0.2630 -0.1342
  905SOL     OW 3664   3.573   2.446   1.450 -0.4976 -0.4205 -0.1182
  905SOL    HW2 3665   3.566   2.536   1.480 -0.1998 -0.0302 -1.2163
  905SOL    HW3 3666   3.657   2.415   1.484 -0.4127 -0.1528 -0.0864
  905SOL    MW4 3667   3.583   2.454   1.459 -0.4470 -0.3338 -0.2589
  906SOL     OW 3668   3.346   2.332   1.586 -0.4479  0.0117 -0.3735
  906SOL    HW2 3669   3.417   2.377   1.541  0.2271  0.7645  1.3990
  906SOL    HW3 3670   3.339   2.247   1.543 -0.8026  1.2652 -2.8471
  906SOL    MW4 3671   3.354   2.327   1.575 -0.4058  0.2763 -0.4661
  907SOL     OW 3672   3.096   2.729   1.570 -0.1325 -0.2390  0.0868
  907SOL    HW2 3673   3.175   2.766   1.531 -0.1565 -0.1546  0.1177
  907SOL    HW3 3674   3.093   2.639   1.538 -0.0448 -0.2301  0.0541
  907SOL    MW4 3675   3.106   2.722   1.561 -0.1237 -0.2267  0.0864
  908SOL     OW 3676   3.335   2.849   1.480  0.0101 -0.2942  0.4420
  908SOL    HW2 3677   3.324   2.938   1.512 -1.2228 -0.4980  0.6116
  908SOL    HW3 3678   3.359   2.859   1.388 -1.1095  0.1972  0.1996
  908SOL    MW4 3679   3.337   2.862   1.472 -0.3002 -0.2563  0.4325
  909SOL     OW 3680   3.295   3.099   1.596 -0.6977  0.3084 -0.3000
  909SOL    HW2 3681   3.298   3.092   1.692 -1.1484 -0.5907 -0.3433
  909SOL    HW3 3682   3.373   3.149   1.573  0.4635 -1.1420  0.3967
  909SOL    MW4 3683   3.306   3.104   1.606 -0.6042 -0.0014 -0.2137
  910SOL     OW 3684   3.109   3.242   1.468 -0.4953  0.1946 -0.1390
  910SOL    HW2 3685   3.167   3.183   1.515 -0.2902  1.4938  1.2975
  910SOL    HW3 3686   3.146   3.247   1.380  0.4312 -0.5301  0.2015
  910SOL    MW4 3687   3.122   3.235   1.463 -0.3459  0.2706  0.0955
  911SOL     OW 3688   3.144   3.467   1.628 -0.2880  0.4428 -0.0983
  911SOL    HW2 3689   3.137   3.389   1.573 -2.4514 -0.3194  1.2202
  911SOL    HW3 3690   3.078   3.527   1.592  0.8864  1.4266 -0.6677
  911SOL    MW4 3691   3.134   3.465   1.616 -0.4187  0.4723  0.0006
  912SOL     OW 3692   3.350   3.598   1.460  0.2892  0.7312  0.1404
  912SOL    HW2 3693   3.434   3.565   1.492  0.7264  0.2404 -1.4750
  912SOL    HW3 3694   3.284   3.552   1.512  0.9729 -0.3735  0.0358
  912SOL    MW4 3695   3.352   3.588   1.471  0.4373  0.5202 -0.0865
  913SOL     OW 3696   3.371   3.856   1.553  0.0742 -0.1031 -0.4226
  913SOL    HW2 3697   3.289   3.903   1.536  0.6321  0.9231 -0.2759
  913SOL    HW3 3698   3.357   3.769   1.514 -1.6854 -0.4895  0.9626
  913SOL    MW4 3699   3.358   3.851   1.546 -0.0842 -0.0186 -0.2205
  914SOL     OW 3700   3.128   3.984   1.460  0.1456 -0.0326 -0.1526
  914SOL    HW2 3701   3.131   4.070   1.503  0.7237 -0.5690  0.9014
  914SOL    HW3 3702   3.062   3.935   1.509  2.3175 -1.3761  1.5598
  914SOL    MW4 3703   3.120   3.989   1.472  0.5083 -0.2809  0.2123
  915SOL     OW 3704   3.129   4.250   1.571  0.4827 -0.0994  0.3128
  915SOL    HW2 3705   3.114   4.252   1.665  0.2901 -0.6818  0.2967
  915SOL    HW3 3706   3.057   4.300   1.533 -0.4445 -1.3892  0.3543
  915SOL    MW4 3707   3.118   4.257   1.578  0.3350 -0.3462  0.3163
  916SOL     OW 3708   3.359   4.394   1.514  0.2869 -0.1131  0.0973
  916SOL    HW2 3709   3.284   4.335   1.521  0.8587 -0.7732  0.7775
  916SOL    HW3 3710   3.380   4.395   1.420  0.4771 -1.2768  0.1074
  916SOL    MW4 3711   3.352   4.386   1.502  0.3872 -0.3529  0.1884
  917SOL     OW 3712   3.799   0.006   1.611  0.3487  0.2088 -0.2609
  917SOL    HW2 3713   3.807  -0.011   1.705  3.2907 -0.5752 -0.6060
  917SOL    HW3 3714   3.876   0.058   1.590 -0.2017  0.2280 -2.2681
  917SOL    MW4 3715   3.810   0.010   1.621  0.6642  0.1082 -0.5713
  918SOL     OW 3716   3.579   0.113   1.461 -0.2424  0.0216 -0.0774
  918SOL    HW2 3717   3.654   0.067   1.497 -0.5594 -1.2048 -0.9411
  918SOL    HW3 3718   3.595   0.113   1.366 -1.4995 -0.5620 -0.2950
  918SOL    MW4 3719   3.591   0.107   1.453 -0.4504 -0.2173 -0.2199
  919SOL     OW 3720   3.589   0.368   1.570  0.0464 -0.2578 -0.1059
  919SOL    HW2 3721   3.578   0.279   1.538 -1.5016 -0.1200 -0.0014
  919SOL    HW3 3722   3.504   0.409   1.557  0.2919  0.7402  1.2755
  919SOL    MW4 3723   3.576   0.362   1.564 -0.1254 -0.1079  0.0901
  920SOL     OW 3724   3.818   0.485   1.474  0.3110 -0.3109  0.2637
  920SOL    HW2 3725   3.731   0.457   1.504  0.1656  0.0351  0.1642
  920SOL    HW3 3726   3.817   0.471   1.380  0.7077 -1.2305  0.3901
  920SOL    MW4 3727   3.806   0.479   1.466  0.3445 -0.3866  0.2674
  921SOL     OW 3728   3.833   0.766   1.573  0.1622 -0.0890  0.6993
  921SOL    HW2 3729   3.752   0.814   1.559 -0.0238 -0.5246  0.2848
  921SOL    HW3 3730   3.812   0.675   1.551  0.7180 -0.2334  0.7433
  921SOL    MW4 3731   3.820   0.760   1.569  0.2110 -0.1655  0.6504
  922SOL     OW 3732   3.630   0.937   1.498  0.3710  0.2614  0.0124
  922SOL    HW2 3733   3.561   0.883   1.538  0.4917  0.5682  0.6424
  922SOL    HW3 3734   3.617   0.926   1.404 -0.4629  0.2134  0.1261
  922SOL    MW4 3735   3.619   0.929   1.491  0.2770  0.2955  0.1105
  923SOL     OW 3736   3.613   1.189   1.628  0.1703 -0.5611 -0.1369
  923SOL    HW2 3737   3.683   1.236   1.583  0.2618 -2.3994 -2.0255
  923SOL    HW3 3738   3.613   1.102   1.587 -1.3457 -1.5089  1.8062
  923SOL    MW4 3739   3.622   1.183   1.616 -0.0176 -0.9288 -0.1296
  924SOL     OW 3740   3.832   1.324   1.485  0.5270  0.0191  0.1979
  924SOL    HW2 3741   3.899   1.276   1.534  1.0859 -0.0128 -0.5872
  924SOL    HW3 3742   3.835   1.413   1.522  0.7135 -0.0903  0.4518
  924SOL    MW4 3743   3.841   1.329   1.496  0.6254  0.0004  0.1277
  925SOL     OW 3744   3.790   1.577   1.597 -0.5503 -0.3462 -0.4057
  925SOL    HW2 3745   3.767   1.573   1.689  0.5267  0.5870 -0.0786
  925SOL    HW3 3746   3.714   1.616   1.554 -0.3996  0.7956  0.3476
  925SOL    MW4 3747   3.777   1.582   1.603 -0.3881 -0.0725 -0.2631
  926SOL     OW 3748   3.578   1.684   1.480  0.6300 -0.4621  0.1951
  926SOL    HW2 3749   3.507   1.650   1.535  0.3725  1.5365  1.1408
  926SOL    HW3 3750   3.557   1.652   1.392 -1.7750  0.5471  0.3627
  926SOL    MW4 3751   3.566   1.675   1.475  0.2787 -0.0653  0.3418
  927SOL     OW 3752   3.563   1.958   1.543 -0.0192  0.0321  0.6811
  927SOL    HW2 3753   3.569   1.874   1.497 -1.1770 -0.5245  1.5439
  927SOL    HW3 3754   3.481   1.996   1.513  0.7635  1.1205 -0.1215
  927SOL    MW4 3755   3.553   1.952   1.533 -0.0687  0.1024  0.6891
  928SOL     OW 3756   3.799   2.073   1.468 -0.4280  0.1297 -0.5181
  928SOL    HW2 3757   3.789   2.162   1.501 -0.5385  0.0213 -0.2552
  928SOL    HW3 3758   3.721   2.027   1.501 -0.3556 -0.0689 -0.6274
  928SOL    MW4 3759   3.787   2.078   1.477 -0.4330  0.0892 -0.4978
  929SOL     OW 3760   3.815   2.356   1.555  0.1123  0.1193  0.8766
  929SOL    HW2 3761   3.831   2.355   1.650  1.6469  0.0424  0.6344
  929SOL    HW3 3762   3.890   2.402   1.519 -1.0719  1.2209 -0.2098
  929SOL    MW4 3763   3.827   2.362   1.563  0.1588  0.2544  0.7013
  930SOL     OW 3764   3.553   2.706   1.565 -0.3459 -0.0380 -0.2800
  930SOL    HW2 3765   3.467   2.740   1.540 -0.6647 -0.2289  0.5527
  930SOL    HW3 3766   3.555   2.711   1.660 -0.1466 -1.7377 -0.1707
  930SOL    MW4 3767   3.542   2.711   1.574 -0.3612 -0.2873 -0.1558
  931SOL     OW 3768   3.780   2.852   1.202 -0.1476 -0.1062  0.9451
  931SOL    HW2 3769   3.780   2.845   1.298  0.0085 -0.4115  0.9227
  931SOL    HW3 3770   3.711   2.793   1.173 -0.2470  0.0450  0.8727
  931SOL    MW4 3771   3.771   2.844   1.211 -0.1402 -0.1261  0.9327
  932SOL     OW 3772   3.774   2.846   1.469 -0.4290  0.3523  0.1329
  932SOL    HW2 3773   3.851   2.808   1.511 -0.4076 -1.1568 -1.2480
  932SOL    HW3 3774   3.700   2.802   1.510 -0.4942  0.5232  0.2001
  932SOL    MW4 3775   3.774   2.835   1.480 -0.4349  0.1755 -0.0403
  933SOL     OW 3776   3.793   3.108   1.550  0.1592 -0.7121  0.0602
  933SOL    HW2 3777   3.862   3.151   1.500  0.9909 -0.6224  1.2758
  933SOL    HW3 3778   3.794   3.017   1.520  0.9146 -0.7503  0.1949
  933SOL    MW4 3779   3.802   3.102   1.540  0.3688 -0.7052  0.2383
  934SOL     OW 3780   3.537   3.207   1.507 -0.2632  0.2158  0.1582
  934SOL    HW2 3781   3.622   3.163   1.508 -0.3923 -0.0439 -0.1221
  934SOL    HW3 3782   3.522   3.227   1.414 -1.3803 -1.4376 -0.0278
  934SOL    MW4 3783   3.546   3.204   1.495 -0.4275 -0.0365  0.0966
  935SOL     OW 3784   3.590   3.511   1.583  0.0424  0.3333  0.2277
  935SOL    HW2 3785   3.678   3.528   1.550  0.0804  0.5575  0.4423
  935SOL    HW3 3786   3.580   3.416   1.575  0.4407  0.2604  0.5388
  935SOL    MW4 3787   3.600   3.501   1.578  0.0999  0.3531  0.2971
  936SOL     OW 3788   3.814   3.582   1.438 -0.1305 -0.4771  0.0052
  936SOL    HW2 3789   3.889   3.542   1.482  2.0553  0.7416 -2.4821
  936SOL    HW3 3790   3.815   3.673   1.467 -1.8484 -0.8952  1.4536
  936SOL    MW4 3791   3.824   3.589   1.448 -0.0689 -0.3717 -0.1318
  937SOL     OW 3792   3.813   3.846   1.521  0.6691 -0.1125  0.0622
  937SOL    HW2 3793   3.890   3.891   1.487  0.4707  2.0214  2.2726
  937SOL    HW3 3794   3.739   3.898   1.490  0.3332 -0.0113  1.0035
  937SOL    MW4 3795   3.813   3.859   1.512  0.5987  0.1824  0.4780
  938SOL     OW 3796   3.580   3.996   1.431 -0.4884 -0.0913 -0.0042
  938SOL    HW2 3797   3.582   4.079   1.478  0.2395  0.7064 -1.3938
  938SOL    HW3 3798   3.510   3.946   1.473 -1.6554  1.6394  0.1761
  938SOL    MW4 3799   3.571   4.000   1.443 -0.5462  0.2422 -0.1638
  939SOL     OW 3800   3.577   4.250   1.570  0.0317  0.1954 -0.4765
  939SOL    HW2 3801   3.572   4.233   1.664  0.5925 -1.0798 -0.6642
  939SOL    HW3 3802   3.494   4.293   1.549 -0.1835  0.2988  0.5559
  939SOL    MW4 3803   3.565   4.253   1.580  0.0770  0.0410 -0.3651
  940SOL     OW 3804   3.802   4.418   1.470 -0.3468 -0.2533  0.3355
  940SOL    HW2 3805   3.723   4.373   1.500 -0.7684  0.7180  0.7004
  940SOL    HW3 3806   3.797   4.505   1.511  1.8560 -0.8388  1.9363
  940SOL    MW4 3807   3.791   4.424   1.480 -0.1118 -0.2022  0.5949
  941SOL     OW 3808   4.254   4.665   1.578  0.3865  0.1229  0.7709
  941SOL    HW2 3809   4.241   4.652   1.672  0.8747 -0.4144  0.7681
  941SOL    HW3 3810   4.230   4.581   1.539  0.0535  0.3903  0.4035
  941SOL    MW4 3811   4.249   4.652   1.586  0.4063  0.0873  0.7221
  942SOL     OW 3812   4.014   0.120   1.486 -0.3742  0.0450 -0.3669
  942SOL    HW2 3813   4.029   0.209   1.519 -2.2901 -0.0430  0.8197
  942SOL    HW3 3814   4.096   0.074   1.503  0.2214  1.2526  0.1275
  942SOL    MW4 3815   4.026   0.126   1.493 -0.5479  0.1927 -0.1451
  943SOL     OW 3816   4.040   0.381   1.607 -0.1475 -0.1398  0.8104
  943SOL    HW2 3817   4.028   0.390   1.701  0.5817  3.1378  0.6212
  943SOL    HW3 3818   3.957   0.412   1.569  0.2359  0.2858  0.3124
  943SOL    MW4 3819   4.027   0.386   1.614 -0.0010  0.3488  0.7197
  944SOL     OW 3820   4.258   0.497   1.488 -0.0485  0.3283  0.5797
  944SOL    HW2 3821   4.175   0.462   1.521 -0.4350 -0.3125 -1.0222
  944SOL    HW3 3822   4.325   0.452   1.539 -0.6514 -0.1460  0.9543
  944SOL    MW4 3823   4.256   0.486   1.499 -0.1793  0.1812  0.4177
  945SOL     OW 3824   4.270   0.722   1.644 -0.0422  0.3826  0.6010
  945SOL    HW2 3825   4.267   0.633   1.607  1.1999  0.5328  0.1163
  945SOL    HW3 3826   4.329   0.770   1.585 -1.6272  1.8561  0.1856
  945SOL    MW4 3827   4.278   0.716   1.631 -0.0877  0.5968  0.4821
  946SOL     OW 3828   4.076   0.909   1.535  0.4758 -0.1456  0.4998
  946SOL    HW2 3829   4.146   0.852   1.566  1.2996  0.3387 -0.4479
  946SOL    HW3 3830   3.995   0.863   1.557  1.0989 -0.8357  1.3405
  946SOL    MW4 3831   4.074   0.896   1.542  0.6666 -0.1727  0.4858
  947SOL     OW 3832   4.035   1.172   1.612  0.0527  0.3424  0.8784
  947SOL    HW2 3833   4.032   1.164   1.707  1.5692 -1.4840  0.7930
  947SOL    HW3 3834   4.037   1.081   1.580  0.7114  0.9379 -0.8512
  947SOL    MW4 3835   4.035   1.159   1.620  0.3400  0.1799  0.6390
  948SOL     OW 3836   4.278   1.297   1.496  0.1246  0.1757  0.1792
  948SOL    HW2 3837   4.195   1.254   1.516 -0.2513  0.5167 -0.6153
  948SOL    HW3 3838   4.344   1.237   1.531 -0.4598  0.0700  1.1212
  948SOL    MW4 3839   4.276   1.283   1.503 -0.0024  0.2066  0.1988
  949SOL     OW 3840   4.237   1.556   1.594  0.1346 -0.0561 -0.0657
  949SOL    HW2 3841   4.240   1.467   1.559 -1.1544  0.3780 -1.3318
  949SOL    HW3 3842   4.311   1.601   1.553  1.0061 -0.6190  0.8534
  949SOL    MW4 3843   4.247   1.550   1.584  0.0792 -0.0731 -0.1115
  950SOL     OW 3844   4.019   1.704   1.504  0.4742 -0.3498 -0.8078
  950SOL    HW2 3845   4.090   1.658   1.550  0.6347  0.0087 -0.6978
  950SOL    HW3 3846   3.940   1.660   1.535  0.5053  0.5996  0.6591
  950SOL    MW4 3847   4.018   1.692   1.514  0.4992 -0.1771 -0.5996
  951SOL     OW 3848   4.002   1.956   1.589 -0.3344  0.7916  0.0574
  951SOL    HW2 3849   4.019   1.869   1.553  0.4994  1.6467 -1.6677
  951SOL    HW3 3850   3.930   1.991   1.536 -0.0794  1.4822  0.1560
  951SOL    MW4 3851   3.995   1.949   1.577 -0.1910  0.9955 -0.1572
  952SOL     OW 3852   4.238   2.092   1.511  0.2492  0.1108 -0.0178
  952SOL    HW2 3853   4.154   2.048   1.525  0.7898 -0.7999  0.3593
  952SOL    HW3 3854   4.249   2.092   1.416 -0.3458  0.5709 -0.0969
  952SOL    MW4 3855   4.228   2.086   1.500  0.2422  0.0513  0.0215
  953SOL     OW 3856   4.252   2.355   1.603  0.1960 -0.0054  0.2799
  953SOL    HW2 3857   4.232   2.348   1.696 -0.9796 -1.6144 -0.0528
  953SOL    HW3 3858   4.241   2.265   1.570  0.8808  0.4907 -1.3404
  953SOL    MW4 3859   4.248   2.342   1.611  0.1311 -0.1526  0.0223
  954SOL     OW 3860   4.042   2.479   1.454 -0.0374 -0.4283 -0.3922
  954SOL    HW2 3861   4.029   2.568   1.487 -0.3617 -0.9343  0.8616
  954SOL    HW3 3862   4.104   2.440   1.515 -0.2305 -1.2009 -0.6937
  954SOL    MW4 3863   4.048   2.486   1.466 -0.1059 -0.5970 -0.2666
  955SOL     OW 3864   4.009   2.734   1.580  0.3002  0.2078  0.0970
  955SOL    HW2 3865   4.019   2.734   1.675  0.3786  0.2192  0.0893
  955SOL    HW3 3866   4.084   2.785   1.548 -0.4751  1.3745  0.1013
  955SOL    MW4 3867   4.020   2.741   1.588  0.2084  0.3633  0.0967
  956SOL     OW 3868   4.255   2.818   1.435 -0.1148  0.1209 -0.9922
  956SOL    HW2 3869   4.259   2.907   1.470  1.3694 -0.1670 -0.4094
  956SOL    HW3 3870   4.250   2.831   1.340 -2.3363  0.8568 -0.8027
  956SOL    MW4 3871   4.255   2.832   1.427 -0.2117  0.1802 -0.8903
  957SOL     OW 3872   4.239   3.081   1.575  0.2571 -0.1210  0.0712
  957SOL    HW2 3873   4.248   3.082   1.670  0.0875 -0.2723  0.0893
  957SOL    HW3 3874   4.324   3.111   1.542  0.1408  0.4388  0.2789
  957SOL    MW4 3875   4.251   3.085   1.583  0.2193 -0.0670  0.1010
  958SOL     OW 3876   4.013   3.238   1.457  0.4039  0.3402 -0.2527
  958SOL    HW2 3877   4.034   3.326   1.490  0.1349  0.1096  0.5594
  958SOL    HW3 3878   4.080   3.182   1.496 -0.3339 -0.0443  0.4620
  958SOL    MW4 3879   4.025   3.242   1.467  0.2713  0.2589 -0.0511
  959SOL     OW 3880   4.032   3.487   1.563 -0.2799  0.1582 -0.3202
  959SOL    HW2 3881   4.042   3.496   1.657 -0.7444  0.9001 -0.3292
  959SOL    HW3 3882   4.113   3.522   1.526 -0.0247 -0.3005 -0.1890
  959SOL    MW4 3883   4.044   3.493   1.570 -0.3076  0.1955 -0.3041
  960SOL     OW 3884   4.261   3.585   1.445  0.2129 -0.3051 -0.1865
  960SOL    HW2 3885   4.266   3.672   1.484  0.1834 -0.8439  1.0321
  960SOL    HW3 3886   4.274   3.600   1.351  1.1727  0.8946  0.1283
  960SOL    MW4 3887   4.263   3.599   1.438  0.3357 -0.2179  0.0157
  961SOL     OW 3888   4.246   3.843   1.546 -0.0181  0.1010  0.4234
  961SOL    HW2 3889   4.162   3.887   1.532  0.6417  1.1421 -0.3575
  961SOL    HW3 3890   4.311   3.908   1.518  1.0431 -0.6645  1.1171
  961SOL    MW4 3891   4.244   3.858   1.540  0.2093  0.1373  0.4119
  962SOL     OW 3892   4.023   4.002   1.440 -0.8106 -0.1989 -0.1183
  962SOL    HW2 3893   4.013   4.091   1.473 -0.9347 -0.5508  0.7821
  962SOL    HW3 3894   4.051   4.014   1.349  1.1094  0.7617  0.5723
  962SOL    MW4 3895   4.025   4.015   1.432 -0.5741 -0.1187  0.0917
  963SOL     OW 3896   3.991   4.245   1.576 -0.1556 -0.0773 -0.2963
  963SOL    HW2 3897   3.972   4.258   1.669  0.2744  1.1886 -0.3847
  963SOL    HW3 3898   3.935   4.308   1.531  1.0003  0.6041 -0.7906
  963SOL    MW4 3899   3.981   4.255   1.583  0.0534  0.1793 -0.3731
  964SOL     OW 3900   4.218   4.399   1.481  0.5111 -0.5828 -0.4051
  964SOL    HW2 3901   4.155   4.341   1.524  1.3372 -1.2268 -0.0464
  964SOL    HW3 3902   4.221   4.368   1.390  0.3423 -0.5834 -0.4103
  964SOL    MW4 3903   4.211   4.387   1.475  0.5980 -0.6680 -0.3585
  965SOL     OW 3904   0.212   4.649   1.880  0.2116  0.0036  0.0753
  965SOL    HW2 3905   0.293   4.695   1.905 -0.7550  0.7535  1.9886
  965SOL    HW3 3906   0.212   4.649   1.785  1.0627  2.5720  0.0435
  965SOL    MW4 3907   0.223   4.655   1.871  0.1964  0.4420  0.3234
  966SOL     OW 3908   4.487   0.126   1.983  0.1921  0.2099  0.6663
  966SOL    HW2 3909   4.495   0.215   1.950  0.0534  0.7393  2.0183
  966SOL    HW3 3910   4.561   0.079   1.945  0.1222  0.8248 -0.2490
  966SOL    MW4 3911   4.498   0.132   1.974  0.1645  0.3609  0.7241
  967SOL     OW 3912   0.005   0.373   1.837 -0.2988  0.2184 -0.5585
  967SOL    HW2 3913  -0.072   0.412   1.879  0.0072  1.5750 -1.2232
  967SOL    HW3 3914   0.079   0.422   1.873  0.3365 -1.5224  0.5830
  967SOL    MW4 3915   0.004   0.385   1.848 -0.1746  0.1677 -0.4957
  968SOL     OW 3916   0.220   0.502   1.973 -0.2990  0.1201  0.2065
  968SOL    HW2 3917   0.288   0.456   1.923  0.0021 -0.1189  0.8386
  968SOL    HW3 3918   0.211   0.587   1.929 -1.1962 -0.7201 -1.2643
  968SOL    MW4 3919   0.227   0.507   1.960 -0.3777 -0.0223  0.0957
  969SOL     OW 3920   0.212   0.749   1.857  0.0460 -0.1792  0.8366
  969SOL    HW2 3921   0.297   0.780   1.889  0.4430 -0.6791  0.2826
  969SOL    HW3 3922   0.217   0.761   1.762 -0.5002 -0.2261  0.8028
  969SOL    MW4 3923   0.224   0.755   1.848  0.0263 -0.2514  0.7590
  970SOL     OW 3924   4.478   0.895   1.951  1.0479  0.0427 -0.1959
  970SOL    HW2 3925   4.406   0.833   1.942  0.1882  1.0789 -0.4101
  970SOL    HW3 3926   4.551   0.853   1.905  0.2984 -0.5322 -0.8770
  970SOL    MW4 3927   4.478   0.881   1.944  0.8359  0.1035 -0.3139
  971SOL     OW 3928   4.464   1.159   1.880 -0.0446 -0.3512 -0.1578
  971SOL    HW2 3929   4.388   1.200   1.921  0.2941 -0.6580  0.7890
  971SOL    HW3 3930   4.446   1.065   1.885  0.3036 -0.4164 -0.0991
  971SOL    MW4 3931   4.452   1.152   1.886  0.0463 -0.4002 -0.0253
  972SOL     OW 3932   0.201   1.267   1.966  0.2831  0.3375  0.0933
  972SOL    HW2 3933   0.203   1.360   1.943  0.1068  0.0825 -0.9610
  972SOL    HW3 3934   0.114   1.238   1.943  0.0869  0.0717  1.1289
  972SOL    MW4 3935   0.190   1.276   1.960  0.2340  0.2688  0.0908
  973SOL     OW 3936   0.203   1.561   1.874 -0.3013 -0.4946  0.4214
  973SOL    HW2 3937   0.277   1.613   1.906  0.0768 -1.4223  1.0602
  973SOL    HW3 3938   0.126   1.608   1.904  0.0155  0.4482 -0.1988
  973SOL    MW4 3939   0.203   1.574   1.882 -0.2096 -0.4925  0.4239
  974SOL     OW 3940   4.489   1.723   1.975 -0.2745  0.1879  0.2493
  974SOL    HW2 3941   4.491   1.728   2.070 -0.3037 -1.6881  0.3686
  974SOL    HW3 3942   4.418   1.661   1.956  0.0859  0.1348 -0.9733
  974SOL    MW4 3943   4.480   1.716   1.985 -0.2308 -0.0666  0.1038
  975SOL     OW 3944   0.019   1.958   1.848  0.3819  0.7433 -0.2459
  975SOL    HW2 3945  -0.053   2.005   1.890 -0.2424 -0.6905  0.3091
  975SOL    HW3 3946   0.021   1.873   1.891  2.5612  0.8288 -0.1098
  975SOL    MW4 3947   0.010   1.953   1.859  0.5871  0.5653 -0.1547
  976SOL     OW 3948   0.217   2.116   1.980 -0.2046  0.2101 -0.1417
  976SOL    HW2 3949   0.216   2.199   1.933 -0.8572  0.0522 -0.4011
  976SOL    HW3 3950   0.146   2.065   1.942 -0.4202 -0.1067  0.6692
  976SOL    MW4 3951   0.208   2.120   1.969 -0.3191  0.1476 -0.0690
  977SOL     OW 3952   0.201   2.341   1.821  0.4670 -0.0125  0.0742
  977SOL    HW2 3953   0.280   2.379   1.860  0.9026 -2.7114  1.9959
  977SOL    HW3 3954   0.130   2.377   1.874  0.7264 -0.4159  0.7078
  977SOL    MW4 3955   0.202   2.351   1.833  0.5587 -0.4220  0.4115
  978SOL     OW 3956   4.481   2.454   1.962  0.5262 -0.1365 -0.2567
  978SOL    HW2 3957   4.486   2.473   2.056  1.2992  0.5451 -0.4280
  978SOL    HW3 3958   4.487   2.540   1.919 -1.2386 -0.3134 -0.8982
  978SOL    MW4 3959   4.483   2.468   1.969  0.3958 -0.0699 -0.3638
  979SOL     OW 3960   4.428   2.694   1.826 -0.2052  0.2583  0.5113
  979SOL    HW2 3961   4.357   2.750   1.857 -0.6777 -0.4512  0.7217
  979SOL    HW3 3962   4.427   2.704   1.731 -0.1993  0.7146  0.5593
  979SOL    MW4 3963   4.419   2.703   1.818 -0.2661  0.2248  0.5453
  980SOL     OW 3964   0.171   2.796   1.951 -0.4134 -0.2388 -0.2857
  980SOL    HW2 3965   0.184   2.877   1.903 -0.6571  1.1210  1.8486
  980SOL    HW3 3966   0.098   2.752   1.907 -1.0144  1.2459 -0.7807
  980SOL    MW4 3967   0.163   2.801   1.939 -0.5248  0.1364 -0.0694
  981SOL     OW 3968   0.192   3.068   1.831 -0.0199  0.2121 -0.1514
  981SOL    HW2 3969   0.261   3.107   1.885  0.9820 -0.2148 -1.1104
  981SOL    HW3 3970   0.221   3.083   1.741 -1.2797  0.1974 -0.5725
  981SOL    MW4 3971   0.205   3.075   1.826 -0.0539  0.1538 -0.3335
  982SOL     OW 3972   4.484   3.213   1.948  0.2819  0.2897  0.2814
  982SOL    HW2 3973   4.398   3.190   1.915  0.4854 -1.4656  0.9492
  982SOL    HW3 3974   4.545   3.158   1.898  0.9265  0.7000  0.6029
  982SOL    MW4 3975   4.481   3.203   1.937  0.3938  0.1123  0.4119
  983SOL     OW 3976   0.014   3.495   1.828 -0.1699  0.0265 -0.0140
  983SOL    HW2 3977   0.097   3.532   1.858 -1.2619  1.9610  0.7311
  983SOL    HW3 3978   0.005   3.413   1.877  1.1899 -0.0952  0.0563
  983SOL    MW4 3979   0.024   3.489   1.839 -0.1346  0.2656  0.0936
  984SOL     OW 3980   0.250   3.624   1.953 -0.2831  0.6753  0.3726
  984SOL    HW2 3981   0.262   3.617   2.048 -0.1982  0.7302  0.3655
  984SOL    HW3 3982   0.315   3.564   1.916  0.8551  1.9380  0.2879
  984SOL    MW4 3983   0.260   3.615   1.961 -0.1217  0.8488  0.3605
  985SOL     OW 3984   0.231   3.868   1.848 -0.3766 -0.2939  0.0037
  985SOL    HW2 3985   0.309   3.914   1.878 -0.5472  0.2264 -0.3521
  985SOL    HW3 3986   0.236   3.782   1.891 -0.1306  0.0984  0.7803
  985SOL    MW4 3987   0.242   3.863   1.858 -0.3667 -0.1738  0.0592
  986SOL     OW 3988   4.453   3.983   1.880 -0.5089  0.0979  0.1110
  986SOL    HW2 3989   4.437   4.076   1.861 -0.5983  0.5770  2.3510
  986SOL    HW3 3990   4.546   3.970   1.858 -0.3529  0.8651  0.2998
  986SOL    MW4 3991   4.463   3.994   1.874 -0.5001  0.2623  0.4314
  987SOL     OW 3992   4.428   4.275   1.850 -0.2252 -0.0240 -0.6097
  987SOL    HW2 3993   4.352   4.323   1.885  0.4042  1.2984 -1.0387
  987SOL    HW3 3994   4.497   4.291   1.914  0.2136  0.3017 -1.1637
  987SOL    MW4 3995   4.427   4.283   1.863 -0.0839  0.1931 -0.7393
  988SOL     OW 3996   0.206   4.380   1.958  0.0044 -0.0609 -0.2510
  988SOL    HW2 3997   0.179   4.391   2.049 -1.5674  1.1165 -0.8510
  988SOL    HW3 3998   0.209   4.469   1.923  0.8486 -0.4933 -1.3027
  988SOL    MW4 3999   0.203   4.393   1.966 -0.0916  0.0377 -0.4690
  989SOL     OW 4000   0.676   4.634   1.880 -0.5002  0.2060  0.3009
  989SOL    HW2 4001   0.653   4.547   1.913  0.7667 -0.3091 -0.1155
  989SOL    HW3 4002   0.662   4.629   1.785 -1.8461  0.9279  0.4564
  989SOL    MW4 4003   0.671   4.622   1.872 -0.5105  0.2332  0.2666
  990SOL     OW 4004   0.449   0.116   1.968 -0.3534 -0.2571  0.0068
  990SOL    HW2 4005   0.435   0.206   1.936  0.7462  0.3609  1.2189
  990SOL    HW3 4006   0.533   0.091   1.930 -1.5366 -1.4980 -1.8692
  990SOL    MW4 4007   0.458   0.125   1.959 -0.3645 -0.3393 -0.0807
  991SOL     OW 4008   0.420   0.382   1.828 -0.2110 -0.2117 -0.0422
  991SOL    HW2 4009   0.477   0.450   1.862  0.1573 -0.6665  0.2661
  991SOL    HW3 4010   0.418   0.396   1.734 -1.4452  1.2281  0.1806
  991SOL    MW4 4011   0.427   0.393   1.820 -0.3252 -0.0817  0.0279
  992SOL     OW 4012   0.643   0.520   1.941  0.0401  0.0797  0.0473
  992SOL    HW2 4013   0.648   0.510   2.036  0.5419 -2.0083 -0.1702
  992SOL    HW3 4014   0.713   0.464   1.907 -0.1614  0.7569 -1.5619
  992SOL    MW4 4015   0.653   0.511   1.949  0.0798 -0.1065 -0.1937
  993SOL     OW 4016   0.653   0.767   1.830  0.2836  0.1141 -0.7128
  993SOL    HW2 4017   0.735   0.808   1.858 -0.2786  0.7656  0.0160
  993SOL    HW3 4018   0.654   0.680   1.870  0.8796 -0.0942 -1.1794
  993SOL    MW4 4019   0.664   0.761   1.839  0.2881  0.1726 -0.6782
  994SOL     OW 4020   0.436   0.871   1.967  0.2475  0.2771 -0.2997
  994SOL    HW2 4021   0.415   0.955   1.926  1.5414 -0.0687 -1.7065
  994SOL    HW3 4022   0.514   0.840   1.920 -0.2448 -1.7369  0.1752
  994SOL    MW4 4023   0.444   0.878   1.955  0.3532 -0.0342 -0.4226
  995SOL     OW 4024   0.433   1.131   1.893 -0.0114 -0.1984  0.5497
  995SOL    HW2 4025   0.350   1.177   1.903 -0.4779 -0.9012 -0.0852
  995SOL    HW3 4026   0.444   1.120   1.799  0.4378 -0.7797  0.6665
  995SOL    MW4 4027   0.423   1.136   1.882 -0.0136 -0.3679  0.4814
  996SOL     OW 4028   0.638   1.293   1.951  0.3809 -0.3004 -0.0242
  996SOL    HW2 4029   0.636   1.313   2.045 -0.5363 -0.2584 -0.0415
  996SOL    HW3 4030   0.556   1.246   1.935  0.8449 -0.9096 -0.6806
  996SOL    MW4 4031   0.627   1.289   1.961  0.3211 -0.3752 -0.1130
  997SOL     OW 4032   0.661   1.553   1.868 -0.4686  0.2174  0.0738
  997SOL    HW2 4033   0.670   1.460   1.890 -0.6053 -0.0713 -1.0530
  997SOL    HW3 4034   0.633   1.554   1.777 -2.3332  1.3430  0.6268
  997SOL    MW4 4035   0.659   1.541   1.859 -0.7326  0.3278 -0.0019
  998SOL     OW 4036   0.435   1.686   1.966  0.1752  0.7487 -0.3045
  998SOL    HW2 4037   0.448   1.677   2.060  0.2729  0.1204 -0.3775
  998SOL    HW3 4038   0.514   1.648   1.926 -0.5666 -0.4581 -0.6706
  998SOL    MW4 4039   0.447   1.680   1.973  0.0902  0.5068 -0.3624
  999SOL     OW 4040   0.436   1.956   1.878  0.3343  0.1790  0.3737
  999SOL    HW2 4041   0.444   1.874   1.926 -0.2653  0.2685  0.6309
  999SOL    HW3 4042   0.365   2.003   1.923 -0.6734 -0.0179 -0.9959
  999SOL    MW4 4043   0.428   1.952   1.890  0.1222  0.1647  0.2270
 1000SOL     OW 4044   0.657   2.093   1.965  0.4293 -0.2471 -0.3771
 1000SOL    HW2 4045   0.670   2.065   2.056  0.5082 -2.2450 -0.9769
 1000SOL    HW3 4046   0.579   2.045   1.937  0.6318  0.0676 -1.4765
 1000SOL    MW4 4047   0.648   2.083   1.973  0.4664 -0.4694 -0.6012
 1001SOL     OW 4048   0.672   2.347   1.847  0.4099 -0.6074 -0.5120
 1001SOL    HW2 4049   0.651   2.263   1.889 -1.4974  0.2022  0.2436
 1001SOL    HW3 4050   0.672   2.327   1.753 -1.0564 -1.2831 -0.3958
 1001SOL    MW4 4051   0.669   2.333   1.840 -0.0352 -0.5898 -0.3968
 1002SOL     OW 4052   0.440   2.468   1.924 -0.2140 -0.1124  0.0262
 1002SOL    HW2 4053   0.445   2.469   2.020  1.4443 -2.1669  0.0071
 1002SOL    HW3 4054   0.522   2.428   1.896 -0.6338  0.5535 -2.2809
 1002SOL    MW4 4055   0.452   2.463   1.933 -0.0505 -0.2954 -0.2807
 1003SOL     OW 4056   0.415   2.729   1.833 -0.2018  0.0357  0.0632
 1003SOL    HW2 4057   0.429   2.638   1.858  0.4732 -0.2477 -1.3301
 1003SOL    HW3 4058   0.335   2.755   1.880 -0.4522 -1.2865  0.3810
 1003SOL    MW4 4059   0.406   2.721   1.843 -0.1457 -0.1762 -0.0787
 1004SOL     OW 4060   0.672   2.831   1.939  0.3696 -0.7173  0.0182
 1004SOL    HW2 4061   0.671   2.849   2.033 -0.9962 -0.6337  0.0014
 1004SOL    HW3 4062   0.581   2.808   1.918 -0.3090  3.5096 -2.1002
 1004SOL    MW4 4063   0.660   2.830   1.949  0.0998 -0.1488 -0.2635
 1005SOL     OW 4064   0.655   3.099   1.860  0.6759 -0.1505 -0.3993
 1005SOL    HW2 4065   0.641   3.005   1.875  1.3195 -0.2378 -0.3412
 1005SOL    HW3 4066   0.689   3.104   1.771 -0.1733  0.1027 -0.7122
 1005SOL    MW4 4067   0.657   3.087   1.850  0.6488 -0.1287 -0.4328
 1006SOL     OW 4068   0.409   3.216   1.990  0.1871  0.2040  0.3617
 1006SOL    HW2 4069   0.414   3.308   1.962  1.1036 -0.1873 -0.7781
 1006SOL    HW3 4070   0.479   3.172   1.942 -1.5502 -1.5083 -0.6609
 1006SOL    MW4 4071   0.419   3.223   1.980  0.0789 -0.0737  0.0763
 1007SOL     OW 4072   0.460   3.476   1.889 -0.3045  0.5186 -0.1908
 1007SOL    HW2 4073   0.532   3.520   1.933  0.1905 -1.2932  0.8820
 1007SOL    HW3 4074   0.477   3.488   1.795  1.6776 -0.3239  0.0499
 1007SOL    MW4 4075   0.472   3.483   1.882  0.0223  0.1683 -0.0175
 1008SOL     OW 4076   0.644   3.650   1.992  0.4520 -0.1023  0.0473
 1008SOL    HW2 4077   0.725   3.622   1.950  1.3477  2.0940  0.2088
 1008SOL    HW3 4078   0.612   3.723   1.938 -0.6846 -0.0584  0.7389
 1008SOL    MW4 4079   0.650   3.656   1.979  0.4203  0.1931  0.1597
 1009SOL     OW 4080   0.649   3.889   1.808 -0.4894  0.4935 -0.0338
 1009SOL    HW2 4081   0.729   3.937   1.828 -0.2919 -0.0901  0.5870
 1009SOL    HW3 4082   0.649   3.881   1.712  0.6940 -0.3495  0.0309
 1009SOL    MW4 4083   0.659   3.894   1.798 -0.3072  0.3054  0.0567
 1010SOL     OW 4084   0.441   4.005   1.955 -0.3293 -0.3492  0.1798
 1010SOL    HW2 4085   0.441   4.094   1.918 -0.0539  0.2491  1.5818
 1010SOL    HW3 4086   0.523   3.966   1.923  0.4891  0.5757  1.1065
 1010SOL    MW4 4087   0.452   4.012   1.946 -0.1850 -0.1483  0.4871
 1011SOL     OW 4088   0.430   4.262   1.847  0.2071  0.3543 -0.4077
 1011SOL    HW2 4089   0.346   4.299   1.874 -0.8881 -1.3723 -1.3984
 1011SOL    HW3 4090   0.426   4.260   1.751  0.6961 -1.2710 -0.4104
 1011SOL    MW4 4091   0.418   4.267   1.837  0.1271 -0.0882 -0.5387
 1012SOL     OW 4092   0.631   4.392   1.991  0.0500  0.0981  0.0907
 1012SOL    HW2 4093   0.706   4.339   1.962  0.5458  1.3440 -0.9357
 1012SOL    HW3 4094   0.555   4.348   1.954  0.3355 -0.7251  0.4715
 1012SOL    MW4 4095   0.631   4.379   1.982  0.1531  0.1540  0.0056
 1013SOL     OW 4096   1.116   4.663   1.873  0.0599 -0.0252 -0.7445
 1013SOL    HW2 4097   1.202   4.693   1.902 -1.6729  2.6527  1.9394
 1013SOL    HW3 4098   1.106   4.576   1.913  1.6458 -0.5084 -1.3880
 1013SOL    MW4 4099   1.126   4.655   1.882  0.0407  0.2642 -0.4753
 1014SOL     OW 4100   0.889   0.096   2.004 -0.1565 -0.2152  0.0222
 1014SOL    HW2 4101   0.964   0.062   1.956  0.0538 -0.8697  0.8086
 1014SOL    HW3 4102   0.816   0.038   1.981 -0.5340  0.6732 -1.0759
 1014SOL    MW4 4103   0.889   0.084   1.994 -0.1786 -0.1843 -0.0190
 1015SOL     OW 4104   0.875   0.367   1.888 -0.1271  0.0094 -0.6021
 1015SOL    HW2 4105   0.959   0.395   1.925 -1.0946  0.8370  0.9852
 1015SOL    HW3 4106   0.865   0.276   1.918  0.2303 -0.1168 -0.8585
 1015SOL    MW4 4107   0.885   0.358   1.897 -0.2075  0.1019 -0.4264
 1016SOL     OW 4108   1.126   0.485   1.998  0.4393  0.6892 -0.0991
 1016SOL    HW2 4109   1.188   0.416   1.975  0.7248  1.0875 -0.5354
 1016SOL    HW3 4110   1.145   0.556   1.936 -0.6277  0.7087 -0.4153
 1016SOL    MW4 4111   1.137   0.485   1.987  0.3361  0.7443 -0.1984
 1017SOL     OW 4112   1.103   0.738   1.846  0.5907 -0.1817  0.0964
 1017SOL    HW2 4113   1.174   0.786   1.888  0.4584  1.3178 -1.3262
 1017SOL    HW3 4114   1.023   0.779   1.879  0.3210 -2.3096  2.2171
 1017SOL    MW4 4115   1.102   0.750   1.856  0.5376 -0.2646  0.1886
 1018SOL     OW 4116   0.877   0.889   1.952 -0.7959  0.1525  0.0854
 1018SOL    HW2 4117   0.866   0.885   2.047 -1.7493 -1.3539 -0.0659
 1018SOL    HW3 4118   0.885   0.982   1.932 -0.5523  0.4734  1.6447
 1018SOL    MW4 4119   0.876   0.900   1.962 -0.8895 -0.0039  0.2711
 1019SOL     OW 4120   0.856   1.142   1.872 -0.0447  0.3125 -0.1281
 1019SOL    HW2 4121   0.776   1.190   1.895 -0.0516  0.1274  0.2294
 1019SOL    HW3 4122   0.848   1.129   1.777  0.4832  1.9677 -0.4211
 1019SOL    MW4 4123   0.844   1.147   1.862  0.0241  0.5064 -0.1194
 1020SOL     OW 4124   1.085   1.248   1.992 -0.1505  1.2126 -0.0256
 1020SOL    HW2 4125   1.106   1.336   1.963 -0.6324  1.2140 -0.3834
 1020SOL    HW3 4126   1.004   1.226   1.945 -0.3840  0.8301  0.5448
 1020SOL    MW4 4127   1.077   1.257   1.982 -0.2451  1.1623  0.0025
 1021SOL     OW 4128   1.095   1.513   1.901  0.4501 -0.3144 -0.0671
 1021SOL    HW2 4129   1.026   1.568   1.938  1.1217 -0.0989  0.8741
 1021SOL    HW3 4130   1.086   1.523   1.806 -0.3126  0.3200  0.0728
 1021SOL    MW4 4131   1.085   1.521   1.893  0.4381 -0.2023  0.0756
 1022SOL     OW 4132   0.890   1.683   1.991 -0.3417  0.0727 -0.2815
 1022SOL    HW2 4133   0.890   1.775   1.964 -0.3128  0.1313 -0.0840
 1022SOL    HW3 4134   0.812   1.646   1.950 -0.3494  0.1842 -0.3673
 1022SOL    MW4 4135   0.880   1.690   1.982 -0.3389  0.0951 -0.2669
 1023SOL     OW 4136   0.893   1.941   1.892 -0.1684  0.2558 -0.1079
 1023SOL    HW2 4137   0.818   1.995   1.917 -1.0057 -0.7747 -0.3377
 1023SOL    HW3 4138   0.870   1.907   1.805 -0.3379 -1.6451  0.6459
 1023SOL    MW4 4139   0.880   1.944   1.883 -0.3012 -0.1309 -0.0387
 1024SOL     OW 4140   1.125   2.095   1.982 -0.3410  0.1941 -0.0408
 1024SOL    HW2 4141   1.099   2.174   1.935 -1.1142  0.0068  0.0667
 1024SOL    HW3 4142   1.059   2.030   1.957  0.7762 -0.6691 -0.8209
 1024SOL    MW4 4143   1.113   2.097   1.972 -0.2956  0.0553 -0.1296
 1025SOL     OW 4144   1.104   2.310   1.812 -0.0136  0.3868 -0.6343
 1025SOL    HW2 4145   1.184   2.351   1.845  0.2201  0.0716 -0.8068
 1025SOL    HW3 4146   1.116   2.308   1.717 -0.4492  0.8047 -0.7011
 1025SOL    MW4 4147   1.116   2.315   1.803 -0.0402  0.4001 -0.6659
 1026SOL     OW 4148   0.907   2.473   1.934  0.5960  0.3095  0.3111
 1026SOL    HW2 4149   0.976   2.417   1.899  0.7488 -0.5934  2.0480
 1026SOL    HW3 4150   0.826   2.438   1.897  0.8849  0.3283 -0.3581
 1026SOL    MW4 4151   0.905   2.461   1.924  0.6543  0.1929  0.4518
 1027SOL     OW 4152   0.903   2.739   1.836  0.1470 -0.0979  0.1143
 1027SOL    HW2 4153   0.898   2.644   1.848 -0.6809 -0.1734 -0.8075
 1027SOL    HW3 4154   0.823   2.773   1.875 -0.9163 -0.0435 -2.0468
 1027SOL    MW4 4155   0.892   2.731   1.843 -0.1026 -0.1006 -0.2924
 1028SOL     OW 4156   1.146   2.843   1.931  0.6216 -0.2488  0.3531
 1028SOL    HW2 4157   1.115   2.855   2.021  1.0698  1.3242  0.3226
 1028SOL    HW3 4158   1.070   2.813   1.883 -0.1392  0.8349  0.8619
 1028SOL    MW4 4159   1.132   2.841   1.937  0.5804  0.1018  0.4164
 1029SOL     OW 4160   1.094   3.158   1.874 -0.4270  0.0420  0.2456
 1029SOL    HW2 4161   1.010   3.197   1.896 -0.3570  0.4165 -0.1618
 1029SOL    HW3 4162   1.085   3.066   1.899 -0.2725  0.4960  2.0985
 1029SOL    MW4 4163   1.082   3.151   1.880 -0.3974  0.1516  0.4363
 1030SOL     OW 4164   0.849   3.261   1.964 -0.6207 -0.5213  0.1415
 1030SOL    HW2 4165   0.857   3.259   2.060 -1.5235  2.3065  0.3349
 1030SOL    HW3 4166   0.770   3.211   1.945 -0.8045 -0.5476  0.9488
 1030SOL    MW4 4167   0.840   3.254   1.975 -0.7641 -0.1516  0.2736
 1031SOL     OW 4168   0.869   3.537   1.873 -0.3542  0.1744  0.1678
 1031SOL    HW2 4169   0.862   3.447   1.902 -0.4182  0.7137  1.8729
 1031SOL    HW3 4170   0.859   3.533   1.778 -0.8009 -1.5546  0.2820
 1031SOL    MW4 4171   0.867   3.525   1.864 -0.4216  0.0176  0.4077
 1032SOL     OW 4172   1.116   3.645   1.940 -0.0728  0.3507 -0.1638
 1032SOL    HW2 4173   1.122   3.638   2.035 -0.3509  0.4564 -0.1366
 1032SOL    HW3 4174   1.032   3.603   1.919  0.3754 -0.4024 -0.4399
 1032SOL    MW4 4175   1.106   3.639   1.950 -0.0504  0.2654 -0.1967
 1033SOL     OW 4176   1.082   3.919   1.849  0.2562 -0.5388  0.1534
 1033SOL    HW2 4177   1.085   3.824   1.865  1.2810 -0.5034  0.2040
 1033SOL    HW3 4178   1.102   3.928   1.756 -2.9653 -0.5619 -0.6016
 1033SOL    MW4 4179   1.085   3.908   1.838 -0.0336 -0.5372  0.0604
 1034SOL     OW 4180   0.854   3.998   1.965  0.1609 -0.3826 -0.4969
 1034SOL    HW2 4181   0.875   3.984   2.057 -0.4614 -0.6014 -0.3839
 1034SOL    HW3 4182   0.934   3.973   1.918  0.8881  0.8666  0.0512
 1034SOL    MW4 4183   0.867   3.993   1.971  0.1747 -0.2468 -0.4096
 1035SOL     OW 4184   0.828   4.266   1.863 -0.3250 -0.3344  0.1976
 1035SOL    HW2 4185   0.904   4.321   1.884  0.0289  0.3535 -2.6406
 1035SOL    HW3 4186   0.847   4.183   1.905  1.5694  0.1363  0.3351
 1035SOL    MW4 4187   0.841   4.263   1.871 -0.0283 -0.1812 -0.1587
 1036SOL     OW 4188   1.040   4.407   1.971 -0.4746  0.0229  0.4010
 1036SOL    HW2 4189   1.039   4.414   2.067 -0.9035  0.8950  0.3415
 1036SOL    HW3 4190   1.126   4.371   1.950  0.4447  1.7855  1.0034
 1036SOL    MW4 4191   1.051   4.404   1.981 -0.4100  0.3700  0.4727
 1037SOL     OW 4192   1.576   4.619   1.855  0.4219  0.2382 -0.3138
 1037SOL    HW2 4193   1.643   4.668   1.904 -0.6901  1.3238  0.1341
 1037SOL    HW3 4194   1.577   4.532   1.895 -0.8197  1.2419  2.0533
 1037SOL    MW4 4195   1.585   4.614   1.867  0.1115  0.5145  0.0577
 1038SOL     OW 4196   1.371   0.073   1.979  0.0034 -0.5107  0.1727
 1038SOL    HW2 4197   1.380   0.092   2.072  1.7763  1.5661 -0.3648
 1038SOL    HW3 4198   1.457   0.039   1.953  0.2245  0.9738 -1.1278
 1038SOL    MW4 4199   1.384   0.071   1.988  0.2664 -0.0409 -0.0699
 1039SOL     OW 4200   1.342   0.333   1.873 -0.0362  0.6909 -0.2819
 1039SOL    HW2 4201   1.349   0.238   1.878 -0.5590  0.6168 -0.8494
 1039SOL    HW3 4202   1.417   0.366   1.923  0.4562 -0.0209 -0.5430
 1039SOL    MW4 4203   1.353   0.325   1.880 -0.0403  0.5873 -0.3912
 1040SOL     OW 4204   1.587   0.472   1.967  0.0530  0.7052 -0.3107
 1040SOL    HW2 4205   1.674   0.446   1.937 -0.5411 -0.3606 -1.1481
 1040SOL    HW3 4206   1.597   0.487   2.061  1.2023  0.8787 -0.4610
 1040SOL    MW4 4207   1.600   0.470   1.975  0.1264  0.5875 -0.4410
 1041SOL     OW 4208   1.567   0.713   1.862  0.0539 -0.2302 -0.1659
 1041SOL    HW2 4209   1.638   0.760   1.905 -0.4029 -0.3579  0.7546
 1041SOL    HW3 4210   1.577   0.622   1.891  0.4732 -0.5656 -1.3240
 1041SOL    MW4 4211   1.577   0.707   1.872  0.0490 -0.2913 -0.1972
 1042SOL     OW 4212   1.325   0.861   1.949 -0.4153 -0.9005 -0.3664
 1042SOL    HW2 4213   1.329   0.850   2.044 -0.3459 -0.8684 -0.3651
 1042SOL    HW3 4214   1.401   0.813   1.916  1.7810  2.2377 -0.1108
 1042SOL    MW4 4215   1.335   0.854   1.957 -0.1163 -0.4822 -0.3326
 1043SOL     OW 4216   1.344   1.119   1.907 -0.1014 -0.0886 -0.1505
 1043SOL    HW2 4217   1.340   1.026   1.930  1.0463  0.1520  1.0972
 1043SOL    HW3 4218   1.261   1.155   1.936 -0.7492 -0.8127 -1.0712
 1043SOL    MW4 4219   1.333   1.112   1.914 -0.0355 -0.1523 -0.1074
 1044SOL     OW 4220   1.570   1.258   1.967 -0.1943  0.0230  0.3219
 1044SOL    HW2 4221   1.564   1.346   1.930  1.7348 -0.9473 -2.4788
 1044SOL    HW3 4222   1.488   1.216   1.944 -0.1943  0.3659 -0.3052
 1044SOL    MW4 4223   1.559   1.264   1.959  0.0603 -0.0598 -0.1303
 1045SOL     OW 4224   1.529   1.513   1.842 -0.2326 -0.3089  0.5314
 1045SOL    HW2 4225   1.609   1.551   1.878  0.5706 -1.2911 -0.1750
 1045SOL    HW3 4226   1.458   1.564   1.881  0.7767  1.4524  0.1312
 1045SOL    MW4 4227   1.530   1.525   1.852  0.0066 -0.2061  0.3854
 1046SOL     OW 4228   1.323   1.664   1.940  0.0595  0.0686  0.3109
 1046SOL    HW2 4229   1.354   1.681   2.029  1.7896 -0.8421 -0.0895
 1046SOL    HW3 4230   1.241   1.616   1.952  1.1261 -1.5256  1.4488
 1046SOL    MW4 4231   1.317   1.660   1.953  0.4284 -0.2618  0.4082
 1047SOL     OW 4232   1.309   1.945   1.844 -0.6244  0.0207 -0.0713
 1047SOL    HW2 4233   1.290   1.856   1.873  1.9536 -0.0958  1.4018
 1047SOL    HW3 4234   1.237   1.998   1.879 -1.7498 -1.3485 -0.2944
 1047SOL    MW4 4235   1.297   1.941   1.852 -0.4326 -0.1754  0.0937
 1048SOL     OW 4236   1.559   2.020   1.928  0.0884  0.1040 -0.3305
 1048SOL    HW2 4237   1.565   2.111   1.901 -0.0235  0.8916  2.1926
 1048SOL    HW3 4238   1.468   1.995   1.911  0.3394  0.1546 -1.8562
 1048SOL    MW4 4239   1.548   2.029   1.922  0.1068  0.2148 -0.1990
 1049SOL     OW 4240   1.502   2.298   1.888  0.2345 -0.2676 -0.1059
 1049SOL    HW2 4241   1.563   2.366   1.915 -0.2806 -0.3813  1.3808
 1049SOL    HW3 4242   1.480   2.320   1.797  0.2379  1.4102  0.2834
 1049SOL    MW4 4243   1.507   2.310   1.879  0.1670 -0.0615  0.1415
 1050SOL     OW 4244   1.277   2.459   1.967 -0.0802  0.2888 -0.2837
 1050SOL    HW2 4245   1.296   2.490   2.056  0.0147 -1.2943  0.2668
 1050SOL    HW3 4246   1.339   2.387   1.953 -1.6009 -0.9594 -0.7629
 1050SOL    MW4 4247   1.287   2.453   1.977 -0.2683 -0.0846 -0.2744
 1051SOL     OW 4248   1.343   2.689   1.826 -0.2491 -0.2127  0.0987
 1051SOL    HW2 4249   1.275   2.744   1.865  0.5935  0.1893  1.0155
 1051SOL    HW3 4250   1.330   2.603   1.866  0.1268  0.0078  0.7179
 1051SOL    MW4 4251   1.332   2.685   1.837 -0.0883 -0.1307  0.3014
 1052SOL     OW 4252   1.530   2.873   1.960 -0.2096  0.6493  0.2518
 1052SOL    HW2 4253   1.616   2.832   1.951  0.1405  1.4091  0.1480
 1052SOL    HW3 4254   1.468   2.806   1.930  0.4307  0.5461 -0.8627
 1052SOL    MW4 4255   1.533   2.859   1.955 -0.0789  0.7360  0.0911
 1053SOL     OW 4256   1.529   3.136   1.896  0.1292 -0.4517  0.6139
 1053SOL    HW2 4257   1.541   3.048   1.931  2.0319 -0.1443  0.7989
 1053SOL    HW3 4258   1.536   3.126   1.801 -0.0326 -0.5438  0.6106
 1053SOL    MW4 4259   1.531   3.123   1.888  0.3589 -0.4234  0.6378
 1054SOL     OW 4260   1.315   3.260   2.016  0.1839  0.4456 -0.1256
 1054SOL    HW2 4261   1.381   3.200   1.981 -0.1027  0.1295 -0.1276
 1054SOL    HW3 4262   1.233   3.233   1.974  0.1392  1.1594 -0.5075
 1054SOL    MW4 4263   1.313   3.248   2.006  0.1402  0.4978 -0.1760
 1055SOL     OW 4264   1.345   3.508   1.875  0.3148  0.4910 -0.3333
 1055SOL    HW2 4265   1.340   3.431   1.931 -0.3613 -0.2687 -1.4179
 1055SOL    HW3 4266   1.268   3.560   1.898  0.0261  0.1684 -0.5694
 1055SOL    MW4 4267   1.335   3.505   1.885  0.1874  0.3483 -0.5075
 1056SOL     OW 4268   1.560   3.651   1.970 -0.1646  0.5060 -0.3974
 1056SOL    HW2 4269   1.558   3.623   2.061  1.6699  1.2218 -0.1238
 1056SOL    HW3 4270   1.500   3.591   1.925 -1.5210  0.5169  1.3588
 1056SOL    MW4 4271   1.551   3.639   1.976 -0.1016  0.6018 -0.1295
 1057SOL     OW 4272   1.546   3.903   1.865 -0.0918  0.0205 -0.0864
 1057SOL    HW2 4273   1.630   3.942   1.887  0.1945 -0.1636 -0.8781
 1057SOL    HW3 4274   1.550   3.815   1.903  0.7146 -0.5851 -1.5589
 1057SOL    MW4 4275   1.557   3.897   1.873  0.0522 -0.0837 -0.3853
 1058SOL     OW 4276   1.327   4.049   1.967  0.3116 -0.5256 -0.0999
 1058SOL    HW2 4277   1.407   4.003   1.940  0.6380 -0.3233  0.5139
 1058SOL    HW3 4278   1.255   3.994   1.936  0.6942 -1.1123  0.0624
 1058SOL    MW4 4279   1.328   4.036   1.959  0.4053 -0.5760  0.0025
 1059SOL     OW 4280   1.275   4.305   1.897 -0.4155  0.2868  0.3731
 1059SOL    HW2 4281   1.286   4.213   1.921  0.1384 -0.0661 -1.1840
 1059SOL    HW3 4282   1.280   4.306   1.801  0.3768  2.0343  0.4081
 1059SOL    MW4 4283   1.277   4.293   1.887 -0.2378  0.4711  0.1724
 1060SOL     OW 4284   1.554   4.335   1.938  0.0471 -0.2577 -0.5279
 1060SOL    HW2 4285   1.572   4.356   2.030 -1.2469 -0.4330 -0.2289
 1060SOL    HW3 4286   1.461   4.314   1.936  0.2007 -0.8329 -1.7827
 1060SOL    MW4 4287   1.544   4.335   1.950 -0.1034 -0.3567 -0.6540
 1061SOL     OW 4288   1.998   0.000   1.882 -0.3563  0.1588 -0.6600
 1061SOL    HW2 4289   2.079   0.036   1.919 -1.4794  0.5039  1.5884
 1061SOL    HW3 4290   2.010  -0.095   1.885  1.0259  0.2513 -2.8612
 1061SOL    MW4 4291   2.010  -0.008   1.888 -0.3223  0.2165 -0.6539
 1062SOL     OW 4292   1.766   0.106   1.979 -0.3898 -0.0287 -0.2056
 1062SOL    HW2 4293   1.785   0.122   2.071  0.1929  1.0363 -0.5044
 1062SOL    HW3 4294   1.847   0.068   1.944 -1.5159 -3.0273  0.3302
 1062SOL    MW4 4295   1.779   0.103   1.986 -0.4615 -0.2838 -0.1744
 1063SOL     OW 4296   1.831   0.364   1.876  0.5944  0.2065  0.2264
 1063SOL    HW2 4297   1.788   0.280   1.894  1.6979 -0.1862  1.1136
 1063SOL    HW3 4298   1.851   0.361   1.783 -0.8088  0.1710 -0.0792
 1063SOL    MW4 4299   1.828   0.352   1.866  0.5548  0.1500  0.3033
 1064SOL     OW 4300   2.040   0.537   1.986  0.6452  0.1394 -0.1866
 1064SOL    HW2 4301   2.027   0.622   1.945 -0.4720  0.1187  0.0915
 1064SOL    HW3 4302   1.962   0.487   1.962  0.3344 -0.1289  1.2986
 1064SOL    MW4 4303   2.028   0.541   1.978  0.4563  0.1013  0.0459
 1065SOL     OW 4304   1.993   0.786   1.881  0.0409 -0.3168  0.0364
 1065SOL    HW2 4305   2.066   0.835   1.919  0.3044  0.5340 -1.4720
 1065SOL    HW3 4306   2.013   0.784   1.787 -2.4756  1.0526 -0.5938
 1065SOL    MW4 4307   2.006   0.792   1.873 -0.2563 -0.0238 -0.2459
 1066SOL     OW 4308   1.735   0.879   1.972 -0.5820 -0.4995  0.0854
 1066SOL    HW2 4309   1.731   0.967   1.935 -0.8894 -0.4544  0.2240
 1066SOL    HW3 4310   1.814   0.840   1.934 -0.2141 -0.0177  0.3476
 1066SOL    MW4 4311   1.745   0.885   1.962 -0.5741 -0.4299  0.1384
 1067SOL     OW 4312   1.780   1.119   1.840 -0.0413  0.1633 -0.1448
 1067SOL    HW2 4313   1.708   1.174   1.870 -0.4996  0.3054 -1.4409
 1067SOL    HW3 4314   1.772   1.120   1.744  1.2621 -0.3854 -0.2687
 1067SOL    MW4 4315   1.770   1.126   1.831  0.0702  0.1097 -0.3322
 1068SOL     OW 4316   2.025   1.245   1.971  0.2987 -0.1692 -0.6182
 1068SOL    HW2 4317   2.105   1.217   1.928  1.0185  1.7460 -0.5795
 1068SOL    HW3 4318   1.955   1.197   1.926  1.3951 -1.2596 -1.1681
 1068SOL    MW4 4319   2.026   1.235   1.960  0.5386 -0.0603 -0.6857
 1069SOL     OW 4320   1.996   1.515   1.906  0.0582  0.1986  0.0121
 1069SOL    HW2 4321   2.003   1.421   1.921 -1.8393 -0.1612 -1.1556
 1069SOL    HW3 4322   2.017   1.526   1.813  0.3915  0.9609  0.1698
 1069SOL    MW4 4323   2.000   1.504   1.895 -0.1483  0.2518 -0.1212
 1070SOL     OW 4324   1.745   1.630   1.943 -0.2957  0.2615 -0.0562
 1070SOL    HW2 4325   1.758   1.718   1.908 -1.3712 -0.0452 -1.2520
 1070SOL    HW3 4326   1.827   1.584   1.926  0.4229  1.1370  0.9431
 1070SOL    MW4 4327   1.757   1.636   1.936 -0.3430  0.3365 -0.0821
 1071SOL     OW 4328   1.789   1.883   1.836 -0.0795 -0.2591 -0.5029
 1071SOL    HW2 4329   1.705   1.924   1.857  0.8328  1.1105  0.5166
 1071SOL    HW3 4330   1.786   1.872   1.741 -0.5824  1.6687 -0.7311
 1071SOL    MW4 4331   1.777   1.887   1.826 -0.0254  0.1758 -0.3986
 1072SOL     OW 4332   1.967   2.053   1.954 -0.4427  1.0571 -0.1831
 1072SOL    HW2 4333   2.045   2.020   1.910 -0.7558  2.7766 -2.0938
 1072SOL    HW3 4334   1.899   1.989   1.934 -0.2802  1.1901 -1.2004
 1072SOL    MW4 4335   1.969   2.041   1.946 -0.4625  1.3015 -0.5695
 1073SOL     OW 4336   1.984   2.322   1.874  0.3124  0.1968 -0.0383
 1073SOL    HW2 4337   2.065   2.353   1.914 -0.0098  0.4930  0.4047
 1073SOL    HW3 4338   1.983   2.228   1.892  0.8509  0.0853 -0.5830
 1073SOL    MW4 4339   1.994   2.313   1.882  0.3408  0.2213 -0.0517
 1074SOL     OW 4340   1.740   2.434   1.974 -0.0912 -0.4944 -0.0321
 1074SOL    HW2 4341   1.758   2.453   2.066  0.0274 -0.9170  0.0334
 1074SOL    HW3 4342   1.821   2.396   1.941 -0.0319 -0.0673 -0.3927
 1074SOL    MW4 4343   1.753   2.432   1.982 -0.0677 -0.4940 -0.0710
 1075SOL     OW 4344   1.762   2.715   1.902  0.5537  0.3232 -0.5276
 1075SOL    HW2 4345   1.751   2.623   1.926  3.7970 -0.0234 -0.1790
 1075SOL    HW3 4346   1.763   2.714   1.806 -0.5501  0.1680 -0.5472
 1075SOL    MW4 4347   1.760   2.703   1.892  0.8361  0.2568 -0.4843
 1076SOL     OW 4348   2.027   2.805   1.994 -0.0871  0.0474  0.1079
 1076SOL    HW2 4349   2.027   2.812   2.090  0.9728 -0.4169  0.1395
 1076SOL    HW3 4350   1.944   2.761   1.974 -0.0687 -0.3417  0.8440
 1076SOL    MW4 4351   2.016   2.800   2.004  0.0551 -0.0653  0.2091
 1077SOL     OW 4352   1.994   3.057   1.876  0.3480 -0.0698  0.2571
 1077SOL    HW2 4353   2.012   2.975   1.921  2.1911  1.0914  1.7317
 1077SOL    HW3 4354   1.943   3.109   1.939 -0.3592  0.1222 -0.4621
 1077SOL    MW4 4355   1.990   3.053   1.890  0.4978  0.1087  0.3568
 1078SOL     OW 4356   1.776   3.268   1.966 -0.2927  0.1775  0.2224
 1078SOL    HW2 4357   1.776   3.247   2.059  0.7829  0.3604  0.2652
 1078SOL    HW3 4358   1.692   3.234   1.934 -0.1208 -1.0018  0.9998
 1078SOL    MW4 4359   1.765   3.260   1.974 -0.1281  0.0463  0.3306
 1079SOL     OW 4360   1.774   3.523   1.866 -0.0840  0.0453  0.4218
 1079SOL    HW2 4361   1.765   3.434   1.901 -1.0931  0.3947  1.0655
 1079SOL    HW3 4362   1.705   3.573   1.910  0.8813  1.2936  0.5471
 1079SOL    MW4 4363   1.764   3.518   1.877 -0.0898  0.2563  0.5231
 1080SOL     OW 4364   2.014   3.622   1.976  0.8658 -0.2659 -0.4081
 1080SOL    HW2 4365   2.029   3.708   1.937  1.1769  0.0647  0.4373
 1080SOL    HW3 4366   1.930   3.593   1.940  0.7366  0.4087 -0.6485
 1080SOL    MW4 4367   2.005   3.629   1.966  0.8895 -0.1333 -0.3283
 1081SOL     OW 4368   2.011   3.886   1.872 -0.1987 -0.0058 -0.2310
 1081SOL    HW2 4369   2.098   3.921   1.890 -0.4800  0.3005  0.5790
 1081SOL    HW3 4370   2.008   3.875   1.777  0.9926 -0.7631 -0.1801
 1081SOL    MW4 4371   2.022   3.889   1.862 -0.0787 -0.0651 -0.1174
 1082SOL     OW 4372   1.783   4.035   1.934  0.1130 -0.2914  0.1146
 1082SOL    HW2 4373   1.792   4.113   1.880 -0.2311 -1.3071 -1.4395
 1082SOL    HW3 4374   1.863   3.985   1.918  0.8321  0.2445  1.9470
 1082SOL    MW4 4375   1.795   4.038   1.925  0.1624 -0.3548  0.1514
 1083SOL     OW 4376   1.780   4.282   1.803  0.4256 -0.2598 -0.0057
 1083SOL    HW2 4377   1.693   4.298   1.838  0.2849 -0.3230 -0.3293
 1083SOL    HW3 4378   1.773   4.302   1.710  0.9205  0.3635  0.0895
 1083SOL    MW4 4379   1.768   4.286   1.796  0.4723 -0.1860 -0.0358
 1084SOL     OW 4380   2.011   4.400   1.953 -0.2815 -0.0670 -0.4033
 1084SOL    HW2 4381   2.080   4.336   1.934  0.1204 -0.1776  1.3848
 1084SOL    HW3 4382   1.932   4.361   1.916  0.2364 -0.9094 -0.6415
 1084SOL    MW4 4383   2.009   4.386   1.945 -0.1602 -0.1931 -0.1990
 1085SOL     OW 4384   2.484   0.006   1.864 -0.0418  0.4155 -0.3787
 1085SOL    HW2 4385   2.551   0.058   1.908 -0.1891 -0.1112  0.4936
 1085SOL    HW3 4386   2.484  -0.077   1.912 -0.3462 -0.0989 -1.2594
 1085SOL    MW4 4387   2.493   0.002   1.876 -0.1013  0.2782 -0.3798
 1086SOL     OW 4388   2.246   0.109   1.971  0.0047 -0.4298 -0.0633
 1086SOL    HW2 4389   2.263   0.122   2.064 -1.0207  1.6991 -0.1491
 1086SOL    HW3 4390   2.331   0.080   1.935  0.6914 -0.1456  1.3136
 1086SOL    MW4 4391   2.260   0.107   1.978 -0.0403 -0.1114  0.1072
 1087SOL     OW 4392   2.242   0.389   1.891 -0.8216  0.0575  0.1258
 1087SOL    HW2 4393   2.229   0.305   1.936 -1.5977 -0.5176 -1.1563
 1087SOL    HW3 4394   2.169   0.443   1.920 -0.7124  0.0613  0.4013
 1087SOL    MW4 4395   2.231   0.385   1.901 -0.9096 -0.0179 -0.0072
 1088SOL     OW 4396   2.484   0.480   1.968 -0.1068 -0.4030 -0.3080
 1088SOL    HW2 4397   2.565   0.455   1.922 -0.7014 -0.1663 -1.5085
 1088SOL    HW3 4398   2.414   0.439   1.917 -0.8585  0.8150 -0.2745
 1088SOL    MW4 4399   2.486   0.471   1.955 -0.2844 -0.2110 -0.4619
 1089SOL     OW 4400   2.425   0.747   1.882 -0.2741 -0.2533  0.4245
 1089SOL    HW2 4401   2.433   0.659   1.920  2.0989 -0.1240  0.2731
 1089SOL    HW3 4402   2.433   0.733   1.788 -0.6556  0.0661  0.3403
 1089SOL    MW4 4403   2.427   0.733   1.875 -0.0112 -0.1941  0.3935
 1090SOL     OW 4404   2.212   0.916   2.013 -0.1400  0.0527  0.1069
 1090SOL    HW2 4405   2.210   0.906   2.108 -1.0958  0.3072  0.1135
 1090SOL    HW3 4406   2.273   0.848   1.983  0.9837  0.6439  0.9801
 1090SOL    MW4 4407   2.220   0.906   2.021 -0.1178  0.1643  0.2232
 1091SOL     OW 4408   2.237   1.135   1.863 -0.2563 -0.1613 -0.1396
 1091SOL    HW2 4409   2.315   1.187   1.882  0.2781 -0.5008 -1.3728
 1091SOL    HW3 4410   2.244   1.060   1.923 -0.5238  0.6586  0.9406
 1091SOL    MW4 4411   2.248   1.132   1.874 -0.2210 -0.0979 -0.1599
 1092SOL     OW 4412   2.454   1.289   1.919  0.2726 -0.5860 -0.1075
 1092SOL    HW2 4413   2.457   1.281   2.014 -1.9868 -0.0341  0.0456
 1092SOL    HW3 4414   2.498   1.372   1.900  2.3236 -1.5570  0.2851
 1092SOL    MW4 4415   2.460   1.299   1.929  0.2451 -0.6413 -0.0354
 1093SOL     OW 4416   2.491   1.577   1.877 -0.1664  0.0500 -0.4200
 1093SOL    HW2 4417   2.401   1.595   1.905 -0.5888 -1.5350 -0.6705
 1093SOL    HW3 4418   2.485   1.569   1.782  0.1736 -0.4023 -0.4033
 1093SOL    MW4 4419   2.478   1.578   1.869 -0.1771 -0.2187 -0.4510
 1094SOL     OW 4420   2.224   1.651   1.948 -0.4208 -0.2261 -0.1156
 1094SOL    HW2 4421   2.231   1.663   2.043 -1.6196  1.0304 -0.1550
 1094SOL    HW3 4422   2.144   1.599   1.937 -0.4474 -0.1122 -0.4503
 1094SOL    MW4 4423   2.214   1.646   1.959 -0.5825 -0.0453 -0.1649
 1095SOL     OW 4424   2.194   1.923   1.873 -0.1914 -0.0184 -0.3255
 1095SOL    HW2 4425   2.276   1.963   1.899 -1.4690  0.8624  2.5747
 1095SOL    HW3 4426   2.204   1.830   1.893  0.4437 -0.0984 -0.9864
 1095SOL    MW4 4427   2.206   1.916   1.879 -0.2763  0.0874 -0.0300
 1096SOL     OW 4428   2.464   2.039   1.959 -0.5266 -0.1287 -0.2072
 1096SOL    HW2 4429   2.539   1.990   1.926 -0.0613 -0.1450  0.8504
 1096SOL    HW3 4430   2.485   2.131   1.941 -0.6601 -0.1990 -0.7211
 1096SOL    MW4 4431   2.477   2.045   1.952 -0.4828 -0.1400 -0.1354
 1097SOL     OW 4432   2.484   2.320   1.912 -0.4775  0.1280  0.0569
 1097SOL    HW2 4433   2.555   2.382   1.930 -0.0395 -0.5573  0.6988
 1097SOL    HW3 4434   2.404   2.368   1.935 -0.0573 -0.0390  1.9232
 1097SOL    MW4 4435   2.483   2.335   1.917 -0.3643  0.0153  0.3878
 1098SOL     OW 4436   2.238   2.430   1.953  0.0519 -0.0219 -0.3012
 1098SOL    HW2 4437   2.240   2.413   2.047 -1.1092  0.8339 -0.1033
 1098SOL    HW3 4438   2.260   2.523   1.945  0.4151 -0.1583 -0.8977
 1098SOL    MW4 4439   2.241   2.440   1.965 -0.0534  0.0730 -0.3538
 1099SOL     OW 4440   2.258   2.696   1.871 -0.1224 -0.2669  0.1606
 1099SOL    HW2 4441   2.180   2.742   1.901 -0.5065 -0.7886 -0.0282
 1099SOL    HW3 4442   2.245   2.686   1.777 -0.3314 -1.2970  0.2927
 1099SOL    MW4 4443   2.246   2.700   1.863 -0.2010 -0.4718  0.1532
 1100SOL     OW 4444   2.480   2.846   1.942  0.7093  0.7337 -0.5056
 1100SOL    HW2 4445   2.475   2.929   1.894 -2.0796  0.9897  0.1311
 1100SOL    HW3 4446   2.411   2.792   1.903 -0.2430  0.2289  1.8247
 1100SOL    MW4 4447   2.470   2.850   1.930  0.2160  0.7010 -0.1142
 1101SOL     OW 4448   2.470   3.099   1.824 -0.2455  0.8584 -0.3858
 1101SOL    HW2 4449   2.388   3.131   1.860 -1.7766 -3.5455  0.2874
 1101SOL    HW3 4450   2.450   3.079   1.733 -0.2189 -1.1950  0.0487
 1101SOL    MW4 4451   2.457   3.101   1.817 -0.4439  0.0062 -0.2397
 1102SOL     OW 4452   2.242   3.204   1.940 -0.6062 -0.5419 -0.5425
 1102SOL    HW2 4453   2.263   3.212   2.033  1.2825  0.5749 -1.0416
 1102SOL    HW3 4454   2.156   3.162   1.939 -0.7934 -0.3031  1.7098
 1102SOL    MW4 4455   2.233   3.200   1.952 -0.3817 -0.3631 -0.3111
 1103SOL     OW 4456   2.233   3.481   1.843 -0.2856  0.0342  0.0924
 1103SOL    HW2 4457   2.240   3.390   1.870  0.8295  0.1801  0.2896
 1103SOL    HW3 4458   2.162   3.517   1.897 -0.6240 -0.6679  0.1211
 1103SOL    MW4 4459   2.224   3.473   1.853 -0.1833 -0.0391  0.1223
 1104SOL     OW 4460   2.471   3.605   1.932  0.2775 -0.8504 -0.5233
 1104SOL    HW2 4461   2.441   3.598   2.022  0.2765  3.1988 -0.0946
 1104SOL    HW3 4462   2.393   3.585   1.879 -0.8242  0.6818  0.4662
 1104SOL    MW4 4463   2.457   3.601   1.937  0.1318 -0.1140 -0.3362
 1105SOL     OW 4464   2.494   3.861   1.817 -0.1153  0.5003 -0.3341
 1105SOL    HW2 4465   2.415   3.906   1.848  0.3510  1.4872 -0.5759
 1105SOL    HW3 4466   2.488   3.773   1.855 -0.2017  1.2813  1.4781
 1105SOL    MW4 4467   2.482   3.855   1.826 -0.0651  0.7336 -0.1268
 1106SOL     OW 4468   2.270   3.980   1.934  0.0045 -0.3045 -0.2480
 1106SOL    HW2 4469   2.288   3.995   2.026 -1.0089 -0.1270 -0.0711
 1106SOL    HW3 4470   2.261   4.068   1.896  2.9629 -0.3102 -1.0534
 1106SOL    MW4 4471   2.271   3.993   1.941  0.2611 -0.2818 -0.3310
 1107SOL     OW 4472   2.229   4.231   1.840  0.1215 -0.7954 -0.3941
 1107SOL    HW2 4473   2.307   4.283   1.861 -0.2247  0.3264 -1.7762
 1107SOL    HW3 4474   2.222   4.237   1.745 -1.7036 -0.8053 -0.2736
 1107SOL    MW4 4475   2.238   4.238   1.830 -0.1652 -0.6485 -0.5606
 1108SOL     OW 4476   2.441   4.404   1.973 -0.3353 -0.1995  0.0577
 1108SOL    HW2 4477   2.457   4.410   2.067  0.3154 -0.9843  0.0056
 1108SOL    HW3 4478   2.516   4.354   1.939  0.1871  1.3283 -1.0889
 1108SOL    MW4 4479   2.453   4.398   1.981 -0.1805 -0.1016 -0.1004
 1109SOL     OW 4480   2.914   4.647   1.885  0.1453 -0.1208  0.2675
 1109SOL    HW2 4481   2.976   4.707   1.927 -2.6030  0.8259  3.1691
 1109SOL    HW3 4482   2.929   4.563   1.927  0.5884 -0.2690 -0.1939
 1109SOL    MW4 4483   2.924   4.644   1.896 -0.1588 -0.0153  0.5895
 1110SOL     OW 4484   2.703   0.130   1.966 -0.0089  0.2496  0.2330
 1110SOL    HW2 4485   2.687   0.124   2.060  0.3906 -0.7487  0.2473
 1110SOL    HW3 4486   2.783   0.078   1.952 -0.8425 -0.7836 -0.8433
 1110SOL    MW4 4487   2.712   0.122   1.976 -0.0660 -0.0185  0.0929
 1111SOL     OW 4488   2.721   0.383   1.834 -0.7612 -0.1397  0.1537
 1111SOL    HW2 4489   2.795   0.424   1.878 -0.4324 -0.2725 -0.2678
 1111SOL    HW3 4490   2.717   0.295   1.870  0.1184 -0.5756 -0.7828
 1111SOL    MW4 4491   2.730   0.377   1.844 -0.6018 -0.2147 -0.0255
 1112SOL     OW 4492   2.907   0.504   1.990 -0.1116 -0.0479  0.3722
 1112SOL    HW2 4493   2.997   0.476   1.973 -0.2424 -0.4121  0.2683
 1112SOL    HW3 4494   2.903   0.593   1.956 -0.3286 -0.7107 -1.4144
 1112SOL    MW4 4495   2.918   0.512   1.983 -0.1576 -0.1833  0.1228
 1113SOL     OW 4496   2.890   0.757   1.874 -0.2443 -0.4126  0.3603
 1113SOL    HW2 4497   2.958   0.821   1.898  0.5191 -1.2816  0.5644
 1113SOL    HW3 4498   2.809   0.796   1.907  0.1801  0.5365  0.3221
 1113SOL    MW4 4499   2.888   0.771   1.882 -0.0880 -0.4020  0.3822
 1114SOL     OW 4500   2.660   0.871   1.979 -0.6882 -0.3866  0.4111
 1114SOL    HW2 4501   2.666   0.965   1.961 -0.4771 -0.2584  1.1270
 1114SOL    HW3 4502   2.575   0.845   1.944 -0.1201 -0.2365 -1.1370
 1114SOL    MW4 4503   2.649   0.880   1.972 -0.5851 -0.3498  0.3014
 1115SOL     OW 4504   2.705   1.143   1.881 -0.0433 -0.8101  0.0542
 1115SOL    HW2 4505   2.625   1.196   1.888  0.8943  0.6986 -0.5516
 1115SOL    HW3 4506   2.720   1.134   1.787 -0.6432 -2.8574  0.1403
 1115SOL    MW4 4507   2.696   1.149   1.870  0.0014 -0.8813 -0.0143
 1116SOL     OW 4508   2.934   1.306   1.980  0.6329  0.7643 -0.4332
 1116SOL    HW2 4509   2.917   1.394   1.946 -1.9832  0.6370  0.4619
 1116SOL    HW3 4510   2.874   1.249   1.932  0.2702 -0.0932  1.0094
 1116SOL    MW4 4511   2.924   1.310   1.970  0.2398  0.6343 -0.1248
 1117SOL     OW 4512   2.903   1.537   1.853 -0.2865  0.0173 -0.1586
 1117SOL    HW2 4513   2.988   1.579   1.867  0.4151 -1.4436  0.0322
 1117SOL    HW3 4514   2.894   1.533   1.758  0.1043 -0.3226 -0.1815
 1117SOL    MW4 4515   2.913   1.542   1.842 -0.1421 -0.2203 -0.1364
 1118SOL     OW 4516   2.710   1.681   2.012 -0.3188  0.2269  0.1069
 1118SOL    HW2 4517   2.780   1.618   1.992 -1.3035 -0.6444 -0.6896
 1118SOL    HW3 4518   2.632   1.643   1.971 -1.5601  0.4779  2.1628
 1118SOL    MW4 4519   2.709   1.668   2.004 -0.6125  0.1451  0.2730
 1119SOL     OW 4520   2.698   1.926   1.863 -0.1656  0.4954 -0.1399
 1119SOL    HW2 4521   2.774   1.974   1.895  0.2210 -0.6159  0.6404
 1119SOL    HW3 4522   2.699   1.844   1.912 -2.2924  0.7757  0.3901
 1119SOL    MW4 4523   2.708   1.921   1.873 -0.3953  0.3856  0.0329
 1120SOL     OW 4524   2.914   2.060   1.951 -0.6400 -0.2240 -0.0065
 1120SOL    HW2 4525   2.935   2.053   2.044  0.0068  1.7755  0.0425
 1120SOL    HW3 4526   2.976   2.002   1.907  0.7462  0.7174  0.6551
 1120SOL    MW4 4527   2.925   2.052   1.957 -0.3715  0.1640  0.0873
 1121SOL     OW 4528   2.929   2.317   1.851 -0.8027  0.0541  0.0801
 1121SOL    HW2 4529   2.996   2.372   1.893 -0.7621  0.2312 -0.2180
 1121SOL    HW3 4530   2.935   2.233   1.898 -0.2631  0.0176 -0.0504
 1121SOL    MW4 4531   2.939   2.313   1.863 -0.7260  0.0727  0.0235
 1122SOL     OW 4532   2.720   2.454   1.962  0.3036  0.0906 -0.2668
 1122SOL    HW2 4533   2.725   2.544   1.929 -0.9197 -0.0952 -0.9943
 1122SOL    HW3 4534   2.798   2.411   1.927  0.9050  0.8655  0.1021
 1122SOL    MW4 4535   2.731   2.460   1.953  0.2215  0.1686 -0.3140
 1123SOL     OW 4536   2.717   2.723   1.879 -0.3146  0.1466 -0.4807
 1123SOL    HW2 4537   2.638   2.773   1.900  0.0735  0.2960  0.6119
 1123SOL    HW3 4538   2.724   2.729   1.783 -1.6544  0.0809 -0.5901
 1123SOL    MW4 4539   2.708   2.730   1.869 -0.4401  0.1578 -0.3508
 1124SOL     OW 4540   2.940   2.851   1.968  0.0260 -0.1025  0.0230
 1124SOL    HW2 4541   2.918   2.942   1.949  1.4862  0.2572 -0.0348
 1124SOL    HW3 4542   2.867   2.801   1.933 -0.0021  0.9267 -1.4514
 1124SOL    MW4 4543   2.928   2.857   1.961  0.2148  0.0806 -0.1792
 1125SOL     OW 4544   2.908   3.131   1.884 -0.1175  0.0788  0.1109
 1125SOL    HW2 4545   2.974   3.172   1.940 -0.3037 -0.7151  0.9214
 1125SOL    HW3 4546   2.824   3.163   1.918 -0.1585  1.0070 -0.8523
 1125SOL    MW4 4547   2.906   3.141   1.896 -0.1473  0.0963  0.0908
 1126SOL     OW 4548   2.667   3.234   1.973 -0.3042  0.5098  0.6816
 1126SOL    HW2 4549   2.687   3.313   1.922 -0.3907  0.2306  0.2161
 1126SOL    HW3 4550   2.589   3.198   1.932  0.5325 -0.5788  0.0228
 1126SOL    MW4 4551   2.660   3.240   1.961 -0.2053  0.3295  0.5333
 1127SOL     OW 4552   2.679   3.472   1.833  0.0532 -0.0018  0.5002
 1127SOL    HW2 4553   2.760   3.514   1.862  0.4403  0.0136 -0.5877
 1127SOL    HW3 4554   2.611   3.512   1.886  0.6377  0.7213  0.7133
 1127SOL    MW4 4555   2.681   3.483   1.844  0.1814  0.0956  0.3848
 1128SOL     OW 4556   2.901   3.579   1.949 -0.2229  0.0235 -0.2224
 1128SOL    HW2 4557   2.899   3.589   2.044 -0.0095  0.6601 -0.2877
 1128SOL    HW3 4558   2.992   3.560   1.929 -0.0636  0.9592 -0.4084
 1128SOL    MW4 4559   2.913   3.578   1.959 -0.1736  0.2308 -0.2555
 1129SOL     OW 4560   2.895   3.855   1.882 -0.0530 -0.1106 -0.2193
 1129SOL    HW2 4561   2.898   3.763   1.910  1.8516  0.3777  1.3196
 1129SOL    HW3 4562   2.900   3.851   1.787 -0.8663 -1.6338 -0.2205
 1129SOL    MW4 4563   2.896   3.842   1.873  0.0911 -0.2470 -0.0165
 1130SOL     OW 4564   2.678   4.033   1.971  0.8345 -0.5745  0.3486
 1130SOL    HW2 4565   2.762   3.988   1.964  1.2840  0.3287 -0.0799
 1130SOL    HW3 4566   2.616   3.974   1.927  1.1637 -1.4369  1.0348
 1130SOL    MW4 4567   2.681   4.019   1.964  0.9372 -0.5693  0.3825
 1131SOL     OW 4568   2.673   4.275   1.876  0.3785 -0.0515 -0.5038
 1131SOL    HW2 4569   2.661   4.182   1.894  0.3416  0.2397  0.9871
 1131SOL    HW3 4570   2.680   4.280   1.780  1.5394 -1.7172 -0.5244
 1131SOL    MW4 4571   2.673   4.263   1.866  0.5267 -0.2332 -0.3098
 1132SOL     OW 4572   2.913   4.382   1.970 -0.2839 -0.2885 -0.0603
 1132SOL    HW2 4573   2.907   4.385   2.065  0.1039 -2.0134  0.0336
 1132SOL    HW3 4574   2.826   4.356   1.941 -0.7905  1.5502 -0.2818
 1132SOL    MW4 4575   2.901   4.379   1.979 -0.2997 -0.2732 -0.0771
 1133SOL     OW 4576   3.330   4.657   1.883 -0.0761  0.2562 -0.3405
 1133SOL    HW2 4577   3.335   4.562   1.891  1.2481  0.3173 -0.3738
 1133SOL    HW3 4578   3.335   4.673   1.789 -0.7283  0.3442 -0.3646
 1133SOL    MW4 4579   3.331   4.647   1.872  0.0126  0.2756 -0.3481
 1134SOL     OW 4580   3.120   0.127   1.993  0.0452  0.1004 -0.2064
 1134SOL    HW2 4581   3.133   0.130   2.088 -0.4135  0.1264 -0.1421
 1134SOL    HW3 4582   3.193   0.074   1.960 -0.7580 -1.3904  0.3460
 1134SOL    MW4 4583   3.131   0.120   2.001 -0.1211 -0.0929 -0.1252
 1135SOL     OW 4584   3.141   0.382   1.893  0.2174  0.2420 -0.0198
 1135SOL    HW2 4585   3.137   0.294   1.929  3.5522 -0.0482 -0.2224
 1135SOL    HW3 4586   3.130   0.371   1.799  1.8627 -0.1146 -0.1809
 1135SOL    MW4 4587   3.139   0.369   1.886  0.8743  0.1567 -0.0677
 1136SOL     OW 4588   3.387   0.533   1.952 -0.7181  0.2478 -0.1545
 1136SOL    HW2 4589   3.459   0.484   1.912 -0.5158  1.0261 -0.7516
 1136SOL    HW3 4590   3.309   0.479   1.935 -0.5740  0.3698 -1.2419
 1136SOL    MW4 4591   3.386   0.519   1.945 -0.6723  0.3666 -0.3767
 1137SOL     OW 4592   3.337   0.758   1.834 -0.1433  0.3467 -0.2849
 1137SOL    HW2 4593   3.255   0.793   1.868 -0.1422 -0.2873  0.3789
 1137SOL    HW3 4594   3.347   0.673   1.877 -0.2189 -0.5322 -1.9831
 1137SOL    MW4 4595   3.328   0.752   1.844 -0.1533  0.1471 -0.4214
 1138SOL     OW 4596   3.111   0.880   1.962 -0.7625  0.2341 -0.3648
 1138SOL    HW2 4597   3.115   0.869   2.057 -0.4571 -1.2233 -0.5294
 1138SOL    HW3 4598   3.130   0.973   1.948  1.0334  0.0965  0.9007
 1138SOL    MW4 4599   3.114   0.891   1.972 -0.4852  0.0236 -0.2195
 1139SOL     OW 4600   3.161   1.156   1.867 -0.3222 -0.9610  0.0891
 1139SOL    HW2 4601   3.232   1.209   1.902 -0.1168 -0.2091 -1.4106
 1139SOL    HW3 4602   3.081   1.198   1.899 -0.1678  0.5272 -1.4567
 1139SOL    MW4 4603   3.160   1.168   1.876 -0.2751 -0.6654 -0.3127
 1140SOL     OW 4604   3.382   1.262   1.990 -0.3678 -0.4187 -0.0937
 1140SOL    HW2 4605   3.390   1.256   2.085  0.6059 -0.2118 -0.1653
 1140SOL    HW3 4606   3.395   1.355   1.970 -1.1725 -0.3583 -0.3776
 1140SOL    MW4 4607   3.385   1.273   1.999 -0.3457 -0.3834 -0.1408
 1141SOL     OW 4608   3.378   1.523   1.880  0.6813 -0.1403 -0.2032
 1141SOL    HW2 4609   3.451   1.584   1.893 -0.1470  0.5967  1.1487
 1141SOL    HW3 4610   3.301   1.571   1.910 -0.1530 -1.4523 -0.1949
 1141SOL    MW4 4611   3.377   1.537   1.886  0.4621 -0.2161 -0.0237
 1142SOL     OW 4612   3.146   1.658   1.933  0.2171  0.0166 -0.1132
 1142SOL    HW2 4613   3.165   1.654   2.026  0.9724  0.8827 -0.2291
 1142SOL    HW3 4614   3.147   1.751   1.912 -1.9571 -0.0452 -0.5754
 1142SOL    MW4 4615   3.149   1.670   1.942  0.0298  0.1228 -0.1895
 1143SOL     OW 4616   3.148   1.937   1.852 -0.0961  0.2409  0.2183
 1143SOL    HW2 4617   3.231   1.969   1.888 -0.0746  1.2747 -0.7238
 1143SOL    HW3 4618   3.166   1.922   1.759 -0.8098 -0.1085  0.1331
 1143SOL    MW4 4619   3.161   1.939   1.845 -0.1874  0.3313  0.0827
 1144SOL     OW 4620   3.389   2.051   1.960 -0.2324  0.5864 -0.3032
 1144SOL    HW2 4621   3.461   2.025   1.904 -0.4178  1.9702 -1.1897
 1144SOL    HW3 4622   3.363   2.138   1.929 -0.5557  1.2424  1.6850
 1144SOL    MW4 4623   3.395   2.059   1.949 -0.2995  0.8554 -0.1578
 1145SOL     OW 4624   3.362   2.307   1.865 -0.0946  0.0557 -0.4076
 1145SOL    HW2 4625   3.275   2.342   1.885 -0.5910 -1.3033 -0.1352
 1145SOL    HW3 4626   3.372   2.317   1.770  0.0073  1.4467 -0.2553
 1145SOL    MW4 4627   3.352   2.313   1.855 -0.1466  0.0601 -0.3515
 1146SOL     OW 4628   3.136   2.452   1.957  0.0605  0.2608 -0.1360
 1146SOL    HW2 4629   3.116   2.445   2.051 -1.2109  1.3189 -0.3076
 1146SOL    HW3 4630   3.130   2.545   1.938  0.3405  0.0515 -1.2719
 1146SOL    MW4 4631   3.132   2.463   1.967 -0.0706  0.3729 -0.3085
 1147SOL     OW 4632   3.150   2.715   1.863  0.2493 -0.4563 -0.1851
 1147SOL    HW2 4633   3.079   2.764   1.906  0.8959  0.1367  0.2093
 1147SOL    HW3 4634   3.118   2.702   1.773  0.0999  0.7575 -0.3235
 1147SOL    MW4 4635   3.136   2.720   1.857  0.3152 -0.2177 -0.1513
 1148SOL     OW 4636   3.370   2.851   1.952 -0.1053  0.1536 -0.3510
 1148SOL    HW2 4637   3.358   2.856   2.047  0.2871  0.4099 -0.3131
 1148SOL    HW3 4638   3.298   2.796   1.922 -0.6879  0.6980  0.0078
 1148SOL    MW4 4639   3.359   2.845   1.961 -0.1304  0.2592 -0.2985
 1149SOL     OW 4640   3.297   3.112   1.886  0.3901  0.4486 -0.1000
 1149SOL    HW2 4641   3.380   3.155   1.907  1.1598 -1.5459  1.1681
 1149SOL    HW3 4642   3.308   3.023   1.921 -1.6870 -0.3075 -1.3396
 1149SOL    MW4 4643   3.309   3.106   1.894  0.2177  0.0856 -0.0963
 1150SOL     OW 4644   3.117   3.243   2.035 -0.1705 -0.0182  0.5031
 1150SOL    HW2 4645   3.117   3.329   1.993  0.0600 -0.3041 -0.0916
 1150SOL    HW3 4646   3.180   3.191   1.985 -1.6085 -1.0654 -0.2764
 1150SOL    MW4 4647   3.125   3.247   2.023 -0.3300 -0.1941  0.3219
 1151SOL     OW 4648   3.147   3.477   1.900 -0.3282 -0.1838  0.1787
 1151SOL    HW2 4649   3.227   3.523   1.924  0.3940 -2.1513  1.6644
 1151SOL    HW3 4650   3.144   3.482   1.804  0.6229  1.4398  0.2263
 1151SOL    MW4 4651   3.157   3.484   1.890 -0.1078 -0.2294  0.3809
 1152SOL     OW 4652   3.379   3.618   1.950 -0.0007  0.0548 -0.6412
 1152SOL    HW2 4653   3.463   3.574   1.938  0.8342  1.3457  0.2760
 1152SOL    HW3 4654   3.380   3.689   1.887  0.6479  1.5171  0.9571
 1152SOL    MW4 4655   3.390   3.621   1.940  0.1950  0.4179 -0.3093
 1153SOL     OW 4656   3.377   3.869   1.822 -0.8368  0.0255  0.3933
 1153SOL    HW2 4657   3.291   3.908   1.841 -1.5171 -1.1437 -0.2445
 1153SOL    HW3 4658   3.377   3.858   1.727 -0.2178 -0.5201  0.4574
 1153SOL    MW4 4659   3.366   3.873   1.812 -0.8450 -0.2007  0.3176
 1154SOL     OW 4660   3.136   3.975   1.943  0.2619 -0.0855  0.1195
 1154SOL    HW2 4661   3.153   3.985   2.037 -0.3054  0.6885  0.1417
 1154SOL    HW3 4662   3.052   3.931   1.937 -0.1215  0.6616 -0.0315
 1154SOL    MW4 4663   3.127   3.970   1.954  0.1361  0.1152  0.1026
 1155SOL     OW 4664   3.114   4.238   1.842  0.0613  0.2838  0.4215
 1155SOL    HW2 4665   3.105   4.146   1.868  1.9585 -0.1107 -0.2245
 1155SOL    HW3 4666   3.042   4.283   1.886 -0.6451 -1.4493  1.0675
 1155SOL    MW4 4667   3.103   4.232   1.851  0.2184  0.0029  0.4215
 1156SOL     OW 4668   3.347   4.382   1.942  0.7059 -0.4018  0.0627
 1156SOL    HW2 4669   3.422   4.342   1.898  1.5843  0.3035  0.9119
 1156SOL    HW3 4670   3.271   4.349   1.894  1.5238 -1.5477 -0.4662
 1156SOL    MW4 4671   3.347   4.372   1.930  0.9298 -0.4597  0.1050
 1157SOL     OW 4672   3.827   4.627   1.888  0.2778 -0.3480 -0.5409
 1157SOL    HW2 4673   3.814   4.546   1.937 -0.9679 -0.0905 -0.4194
 1157SOL    HW3 4674   3.741   4.670   1.890  1.1295  1.3542  0.0749
 1157SOL    MW4 4675   3.814   4.622   1.894  0.2258 -0.0892 -0.4437
 1158SOL     OW 4676   3.571   0.112   1.950 -0.1140 -0.4431  0.1769
 1158SOL    HW2 4677   3.589   0.123   2.043 -1.3007  0.0097  0.3699
 1158SOL    HW3 4678   3.477   0.089   1.947 -0.2194  0.1111 -0.9385
 1158SOL    MW4 4679   3.561   0.110   1.962 -0.2844 -0.3102  0.0551
 1159SOL     OW 4680   3.584   0.356   1.854  0.3385  0.0108 -0.3537
 1159SOL    HW2 4681   3.568   0.264   1.876  0.1181 -0.2224 -1.4415
 1159SOL    HW3 4682   3.603   0.355   1.760  3.4029  0.6798  0.1870
 1159SOL    MW4 4683   3.585   0.344   1.845  0.7136  0.0683 -0.4259
 1160SOL     OW 4684   3.768   0.486   2.009  0.0305  0.1556  0.0281
 1160SOL    HW2 4685   3.786   0.567   1.962  1.9723 -0.7089 -0.7686
 1160SOL    HW3 4686   3.698   0.443   1.959  0.1034  0.5860 -0.4364
 1160SOL    MW4 4687   3.761   0.491   1.996  0.2964  0.0983 -0.1383
 1161SOL     OW 4688   3.805   0.735   1.858 -0.3590  0.5669 -0.4668
 1161SOL    HW2 4689   3.725   0.784   1.879 -0.7443 -0.0534 -0.4603
 1161SOL    HW3 4690   3.818   0.750   1.764 -0.2596  0.9991 -0.3822
 1161SOL    MW4 4691   3.796   0.743   1.848 -0.3967  0.5420 -0.4549
 1162SOL     OW 4692   3.576   0.861   1.964  0.5895 -0.5805  0.0270
 1162SOL    HW2 4693   3.579   0.952   1.935 -0.2890 -0.4416  0.3520
 1162SOL    HW3 4694   3.498   0.825   1.922  0.1221 -0.7769  1.0501
 1162SOL    MW4 4695   3.566   0.868   1.955  0.4117 -0.5881  0.2048
 1163SOL     OW 4696   3.595   1.116   1.889  0.2716  0.2469 -0.3001
 1163SOL    HW2 4697   3.518   1.165   1.916  1.6791  1.0384  2.4392
 1163SOL    HW3 4698   3.600   1.129   1.794 -0.6135  3.6318  0.0619
 1163SOL    MW4 4699   3.586   1.124   1.880  0.3405  0.7980  0.1092
 1164SOL     OW 4700   3.788   1.303   1.966  0.1482 -0.1535 -0.4461
 1164SOL    HW2 4701   3.790   1.280   2.059  0.5681  0.2684 -0.3521
 1164SOL    HW3 4702   3.722   1.245   1.928 -0.4897  0.1163  0.2404
 1164SOL    MW4 4703   3.779   1.293   1.973  0.1194 -0.0622 -0.3431
 1165SOL     OW 4704   3.776   1.554   1.880  0.0513 -0.2076  0.1019
 1165SOL    HW2 4705   3.852   1.600   1.915 -1.2727  0.6017  2.0041
 1165SOL    HW3 4706   3.785   1.464   1.912  1.5313 -0.7734 -1.8383
 1165SOL    MW4 4707   3.787   1.548   1.889  0.0720 -0.1755  0.0969
 1166SOL     OW 4708   3.567   1.716   1.962 -0.0589 -0.0151 -0.3056
 1166SOL    HW2 4709   3.578   1.794   1.907  2.7630 -0.2369 -0.1369
 1166SOL    HW3 4710   3.639   1.659   1.936 -1.4403 -2.1334  0.3629
 1166SOL    MW4 4711   3.578   1.719   1.951  0.1311 -0.3239 -0.1951
 1167SOL     OW 4712   3.601   1.938   1.812 -0.2558  0.5653  0.2581
 1167SOL    HW2 4713   3.673   1.991   1.846  1.0595 -1.1494  0.1799
 1167SOL    HW3 4714   3.603   1.952   1.717  1.0130 -0.7333  0.0795
 1167SOL    MW4 4715   3.611   1.947   1.804  0.0851  0.1678  0.2242
 1168SOL     OW 4716   3.825   2.107   1.960 -0.0801  0.0980  0.1784
 1168SOL    HW2 4717   3.888   2.045   1.924 -0.4592  0.0988 -0.5150
 1168SOL    HW3 4718   3.850   2.192   1.922 -1.5274 -0.1863 -1.5004
 1168SOL    MW4 4719   3.836   2.110   1.950 -0.3209  0.0608 -0.1346
 1169SOL     OW 4720   3.877   2.340   1.837 -0.6670  0.0199 -0.2908
 1169SOL    HW2 4721   3.940   2.388   1.891 -0.0146  0.5451 -1.4955
 1169SOL    HW3 4722   3.794   2.351   1.882 -0.1036  0.2981  0.7060
 1169SOL    MW4 4723   3.875   2.348   1.850 -0.5066  0.1261 -0.3184
 1170SOL     OW 4724   3.614   2.419   1.918 -0.2366  0.1873 -0.1472
 1170SOL    HW2 4725   3.613   2.509   1.886  0.8782 -0.3917 -1.8872
 1170SOL    HW3 4726   3.528   2.384   1.895 -1.0006  1.0297  1.3044
 1170SOL    MW4 4727   3.603   2.426   1.911 -0.1903  0.2220 -0.1853
 1171SOL     OW 4728   3.579   2.694   1.845 -0.3345 -0.0393  0.3894
 1171SOL    HW2 4729   3.650   2.748   1.879  0.1255 -0.6659  0.4394
 1171SOL    HW3 4730   3.500   2.725   1.890 -0.1537  0.8836  0.0845
 1171SOL    MW4 4731   3.578   2.705   1.855 -0.2499  0.0000  0.3557
 1172SOL     OW 4732   3.766   2.857   1.942  0.0481 -0.3201 -0.8666
 1172SOL    HW2 4733   3.753   2.876   2.035  1.2498  0.9644 -0.9432
 1172SOL    HW3 4734   3.769   2.943   1.900  1.4921 -0.8160 -1.8118
 1172SOL    MW4 4735   3.765   2.870   1.949  0.3970 -0.2160 -1.0015
 1173SOL     OW 4736   3.777   3.098   1.843  0.2778  0.0344  0.0619
 1173SOL    HW2 4737   3.699   3.149   1.863  0.3018  0.3628 -0.6644
 1173SOL    HW3 4738   3.787   3.105   1.748  0.9000 -0.4235  0.0880
 1173SOL    MW4 4739   3.768   3.106   1.833  0.3629  0.0174 -0.0305
 1174SOL     OW 4740   3.557   3.225   1.928  0.5622 -0.7957  0.0592
 1174SOL    HW2 4741   3.558   3.225   2.023 -0.7369  0.4301  0.0872
 1174SOL    HW3 4742   3.558   3.317   1.903  1.1996 -1.1122 -1.1168
 1174SOL    MW4 4743   3.557   3.237   1.937  0.4747 -0.6757 -0.0923
 1175SOL     OW 4744   3.595   3.480   1.864 -0.7758 -0.4673 -0.3129
 1175SOL    HW2 4745   3.665   3.540   1.891 -1.2587 -0.3800  0.7748
 1175SOL    HW3 4746   3.592   3.488   1.769  0.8141 -0.6090 -0.3795
 1175SOL    MW4 4747   3.604   3.489   1.855 -0.6297 -0.4747 -0.1781
 1176SOL     OW 4748   3.795   3.640   1.945 -0.2468 -0.0340  0.2041
 1176SOL    HW2 4749   3.870   3.598   1.902 -1.1667 -1.1524 -0.3320
 1176SOL    HW3 4750   3.791   3.727   1.907  0.0038 -0.4220 -0.7176
 1176SOL    MW4 4751   3.805   3.646   1.934 -0.3352 -0.2329  0.0118
 1177SOL     OW 4752   3.841   3.896   1.801  0.5560 -0.2204 -0.2432
 1177SOL    HW2 4753   3.759   3.928   1.838  0.6946 -2.3336  2.0982
 1177SOL    HW3 4754   3.821   3.875   1.710 -1.2995  0.0137  0.0975
 1177SOL    MW4 4755   3.827   3.897   1.794  0.3295 -0.4680  0.1106
 1178SOL     OW 4756   3.595   3.978   1.930 -0.3836 -0.5715  0.0937
 1178SOL    HW2 4757   3.586   3.974   2.025  0.3128  1.5328  0.2726
 1178SOL    HW3 4758   3.511   3.946   1.897 -1.3256  0.4030  1.4655
 1178SOL    MW4 4759   3.583   3.973   1.938 -0.4160 -0.1650  0.2983
 1179SOL     OW 4760   3.577   4.253   1.849  0.0280 -0.5880  0.1308
 1179SOL    HW2 4761   3.632   4.302   1.910  0.3865  0.6041 -1.1005
 1179SOL    HW3 4762   3.574   4.164   1.884 -0.4907  0.2796  2.3289
 1179SOL    MW4 4763   3.584   4.248   1.862  0.0069 -0.3161  0.2583
 1180SOL     OW 4764   3.774   4.362   2.002 -0.4901  0.1985  0.0885
 1180SOL    HW2 4765   3.797   4.355   2.095 -0.4280  0.6911  0.1148
 1180SOL    HW3 4766   3.838   4.307   1.957 -0.9050 -0.5379  0.3874
 1180SOL    MW4 4767   3.786   4.354   2.008 -0.5364  0.1659  0.1316
 1181SOL     OW 4768   4.256   4.662   1.843 -0.3831 -0.8450  0.6387
 1181SOL    HW2 4769   4.186   4.720   1.871 -0.1577 -0.2665  0.0046
 1181SOL    HW3 4770   4.334   4.695   1.888 -0.4426 -1.2816  1.0758
 1181SOL    MW4 4771   4.257   4.674   1.853 -0.3614 -0.8263  0.6127
 1182SOL     OW 4772   4.054   0.103   1.981  0.5199 -0.3956 -0.0579
 1182SOL    HW2 4773   4.056   0.094   2.077 -0.8441 -0.3817 -0.0140
 1182SOL    HW3 4774   3.976   0.055   1.954  0.1681  0.6883 -1.0347
 1182SOL    MW4 4775   4.044   0.096   1.990  0.2933 -0.2508 -0.1810
 1183SOL     OW 4776   4.007   0.372   1.903  0.0467 -0.1818  0.2896
 1183SOL    HW2 4777   4.015   0.277   1.914  0.5571 -0.0384  1.2503
 1183SOL    HW3 4778   3.922   0.394   1.943 -0.2571 -0.2864 -0.2964
 1183SOL    MW4 4779   3.997   0.363   1.910  0.0737 -0.1767  0.3390
 1184SOL     OW 4780   4.258   0.479   1.968 -0.1134  0.2398 -0.1554
 1184SOL    HW2 4781   4.264   0.470   2.063 -0.4141 -2.0129 -0.3078
 1184SOL    HW3 4782   4.176   0.436   1.945  0.1180  0.4629 -1.4738
 1184SOL    MW4 4783   4.248   0.472   1.978 -0.1230 -0.0280 -0.3494
 1185SOL     OW 4784   4.228   0.751   1.917  0.3165 -0.2931  0.1172
 1185SOL    HW2 4785   4.238   0.663   1.952 -0.6734 -0.5789 -0.2991
 1185SOL    HW3 4786   4.220   0.739   1.822 -0.8824  0.1505  0.1523
 1185SOL    MW4 4787   4.228   0.738   1.909  0.0281 -0.2722  0.0670
 1186SOL     OW 4788   3.999   0.887   1.995  0.1049 -0.3466  0.0668
 1186SOL    HW2 4789   4.079   0.838   1.975  0.8224  0.8566 -0.0228
 1186SOL    HW3 4790   3.929   0.835   1.955  0.8608 -1.2609 -0.0905
 1186SOL    MW4 4791   4.001   0.873   1.987  0.2990 -0.3085  0.0340
 1187SOL     OW 4792   4.026   1.141   1.881  0.0182  0.1670  0.0786
 1187SOL    HW2 4793   3.997   1.055   1.913 -0.2567  0.2487  0.0492
 1187SOL    HW3 4794   3.959   1.202   1.913  0.3202  0.3961  0.2685
 1187SOL    MW4 4795   4.013   1.138   1.890  0.0219  0.2080  0.0999
 1188SOL     OW 4796   4.243   1.284   1.984  0.2150  0.0176 -0.4555
 1188SOL    HW2 4797   4.230   1.295   2.078  0.8311 -0.2159 -0.3413
 1188SOL    HW3 4798   4.171   1.227   1.957  1.0510 -1.3757  0.1938
 1188SOL    MW4 4799   4.231   1.278   1.993  0.4067 -0.1969 -0.3548
 1189SOL     OW 4800   4.310   1.530   1.875 -0.4262 -0.4045 -0.3378
 1189SOL    HW2 4801   4.291   1.442   1.905 -1.8237 -0.4100 -1.1953
 1189SOL    HW3 4802   4.296   1.527   1.780 -0.5331  0.7418 -0.3749
 1189SOL    MW4 4803   4.306   1.518   1.866 -0.6251 -0.2540 -0.4559
 1190SOL     OW 4804   4.059   1.654   1.950  0.3662 -0.1637 -0.3157
 1190SOL    HW2 4805   4.059   1.639   2.044 -0.6466  1.9526  0.0483
 1190SOL    HW3 4806   4.150   1.640   1.923  0.7341 -0.4118  1.0369
 1190SOL    MW4 4807   4.071   1.650   1.959  0.2813  0.0829 -0.0893
 1191SOL     OW 4808   4.031   1.944   1.862 -0.0843 -0.2624 -0.4011
 1191SOL    HW2 4809   4.033   1.851   1.884  0.2913 -0.3345 -0.7375
 1191SOL    HW3 4810   4.009   1.947   1.769  0.0015 -0.0171 -0.4153
 1191SOL    MW4 4811   4.028   1.932   1.853 -0.0238 -0.2396 -0.4474
 1192SOL     OW 4812   4.261   2.055   1.968  0.1347  0.3461 -0.0786
 1192SOL    HW2 4813   4.248   2.063   2.063  1.8245  0.5639  0.1458
 1192SOL    HW3 4814   4.187   2.002   1.938 -1.3503  1.6904  1.1021
 1192SOL    MW4 4815   4.249   2.049   1.977  0.1616  0.5522  0.1067
 1193SOL     OW 4816   4.244   2.325   1.886  0.4549  0.0920  0.1664
 1193SOL    HW2 4817   4.247   2.234   1.915  2.6135  0.1450  0.1489
 1193SOL    HW3 4818   4.325   2.363   1.918 -1.0447  2.3815  1.3228
 1193SOL    MW4 4819   4.255   2.318   1.894  0.5412  0.4013  0.3167
 1194SOL     OW 4820   4.046   2.501   1.991 -0.0210  0.1634 -0.0945
 1194SOL    HW2 4821   4.066   2.491   2.084 -4.0843 -1.3978  0.7164
 1194SOL    HW3 4822   4.106   2.442   1.947 -0.5440 -1.9637  1.9151
 1194SOL    MW4 4823   4.056   2.492   1.998 -0.6261 -0.3233  0.2778
 1195SOL     OW 4824   4.006   2.754   1.855  0.1320 -0.2919 -0.8795
 1195SOL    HW2 4825   4.008   2.679   1.915 -0.1392  0.1326 -0.3363
 1195SOL    HW3 4826   3.927   2.802   1.880  0.9430  0.8220 -0.4544
 1195SOL    MW4 4827   3.996   2.750   1.866  0.2027 -0.0889 -0.7517
 1196SOL     OW 4828   4.230   2.853   1.958  0.0251  0.1082  0.0487
 1196SOL    HW2 4829   4.232   2.836   2.052 -0.8719 -0.8901 -0.1006
 1196SOL    HW3 4830   4.139   2.840   1.933 -0.0865  2.1466 -0.6537
 1196SOL    MW4 4831   4.219   2.849   1.967 -0.1078  0.2456 -0.0637
 1197SOL     OW 4832   4.237   3.123   1.860 -0.1583 -0.0364 -0.3662
 1197SOL    HW2 4833   4.154   3.164   1.886 -1.2880 -1.4491 -1.6986
 1197SOL    HW3 4834   4.235   3.036   1.901 -0.2116 -0.8114 -1.9945
 1197SOL    MW4 4835   4.226   3.117   1.869 -0.3147 -0.3250 -0.7567
 1198SOL     OW 4836   4.001   3.246   1.932  0.6054  0.2630 -0.1160
 1198SOL    HW2 4837   4.006   3.251   2.027 -0.2327  1.8445 -0.1472
 1198SOL    HW3 4838   3.930   3.184   1.915 -0.2247  1.0961  0.2902
 1198SOL    MW4 4839   3.993   3.238   1.942  0.3850  0.5815 -0.0663
 1199SOL     OW 4840   4.036   3.513   1.847  0.2964  0.0781  0.0238
 1199SOL    HW2 4841   4.128   3.529   1.866  0.1736  0.1768  0.5514
 1199SOL    HW3 4842   4.021   3.422   1.874  0.3192 -0.0358 -0.3546
 1199SOL    MW4 4843   4.046   3.503   1.853  0.2832  0.0761  0.0434
 1200SOL     OW 4844   4.281   3.615   1.945 -0.3879 -0.4514  0.6018
 1200SOL    HW2 4845   4.280   3.695   1.892  0.2375 -0.8069  0.0472
 1200SOL    HW3 4846   4.360   3.569   1.918 -0.2127 -0.7817  1.6408
 1200SOL    MW4 4847   4.291   3.619   1.934 -0.2823 -0.5417  0.6657
 1201SOL     OW 4848   4.241   3.854   1.806 -0.3863 -0.3955  0.0450
 1201SOL    HW2 4849   4.322   3.902   1.822  0.0163 -1.5080  1.4551
 1201SOL    HW3 4850   4.245   3.831   1.713  1.7147 -1.8844  0.4714
 1201SOL    MW4 4851   4.252   3.857   1.796 -0.0558 -0.7384  0.2873
 1202SOL     OW 4852   4.052   4.000   1.929 -0.0014  0.4806 -0.1295
 1202SOL    HW2 4853   4.125   3.959   1.883 -0.4254 -0.1657 -0.2181
 1202SOL    HW3 4854   3.974   3.959   1.893 -0.4564  1.6623 -0.5349
 1202SOL    MW4 4855   4.052   3.989   1.918 -0.1178  0.5512 -0.1948
 1203SOL     OW 4856   3.987   4.258   1.856  0.8896  0.1027 -0.1345
 1203SOL    HW2 4857   4.062   4.314   1.871  0.3102  0.3717  1.8428
 1203SOL    HW3 4858   4.015   4.171   1.886  0.9439 -0.1615 -0.9141
 1203SOL    MW4 4859   4.001   4.254   1.862  0.8206  0.1035  0.0235
 1204SOL     OW 4860   4.221   4.413   1.935 -0.0653 -0.2579 -0.1625
 1204SOL    HW2 4861   4.220   4.407   2.030  0.6910 -0.1873 -0.1511
 1204SOL    HW3 4862   4.239   4.505   1.916 -0.1382 -0.2853 -0.3742
 1204SOL    MW4 4863   4.223   4.424   1.945  0.0248 -0.2522 -0.1889
 1205SOL     OW 4864   0.242   4.663   2.369 -0.1142  0.1981  0.2186
 1205SOL    HW2 4865   0.253   4.657   2.464  0.1453 -0.8632  0.1331
 1205SOL    HW3 4866   0.330   4.684   2.336 -0.2863  0.9641  0.2397
 1205SOL    MW4 4867   0.255   4.665   2.377 -0.1026  0.1588  0.2100
 1206SOL     OW 4868   4.478   0.073   2.256  0.4393  0.2371  0.4193
 1206SOL    HW2 4869   4.566   0.045   2.279 -0.1608 -1.8580  0.3390
 1206SOL    HW3 4870   4.477   0.072   2.160  0.5845  1.1579  0.4014
 1206SOL    MW4 4871   4.489   0.069   2.246  0.3796  0.0822  0.4065
 1207SOL     OW 4872   4.466   0.345   2.365 -0.2998 -0.1340  0.0825
 1207SOL    HW2 4873   4.539   0.388   2.319  0.3933 -1.0686  0.3095
 1207SOL    HW3 4874   4.473   0.253   2.341 -0.0609 -0.6030  1.8979
 1207SOL    MW4 4875   4.477   0.339   2.356 -0.1769 -0.3192  0.3519
 1208SOL     OW 4876   0.201   0.444   2.248  0.1933  0.5919 -0.3971
 1208SOL    HW2 4877   0.274   0.391   2.278 -0.1940 -0.3096 -1.0103
 1208SOL    HW3 4878   0.219   0.459   2.155 -1.4242 -1.4090 -1.0816
 1208SOL    MW4 4879   0.213   0.439   2.239 -0.0712  0.2090 -0.5686
 1209SOL     OW 4880   0.160   0.720   2.318  0.3801  0.1641 -0.1495
 1209SOL    HW2 4881   0.177   0.721   2.413 -2.3059  1.8495  0.3652
 1209SOL    HW3 4882   0.172   0.629   2.293 -0.7546 -0.6959  2.2142
 1209SOL    MW4 4883   0.164   0.708   2.327 -0.1240  0.2730  0.2301
 1210SOL     OW 4884   4.443   0.908   2.238  0.4869 -0.2219 -0.3172
 1210SOL    HW2 4885   4.513   0.856   2.279 -0.5066 -0.5312  1.0309
 1210SOL    HW3 4886   4.461   0.902   2.145  1.0160 -2.1205 -0.1259
 1210SOL    MW4 4887   4.455   0.900   2.231  0.4258 -0.5132 -0.1142
 1211SOL     OW 4888   0.013   1.163   2.334 -0.3284 -0.3500  0.3545
 1211SOL    HW2 4889   0.019   1.164   2.429 -0.5404 -1.0326  0.3830
 1211SOL    HW3 4890  -0.018   1.074   2.313 -0.9223  0.0060 -0.3070
 1211SOL    MW4 4891   0.010   1.151   2.344 -0.4348 -0.3929  0.2708
 1212SOL     OW 4892   0.219   1.295   2.231 -0.0666 -0.1343 -0.3701
 1212SOL    HW2 4893   0.144   1.241   2.253 -0.0766 -0.0984 -0.3168
 1212SOL    HW3 4894   0.219   1.298   2.135  0.3245 -0.7797 -0.3979
 1212SOL    MW4 4895   0.209   1.288   2.221 -0.0163 -0.2147 -0.3669
 1213SOL     OW 4896   0.263   1.554   2.375 -1.1357 -0.2323  0.0888
 1213SOL    HW2 4897   0.268   1.548   2.470  0.2079  0.2464  0.0545
 1213SOL    HW3 4898   0.246   1.465   2.346 -2.2049 -0.2753  0.8016
 1213SOL    MW4 4899   0.261   1.542   2.383 -1.0995 -0.1748  0.1783
 1214SOL     OW 4900   0.007   1.699   2.270 -0.2107  0.0059  0.3619
 1214SOL    HW2 4901   0.005   1.793   2.292  0.8209 -0.0622  0.7973
 1214SOL    HW3 4902   0.086   1.666   2.315 -0.4239 -1.0141 -0.0044
 1214SOL    MW4 4903   0.017   1.707   2.279 -0.1027 -0.1376  0.3710
 1215SOL     OW 4904   0.034   1.956   2.373  0.4384  0.1114 -0.5376
 1215SOL    HW2 4905  -0.042   2.008   2.346 -0.9012 -0.9457  1.0664
 1215SOL    HW3 4906   0.109   2.013   2.357 -0.6150  0.9701 -2.7213
 1215SOL    MW4 4907   0.034   1.970   2.367  0.1225  0.0851 -0.6142
 1216SOL     OW 4908   0.237   2.101   2.283  0.0857  0.2704 -0.1928
 1216SOL    HW2 4909   0.324   2.060   2.284 -0.1053 -0.1333  0.3208
 1216SOL    HW3 4910   0.221   2.122   2.191  0.4567 -0.2357 -0.3746
 1216SOL    MW4 4911   0.247   2.098   2.271  0.1094  0.1504 -0.1490
 1217SOL     OW 4912   0.259   2.359   2.363 -0.1536 -0.1553 -0.1683
 1217SOL    HW2 4913   0.227   2.357   2.453  0.2779  1.4155  0.0250
 1217SOL    HW3 4914   0.242   2.271   2.330 -1.8069 -0.2693  0.9266
 1217SOL    MW4 4915   0.252   2.347   2.371 -0.3148  0.0370  0.0014
 1218SOL     OW 4916   0.041   2.469   2.223  0.4657  0.8869  0.0120
 1218SOL    HW2 4917   0.013   2.554   2.257 -0.2075 -0.5784  3.2618
 1218SOL    HW3 4918   0.115   2.443   2.277 -0.0946 -1.1458 -0.1360
 1218SOL    MW4 4919   0.047   2.477   2.235  0.3029  0.4253  0.4210
 1219SOL     OW 4920   4.479   2.701   2.350  0.1855 -0.5336  0.1112
 1219SOL    HW2 4921   4.471   2.703   2.446  0.5495 -0.3388  0.1364
 1219SOL    HW3 4922   4.562   2.744   2.332 -1.3063  2.2426 -0.4606
 1219SOL    MW4 4923   4.489   2.707   2.361  0.0358 -0.1416  0.0391
 1220SOL     OW 4924   0.201   2.829   2.239  0.5857  0.0796  0.4170
 1220SOL    HW2 4925   0.291   2.802   2.254  0.2127 -1.1736  0.4561
 1220SOL    HW3 4926   0.183   2.807   2.148 -0.4586 -2.0345  1.0892
 1220SOL    MW4 4927   0.210   2.822   2.229  0.3988 -0.3645  0.5109
 1221SOL     OW 4928   0.256   3.079   2.368 -0.4993 -0.0079 -0.2481
 1221SOL    HW2 4929   0.177   3.126   2.340  0.4072  0.9701 -1.1736
 1221SOL    HW3 4930   0.258   3.001   2.312  0.8810  1.5464 -2.4515
 1221SOL    MW4 4931   0.246   3.075   2.357 -0.1976  0.3264 -0.6609
 1222SOL     OW 4932   0.036   3.189   2.236 -0.2558  0.2053 -0.1093
 1222SOL    HW2 4933   0.012   3.278   2.261 -1.0664  0.1944 -0.8553
 1222SOL    HW3 4934   0.027   3.187   2.141 -1.1426 -0.9434 -0.0080
 1222SOL    MW4 4935   0.032   3.200   2.227 -0.4797  0.0522 -0.1941
 1223SOL     OW 4936   0.020   3.456   2.287  0.2978  0.6980 -0.0305
 1223SOL    HW2 4937   0.016   3.466   2.382  0.8389  0.2704  0.0396
 1223SOL    HW3 4938  -0.063   3.492   2.256  0.3597  1.3458  0.5555
 1223SOL    MW4 4939   0.008   3.462   2.296  0.3777  0.7272  0.0560
 1224SOL     OW 4940   0.248   3.587   2.239  0.0154  0.0288  0.0066
 1224SOL    HW2 4941   0.317   3.538   2.284 -0.7550 -0.1568  0.9908
 1224SOL    HW3 4942   0.168   3.538   2.255 -1.3485  3.2096  3.7537
 1224SOL    MW4 4943   0.247   3.574   2.247 -0.2663  0.4237  0.6311
 1225SOL     OW 4944   0.232   3.840   2.336  0.0650  0.3091 -0.9028
 1225SOL    HW2 4945   0.167   3.879   2.278 -1.6911 -0.2466  0.6286
 1225SOL    HW3 4946   0.246   3.752   2.300 -1.4322 -0.2326 -0.1941
 1225SOL    MW4 4947   0.225   3.833   2.324 -0.3642  0.1643 -0.6073
 1226SOL     OW 4948   0.035   3.964   2.190 -0.0476  0.1685  0.1901
 1226SOL    HW2 4949   0.006   4.047   2.228  1.3841  0.7970 -0.0634
 1226SOL    HW3 4950   0.022   3.975   2.096 -2.1254 -0.8057  0.3480
 1226SOL    MW4 4951   0.030   3.977   2.183 -0.1328  0.1230  0.1771
 1227SOL     OW 4952   4.466   4.228   2.300  0.0487 -0.1149 -0.2621
 1227SOL    HW2 4953   4.452   4.245   2.393 -0.2717  0.0018 -0.3331
 1227SOL    HW3 4954   4.551   4.267   2.282  0.0890 -0.0902 -0.0295
 1227SOL    MW4 4955   4.475   4.235   2.310  0.0119 -0.0963 -0.2408
 1228SOL     OW 4956   0.220   4.393   2.239  0.1299 -0.0168 -0.3351
 1228SOL    HW2 4957   0.295   4.339   2.264  0.6230  0.7596 -0.1484
 1228SOL    HW3 4958   0.221   4.466   2.300 -0.7428  0.0361 -0.3733
 1228SOL    MW4 4959   0.230   4.395   2.250  0.0798  0.0925 -0.3157
 1229SOL     OW 4960   0.707   4.648   2.351 -0.4651  0.0528  0.3564
 1229SOL    HW2 4961   0.678   4.660   2.442  0.5879 -0.7914  0.8186
 1229SOL    HW3 4962   0.773   4.715   2.337  0.1604 -0.5115  0.5753
 1229SOL    MW4 4963   0.712   4.658   2.361 -0.2436 -0.1335  0.4461
 1230SOL     OW 4964   0.481   0.077   2.242 -0.2832 -0.6173 -0.1566
 1230SOL    HW2 4965   0.560   0.032   2.275 -0.7553 -1.7229 -0.5004
 1230SOL    HW3 4966   0.495   0.083   2.147 -0.4843 -0.5427 -0.1807
 1230SOL    MW4 4967   0.493   0.072   2.234 -0.3719 -0.7533 -0.2053
 1231SOL     OW 4968   0.444   0.341   2.310  0.1384  0.0524  0.5311
 1231SOL    HW2 4969   0.433   0.349   2.405 -1.4979  0.2146  0.3301
 1231SOL    HW3 4970   0.459   0.247   2.296  0.6656  0.0664  0.9758
 1231SOL    MW4 4971   0.445   0.330   2.321 -0.0079  0.0756  0.5631
 1232SOL     OW 4972   0.655   0.497   2.242  0.4776 -0.2401  0.2782
 1232SOL    HW2 4973   0.655   0.583   2.285  2.6319 -0.7080  1.2888
 1232SOL    HW3 4974   0.578   0.452   2.279  0.4336  0.5513  1.1783
 1232SOL    MW4 4975   0.645   0.503   2.252  0.7560 -0.1974  0.5307
 1233SOL     OW 4976   0.633   0.760   2.331  0.0176  0.5340  0.2059
 1233SOL    HW2 4977   0.628   0.758   2.426 -0.9204  0.6321  0.1568
 1233SOL    HW3 4978   0.547   0.789   2.302  0.0745 -0.1513 -0.6938
 1233SOL    MW4 4979   0.621   0.763   2.340 -0.0986  0.4566  0.0806
 1234SOL     OW 4980   0.393   0.870   2.236 -0.1032 -0.4174  0.2315
 1234SOL    HW2 4981   0.310   0.823   2.247  0.1464 -0.9764 -0.3191
 1234SOL    HW3 4982   0.411   0.866   2.142  0.8263 -0.7564  0.4246
 1234SOL    MW4 4983   0.384   0.864   2.225  0.0524 -0.5358  0.1843
 1235SOL     OW 4984   0.442   1.137   2.341 -0.0720 -0.3126 -0.2376
 1235SOL    HW2 4985   0.439   1.047   2.307 -0.0897 -0.0854 -0.8395
 1235SOL    HW3 4986   0.363   1.178   2.308 -0.5278 -0.3351  0.7991
 1235SOL    MW4 4987   0.432   1.130   2.332 -0.1344 -0.2855 -0.1802
 1236SOL     OW 4988   0.666   1.281   2.238  0.0145 -0.3535 -0.0195
 1236SOL    HW2 4989   0.665   1.362   2.288  0.1394  0.2006 -0.8986
 1236SOL    HW3 4990   0.588   1.233   2.268  0.5594 -0.4135  1.3057
 1236SOL    MW4 4991   0.655   1.285   2.248  0.1029 -0.2882  0.0391
 1237SOL     OW 4992   0.682   1.519   2.363 -0.2309 -0.3894 -0.1918
 1237SOL    HW2 4993   0.682   1.498   2.457  0.4660 -0.4608 -0.2056
 1237SOL    HW3 4994   0.761   1.572   2.350 -1.8974  2.1668 -0.1997
 1237SOL    MW4 4995   0.693   1.523   2.374 -0.3589 -0.0615 -0.1945
 1238SOL     OW 4996   0.487   1.668   2.242 -0.4346  0.2525  0.2915
 1238SOL    HW2 4997   0.564   1.621   2.274  0.2034  0.5256 -0.8203
 1238SOL    HW3 4998   0.413   1.618   2.277  0.2372 -0.8977  0.1044
 1238SOL    MW4 4999   0.487   1.655   2.251 -0.2618  0.1367  0.1204
 1239SOL     OW 5000   0.466   1.936   2.314 -0.0251 -0.2518  0.4503
 1239SOL    HW2 5001   0.549   1.978   2.290 -1.4499  1.1252 -2.3546
 1239SOL    HW3 5002   0.474   1.847   2.279  0.5031 -0.3324  0.7624
 1239SOL    MW4 5003   0.478   1.930   2.306 -0.1434 -0.0807  0.1214
 1240SOL     OW 5004   0.700   2.047   2.241  0.1168  0.2663  0.0075
 1240SOL    HW2 5005   0.779   2.004   2.273 -1.1866 -0.4743  2.2593
 1240SOL    HW3 5006   0.711   2.139   2.265  0.1922  0.1232  0.5145
 1240SOL    MW4 5007   0.712   2.053   2.248 -0.0452  0.1497  0.3717
 1241SOL     OW 5008   0.666   2.325   2.303 -0.3597 -0.2035  0.4329
 1241SOL    HW2 5009   0.665   2.317   2.399 -1.6733  0.6728  0.5087
 1241SOL    HW3 5010   0.746   2.374   2.284 -0.4383  0.2089  1.1397
 1241SOL    MW4 5011   0.677   2.330   2.313 -0.5433 -0.0336  0.5362
 1242SOL     OW 5012   0.455   2.473   2.193  0.4281 -0.3645  0.2875
 1242SOL    HW2 5013   0.535   2.428   2.220  0.9043  0.0701 -0.3908
 1242SOL    HW3 5014   0.390   2.445   2.258  1.4057  0.2278  1.5534
 1242SOL    MW4 5015   0.457   2.463   2.205  0.6199 -0.2291  0.3653
 1243SOL     OW 5016   0.465   2.744   2.277 -0.1965 -0.2686 -0.1794
 1243SOL    HW2 5017   0.473   2.739   2.372  2.2084  0.2180 -0.3251
 1243SOL    HW3 5018   0.466   2.653   2.248  0.3965 -0.3872  0.1945
 1243SOL    MW4 5019   0.466   2.731   2.286  0.1990 -0.2198 -0.1490
 1244SOL     OW 5020   0.709   2.854   2.214 -0.1698 -0.3493  0.0610
 1244SOL    HW2 5021   0.782   2.817   2.264  0.7396  1.5749  0.2068
 1244SOL    HW3 5022   0.633   2.803   2.242  0.6665 -0.6328  1.9086
 1244SOL    MW4 5023   0.709   2.842   2.224  0.0606 -0.1328  0.3240
 1245SOL     OW 5024   0.716   3.077   2.370  0.2914 -0.0550  0.0860
 1245SOL    HW2 5025   0.634   3.122   2.350  0.3565 -0.5445 -1.3013
 1245SOL    HW3 5026   0.713   2.996   2.320  1.3149 -0.4066  0.5730
 1245SOL    MW4 5027   0.705   3.073   2.361  0.4349 -0.1659 -0.0331
 1246SOL     OW 5028   0.477   3.190   2.263  0.0048 -0.2048 -0.0092
 1246SOL    HW2 5029   0.405   3.145   2.307  0.3676  0.0155  0.8054
 1246SOL    HW3 5030   0.452   3.189   2.170 -1.5805  0.8488  0.3977
 1246SOL    MW4 5031   0.464   3.184   2.256 -0.1565 -0.0367  0.1521
 1247SOL     OW 5032   0.444   3.456   2.363 -0.2288 -0.6336 -0.4171
 1247SOL    HW2 5033   0.525   3.495   2.328 -0.6486 -0.2331 -0.9491
 1247SOL    HW3 5034   0.437   3.371   2.319  1.0194 -1.6025  1.2085
 1247SOL    MW4 5035   0.454   3.450   2.353 -0.1195 -0.7088 -0.2730
 1248SOL     OW 5036   0.678   3.592   2.276 -0.2966  0.3424  0.1026
 1248SOL    HW2 5037   0.683   3.682   2.309  2.4391  0.3707 -0.3081
 1248SOL    HW3 5038   0.666   3.601   2.182 -0.2082  0.2578  0.0837
 1248SOL    MW4 5039   0.677   3.605   2.268  0.0759  0.3347  0.0458
 1249SOL     OW 5040   0.675   3.871   2.340 -0.2962  0.2317 -0.1241
 1249SOL    HW2 5041   0.662   3.879   2.434  0.6434 -0.5939  0.0785
 1249SOL    HW3 5042   0.599   3.915   2.302 -0.8715  0.2439  1.0144
 1249SOL    MW4 5043   0.663   3.878   2.347 -0.2482  0.1240  0.0529
 1250SOL     OW 5044   0.456   3.995   2.226 -0.6898 -0.1524 -0.3448
 1250SOL    HW2 5045   0.377   3.943   2.243 -1.0925  0.7058  0.4935
 1250SOL    HW3 5046   0.452   4.015   2.133  0.0559 -2.5582 -0.9041
 1250SOL    MW4 5047   0.445   3.991   2.216 -0.6445 -0.3564 -0.3080
 1251SOL     OW 5048   0.443   4.264   2.325  0.0334 -0.3740 -0.4697
 1251SOL    HW2 5049   0.518   4.314   2.293 -1.8869  1.6413 -1.9692
 1251SOL    HW3 5050   0.452   4.178   2.283  1.9785 -0.4561  0.0839
 1251SOL    MW4 5051   0.454   4.259   2.315  0.0367 -0.1192 -0.5946
 1252SOL     OW 5052   0.672   4.397   2.262  0.1525 -0.0450  0.5536
 1252SOL    HW2 5053   0.700   4.483   2.293  1.3347 -0.0371 -0.4900
 1252SOL    HW3 5054   0.659   4.408   2.168 -0.6169 -0.7670  0.5730
 1252SOL    MW4 5055   0.674   4.409   2.254  0.2070 -0.1388  0.4187
 1253SOL     OW 5056   1.139   4.643   2.377 -0.2155 -0.4478  0.1832
 1253SOL    HW2 5057   1.153   4.653   2.472  0.2821 -1.1793  0.1954
 1253SOL    HW3 5058   1.069   4.704   2.356  0.0655  0.1367  0.9300
 1253SOL    MW4 5059   1.132   4.652   2.387 -0.1128 -0.4678  0.2832
 1254SOL     OW 5060   0.918   0.139   2.280 -0.1324 -0.1758 -0.0281
 1254SOL    HW2 5061   0.925   0.230   2.306  0.5189 -0.4250  0.6884
 1254SOL    HW3 5062   0.912   0.141   2.184  0.2291  0.5926 -0.0328
 1254SOL    MW4 5063   0.918   0.151   2.271  0.0012 -0.1073  0.0658
 1255SOL     OW 5064   0.891   0.403   2.371 -0.4367 -0.3582 -0.2645
 1255SOL    HW2 5065   0.970   0.432   2.326 -0.5970  1.2347  0.4396
 1255SOL    HW3 5066   0.819   0.434   2.315 -0.6600  2.2593  1.3683
 1255SOL    MW4 5067   0.892   0.411   2.357 -0.4874  0.1974  0.0436
 1256SOL     OW 5068   1.106   0.525   2.271 -0.1157 -0.0418 -0.3292
 1256SOL    HW2 5069   1.181   0.482   2.312 -0.0119  0.6952  0.2594
 1256SOL    HW3 5070   1.124   0.519   2.177  0.0168 -1.0598 -0.2399
 1256SOL    MW4 5071   1.118   0.518   2.264 -0.0845 -0.0789 -0.2398
 1257SOL     OW 5072   1.087   0.793   2.335  0.5438 -0.2580  0.2501
 1257SOL    HW2 5073   1.013   0.829   2.287  1.1160  0.4210 -0.1453
 1257SOL    HW3 5074   1.089   0.700   2.310  0.9461  0.1246 -1.2204
 1257SOL    MW4 5075   1.078   0.785   2.325  0.6725 -0.1180  0.0038
 1258SOL     OW 5076   0.851   0.884   2.232  0.4385  0.1836 -0.1501
 1258SOL    HW2 5077   0.845   0.967   2.279  1.0708  0.9050 -1.3194
 1258SOL    HW3 5078   0.768   0.839   2.251 -1.1770  2.3283 -1.8015
 1258SOL    MW4 5079   0.839   0.889   2.241  0.3088  0.5617 -0.5224
 1259SOL     OW 5080   0.897   1.152   2.312 -0.0279 -0.1198 -0.2304
 1259SOL    HW2 5081   0.971   1.211   2.321  0.0632 -0.6061  2.6939
 1259SOL    HW3 5082   0.826   1.207   2.279  0.7901  1.0154 -0.1191
 1259SOL    MW4 5083   0.897   1.167   2.309  0.0920 -0.0342  0.1700
 1260SOL     OW 5084   1.154   1.305   2.263 -0.0448  0.1966 -0.1655
 1260SOL    HW2 5085   1.233   1.256   2.286  0.2608  0.9045  0.2992
 1260SOL    HW3 5086   1.132   1.275   2.175  0.5264 -0.2726 -0.1531
 1260SOL    MW4 5087   1.161   1.295   2.254  0.0709  0.2280 -0.1025
 1261SOL     OW 5088   1.162   1.580   2.341  0.6923 -0.1405  0.2626
 1261SOL    HW2 5089   1.074   1.609   2.318  0.6497 -1.1259 -0.8498
 1261SOL    HW3 5090   1.161   1.485   2.325  2.0325 -0.1186 -0.0135
 1261SOL    MW4 5091   1.150   1.571   2.336  0.8636 -0.2675  0.0794
 1262SOL     OW 5092   0.906   1.684   2.278  0.3926 -0.0604 -0.0767
 1262SOL    HW2 5093   0.926   1.775   2.300 -1.1366  0.0061  1.1003
 1262SOL    HW3 5094   0.890   1.685   2.184 -1.0654  1.1602  0.1680
 1262SOL    MW4 5095   0.907   1.696   2.269 -0.0016  0.1094  0.1111
 1263SOL     OW 5096   0.946   1.944   2.337  0.4404 -0.0713  0.2700
 1263SOL    HW2 5097   0.920   1.962   2.428  0.4725 -2.4296  0.7791
 1263SOL    HW3 5098   1.012   2.011   2.318 -1.5143  2.1328  1.0438
 1263SOL    MW4 5099   0.951   1.955   2.347  0.1867 -0.0917  0.4392
 1264SOL     OW 5100   1.145   2.129   2.260  0.3814  0.0326  0.2501
 1264SOL    HW2 5101   1.224   2.086   2.293 -0.2750 -0.5196  1.1069
 1264SOL    HW3 5102   1.143   2.107   2.167  0.3723 -1.2832  0.5597
 1264SOL    MW4 5103   1.155   2.121   2.252  0.2936 -0.2139  0.4044
 1265SOL     OW 5104   1.143   2.381   2.327  0.1256  0.5408 -0.3333
 1265SOL    HW2 5105   1.100   2.379   2.412  0.5742  0.9456 -0.0922
 1265SOL    HW3 5106   1.159   2.289   2.305  1.6283  0.5078  0.8557
 1265SOL    MW4 5107   1.139   2.369   2.335  0.3830  0.5896 -0.1445
 1266SOL     OW 5108   0.911   2.481   2.220  0.1505  0.7559 -0.1748
 1266SOL    HW2 5109   0.998   2.453   2.249 -0.1497 -0.9055 -0.8584
 1266SOL    HW3 5110   0.914   2.473   2.125 -1.1567 -0.5229 -0.1258
 1266SOL    MW4 5111   0.923   2.476   2.211 -0.0615  0.3679 -0.2584
 1267SOL     OW 5112   0.908   2.728   2.337  0.0429  0.0336 -0.0891
 1267SOL    HW2 5113   0.933   2.712   2.428  1.2105 -0.4987 -0.4860
 1267SOL    HW3 5114   0.890   2.641   2.301 -0.1334  0.2120 -0.4389
 1267SOL    MW4 5115   0.909   2.715   2.344  0.1737 -0.0131 -0.1879
 1268SOL     OW 5116   1.109   2.864   2.206 -0.0859  0.6876 -0.2008
 1268SOL    HW2 5117   1.185   2.823   2.247 -0.7073 -0.5273 -0.2358
 1268SOL    HW3 5118   1.035   2.831   2.255 -0.5902  1.9705 -0.0876
 1268SOL    MW4 5119   1.110   2.854   2.218 -0.2345  0.6967 -0.1905
 1269SOL     OW 5120   1.127   3.108   2.350 -0.0162 -0.0602  0.1161
 1269SOL    HW2 5121   1.059   3.161   2.309 -0.5411 -0.3558  0.6017
 1269SOL    HW3 5122   1.119   3.021   2.310  0.4354  0.0453 -0.2201
 1269SOL    MW4 5123   1.117   3.104   2.339 -0.0259 -0.0856  0.1359
 1270SOL     OW 5124   0.908   3.240   2.245 -0.2849  0.5396 -0.2337
 1270SOL    HW2 5125   0.917   3.329   2.280 -1.4281  0.2084  0.9183
 1270SOL    HW3 5126   0.842   3.199   2.301  2.2188 -1.9179  1.0005
 1270SOL    MW4 5127   0.901   3.246   2.257 -0.1053  0.1714  0.0808
 1271SOL     OW 5128   0.927   3.505   2.338 -0.2737 -0.3328  0.2169
 1271SOL    HW2 5129   0.916   3.507   2.433  2.5136  0.3424  0.5925
 1271SOL    HW3 5130   0.847   3.544   2.303 -1.8177 -1.6084  2.2191
 1271SOL    MW4 5131   0.915   3.511   2.346 -0.1096 -0.4117  0.5305
 1272SOL     OW 5132   1.153   3.605   2.215 -0.7079 -0.4012  0.3839
 1272SOL    HW2 5133   1.227   3.564   2.259 -1.4646  0.1435  2.2278
 1272SOL    HW3 5134   1.077   3.555   2.244 -1.1708 -0.3083 -0.6680
 1272SOL    MW4 5135   1.153   3.593   2.225 -0.8687 -0.3169  0.4885
 1273SOL     OW 5136   1.104   3.843   2.347  0.7985  0.1537  0.2120
 1273SOL    HW2 5137   1.175   3.888   2.302  2.3209 -1.7207  0.6600
 1273SOL    HW3 5138   1.120   3.750   2.330 -0.0488 -0.4480  2.4897
 1273SOL    MW4 5139   1.115   3.836   2.339  0.8875 -0.1731  0.5717
 1274SOL     OW 5140   0.894   3.987   2.250 -0.2865  0.1341 -0.5315
 1274SOL    HW2 5141   0.966   3.931   2.277  0.5487  1.1209 -0.6518
 1274SOL    HW3 5142   0.815   3.944   2.282  0.4610 -0.2554  0.8050
 1274SOL    MW4 5143   0.893   3.974   2.258 -0.0776  0.2129 -0.3710
 1275SOL     OW 5144   0.905   4.251   2.332  0.2560 -0.0132  0.3457
 1275SOL    HW2 5145   0.906   4.160   2.302 -0.0201 -0.2965  1.1902
 1275SOL    HW3 5146   0.817   4.283   2.309  0.3285  0.0196  0.1134
 1275SOL    MW4 5147   0.893   4.243   2.325  0.2291 -0.0463  0.4263
 1276SOL     OW 5148   1.110   4.413   2.237 -0.2592 -0.0916 -0.2218
 1276SOL    HW2 5149   1.036   4.361   2.268 -0.0740  0.0190  0.4132
 1276SOL    HW3 5150   1.119   4.484   2.302  0.4435 -0.1466 -0.2513
 1276SOL    MW4 5151   1.102   4.416   2.250 -0.1421 -0.0839 -0.1419
 1277SOL     OW 5152   1.601   4.666   2.325  0.1176  0.3087  0.6615
 1277SOL    HW2 5153   1.673   4.724   2.301  0.0242  0.1434 -0.0342
 1277SOL    HW3 5154   1.522   4.717   2.309  0.0303 -0.0538 -0.0893
 1277SOL    MW4 5155   1.600   4.680   2.320  0.0939  0.2390  0.4704
 1278SOL     OW 5156   1.352   0.123   2.247 -0.0401  0.0975  0.4165
 1278SOL    HW2 5157   1.343   0.207   2.292  0.1918  0.0903  0.4760
 1278SOL    HW3 5158   1.273   0.075   2.269  0.2596 -0.0635  1.1335
 1278SOL    MW4 5159   1.341   0.128   2.256  0.0300  0.0753  0.5186
 1279SOL     OW 5160   1.351   0.378   2.361  0.3983 -0.0640 -0.4569
 1279SOL    HW2 5161   1.354   0.369   2.457 -0.1306 -3.6156 -0.6819
 1279SOL    HW3 5162   1.439   0.406   2.336  0.9572 -0.4836  0.9882
 1279SOL    MW4 5163   1.363   0.380   2.371  0.4022 -0.5879 -0.2956
 1280SOL     OW 5164   1.578   0.484   2.268 -0.1176  0.0287 -0.1387
 1280SOL    HW2 5165   1.662   0.453   2.303  0.1479 -0.4548 -1.1787
 1280SOL    HW3 5166   1.574   0.576   2.292  0.6800  0.0370 -0.0337
 1280SOL    MW4 5167   1.589   0.492   2.276  0.0228 -0.0339 -0.2620
 1281SOL     OW 5168   1.563   0.747   2.351 -0.1326  0.3947  0.2895
 1281SOL    HW2 5169   1.645   0.796   2.341  1.9956 -2.9565  0.3433
 1281SOL    HW3 5170   1.542   0.752   2.444  1.0354 -0.2220  0.5970
 1281SOL    MW4 5171   1.571   0.754   2.362  0.3022 -0.1288  0.3371
 1282SOL     OW 5172   1.336   0.850   2.229  0.1417  0.6680 -0.0981
 1282SOL    HW2 5173   1.402   0.791   2.264 -0.7458 -1.6321 -2.1306
 1282SOL    HW3 5174   1.255   0.824   2.272 -0.2626  0.3157 -1.0418
 1282SOL    MW4 5175   1.334   0.839   2.239 -0.0286  0.3181 -0.4911
 1283SOL     OW 5176   1.375   1.123   2.327  0.1454  0.0405  0.0830
 1283SOL    HW2 5177   1.358   1.118   2.421 -0.1222  0.2335  0.0460
 1283SOL    HW3 5178   1.351   1.037   2.293  1.3848 -0.4332  0.3706
 1283SOL    MW4 5179   1.370   1.111   2.335  0.2736  0.0035  0.1159
 1284SOL     OW 5180   1.582   1.275   2.243 -0.3597 -0.1723 -0.1284
 1284SOL    HW2 5181   1.509   1.219   2.267 -1.4713  0.8699 -1.0162
 1284SOL    HW3 5182   1.575   1.284   2.148 -0.6095  2.0029  0.0659
 1284SOL    MW4 5183   1.572   1.269   2.234 -0.5394  0.2522 -0.2201
 1285SOL     OW 5184   1.587   1.547   2.329 -0.3310  0.1930 -0.2986
 1285SOL    HW2 5185   1.662   1.588   2.285  1.6456 -1.4864  1.4274
 1285SOL    HW3 5186   1.587   1.457   2.297 -1.7791  0.2341 -0.4388
 1285SOL    MW4 5187   1.597   1.541   2.319 -0.2613 -0.0232 -0.0896
 1286SOL     OW 5188   1.375   1.713   2.239 -0.7861 -0.2187  0.4374
 1286SOL    HW2 5189   1.450   1.660   2.267 -0.3751 -1.0715 -2.1660
 1286SOL    HW3 5190   1.300   1.671   2.281 -0.1060 -1.0029  0.8945
 1286SOL    MW4 5191   1.375   1.701   2.248 -0.6422 -0.4348  0.1543
 1287SOL     OW 5192   1.348   1.966   2.342  0.0513  0.0591  0.1157
 1287SOL    HW2 5193   1.409   2.020   2.292  0.9670 -0.0256  1.1151
 1287SOL    HW3 5194   1.356   1.879   2.304 -0.6423  0.3902 -0.8037
 1287SOL    MW4 5195   1.357   1.962   2.330  0.0807  0.0919  0.1264
 1288SOL     OW 5196   1.517   2.127   2.200 -0.2553  0.1839 -0.2457
 1288SOL    HW2 5197   1.590   2.070   2.225 -1.4505 -1.7776 -1.1524
 1288SOL    HW3 5198   1.527   2.140   2.106 -0.0695  1.3857 -0.0717
 1288SOL    MW4 5199   1.528   2.121   2.191 -0.3886  0.0834 -0.3424
 1289SOL     OW 5200   1.531   2.379   2.354 -0.1100 -0.1258 -0.0159
 1289SOL    HW2 5201   1.551   2.369   2.447  0.8044  0.2216 -0.1733
 1289SOL    HW3 5202   1.520   2.290   2.322  2.4416 -0.4163 -0.1922
 1289SOL    MW4 5203   1.532   2.366   2.362  0.3471 -0.1183 -0.0601
 1290SOL     OW 5204   1.336   2.531   2.232  0.6614 -0.2620  0.7532
 1290SOL    HW2 5205   1.419   2.491   2.257  0.0575 -1.5765  0.6841
 1290SOL    HW3 5206   1.269   2.474   2.270 -0.2297 -0.0239 -0.4296
 1290SOL    MW4 5207   1.338   2.518   2.240  0.4642 -0.4039  0.5882
 1291SOL     OW 5208   1.333   2.771   2.337  0.0189 -0.1997 -0.6156
 1291SOL    HW2 5209   1.414   2.815   2.311  0.7917 -0.4231  1.3730
 1291SOL    HW3 5210   1.336   2.687   2.291  0.3363  0.2592 -1.4561
 1291SOL    MW4 5211   1.344   2.766   2.327  0.1627 -0.1686 -0.4642
 1292SOL     OW 5212   1.587   2.823   2.214  0.1616 -0.1471 -0.0285
 1292SOL    HW2 5213   1.590   2.901   2.269  1.3615 -0.4683  0.3783
 1292SOL    HW3 5214   1.573   2.856   2.125 -1.1764  0.4058  0.3663
 1292SOL    MW4 5215   1.585   2.838   2.210  0.1434 -0.1166  0.0772
 1293SOL     OW 5216   1.602   3.068   2.334  0.1265 -0.7461 -0.1429
 1293SOL    HW2 5217   1.596   3.062   2.429  1.0859 -0.0958 -0.0395
 1293SOL    HW3 5218   1.525   3.119   2.308 -0.7975 -1.9467  0.1622
 1293SOL    MW4 5219   1.591   3.074   2.343  0.1310 -0.8190 -0.0889
 1294SOL     OW 5220   1.380   3.226   2.281  0.1401  0.0844 -0.3565
 1294SOL    HW2 5221   1.298   3.188   2.310 -0.4155  1.2621 -0.3535
 1294SOL    HW3 5222   1.365   3.250   2.189  1.0043 -1.1525 -0.8313
 1294SOL    MW4 5223   1.367   3.224   2.272  0.1808  0.0768 -0.4187
 1295SOL     OW 5224   1.369   3.493   2.360  0.4387  0.1907 -0.1299
 1295SOL    HW2 5225   1.354   3.491   2.454  2.4116  1.0625  0.2328
 1295SOL    HW3 5226   1.378   3.401   2.335  0.4839 -0.0115  0.6300
 1295SOL    MW4 5227   1.368   3.481   2.369  0.7049  0.2792  0.0184
 1296SOL     OW 5228   1.569   3.637   2.230 -0.4487  0.0528  0.0939
 1296SOL    HW2 5229   1.568   3.732   2.242 -1.3513  0.0534  0.0908
 1296SOL    HW3 5230   1.501   3.605   2.290 -1.4072 -0.4191 -1.2071
 1296SOL    MW4 5231   1.560   3.645   2.239 -0.6943 -0.0095 -0.0784
 1297SOL     OW 5232   1.540   3.891   2.332  0.4565 -0.1206  0.4954
 1297SOL    HW2 5233   1.551   3.861   2.422  0.2508  0.0241  0.5706
 1297SOL    HW3 5234   1.628   3.919   2.305  0.1964  1.5757  1.2932
 1297SOL    MW4 5235   1.553   3.891   2.340  0.3951  0.1223  0.6104
 1298SOL     OW 5236   1.310   4.027   2.247 -0.0579 -0.0941 -0.2113
 1298SOL    HW2 5237   1.392   3.980   2.259  0.3864  0.7637  0.1443
 1298SOL    HW3 5238   1.315   4.061   2.157 -0.3559 -0.6730 -0.4495
 1298SOL    MW4 5239   1.321   4.025   2.236 -0.0386 -0.0572 -0.1955
 1299SOL     OW 5240   1.346   4.289   2.330 -0.0935 -0.1505  0.4709
 1299SOL    HW2 5241   1.334   4.198   2.302 -0.1318 -0.3445  1.1280
 1299SOL    HW3 5242   1.268   4.335   2.297 -0.7733 -0.6417  1.3819
 1299SOL    MW4 5243   1.334   4.283   2.322 -0.1882 -0.2413  0.6773
 1300SOL     OW 5244   1.568   4.414   2.213 -0.6192 -0.4622 -0.0765
 1300SOL    HW2 5245   1.485   4.381   2.248 -0.1248 -1.9154 -0.2741
 1300SOL    HW3 5246   1.579   4.499   2.257 -0.9560 -1.3961  1.8821
 1300SOL    MW4 5247   1.558   4.421   2.224 -0.5984 -0.7768  0.1562
 1301SOL     OW 5248   2.025   0.009   2.350 -0.1513 -0.4265  0.2282
 1301SOL    HW2 5249   2.104   0.050   2.313 -1.0394 -0.5419 -1.8317
 1301SOL    HW3 5250   2.009  -0.067   2.294 -1.1253 -1.0143  1.2953
 1301SOL    MW4 5251   2.034   0.004   2.338 -0.3970 -0.5193  0.0970
 1302SOL     OW 5252   1.815   0.167   2.251 -0.5818 -0.0353 -0.3721
 1302SOL    HW2 5253   1.824   0.251   2.296  1.0970 -0.1459 -0.4715
 1302SOL    HW3 5254   1.879   0.110   2.294 -0.2696 -0.6813 -1.6703
 1302SOL    MW4 5255   1.825   0.171   2.263 -0.3191 -0.1352 -0.5565
 1303SOL     OW 5256   1.828   0.402   2.350 -0.2410 -0.0813  0.1039
 1303SOL    HW2 5257   1.837   0.437   2.439  1.1771  0.0284 -0.0663
 1303SOL    HW3 5258   1.909   0.427   2.306 -1.4044  0.8375 -1.5789
 1303SOL    MW4 5259   1.840   0.410   2.356 -0.2074  0.0544 -0.1409
 1304SOL     OW 5260   2.074   0.527   2.240 -0.1357 -0.5745  0.3552
 1304SOL    HW2 5261   2.078   0.618   2.269 -0.3340 -0.4650  0.0486
 1304SOL    HW3 5262   2.063   0.533   2.145 -0.0655 -0.9193  0.3246
 1304SOL    MW4 5263   2.073   0.540   2.231 -0.1523 -0.6055  0.3109
 1305SOL     OW 5264   1.998   0.767   2.383  0.4480  0.1582  0.3384
 1305SOL    HW2 5265   2.068   0.806   2.331  0.9106  0.5780  1.2838
 1305SOL    HW3 5266   1.918   0.804   2.345  0.7604  0.1414 -0.3505
 1305SOL    MW4 5267   1.996   0.777   2.371  0.5503  0.2114  0.3724
 1306SOL     OW 5268   1.790   0.886   2.244 -0.6905 -0.5098  0.1888
 1306SOL    HW2 5269   1.799   0.976   2.276  1.5948 -0.3821 -0.6559
 1306SOL    HW3 5270   1.771   0.896   2.150 -1.0394 -0.8885  0.2231
 1306SOL    MW4 5271   1.789   0.899   2.235 -0.4350 -0.5429  0.0818
 1307SOL     OW 5272   1.795   1.154   2.347  0.1948  1.0029  0.2809
 1307SOL    HW2 5273   1.877   1.194   2.319  0.7798 -1.0955 -1.1199
 1307SOL    HW3 5274   1.727   1.202   2.300  0.8289  0.8481 -0.8085
 1307SOL    MW4 5275   1.797   1.166   2.338  0.3556  0.7057 -0.0477
 1308SOL     OW 5276   2.033   1.293   2.246  0.3710  0.0436  0.0837
 1308SOL    HW2 5277   2.018   1.388   2.253 -1.7937 -0.3332  0.7951
 1308SOL    HW3 5278   2.030   1.276   2.152  1.5740  0.7868 -0.1053
 1308SOL    MW4 5279   2.031   1.304   2.234  0.2439  0.0919  0.1526
 1309SOL     OW 5280   2.025   1.598   2.317 -0.4132 -0.0685 -0.3911
 1309SOL    HW2 5281   2.018   1.562   2.406  1.6957  3.0026  1.0889
 1309SOL    HW3 5282   1.937   1.630   2.298 -0.7200 -0.1385  0.8651
 1309SOL    MW4 5283   2.012   1.597   2.326 -0.1755  0.3276 -0.0300
 1310SOL     OW 5284   1.775   1.697   2.205 -0.5078 -0.1284  0.1605
 1310SOL    HW2 5285   1.765   1.792   2.209 -1.5889 -0.2468  0.4806
 1310SOL    HW3 5286   1.768   1.676   2.112 -0.1834  0.1116  0.0798
 1310SOL    MW4 5287   1.773   1.707   2.193 -0.6076 -0.1123  0.1919
 1311SOL     OW 5288   1.747   2.001   2.289 -0.5514 -0.0425 -0.6888
 1311SOL    HW2 5289   1.744   1.956   2.374 -0.1373  0.2636 -0.5119
 1311SOL    HW3 5290   1.840   2.011   2.271 -0.6408  0.0968 -1.0763
 1311SOL    MW4 5291   1.759   1.996   2.298 -0.5085  0.0163 -0.7167
 1312SOL     OW 5292   2.026   2.042   2.217 -0.1592  0.4395 -0.0061
 1312SOL    HW2 5293   2.112   2.002   2.233  0.0082  1.1212  0.8640
 1312SOL    HW3 5294   2.022   2.052   2.122  0.0486 -1.0770 -0.1934
 1312SOL    MW4 5295   2.037   2.038   2.207 -0.1099  0.3295  0.0842
 1313SOL     OW 5296   1.993   2.310   2.347  0.3703  0.3777  0.0976
 1313SOL    HW2 5297   2.067   2.360   2.313  0.5390 -0.3228 -0.6125
 1313SOL    HW3 5298   1.994   2.229   2.295 -0.3273 -0.0397  0.7230
 1313SOL    MW4 5299   2.003   2.306   2.335  0.3006  0.2301  0.0865
 1314SOL     OW 5300   1.792   2.454   2.243  0.3910  0.0334  0.1982
 1314SOL    HW2 5301   1.853   2.389   2.280  0.3278 -0.4398 -0.5189
 1314SOL    HW3 5302   1.707   2.430   2.279  0.5041  0.2491  0.6190
 1314SOL    MW4 5303   1.789   2.442   2.253  0.3974 -0.0007  0.1590
 1315SOL     OW 5304   1.800   2.704   2.376 -0.1389 -0.1519 -0.2481
 1315SOL    HW2 5305   1.804   2.612   2.348 -2.3080 -0.6242  0.9208
 1315SOL    HW3 5306   1.736   2.744   2.317  0.6838  0.5967 -0.6516
 1315SOL    MW4 5307   1.792   2.697   2.364 -0.3164 -0.1154 -0.1469
 1316SOL     OW 5308   2.013   2.837   2.257  0.3438  0.3543 -0.4755
 1316SOL    HW2 5309   2.099   2.801   2.278  0.5262 -0.2387 -2.2242
 1316SOL    HW3 5310   1.952   2.783   2.308  0.7029 -1.7800 -2.2749
 1316SOL    MW4 5311   2.016   2.825   2.267  0.4151 -0.0057 -0.9434
 1317SOL     OW 5312   2.037   3.093   2.342  0.0105  0.1222  0.6486
 1317SOL    HW2 5313   2.115   3.124   2.296 -0.5317 -0.5667 -0.7885
 1317SOL    HW3 5314   2.022   3.005   2.305 -1.5649  0.3426  0.7476
 1317SOL    MW4 5315   2.045   3.085   2.331 -0.2687  0.0603  0.4721
 1318SOL     OW 5316   1.808   3.228   2.235 -0.3329 -0.1661 -0.7897
 1318SOL    HW2 5317   1.883   3.192   2.282  0.6705 -0.8296 -2.8193
 1318SOL    HW3 5318   1.738   3.163   2.247 -0.5406  0.3456  0.9143
 1318SOL    MW4 5319   1.808   3.214   2.243 -0.2279 -0.1862 -0.8328
 1319SOL     OW 5320   1.784   3.489   2.341  0.1147  0.5794  0.2048
 1319SOL    HW2 5321   1.786   3.402   2.302  0.9827  0.3438  0.7523
 1319SOL    HW3 5322   1.709   3.533   2.299 -0.7858 -0.6747  0.4664
 1319SOL    MW4 5323   1.774   3.484   2.330  0.1105  0.3829  0.3114
 1320SOL     OW 5324   2.030   3.659   2.249  0.0930 -0.1953 -0.0069
 1320SOL    HW2 5325   1.945   3.627   2.278  0.4083 -0.5675  0.5266
 1320SOL    HW3 5326   2.034   3.640   2.156  0.0034 -1.1011  0.1718
 1320SOL    MW4 5327   2.019   3.652   2.241  0.1230 -0.3641  0.0870
 1321SOL     OW 5328   2.028   3.942   2.292 -0.2520 -0.0742  0.5602
 1321SOL    HW2 5329   2.006   3.932   2.384 -0.8059 -0.5597  0.3783
 1321SOL    HW3 5330   2.024   3.853   2.257 -1.8184  0.3455 -0.3330
 1321SOL    MW4 5331   2.025   3.929   2.299 -0.5317 -0.0830  0.4184
 1322SOL     OW 5332   1.777   3.998   2.218  0.2360 -0.0820 -0.1268
 1322SOL    HW2 5333   1.867   3.974   2.240  0.3661 -0.3915 -0.9800
 1322SOL    HW3 5334   1.779   4.014   2.123 -0.1315  2.0474  0.2166
 1322SOL    MW4 5335   1.789   3.997   2.208  0.2047  0.1578 -0.1943
 1323SOL     OW 5336   1.785   4.268   2.293 -0.2456 -0.3811  0.3482
 1323SOL    HW2 5337   1.779   4.174   2.275 -1.1669 -0.4677  1.0700
 1323SOL    HW3 5338   1.700   4.303   2.265  0.1833  0.2732 -0.1394
 1323SOL    MW4 5339   1.773   4.260   2.287 -0.3105 -0.3061  0.3791
 1324SOL     OW 5340   2.002   4.431   2.225 -0.1932 -0.4096 -0.2353
 1324SOL    HW2 5341   1.914   4.400   2.246 -0.1045 -0.3252  0.2833
 1324SOL    HW3 5342   2.018   4.402   2.136 -0.9787  0.0829 -0.5405
 1324SOL    MW4 5343   1.993   4.423   2.216 -0.2854 -0.3333 -0.2072
 1325SOL     OW 5344   2.488   0.006   2.358  0.1277  0.2884  0.1224
 1325SOL    HW2 5345   2.563   0.038   2.307  0.3632 -1.4308 -0.6591
 1325SOL    HW3 5346   2.469  -0.080   2.321  1.4255 -1.8254  4.1319
 1325SOL    MW4 5347   2.495  -0.001   2.346  0.3302 -0.2174  0.5486
 1326SOL     OW 5348   2.264   0.126   2.250  0.0080  0.2382 -0.3964
 1326SOL    HW2 5349   2.278   0.218   2.272  0.9130 -0.1018  0.4827
 1326SOL    HW3 5350   2.344   0.082   2.280 -0.3891 -0.8215 -0.8733
 1326SOL    MW4 5351   2.276   0.132   2.257  0.0749  0.0535 -0.3433
 1327SOL     OW 5352   2.290   0.388   2.339 -0.1248  0.4179  0.4057
 1327SOL    HW2 5353   2.375   0.429   2.326 -0.1669  0.2784 -0.3352
 1327SOL    HW3 5354   2.230   0.438   2.285 -0.3948  0.1258  0.4307
 1327SOL    MW4 5355   2.293   0.400   2.330 -0.1659  0.3610  0.3111
 1328SOL     OW 5356   2.528   0.522   2.250  0.1675  0.0003  0.2631
 1328SOL    HW2 5357   2.596   0.469   2.292  0.4091 -0.7918 -1.0740
 1328SOL    HW3 5358   2.545   0.512   2.156 -1.2794  0.4929 -0.0639
 1328SOL    MW4 5359   2.539   0.514   2.243  0.0083 -0.0392  0.0436
 1329SOL     OW 5360   2.456   0.757   2.370 -0.3179  0.3698 -0.2838
 1329SOL    HW2 5361   2.538   0.802   2.352 -0.4042 -0.2136 -2.2356
 1329SOL    HW3 5362   2.470   0.667   2.341 -0.6733 -0.5227  2.1281
 1329SOL    MW4 5363   2.469   0.751   2.364 -0.3760  0.1751 -0.2229
 1330SOL     OW 5364   2.225   0.866   2.280 -0.1881  0.2912  0.2590
 1330SOL    HW2 5365   2.223   0.958   2.305  1.5982  0.7112 -1.0070
 1330SOL    HW3 5366   2.312   0.836   2.305  0.0554 -0.4345 -1.3568
 1330SOL    MW4 5367   2.236   0.874   2.287  0.0796  0.2509 -0.1214
 1331SOL     OW 5368   2.230   1.133   2.336  0.0120  0.5870 -0.1565
 1331SOL    HW2 5369   2.295   1.163   2.272  0.1574  0.6211  0.0073
 1331SOL    HW3 5370   2.150   1.180   2.312 -0.3437 -0.5443 -1.2629
 1331SOL    MW4 5371   2.228   1.143   2.324 -0.0157  0.4423 -0.2809
 1332SOL     OW 5372   2.453   1.282   2.216  0.4889  0.2716  0.0074
 1332SOL    HW2 5373   2.530   1.249   2.262  0.2815  0.1862  0.2936
 1332SOL    HW3 5374   2.442   1.372   2.247 -0.1905 -0.0816  0.8236
 1332SOL    MW4 5375   2.461   1.290   2.226  0.3719  0.2139  0.1531
 1333SOL     OW 5376   2.440   1.540   2.341  0.8243 -0.3267  0.2968
 1333SOL    HW2 5377   2.435   1.554   2.436 -0.3549  0.3075  0.1521
 1333SOL    HW3 5378   2.525   1.575   2.316  1.3860 -1.0318  1.2163
 1333SOL    MW4 5379   2.450   1.547   2.351  0.7427 -0.3361  0.3991
 1334SOL     OW 5380   2.252   1.690   2.208 -0.0557 -0.2233  0.5459
 1334SOL    HW2 5381   2.318   1.648   2.264  0.1358 -0.1198  0.3973
 1334SOL    HW3 5382   2.169   1.657   2.241 -0.0170  0.8562  1.7566
 1334SOL    MW4 5383   2.250   1.680   2.220 -0.0253 -0.0674  0.6862
 1335SOL     OW 5384   2.250   1.939   2.339  0.1505  0.2120 -0.0099
 1335SOL    HW2 5385   2.329   1.986   2.311 -0.4268  0.6470 -0.9445
 1335SOL    HW3 5386   2.257   1.853   2.297  1.0867 -0.4593  1.5017
 1335SOL    MW4 5387   2.261   1.934   2.330  0.1979  0.1808  0.0663
 1336SOL     OW 5388   2.491   2.053   2.230  0.7825  0.0885  0.0051
 1336SOL    HW2 5389   2.570   2.007   2.258  0.1032 -0.5338  0.8964
 1336SOL    HW3 5390   2.487   2.036   2.136 -0.2506 -2.9322  0.5281
 1336SOL    MW4 5391   2.501   2.045   2.221  0.5565 -0.3922  0.1919
 1337SOL     OW 5392   2.462   2.314   2.321  0.0864 -0.3267  0.6712
 1337SOL    HW2 5393   2.541   2.357   2.286 -1.5250  1.9904 -0.2513
 1337SOL    HW3 5394   2.467   2.224   2.289  1.5545  0.2318 -0.7261
 1337SOL    MW4 5395   2.473   2.308   2.312  0.0675  0.0527  0.3653
 1338SOL     OW 5396   2.215   2.431   2.249  0.4634 -0.0444 -0.2220
 1338SOL    HW2 5397   2.225   2.522   2.275  0.3431 -0.4470  1.3213
 1338SOL    HW3 5398   2.293   2.387   2.285 -0.8373 -1.0335  1.4713
 1338SOL    MW4 5399   2.227   2.437   2.258  0.2761 -0.2279  0.2053
 1339SOL     OW 5400   2.254   2.708   2.333  0.0655 -0.6020  0.0141
 1339SOL    HW2 5401   2.259   2.699   2.428  1.8581  0.9888  0.1089
 1339SOL    HW3 5402   2.330   2.763   2.310 -0.9798 -0.0130 -2.1940
 1339SOL    MW4 5403   2.265   2.714   2.342  0.1643 -0.3147 -0.2646
 1340SOL     OW 5404   2.468   2.870   2.226  0.0699 -0.0410  0.1683
 1340SOL    HW2 5405   2.540   2.822   2.268  0.5378  0.3492 -0.1833
 1340SOL    HW3 5406   2.482   2.858   2.132 -1.3680 -1.4792  0.1031
 1340SOL    MW4 5407   2.479   2.862   2.219 -0.0582 -0.1793  0.1132
 1341SOL     OW 5408   2.467   3.122   2.351  0.0733 -0.2357 -0.0049
 1341SOL    HW2 5409   2.544   3.177   2.333  0.7519 -1.0467  0.3785
 1341SOL    HW3 5410   2.485   3.040   2.305 -0.4117 -0.5489  0.3634
 1341SOL    MW4 5411   2.479   3.119   2.343  0.0987 -0.3841  0.0942
 1342SOL     OW 5412   2.252   3.220   2.225  0.0029 -0.1343  0.2477
 1342SOL    HW2 5413   2.253   3.312   2.251  0.9893 -0.5981  1.8871
 1342SOL    HW3 5414   2.333   3.184   2.260 -0.4087 -1.6551 -0.3321
 1342SOL    MW4 5415   2.263   3.227   2.233  0.0787 -0.3963  0.3877
 1343SOL     OW 5416   2.204   3.473   2.353 -0.1413  0.1055 -0.3177
 1343SOL    HW2 5417   2.200   3.486   2.448 -0.1444 -0.2544 -0.2654
 1343SOL    HW3 5418   2.151   3.543   2.316 -0.3601  0.0844 -0.0398
 1343SOL    MW4 5419   2.197   3.484   2.361 -0.1705  0.0553 -0.2744
 1344SOL     OW 5420   2.432   3.583   2.215  0.0652 -0.0726  0.0104
 1344SOL    HW2 5421   2.433   3.677   2.231  0.8567 -0.4145  2.1438
 1344SOL    HW3 5422   2.362   3.549   2.271  1.2057 -0.9981  0.9079
 1344SOL    MW4 5423   2.423   3.591   2.225  0.3202 -0.2398  0.4106
 1345SOL     OW 5424   2.462   3.839   2.298  0.3948 -0.2580 -0.1729
 1345SOL    HW2 5425   2.474   3.837   2.394 -1.1086 -1.8469 -0.0052
 1345SOL    HW3 5426   2.394   3.904   2.284 -0.6136 -1.2730 -0.0175
 1345SOL    MW4 5427   2.455   3.847   2.309  0.0634 -0.6015 -0.1304
 1346SOL     OW 5428   2.269   4.038   2.196  0.1191  0.4321 -0.0129
 1346SOL    HW2 5429   2.278   4.126   2.234 -0.0690  0.0709  0.8643
 1346SOL    HW3 5430   2.182   4.009   2.223  0.9378 -0.8093  1.3010
 1346SOL    MW4 5431   2.259   4.046   2.204  0.2022  0.2203  0.2761
 1347SOL     OW 5432   2.220   4.290   2.328  0.4505  0.4974 -0.6652
 1347SOL    HW2 5433   2.214   4.288   2.424  0.8335  1.6134 -0.6182
 1347SOL    HW3 5434   2.144   4.340   2.300  0.2408  0.0148 -0.9561
 1347SOL    MW4 5435   2.209   4.296   2.337  0.4733  0.5808 -0.6974
 1348SOL     OW 5436   2.461   4.407   2.265  0.0611  0.2947  0.3416
 1348SOL    HW2 5437   2.529   4.369   2.321  0.0624 -1.0500 -0.5315
 1348SOL    HW3 5438   2.380   4.368   2.298 -0.0627  0.3741  0.1271
 1348SOL    MW4 5439   2.459   4.397   2.277  0.0451  0.1278  0.1981
 1349SOL     OW 5440   2.938   4.663   2.351 -0.2070  0.1483 -0.2488
 1349SOL    HW2 5441   3.023   4.703   2.330 -0.7018 -0.0180 -2.8091
 1349SOL    HW3 5442   2.939   4.580   2.303 -1.5693 -0.1319  0.2013
 1349SOL    MW4 5443   2.949   4.657   2.342 -0.4520  0.0894 -0.5274
 1350SOL     OW 5444   2.714   0.115   2.251  0.0356 -0.2223 -0.3929
 1350SOL    HW2 5445   2.706   0.195   2.303  1.3107  0.6850 -1.5239
 1350SOL    HW3 5446   2.790   0.070   2.287  0.2837 -0.1141 -0.7729
 1350SOL    MW4 5447   2.723   0.120   2.262  0.2363 -0.0883 -0.5922
 1351SOL     OW 5448   2.694   0.363   2.385  0.1392 -0.2901 -0.4089
 1351SOL    HW2 5449   2.700   0.364   2.481 -1.5247  1.5675 -0.2990
 1351SOL    HW3 5450   2.777   0.401   2.356 -1.1093  3.3017  0.4528
 1351SOL    MW4 5451   2.706   0.368   2.394 -0.2451  0.4289 -0.2806
 1352SOL     OW 5452   2.916   0.487   2.267 -0.4249  0.2012 -0.1772
 1352SOL    HW2 5453   2.932   0.575   2.301  2.9834 -0.6374  0.6149
 1352SOL    HW3 5454   2.899   0.500   2.174 -1.1996  1.7928  0.1700
 1352SOL    MW4 5455   2.916   0.500   2.259 -0.0777  0.3005 -0.0267
 1353SOL     OW 5456   2.935   0.752   2.326  0.1217  0.2913 -0.3908
 1353SOL    HW2 5457   2.928   0.772   2.419  1.2620 -0.4189 -0.1390
 1353SOL    HW3 5458   2.850   0.776   2.289 -0.2796  0.7153  0.8064
 1353SOL    MW4 5459   2.923   0.758   2.333  0.2193  0.2535 -0.1996
 1354SOL     OW 5460   2.692   0.862   2.247  0.3402  0.0038 -0.3531
 1354SOL    HW2 5461   2.671   0.953   2.271 -1.8520 -0.4791 -0.3348
 1354SOL    HW3 5462   2.680   0.859   2.152 -0.3828 -0.4613 -0.2471
 1354SOL    MW4 5463   2.688   0.874   2.238 -0.0443 -0.1213 -0.3366
 1355SOL     OW 5464   2.652   1.120   2.342 -0.1272  0.2430  0.1268
 1355SOL    HW2 5465   2.654   1.118   2.437 -1.0444 -0.1986  0.1419
 1355SOL    HW3 5466   2.740   1.148   2.316  0.2156  0.0595  1.0932
 1355SOL    MW4 5467   2.664   1.123   2.351 -0.2034  0.1606  0.2565
 1356SOL     OW 5468   2.875   1.233   2.236  0.0992  0.3304 -0.3491
 1356SOL    HW2 5469   2.957   1.197   2.270 -0.4261  0.3019  0.8971
 1356SOL    HW3 5470   2.893   1.249   2.143  1.3704 -0.0948 -0.1861
 1356SOL    MW4 5471   2.888   1.230   2.228  0.1979  0.2706 -0.1628
 1357SOL     OW 5472   2.928   1.486   2.333 -0.1009 -0.3326 -0.3652
 1357SOL    HW2 5473   2.945   1.492   2.427 -1.3009 -1.2310 -0.0690
 1357SOL    HW3 5474   2.920   1.392   2.317  0.1644 -0.1856 -1.3839
 1357SOL    MW4 5475   2.929   1.474   2.343 -0.2244 -0.4315 -0.4601
 1358SOL     OW 5476   2.717   1.910   2.307 -0.1316  0.3785  0.5517
 1358SOL    HW2 5477   2.697   1.928   2.399  2.6357  0.5871  1.1744
 1358SOL    HW3 5478   2.710   1.815   2.300 -2.1931  0.5158  0.4814
 1358SOL    MW4 5479   2.713   1.900   2.319 -0.0386  0.4241  0.6247
 1359SOL     OW 5480   2.698   1.636   2.285 -0.2386 -0.5967  0.1702
 1359SOL    HW2 5481   2.775   1.591   2.321  0.4863  1.3927  1.1982
 1359SOL    HW3 5482   2.721   1.652   2.193  0.7580  0.3029  0.5600
 1359SOL    MW4 5483   2.711   1.632   2.277 -0.0112 -0.2154  0.3574
 1360SOL     OW 5484   2.965   2.039   2.213  0.5705  0.4703 -0.5250
 1360SOL    HW2 5485   3.024   1.991   2.272 -0.0049  0.8738  0.4018
 1360SOL    HW3 5486   2.879   2.001   2.229  0.6271 -0.3595 -2.1383
 1360SOL    MW4 5487   2.961   2.028   2.223  0.5021  0.4144 -0.6158
 1361SOL     OW 5488   2.885   2.295   2.321 -0.4398  0.1843 -0.4898
 1361SOL    HW2 5489   2.897   2.291   2.416  0.5298  0.8853 -0.5825
 1361SOL    HW3 5490   2.907   2.207   2.290  0.4583  0.3003 -0.1996
 1361SOL    MW4 5491   2.889   2.283   2.330 -0.1934  0.2921 -0.4637
 1362SOL     OW 5492   2.684   2.460   2.241  0.3005 -0.1801 -0.0210
 1362SOL    HW2 5493   2.751   2.399   2.273  0.1838 -0.3052 -0.0140
 1362SOL    HW3 5494   2.688   2.452   2.146 -0.5794 -1.1245  0.0238
 1362SOL    MW4 5495   2.694   2.451   2.233  0.1690 -0.3211 -0.0141
 1363SOL     OW 5496   2.674   2.704   2.356  0.3205  0.1405  0.2034
 1363SOL    HW2 5497   2.755   2.744   2.324  0.5713 -0.2237  0.3784
 1363SOL    HW3 5498   2.675   2.615   2.320 -0.7100  0.6011 -0.9939
 1363SOL    MW4 5499   2.685   2.697   2.347  0.2177  0.1533  0.0684
 1364SOL     OW 5500   2.900   2.844   2.247  0.0544  0.3441 -0.2936
 1364SOL    HW2 5501   2.913   2.929   2.290  0.4386  0.5888 -0.8863
 1364SOL    HW3 5502   2.922   2.860   2.156 -1.4645  0.0157 -0.7380
 1364SOL    MW4 5503   2.904   2.858   2.241 -0.0954  0.3331 -0.4306
 1365SOL     OW 5504   2.909   3.120   2.356 -0.2044 -0.3424  0.3004
 1365SOL    HW2 5505   2.982   3.179   2.339  0.2615 -0.2569  2.3856
 1365SOL    HW3 5506   2.836   3.156   2.304  0.4101  1.3460  0.5682
 1365SOL    MW4 5507   2.909   3.133   2.347 -0.0618 -0.1085  0.6108
 1366SOL     OW 5508   2.694   3.234   2.243  0.1015 -0.1053 -0.0968
 1366SOL    HW2 5509   2.681   3.323   2.274 -0.3956 -0.0787 -0.3798
 1366SOL    HW3 5510   2.683   3.239   2.148  0.8326 -0.3308 -0.1986
 1366SOL    MW4 5511   2.690   3.246   2.235  0.1321 -0.1318 -0.1478
 1367SOL     OW 5512   2.667   3.500   2.360  0.2069  0.0408  0.0336
 1367SOL    HW2 5513   2.725   3.551   2.305 -0.8682 -0.9089 -2.0425
 1367SOL    HW3 5514   2.580   3.534   2.342 -0.1072  0.2360  1.7598
 1367SOL    MW4 5515   2.663   3.511   2.351  0.0238 -0.0587 -0.0124
 1368SOL     OW 5516   2.875   3.624   2.220 -0.4919  0.3321 -0.0829
 1368SOL    HW2 5517   2.944   3.584   2.272 -0.8691  0.1083  0.2523
 1368SOL    HW3 5518   2.877   3.716   2.243  0.0806  0.4301 -0.5141
 1368SOL    MW4 5519   2.884   3.631   2.230 -0.4661  0.3159 -0.0954
 1369SOL     OW 5520   2.909   3.896   2.310 -0.0671 -0.3933 -0.1798
 1369SOL    HW2 5521   2.918   3.877   2.404  0.5206 -1.7802 -0.5048
 1369SOL    HW3 5522   2.829   3.949   2.304 -0.2811 -0.5588  1.0695
 1369SOL    MW4 5523   2.900   3.900   2.322 -0.0179 -0.5982 -0.0575
 1370SOL     OW 5524   2.666   4.037   2.283  0.2346  0.0637 -0.3612
 1370SOL    HW2 5525   2.601   3.967   2.287 -0.1340  0.2809 -2.0863
 1370SOL    HW3 5526   2.673   4.058   2.190  2.2532  0.5414 -0.1278
 1370SOL    MW4 5527   2.658   4.030   2.271  0.4523  0.1550 -0.5579
 1371SOL     OW 5528   2.684   4.300   2.393 -0.0344  0.5114 -0.5838
 1371SOL    HW2 5529   2.688   4.292   2.488 -2.4407  0.6374 -0.4341
 1371SOL    HW3 5530   2.687   4.210   2.361 -0.9738  0.3559 -0.2694
 1371SOL    MW4 5531   2.685   4.287   2.401 -0.4756  0.5074 -0.5224
 1372SOL     OW 5532   2.910   4.413   2.246  0.3020 -0.0206  0.1719
 1372SOL    HW2 5533   2.986   4.373   2.287 -0.3489 -0.9269  0.5247
 1372SOL    HW3 5534   2.836   4.388   2.302 -0.4078 -0.1440 -0.8013
 1372SOL    MW4 5535   2.910   4.404   2.258  0.1223 -0.1564  0.0901
 1373SOL     OW 5536   3.389   4.651   2.322 -0.3529  0.1372  0.2149
 1373SOL    HW2 5537   3.383   4.639   2.417  1.6078 -1.3247  0.1867
 1373SOL    HW3 5538   3.468   4.704   2.309 -0.2899 -0.1539 -0.6384
 1373SOL    MW4 5539   3.399   4.657   2.333 -0.0861 -0.0935  0.0982
 1374SOL     OW 5540   3.169   0.127   2.273 -0.8640 -0.5432  0.0981
 1374SOL    HW2 5541   3.171   0.213   2.314 -1.8108  0.2378 -1.4743
 1374SOL    HW3 5542   3.250   0.084   2.304  0.0009  1.1851  0.2801
 1374SOL    MW4 5543   3.180   0.132   2.282 -0.8748 -0.2121 -0.0854
 1375SOL     OW 5544   3.178   0.393   2.355  0.2174  0.2015  0.3283
 1375SOL    HW2 5545   3.241   0.452   2.314 -0.4481  0.7675  0.1046
 1375SOL    HW3 5546   3.093   0.422   2.321 -0.1739 -0.4652  0.7308
 1375SOL    MW4 5547   3.175   0.405   2.345  0.0780  0.1882  0.3517
 1376SOL     OW 5548   3.386   0.560   2.234  0.3568 -0.2628  0.6631
 1376SOL    HW2 5549   3.460   0.510   2.270 -0.5953 -1.4731  0.9820
 1376SOL    HW3 5550   3.382   0.533   2.142 -0.0172 -0.6148  0.7805
 1376SOL    MW4 5551   3.395   0.550   2.227  0.1819 -0.4689  0.7207
 1377SOL     OW 5552   3.359   0.790   2.386  0.1821  0.2277  0.3241
 1377SOL    HW2 5553   3.432   0.836   2.345  1.0571 -0.8116  0.6707
 1377SOL    HW3 5554   3.355   0.706   2.339 -1.3351  0.6171 -0.2520
 1377SOL    MW4 5555   3.368   0.785   2.374  0.0970  0.1420  0.2937
 1378SOL     OW 5556   3.146   0.881   2.229  0.3180 -0.2373 -0.4058
 1378SOL    HW2 5557   3.210   0.843   2.289 -0.0374  1.4567  1.0734
 1378SOL    HW3 5558   3.066   0.832   2.246  0.1758  0.3456  0.6356
 1378SOL    MW4 5559   3.144   0.869   2.239  0.2525  0.0631 -0.0734
 1379SOL     OW 5560   3.116   1.139   2.318 -0.3674  0.1031  0.1349
 1379SOL    HW2 5561   3.205   1.169   2.296 -1.2576  2.3667 -0.5940
 1379SOL    HW3 5562   3.114   1.048   2.289  1.2111  0.4995 -1.3676
 1379SOL    MW4 5563   3.128   1.131   2.311 -0.2766  0.4541 -0.1593
 1380SOL     OW 5564   3.368   1.241   2.278  0.2855  0.0203 -0.0611
 1380SOL    HW2 5565   3.451   1.194   2.291 -0.8466 -1.2957  2.7679
 1380SOL    HW3 5566   3.388   1.331   2.303  0.8860 -0.2803  0.5821
 1380SOL    MW4 5567   3.382   1.246   2.283  0.2153 -0.1929  0.3970
 1381SOL     OW 5568   3.379   1.505   2.330 -0.1026 -0.0318  0.2757
 1381SOL    HW2 5569   3.390   1.547   2.416  0.5574 -1.3555  0.8456
 1381SOL    HW3 5570   3.297   1.543   2.296 -0.2660  0.6536  1.3922
 1381SOL    MW4 5571   3.369   1.516   2.337 -0.0370 -0.1160  0.4983
 1382SOL     OW 5572   3.164   1.629   2.238  0.3996  0.0910  0.2350
 1382SOL    HW2 5573   3.156   1.711   2.287 -0.0446  0.7523 -0.9058
 1382SOL    HW3 5574   3.082   1.583   2.255 -1.1872  1.7861 -2.4403
 1382SOL    MW4 5575   3.152   1.634   2.247  0.1316  0.4019 -0.2682
 1383SOL     OW 5576   3.158   1.870   2.370  0.5008  0.1229 -0.2176
 1383SOL    HW2 5577   3.162   1.884   2.464 -2.1353 -0.0991 -0.0558
 1383SOL    HW3 5578   3.223   1.930   2.334  1.0360  0.7045  1.6794
 1383SOL    MW4 5579   3.167   1.880   2.377  0.2236  0.1704  0.0539
 1384SOL     OW 5580   3.342   2.066   2.258 -0.2003  0.0541  0.1365
 1384SOL    HW2 5581   3.418   2.015   2.287 -0.2037  0.1068  0.2372
 1384SOL    HW3 5582   3.346   2.061   2.162 -0.1560 -0.0694  0.1446
 1384SOL    MW4 5583   3.353   2.058   2.249 -0.1950  0.0448  0.1507
 1385SOL     OW 5584   3.365   2.341   2.354  0.4067  0.0712  0.0690
 1385SOL    HW2 5585   3.289   2.393   2.327  0.4668  0.5405  0.8057
 1385SOL    HW3 5586   3.345   2.252   2.323 -0.1142  0.3398 -0.3749
 1385SOL    MW4 5587   3.353   2.336   2.346  0.3459  0.1688  0.1078
 1386SOL     OW 5588   3.126   2.462   2.247 -0.0067  0.7669 -0.0151
 1386SOL    HW2 5589   3.126   2.549   2.287  1.0123  0.6356  0.2976
 1386SOL    HW3 5590   3.058   2.413   2.294  2.1631  0.1484  2.6299
 1386SOL    MW4 5591   3.117   2.467   2.259  0.4139  0.6680  0.3750
 1387SOL     OW 5592   3.112   2.720   2.330  0.0928  0.0311  0.3698
 1387SOL    HW2 5593   3.119   2.725   2.426  1.0264 -0.8082  0.3518
 1387SOL    HW3 5594   3.024   2.753   2.311  0.1560  0.8612  1.4606
 1387SOL    MW4 5595   3.101   2.725   2.341  0.2244  0.0300  0.5116
 1388SOL     OW 5596   3.363   2.781   2.243 -0.3491 -0.0938  0.2279
 1388SOL    HW2 5597   3.369   2.873   2.268 -0.2714 -0.1516  0.4213
 1388SOL    HW3 5598   3.271   2.759   2.254 -0.3109 -0.1252  0.4828
 1388SOL    MW4 5599   3.352   2.790   2.248 -0.3338 -0.1056  0.2871
 1389SOL     OW 5600   3.343   3.067   2.288  0.5456  0.3477 -0.3383
 1389SOL    HW2 5601   3.418   3.111   2.247  0.7059 -0.7432 -1.2703
 1389SOL    HW3 5602   3.271   3.129   2.280  1.1778  1.1163 -0.1097
 1389SOL    MW4 5603   3.344   3.081   2.281  0.6502  0.3049 -0.4311
 1390SOL     OW 5604   3.136   3.282   2.300 -0.2877  0.5450 -0.1043
 1390SOL    HW2 5605   3.119   3.375   2.314  2.6424  0.9733  1.0382
 1390SOL    HW3 5606   3.138   3.272   2.205 -1.7129  1.4193 -0.2306
 1390SOL    MW4 5607   3.134   3.293   2.289 -0.0892  0.7169  0.0298
 1391SOL     OW 5608   3.097   3.556   2.355  0.1474 -0.1501 -0.1366
 1391SOL    HW2 5609   3.115   3.554   2.449 -0.6684 -1.6821 -0.0070
 1391SOL    HW3 5610   3.183   3.570   2.315  0.7716 -1.2946  0.7646
 1391SOL    MW4 5611   3.111   3.558   2.362  0.1221 -0.5031 -0.0010
 1392SOL     OW 5612   3.338   3.629   2.235 -0.3997  0.2326  0.4961
 1392SOL    HW2 5613   3.410   3.575   2.269  0.2478  1.5780  1.3211
 1392SOL    HW3 5614   3.354   3.634   2.141 -0.7956 -1.4795  0.3204
 1392SOL    MW4 5615   3.350   3.622   2.227 -0.3662  0.1841  0.5817
 1393SOL     OW 5616   3.351   3.890   2.384 -1.0067  0.0464  0.2179
 1393SOL    HW2 5617   3.427   3.934   2.348  1.4397 -2.3501  2.2280
 1393SOL    HW3 5618   3.346   3.807   2.335 -1.5963 -0.3299  0.8966
 1393SOL    MW4 5619   3.360   3.885   2.372 -0.7617 -0.3195  0.5727
 1394SOL     OW 5620   3.165   4.014   2.215 -0.0862 -0.1477  0.5100
 1394SOL    HW2 5621   3.226   3.976   2.279  0.0474  2.2640  1.8432
 1394SOL    HW3 5622   3.079   3.980   2.240  0.1307 -0.1654  1.2368
 1394SOL    MW4 5623   3.162   4.004   2.227 -0.0398  0.1683  0.7818
 1395SOL     OW 5624   3.125   4.260   2.334  0.1662 -0.3500 -0.3146
 1395SOL    HW2 5625   3.192   4.322   2.305 -0.2187 -0.0603 -0.6006
 1395SOL    HW3 5626   3.141   4.181   2.284 -0.7555  0.2880 -1.6493
 1395SOL    MW4 5627   3.136   4.258   2.324 -0.0062 -0.2275 -0.5286
 1396SOL     OW 5628   3.323   4.403   2.220 -0.5789  0.8001 -0.0765
 1396SOL    HW2 5629   3.333   4.496   2.240  0.7564  0.7371 -0.4133
 1396SOL    HW3 5630   3.344   4.396   2.127  0.2269  0.0178  0.1612
 1396SOL    MW4 5631   3.327   4.414   2.211 -0.2964  0.6886 -0.0896
 1397SOL     OW 5632   3.811   4.664   2.334  0.4116  0.1913  0.3191
 1397SOL    HW2 5633   3.805   4.650   2.429  0.1120 -0.5719  0.1958
 1397SOL    HW3 5634   3.901   4.693   2.320  0.5604 -0.0267  0.7978
 1397SOL    MW4 5635   3.822   4.666   2.345  0.3915  0.0615  0.3660
 1398SOL     OW 5636   3.593   0.153   2.239  0.0332  0.3439 -0.0060
 1398SOL    HW2 5637   3.589   0.241   2.278  0.1426  0.2666  0.1770
 1398SOL    HW3 5638   3.673   0.114   2.275  0.4131  0.4670 -0.7165
 1398SOL    MW4 5639   3.603   0.160   2.249  0.0980  0.3500 -0.0756
 1399SOL     OW 5640   3.589   0.399   2.354  0.4838  0.0397 -0.3207
 1399SOL    HW2 5641   3.581   0.408   2.449  0.1565  1.2052 -0.4496
 1399SOL    HW3 5642   3.673   0.438   2.332  0.2097  0.4959 -0.5901
 1399SOL    MW4 5643   3.599   0.405   2.364  0.4046  0.2536 -0.3734
 1400SOL     OW 5644   3.842   0.487   2.282 -0.1058 -0.0808 -0.0690
 1400SOL    HW2 5645   3.835   0.579   2.305 -0.9103 -0.3976  1.0257
 1400SOL    HW3 5646   3.812   0.482   2.191  1.3620  0.9455 -0.6111
 1400SOL    MW4 5647   3.837   0.498   2.273 -0.0179  0.0128  0.0041
 1401SOL     OW 5648   3.795   0.743   2.358 -0.2933 -0.4754  0.0290
 1401SOL    HW2 5649   3.788   0.748   2.453 -0.2446  0.9167 -0.0232
 1401SOL    HW3 5650   3.875   0.792   2.337  0.1051 -1.4046 -0.6746
 1401SOL    MW4 5651   3.805   0.750   2.367 -0.2341 -0.4144 -0.0708
 1402SOL     OW 5652   3.585   0.891   2.242 -0.0968  0.2716 -0.5359
 1402SOL    HW2 5653   3.660   0.833   2.260 -0.5872 -0.6692 -1.5165
 1402SOL    HW3 5654   3.569   0.881   2.148 -1.2360  0.7463 -0.3928
 1402SOL    MW4 5655   3.593   0.882   2.232 -0.3116  0.2100 -0.6468
 1403SOL     OW 5656   3.605   1.150   2.346 -0.7880 -0.3088 -0.4204
 1403SOL    HW2 5657   3.591   1.153   2.440  2.5041  1.2973  0.0758
 1403SOL    HW3 5658   3.619   1.057   2.326  0.3183 -0.4546  0.9798
 1403SOL    MW4 5659   3.605   1.138   2.356 -0.2074 -0.1163 -0.1702
 1404SOL     OW 5660   3.836   1.269   2.253 -0.1537  0.5239 -0.0188
 1404SOL    HW2 5661   3.816   1.362   2.261 -0.2102  0.5366 -0.2810
 1404SOL    HW3 5662   3.759   1.225   2.290  0.3150  0.5855  1.0323
 1404SOL    MW4 5663   3.823   1.276   2.259 -0.0994  0.5337  0.0851
 1405SOL     OW 5664   3.840   1.530   2.346 -0.0997  0.4329 -0.2151
 1405SOL    HW2 5665   3.838   1.525   2.441 -1.2820  0.7224 -0.2178
 1405SOL    HW3 5666   3.761   1.579   2.323 -0.7301 -1.1264 -1.4416
 1405SOL    MW4 5667   3.829   1.536   2.355 -0.3386  0.2654 -0.3777
 1406SOL     OW 5668   3.608   1.664   2.243 -0.2515 -0.1167  0.0319
 1406SOL    HW2 5669   3.528   1.617   2.267 -0.1697 -0.6636 -0.7555
 1406SOL    HW3 5670   3.592   1.694   2.154  0.3515 -0.0651 -0.0566
 1406SOL    MW4 5671   3.595   1.662   2.235 -0.1609 -0.1820 -0.0834
 1407SOL     OW 5672   3.565   1.924   2.335  0.5749  0.1863 -0.2331
 1407SOL    HW2 5673   3.643   1.964   2.297  0.8078 -1.2244 -1.2850
 1407SOL    HW3 5674   3.569   1.833   2.308 -1.2551  0.0088  0.0121
 1407SOL    MW4 5675   3.576   1.917   2.327  0.3643 -0.0232 -0.3395
 1408SOL     OW 5676   3.800   2.050   2.253 -0.3196  0.0213 -0.2395
 1408SOL    HW2 5677   3.874   1.990   2.263  0.5177  1.0337 -0.3021
 1408SOL    HW3 5678   3.796   2.067   2.159 -0.2871  0.3910 -0.1750
 1408SOL    MW4 5679   3.809   2.044   2.242 -0.2048  0.2034 -0.2391
 1409SOL     OW 5680   3.866   2.307   2.354  0.1255 -0.4069 -0.3897
 1409SOL    HW2 5681   3.785   2.328   2.307 -0.0743  0.1505  0.2080
 1409SOL    HW3 5682   3.874   2.212   2.347  0.1549 -0.3251 -1.6584
 1409SOL    MW4 5683   3.857   2.297   2.347  0.1032 -0.3228 -0.4780
 1410SOL     OW 5684   3.624   2.407   2.190 -0.2333 -0.1254  0.1551
 1410SOL    HW2 5685   3.547   2.358   2.217  0.2476 -2.5313 -2.5091
 1410SOL    HW3 5686   3.610   2.425   2.097  2.1564 -0.1750 -0.2661
 1410SOL    MW4 5687   3.612   2.403   2.181  0.1457 -0.4494 -0.2520
 1411SOL     OW 5688   3.618   2.666   2.330 -0.4947  0.2572 -0.1741
 1411SOL    HW2 5689   3.616   2.574   2.302  0.9847  0.4768 -1.0554
 1411SOL    HW3 5690   3.532   2.700   2.305 -1.2493 -1.0128  0.6176
 1411SOL    MW4 5691   3.607   2.658   2.323 -0.3991  0.1187 -0.1860
 1412SOL     OW 5692   3.806   2.850   2.224  0.8731  0.0151  0.2508
 1412SOL    HW2 5693   3.786   2.934   2.263 -0.8467 -0.7080  0.9409
 1412SOL    HW3 5694   3.730   2.795   2.243  1.7672 -1.5544 -0.5910
 1412SOL    MW4 5695   3.794   2.854   2.232  0.7646 -0.2873  0.2308
 1413SOL     OW 5696   3.793   3.106   2.318 -0.0801  0.2498 -0.6486
 1413SOL    HW2 5697   3.787   3.103   2.413  1.1620 -1.7079 -0.6073
 1413SOL    HW3 5698   3.879   3.146   2.301  0.6758 -1.4209 -0.8967
 1413SOL    MW4 5699   3.804   3.111   2.328  0.1838 -0.2291 -0.6759
 1414SOL     OW 5700   3.559   3.236   2.225 -0.2371  0.2077 -0.6896
 1414SOL    HW2 5701   3.582   3.329   2.235  0.7408 -0.0907 -0.0930
 1414SOL    HW3 5702   3.638   3.189   2.251 -0.9446 -0.8137 -0.3692
 1414SOL    MW4 5703   3.573   3.242   2.230 -0.2015  0.0334 -0.5686
 1415SOL     OW 5704   3.587   3.499   2.315 -0.0690  0.1968  0.4571
 1415SOL    HW2 5705   3.618   3.491   2.405  0.0393  0.8331  0.4795
 1415SOL    HW3 5706   3.658   3.544   2.269 -0.0749 -0.2328  0.0260
 1415SOL    MW4 5707   3.600   3.504   2.321 -0.0556  0.2239  0.4032
 1416SOL     OW 5708   3.823   3.622   2.226 -0.1391  0.0212 -0.4493
 1416SOL    HW2 5709   3.816   3.709   2.265 -1.5529  0.3720 -1.4491
 1416SOL    HW3 5710   3.818   3.638   2.132  0.1570 -1.0897 -0.6598
 1416SOL    MW4 5711   3.821   3.635   2.219 -0.2866 -0.0792 -0.6089
 1417SOL     OW 5712   3.794   3.887   2.337 -0.1268  0.2621  0.1474
 1417SOL    HW2 5713   3.810   3.888   2.432  0.0310  1.5697  0.1223
 1417SOL    HW3 5714   3.868   3.936   2.300 -1.1668  1.3761 -0.4827
 1417SOL    MW4 5715   3.806   3.894   2.345 -0.2432  0.5817  0.0608
 1418SOL     OW 5716   3.585   3.993   2.208  0.7763  0.1776 -0.1078
 1418SOL    HW2 5717   3.564   4.076   2.251  0.6654 -0.4747  1.1078
 1418SOL    HW3 5718   3.663   3.961   2.254  1.4819  0.1322 -1.3023
 1418SOL    MW4 5719   3.593   4.000   2.220  0.8550  0.0854 -0.1049
 1419SOL     OW 5720   3.529   4.241   2.329 -0.3536 -0.3377 -0.2472
 1419SOL    HW2 5721   3.599   4.288   2.284 -0.7801  0.4593 -0.0992
 1419SOL    HW3 5722   3.448   4.278   2.293 -0.7001 -1.7900 -0.9743
 1419SOL    MW4 5723   3.527   4.252   2.319 -0.4556 -0.4239 -0.3238
 1420SOL     OW 5724   3.766   4.377   2.283 -0.1720  0.1507  0.2696
 1420SOL    HW2 5725   3.860   4.368   2.293  0.3992  2.6607 -2.1181
 1420SOL    HW3 5726   3.745   4.462   2.322 -1.1916  0.2543 -0.4504
 1420SOL    MW4 5727   3.775   4.387   2.289 -0.2313  0.4954 -0.1402
 1421SOL     OW 5728   4.245   4.598   2.352 -0.1932  0.0695 -0.0162
 1421SOL    HW2 5729   4.227   4.604   2.446  1.3316 -0.4380  0.3345
 1421SOL    HW3 5730   4.330   4.642   2.341 -0.3278  0.0755 -1.1530
 1421SOL    MW4 5731   4.254   4.605   2.363 -0.0100  0.0029 -0.1199
 1422SOL     OW 5732   4.047   0.112   2.252 -0.0852  0.3121  0.0106
 1422SOL    HW2 5733   4.065   0.191   2.304  0.8578  0.3302 -0.3284
 1422SOL    HW3 5734   4.113   0.049   2.281  0.1622  0.1745 -0.8478
 1422SOL    MW4 5735   4.058   0.114   2.263  0.0720  0.2963 -0.1476
 1423SOL     OW 5736   4.058   0.345   2.395 -0.2002 -0.1632 -0.4331
 1423SOL    HW2 5737   4.130   0.391   2.352 -0.0478  0.6627  0.6611
 1423SOL    HW3 5738   3.979   0.380   2.354 -0.0874  1.1692  0.4657
 1423SOL    MW4 5739   4.057   0.356   2.384 -0.1655  0.1216 -0.1702
 1424SOL     OW 5740   4.272   0.479   2.241  0.2572 -0.1893  0.0725
 1424SOL    HW2 5741   4.285   0.572   2.261  0.4537 -0.3035  0.4897
 1424SOL    HW3 5742   4.345   0.435   2.283  0.7494 -0.4354 -1.0304
 1424SOL    MW4 5743   4.283   0.485   2.249  0.3481 -0.2368 -0.0181
 1425SOL     OW 5744   4.242   0.744   2.330 -0.4435  0.0347  0.5647
 1425SOL    HW2 5745   4.157   0.788   2.319 -0.1506  0.6664  0.7631
 1425SOL    HW3 5746   4.305   0.805   2.291 -0.2368 -1.1258 -0.9788
 1425SOL    MW4 5747   4.239   0.758   2.323 -0.3772 -0.0351  0.3872
 1426SOL     OW 5748   4.001   0.894   2.282  0.2640 -0.5575 -0.5851
 1426SOL    HW2 5749   4.027   0.985   2.298  0.2915 -0.6972  0.1491
 1426SOL    HW3 5750   3.982   0.891   2.188  0.5275  0.1407 -0.6632
 1426SOL    MW4 5751   4.002   0.906   2.271  0.3018 -0.4838 -0.4983
 1427SOL     OW 5752   4.052   1.160   2.394  0.6277 -0.1819 -0.2829
 1427SOL    HW2 5753   4.033   1.136   2.485  1.1999  1.0151  0.1603
 1427SOL    HW3 5754   3.979   1.216   2.368  1.6805  1.4670  0.2464
 1427SOL    MW4 5755   4.040   1.164   2.402  0.8416  0.1935 -0.1550
 1428SOL     OW 5756   4.271   1.308   2.273 -0.2431  0.3955 -0.0364
 1428SOL    HW2 5757   4.205   1.259   2.321 -0.8946  1.3707  0.0671
 1428SOL    HW3 5758   4.354   1.264   2.295 -0.7491 -0.2952  0.5064
 1428SOL    MW4 5759   4.274   1.296   2.283 -0.3953  0.4330  0.0489
 1429SOL     OW 5760   4.263   1.599   2.382  0.2051 -0.3820  0.3100
 1429SOL    HW2 5761   4.257   1.510   2.346 -0.6525 -0.5836  0.9499
 1429SOL    HW3 5762   4.348   1.631   2.352 -0.0895 -0.8946 -1.1285
 1429SOL    MW4 5763   4.273   1.591   2.373  0.0529 -0.4762  0.2046
 1430SOL     OW 5764   4.046   1.665   2.228  0.0031  0.1895  0.1213
 1430SOL    HW2 5765   4.115   1.657   2.294  0.8693 -0.2064 -0.8331
 1430SOL    HW3 5766   3.970   1.621   2.266 -0.0951  1.6269  1.6673
 1430SOL    MW4 5767   4.045   1.658   2.242  0.1044  0.3269  0.1993
 1431SOL     OW 5768   4.047   1.934   2.313 -0.0285  0.5321  0.0520
 1431SOL    HW2 5769   4.038   1.920   2.407  0.5171  2.0144  0.3350
 1431SOL    HW3 5770   4.024   1.850   2.274  0.4158 -0.2924  1.5404
 1431SOL    MW4 5771   4.043   1.921   2.320  0.1020  0.6188  0.2856
 1432SOL     OW 5772   4.279   2.064   2.231  0.3162  0.0179  0.1437
 1432SOL    HW2 5773   4.272   2.154   2.264 -0.3631  0.3424 -0.8682
 1432SOL    HW3 5774   4.204   2.018   2.269 -0.5727  0.4391 -1.0792
 1432SOL    MW4 5775   4.268   2.070   2.240  0.1092  0.1163 -0.1512
 1433SOL     OW 5776   4.306   2.317   2.351  0.2647 -0.0562 -0.1665
 1433SOL    HW2 5777   4.233   2.376   2.329  0.0791 -0.1480  0.1982
 1433SOL    HW3 5778   4.379   2.347   2.297 -0.3769 -0.7004 -1.4177
 1433SOL    MW4 5779   4.306   2.329   2.341  0.1554 -0.1535 -0.2835
 1434SOL     OW 5780   4.081   2.460   2.274 -0.3536 -0.2250 -0.5296
 1434SOL    HW2 5781   4.046   2.544   2.304 -0.8303 -0.0096 -1.6646
 1434SOL    HW3 5782   4.013   2.397   2.297 -0.2137 -0.2315 -0.1253
 1434SOL    MW4 5783   4.068   2.463   2.281 -0.3982 -0.1972 -0.6261
 1435SOL     OW 5784   4.044   2.750   2.354  0.0902 -0.0515 -0.6831
 1435SOL    HW2 5785   4.018   2.739   2.445  0.4767 -1.2539 -0.7041
 1435SOL    HW3 5786   3.968   2.788   2.311 -0.4328 -0.3825 -0.0560
 1435SOL    MW4 5787   4.031   2.753   2.360  0.0720 -0.2537 -0.6032
 1436SOL     OW 5788   4.255   2.853   2.228  0.0347 -0.1564 -0.1987
 1436SOL    HW2 5789   4.195   2.815   2.291 -0.1238  0.1025 -0.1916
 1436SOL    HW3 5790   4.341   2.817   2.251 -0.1893 -0.9099 -0.5143
 1436SOL    MW4 5791   4.259   2.843   2.239 -0.0157 -0.2215 -0.2394
 1437SOL     OW 5792   4.266   3.095   2.308 -0.2201  0.1632 -0.1502
 1437SOL    HW2 5793   4.248   3.013   2.261 -0.9734  0.1898  0.0908
 1437SOL    HW3 5794   4.357   3.116   2.285 -0.3315 -0.2323 -0.9887
 1437SOL    MW4 5795   4.276   3.087   2.299 -0.3343  0.1144 -0.2291
 1438SOL     OW 5796   4.028   3.209   2.216  0.2701 -0.3482  0.0692
 1438SOL    HW2 5797   4.028   3.293   2.263 -1.2440 -0.1763 -0.2226
 1438SOL    HW3 5798   4.110   3.167   2.242  0.5739  0.7965  0.9867
 1438SOL    MW4 5799   4.039   3.215   2.226  0.1101 -0.1748  0.1519
 1439SOL     OW 5800   4.045   3.486   2.308  0.4917 -0.0400 -0.2630
 1439SOL    HW2 5801   4.124   3.533   2.283  0.2551  0.6838  0.3431
 1439SOL    HW3 5802   3.973   3.542   2.277  0.2101  0.0141  0.4750
 1439SOL    MW4 5803   4.046   3.500   2.301  0.4230  0.0627 -0.0851
 1440SOL     OW 5804   4.283   3.601   2.230  0.2662  0.5051 -0.2840
 1440SOL    HW2 5805   4.278   3.690   2.265 -0.6708 -0.2600  1.6047
 1440SOL    HW3 5806   4.267   3.611   2.137 -2.8823  2.0023  0.3461
 1440SOL    MW4 5807   4.280   3.614   2.223 -0.2728  0.6018  0.0484
 1441SOL     OW 5808   4.275   3.888   2.318  0.1226  0.1003  0.2374
 1441SOL    HW2 5809   4.284   3.900   2.412  1.6323  0.6090  0.0349
 1441SOL    HW3 5810   4.359   3.916   2.282  0.1545 -1.6434 -1.1180
 1441SOL    MW4 5811   4.287   3.893   2.326  0.3266 -0.0627  0.0319
 1442SOL     OW 5812   4.011   4.012   2.205  0.0640  0.5304  0.4112
 1442SOL    HW2 5813   4.086   3.973   2.250 -0.0195 -0.7965 -0.5820
 1442SOL    HW3 5814   4.033   4.006   2.112 -1.5091 -0.3944  0.0825
 1442SOL    MW4 5815   4.024   4.006   2.199 -0.1550  0.2332  0.2370
 1443SOL     OW 5816   4.047   4.253   2.351 -0.9118  0.0677  0.2041
 1443SOL    HW2 5817   4.109   4.290   2.288 -1.1979 -0.2173 -0.2425
 1443SOL    HW3 5818   4.020   4.170   2.313  1.2544 -1.6093  2.1129
 1443SOL    MW4 5819   4.052   4.247   2.338 -0.6633 -0.1912  0.3972
 1444SOL     OW 5820   4.236   4.364   2.197  0.2329  0.5709 -0.2838
 1444SOL    HW2 5821   4.240   4.446   2.247 -1.7425  0.3457  0.2890
 1444SOL    HW3 5822   4.322   4.324   2.209  0.7996  1.9738  0.4325
 1444SOL    MW4 5823   4.248   4.369   2.205  0.0467  0.7262 -0.1137
 1445SOL     OW 5824   0.236   4.618   2.640 -0.0530 -0.2297  0.1093
 1445SOL    HW2 5825   0.224   4.531   2.679 -1.0756  0.1077  0.5882
 1445SOL    HW3 5826   0.151   4.661   2.652  0.1078  0.4465 -1.0987
 1445SOL    MW4 5827   0.223   4.612   2.647 -0.1667 -0.0958  0.0134
 1446SOL     OW 5828   4.483   0.074   2.715  0.6074 -0.0640 -0.4587
 1446SOL    HW2 5829   4.470   0.064   2.810  2.0754 -2.1542 -0.4416
 1446SOL    HW3 5830   4.491   0.168   2.701 -0.1164  0.2974  1.4323
 1446SOL    MW4 5831   4.482   0.085   2.726  0.7062 -0.2921 -0.2067
 1447SOL     OW 5832   4.437   0.348   2.644  0.0602 -0.0823  0.2183
 1447SOL    HW2 5833   4.505   0.410   2.669  0.1141 -0.0396 -0.0288
 1447SOL    HW3 5834   4.445   0.341   2.549  1.3143 -1.9364  0.4410
 1447SOL    MW4 5835   4.447   0.355   2.635  0.2327 -0.3213  0.2153
 1448SOL     OW 5836   0.175   0.494   2.715  0.2698  0.0410  0.9751
 1448SOL    HW2 5837   0.204   0.490   2.806  0.0886 -1.4333  0.9834
 1448SOL    HW3 5838   0.247   0.455   2.665 -0.8591 -1.9500  0.8143
 1448SOL    MW4 5839   0.189   0.488   2.720  0.0970 -0.4162  0.9553
 1449SOL     OW 5840   0.197   0.734   2.600  0.2231  0.0234 -0.2603
 1449SOL    HW2 5841   0.273   0.768   2.647  1.4001  0.2652 -2.2867
 1449SOL    HW3 5842   0.188   0.644   2.632 -0.8498  1.1007  2.6122
 1449SOL    MW4 5843   0.206   0.726   2.610  0.2369  0.1974 -0.1485
 1450SOL     OW 5844   4.474   0.898   2.708 -0.2691 -0.2940  0.4983
 1450SOL    HW2 5845   4.388   0.864   2.685 -0.2360 -0.0181 -0.0452
 1450SOL    HW3 5846   4.535   0.830   2.681 -0.3121 -0.4336  0.7615
 1450SOL    MW4 5847   4.470   0.885   2.701 -0.2704 -0.2760  0.4613
 1451SOL     OW 5848   0.004   1.161   2.615  0.3028 -0.2772  0.3378
 1451SOL    HW2 5849   0.081   1.201   2.657  0.5326  0.0481 -0.3952
 1451SOL    HW3 5850  -0.005   1.076   2.657  0.9013 -0.2029  0.6165
 1451SOL    MW4 5851   0.013   1.155   2.626  0.4121 -0.2246  0.2778
 1452SOL     OW 5852   0.237   1.254   2.731 -0.7315  0.2559 -0.2201
 1452SOL    HW2 5853   0.294   1.186   2.695  0.6607  0.3842  1.6707
 1452SOL    HW3 5854   0.271   1.336   2.695 -0.9829  0.1511 -0.6945
 1452SOL    MW4 5855   0.249   1.256   2.722 -0.5810  0.2590 -0.0334
 1453SOL     OW 5856   0.278   1.506   2.644 -0.6776 -0.0349 -0.4652
 1453SOL    HW2 5857   0.345   1.567   2.675 -1.0117  0.1152 -0.0392
 1453SOL    HW3 5858   0.196   1.542   2.676 -0.8083 -1.0927  0.3956
 1453SOL    MW4 5859   0.276   1.519   2.652 -0.7389 -0.1546 -0.2949
 1454SOL     OW 5860   0.043   1.651   2.727  0.3033  0.2661  0.2105
 1454SOL    HW2 5861   0.031   1.662   2.822 -0.0930  0.5504  0.1286
 1454SOL    HW3 5862   0.025   1.737   2.691  0.0725  0.0611 -0.1640
 1454SOL    MW4 5863   0.039   1.664   2.735  0.2206  0.2766  0.1504
 1455SOL     OW 5864   4.484   1.910   2.666  0.1589 -0.0865  0.1682
 1455SOL    HW2 5865   4.571   1.944   2.688 -0.4359  1.2373  0.5128
 1455SOL    HW3 5866   4.479   1.919   2.571 -0.2155  1.3636  0.3118
 1455SOL    MW4 5867   4.495   1.916   2.656  0.0309  0.2795  0.2327
 1456SOL     OW 5868   0.222   2.028   2.744 -0.6102  0.1324 -0.6102
 1456SOL    HW2 5869   0.289   1.982   2.693 -0.0300  0.3751 -0.0816
 1456SOL    HW3 5870   0.221   2.117   2.708 -0.7965  0.0738 -0.7526
 1456SOL    MW4 5871   0.231   2.034   2.733 -0.5582  0.1569 -0.5593
 1457SOL     OW 5872   0.213   2.290   2.635  0.3068 -0.1858  0.1950
 1457SOL    HW2 5873   0.291   2.338   2.665  0.5321  0.7063 -1.7518
 1457SOL    HW3 5874   0.139   2.343   2.665  0.4962 -0.0085  0.3473
 1457SOL    MW4 5875   0.213   2.303   2.643  0.3615 -0.0448 -0.0417
 1458SOL     OW 5876   0.012   2.454   2.737  0.1894 -0.2857 -0.1287
 1458SOL    HW2 5877   0.013   2.443   2.832 -0.0594 -0.2186 -0.1189
 1458SOL    HW3 5878  -0.061   2.399   2.707  0.4613 -0.5543 -0.3116
 1458SOL    MW4 5879   0.003   2.445   2.745  0.1926 -0.3121 -0.1516
 1459SOL     OW 5880   0.011   2.701   2.618  0.0339 -0.6401  0.0069
 1459SOL    HW2 5881  -0.061   2.743   2.665  0.9478  0.4476  0.4437
 1459SOL    HW3 5882   0.015   2.613   2.655  0.0751 -0.1299  1.2386
 1459SOL    MW4 5883   0.002   2.695   2.629  0.1600 -0.4292  0.2267
 1460SOL     OW 5884   0.258   2.811   2.681 -0.8251  0.0988 -0.0877
 1460SOL    HW2 5885   0.234   2.903   2.673  0.2436  0.3172 -0.9545
 1460SOL    HW3 5886   0.176   2.763   2.670 -1.1130  0.8790 -1.4298
 1460SOL    MW4 5887   0.244   2.817   2.679 -0.7220  0.2306 -0.3793
 1461SOL     OW 5888   0.232   3.087   2.669  0.0259 -0.2344  0.2227
 1461SOL    HW2 5889   0.318   3.120   2.696  0.4183 -0.7716 -0.3753
 1461SOL    HW3 5890   0.236   3.085   2.574 -0.3150 -1.1688  0.2281
 1461SOL    MW4 5891   0.244   3.091   2.660  0.0327 -0.4284  0.1445
 1462SOL     OW 5892   0.008   3.246   2.722  0.1818 -0.4770  0.3130
 1462SOL    HW2 5893  -0.064   3.190   2.690  0.3722 -0.2080 -0.6194
 1462SOL    HW3 5894   0.085   3.189   2.719  0.1440 -0.5465  0.6115
 1462SOL    MW4 5895   0.008   3.231   2.717  0.2022 -0.4506  0.2294
 1463SOL     OW 5896   4.488   3.482   2.572 -0.2912  0.2203  0.1071
 1463SOL    HW2 5897   4.553   3.524   2.628 -1.0113 -0.0139  1.1303
 1463SOL    HW3 5898   4.476   3.395   2.611 -0.4740 -0.1042 -0.6689
 1463SOL    MW4 5899   4.495   3.476   2.585 -0.4104  0.1466  0.1395
 1464SOL     OW 5900   0.183   3.660   2.746 -0.5888 -0.2244  0.5612
 1464SOL    HW2 5901   0.204   3.657   2.839  0.3101 -1.7289  0.3287
 1464SOL    HW3 5902   0.251   3.607   2.704  0.5489  2.5049 -1.2443
 1464SOL    MW4 5903   0.195   3.653   2.753 -0.3201 -0.0629  0.2925
 1465SOL     OW 5904   0.202   3.903   2.614  0.2144  0.3231 -0.0891
 1465SOL    HW2 5905   0.203   3.816   2.653 -0.0595 -0.1699 -1.1986
 1465SOL    HW3 5906   0.191   3.889   2.521 -0.9791  1.5927 -0.1621
 1465SOL    MW4 5907   0.201   3.890   2.607  0.0208  0.4256 -0.2453
 1466SOL     OW 5908   4.489   4.029   2.741 -0.1222  0.2453  0.0601
 1466SOL    HW2 5909   4.492   4.113   2.695  0.4685 -0.6400 -1.5404
 1466SOL    HW3 5910   4.562   3.979   2.705 -0.3312 -0.8898  1.1667
 1466SOL    MW4 5911   4.499   4.033   2.731 -0.0720 -0.0215 -0.0052
 1467SOL     OW 5912   4.438   4.267   2.577 -0.2594 -0.4559  0.0202
 1467SOL    HW2 5913   4.356   4.282   2.625 -0.6288 -1.0498 -0.4146
 1467SOL    HW3 5914   4.503   4.320   2.624 -0.7232 -0.6058  0.8504
 1467SOL    MW4 5915   4.435   4.276   2.590 -0.3695 -0.5541  0.0725
 1468SOL     OW 5916   0.177   4.357   2.709  0.3015  0.3179  0.1768
 1468SOL    HW2 5917   0.209   4.352   2.799  1.9893  3.3187 -0.1724
 1468SOL    HW3 5918   0.247   4.318   2.656 -0.3546 -0.7621  0.1047
 1468SOL    MW4 5919   0.190   4.351   2.714  0.4376  0.5717  0.1211
 1469SOL     OW 5920   0.648   0.002   2.627 -0.1026  0.0797  0.2755
 1469SOL    HW2 5921   0.727   0.037   2.668 -0.0257 -0.7067  0.8168
 1469SOL    HW3 5922   0.577   0.057   2.661 -0.0017 -0.3753  1.2404
 1469SOL    MW4 5923   0.649   0.014   2.637 -0.0791 -0.0839  0.4740
 1470SOL     OW 5924   0.425   0.129   2.730 -0.0407  0.1495 -0.0553
 1470SOL    HW2 5925   0.450   0.103   2.819 -1.3652  0.5860  0.4528
 1470SOL    HW3 5926   0.364   0.061   2.702  1.8165 -1.0242 -1.3687
 1470SOL    MW4 5927   0.420   0.117   2.738  0.0295  0.0522 -0.1614
 1471SOL     OW 5928   0.403   0.368   2.590  0.2399  0.2116  0.3518
 1471SOL    HW2 5929   0.474   0.418   2.630  0.4385  0.9451 -0.8883
 1471SOL    HW3 5930   0.399   0.287   2.640  2.4429 -0.1564 -0.0194
 1471SOL    MW4 5931   0.412   0.364   2.602  0.5568  0.2598  0.1395
 1472SOL     OW 5932   0.617   0.493   2.709 -0.2975 -0.4647  0.2974
 1472SOL    HW2 5933   0.618   0.492   2.805 -3.6137 -2.4609  0.3934
 1472SOL    HW3 5934   0.685   0.431   2.683 -0.4711 -1.1417  1.4139
 1472SOL    MW4 5935   0.626   0.485   2.718 -0.7579 -0.8174  0.4575
 1473SOL     OW 5936   0.674   0.739   2.598 -0.2119 -0.4315 -0.2737
 1473SOL    HW2 5937   0.755   0.777   2.634  0.9371 -0.3965 -2.8287
 1473SOL    HW3 5938   0.671   0.651   2.634  0.3282 -0.0268  0.7891
 1473SOL    MW4 5939   0.684   0.733   2.608  0.0109 -0.3735 -0.4706
 1474SOL     OW 5940   0.422   0.832   2.724 -0.1401  0.0115  0.6120
 1474SOL    HW2 5941   0.430   0.924   2.699  0.5068  0.1131  1.1545
 1474SOL    HW3 5942   0.506   0.793   2.698 -0.3578 -0.3898  0.5121
 1474SOL    MW4 5943   0.434   0.839   2.717 -0.0835 -0.0280  0.6704
 1475SOL     OW 5944   0.433   1.092   2.627 -0.3617  0.1185  0.7366
 1475SOL    HW2 5945   0.519   1.120   2.659 -0.1536  0.2318  0.0925
 1475SOL    HW3 5946   0.436   1.111   2.533 -0.7451 -0.7534  0.5507
 1475SOL    MW4 5947   0.445   1.098   2.619 -0.3848  0.0185  0.6273
 1476SOL     OW 5948   0.662   1.253   2.732 -0.3813 -0.0695 -0.5319
 1476SOL    HW2 5949   0.669   1.243   2.826  1.2562  2.2745 -0.3551
 1476SOL    HW3 5950   0.747   1.224   2.698 -0.9829 -0.9725 -1.3013
 1476SOL    MW4 5951   0.674   1.248   2.740 -0.2446  0.1206 -0.6101
 1477SOL     OW 5952   0.710   1.511   2.647 -0.4170  0.5989 -0.5928
 1477SOL    HW2 5953   0.643   1.579   2.664  1.0455  2.0900 -0.6408
 1477SOL    HW3 5954   0.676   1.433   2.692 -1.3876  1.7894  0.8272
 1477SOL    MW4 5955   0.696   1.510   2.656 -0.3521  0.9528 -0.4115
 1478SOL     OW 5956   0.502   1.673   2.718  0.0914 -0.1220 -0.3998
 1478SOL    HW2 5957   0.501   1.685   2.813  0.0548  0.0528 -0.4218
 1478SOL    HW3 5958   0.500   1.762   2.682  0.1967 -0.1843 -0.5639
 1478SOL    MW4 5959   0.501   1.687   2.726  0.1005 -0.1073 -0.4244
 1479SOL     OW 5960   0.437   1.925   2.585 -0.1657 -0.1153  0.6854
 1479SOL    HW2 5961   0.509   1.979   2.617  1.5961 -1.7829 -0.3508
 1479SOL    HW3 5962   0.443   1.930   2.490 -1.9337  0.3585  0.5705
 1479SOL    MW4 5963   0.447   1.933   2.577 -0.1665 -0.2728  0.5336
 1480SOL     OW 5964   0.664   2.043   2.685 -0.4308 -0.2834 -0.6678
 1480SOL    HW2 5965   0.654   2.047   2.781  0.5310  0.5342 -0.5992
 1480SOL    HW3 5966   0.747   1.998   2.672 -0.4870 -0.2538 -1.1290
 1480SOL    MW4 5967   0.673   2.038   2.696 -0.3113 -0.1714 -0.7195
 1481SOL     OW 5968   0.643   2.306   2.574 -0.0371  0.3394 -0.2565
 1481SOL    HW2 5969   0.711   2.356   2.619  0.2508  0.1052 -0.4296
 1481SOL    HW3 5970   0.647   2.219   2.614 -0.8430  0.5848  0.3592
 1481SOL    MW4 5971   0.653   2.301   2.585 -0.1054  0.3407 -0.1981
 1482SOL     OW 5972   0.443   2.458   2.673  0.0113  0.2056 -0.1544
 1482SOL    HW2 5973   0.456   2.545   2.634  2.0243  0.5104  1.1231
 1482SOL    HW3 5974   0.502   2.401   2.623 -0.0024 -0.0695  0.1449
 1482SOL    MW4 5975   0.453   2.462   2.661  0.2750  0.2091  0.0536
 1483SOL     OW 5976   0.481   2.704   2.561  0.2110 -0.0195 -0.1597
 1483SOL    HW2 5977   0.558   2.729   2.611  0.2943 -0.5563 -0.0174
 1483SOL    HW3 5978   0.412   2.762   2.593  1.2315  2.5119 -2.3841
 1483SOL    MW4 5979   0.482   2.715   2.572  0.3566  0.2437 -0.4344
 1484SOL     OW 5980   0.702   2.836   2.714  0.0305 -0.2804 -0.3671
 1484SOL    HW2 5981   0.674   2.845   2.805  1.1873  0.8001 -0.0971
 1484SOL    HW3 5982   0.718   2.926   2.686  4.6196 -0.8709 -0.0246
 1484SOL    MW4 5983   0.701   2.849   2.723  0.7887 -0.2155 -0.2861
 1485SOL     OW 5984   0.692   3.105   2.646  0.3182 -0.3939 -0.1652
 1485SOL    HW2 5985   0.767   3.154   2.679 -1.3472  1.9460  0.2234
 1485SOL    HW3 5986   0.702   3.108   2.551  0.7502 -0.1673 -0.1148
 1485SOL    MW4 5987   0.703   3.112   2.638  0.1554 -0.0551 -0.1075
 1486SOL     OW 5988   0.477   3.242   2.744 -0.2564 -0.2106  0.1067
 1486SOL    HW2 5989   0.477   3.234   2.839 -1.1919 -0.3326  0.1049
 1486SOL    HW3 5990   0.551   3.190   2.715  0.2445  0.1154  0.7916
 1486SOL    MW4 5991   0.487   3.234   2.753 -0.3138 -0.1838  0.1969
 1487SOL     OW 5992   0.380   3.489   2.625 -0.1462  0.2263  0.3340
 1487SOL    HW2 5993   0.391   3.399   2.656 -2.9794 -0.5647 -0.8436
 1487SOL    HW3 5994   0.388   3.483   2.530  0.4425  1.3627  0.3012
 1487SOL    MW4 5995   0.383   3.476   2.616 -0.4423  0.2720  0.1743
 1488SOL     OW 5996   0.660   3.609   2.710 -0.1131 -0.1586 -0.1805
 1488SOL    HW2 5997   0.659   3.610   2.806  0.6056  1.3310 -0.1738
 1488SOL    HW3 5998   0.584   3.556   2.686 -1.1604  0.6763  1.1955
 1488SOL    MW4 5999   0.650   3.602   2.719 -0.1565  0.1478  0.0017
 1489SOL     OW 6000   0.643   3.876   2.614 -0.2269 -0.6111  0.6613
 1489SOL    HW2 6001   0.584   3.930   2.667 -0.6186  1.1041 -1.4393
 1489SOL    HW3 6002   0.641   3.790   2.656 -2.0999  0.1534  2.2273
 1489SOL    MW4 6003   0.635   3.872   2.627 -0.5257 -0.2842  0.5906
 1490SOL     OW 6004   0.426   4.003   2.739 -0.8267 -0.2627  0.5817
 1490SOL    HW2 6005   0.443   4.083   2.690 -1.0768  1.2194  2.8201
 1490SOL    HW3 6006   0.343   3.971   2.705 -0.8088  0.5288 -0.2171
 1490SOL    MW4 6007   0.417   4.010   2.728 -0.8573  0.0372  0.7718
 1491SOL     OW 6008   0.425   4.243   2.599  0.0904  0.6736  0.0989
 1491SOL    HW2 6009   0.473   4.318   2.636 -1.8663  1.7915  0.4516
 1491SOL    HW3 6010   0.436   4.253   2.504 -0.0787  1.3628  0.1458
 1491SOL    MW4 6011   0.433   4.255   2.591 -0.1900  0.9122  0.1519
 1492SOL     OW 6012   0.643   4.406   2.714  0.1716  0.1546  0.2283
 1492SOL    HW2 6013   0.718   4.355   2.683  0.5746  0.0011  1.4488
 1492SOL    HW3 6014   0.659   4.494   2.680  0.9177  0.1256  0.4836
 1492SOL    MW4 6015   0.655   4.411   2.705  0.3232  0.1307  0.4230
 1493SOL     OW 6016   1.151   4.632   2.648 -0.0735  0.0486  0.1241
 1493SOL    HW2 6017   1.228   4.670   2.689 -0.1593  0.9116 -0.5013
 1493SOL    HW3 6018   1.162   4.537   2.659  1.3060  0.1423 -0.3870
 1493SOL    MW4 6019   1.163   4.624   2.655  0.0973  0.1750 -0.0257
 1494SOL     OW 6020   0.919   0.102   2.711  0.2086  0.1087  0.6135
 1494SOL    HW2 6021   0.922   0.091   2.806 -0.4704 -1.1623  0.5004
 1494SOL    HW3 6022   0.997   0.055   2.680  0.3455  0.3897  0.5349
 1494SOL    MW4 6023   0.930   0.094   2.719  0.1372 -0.0219  0.5882
 1495SOL     OW 6024   0.866   0.363   2.641  0.1537 -0.1348  0.1371
 1495SOL    HW2 6025   0.883   0.271   2.664  0.1930  0.1652  1.3395
 1495SOL    HW3 6026   0.889   0.369   2.548 -0.7170 -1.5600 -0.1942
 1495SOL    MW4 6027   0.871   0.352   2.631  0.0440 -0.2833  0.2522
 1496SOL     OW 6028   1.082   0.497   2.755  0.2734 -0.4039  0.0154
 1496SOL    HW2 6029   1.095   0.579   2.707  2.4502 -0.8044 -0.1328
 1496SOL    HW3 6030   1.017   0.449   2.703  0.0887  0.5988 -0.6928
 1496SOL    MW4 6031   1.075   0.502   2.741  0.5362 -0.3244 -0.0975
 1497SOL     OW 6032   1.105   0.752   2.625  0.3159 -0.2632  0.0170
 1497SOL    HW2 6033   1.176   0.805   2.661  2.1126 -1.3331 -1.8417
 1497SOL    HW3 6034   1.106   0.771   2.531 -1.6274 -0.5934 -0.0935
 1497SOL    MW4 6035   1.114   0.761   2.617  0.2966 -0.4479 -0.2427
 1498SOL     OW 6036   0.877   0.886   2.719  0.2891  0.2094  0.0826
 1498SOL    HW2 6037   0.881   0.905   2.812 -0.2573  0.8241 -0.0118
 1498SOL    HW3 6038   0.953   0.830   2.702 -1.0497 -2.0921  1.4024
 1498SOL    MW4 6039   0.887   0.881   2.729  0.0404 -0.0131  0.2441
 1499SOL     OW 6040   0.882   1.136   2.590  0.1824  0.0281  0.5468
 1499SOL    HW2 6041   0.892   1.044   2.613  0.8944 -0.0951 -0.2239
 1499SOL    HW3 6042   0.878   1.137   2.495 -0.5462  0.7326  0.5761
 1499SOL    MW4 6043   0.883   1.124   2.581  0.1802  0.1048  0.4489
 1500SOL     OW 6044   1.107   1.266   2.675  0.0436 -0.2583 -0.2340
 1500SOL    HW2 6045   1.117   1.357   2.646 -0.9876  0.7369  2.3779
 1500SOL    HW3 6046   1.018   1.242   2.648 -0.9009  0.6528  2.0045
 1500SOL    MW4 6047   1.097   1.275   2.668 -0.2171 -0.0068  0.4060
 1501SOL     OW 6048   1.177   1.533   2.613 -0.2893  1.0297 -0.0469
 1501SOL    HW2 6049   1.107   1.591   2.643 -0.4719  0.2349  1.0748
 1501SOL    HW3 6050   1.170   1.536   2.517 -0.8574  2.1675  0.0183
 1501SOL    MW4 6051   1.167   1.541   2.604 -0.3884  1.0750  0.1097
 1502SOL     OW 6052   0.930   1.671   2.700  0.0860 -0.3551  0.4160
 1502SOL    HW2 6053   0.925   1.671   2.795 -0.1899 -0.9246  0.4020
 1502SOL    HW3 6054   0.860   1.611   2.672  0.2887 -0.3381 -0.1357
 1502SOL    MW4 6055   0.920   1.663   2.709  0.0763 -0.4280  0.3414
 1503SOL     OW 6056   0.890   1.925   2.613  0.0768 -0.2633 -0.3227
 1503SOL    HW2 6057   0.959   1.969   2.663 -1.1202 -0.8541  1.9489
 1503SOL    HW3 6058   0.900   1.832   2.635 -0.6267 -0.5081 -1.0134
 1503SOL    MW4 6059   0.901   1.919   2.623 -0.1740 -0.3736 -0.1140
 1504SOL     OW 6060   1.122   2.058   2.725  0.2287  0.2168 -0.4556
 1504SOL    HW2 6061   1.209   2.031   2.697  0.5667  1.0920 -0.2669
 1504SOL    HW3 6062   1.125   2.056   2.821  0.1891  0.7197 -0.4451
 1504SOL    MW4 6063   1.134   2.054   2.734  0.2681  0.3986 -0.4294
 1505SOL     OW 6064   1.070   2.308   2.607  0.3952 -0.2516  0.4457
 1505SOL    HW2 6065   1.155   2.344   2.631  0.3483  0.3730 -0.2980
 1505SOL    HW3 6066   1.073   2.218   2.637  1.8006 -0.6048 -0.7057
 1505SOL    MW4 6067   1.081   2.301   2.614  0.5745 -0.2155  0.1957
 1506SOL     OW 6068   0.841   2.424   2.723  0.2983 -0.6793 -0.3268
 1506SOL    HW2 6069   0.860   2.514   2.696 -0.6409 -0.3228  0.1928
 1506SOL    HW3 6070   0.912   2.372   2.683  0.5653  0.2127 -1.0432
 1506SOL    MW4 6071   0.853   2.429   2.714  0.2096 -0.5143 -0.3524
 1507SOL     OW 6072   0.914   2.693   2.636  0.0873 -0.4411 -0.2389
 1507SOL    HW2 6073   0.992   2.731   2.678  0.0129  0.5357 -0.9820
 1507SOL    HW3 6074   0.841   2.742   2.674 -0.2904 -2.2479  1.4507
 1507SOL    MW4 6075   0.915   2.704   2.647  0.0276 -0.5505 -0.1142
 1508SOL     OW 6076   1.146   2.822   2.724  0.2321 -0.1743  0.1299
 1508SOL    HW2 6077   1.162   2.819   2.818 -2.0483 -0.5077  0.5275
 1508SOL    HW3 6078   1.226   2.787   2.686  1.0656 -0.3257  1.9546
 1508SOL    MW4 6079   1.159   2.817   2.731  0.0412 -0.2384  0.4230
 1509SOL     OW 6080   1.148   3.096   2.623  0.0000  0.0000 -0.0859
 1509SOL    HW2 6081   1.122   3.007   2.646  0.0000  0.0000 -0.0859
 1509SOL    HW3 6082   1.136   3.101   2.528  0.0000  0.0000 -0.0857
 1509SOL    MW4 6083   1.143   3.085   2.614  0.0000  0.0000 -0.0858
 1510SOL     OW 6084   0.919   3.208   2.755  0.0000  0.0000  0.4380
 1510SOL    HW2 6085   0.903   3.287   2.703  0.0000  0.0000  0.4626
 1510SOL    HW3 6086   1.006   3.179   2.728  0.0000  0.0000  0.4121
 1510SOL    MW4 6087   0.928   3.215   2.745  0.0000  0.0000  0.4380
 1511SOL     OW 6088   0.887   3.462   2.615  0.0000  0.0000  0.8153
 1511SOL    HW2 6089   0.961   3.509   2.655  0.0000  0.0000  0.8906
 1511SOL    HW3 6090   0.810   3.512   2.642  0.0000  0.0000  0.7207
 1511SOL    MW4 6091   0.887   3.475   2.624  0.0000  0.0000  0.8128
 1512SOL     OW 6092   1.102   3.599   2.739  0.0000  0.0000 -0.6653
 1512SOL    HW2 6093   1.101   3.626   2.831  0.0000  0.0000 -0.6651
 1512SOL    HW3 6094   1.100   3.681   2.690  0.0000  0.0000 -0.6651
 1512SOL    MW4 6095   1.102   3.613   2.745  0.0000  0.0000 -0.6652
 1513SOL     OW 6096   1.098   3.851   2.619  0.0000  0.0000 -0.1109
 1513SOL    HW2 6097   1.178   3.889   2.657  0.0000  0.0000 -0.1105
 1513SOL    HW3 6098   1.110   3.859   2.524  0.0000  0.0000 -0.1105
 1513SOL    MW4 6099   1.110   3.857   2.611  0.0000  0.0000 -0.1106
 1514SOL     OW 6100   0.893   4.008   2.727  0.0000  0.0000 -0.7653
 1514SOL    HW2 6101   0.957   3.963   2.672  0.0000  0.0000 -0.7602
 1514SOL    HW3 6102   0.809   3.969   2.702  0.0000  0.0000 -0.7651
 1514SOL    MW4 6103   0.890   3.997   2.716  0.0000  0.0000 -0.7644
 1515SOL     OW 6104   0.888   4.266   2.617  0.0000  0.0000 -0.1103
 1515SOL    HW2 6105   0.892   4.173   2.642  0.0000  0.0000 -0.1124
 1515SOL    HW3 6106   0.884   4.265   2.522  0.0000  0.0000 -0.1102
 1515SOL    MW4 6107   0.888   4.254   2.608  0.0000  0.0000 -0.1106
 1516SOL     OW 6108   1.144   4.351   2.728  0.0000  0.0000  0.1582
 1516SOL    HW2 6109   1.137   4.378   2.820  0.0000  0.0000  0.1587
 1516SOL    HW3 6110   1.055   4.327   2.703  0.0000  0.0000  0.1603
 1516SOL    MW4 6111   1.131   4.351   2.737  0.0000  0.0000  0.1585
 1517SOL     OW 6112   1.593   4.643   2.608  0.0000  0.0000  0.2718
 1517SOL    HW2 6113   1.588   4.549   2.624  0.0000  0.0000  0.2680
 1517SOL    HW3 6114   1.581   4.652   2.513  0.0000  0.0000  0.2720
 1517SOL    MW4 6115   1.591   4.632   2.597  0.0000  0.0000  0.2713
 1518SOL     OW 6116   1.379   0.094   2.728  0.2872 -0.0205 -0.3446
 1518SOL    HW2 6117   1.361   0.181   2.692 -1.3187 -0.7289 -1.3232
 1518SOL    HW3 6118   1.456   0.063   2.680  1.8854  1.5203  1.1838
 1518SOL    MW4 6119   1.387   0.101   2.717  0.2862  0.0893 -0.2720
 1519SOL     OW 6120   1.296   0.346   2.645 -0.1633 -0.0024  0.2961
 1519SOL    HW2 6121   1.370   0.389   2.687  0.0200  1.3452 -1.3549
 1519SOL    HW3 6122   1.220   0.375   2.695  0.2220  0.1738  0.7824
 1519SOL    MW4 6123   1.295   0.356   2.657 -0.0882  0.1986  0.1426
 1520SOL     OW 6124   1.534   0.491   2.714 -0.0179  0.2284  0.1645
 1520SOL    HW2 6125   1.621   0.464   2.684 -0.4479  0.1094 -1.0109
 1520SOL    HW3 6126   1.535   0.476   2.808  0.8341 -0.8605 -0.0114
 1520SOL    MW4 6127   1.546   0.486   2.722  0.0378  0.0691 -0.0136
 1521SOL     OW 6128   1.545   0.742   2.618 -0.2674  0.2793  0.2232
 1521SOL    HW2 6129   1.533   0.655   2.657 -0.6205 -0.0488 -0.5776
 1521SOL    HW3 6130   1.469   0.792   2.648  0.0534  0.3767  0.8663
 1521SOL    MW4 6131   1.533   0.737   2.627 -0.2717  0.2488  0.2024
 1522SOL     OW 6132   1.322   0.893   2.725 -0.3916 -0.3595  0.1494
 1522SOL    HW2 6133   1.322   0.918   2.818  0.5110  0.3534 -0.0342
 1522SOL    HW3 6134   1.324   0.976   2.678  0.0177 -0.7296 -0.4985
 1522SOL    MW4 6135   1.322   0.907   2.731 -0.2185 -0.3143  0.0398
 1523SOL     OW 6136   1.327   1.137   2.601 -0.1428 -0.4829  0.0530
 1523SOL    HW2 6137   1.400   1.177   2.647 -0.7035  0.5315  0.0647
 1523SOL    HW3 6138   1.249   1.180   2.636 -0.6541 -0.5766 -0.9426
 1523SOL    MW4 6139   1.326   1.148   2.611 -0.2843 -0.3612 -0.0770
 1524SOL     OW 6140   1.547   1.300   2.716  0.6389 -0.1250 -0.1008
 1524SOL    HW2 6141   1.634   1.267   2.695  0.5607 -0.1942 -0.3114
 1524SOL    HW3 6142   1.533   1.274   2.807  0.4091 -1.0413 -0.3942
 1524SOL    MW4 6143   1.557   1.292   2.725  0.5982 -0.2550 -0.1674
 1525SOL     OW 6144   1.566   1.543   2.610  0.0259 -0.1648  0.1631
 1525SOL    HW2 6145   1.553   1.535   2.515  0.8091  0.4866 -0.0066
 1525SOL    HW3 6146   1.563   1.453   2.642  2.8142 -0.6978 -0.9174
 1525SOL    MW4 6147   1.564   1.530   2.602  0.4971 -0.1493 -0.0019
 1526SOL     OW 6148   1.383   1.710   2.699 -0.3061  0.0677  0.2393
 1526SOL    HW2 6149   1.457   1.663   2.659 -1.0200  0.3419 -1.4787
 1526SOL    HW3 6150   1.307   1.655   2.679 -0.8429  0.8293  0.1782
 1526SOL    MW4 6151   1.382   1.696   2.691 -0.4711  0.2043  0.0045
 1527SOL     OW 6152   1.356   1.978   2.615 -0.0994  0.4827 -0.8913
 1527SOL    HW2 6153   1.381   1.890   2.642  0.6611  1.3809  1.4339
 1527SOL    HW3 6154   1.351   1.973   2.519  1.3747 -1.7174 -0.8878
 1527SOL    MW4 6155   1.359   1.966   2.606  0.1955  0.3110 -0.5841
 1528SOL     OW 6156   1.580   2.072   2.736 -0.1854 -0.0289 -0.4289
 1528SOL    HW2 6157   1.657   2.027   2.698 -0.5365 -2.6481  1.7857
 1528SOL    HW3 6158   1.506   2.037   2.686 -0.3496 -1.1241  0.5517
 1528SOL    MW4 6159   1.581   2.061   2.724 -0.2536 -0.5190 -0.0072
 1529SOL     OW 6160   1.584   2.334   2.621 -0.1464 -0.6857  0.0175
 1529SOL    HW2 6161   1.654   2.386   2.660  0.6465 -0.5785 -1.5154
 1529SOL    HW3 6162   1.578   2.256   2.676  1.7351 -1.0689 -0.3033
 1529SOL    MW4 6163   1.592   2.330   2.633  0.2064 -0.7219 -0.2270
 1530SOL     OW 6164   1.316   2.406   2.673  0.0116  0.5491  0.6097
 1530SOL    HW2 6165   1.331   2.492   2.635  1.7639  1.1326  2.5833
 1530SOL    HW3 6166   1.399   2.359   2.662 -0.6222 -0.5654  0.4281
 1530SOL    MW4 6167   1.329   2.411   2.667  0.1591  0.4790  0.8461
 1531SOL     OW 6168   1.350   2.685   2.608  0.3959 -0.2796  0.0029
 1531SOL    HW2 6169   1.416   2.738   2.652 -1.2557  0.4352  1.6883
 1531SOL    HW3 6170   1.360   2.706   2.515  2.3291  0.0209  0.2713
 1531SOL    MW4 6171   1.360   2.695   2.602  0.4330 -0.1457  0.2611
 1532SOL     OW 6172   1.543   2.862   2.746 -0.4595  0.7947  0.1382
 1532SOL    HW2 6173   1.530   2.857   2.841 -0.5566 -0.8750  0.0459
 1532SOL    HW3 6174   1.629   2.824   2.732 -0.6355  0.6271 -0.4906
 1532SOL    MW4 6175   1.552   2.857   2.757 -0.4957  0.5524  0.0432
 1533SOL     OW 6176   1.559   3.088   2.591 -0.3938 -0.0192 -0.5101
 1533SOL    HW2 6177   1.641   3.134   2.612 -0.0597 -0.2271 -1.3391
 1533SOL    HW3 6178   1.563   3.008   2.643  0.3279 -0.4291 -1.1804
 1533SOL    MW4 6179   1.570   3.083   2.601 -0.2544 -0.1006 -0.7079
 1534SOL     OW 6180   1.363   3.223   2.738  0.1825 -0.1473 -0.5076
 1534SOL    HW2 6181   1.447   3.192   2.702  1.4628  2.1732  0.3908
 1534SOL    HW3 6182   1.297   3.172   2.691  1.9930 -0.2835 -3.0201
 1534SOL    MW4 6183   1.366   3.212   2.727  0.5902  0.1409 -0.7207
 1535SOL     OW 6184   1.336   3.478   2.634 -0.8969 -0.1491 -0.3836
 1535SOL    HW2 6185   1.348   3.390   2.668 -0.7403 -0.2137 -0.6039
 1535SOL    HW3 6186   1.263   3.514   2.685 -1.0373 -0.4463 -0.3736
 1535SOL    MW4 6187   1.328   3.471   2.645 -0.8947 -0.1965 -0.4113
 1536SOL     OW 6188   1.583   3.596   2.740 -0.4238  0.3845 -0.0066
 1536SOL    HW2 6189   1.662   3.558   2.701  0.4752  2.3948 -0.2553
 1536SOL    HW3 6190   1.511   3.553   2.695  0.5647  0.6884 -1.9677
 1536SOL    MW4 6191   1.584   3.585   2.729 -0.1748  0.6900 -0.2983
 1537SOL     OW 6192   1.570   3.841   2.629 -0.1431  0.0776 -0.2371
 1537SOL    HW2 6193   1.479   3.853   2.658 -1.0770 -0.1765 -2.8445
 1537SOL    HW3 6194   1.598   3.759   2.669 -1.5046 -0.4783 -0.3865
 1537SOL    MW4 6195   1.562   3.832   2.638 -0.4460 -0.0293 -0.6008
 1538SOL     OW 6196   1.322   3.973   2.731  0.2683  0.1177  0.5301
 1538SOL    HW2 6197   1.348   3.994   2.820  0.6918  0.1319  0.4010
 1538SOL    HW3 6198   1.320   4.058   2.686  1.0262 -0.0003  0.2658
 1538SOL    MW4 6199   1.325   3.987   2.737  0.4241  0.1042  0.4785
 1539SOL     OW 6200   1.360   4.238   2.587  0.8653 -0.2599  0.0496
 1539SOL    HW2 6201   1.284   4.262   2.639  0.5885 -1.1080  0.0433
 1539SOL    HW3 6202   1.343   4.274   2.500  0.6823 -0.0526  0.1716
 1539SOL    MW4 6203   1.348   4.246   2.582  0.8047 -0.3443  0.0651
 1540SOL     OW 6204   1.565   4.389   2.669 -0.1699 -0.1216 -0.2161
 1540SOL    HW2 6205   1.559   4.400   2.764 -1.5996  0.5405 -0.3666
 1540SOL    HW3 6206   1.503   4.319   2.649  0.5702 -0.6728 -0.6009
 1540SOL    MW4 6207   1.556   4.381   2.679 -0.2609 -0.1073 -0.2866
 1541SOL     OW 6208   2.035   4.654   2.617  0.1060  0.1296 -0.0426
 1541SOL    HW2 6209   2.088   4.727   2.648 -0.8522  1.2497 -0.9542
 1541SOL    HW3 6210   2.033   4.665   2.522  0.0651 -1.1686 -0.1983
 1541SOL    MW4 6211   2.042   4.665   2.609 -0.0260  0.1063 -0.1833
 1542SOL     OW 6212   1.802   0.143   2.688 -0.8187 -0.0681  0.5195
 1542SOL    HW2 6213   1.871   0.092   2.645 -0.1880  0.0812  1.3380
 1542SOL    HW3 6214   1.722   0.094   2.672 -0.6040 -0.0094 -0.8494
 1542SOL    MW4 6215   1.801   0.130   2.680 -0.7073 -0.0407  0.4468
 1543SOL     OW 6216   1.793   0.424   2.635 -0.1901  0.0476  0.4360
 1543SOL    HW2 6217   1.854   0.468   2.695  1.2510 -2.4116  0.8421
 1543SOL    HW3 6218   1.807   0.330   2.651 -1.2041 -0.6288 -2.3525
 1543SOL    MW4 6219   1.803   0.417   2.645 -0.1339 -0.3661  0.1216
 1544SOL     OW 6220   2.036   0.511   2.753 -0.0300 -0.6787  0.0573
 1544SOL    HW2 6221   2.107   0.468   2.705  0.4521 -0.6687  0.7427
 1544SOL    HW3 6222   2.036   0.601   2.722 -0.3659 -0.9158 -0.6349
 1544SOL    MW4 6223   2.045   0.517   2.743 -0.0105 -0.7087  0.0563
 1545SOL     OW 6224   2.012   0.764   2.658 -0.1403 -0.3593  0.4186
 1545SOL    HW2 6225   1.927   0.804   2.678 -0.0296 -0.0774  0.3211
 1545SOL    HW3 6226   2.008   0.746   2.565 -0.0676 -0.2833  0.4004
 1545SOL    MW4 6227   2.000   0.767   2.649 -0.1159 -0.3121  0.4032
 1546SOL     OW 6228   1.758   0.881   2.707 -0.2007  0.1879 -0.0961
 1546SOL    HW2 6229   1.741   0.968   2.670  0.4467  0.0096 -0.8352
 1546SOL    HW3 6230   1.685   0.827   2.676  0.2294  0.0904 -0.9497
 1546SOL    MW4 6231   1.746   0.885   2.698 -0.0587  0.1516 -0.3061
 1547SOL     OW 6232   1.751   1.131   2.622 -0.0476 -0.3447 -0.3155
 1547SOL    HW2 6233   1.832   1.173   2.653 -0.3559  0.4994 -0.6496
 1547SOL    HW3 6234   1.764   1.122   2.527 -0.2273 -0.4691 -0.3280
 1547SOL    MW4 6235   1.764   1.135   2.613 -0.1121 -0.2499 -0.3612
 1548SOL     OW 6236   1.980   1.246   2.717  0.0208 -0.4490 -0.2410
 1548SOL    HW2 6237   1.994   1.276   2.807 -0.2404 -0.3772 -0.2219
 1548SOL    HW3 6238   2.067   1.224   2.685  0.4788  2.1637 -0.9028
 1548SOL    MW4 6239   1.993   1.247   2.725  0.0468 -0.0948 -0.3257
 1549SOL     OW 6240   2.002   1.493   2.572  0.4474 -0.3086 -0.5056
 1549SOL    HW2 6241   1.941   1.554   2.615 -0.0960 -0.4535 -1.0709
 1549SOL    HW3 6242   1.975   1.407   2.604  1.3850 -0.2371  0.5019
 1549SOL    MW4 6243   1.990   1.490   2.582  0.4992 -0.3184 -0.4470
 1550SOL     OW 6244   1.799   1.671   2.674  0.2569 -0.1882  0.0548
 1550SOL    HW2 6245   1.776   1.672   2.767 -0.4850  0.1940 -0.1263
 1550SOL    HW3 6246   1.727   1.623   2.633 -0.8288  2.0067 -0.6732
 1550SOL    MW4 6247   1.787   1.665   2.681  0.0157  0.1519 -0.0651
 1551SOL     OW 6248   1.785   1.916   2.564 -0.2324 -0.1589 -0.0420
 1551SOL    HW2 6249   1.864   1.950   2.606 -0.0744  0.4897 -0.8429
 1551SOL    HW3 6250   1.775   1.827   2.599  1.5078 -0.6773 -0.7949
 1551SOL    MW4 6251   1.794   1.909   2.574  0.0181 -0.1416 -0.2468
 1552SOL     OW 6252   1.981   2.031   2.726 -0.0877 -0.0858 -0.2274
 1552SOL    HW2 6253   1.989   2.031   2.822  1.6326 -0.8999 -0.3449
 1552SOL    HW3 6254   1.979   2.124   2.702 -1.0661  0.1262  0.6264
 1552SOL    MW4 6255   1.982   2.043   2.736  0.0101 -0.1650 -0.1302
 1553SOL     OW 6256   1.963   2.285   2.640 -0.2636 -0.1407 -0.5763
 1553SOL    HW2 6257   2.052   2.307   2.667 -0.0319 -0.4324 -1.0973
 1553SOL    HW3 6258   1.968   2.277   2.545 -0.7158 -0.7820 -0.5481
 1553SOL    MW4 6259   1.975   2.287   2.631 -0.2928 -0.2639 -0.6413
 1554SOL     OW 6260   1.784   2.473   2.756  0.1460 -0.0055  0.0337
 1554SOL    HW2 6261   1.793   2.474   2.852 -2.1336 -0.9779  0.2992
 1554SOL    HW3 6262   1.844   2.404   2.727 -0.5614 -1.0381  0.9572
 1554SOL    MW4 6263   1.793   2.464   2.765 -0.2481 -0.2697  0.1905
 1555SOL     OW 6264   1.784   2.747   2.672  0.2316 -0.6457 -0.1498
 1555SOL    HW2 6265   1.781   2.658   2.708 -3.0358 -0.4320  0.3256
 1555SOL    HW3 6266   1.760   2.737   2.580  0.6466 -0.3419 -0.2931
 1555SOL    MW4 6267   1.780   2.734   2.665 -0.1448 -0.5774 -0.1063
 1556SOL     OW 6268   2.059   2.823   2.719  0.1524  0.0956  0.3856
 1556SOL    HW2 6269   2.118   2.763   2.673  0.7091 -0.8611  2.2940
 1556SOL    HW3 6270   1.971   2.792   2.696  0.4155  0.0290 -0.5440
 1556SOL    MW4 6271   2.055   2.811   2.710  0.2606 -0.0393  0.5147
 1557SOL     OW 6272   2.045   3.094   2.645 -0.4327 -0.0935  0.2310
 1557SOL    HW2 6273   2.062   3.000   2.646 -1.8270 -0.3700 -0.6271
 1557SOL    HW3 6274   2.043   3.117   2.552 -2.8608  0.2653  0.3579
 1557SOL    MW4 6275   2.047   3.085   2.633 -0.9367 -0.0827  0.1347
 1558SOL     OW 6276   1.780   3.201   2.707 -0.7329  0.2719  0.5263
 1558SOL    HW2 6277   1.795   3.288   2.670 -0.3937  0.4421  1.0548
 1558SOL    HW3 6278   1.862   3.154   2.691 -0.7927  0.1589  0.5491
 1558SOL    MW4 6279   1.793   3.206   2.700 -0.6959  0.2794  0.5989
 1559SOL     OW 6280   1.794   3.464   2.615 -0.3672  0.0681  0.0971
 1559SOL    HW2 6281   1.861   3.529   2.636  0.9478 -1.4465  0.6783
 1559SOL    HW3 6282   1.787   3.467   2.520 -1.7754  2.4619  0.2320
 1559SOL    MW4 6283   1.802   3.473   2.606 -0.3796  0.1838  0.1917
 1560SOL     OW 6284   1.980   3.651   2.696 -0.1467  0.0063  0.5666
 1560SOL    HW2 6285   1.972   3.669   2.790  0.4649 -0.5144  0.7246
 1560SOL    HW3 6286   2.069   3.617   2.686 -0.9689 -2.0765  0.1437
 1560SOL    MW4 6287   1.991   3.649   2.707 -0.1745 -0.3371  0.5314
 1561SOL     OW 6288   2.002   3.891   2.547 -0.0153 -0.1690 -0.4249
 1561SOL    HW2 6289   1.947   3.945   2.604 -1.0806 -0.2362 -1.3720
 1561SOL    HW3 6290   2.008   3.807   2.592 -0.4781 -0.0804 -0.1947
 1561SOL    MW4 6291   1.995   3.887   2.560 -0.2168 -0.1662 -0.5193
 1562SOL     OW 6292   1.808   3.986   2.721 -0.1898  0.3686 -0.3339
 1562SOL    HW2 6293   1.804   4.077   2.691 -1.8555  0.9987  1.7338
 1562SOL    HW3 6294   1.729   3.945   2.685 -1.1203  0.5940  1.4194
 1562SOL    MW4 6295   1.797   3.993   2.712 -0.5324  0.4816  0.1702
 1563SOL     OW 6296   1.798   4.237   2.591  0.0005 -0.1614 -0.4211
 1563SOL    HW2 6297   1.723   4.290   2.615 -0.2049 -0.7941  0.3520
 1563SOL    HW3 6298   1.808   4.250   2.497 -1.1282 -0.1440 -0.5370
 1563SOL    MW4 6299   1.790   4.246   2.582 -0.1755 -0.2427 -0.3343
 1564SOL     OW 6300   2.004   4.393   2.710  0.3816  0.5333  0.2515
 1564SOL    HW2 6301   1.943   4.353   2.648 -0.8182 -0.4955  2.0595
 1564SOL    HW3 6302   2.002   4.486   2.690 -1.8084  0.5077  0.3179
 1564SOL    MW4 6303   1.996   4.400   2.699 -0.0656  0.3943  0.4988
 1565SOL     OW 6304   2.459   0.009   2.632 -0.2210 -0.3798  0.1182
 1565SOL    HW2 6305   2.527   0.066   2.666  0.6856 -1.7574  0.6627
 1565SOL    HW3 6306   2.475   0.006   2.538 -1.4729  1.7893 -0.2017
 1565SOL    MW4 6307   2.470   0.016   2.624 -0.2668 -0.2751  0.1478
 1566SOL     OW 6308   2.246   0.138   2.712 -0.3401 -0.1455  0.1949
 1566SOL    HW2 6309   2.252   0.126   2.807  0.0446  2.1866  0.4965
 1566SOL    HW3 6310   2.313   0.079   2.677  0.0931 -0.4059  1.4079
 1566SOL    MW4 6311   2.255   0.128   2.720 -0.2322  0.1278  0.3946
 1567SOL     OW 6312   2.241   0.398   2.609 -0.4050  0.2814  0.0511
 1567SOL    HW2 6313   2.262   0.308   2.634  2.6300  1.5735  2.4234
 1567SOL    HW3 6314   2.254   0.400   2.515  1.2178 -1.3436  0.2061
 1567SOL    MW4 6315   2.245   0.386   2.600  0.2098  0.2375  0.3843
 1568SOL     OW 6316   2.460   0.520   2.740 -0.1520  0.3371 -0.1442
 1568SOL    HW2 6317   2.463   0.614   2.726 -0.3261  0.5133  0.9040
 1568SOL    HW3 6318   2.379   0.491   2.698 -1.4996  1.0928  1.8452
 1568SOL    MW4 6319   2.449   0.528   2.733 -0.3526  0.4600  0.2563
 1569SOL     OW 6320   2.459   0.786   2.673  0.0469 -0.0983  0.0663
 1569SOL    HW2 6321   2.374   0.829   2.678  0.6177  0.9108  1.5894
 1569SOL    HW3 6322   2.468   0.761   2.581 -0.9394  1.7686 -0.5703
 1569SOL    MW4 6323   2.449   0.788   2.661 -0.0081  0.2811  0.1833
 1570SOL     OW 6324   2.217   0.917   2.744 -0.3785 -0.0885 -0.1368
 1570SOL    HW2 6325   2.220   0.899   2.838 -1.2207  1.7590  0.2746
 1570SOL    HW3 6326   2.140   0.870   2.712 -1.6053  1.3829  0.6042
 1570SOL    MW4 6327   2.208   0.908   2.752 -0.6514  0.3494  0.0153
 1571SOL     OW 6328   2.251   1.151   2.612  0.1957 -0.0319 -0.0086
 1571SOL    HW2 6329   2.239   1.063   2.647 -0.2288  0.1249  0.2410
 1571SOL    HW3 6330   2.231   1.142   2.519 -1.4206  0.1246  0.3086
 1571SOL    MW4 6331   2.247   1.138   2.604 -0.0737  0.0095  0.0663
 1572SOL     OW 6332   2.482   1.261   2.714 -0.0689  0.3012  0.4300
 1572SOL    HW2 6333   2.554   1.201   2.694 -0.6195 -0.3219  0.2720
 1572SOL    HW3 6334   2.404   1.216   2.680 -0.7356  0.2345  2.0150
 1572SOL    MW4 6335   2.481   1.247   2.707 -0.2296  0.2103  0.6180
 1573SOL     OW 6336   2.466   1.540   2.625  0.1099  0.6048  0.1876
 1573SOL    HW2 6337   2.380   1.560   2.661 -0.2326  0.4710 -0.5519
 1573SOL    HW3 6338   2.482   1.449   2.649  0.0900  0.6574  0.4048
 1573SOL    MW4 6339   2.457   1.531   2.633  0.0620  0.5940  0.1187
 1574SOL     OW 6340   2.223   1.611   2.701  0.1999 -0.1155 -0.2750
 1574SOL    HW2 6341   2.206   1.703   2.681  0.4066 -0.2346 -1.0324
 1574SOL    HW3 6342   2.146   1.565   2.668 -0.0329 -0.1910  0.3602
 1574SOL    MW4 6343   2.210   1.617   2.694  0.1965 -0.1411 -0.2911
 1575SOL     OW 6344   2.232   1.910   2.622  0.0379  0.3317 -0.7562
 1575SOL    HW2 6345   2.160   1.968   2.648 -0.3599 -0.3815 -0.2595
 1575SOL    HW3 6346   2.241   1.924   2.528 -0.3109  0.9110 -0.7093
 1575SOL    MW4 6347   2.224   1.920   2.613 -0.0606  0.3141 -0.6847
 1576SOL     OW 6348   2.463   2.047   2.686 -0.1805  0.0309  0.6920
 1576SOL    HW2 6349   2.443   2.133   2.649 -1.0679 -0.4097  0.1276
 1576SOL    HW3 6350   2.383   1.996   2.673  0.2256 -0.7800  1.3215
 1576SOL    MW4 6351   2.449   2.052   2.679 -0.2439 -0.1342  0.7005
 1577SOL     OW 6352   2.444   2.316   2.602 -0.3668  0.3167  0.0919
 1577SOL    HW2 6353   2.511   2.368   2.647 -1.1372  1.4056 -0.0001
 1577SOL    HW3 6354   2.464   2.327   2.509 -0.6607  0.6256  0.0650
 1577SOL    MW4 6355   2.456   2.324   2.595 -0.5074  0.5012  0.0761
 1578SOL     OW 6356   2.204   2.402   2.714 -0.1525 -0.3043 -0.1230
 1578SOL    HW2 6357   2.199   2.411   2.810  1.7949  1.7634 -0.1534
 1578SOL    HW3 6358   2.287   2.356   2.699 -0.5360 -0.7734 -0.8154
 1578SOL    MW4 6359   2.214   2.397   2.725  0.0539 -0.0935 -0.2184
 1579SOL     OW 6360   2.252   2.661   2.602 -0.3325  0.5359  0.1611
 1579SOL    HW2 6361   2.325   2.705   2.646 -0.5996  1.3709 -0.2338
 1579SOL    HW3 6362   2.257   2.571   2.634  0.4339  0.7573  0.6953
 1579SOL    MW4 6363   2.262   2.655   2.612 -0.2666  0.6752  0.1795
 1580SOL     OW 6364   2.455   2.814   2.726 -0.4063 -0.1706 -0.3072
 1580SOL    HW2 6365   2.530   2.773   2.682 -1.3467 -0.7618 -1.3921
 1580SOL    HW3 6366   2.453   2.903   2.692 -0.8270 -0.4753 -1.1003
 1580SOL    MW4 6367   2.465   2.820   2.716 -0.5858 -0.2887 -0.5550
 1581SOL     OW 6368   2.484   3.083   2.631 -0.3318 -0.4650 -0.2200
 1581SOL    HW2 6369   2.411   3.129   2.673  0.0829  0.0271 -0.0272
 1581SOL    HW3 6370   2.463   3.084   2.537  1.1081  2.8077 -0.5834
 1581SOL    MW4 6371   2.472   3.089   2.624 -0.0870  0.0317 -0.2427
 1582SOL     OW 6372   2.273   3.227   2.741 -0.0799 -0.3931  0.1132
 1582SOL    HW2 6373   2.265   3.245   2.835  1.0524  0.0055  0.1432
 1582SOL    HW3 6374   2.193   3.181   2.718  0.3213 -1.8843  1.6268
 1582SOL    MW4 6375   2.262   3.223   2.750  0.1225 -0.5374  0.3166
 1583SOL     OW 6376   2.196   3.490   2.656  0.4696 -0.1553 -0.5978
 1583SOL    HW2 6377   2.273   3.541   2.678 -0.3560  0.9664 -0.2379
 1583SOL    HW3 6378   2.218   3.400   2.681  1.8262  0.0700 -0.9619
 1583SOL    MW4 6379   2.209   3.485   2.662  0.5398  0.0222 -0.5984
 1584SOL     OW 6380   2.416   3.630   2.730 -0.1448  0.1826  0.4651
 1584SOL    HW2 6381   2.448   3.645   2.819  2.4986  0.4364 -0.4841
 1584SOL    HW3 6382   2.429   3.714   2.685 -0.5244 -0.2315 -0.4275
 1584SOL    MW4 6383   2.422   3.643   2.736  0.1538  0.1612  0.2222
 1585SOL     OW 6384   2.463   3.876   2.582 -0.9213 -0.5182 -0.0442
 1585SOL    HW2 6385   2.550   3.904   2.608  0.1493 -0.4347 -3.4759
 1585SOL    HW3 6386   2.404   3.945   2.614  0.2081 -0.6458  2.4031
 1585SOL    MW4 6387   2.466   3.889   2.589 -0.6311 -0.5240 -0.1740
 1586SOL     OW 6388   2.229   4.011   2.660 -0.3937  0.1980 -0.6264
 1586SOL    HW2 6389   2.228   4.009   2.755  0.3740 -0.4648 -0.6220
 1586SOL    HW3 6390   2.154   3.958   2.634 -1.7559  1.9633 -0.4022
 1586SOL    MW4 6391   2.219   4.004   2.669 -0.4721  0.3433 -0.5965
 1587SOL     OW 6392   2.241   4.279   2.611 -0.2050  0.1638  0.0545
 1587SOL    HW2 6393   2.241   4.187   2.636 -0.8899  0.0179 -0.4873
 1587SOL    HW3 6394   2.160   4.315   2.647 -1.2875 -0.0857 -2.0286
 1587SOL    MW4 6395   2.231   4.272   2.619 -0.4382  0.1121 -0.2916
 1588SOL     OW 6396   2.479   4.406   2.685  0.5295 -0.0334  0.1889
 1588SOL    HW2 6397   2.398   4.361   2.662  0.3981  0.4721 -0.3446
 1588SOL    HW3 6398   2.460   4.499   2.674  1.1643  0.0935  0.1159
 1588SOL    MW4 6399   2.466   4.412   2.681  0.5958  0.0501  0.1087
 1589SOL     OW 6400   2.920   0.041   2.610 -0.3748  0.5441  0.0100
 1589SOL    HW2 6401   2.999   0.057   2.662  0.2012 -2.5833  0.1698
 1589SOL    HW3 6402   2.952   0.029   2.521 -0.6505 -0.8196  0.0903
 1589SOL    MW4 6403   2.934   0.042   2.605 -0.3350 -0.0486  0.0417
 1590SOL     OW 6404   2.689   0.135   2.742  0.4145  0.1411  0.6741
 1590SOL    HW2 6405   2.696   0.137   2.837 -0.0645  3.8219  0.7204
 1590SOL    HW3 6406   2.778   0.116   2.712  0.8761  0.3868  1.8620
 1590SOL    MW4 6407   2.702   0.133   2.750  0.4120  0.6592  0.8368
 1591SOL     OW 6408   2.707   0.404   2.665  0.5023  0.3504  0.0552
 1591SOL    HW2 6409   2.702   0.314   2.697 -0.1469 -0.4849 -2.2699
 1591SOL    HW3 6410   2.620   0.440   2.682  0.4000  0.1507 -0.0356
 1591SOL    MW4 6411   2.695   0.397   2.671  0.4036  0.2138 -0.2639
 1592SOL     OW 6412   2.938   0.538   2.714 -0.0813  0.2821  0.7002
 1592SOL    HW2 6413   2.927   0.622   2.669 -0.6246 -0.0301  0.2531
 1592SOL    HW3 6414   2.857   0.491   2.698  0.3035 -0.4172  0.7800
 1592SOL    MW4 6415   2.926   0.543   2.706 -0.1020  0.1487  0.6518
 1593SOL     OW 6416   2.935   0.791   2.603 -0.2690  0.0377  0.0972
 1593SOL    HW2 6417   2.999   0.845   2.649 -0.0235  0.9379 -1.2586
 1593SOL    HW3 6418   2.853   0.803   2.651 -0.3244  1.9748 -0.4337
 1593SOL    MW4 6419   2.933   0.800   2.615 -0.2439  0.4120 -0.1516
 1594SOL     OW 6420   2.720   0.842   2.756 -0.5330  0.1163 -0.3147
 1594SOL    HW2 6421   2.708   0.838   2.851 -2.0077 -0.9136 -0.5384
 1594SOL    HW3 6422   2.636   0.817   2.720  1.1498 -3.5964 -1.9291
 1594SOL    MW4 6423   2.708   0.839   2.764 -0.5054 -0.5094 -0.5572
 1595SOL     OW 6424   2.699   1.109   2.630  0.1543  0.3141 -0.4242
 1595SOL    HW2 6425   2.762   1.175   2.659  0.6210 -0.2923 -0.0615
 1595SOL    HW3 6426   2.708   1.038   2.692 -0.2602 -0.1549 -0.8948
 1595SOL    MW4 6427   2.708   1.108   2.642  0.1612  0.1723 -0.4387
 1596SOL     OW 6428   2.909   1.291   2.698  0.1928  0.1384 -0.2203
 1596SOL    HW2 6429   2.914   1.286   2.794  0.1040 -0.2509 -0.2372
 1596SOL    HW3 6430   2.989   1.250   2.668  0.3271  0.4633 -0.3107
 1596SOL    MW4 6431   2.920   1.285   2.707  0.1986  0.1298 -0.2344
 1597SOL     OW 6432   2.929   1.542   2.606  0.2456  0.3829  0.0556
 1597SOL    HW2 6433   2.863   1.605   2.632 -0.4198 -0.8042  1.2808
 1597SOL    HW3 6434   2.903   1.461   2.649  0.7608 -0.8802 -1.9627
 1597SOL    MW4 6435   2.917   1.540   2.615  0.2258  0.0596 -0.0489
 1598SOL     OW 6436   2.705   1.686   2.691 -0.1996 -0.6698  0.0240
 1598SOL    HW2 6437   2.697   1.683   2.786 -0.0658  0.6658  0.0956
 1598SOL    HW3 6438   2.633   1.633   2.658 -1.9419  1.1703  0.8282
 1598SOL    MW4 6439   2.695   1.679   2.699 -0.4120 -0.2507  0.1395
 1599SOL     OW 6440   2.695   1.940   2.581  0.2773  0.6057  0.1105
 1599SOL    HW2 6441   2.694   1.850   2.613  0.3460  0.6841  0.3333
 1599SOL    HW3 6442   2.617   1.980   2.619  0.3947  0.7179  0.2354
 1599SOL    MW4 6443   2.685   1.933   2.590  0.3018  0.6309  0.1562
 1600SOL     OW 6444   2.923   2.044   2.718 -0.0352  0.1805  0.2239
 1600SOL    HW2 6445   2.935   2.130   2.677 -0.5779  0.2077  0.1175
 1600SOL    HW3 6446   2.844   2.008   2.676  1.3393 -1.2358 -1.2228
 1600SOL    MW4 6447   2.914   2.051   2.707  0.0746 -0.0029  0.0188
 1601SOL     OW 6448   2.934   2.302   2.606 -0.2178 -0.7594  0.3285
 1601SOL    HW2 6449   3.004   2.356   2.643  1.4767 -0.6769 -2.8692
 1601SOL    HW3 6450   2.854   2.344   2.636  1.0806  1.3476  0.9967
 1601SOL    MW4 6451   2.933   2.315   2.615  0.1769 -0.4706 -0.0052
 1602SOL     OW 6452   2.685   2.439   2.707  0.0385 -0.0130  0.3658
 1602SOL    HW2 6453   2.706   2.450   2.800  1.3968  1.3543 -0.0733
 1602SOL    HW3 6454   2.692   2.528   2.671  0.0078 -0.6097 -1.1353
 1602SOL    MW4 6455   2.689   2.452   2.715  0.2136  0.0889  0.1097
 1603SOL     OW 6456   2.687   2.700   2.628  0.0673 -0.1044 -0.0340
 1603SOL    HW2 6457   2.756   2.760   2.656 -1.7763  2.1295 -0.2012
 1603SOL    HW3 6458   2.701   2.691   2.533 -0.4846  1.1409 -0.2339
 1603SOL    MW4 6459   2.698   2.707   2.619 -0.2489  0.3548 -0.0825
 1604SOL     OW 6460   2.918   2.845   2.740 -0.0863  0.1828 -0.2670
 1604SOL    HW2 6461   2.897   2.867   2.831 -0.9633  0.1547 -0.4602
 1604SOL    HW3 6462   2.951   2.926   2.702  1.8715 -0.2161  0.5358
 1604SOL    MW4 6463   2.919   2.858   2.747  0.0558  0.1266 -0.1864
 1605SOL     OW 6464   2.937   3.092   2.644  0.5058  0.5924  0.3702
 1605SOL    HW2 6465   2.849   3.117   2.673  0.4993  2.0061 -0.7686
 1605SOL    HW3 6466   2.937   3.110   2.550  1.7645 -0.1704  0.2063
 1605SOL    MW4 6467   2.925   3.098   2.635  0.6711  0.6781  0.1981
 1606SOL     OW 6468   2.700   3.216   2.741 -0.0107 -0.2812 -0.0014
 1606SOL    HW2 6469   2.701   3.302   2.700  1.3956 -0.3922 -0.2478
 1606SOL    HW3 6470   2.624   3.172   2.703 -0.0802  0.4526 -0.7201
 1606SOL    MW4 6471   2.690   3.221   2.731  0.1657 -0.1991 -0.1287
 1607SOL     OW 6472   2.651   3.489   2.643  0.3433 -0.5704 -0.3702
 1607SOL    HW2 6473   2.565   3.528   2.661  0.6345 -0.8575  1.7655
 1607SOL    HW3 6474   2.664   3.502   2.549 -1.9682 -0.3828 -0.6886
 1607SOL    MW4 6475   2.641   3.496   2.633  0.0768 -0.5836 -0.1307
 1608SOL     OW 6476   2.896   3.602   2.703  0.4330 -0.0725  0.7191
 1608SOL    HW2 6477   2.896   3.596   2.799 -1.0907  0.4773  0.7619
 1608SOL    HW3 6478   2.808   3.575   2.678  0.3437  1.2575 -0.4325
 1608SOL    MW4 6479   2.885   3.597   2.713  0.2201  0.1757  0.5729
 1609SOL     OW 6480   2.927   3.858   2.602  0.2219  0.8207  0.4486
 1609SOL    HW2 6481   2.997   3.902   2.651  1.9214 -0.3827 -0.8120
 1609SOL    HW3 6482   2.923   3.771   2.640  1.7766 -0.2274 -1.6985
 1609SOL    MW4 6483   2.936   3.853   2.614  0.6511  0.5233 -0.0012
 1610SOL     OW 6484   2.697   3.968   2.693 -0.0259 -0.0094 -0.0842
 1610SOL    HW2 6485   2.715   4.062   2.695 -0.7050  0.1041  1.6386
 1610SOL    HW3 6486   2.780   3.928   2.665  0.5588  1.0267  0.1385
 1610SOL    MW4 6487   2.710   3.976   2.689 -0.0386  0.1423  0.1726
 1611SOL     OW 6488   2.712   4.256   2.667 -0.0186 -0.3183 -0.0290
 1611SOL    HW2 6489   2.780   4.322   2.684 -0.5525  0.1548  0.2651
 1611SOL    HW3 6490   2.630   4.301   2.685 -0.4405 -0.7465 -0.8428
 1611SOL    MW4 6491   2.710   4.271   2.671 -0.1450 -0.3123 -0.0978
 1612SOL     OW 6492   2.925   4.437   2.698  0.2112  0.1438  0.1988
 1612SOL    HW2 6493   2.933   4.448   2.793 -1.1947  1.1687  0.2251
 1612SOL    HW3 6494   2.933   4.526   2.663 -0.3151 -0.0956 -0.5455
 1612SOL    MW4 6495   2.927   4.450   2.706 -0.0436  0.2480  0.1042
 1613SOL     OW 6496   3.368   4.651   2.593  0.2622 -0.2666  0.2030
 1613SOL    HW2 6497   3.374   4.560   2.621  0.8461  0.0096  0.9897
 1613SOL    HW3 6498   3.291   4.686   2.639  0.3033 -0.2410  0.2526
 1613SOL    MW4 6499   3.359   4.644   2.603  0.3443 -0.2268  0.3133
 1614SOL     OW 6500   3.167   0.097   2.736 -0.1470 -0.6075 -0.0944
 1614SOL    HW2 6501   3.158   0.110   2.830 -2.2249 -0.6683 -0.2486
 1614SOL    HW3 6502   3.170   0.186   2.700  3.2049 -0.5568  0.1988
 1614SOL    MW4 6503   3.166   0.111   2.744  0.0212 -0.6089 -0.0763
 1615SOL     OW 6504   3.137   0.362   2.627 -0.4240 -0.5395  0.6343
 1615SOL    HW2 6505   3.059   0.413   2.652 -0.5330 -1.0152  1.2511
 1615SOL    HW3 6506   3.157   0.393   2.538 -0.5976  0.4569  0.9289
 1615SOL    MW4 6507   3.129   0.373   2.618 -0.4613 -0.4708  0.7544
 1616SOL     OW 6508   3.335   0.493   2.775 -0.4685  0.4759  0.1427
 1616SOL    HW2 6509   3.334   0.584   2.744  1.4742  0.1755 -0.9182
 1616SOL    HW3 6510   3.263   0.451   2.730 -2.0105  1.7157  1.3942
 1616SOL    MW4 6511   3.326   0.500   2.765 -0.4158  0.5999  0.1681
 1617SOL     OW 6512   3.354   0.764   2.675 -0.2689  0.5918  0.3823
 1617SOL    HW2 6513   3.440   0.797   2.701  0.4807 -1.8554  1.1227
 1617SOL    HW3 6514   3.353   0.773   2.579  0.9350  0.3062  0.3462
 1617SOL    MW4 6515   3.365   0.770   2.666 -0.0112  0.2312  0.4754
 1618SOL     OW 6516   3.145   0.942   2.696  0.0333  0.2047 -0.2468
 1618SOL    HW2 6517   3.133   0.947   2.791  1.1158 -0.8486 -0.0283
 1618SOL    HW3 6518   3.227   0.893   2.686 -0.9770 -1.2261 -1.7528
 1618SOL    MW4 6519   3.154   0.936   2.707  0.0429 -0.1230 -0.4165
 1619SOL     OW 6520   3.144   1.200   2.597  0.1021  0.0484  0.7123
 1619SOL    HW2 6521   3.136   1.107   2.619  2.2707 -0.4087 -0.2837
 1619SOL    HW3 6522   3.135   1.203   2.501 -0.1492  0.9097  0.7547
 1619SOL    MW4 6523   3.141   1.188   2.587  0.3550  0.1018  0.5865
 1620SOL     OW 6524   3.390   1.292   2.728 -0.0741  0.2834 -0.4058
 1620SOL    HW2 6525   3.387   1.274   2.822  1.1658 -1.3049 -0.6417
 1620SOL    HW3 6526   3.305   1.265   2.695 -0.1298 -0.1635  0.0991
 1620SOL    MW4 6527   3.379   1.286   2.736  0.0823  0.0149 -0.3703
 1621SOL     OW 6528   3.414   1.546   2.642  0.2702 -0.4473 -0.1944
 1621SOL    HW2 6529   3.326   1.577   2.667  0.5004 -0.4700  0.6724
 1621SOL    HW3 6530   3.419   1.457   2.677  0.9490 -0.1379  0.5026
 1621SOL    MW4 6531   3.403   1.539   2.650  0.3901 -0.4095  0.0119
 1622SOL     OW 6532   3.157   1.652   2.703  0.1317 -0.0976 -0.4565
 1622SOL    HW2 6533   3.146   1.738   2.663  1.0326  0.5066  0.5829
 1622SOL    HW3 6534   3.079   1.603   2.676 -1.3953  1.6901  0.5979
 1622SOL    MW4 6535   3.145   1.657   2.694  0.0491  0.2179 -0.1805
 1623SOL     OW 6536   3.166   1.936   2.631  0.0857  0.0188  0.1079
 1623SOL    HW2 6537   3.235   1.980   2.680  0.6867 -1.7508  0.8976
 1623SOL    HW3 6538   3.085   1.965   2.674  0.4443  0.6680  0.3539
 1623SOL    MW4 6539   3.164   1.945   2.643  0.2124 -0.1290  0.2444
 1624SOL     OW 6540   3.396   2.058   2.727  0.0459  0.4843 -0.3162
 1624SOL    HW2 6541   3.372   2.060   2.820  0.9050  0.3213 -0.0936
 1624SOL    HW3 6542   3.394   2.150   2.701 -0.7809  0.4765 -0.2850
 1624SOL    MW4 6543   3.392   2.071   2.736  0.0501  0.4621 -0.2828
 1625SOL     OW 6544   3.403   2.325   2.629  0.0449 -0.0358 -0.3582
 1625SOL    HW2 6545   3.470   2.382   2.666  0.1355  0.4161 -1.2067
 1625SOL    HW3 6546   3.418   2.328   2.534 -0.9108 -0.2530 -0.5262
 1625SOL    MW4 6547   3.414   2.333   2.621 -0.0691 -0.0050 -0.4919
 1626SOL     OW 6548   3.155   2.423   2.703  0.0380  0.0477 -0.1888
 1626SOL    HW2 6549   3.148   2.499   2.646 -0.2836  0.9051  0.9792
 1626SOL    HW3 6550   3.229   2.373   2.668 -0.4595  0.3013 -1.6374
 1626SOL    MW4 6551   3.163   2.426   2.691 -0.0701  0.1941 -0.2255
 1627SOL     OW 6552   3.121   2.706   2.610 -0.2978  0.3203  0.2869
 1627SOL    HW2 6553   3.207   2.741   2.631 -0.2181  0.7703 -0.7434
 1627SOL    HW3 6554   3.061   2.751   2.669  0.1724  0.0117  1.0019
 1627SOL    MW4 6555   3.125   2.716   2.620 -0.2251  0.3390  0.2453
 1628SOL     OW 6556   3.370   2.802   2.672  0.7045 -0.1594 -0.4247
 1628SOL    HW2 6557   3.378   2.821   2.766 -1.0332 -0.9439 -0.1036
 1628SOL    HW3 6558   3.458   2.775   2.646  1.4234  0.9433  0.7684
 1628SOL    MW4 6559   3.383   2.801   2.681  0.5703 -0.1173 -0.2251
 1629SOL     OW 6560   3.365   3.071   2.575 -0.2417 -0.0250  0.0630
 1629SOL    HW2 6561   3.357   2.981   2.605 -0.0416 -0.4016 -1.0063
 1629SOL    HW3 6562   3.339   3.068   2.483 -1.3560  1.2032  0.3223
 1629SOL    MW4 6563   3.360   3.059   2.567 -0.3624  0.0875 -0.0439
 1630SOL     OW 6564   3.169   3.240   2.705 -0.3252 -0.2565 -0.0956
 1630SOL    HW2 6565   3.233   3.189   2.655 -0.6369 -0.5668 -0.1801
 1630SOL    HW3 6566   3.089   3.187   2.703 -1.3512  1.2712 -2.1695
 1630SOL    MW4 6567   3.166   3.226   2.698 -0.5016 -0.0956 -0.3805
 1631SOL     OW 6568   3.147   3.496   2.624 -0.0652 -0.1765 -0.2156
 1631SOL    HW2 6569   3.064   3.517   2.666 -0.5613 -0.5448 -0.9935
 1631SOL    HW3 6570   3.151   3.400   2.625 -1.0655 -0.3032 -2.8214
 1631SOL    MW4 6571   3.136   3.486   2.629 -0.2625 -0.2418 -0.6618
 1632SOL     OW 6572   3.404   3.597   2.709 -0.7460  0.8553 -0.2405
 1632SOL    HW2 6573   3.399   3.595   2.805  0.1475 -1.7850 -0.1936
 1632SOL    HW3 6574   3.325   3.552   2.680  0.1772 -0.5398 -0.6527
 1632SOL    MW4 6575   3.393   3.591   2.718 -0.5062  0.3226 -0.2890
 1633SOL     OW 6576   3.370   3.853   2.647 -0.3471  0.0667  0.0179
 1633SOL    HW2 6577   3.373   3.759   2.660 -0.3881  0.0087 -0.3824
 1633SOL    HW3 6578   3.365   3.864   2.552 -3.2091  0.3931  0.1479
 1633SOL    MW4 6579   3.370   3.842   2.636 -0.7303  0.1020 -0.0179
 1634SOL     OW 6580   3.137   3.980   2.723  0.4222  0.2899  0.0777
 1634SOL    HW2 6581   3.137   4.071   2.694  1.2944  0.2517 -0.0717
 1634SOL    HW3 6582   3.222   3.946   2.694 -0.0701 -0.6911 -0.2591
 1634SOL    MW4 6583   3.148   3.988   2.715  0.4723  0.1557  0.0136
 1635SOL     OW 6584   3.113   4.234   2.613  0.0544  0.3513 -0.7902
 1635SOL    HW2 6585   3.059   4.307   2.642 -0.4423 -0.9764  1.8327
 1635SOL    HW3 6586   3.103   4.232   2.518 -2.1303  1.9789 -0.6220
 1635SOL    MW4 6587   3.104   4.243   2.604 -0.2995  0.3910 -0.4220
 1636SOL     OW 6588   3.328   4.401   2.670 -0.6220 -0.3834  0.3259
 1636SOL    HW2 6589   3.321   4.382   2.764  0.5138 -0.6423  0.3598
 1636SOL    HW3 6590   3.263   4.343   2.630 -1.0647 -0.3218  0.9441
 1636SOL    MW4 6591   3.318   4.391   2.677 -0.5305 -0.4096  0.4120
 1637SOL     OW 6592   3.804   4.654   2.616 -0.0457  0.5224  0.1987
 1637SOL    HW2 6593   3.792   4.570   2.661  0.1713  0.9747  1.1141
 1637SOL    HW3 6594   3.727   4.705   2.640 -0.6944  0.2325 -1.1951
 1637SOL    MW4 6595   3.793   4.649   2.625 -0.1028  0.5436  0.1357
 1638SOL     OW 6596   3.565   0.122   2.719 -0.2560 -0.2135  0.0197
 1638SOL    HW2 6597   3.550   0.213   2.692 -1.1221 -0.0673  0.9949
 1638SOL    HW3 6598   3.499   0.071   2.672  1.0502 -0.5257 -1.5424
 1638SOL    MW4 6599   3.554   0.127   2.709 -0.1979 -0.2354 -0.0579
 1639SOL     OW 6600   3.556   0.393   2.644  0.1128 -0.1906 -0.8548
 1639SOL    HW2 6601   3.630   0.434   2.688 -0.1603  0.7547 -1.2622
 1639SOL    HW3 6602   3.479   0.437   2.680 -0.2294 -0.8833 -0.7307
 1639SOL    MW4 6603   3.556   0.404   2.654  0.0317 -0.1573 -0.8924
 1640SOL     OW 6604   3.778   0.519   2.732 -0.4857  0.1629  0.1474
 1640SOL    HW2 6605   3.786   0.499   2.826 -0.6360  1.3215  0.4189
 1640SOL    HW3 6606   3.844   0.464   2.690 -0.5524 -0.5218  0.9084
 1640SOL    MW4 6607   3.787   0.509   2.739 -0.5143  0.2254  0.2837
 1641SOL     OW 6608   3.800   0.774   2.636  0.1546  0.3265  0.3075
 1641SOL    HW2 6609   3.718   0.814   2.665  1.2046  1.7312  1.3808
 1641SOL    HW3 6610   3.798   0.686   2.675 -0.2883  0.7773  1.3168
 1641SOL    MW4 6611   3.789   0.768   2.645  0.2346  0.5713  0.5820
 1642SOL     OW 6612   3.580   0.895   2.747 -0.1173  0.2120  0.1161
 1642SOL    HW2 6613   3.572   0.912   2.841  0.2182 -0.5527  0.2835
 1642SOL    HW3 6614   3.590   0.982   2.708  1.3874  0.4284  0.9386
 1642SOL    MW4 6615   3.580   0.909   2.754  0.1256  0.1397  0.2468
 1643SOL     OW 6616   3.623   1.148   2.636 -0.1327  0.1170 -0.2643
 1643SOL    HW2 6617   3.697   1.203   2.659  0.5817 -0.2236 -1.7126
 1643SOL    HW3 6618   3.546   1.201   2.657  0.5318  1.1856 -0.5091
 1643SOL    MW4 6619   3.622   1.162   2.642  0.0491  0.2129 -0.4878
 1644SOL     OW 6620   3.823   1.295   2.749  0.1600  0.2761 -0.1475
 1644SOL    HW2 6621   3.881   1.230   2.707  1.7656  0.3272  1.9187
 1644SOL    HW3 6622   3.841   1.376   2.701 -0.2943 -0.3260 -1.3622
 1644SOL    MW4 6623   3.833   1.297   2.737  0.3121  0.2034 -0.0350
 1645SOL     OW 6624   3.873   1.540   2.622  0.0171  0.2881  0.1414
 1645SOL    HW2 6625   3.946   1.567   2.678 -0.4312 -1.4367  1.5539
 1645SOL    HW3 6626   3.795   1.576   2.664 -0.2681 -0.5467  0.3235
 1645SOL    MW4 6627   3.873   1.548   2.635 -0.0799 -0.0497  0.3519
 1646SOL     OW 6628   3.647   1.660   2.712 -0.5061 -0.3275  0.0914
 1646SOL    HW2 6629   3.642   1.748   2.675  0.3763 -0.8196 -1.2324
 1646SOL    HW3 6630   3.564   1.619   2.688 -0.5047 -0.1849 -0.1536
 1646SOL    MW4 6631   3.635   1.666   2.704 -0.3898 -0.3736 -0.1156
 1647SOL     OW 6632   3.633   1.935   2.609  0.0451  0.0611 -0.3530
 1647SOL    HW2 6633   3.561   1.982   2.650  0.3639  0.2005  0.0487
 1647SOL    HW3 6634   3.616   1.943   2.515 -0.6653 -0.2277 -0.2530
 1647SOL    MW4 6635   3.621   1.942   2.602 -0.0064  0.0414 -0.2866
 1648SOL     OW 6636   3.867   2.072   2.702  0.1151 -0.3941  0.0036
 1648SOL    HW2 6637   3.941   2.020   2.670 -0.5980 -0.7991 -1.0177
 1648SOL    HW3 6638   3.790   2.019   2.680 -0.4431 -0.3779  1.8296
 1648SOL    MW4 6639   3.867   2.058   2.695 -0.0525 -0.4454  0.1097
 1649SOL     OW 6640   3.828   2.324   2.642  0.0710 -0.0763  0.1686
 1649SOL    HW2 6641   3.840   2.230   2.652 -0.3781 -0.3891 -2.1396
 1649SOL    HW3 6642   3.843   2.341   2.549  0.0709  2.1167  0.5443
 1649SOL    MW4 6643   3.831   2.314   2.631  0.0119  0.1719 -0.0865
 1650SOL     OW 6644   3.613   2.480   2.725 -0.1061 -0.2178  0.1230
 1650SOL    HW2 6645   3.607   2.461   2.819  1.2166 -1.8603 -0.1162
 1650SOL    HW3 6646   3.688   2.428   2.695 -0.1909  0.7241 -1.7397
 1650SOL    MW4 6647   3.622   2.471   2.734  0.0570 -0.3102 -0.1545
 1651SOL     OW 6648   3.624   2.735   2.603 -0.3010  0.0499 -0.2787
 1651SOL    HW2 6649   3.615   2.657   2.659  0.0368 -0.8851 -1.5053
 1651SOL    HW3 6650   3.625   2.700   2.514  2.1882  1.2550 -0.7547
 1651SOL    MW4 6651   3.623   2.720   2.599  0.0720  0.0856 -0.5031
 1652SOL     OW 6652   3.854   2.839   2.690  0.1782  0.2328  0.5797
 1652SOL    HW2 6653   3.928   2.778   2.688 -0.0975 -0.1433  1.5975
 1652SOL    HW3 6654   3.778   2.785   2.668  0.0735  0.4184  0.4842
 1652SOL    MW4 6655   3.854   2.824   2.687  0.1280  0.2079  0.7012
 1653SOL     OW 6656   3.824   3.079   2.591  0.1410 -0.0379  0.1441
 1653SOL    HW2 6657   3.764   3.128   2.647  0.3496  0.3762  0.0096
 1653SOL    HW3 6658   3.814   2.988   2.618 -0.8895 -0.0266 -0.1999
 1653SOL    MW4 6659   3.815   3.073   2.602  0.0324  0.0181  0.0811
 1654SOL     OW 6660   3.597   3.193   2.684 -0.1325  0.1034  0.0888
 1654SOL    HW2 6661   3.594   3.273   2.632  0.4275 -0.4492 -0.7948
 1654SOL    HW3 6662   3.529   3.138   2.648 -0.3088  0.0504  0.4955
 1654SOL    MW4 6663   3.588   3.196   2.673 -0.0818  0.0234  0.0257
 1655SOL     OW 6664   3.604   3.461   2.585 -0.8939 -0.5411 -0.1305
 1655SOL    HW2 6665   3.686   3.505   2.608 -0.6871 -0.5800 -0.7912
 1655SOL    HW3 6666   3.536   3.512   2.630 -0.6509  0.4171 -0.8417
 1655SOL    MW4 6667   3.606   3.474   2.594 -0.8345 -0.4199 -0.3114
 1656SOL     OW 6668   3.836   3.604   2.699 -0.3919 -0.0002 -0.0910
 1656SOL    HW2 6669   3.918   3.577   2.656  0.1166  1.0164  0.2284
 1656SOL    HW3 6670   3.827   3.697   2.678 -0.3290  0.4313  1.6738
 1656SOL    MW4 6671   3.846   3.612   2.691 -0.3166  0.1912  0.1841
 1657SOL     OW 6672   3.823   3.881   2.613 -0.1658  0.6387  0.1945
 1657SOL    HW2 6673   3.906   3.920   2.638  0.2945 -0.0545 -0.2288
 1657SOL    HW3 6674   3.757   3.937   2.653  0.5333  0.4145  1.6917
 1657SOL    MW4 6675   3.825   3.893   2.622 -0.0131  0.5176  0.3362
 1658SOL     OW 6676   3.608   4.007   2.719  0.2391  0.0585 -0.3119
 1658SOL    HW2 6677   3.585   4.082   2.663 -0.9515 -1.6176 -2.1623
 1658SOL    HW3 6678   3.531   3.950   2.713  1.1271 -1.2940  1.0972
 1658SOL    MW4 6679   3.595   4.010   2.711  0.1991 -0.3414 -0.3700
 1659SOL     OW 6680   3.550   4.234   2.597  0.4059 -0.0557 -0.2006
 1659SOL    HW2 6681   3.473   4.289   2.612 -0.4521 -1.4245  0.4738
 1659SOL    HW3 6682   3.553   4.222   2.502 -0.1157  0.1393 -0.2424
 1659SOL    MW4 6683   3.540   4.240   2.586  0.2239 -0.2098 -0.1168
 1660SOL     OW 6684   3.772   4.368   2.717  0.4683 -0.2126 -0.2226
 1660SOL    HW2 6685   3.834   4.305   2.680  1.2405  0.3991  0.0237
 1660SOL    HW3 6686   3.686   4.333   2.694  0.8953 -1.3269 -0.1344
 1660SOL    MW4 6687   3.769   4.355   2.709  0.6268 -0.2785 -0.1783
 1661SOL     OW 6688   4.245   4.618   2.633 -0.1315  0.2924 -0.0086
 1661SOL    HW2 6689   4.167   4.667   2.659  0.9905  2.2458 -0.2332
 1661SOL    HW3 6690   4.318   4.669   2.668  1.0207 -2.6228  2.0555
 1661SOL    MW4 6691   4.245   4.632   2.641  0.1678  0.1659  0.2344
 1662SOL     OW 6692   4.035   0.103   2.715  0.0273 -0.1225  0.4160
 1662SOL    HW2 6693   4.030   0.119   2.809 -1.5830 -1.1882  0.5328
 1662SOL    HW3 6694   3.954   0.057   2.694 -0.8169  2.2593 -1.9256
 1662SOL    MW4 6695   4.024   0.099   2.725 -0.2966  0.0511  0.1225
 1663SOL     OW 6696   3.979   0.364   2.657  0.5564  0.4099 -0.1011
 1663SOL    HW2 6697   3.998   0.271   2.674 -0.4695  0.2540  0.2244
 1663SOL    HW3 6698   4.001   0.376   2.565  1.2243 -0.0227  0.0009
 1663SOL    MW4 6699   3.984   0.353   2.647  0.5093  0.3323 -0.0448
 1664SOL     OW 6700   4.210   0.500   2.697  0.1507 -0.0080 -0.2784
 1664SOL    HW2 6701   4.129   0.449   2.687 -0.1802  0.6018 -0.7320
 1664SOL    HW3 6702   4.279   0.438   2.672 -0.1814 -0.4898 -0.0239
 1664SOL    MW4 6703   4.208   0.485   2.692  0.0634  0.0089 -0.3047
 1665SOL     OW 6704   4.261   0.760   2.610  0.1615  0.1526 -0.2423
 1665SOL    HW2 6705   4.253   0.670   2.640  0.3711 -0.0736 -0.8555
 1665SOL    HW3 6706   4.245   0.755   2.516  1.0211  0.6277 -0.4193
 1665SOL    MW4 6707   4.258   0.747   2.602  0.3023  0.1854 -0.3464
 1666SOL     OW 6708   4.033   0.851   2.766  0.5439  0.5894 -0.2197
 1666SOL    HW2 6709   4.105   0.816   2.714  0.3647  2.1036 -1.5383
 1666SOL    HW3 6710   3.954   0.825   2.718  0.2707 -0.0019  0.5510
 1666SOL    MW4 6711   4.032   0.843   2.752  0.4840  0.7112 -0.2916
 1667SOL     OW 6712   4.008   1.111   2.670  0.3566 -0.3066  0.0926
 1667SOL    HW2 6713   4.094   1.150   2.683  0.8514 -0.8809 -1.4246
 1667SOL    HW3 6714   4.017   1.022   2.703 -0.2496  0.2629  1.8403
 1667SOL    MW4 6715   4.021   1.104   2.676  0.3419 -0.3071  0.1233
 1668SOL     OW 6716   4.239   1.244   2.729 -0.0946 -0.2722 -0.1095
 1668SOL    HW2 6717   4.244   1.331   2.689 -0.1293 -0.9813 -1.7011
 1668SOL    HW3 6718   4.314   1.197   2.693 -0.3618 -1.0525  0.3516
 1668SOL    MW4 6719   4.250   1.250   2.719 -0.1345 -0.4686 -0.2589
 1669SOL     OW 6720   4.303   1.519   2.632 -0.3212 -0.6870 -0.2363
 1669SOL    HW2 6721   4.387   1.559   2.653 -0.5131 -0.4651  0.0934
 1669SOL    HW3 6722   4.279   1.557   2.547 -0.5420 -0.0496  0.1140
 1669SOL    MW4 6723   4.311   1.529   2.623 -0.3757 -0.5735 -0.1466
 1670SOL     OW 6724   4.081   1.666   2.728  0.1529  0.0043 -0.2142
 1670SOL    HW2 6725   4.069   1.664   2.823 -0.1047  0.6873 -0.2246
 1670SOL    HW3 6726   4.165   1.623   2.713  0.0133 -0.4550  0.2907
 1670SOL    MW4 6727   4.090   1.660   2.739  0.1006  0.0339 -0.1490
 1671SOL     OW 6728   4.065   1.910   2.594  0.0601  0.1221 -0.2488
 1671SOL    HW2 6729   4.144   1.947   2.633 -0.5290  0.7741  0.3429
 1671SOL    HW3 6730   4.061   1.820   2.628  0.6767  0.0103 -0.4764
 1671SOL    MW4 6731   4.075   1.903   2.603  0.0634  0.1934 -0.2005
 1672SOL     OW 6732   4.252   2.046   2.746  0.3186 -0.3124 -0.0563
 1672SOL    HW2 6733   4.249   2.141   2.731  0.7145 -0.1974  0.5611
 1672SOL    HW3 6734   4.341   2.021   2.719  0.2980 -0.4648  0.0200
 1672SOL    MW4 6735   4.264   2.056   2.740  0.3681 -0.3171  0.0348
 1673SOL     OW 6736   4.296   2.316   2.633 -0.0082 -0.2968 -0.1383
 1673SOL    HW2 6737   4.206   2.334   2.658 -0.0777 -0.8653  0.0354
 1673SOL    HW3 6738   4.296   2.323   2.537 -0.1108  0.2467 -0.0997
 1673SOL    MW4 6739   4.284   2.319   2.623 -0.0310 -0.2999 -0.1106
 1674SOL     OW 6740   4.067   2.422   2.748  0.1333 -0.2393  0.1041
 1674SOL    HW2 6741   4.074   2.429   2.843 -0.1703 -0.0184  0.1089
 1674SOL    HW3 6742   3.982   2.382   2.733  0.2716 -0.4700 -0.0675
 1674SOL    MW4 6743   4.057   2.418   2.759  0.1111 -0.2406  0.0820
 1675SOL     OW 6744   4.068   2.680   2.636 -0.3281 -0.1997 -0.1417
 1675SOL    HW2 6745   4.150   2.723   2.661 -1.1430  0.4731  1.4157
 1675SOL    HW3 6746   4.068   2.597   2.684  0.0820 -0.8528 -1.2382
 1675SOL    MW4 6747   4.079   2.675   2.646 -0.3815 -0.1972 -0.0808
 1676SOL     OW 6748   4.286   2.834   2.731  0.4183  0.2751  0.0053
 1676SOL    HW2 6749   4.263   2.859   2.821 -1.6094  0.2775 -0.4806
 1676SOL    HW3 6750   4.271   2.914   2.680  0.9438  0.0916 -0.4294
 1676SOL    MW4 6751   4.281   2.848   2.736  0.2203  0.2511 -0.1163
 1677SOL     OW 6752   4.277   3.090   2.619  0.1960  0.0998  0.1523
 1677SOL    HW2 6753   4.190   3.122   2.642 -0.5814 -1.9882  0.2500
 1677SOL    HW3 6754   4.275   3.078   2.525  0.0050 -0.9522  0.2789
 1677SOL    MW4 6755   4.266   3.093   2.610  0.0682 -0.3147  0.1819
 1678SOL     OW 6756   4.026   3.232   2.702 -0.0137  0.0024 -0.6919
 1678SOL    HW2 6757   3.959   3.181   2.656  0.5454 -0.3773 -1.0902
 1678SOL    HW3 6758   4.028   3.316   2.655 -1.1263  0.5078  0.1336
 1678SOL    MW4 6759   4.017   3.237   2.690 -0.0863  0.0191 -0.6356
 1679SOL     OW 6760   4.059   3.493   2.577  0.2407 -0.2551 -0.0361
 1679SOL    HW2 6761   4.133   3.550   2.595  1.2679 -1.5421 -0.1352
 1679SOL    HW3 6762   4.055   3.487   2.482  0.4601 -0.7856 -0.0099
 1679SOL    MW4 6763   4.068   3.500   2.567  0.4053 -0.4950 -0.0458
 1680SOL     OW 6764   4.276   3.612   2.688 -0.2418 -0.2620  0.2262
 1680SOL    HW2 6765   4.289   3.609   2.783 -0.5257 -0.6732  0.2527
 1680SOL    HW3 6766   4.357   3.578   2.652  0.4262  1.2313  0.2817
 1680SOL    MW4 6767   4.288   3.607   2.696 -0.1912 -0.1192  0.2367
 1681SOL     OW 6768   4.316   3.895   2.581 -0.0018 -0.2401  0.0995
 1681SOL    HW2 6769   4.316   3.810   2.626  1.0312  0.0906  0.7509
 1681SOL    HW3 6770   4.378   3.949   2.632  0.0189  0.6241 -0.8256
 1681SOL    MW4 6771   4.324   3.891   2.594  0.1373 -0.0825  0.0632
 1682SOL     OW 6772   4.072   3.971   2.678  0.2132  0.3393  0.0416
 1682SOL    HW2 6773   4.066   4.002   2.768  0.2178  1.1527 -0.2287
 1682SOL    HW3 6774   4.163   3.944   2.667  0.3868  0.9190  0.0638
 1682SOL    MW4 6775   4.083   3.971   2.688  0.2365  0.5231  0.0086
 1683SOL     OW 6776   3.982   4.217   2.623 -0.0193  0.3632  0.3032
 1683SOL    HW2 6777   4.020   4.131   2.643  2.1684  1.2138 -0.0663
 1683SOL    HW3 6778   3.996   4.228   2.529 -1.6439  0.5057  0.0635
 1683SOL    MW4 6779   3.989   4.207   2.614  0.0551  0.4950  0.2229
 1684SOL     OW 6780   4.218   4.354   2.734  0.5550 -0.8539 -0.4474
 1684SOL    HW2 6781   4.142   4.317   2.689 -0.7742  0.4774  0.6703
 1684SOL    HW3 6782   4.220   4.445   2.705  3.0815 -1.4046 -2.2212
 1684SOL    MW4 6783   4.208   4.361   2.724  0.7129 -0.7515 -0.5341
 1685SOL     OW 6784   0.249   4.622   3.077  0.1596  0.3037  0.6873
 1685SOL    HW2 6785   0.238   4.618   3.172  1.0688  0.6569  0.8122
 1685SOL    HW3 6786   0.165   4.652   3.044 -0.3566 -0.4151  1.3312
 1685SOL    MW4 6787   0.237   4.625   3.085  0.2114  0.2556  0.7889
 1686SOL     OW 6788   0.014   0.061   3.018 -0.4975  0.0284 -0.0918
 1686SOL    HW2 6789  -0.068   0.020   3.047  0.1937 -0.4318  1.2178
 1686SOL    HW3 6790   0.014   0.147   3.061 -2.0709  1.6045 -3.0316
 1686SOL    MW4 6791   0.003   0.067   3.027 -0.6139  0.1756 -0.3068
 1687SOL     OW 6792   4.485   0.329   3.115  0.4434  0.4462  0.2208
 1687SOL    HW2 6793   4.481   0.361   3.205 -0.4836 -0.4534  0.5186
 1687SOL    HW3 6794   4.411   0.371   3.071 -0.7477 -1.1860  0.5999
 1687SOL    MW4 6795   4.475   0.339   3.121  0.1640  0.1122  0.3104
 1688SOL     OW 6796   0.199   0.464   3.006 -0.0385 -0.8042  0.1110
 1688SOL    HW2 6797   0.277   0.412   3.024  0.0993 -0.9399 -0.8501
 1688SOL    HW3 6798   0.129   0.420   3.055  0.5645 -0.4179  1.3468
 1688SOL    MW4 6799   0.200   0.451   3.015  0.0592 -0.7712  0.1473
 1689SOL     OW 6800   0.166   0.739   3.078 -0.2095 -0.0049 -0.1035
 1689SOL    HW2 6801   0.190   0.747   3.170 -2.0321  0.2439  0.3695
 1689SOL    HW3 6802   0.163   0.645   3.061 -0.8039 -0.0661  0.3449
 1689SOL    MW4 6803   0.169   0.728   3.088 -0.5284  0.0198  0.0179
 1690SOL     OW 6804   4.444   0.905   2.987 -0.5260 -0.0143 -0.3600
 1690SOL    HW2 6805   4.515   0.844   3.012 -1.1823 -0.8045 -0.3993
 1690SOL    HW3 6806   4.446   0.905   2.891 -1.4208 -1.0436 -0.3833
 1690SOL    MW4 6807   4.454   0.897   2.978 -0.7310 -0.2544 -0.3684
 1691SOL     OW 6808   0.023   1.146   3.118  0.4323  0.0211  0.2128
 1691SOL    HW2 6809  -0.058   1.197   3.122  0.5375  0.2934 -0.8136
 1691SOL    HW3 6810   0.001   1.070   3.064  0.5592 -0.4828  0.8682
 1691SOL    MW4 6811   0.009   1.143   3.111  0.4628 -0.0095  0.1638
 1692SOL     OW 6812   0.227   1.296   3.003 -0.3423 -0.6303 -0.3854
 1692SOL    HW2 6813   0.147   1.250   3.030 -1.1409  1.2244  0.5345
 1692SOL    HW3 6814   0.226   1.291   2.908  0.2477 -3.5551 -0.2801
 1692SOL    MW4 6815   0.216   1.290   2.994 -0.3698 -0.7715 -0.2503
 1693SOL     OW 6816   0.273   1.553   3.094 -0.0427  0.6370 -0.1022
 1693SOL    HW2 6817   0.196   1.603   3.066  0.2266  0.9680 -0.2563
 1693SOL    HW3 6818   0.262   1.467   3.054 -0.9138  0.3058  0.8103
 1693SOL    MW4 6819   0.261   1.549   3.085 -0.1221  0.6369 -0.0019
 1694SOL     OW 6820   0.038   1.674   3.007  0.1475  0.3856 -0.3888
 1694SOL    HW2 6821  -0.048   1.638   3.030 -0.1373  0.0901 -1.8529
 1694SOL    HW3 6822   0.030   1.768   3.024 -0.2718  0.2815  0.0034
 1694SOL    MW4 6823   0.026   1.681   3.012  0.0547  0.3328 -0.5302
 1695SOL     OW 6824   0.024   1.945   3.082  0.1166 -0.0065 -0.0132
 1695SOL    HW2 6825  -0.056   1.992   3.057  0.0366 -0.4493 -0.6117
 1695SOL    HW3 6826   0.094   2.009   3.068 -0.1712  0.5090  0.8944
 1695SOL    MW4 6827   0.022   1.960   3.077  0.0681  0.0031  0.0277
 1696SOL     OW 6828   0.258   2.095   3.032 -0.4054 -0.2619  0.0938
 1696SOL    HW2 6829   0.234   2.188   3.036 -2.8894 -0.7104 -2.8902
 1696SOL    HW3 6830   0.257   2.074   2.939  0.6905 -3.1761  0.6816
 1696SOL    MW4 6831   0.255   2.105   3.020 -0.5885 -0.7055 -0.2227
 1697SOL     OW 6832   0.241   2.359   3.088 -0.0838 -0.1948  0.2771
 1697SOL    HW2 6833   0.249   2.358   3.183  1.2941 -0.8647  0.1651
 1697SOL    HW3 6834   0.318   2.406   3.058 -0.3102 -0.3316 -0.5272
 1697SOL    MW4 6835   0.252   2.365   3.097  0.0681 -0.3011  0.1562
 1698SOL     OW 6836   4.482   2.401   3.005 -0.2911 -0.2002  0.0373
 1698SOL    HW2 6837   4.470   2.493   3.032 -0.7288 -0.5528  1.0748
 1698SOL    HW3 6838   4.568   2.377   3.039 -1.2966 -0.9783  2.1503
 1698SOL    MW4 6839   4.492   2.410   3.013 -0.4821 -0.3493  0.4530
 1699SOL     OW 6840   4.471   2.667   3.073  0.0819 -0.1289  0.2449
 1699SOL    HW2 6841   4.467   2.688   3.166 -0.6805  1.3608 -0.1057
 1699SOL    HW3 6842   4.542   2.722   3.039 -0.0313 -0.2363 -0.1666
 1699SOL    MW4 6843   4.480   2.677   3.081 -0.0339  0.0534  0.1442
 1700SOL     OW 6844   0.211   2.805   2.962  0.0065  0.3760  0.1302
 1700SOL    HW2 6845   0.286   2.764   3.006  1.1953  2.0888 -0.2588
 1700SOL    HW3 6846   0.239   2.815   2.871 -1.2886 -0.3677 -0.3593
 1700SOL    MW4 6847   0.225   2.801   2.956 -0.0075  0.5035  0.0143
 1701SOL     OW 6848   0.228   3.045   3.128 -0.0916 -0.4678 -0.1898
 1701SOL    HW2 6849   0.161   3.095   3.081 -0.2716  0.9548  1.5166
 1701SOL    HW3 6850   0.240   2.966   3.075 -0.2093  1.0993 -2.6577
 1701SOL    MW4 6851   0.220   3.041   3.115 -0.1309 -0.0734 -0.2902
 1702SOL     OW 6852   0.047   3.225   3.009  0.6511 -0.7277 -0.3427
 1702SOL    HW2 6853  -0.034   3.186   3.044  0.4521  0.4966  0.5936
 1702SOL    HW3 6854   0.027   3.244   2.918  0.3688 -1.7487 -0.5062
 1702SOL    MW4 6855   0.034   3.222   3.002  0.5875 -0.7012 -0.2410
 1703SOL     OW 6856   0.015   3.479   3.109  0.1998 -0.0746 -0.1691
 1703SOL    HW2 6857  -0.057   3.513   3.055  0.1902  0.2398  0.0401
 1703SOL    HW3 6858   0.021   3.387   3.085 -0.8144 -0.2998  0.4106
 1703SOL    MW4 6859   0.006   3.471   3.099  0.0644 -0.0632 -0.0648
 1704SOL     OW 6860   0.248   3.603   3.025 -0.2849 -0.2962  0.3306
 1704SOL    HW2 6861   0.243   3.685   3.075  0.7779  0.1692 -0.3024
 1704SOL    HW3 6862   0.177   3.549   3.060 -1.0060  0.9025  0.7509
 1704SOL    MW4 6863   0.238   3.607   3.036 -0.2398 -0.0765  0.3023
 1705SOL     OW 6864   0.208   3.873   3.121  0.4860  0.0236 -0.2220
 1705SOL    HW2 6865   0.207   3.878   3.217 -0.5548 -1.2714 -0.1351
 1705SOL    HW3 6866   0.287   3.920   3.095 -0.5732  2.6595  1.1106
 1705SOL    MW4 6867   0.218   3.880   3.130  0.2089  0.2003 -0.0350
 1706SOL     OW 6868   4.472   3.994   3.019  0.5149  0.0543  0.7196
 1706SOL    HW2 6869   4.555   3.950   3.036  0.4242 -0.0149  0.9925
 1706SOL    HW3 6870   4.475   4.017   2.926  0.2884 -1.1150  0.4080
 1706SOL    MW4 6871   4.483   3.991   3.009  0.4735 -0.1090  0.7148
 1707SOL     OW 6872   0.035   4.264   3.069  0.1873 -0.6793 -0.0817
 1707SOL    HW2 6873   0.045   4.284   3.162 -1.0350 -0.2045 -0.0449
 1707SOL    HW3 6874   0.018   4.170   3.066  2.0848 -1.0395  0.0328
 1707SOL    MW4 6875   0.034   4.255   3.081  0.2766 -0.6638 -0.0620
 1708SOL     OW 6876   0.273   4.371   2.958  0.7310  0.4322  0.6316
 1708SOL    HW2 6877   0.206   4.316   2.999 -1.9778  2.4938 -0.8076
 1708SOL    HW3 6878   0.267   4.455   3.004  1.4945  1.0139 -0.3032
 1708SOL    MW4 6879   0.263   4.375   2.969  0.4744  0.7801  0.3185
 1709SOL     OW 6880   0.709   4.631   3.086 -0.1522  0.0840  0.1204
 1709SOL    HW2 6881   0.715   4.545   3.045  0.1893 -0.8582  2.0751
 1709SOL    HW3 6882   0.630   4.670   3.050 -1.8679 -2.1927  1.2851
 1709SOL    MW4 6883   0.699   4.625   3.076 -0.3335 -0.3405  0.5322
 1710SOL     OW 6884   0.476   0.081   2.991 -0.3335  0.3494 -0.1896
 1710SOL    HW2 6885   0.452   0.169   3.020 -0.5817  0.9925 -2.2780
 1710SOL    HW3 6886   0.403   0.026   3.018 -0.5936  0.9364  0.3287
 1710SOL    MW4 6887   0.463   0.085   2.998 -0.4006  0.5117 -0.3967
 1711SOL     OW 6888   0.423   0.330   3.097  0.5893 -0.0964 -0.1381
 1711SOL    HW2 6889   0.421   0.351   3.190 -0.1258  2.6196 -0.7396
 1711SOL    HW3 6890   0.493   0.385   3.061  0.9381 -1.2036 -1.2019
 1711SOL    MW4 6891   0.432   0.340   3.105  0.5409  0.1159 -0.3579
 1712SOL     OW 6892   0.615   0.496   2.984 -0.1306 -0.1737  0.0100
 1712SOL    HW2 6893   0.698   0.456   3.010 -0.5446 -1.8408 -1.1197
 1712SOL    HW3 6894   0.624   0.588   3.009  1.5953 -0.5724  0.9608
 1712SOL    MW4 6895   0.627   0.502   2.990  0.0426 -0.4463 -0.0134
 1713SOL     OW 6896   0.654   0.763   3.104  0.5570 -0.2362  0.3774
 1713SOL    HW2 6897   0.660   0.771   3.199 -0.7080 -2.0302  0.6347
 1713SOL    HW3 6898   0.577   0.815   3.080  0.8785  0.2197  0.3376
 1713SOL    MW4 6899   0.645   0.771   3.113  0.4325 -0.4127  0.4060
 1714SOL     OW 6900   0.422   0.858   3.007 -0.2197 -0.0130  0.6800
 1714SOL    HW2 6901   0.348   0.810   3.043  1.5158 -1.4835  2.3820
 1714SOL    HW3 6902   0.416   0.844   2.912 -0.5409 -2.4264  1.0350
 1714SOL    MW4 6903   0.411   0.850   2.999 -0.0331 -0.5255  0.9511
 1715SOL     OW 6904   0.434   1.139   3.104  0.0724 -0.1232 -0.3155
 1715SOL    HW2 6905   0.447   1.054   3.062 -1.6826 -0.4266 -0.2837
 1715SOL    HW3 6906   0.367   1.183   3.051 -2.0717 -0.4596  2.0236
 1715SOL    MW4 6907   0.427   1.134   3.092 -0.4420 -0.2077 -0.0029
 1716SOL     OW 6908   0.669   1.273   3.011  0.2749 -0.0047 -0.1673
 1716SOL    HW2 6909   0.732   1.217   3.056 -0.1378 -0.3425  0.0037
 1716SOL    HW3 6910   0.584   1.238   3.037 -0.0558  2.2230  1.8890
 1716SOL    MW4 6911   0.666   1.261   3.020  0.1768  0.2446  0.1266
 1717SOL     OW 6912   0.692   1.544   3.084  0.2478 -0.0776  0.0069
 1717SOL    HW2 6913   0.684   1.544   3.180  1.4005 -1.2414  0.1104
 1717SOL    HW3 6914   0.677   1.453   3.058 -1.1782  0.4364 -1.0336
 1717SOL    MW4 6915   0.689   1.532   3.093  0.2118 -0.1634 -0.1168
 1718SOL     OW 6916   0.494   1.723   3.012  0.5622 -0.2796 -0.0282
 1718SOL    HW2 6917   0.564   1.662   3.036  1.6495  1.3113  0.9195
 1718SOL    HW3 6918   0.413   1.680   3.042  1.2697 -1.4167  0.2710
 1718SOL    MW4 6919   0.492   1.709   3.019  0.7990 -0.2197  0.1364
 1719SOL     OW 6920   0.480   1.969   3.122  0.1627 -0.1762  0.2574
 1719SOL    HW2 6921   0.476   1.882   3.083  0.8484  0.1809 -0.6280
 1719SOL    HW3 6922   0.401   2.014   3.091 -0.9813 -0.9747  1.9458
 1719SOL    MW4 6923   0.469   1.964   3.113  0.1023 -0.2345  0.3633
 1720SOL     OW 6924   0.682   2.078   2.945  0.1814  0.0784  0.0132
 1720SOL    HW2 6925   0.765   2.039   2.972  0.3796  0.5387  0.0690
 1720SOL    HW3 6926   0.618   2.047   3.010  0.5539  0.7662  0.7090
 1720SOL    MW4 6927   0.684   2.069   2.957  0.2567  0.2298  0.1121
 1721SOL     OW 6928   0.681   2.349   3.076 -0.3926  0.2686 -0.0559
 1721SOL    HW2 6929   0.662   2.334   3.168  3.1544  0.4157  0.7813
 1721SOL    HW3 6930   0.666   2.263   3.035 -0.6795 -0.1422  0.8906
 1721SOL    MW4 6931   0.676   2.335   3.083  0.0376  0.2337  0.1793
 1722SOL     OW 6932   0.460   2.487   2.981  0.8062  0.2654  0.0640
 1722SOL    HW2 6933   0.538   2.449   3.021  1.7344  3.5053  1.4003
 1722SOL    HW3 6934   0.476   2.480   2.887  2.2628  0.0657  0.3161
 1722SOL    MW4 6935   0.472   2.481   2.974  1.1209  0.6664  0.2737
 1723SOL     OW 6936   0.458   2.746   3.064  0.5233  0.5577 -0.2173
 1723SOL    HW2 6937   0.542   2.781   3.036  0.7479 -0.1311 -0.4071
 1723SOL    HW3 6938   0.459   2.654   3.035  0.8932 -0.2632  2.2392
 1723SOL    MW4 6939   0.469   2.738   3.057  0.6017  0.3586  0.0818
 1724SOL     OW 6940   0.694   2.864   2.992 -0.4821  0.4491 -0.0131
 1724SOL    HW2 6941   0.771   2.813   3.016 -2.2434 -1.7748  1.1635
 1724SOL    HW3 6942   0.712   2.952   3.024  1.3843 -0.1486  0.6187
 1724SOL    MW4 6943   0.706   2.869   3.000 -0.4683  0.0770  0.2255
 1725SOL     OW 6944   0.716   3.129   3.130 -0.4078 -0.2722  0.4626
 1725SOL    HW2 6945   0.729   3.142   3.224 -0.6521 -0.8620  0.5825
 1725SOL    HW3 6946   0.630   3.167   3.113 -0.2629  0.0385  0.4402
 1725SOL    MW4 6947   0.706   3.135   3.140 -0.4209 -0.3092  0.4756
 1726SOL     OW 6948   0.441   3.210   3.042 -0.1665 -0.2713  0.0879
 1726SOL    HW2 6949   0.440   3.298   3.080  0.6162 -0.2101 -0.0211
 1726SOL    HW3 6950   0.367   3.165   3.083 -2.9389  1.6000 -2.6382
 1726SOL    MW4 6951   0.431   3.216   3.052 -0.4290 -0.0162 -0.2863
 1727SOL     OW 6952   0.489   3.478   3.111 -0.1459  0.2600  0.0928
 1727SOL    HW2 6953   0.483   3.487   3.206  0.6880  1.0263  0.0748
 1727SOL    HW3 6954   0.400   3.494   3.080 -0.5747 -0.7158  0.7993
 1727SOL    MW4 6955   0.476   3.481   3.119 -0.0925  0.2322  0.1836
 1728SOL     OW 6956   0.652   3.640   2.982 -0.0590 -0.1563  0.0726
 1728SOL    HW2 6957   0.737   3.609   3.013 -0.3213 -1.1248 -0.1584
 1728SOL    HW3 6958   0.588   3.594   3.036 -0.5190 -1.9466 -1.9681
 1728SOL    MW4 6959   0.654   3.630   2.993 -0.1543 -0.5202 -0.2272
 1729SOL     OW 6960   0.693   3.892   3.081  0.0076  0.0485  0.0368
 1729SOL    HW2 6961   0.718   3.886   3.173 -0.4063 -3.2141  0.0033
 1729SOL    HW3 6962   0.678   3.801   3.054 -1.0451  1.0304 -2.9336
 1729SOL    MW4 6963   0.695   3.879   3.089 -0.1859 -0.2525 -0.3595
 1730SOL     OW 6964   0.425   3.995   3.010 -0.3004  0.3300  0.4173
 1730SOL    HW2 6965   0.506   3.944   3.019 -0.7607 -0.4127  0.3671
 1730SOL    HW3 6966   0.416   4.008   2.916  0.3452  1.3638  0.4936
 1730SOL    MW4 6967   0.434   3.990   2.999 -0.2760  0.3686  0.4208
 1731SOL     OW 6968   0.485   4.255   3.115 -0.8447  0.0326  0.2531
 1731SOL    HW2 6969   0.466   4.166   3.086 -0.2631 -0.4487  1.3028
 1731SOL    HW3 6970   0.419   4.309   3.072 -1.9755 -1.0655  0.5663
 1731SOL    MW4 6971   0.474   4.250   3.106 -0.9172 -0.1755  0.4330
 1732SOL     OW 6972   0.714   4.377   2.983  0.5737  0.0040 -0.4189
 1732SOL    HW2 6973   0.643   4.327   3.024  0.9133  0.2774  0.5264
 1732SOL    HW3 6974   0.685   4.392   2.893 -0.9085  0.7840  0.1752
 1732SOL    MW4 6975   0.701   4.372   2.977  0.4230  0.1431 -0.2155
 1733SOL     OW 6976   1.159   4.665   3.135 -0.1504  0.0904  0.1612
 1733SOL    HW2 6977   1.166   4.579   3.094  0.0941  0.3155 -0.2725
 1733SOL    HW3 6978   1.091   4.710   3.086  1.2865  0.9544 -1.0761
 1733SOL    MW4 6979   1.151   4.660   3.123  0.0715  0.2341 -0.0594
 1734SOL     OW 6980   0.945   0.113   2.990 -0.1786 -0.0233 -0.4967
 1734SOL    HW2 6981   0.918   0.204   3.005 -0.6161 -0.3002  0.4213
 1734SOL    HW3 6982   0.868   0.061   3.013  0.5972 -0.7277  0.5640
 1734SOL    MW4 6983   0.931   0.118   2.995 -0.1339 -0.1528 -0.2356
 1735SOL     OW 6984   0.859   0.386   3.067 -0.0385 -0.1404  0.3894
 1735SOL    HW2 6985   0.854   0.367   3.161  1.9570 -0.8479  0.3697
 1735SOL    HW3 6986   0.936   0.443   3.058 -0.9581  0.9629 -0.6663
 1735SOL    MW4 6987   0.869   0.391   3.079  0.1034 -0.0882  0.2475
 1736SOL     OW 6988   1.100   0.532   3.026 -0.5726 -0.5303 -0.0560
 1736SOL    HW2 6989   1.161   0.469   3.063 -0.9124 -0.1180  1.2291
 1736SOL    HW3 6990   1.102   0.514   2.931  2.6265  0.4791 -0.2347
 1736SOL    MW4 6991   1.108   0.521   3.018 -0.1954 -0.3427  0.0901
 1737SOL     OW 6992   1.117   0.784   3.129  0.0624  0.3155 -0.4644
 1737SOL    HW2 6993   1.100   0.777   3.223  1.9818 -0.5908 -0.1449
 1737SOL    HW3 6994   1.133   0.693   3.101  0.5695  0.6944 -1.4411
 1737SOL    MW4 6995   1.117   0.771   3.137  0.3824  0.2460 -0.5512
 1738SOL     OW 6996   0.881   0.894   3.006 -0.2240 -0.3451 -0.1072
 1738SOL    HW2 6997   0.951   0.845   3.049 -0.4434 -0.9220 -0.4103
 1738SOL    HW3 6998   0.801   0.850   3.033 -0.4866  0.4520  0.4181
 1738SOL    MW4 6999   0.880   0.882   3.015 -0.2875 -0.3161 -0.0780
 1739SOL     OW 7000   0.886   1.144   3.087 -0.6572 -0.0634 -0.1162
 1739SOL    HW2 7001   0.960   1.194   3.055 -1.7232  0.7566 -1.3312
 1739SOL    HW3 7002   0.895   1.058   3.045 -1.0219  0.4047 -1.1531
 1739SOL    MW4 7003   0.897   1.139   3.077 -0.8459  0.1066 -0.4134
 1740SOL     OW 7004   1.117   1.278   2.959 -0.0292  0.1179  0.4324
 1740SOL    HW2 7005   1.203   1.256   2.993  0.1625  0.8936  0.4642
 1740SOL    HW3 7006   1.126   1.276   2.864 -0.0430 -0.0678  0.4355
 1740SOL    MW4 7007   1.129   1.275   2.951 -0.0057  0.1959  0.4368
 1741SOL     OW 7008   1.118   1.539   3.041 -0.4198  0.0986 -0.0998
 1741SOL    HW2 7009   1.110   1.532   3.137 -0.2300 -2.2447 -0.2362
 1741SOL    HW3 7010   1.117   1.449   3.010 -1.0705  0.8581 -2.3840
 1741SOL    MW4 7011   1.117   1.526   3.050 -0.4805 -0.1104 -0.4191
 1742SOL     OW 7012   0.899   1.699   2.975  0.2602  0.1717 -0.0729
 1742SOL    HW2 7013   0.978   1.647   2.989 -0.3676 -1.0706 -0.9423
 1742SOL    HW3 7014   0.827   1.641   3.001 -0.4209  0.8632 -0.3735
 1742SOL    MW4 7015   0.900   1.684   2.980  0.0875  0.0991 -0.2275
 1743SOL     OW 7016   0.878   1.952   3.096 -0.4823  0.0000  0.0668
 1743SOL    HW2 7017   0.872   1.943   3.191  1.1708 -0.3230  0.1623
 1743SOL    HW3 7018   0.881   1.861   3.064  2.4456  0.0760 -0.0086
 1743SOL    MW4 7019   0.877   1.939   3.104  0.1221 -0.0325  0.0694
 1744SOL     OW 7020   1.134   2.057   3.016  0.0003  0.1893 -0.1890
 1744SOL    HW2 7021   1.208   2.010   3.053 -0.4444 -0.6029 -0.2909
 1744SOL    HW3 7022   1.057   2.014   3.052 -0.4184  0.8692 -0.2529
 1744SOL    MW4 7023   1.133   2.045   3.025 -0.1137  0.1745 -0.2110
 1745SOL     OW 7024   1.144   2.319   3.067 -0.3632  0.1169  0.2777
 1745SOL    HW2 7025   1.062   2.359   3.039 -0.6383  0.1957  1.1943
 1745SOL    HW3 7026   1.138   2.228   3.038 -0.6913  0.1674  0.1851
 1745SOL    MW4 7027   1.133   2.312   3.060 -0.4427  0.1340  0.3865
 1746SOL     OW 7028   0.925   2.461   2.999 -0.4600 -0.1764  0.2597
 1746SOL    HW2 7029   0.849   2.420   3.041 -1.8513  0.9344 -1.0871
 1746SOL    HW3 7030   0.904   2.460   2.905  0.5444  1.4425 -0.0034
 1746SOL    MW4 7031   0.912   2.456   2.992 -0.5111  0.1838  0.0474
 1747SOL     OW 7032   0.906   2.720   3.090 -0.7099 -0.1553 -0.3689
 1747SOL    HW2 7033   0.914   2.723   3.185 -0.7747 -0.7703 -0.3438
 1747SOL    HW3 7034   0.923   2.629   3.067  3.1568  0.7032 -1.3040
 1747SOL    MW4 7035   0.910   2.708   3.100 -0.2083 -0.1230 -0.4888
 1748SOL     OW 7036   1.149   2.856   2.996  0.3390 -0.0547  0.2258
 1748SOL    HW2 7037   1.151   2.940   3.043  0.9510 -1.1331  2.1676
 1748SOL    HW3 7038   1.065   2.818   3.020  0.6627 -0.6215  0.4570
 1748SOL    MW4 7039   1.138   2.862   3.006  0.4624 -0.2718  0.5121
 1749SOL     OW 7040   1.114   3.077   3.152 -0.1706 -0.1796 -0.1140
 1749SOL    HW2 7041   1.190   3.120   3.113 -0.8401 -1.4510 -2.9455
 1749SOL    HW3 7042   1.038   3.124   3.116 -0.7987 -1.0226  0.0860
 1749SOL    MW4 7043   1.114   3.089   3.142 -0.3418 -0.4582 -0.4613
 1750SOL     OW 7044   0.934   3.254   3.032  0.1044 -0.0527  0.0731
 1750SOL    HW2 7045   0.851   3.220   3.065 -0.6286  0.8329 -0.8129
 1750SOL    HW3 7046   0.931   3.238   2.938  1.5272 -1.2094  0.2110
 1750SOL    MW4 7047   0.923   3.248   3.024  0.1954 -0.0885 -0.0257
 1751SOL     OW 7048   0.884   3.523   3.105 -0.6015 -0.2455  0.4428
 1751SOL    HW2 7049   0.957   3.575   3.071 -1.0800  0.1474 -0.0172
 1751SOL    HW3 7050   0.907   3.433   3.085  0.5102 -0.2711  1.7594
 1751SOL    MW4 7051   0.896   3.518   3.098 -0.5180 -0.1972  0.5555
 1752SOL     OW 7052   1.104   3.641   3.002  0.5362  0.3178 -0.0717
 1752SOL    HW2 7053   1.180   3.587   3.023 -0.3662 -0.5085  1.1624
 1752SOL    HW3 7054   1.126   3.728   3.036  1.3296  0.3326 -0.6180
 1752SOL    MW4 7055   1.117   3.645   3.010  0.5219  0.2108  0.0191
 1753SOL     OW 7056   1.174   3.883   3.086  0.0876  0.3062  0.0865
 1753SOL    HW2 7057   1.154   3.882   3.180  0.2659  0.2732  0.1247
 1753SOL    HW3 7058   1.094   3.917   3.045 -0.4078 -0.7873  0.1448
 1753SOL    MW4 7059   1.161   3.888   3.093  0.0459  0.1576  0.0992
 1754SOL     OW 7060   0.945   3.986   3.004 -0.0036 -0.5382  0.2110
 1754SOL    HW2 7061   0.857   3.954   3.023 -0.0024 -0.8759 -0.3590
 1754SOL    HW3 7062   0.947   3.996   2.909  0.2806  0.3174  0.3032
 1754SOL    MW4 7063   0.934   3.983   2.994  0.0342 -0.4699  0.1481
 1755SOL     OW 7064   0.923   4.251   3.118 -0.3447 -0.0494 -0.4170
 1755SOL    HW2 7065   0.936   4.161   3.087 -0.2267  0.1101 -0.8354
 1755SOL    HW3 7066   0.862   4.289   3.055 -0.6322  0.0707 -0.0660
 1755SOL    MW4 7067   0.917   4.244   3.105 -0.3672 -0.0124 -0.4258
 1756SOL     OW 7068   1.149   4.402   3.007 -0.1001 -0.4079 -0.2047
 1756SOL    HW2 7069   1.235   4.374   3.038  0.0559  0.7500  0.4486
 1756SOL    HW3 7070   1.088   4.341   3.048  0.3774 -0.8847 -0.2067
 1756SOL    MW4 7071   1.152   4.390   3.017 -0.0166 -0.3181 -0.1187
 1757SOL     OW 7072   1.625   0.005   3.083  0.3754 -0.2955  0.3286
 1757SOL    HW2 7073   1.635   0.027   3.176  0.4408  0.1215  0.2278
 1757SOL    HW3 7074   1.538   0.039   3.060  1.0820  1.2459 -0.2024
 1757SOL    MW4 7075   1.615   0.013   3.092  0.4772 -0.0371  0.2453
 1758SOL     OW 7076   1.382   0.110   2.993  0.0084  0.0455  0.0062
 1758SOL    HW2 7077   1.303   0.072   3.030 -0.3439 -0.3841 -1.1690
 1758SOL    HW3 7078   1.382   0.082   2.902  0.3758  1.8545 -0.5785
 1758SOL    MW4 7079   1.372   0.101   2.986  0.0104  0.2275 -0.2260
 1759SOL     OW 7080   1.314   0.365   3.101 -0.4820  0.9358  0.0155
 1759SOL    HW2 7081   1.330   0.355   3.195  1.3038  1.1710 -0.2502
 1759SOL    HW3 7082   1.349   0.285   3.062  0.5063  1.6594 -0.6206
 1759SOL    MW4 7083   1.321   0.353   3.108 -0.1159  1.0623 -0.1035
 1760SOL     OW 7084   1.524   0.503   2.996 -0.1527 -0.1177  0.3059
 1760SOL    HW2 7085   1.521   0.592   3.030 -3.0150  0.5464 -1.5060
 1760SOL    HW3 7086   1.447   0.460   3.033  1.1310 -1.8011  1.0551
 1760SOL    MW4 7087   1.513   0.509   3.005 -0.3610 -0.2522  0.1655
 1761SOL     OW 7088   1.542   0.760   3.111 -0.4395 -0.2256 -0.3860
 1761SOL    HW2 7089   1.533   0.747   3.205  0.4017  0.3370 -0.2182
 1761SOL    HW3 7090   1.474   0.823   3.088 -0.3836 -0.0555 -0.0847
 1761SOL    MW4 7091   1.532   0.767   3.121 -0.3211 -0.1289 -0.3238
 1762SOL     OW 7092   1.335   0.905   2.998 -0.2464  0.4663 -0.4304
 1762SOL    HW2 7093   1.324   0.995   3.029  1.6896 -0.3035  2.6934
 1762SOL    HW3 7094   1.264   0.856   3.039 -0.5460  0.3449 -1.0948
 1762SOL    MW4 7095   1.325   0.910   3.008 -0.0308  0.3486 -0.1059
 1763SOL     OW 7096   1.343   1.158   3.073 -0.0517 -0.2940  0.1247
 1763SOL    HW2 7097   1.349   1.166   3.168  0.3498  0.9117  0.0096
 1763SOL    HW3 7098   1.423   1.200   3.040 -1.1043  1.0503 -0.7974
 1763SOL    MW4 7099   1.354   1.165   3.082 -0.1376  0.0423 -0.0119
 1764SOL     OW 7100   1.572   1.271   2.983 -0.1599  0.0918  0.0085
 1764SOL    HW2 7101   1.646   1.220   3.016 -0.1655 -0.5035 -0.8688
 1764SOL    HW3 7102   1.591   1.361   3.010  0.7008 -0.1123  0.1090
 1764SOL    MW4 7103   1.584   1.276   2.991 -0.0471 -0.0136 -0.0942
 1765SOL     OW 7104   1.592   1.521   3.083  0.2691 -0.5643  0.2544
 1765SOL    HW2 7105   1.664   1.570   3.043 -0.1308 -1.2926 -1.3670
 1765SOL    HW3 7106   1.514   1.571   3.061  0.3174  0.6956  2.7363
 1765SOL    MW4 7107   1.591   1.534   3.075  0.2229 -0.4941  0.3681
 1766SOL     OW 7108   1.374   1.671   2.987 -0.3289  0.3202 -0.2226
 1766SOL    HW2 7109   1.290   1.627   2.993 -0.1602 -0.0140 -0.2621
 1766SOL    HW3 7110   1.393   1.675   2.893 -0.0023 -0.1880 -0.1833
 1766SOL    MW4 7111   1.366   1.666   2.975 -0.2638  0.2091 -0.2227
 1767SOL     OW 7112   1.367   1.935   3.096 -0.0250 -0.2115 -0.7736
 1767SOL    HW2 7113   1.366   1.839   3.086  0.2837 -0.3260  0.2489
 1767SOL    HW3 7114   1.360   1.949   3.190  0.1011  0.7761 -0.9112
 1767SOL    MW4 7115   1.366   1.924   3.107  0.0323 -0.0963 -0.6568
 1768SOL     OW 7116   1.576   2.105   3.006  0.4647  0.0182 -0.3964
 1768SOL    HW2 7117   1.512   2.043   3.042  0.3761  0.9030  1.0132
 1768SOL    HW3 7118   1.556   2.108   2.912 -1.2145 -0.1500 -0.0697
 1768SOL    MW4 7119   1.565   2.097   2.998  0.2314  0.1125 -0.1674
 1769SOL     OW 7120   1.579   2.371   3.073 -0.5951  0.0023 -0.1188
 1769SOL    HW2 7121   1.499   2.401   3.030 -0.5347 -0.8734 -0.8827
 1769SOL    HW3 7122   1.576   2.275   3.064  1.3351  0.0546 -1.6265
 1769SOL    MW4 7123   1.568   2.362   3.066 -0.3324 -0.1063 -0.4187
 1770SOL     OW 7124   1.348   2.463   2.949  0.2177  0.2364 -0.4239
 1770SOL    HW2 7125   1.281   2.407   2.989 -1.1647  0.6033 -2.1469
 1770SOL    HW3 7126   1.339   2.448   2.855  1.4138  1.5923 -0.7730
 1770SOL    MW4 7127   1.338   2.454   2.942  0.1932  0.4637 -0.6974
 1771SOL     OW 7128   1.359   2.699   3.108  0.2281  0.1877 -0.4234
 1771SOL    HW2 7129   1.344   2.623   3.052 -0.1844 -0.8752  1.1021
 1771SOL    HW3 7130   1.301   2.767   3.072 -1.9769 -1.2786  0.2684
 1771SOL    MW4 7131   1.349   2.698   3.096 -0.1173 -0.1462 -0.1311
 1772SOL     OW 7132   1.555   2.861   3.017 -0.2923  0.2883  0.1956
 1772SOL    HW2 7133   1.644   2.827   3.029  0.1897  0.9335 -1.3817
 1772SOL    HW3 7134   1.499   2.798   3.062  0.8141 -1.1702 -0.4242
 1772SOL    MW4 7135   1.559   2.848   3.024 -0.0827  0.1807 -0.0944
 1773SOL     OW 7136   1.320   3.199   3.036  0.2700  0.2772 -0.6646
 1773SOL    HW2 7137   1.409   3.172   3.061 -0.9268 -2.4587  0.8264
 1773SOL    HW3 7138   1.327   3.218   2.943  2.3367 -0.3441 -0.6749
 1773SOL    MW4 7139   1.333   3.198   3.027  0.3847 -0.1657 -0.4694
 1774SOL     OW 7140   1.576   3.117   3.095 -0.1234 -0.4955  0.0566
 1774SOL    HW2 7141   1.579   3.103   3.190  1.6580  0.7050  0.2067
 1774SOL    HW3 7142   1.552   3.032   3.059 -0.0128 -1.1727  1.5454
 1774SOL    MW4 7143   1.573   3.104   3.103  0.1262 -0.4263  0.2732
 1775SOL     OW 7144   1.321   3.487   3.087  0.4232 -0.0952 -0.0794
 1775SOL    HW2 7145   1.350   3.494   3.178 -1.7913 -1.3344  0.7468
 1775SOL    HW3 7146   1.310   3.393   3.072  0.5258  0.1102 -1.5603
 1775SOL    MW4 7147   1.324   3.476   3.097  0.1446 -0.2317 -0.1659
 1776SOL     OW 7148   1.571   3.610   3.019  0.1427 -0.2167 -0.3487
 1776SOL    HW2 7149   1.496   3.554   3.040 -0.1663  0.2149 -0.3113
 1776SOL    HW3 7150   1.578   3.604   2.924 -0.7701  0.8107 -0.4847
 1776SOL    MW4 7151   1.562   3.602   3.009 -0.0185 -0.0241 -0.3617
 1777SOL     OW 7152   1.599   3.875   3.111  0.4084 -0.3132 -0.2584
 1777SOL    HW2 7153   1.591   3.878   3.207  1.1393  0.5468 -0.2135
 1777SOL    HW3 7154   1.590   3.783   3.089 -0.6469 -0.4203  0.5583
 1777SOL    MW4 7155   1.597   3.863   3.121  0.3656 -0.2136 -0.1445
 1778SOL     OW 7156   1.400   4.049   3.008  0.1500 -0.4172  0.3013
 1778SOL    HW2 7157   1.480   4.002   3.032 -0.6712 -2.5088 -0.9397
 1778SOL    HW3 7158   1.329   3.988   3.031 -0.8679 -0.4703 -2.7682
 1778SOL    MW4 7159   1.401   4.035   3.014 -0.0926 -0.7000 -0.2675
 1779SOL     OW 7160   1.399   4.318   3.103  0.0373 -0.5260 -0.8126
 1779SOL    HW2 7161   1.395   4.224   3.083  0.1950 -1.0741  1.5081
 1779SOL    HW3 7162   1.460   4.354   3.040  0.7503 -2.1887 -1.0897
 1779SOL    MW4 7163   1.406   4.310   3.092  0.1522 -0.8173 -0.5429
 1780SOL     OW 7164   1.584   4.445   2.948  0.9189  0.1083 -0.4023
 1780SOL    HW2 7165   1.629   4.382   3.005  0.9076 -0.6423 -1.2088
 1780SOL    HW3 7166   1.590   4.528   2.994 -0.0973 -0.7053  1.2582
 1780SOL    MW4 7167   1.590   4.447   2.962  0.7832 -0.0978 -0.2894
 1781SOL     OW 7168   2.047   0.003   3.072 -0.5501  0.1865  0.0483
 1781SOL    HW2 7169   2.018  -0.004   3.163 -1.5200 -2.6219 -0.4413
 1781SOL    HW3 7170   1.973   0.043   3.027 -1.1334 -0.8842  0.0288
 1781SOL    MW4 7171   2.034   0.007   3.078 -0.7553 -0.3252 -0.0188
 1782SOL     OW 7172   1.828   0.145   2.965 -0.0645  0.3302  0.0686
 1782SOL    HW2 7173   1.760   0.094   3.010  1.1526 -0.3669  1.1543
 1782SOL    HW3 7174   1.803   0.143   2.873 -1.8159  0.5384  0.5278
 1782SOL    MW4 7175   1.816   0.138   2.959 -0.1351  0.2657  0.2723
 1783SOL     OW 7176   1.770   0.371   3.114  0.5193 -0.4720 -0.1328
 1783SOL    HW2 7177   1.776   0.292   3.059  0.5481 -0.2045 -0.5127
 1783SOL    HW3 7178   1.719   0.433   3.062  0.3524 -0.2981  0.2386
 1783SOL    MW4 7179   1.764   0.369   3.099  0.5010 -0.4138 -0.1338
 1784SOL     OW 7180   2.018   0.531   3.034  0.5117 -0.5108 -0.4526
 1784SOL    HW2 7181   1.952   0.467   3.061 -0.9718  1.0630 -0.2525
 1784SOL    HW3 7182   2.040   0.506   2.944 -1.5578 -0.1043 -1.0960
 1784SOL    MW4 7183   2.012   0.519   3.026  0.0432 -0.2495 -0.5112
 1785SOL     OW 7184   1.980   0.798   3.153 -0.6488  0.2143  0.0094
 1785SOL    HW2 7185   1.980   0.716   3.104 -1.2582  0.2659 -0.0786
 1785SOL    HW3 7186   1.903   0.845   3.120 -0.8909  0.3737  0.8034
 1785SOL    MW4 7187   1.970   0.793   3.142 -0.7609  0.2422  0.1025
 1786SOL     OW 7188   1.760   0.896   2.990  0.5244 -0.3005 -0.0266
 1786SOL    HW2 7189   1.685   0.854   3.032  0.9250  0.9305  2.0011
 1786SOL    HW3 7190   1.750   0.877   2.897 -0.8236 -2.4464  0.5314
 1786SOL    MW4 7191   1.749   0.888   2.984  0.3995 -0.4212  0.3145
 1787SOL     OW 7192   1.793   1.154   3.101 -0.3239  0.1421 -0.6470
 1787SOL    HW2 7193   1.787   1.124   3.192 -0.9107  0.8408 -0.4506
 1787SOL    HW3 7194   1.790   1.074   3.049  0.1990 -0.2777 -0.0455
 1787SOL    MW4 7195   1.792   1.139   3.106 -0.3322  0.1788 -0.5414
 1788SOL     OW 7196   1.996   1.300   2.980  0.1235  0.8160  0.3581
 1788SOL    HW2 7197   2.081   1.258   2.995  0.3404  0.7224 -1.0750
 1788SOL    HW3 7198   1.937   1.257   3.041  0.9354  0.3284  0.8127
 1788SOL    MW4 7199   1.999   1.289   2.990  0.2593  0.7393  0.2291
 1789SOL     OW 7200   2.011   1.566   3.086 -0.5193  0.5002  0.3109
 1789SOL    HW2 7201   2.013   1.547   3.180 -0.6414 -0.0530  0.2058
 1789SOL    HW3 7202   2.020   1.480   3.045  1.5759  0.9301 -0.1770
 1789SOL    MW4 7203   2.013   1.552   3.093 -0.2589  0.4839  0.2325
 1790SOL     OW 7204   1.792   1.679   2.970 -0.6391  0.1541  0.0935
 1790SOL    HW2 7205   1.783   1.758   3.023 -0.4627  0.5401 -0.4414
 1790SOL    HW3 7206   1.861   1.629   3.012 -1.4003 -0.1577  0.9787
 1790SOL    MW4 7207   1.800   1.683   2.982 -0.7162  0.1640  0.1395
 1791SOL     OW 7208   1.783   1.935   3.106 -0.1907  0.1770  0.0453
 1791SOL    HW2 7209   1.863   1.962   3.060 -0.2854  0.2463 -0.0811
 1791SOL    HW3 7210   1.716   1.994   3.073 -0.1708  0.5207  0.6103
 1791SOL    MW4 7211   1.785   1.946   3.095 -0.2005  0.2315  0.1030
 1792SOL     OW 7212   2.003   2.051   2.990  0.1109  0.9104  0.3772
 1792SOL    HW2 7213   2.085   2.017   3.025  0.3568  0.8651 -0.2328
 1792SOL    HW3 7214   2.000   2.142   3.019  0.6665  1.0854 -0.0972
 1792SOL    MW4 7215   2.013   2.059   2.999  0.2165  0.9274  0.2341
 1793SOL     OW 7216   2.045   2.323   3.095 -0.2870 -0.0168  0.1293
 1793SOL    HW2 7217   2.129   2.361   3.069 -0.2628  0.3338  0.7065
 1793SOL    HW3 7218   1.982   2.395   3.083 -0.3232  0.0574  0.7398
 1793SOL    MW4 7219   2.048   2.338   3.090 -0.2890  0.0391  0.2859
 1794SOL     OW 7220   1.829   2.489   3.035 -0.2997 -0.1972  0.1455
 1794SOL    HW2 7221   1.814   2.584   3.041 -0.2103 -0.1423 -0.4995
 1794SOL    HW3 7222   1.746   2.450   3.062 -0.6080  0.0734 -0.4074
 1794SOL    MW4 7223   1.816   2.497   3.039 -0.3287 -0.1543 -0.0124
 1795SOL     OW 7224   1.823   2.780   3.084 -0.3498  0.1780  0.2339
 1795SOL    HW2 7225   1.842   2.766   3.176 -2.2077  1.2078  0.7984
 1795SOL    HW3 7226   1.908   2.795   3.043  0.4226  0.3277  1.8881
 1795SOL    MW4 7227   1.836   2.780   3.091 -0.4930  0.3338  0.5269
 1796SOL     OW 7228   2.073   2.850   2.989  0.2783  0.4301 -0.0136
 1796SOL    HW2 7229   2.050   2.939   3.015 -0.0328  0.1918  0.5460
 1796SOL    HW3 7230   2.063   2.849   2.894  0.6688  1.1015 -0.0691
 1796SOL    MW4 7231   2.069   2.862   2.980  0.2890  0.4871  0.0527
 1797SOL     OW 7232   2.011   3.101   3.086  0.5337  0.0694 -0.5806
 1797SOL    HW2 7233   2.012   3.091   3.181  1.4695  0.1018 -0.5794
 1797SOL    HW3 7234   1.927   3.143   3.067  0.4197  0.2299  0.2493
 1797SOL    MW4 7235   2.000   3.105   3.096  0.6422  0.0949 -0.4709
 1798SOL     OW 7236   1.778   3.256   2.979 -0.0985  0.2928  0.2005
 1798SOL    HW2 7237   1.703   3.204   3.009 -1.0906  1.9802  0.7098
 1798SOL    HW3 7238   1.778   3.246   2.884 -0.8489  0.1024  0.2156
 1798SOL    MW4 7239   1.768   3.248   2.971 -0.3284  0.4904  0.2699
 1799SOL     OW 7240   1.803   3.493   3.121  0.0263  0.2144 -0.0366
 1799SOL    HW2 7241   1.789   3.403   3.093 -1.9365  0.4397  0.1746
 1799SOL    HW3 7242   1.731   3.542   3.082  1.4781  1.8340 -0.7326
 1799SOL    MW4 7243   1.792   3.488   3.112 -0.0411  0.4580 -0.1004
 1800SOL     OW 7244   2.011   3.658   2.989 -0.3750 -0.0916  0.1955
 1800SOL    HW2 7245   1.994   3.747   3.020 -0.1853  0.3756 -0.9894
 1800SOL    HW3 7246   1.952   3.603   3.040 -1.2183  0.8334  0.2450
 1800SOL    MW4 7247   2.001   3.663   2.999 -0.4611  0.0920  0.0455
 1801SOL     OW 7248   2.023   3.923   3.056  0.0028  0.2653 -0.6242
 1801SOL    HW2 7249   2.015   3.914   3.151 -0.1074  0.4885 -0.6118
 1801SOL    HW3 7250   1.942   3.965   3.029 -0.6620 -1.2527 -1.0220
 1801SOL    MW4 7251   2.012   3.927   3.065 -0.0994  0.0947 -0.6750
 1802SOL     OW 7252   1.785   4.033   2.988  0.1296 -0.0696  0.3328
 1802SOL    HW2 7253   1.721   3.973   3.027  0.4234 -0.4537  0.2280
 1802SOL    HW3 7254   1.768   4.027   2.894 -0.6711  0.9592  0.3915
 1802SOL    MW4 7255   1.774   4.024   2.981  0.0627  0.0153  0.3266
 1803SOL     OW 7256   1.742   4.290   3.107  0.1518 -0.2625  0.1233
 1803SOL    HW2 7257   1.756   4.208   3.058 -2.4788 -0.3729 -0.5218
 1803SOL    HW3 7258   1.817   4.344   3.085  0.1352 -1.1750 -2.3195
 1803SOL    MW4 7259   1.754   4.286   3.098 -0.1975 -0.3972 -0.2842
 1804SOL     OW 7260   1.980   4.391   2.996  0.2260 -0.3785  0.0188
 1804SOL    HW2 7261   2.032   4.468   3.020 -0.2436 -0.2952  0.7697
 1804SOL    HW3 7262   1.978   4.393   2.900 -1.0885  1.4337  0.0681
 1804SOL    MW4 7263   1.987   4.401   2.986 -0.0093 -0.1278  0.1245
 1805SOL     OW 7264   2.496   4.650   3.065  0.2469  0.0879  0.0197
 1805SOL    HW2 7265   2.479   4.565   3.023 -0.0242 -1.0712  2.4299
 1805SOL    HW3 7266   2.422   4.705   3.037 -0.2426 -0.8369 -0.5372
 1805SOL    MW4 7267   2.484   4.646   3.056  0.1464 -0.1874  0.2642
 1806SOL     OW 7268   2.280   0.142   3.005 -0.2902 -0.3722  0.0022
 1806SOL    HW2 7269   2.272   0.233   3.035  1.3033 -0.2891  0.1736
 1806SOL    HW3 7270   2.204   0.098   3.043 -1.0514  0.8768 -0.0461
 1806SOL    MW4 7271   2.269   0.148   3.014 -0.1802 -0.1964  0.0184
 1807SOL     OW 7272   2.256   0.414   3.107 -0.4353  0.3030 -0.1322
 1807SOL    HW2 7273   2.246   0.393   3.199 -1.5618 -0.6512 -0.4645
 1807SOL    HW3 7274   2.181   0.470   3.087 -0.6712 -0.2126 -0.6864
 1807SOL    MW4 7275   2.245   0.419   3.116 -0.6146  0.1091 -0.2491
 1808SOL     OW 7276   2.486   0.549   3.005  0.5906 -0.3773 -0.4752
 1808SOL    HW2 7277   2.399   0.521   3.033 -0.2505  1.8216 -0.7915
 1808SOL    HW3 7278   2.489   0.527   2.912 -0.0132  0.4562 -0.6956
 1808SOL    MW4 7279   2.475   0.542   2.996  0.4001  0.0228 -0.5460
 1809SOL     OW 7280   2.473   0.821   3.126  0.2290  0.1161  0.2983
 1809SOL    HW2 7281   2.557   0.857   3.098  0.0182  0.6490  0.3509
 1809SOL    HW3 7282   2.472   0.732   3.091  0.2086  0.5893 -0.9080
 1809SOL    MW4 7283   2.484   0.814   3.118  0.1981  0.2489  0.1462
 1810SOL     OW 7284   2.233   0.911   3.022 -0.1237 -0.2671 -0.0798
 1810SOL    HW2 7285   2.302   0.865   3.070 -0.8556  0.7937  2.0772
 1810SOL    HW3 7286   2.153   0.891   3.071 -1.1585 -0.5236 -1.8638
 1810SOL    MW4 7287   2.232   0.902   3.035 -0.3567 -0.1611 -0.0305
 1811SOL     OW 7288   2.225   1.181   3.081  0.2202 -0.3060  0.4050
 1811SOL    HW2 7289   2.238   1.189   3.176  1.6331  0.1199  0.1895
 1811SOL    HW3 7290   2.232   1.088   3.063 -1.5913 -0.5683  0.9141
 1811SOL    MW4 7291   2.227   1.170   3.091  0.1678 -0.2844  0.4437
 1812SOL     OW 7292   2.453   1.317   2.992 -0.3527 -0.0887  0.0416
 1812SOL    HW2 7293   2.379   1.259   3.012 -1.4529  0.8198 -1.3001
 1812SOL    HW3 7294   2.450   1.327   2.897  0.7634  0.9615  0.1090
 1812SOL    MW4 7295   2.443   1.310   2.982 -0.3505  0.1698 -0.1264
 1813SOL     OW 7296   2.478   1.586   3.077  0.3645 -0.2833 -0.1789
 1813SOL    HW2 7297   2.393   1.625   3.059  1.2439  1.0733 -1.5475
 1813SOL    HW3 7298   2.472   1.497   3.043 -0.7441 -0.4394  0.4257
 1813SOL    MW4 7299   2.466   1.580   3.070  0.3343 -0.1247 -0.2801
 1814SOL     OW 7300   2.237   1.689   3.006  0.1258 -0.3028 -0.1617
 1814SOL    HW2 7301   2.155   1.649   3.035 -0.2483 -0.0418 -0.8483
 1814SOL    HW3 7302   2.238   1.676   2.911  0.7072  0.0124 -0.2011
 1814SOL    MW4 7303   2.226   1.682   2.997  0.1531 -0.2267 -0.2575
 1815SOL     OW 7304   2.248   1.962   3.105 -0.5240  0.2053 -0.0590
 1815SOL    HW2 7305   2.321   2.005   3.060  1.7102 -1.6790  1.6290
 1815SOL    HW3 7306   2.253   1.871   3.075 -1.9194 -0.0384  0.4248
 1815SOL    MW4 7307   2.258   1.956   3.095 -0.4137 -0.0753  0.2277
 1816SOL     OW 7308   2.453   2.093   2.976 -0.3529  0.2809 -0.0093
 1816SOL    HW2 7309   2.527   2.042   3.009  0.0833  1.5169  0.9183
 1816SOL    HW3 7310   2.465   2.091   2.881  1.1151  0.8293  0.1501
 1816SOL    MW4 7311   2.464   2.086   2.967 -0.1018  0.5164  0.1342
 1817SOL     OW 7312   2.474   2.363   3.082 -0.2311 -0.4710 -0.2645
 1817SOL    HW2 7313   2.473   2.370   3.178  0.3044  0.5383 -0.3251
 1817SOL    HW3 7314   2.487   2.270   3.065 -0.0282 -0.6173  0.6476
 1817SOL    MW4 7315   2.476   2.352   3.093 -0.1340 -0.3572 -0.1519
 1818SOL     OW 7316   2.244   2.460   2.982 -0.1853  0.1069  0.3464
 1818SOL    HW2 7317   2.238   2.546   3.023 -0.7421 -0.0771  0.6548
 1818SOL    HW3 7318   2.326   2.424   3.016 -0.8605 -0.2251  1.6602
 1818SOL    MW4 7319   2.254   2.467   2.992 -0.3481  0.0391  0.5603
 1819SOL     OW 7320   2.253   2.706   3.121  0.5921  0.0688  0.0643
 1819SOL    HW2 7321   2.338   2.730   3.084  0.8541 -0.4559  0.3303
 1819SOL    HW3 7322   2.190   2.756   3.069  0.8905 -1.2494 -1.5850
 1819SOL    MW4 7323   2.256   2.716   3.110  0.6661 -0.1745 -0.1180
 1820SOL     OW 7324   2.491   2.816   3.009 -0.0033  0.5049  0.3196
 1820SOL    HW2 7325   2.468   2.906   3.030 -1.1793  0.3116 -0.0760
 1820SOL    HW3 7326   2.500   2.815   2.913 -0.3128  0.1469  0.2903
 1820SOL    MW4 7327   2.489   2.827   2.999 -0.1993  0.4323  0.2635
 1821SOL     OW 7328   2.431   3.071   3.089 -0.0789  0.3001 -0.1970
 1821SOL    HW2 7329   2.510   3.108   3.051  1.0039 -0.8790  0.8629
 1821SOL    HW3 7330   2.361   3.130   3.061  1.1126  1.1363 -1.4582
 1821SOL    MW4 7331   2.432   3.084   3.080  0.2213  0.2549 -0.2236
 1822SOL     OW 7332   2.231   3.262   3.018 -0.1764  0.1330 -0.0105
 1822SOL    HW2 7333   2.230   3.352   3.051 -0.1591 -0.5841  1.9745
 1822SOL    HW3 7334   2.150   3.223   3.050 -0.0209 -0.6749 -0.5859
 1822SOL    MW4 7335   2.220   3.269   3.026 -0.1538 -0.0679  0.1752
 1823SOL     OW 7336   2.251   3.532   3.096 -0.0498  0.3674  0.0197
 1823SOL    HW2 7337   2.331   3.569   3.059  0.0894 -0.4018 -0.4671
 1823SOL    HW3 7338   2.181   3.566   3.040  0.2592 -1.7180 -1.7326
 1823SOL    MW4 7339   2.252   3.541   3.084  0.0091 -0.0093 -0.2759
 1824SOL     OW 7340   2.477   3.654   2.990 -0.1600  0.2985 -0.7534
 1824SOL    HW2 7341   2.552   3.603   3.018 -0.4140  0.8764  1.0251
 1824SOL    HW3 7342   2.490   3.741   3.029 -1.8407  0.3432 -0.2272
 1824SOL    MW4 7343   2.488   3.659   2.998 -0.4151  0.3808 -0.4494
 1825SOL     OW 7344   2.488   3.910   3.105  0.1123 -0.3751 -0.0100
 1825SOL    HW2 7345   2.487   3.921   3.200 -1.0560 -0.9067  0.0487
 1825SOL    HW3 7346   2.558   3.968   3.075  1.1102 -0.8934  1.2540
 1825SOL    MW4 7347   2.498   3.919   3.113  0.0896 -0.5138  0.1645
 1826SOL     OW 7348   2.271   4.000   2.941 -0.1535  0.6506 -0.6810
 1826SOL    HW2 7349   2.339   3.980   3.005  0.3299  0.3368 -1.2781
 1826SOL    HW3 7350   2.190   3.970   2.981  0.0156  1.3618  0.1895
 1826SOL    MW4 7351   2.270   3.993   2.955 -0.0675  0.7031 -0.6449
 1827SOL     OW 7352   2.199   4.248   3.064 -0.3214  0.0095  0.6412
 1827SOL    HW2 7353   2.203   4.165   3.016 -1.7320 -0.5641  1.4607
 1827SOL    HW3 7354   2.109   4.278   3.053 -0.4697  0.2351  2.2970
 1827SOL    MW4 7355   2.188   4.241   3.056 -0.5269 -0.0367  0.9677
 1828SOL     OW 7356   2.455   4.388   2.985  0.0996  0.0615 -0.2896
 1828SOL    HW2 7357   2.385   4.328   3.012 -0.4782  1.4195  1.2980
 1828SOL    HW3 7358   2.452   4.386   2.889  0.7308 -3.1669 -0.2821
 1828SOL    MW4 7359   2.445   4.380   2.976  0.1066 -0.1855 -0.0792
 1829SOL     OW 7360   2.937   0.005   3.126 -1.0559 -0.3344 -0.0787
 1829SOL    HW2 7361   3.006   0.055   3.083 -1.0608 -0.4161 -0.1826
 1829SOL    HW3 7362   2.936  -0.079   3.079  0.3809 -1.2419  1.4159
 1829SOL    MW4 7363   2.946   0.000   3.114 -0.8671 -0.4654  0.1047
 1830SOL     OW 7364   2.704   0.140   3.020 -0.0957 -0.4228 -0.3804
 1830SOL    HW2 7365   2.772   0.093   3.069 -1.1799 -1.8488 -0.2259
 1830SOL    HW3 7366   2.624   0.091   3.038 -0.9592  0.5753 -1.5017
 1830SOL    MW4 7367   2.703   0.127   3.029 -0.3526 -0.4793 -0.5081
 1831SOL     OW 7368   2.707   0.416   3.109  0.1727  0.2614  0.3749
 1831SOL    HW2 7369   2.704   0.324   3.083  1.6106  0.5620 -0.9329
 1831SOL    HW3 7370   2.633   0.456   3.063  0.1126 -0.0433  0.2028
 1831SOL    MW4 7371   2.697   0.409   3.100  0.3543  0.2608  0.1798
 1832SOL     OW 7372   2.944   0.558   3.007  0.4121  0.3564  0.2052
 1832SOL    HW2 7373   2.869   0.502   3.028 -1.6439  2.5818 -0.9691
 1832SOL    HW3 7374   2.962   0.541   2.915  0.7529  0.4619  0.2538
 1832SOL    MW4 7375   2.936   0.549   2.998  0.1855  0.6639  0.0565
 1833SOL     OW 7376   2.963   0.800   3.136 -0.2541  0.2649  0.0803
 1833SOL    HW2 7377   2.946   0.794   3.230 -0.2540  0.4575  0.0924
 1833SOL    HW3 7378   2.955   0.710   3.104 -1.7383  0.4253 -0.0027
 1833SOL    MW4 7379   2.960   0.787   3.144 -0.4499  0.3115  0.0710
 1834SOL     OW 7380   2.720   0.922   3.061  0.1579  0.2748  0.3801
 1834SOL    HW2 7381   2.694   1.011   3.086  2.1299  1.1426 -0.5611
 1834SOL    HW3 7382   2.801   0.906   3.109 -0.5054 -1.2705  1.0228
 1834SOL    MW4 7383   2.727   0.931   3.071  0.3304  0.1854  0.3409
 1835SOL     OW 7384   2.664   1.197   3.111 -0.2257  0.2282 -0.6728
 1835SOL    HW2 7385   2.725   1.220   3.041  0.1720 -1.3060 -0.8412
 1835SOL    HW3 7386   2.578   1.220   3.075  0.1797  1.7148 -0.7151
 1835SOL    MW4 7387   2.661   1.203   3.097 -0.1197  0.2218 -0.7007
 1836SOL     OW 7388   2.891   1.290   2.973 -0.3844 -0.5061  0.4460
 1836SOL    HW2 7389   2.951   1.234   3.023  0.1763 -0.4211 -0.1294
 1836SOL    HW3 7390   2.898   1.376   3.015 -0.5176 -0.6279  0.7227
 1836SOL    MW4 7391   2.900   1.294   2.985 -0.3278 -0.5109  0.4067
 1837SOL     OW 7392   2.919   1.534   3.106  0.7751  0.0861 -0.7877
 1837SOL    HW2 7393   2.927   1.548   3.201 -0.0364 -1.1757 -0.5198
 1837SOL    HW3 7394   2.993   1.583   3.069  1.5181  0.0236  0.5422
 1837SOL    MW4 7395   2.930   1.543   3.114  0.7663 -0.0888 -0.5770
 1838SOL     OW 7396   2.710   1.684   2.969 -0.5183  0.1158  0.0519
 1838SOL    HW2 7397   2.771   1.641   3.029 -0.3257 -0.4311 -0.5302
 1838SOL    HW3 7398   2.624   1.652   2.996 -0.3363 -0.9877 -0.6627
 1838SOL    MW4 7399   2.707   1.674   2.981 -0.4690 -0.1018 -0.1192
 1839SOL     OW 7400   2.656   1.942   3.079  0.1040 -0.3387  0.5950
 1839SOL    HW2 7401   2.743   1.977   3.058  0.3738 -1.2012  0.2786
 1839SOL    HW3 7402   2.652   1.859   3.033 -1.8662  0.8263 -1.4382
 1839SOL    MW4 7403   2.667   1.936   3.070 -0.1202 -0.2987  0.2849
 1840SOL     OW 7404   2.895   2.042   3.003 -0.2495 -0.1015  0.0750
 1840SOL    HW2 7405   2.894   2.132   3.037  1.0868  0.5033 -1.4494
 1840SOL    HW3 7406   2.876   2.052   2.910  0.9845 -1.2993 -0.3076
 1840SOL    MW4 7407   2.893   2.055   2.996  0.0894 -0.1798 -0.1764
 1841SOL     OW 7408   2.952   2.310   3.072 -0.5342 -0.3471  0.8723
 1841SOL    HW2 7409   3.024   2.356   3.029  0.4963 -2.6912 -0.0147
 1841SOL    HW3 7410   2.873   2.352   3.039  0.3514  0.2145 -0.5584
 1841SOL    MW4 7411   2.951   2.321   3.062 -0.2813 -0.5822  0.5665
 1842SOL     OW 7412   2.736   2.437   2.983 -0.6849 -0.3632  0.2208
 1842SOL    HW2 7413   2.769   2.520   3.019 -0.3823 -0.9952  1.4247
 1842SOL    HW3 7414   2.654   2.422   3.028 -1.3014 -0.1643 -0.8161
 1842SOL    MW4 7415   2.730   2.446   2.993 -0.7262 -0.4201  0.2432
 1843SOL     OW 7416   2.731   2.682   3.110  0.1687  0.5535 -0.0049
 1843SOL    HW2 7417   2.723   2.681   3.205  2.2250  2.0444  0.2259
 1843SOL    HW3 7418   2.644   2.706   3.078 -0.6881 -0.5470  1.4542
 1843SOL    MW4 7419   2.719   2.685   3.118  0.3269  0.6051  0.2179
 1844SOL     OW 7420   2.914   2.882   3.031  0.3252  0.0677  0.0675
 1844SOL    HW2 7421   2.998   2.836   3.031  1.3304  1.8278 -1.9612
 1844SOL    HW3 7422   2.851   2.815   3.058  1.9327 -2.1126 -1.3323
 1844SOL    MW4 7423   2.917   2.867   3.035  0.6700  0.0124 -0.3848
 1845SOL     OW 7424   2.921   3.160   3.068  0.5203 -0.0217  0.7232
 1845SOL    HW2 7425   2.833   3.191   3.046  0.8825  0.3890 -0.1769
 1845SOL    HW3 7426   2.915   3.065   3.063  0.8488  0.0629 -2.3056
 1845SOL    MW4 7427   2.909   3.151   3.064  0.6111  0.0436  0.2050
 1846SOL     OW 7428   2.639   3.238   3.018 -0.4433  0.4358  0.9238
 1846SOL    HW2 7429   2.658   3.331   3.030  0.5670  0.1964  1.2074
 1846SOL    HW3 7430   2.660   3.221   2.927 -0.3196  0.4051  0.9591
 1846SOL    MW4 7431   2.644   3.248   3.008 -0.2937  0.4003  0.9661
 1847SOL     OW 7432   2.688   3.512   3.074 -0.1247 -0.1634  0.4267
 1847SOL    HW2 7433   2.699   3.502   3.169  0.6350 -0.7424  0.2811
 1847SOL    HW3 7434   2.775   3.537   3.042 -0.2882 -0.3319 -0.1605
 1847SOL    MW4 7435   2.701   3.514   3.082 -0.0458 -0.2618  0.3300
 1848SOL     OW 7436   2.944   3.633   2.984  0.6301  0.3819  0.3852
 1848SOL    HW2 7437   3.020   3.594   3.026 -0.0138  0.1759  1.3536
 1848SOL    HW3 7438   2.935   3.719   3.025  0.3782  0.4311  0.2282
 1848SOL    MW4 7439   2.953   3.639   2.995  0.5119  0.3612  0.4921
 1849SOL     OW 7440   2.910   3.880   3.082 -0.6325 -0.3473  0.1356
 1849SOL    HW2 7441   2.892   3.887   3.176 -1.5689 -1.1281  0.0198
 1849SOL    HW3 7442   2.839   3.928   3.040 -1.1324 -1.3882 -0.2336
 1849SOL    MW4 7443   2.898   3.887   3.089 -0.8221 -0.5877  0.0718
 1850SOL     OW 7444   2.692   4.015   2.968  0.1230 -0.2593  0.2884
 1850SOL    HW2 7445   2.704   4.110   2.975 -0.0385 -0.3115  1.4015
 1850SOL    HW3 7446   2.702   3.996   2.875  0.0439  0.8679  0.0438
 1850SOL    MW4 7447   2.695   4.025   2.957  0.0913 -0.1173  0.4029
 1851SOL     OW 7448   2.709   4.283   3.048  0.2466 -0.3645  0.1162
 1851SOL    HW2 7449   2.713   4.265   3.142  1.8481  0.4254  0.2185
 1851SOL    HW3 7450   2.617   4.301   3.031  0.0196  0.0007  1.6457
 1851SOL    MW4 7451   2.698   4.283   3.058  0.4282 -0.2122  0.3314
 1852SOL     OW 7452   2.937   4.426   2.980  0.4354  0.1497 -0.0938
 1852SOL    HW2 7453   3.005   4.365   3.008  1.0065  0.7529 -0.1559
 1852SOL    HW3 7454   2.856   4.378   2.991  0.9732 -1.0400 -1.2710
 1852SOL    MW4 7455   2.935   4.412   2.985  0.5815  0.0720 -0.2575
 1853SOL     OW 7456   3.342   0.001   3.071  0.5804  0.7255  1.1172
 1853SOL    HW2 7457   3.411   0.067   3.059 -0.6816  1.5826 -1.9084
 1853SOL    HW3 7458   3.376  -0.076   3.027  0.1135  0.7771  0.6672
 1853SOL    MW4 7459   3.356  -0.000   3.064  0.3524  0.8454  0.6590
 1854SOL     OW 7460   3.119   0.150   2.999 -0.1580 -0.5502 -0.1914
 1854SOL    HW2 7461   3.137   0.242   3.020 -0.8721 -0.0622 -1.7035
 1854SOL    HW3 7462   3.189   0.102   3.045 -0.2616  0.6586  1.3000
 1854SOL    MW4 7463   3.131   0.156   3.008 -0.2658 -0.3263 -0.1943
 1855SOL     OW 7464   3.132   0.398   3.119 -0.1655  0.5079  0.3986
 1855SOL    HW2 7465   3.220   0.435   3.110  0.9021 -2.0430 -0.0522
 1855SOL    HW3 7466   3.075   0.464   3.080  1.7482  1.3493 -1.0825
 1855SOL    MW4 7467   3.136   0.411   3.113  0.2279  0.2824  0.1435
 1856SOL     OW 7468   3.372   0.520   3.046 -0.6931  0.0298  0.9540
 1856SOL    HW2 7469   3.447   0.463   3.064  0.2333  1.0181  0.2484
 1856SOL    HW3 7470   3.356   0.509   2.952 -0.9587  0.4100  0.9562
 1856SOL    MW4 7471   3.380   0.511   3.036 -0.6061  0.2103  0.8609
 1857SOL     OW 7472   3.338   0.778   3.111 -0.2424  0.1003  0.5451
 1857SOL    HW2 7473   3.327   0.757   3.203  1.1490  0.4159  0.7792
 1857SOL    HW3 7474   3.348   0.693   3.068 -0.3533 -0.0142  0.7449
 1857SOL    MW4 7475   3.338   0.764   3.117 -0.0737  0.1268  0.6025
 1858SOL     OW 7476   3.143   0.930   2.983 -0.0557 -0.1900 -0.3965
 1858SOL    HW2 7477   3.226   0.913   3.028 -0.3228  0.3807  0.3175
 1858SOL    HW3 7478   3.080   0.874   3.028 -0.4256  0.7629  0.2727
 1858SOL    MW4 7479   3.146   0.920   2.995 -0.1400  0.0110 -0.2141
 1859SOL     OW 7480   3.136   1.180   3.095  0.0371 -0.4105 -0.7893
 1859SOL    HW2 7481   3.212   1.220   3.054  0.0570  0.2887 -0.0719
 1859SOL    HW3 7482   3.122   1.099   3.046  2.6267 -1.7217  0.5307
 1859SOL    MW4 7483   3.144   1.174   3.083  0.3812 -0.4913 -0.5205
 1860SOL     OW 7484   3.388   1.262   3.021  0.0887  0.2460 -0.1855
 1860SOL    HW2 7485   3.451   1.225   3.082 -0.4208 -1.1037 -0.4610
 1860SOL    HW3 7486   3.388   1.356   3.041  1.8310  0.1975  0.1110
 1860SOL    MW4 7487   3.396   1.270   3.032  0.2515  0.0615 -0.1826
 1861SOL     OW 7488   3.359   1.527   3.071  0.0387 -0.3334 -0.2537
 1861SOL    HW2 7489   3.374   1.529   3.166  2.3133 -0.1532 -0.5921
 1861SOL    HW3 7490   3.438   1.566   3.034 -2.1408  2.5597 -2.0950
 1861SOL    MW4 7491   3.371   1.533   3.079  0.0513  0.0720 -0.5412
 1862SOL     OW 7492   3.140   1.656   2.973  0.1863 -0.1020 -0.0296
 1862SOL    HW2 7493   3.219   1.614   3.009  0.0735 -1.5448 -1.3733
 1862SOL    HW3 7494   3.148   1.643   2.878 -1.6404 -0.2200 -0.1870
 1862SOL    MW4 7495   3.152   1.649   2.965 -0.0696 -0.3080 -0.2277
 1863SOL     OW 7496   3.130   1.908   3.096 -0.3578  0.2348  0.3850
 1863SOL    HW2 7497   3.130   1.823   3.052 -0.9208  1.3341 -1.7815
 1863SOL    HW3 7498   3.052   1.953   3.063  0.9663  2.3452  0.0209
 1863SOL    MW4 7499   3.119   1.903   3.086 -0.2575  0.6584  0.0510
 1864SOL     OW 7500   3.335   2.065   2.996 -0.1041  0.0550 -0.2844
 1864SOL    HW2 7501   3.402   1.999   3.014  0.7373  0.8442 -0.4337
 1864SOL    HW3 7502   3.252   2.023   3.018  0.5344 -0.5833  0.9586
 1864SOL    MW4 7503   3.333   2.051   3.001  0.0913  0.0749 -0.1402
 1865SOL     OW 7504   3.410   2.328   3.095  0.7434  0.0504  0.1164
 1865SOL    HW2 7505   3.384   2.329   3.187  3.0914 -0.0270  0.8242
 1865SOL    HW3 7506   3.401   2.237   3.068 -0.3972  0.1577  0.1384
 1865SOL    MW4 7507   3.405   2.316   3.104  0.9027  0.0544  0.2127
 1866SOL     OW 7508   3.183   2.453   2.975  0.0513  0.1639  0.5953
 1866SOL    HW2 7509   3.271   2.419   2.993 -0.2476 -1.4384 -0.8918
 1866SOL    HW3 7510   3.174   2.448   2.880 -0.6104  2.9780  0.4632
 1866SOL    MW4 7511   3.193   2.448   2.965 -0.0753  0.3238  0.3819
 1867SOL     OW 7512   3.143   2.714   3.048 -0.4540 -0.4034 -0.5667
 1867SOL    HW2 7513   3.147   2.712   3.144 -1.9928 -0.7600 -0.5027
 1867SOL    HW3 7514   3.150   2.622   3.023  0.5477 -0.2591 -0.8300
 1867SOL    MW4 7515   3.145   2.701   3.057 -0.5250 -0.4313 -0.5927
 1868SOL     OW 7516   3.360   2.857   2.930  0.1758  0.9186 -0.0995
 1868SOL    HW2 7517   3.367   2.947   2.962 -0.2996  0.8417  0.2275
 1868SOL    HW3 7518   3.285   2.821   2.977 -1.0881  1.0761 -1.9311
 1868SOL    MW4 7519   3.351   2.864   2.941 -0.0536  0.9294 -0.2980
 1869SOL     OW 7520   3.363   3.112   3.050 -0.0411  0.2780 -0.7510
 1869SOL    HW2 7521   3.363   3.125   3.144 -0.3257 -1.0271 -0.5617
 1869SOL    HW3 7522   3.293   3.169   3.017  0.9899  1.8281 -0.3537
 1869SOL    MW4 7523   3.354   3.121   3.058  0.0572  0.3099 -0.6735
 1870SOL     OW 7524   3.155   3.267   2.972 -0.0158 -0.2003 -0.3174
 1870SOL    HW2 7525   3.066   3.239   2.993 -0.1117  0.2172 -0.1655
 1870SOL    HW3 7526   3.163   3.252   2.878  0.2896 -1.7245 -0.0578
 1870SOL    MW4 7527   3.144   3.261   2.963  0.0117 -0.3464 -0.2632
 1871SOL     OW 7528   3.141   3.503   3.103  0.1037 -0.4514 -0.7472
 1871SOL    HW2 7529   3.224   3.536   3.068 -0.5399 -0.1849 -2.0324
 1871SOL    HW3 7530   3.133   3.414   3.067  0.7652 -1.2221  0.9451
 1871SOL    MW4 7531   3.151   3.496   3.094  0.1061 -0.5178 -0.6936
 1872SOL     OW 7532   3.371   3.613   3.009 -0.3581  0.7211  0.0879
 1872SOL    HW2 7533   3.455   3.566   3.011 -0.5851  0.2438 -0.8850
 1872SOL    HW3 7534   3.393   3.703   3.030  0.4385  0.6444 -0.3933
 1872SOL    MW4 7535   3.385   3.618   3.012 -0.2830  0.6478 -0.1037
 1873SOL     OW 7536   3.431   3.886   3.066 -0.2322 -0.3237 -0.5002
 1873SOL    HW2 7537   3.406   3.878   3.158  0.2591  0.1224 -0.3177
 1873SOL    HW3 7538   3.352   3.915   3.021 -0.7493 -1.5707 -0.3908
 1873SOL    MW4 7539   3.418   3.889   3.072 -0.2356 -0.4294 -0.4618
 1874SOL     OW 7540   3.163   3.958   3.009  0.1561  0.1701  0.1333
 1874SOL    HW2 7541   3.081   3.917   3.036  0.2047  0.0884  0.1560
 1874SOL    HW3 7542   3.153   3.970   2.914 -0.0119  0.4504  0.1843
 1874SOL    MW4 7543   3.151   3.954   3.000  0.1404  0.1962  0.1428
 1875SOL     OW 7544   3.128   4.222   3.079 -0.1051 -0.1021 -0.0049
 1875SOL    HW2 7545   3.167   4.241   3.164  1.4379  0.7697 -0.8927
 1875SOL    HW3 7546   3.153   4.131   3.061 -0.9969 -0.5091  0.7543
 1875SOL    MW4 7547   3.137   4.213   3.088 -0.0191 -0.0410 -0.0217
 1876SOL     OW 7548   3.332   4.349   2.935  0.0632  0.1590 -0.4507
 1876SOL    HW2 7549   3.416   4.328   2.976 -0.6843 -1.5602  0.2362
 1876SOL    HW3 7550   3.266   4.314   2.995 -1.2035  2.8617 -0.2218
 1876SOL    MW4 7551   3.335   4.341   2.948 -0.2024  0.2890 -0.3300
 1877SOL     OW 7552   3.790   0.005   3.102 -0.2039 -0.0170 -0.0645
 1877SOL    HW2 7553   3.789  -0.083   3.063 -1.3692  0.2545 -0.6790
 1877SOL    HW3 7554   3.711   0.047   3.068 -0.3526  0.8178  1.2730
 1877SOL    MW4 7555   3.780  -0.001   3.092 -0.3774  0.1287  0.0308
 1878SOL     OW 7556   3.575   0.124   3.005  0.6583 -0.0325 -0.2960
 1878SOL    HW2 7557   3.587   0.217   3.028 -1.7215  0.3235 -0.3696
 1878SOL    HW3 7558   3.590   0.121   2.911  1.3227  0.1544 -0.2033
 1878SOL    MW4 7559   3.579   0.136   2.996  0.4318  0.0391 -0.2937
 1879SOL     OW 7560   3.597   0.380   3.103  0.4023 -0.0446  0.4771
 1879SOL    HW2 7561   3.620   0.397   3.195  1.6692  1.3242 -0.0680
 1879SOL    HW3 7562   3.670   0.417   3.053  0.1322 -1.5356 -1.0588
 1879SOL    MW4 7563   3.610   0.387   3.109  0.5338 -0.0608  0.2027
 1880SOL     OW 7564   3.823   0.470   3.002 -0.2151 -0.3231  0.0819
 1880SOL    HW2 7565   3.896   0.434   3.053  0.4270  1.1833  0.2707
 1880SOL    HW3 7566   3.799   0.550   3.048  0.0839  0.8359 -1.7201
 1880SOL    MW4 7567   3.830   0.476   3.015 -0.0908  0.0286 -0.1309
 1881SOL     OW 7568   3.786   0.717   3.132  0.3396  0.4704 -0.5374
 1881SOL    HW2 7569   3.788   0.741   3.224 -0.7266  2.5670 -1.0213
 1881SOL    HW3 7570   3.871   0.746   3.098  1.1660 -1.2805 -0.0067
 1881SOL    MW4 7571   3.797   0.724   3.139  0.3080  0.5159 -0.5310
 1882SOL     OW 7572   3.572   0.894   3.046  0.2980 -0.2809 -0.5004
 1882SOL    HW2 7573   3.636   0.833   3.083 -0.4041  1.2043  3.3990
 1882SOL    HW3 7574   3.487   0.855   3.064 -0.0568  0.0133 -1.4634
 1882SOL    MW4 7575   3.569   0.881   3.053  0.1585 -0.0461 -0.1130
 1883SOL     OW 7576   3.596   1.152   3.170 -0.0585  0.3138  0.4253
 1883SOL    HW2 7577   3.671   1.197   3.130 -0.3359  0.7714  0.4227
 1883SOL    HW3 7578   3.597   1.065   3.130 -0.1694  0.6791 -0.3881
 1883SOL    MW4 7579   3.606   1.147   3.159 -0.1099  0.4222  0.3176
 1884SOL     OW 7580   3.828   1.260   3.020 -0.2403  0.2776  0.2940
 1884SOL    HW2 7581   3.832   1.354   3.037  0.8671  0.4478 -0.8600
 1884SOL    HW3 7582   3.825   1.252   2.925 -2.1001 -0.8160  0.4284
 1884SOL    MW4 7583   3.828   1.271   3.010 -0.3397  0.1557  0.1595
 1885SOL     OW 7584   3.801   1.518   3.097 -0.3890 -0.1158 -0.0377
 1885SOL    HW2 7585   3.806   1.531   3.191 -0.0928 -0.6974  0.0287
 1885SOL    HW3 7586   3.720   1.561   3.071 -0.0376  0.7809  0.3530
 1885SOL    MW4 7587   3.791   1.525   3.106 -0.3033 -0.0743  0.0224
 1886SOL     OW 7588   3.570   1.661   2.987  0.0365 -0.0222  0.2081
 1886SOL    HW2 7589   3.574   1.750   3.023  1.4384 -0.7738  1.9324
 1886SOL    HW3 7590   3.591   1.673   2.894  0.1371  1.4530  0.4073
 1886SOL    MW4 7591   3.573   1.675   2.979  0.2348  0.0734  0.4618
 1887SOL     OW 7592   3.586   1.922   3.073  0.3131 -0.1246 -0.0566
 1887SOL    HW2 7593   3.601   1.914   3.167  0.0608  0.5066  0.0412
 1887SOL    HW3 7594   3.668   1.959   3.039 -0.1356  1.0632  0.1342
 1887SOL    MW4 7595   3.599   1.926   3.081  0.2205  0.1154 -0.0186
 1888SOL     OW 7596   3.821   2.060   2.980  0.5090 -0.1664 -0.1451
 1888SOL    HW2 7597   3.821   2.148   3.019 -0.1951 -0.2043 -0.0492
 1888SOL    HW3 7598   3.827   2.076   2.886 -0.5579  0.0157 -0.1829
 1888SOL    MW4 7599   3.822   2.074   2.973  0.2751 -0.1473 -0.1373
 1889SOL     OW 7600   3.796   2.292   3.118 -0.0533  0.0633  0.0709
 1889SOL    HW2 7601   3.787   2.288   3.213  0.6375  2.7049  0.3023
 1889SOL    HW3 7602   3.731   2.357   3.090 -1.1354 -1.5937 -1.4441
 1889SOL    MW4 7603   3.786   2.300   3.127 -0.1049  0.1934 -0.0985
 1890SOL     OW 7604   3.625   2.471   2.991  0.0489 -0.2336 -0.4148
 1890SOL    HW2 7605   3.614   2.560   3.024  0.6305 -0.5443  0.6761
 1890SOL    HW3 7606   3.551   2.423   3.029  0.1777 -0.3809 -0.3507
 1890SOL    MW4 7607   3.614   2.476   3.001  0.1423 -0.2940 -0.2627
 1891SOL     OW 7608   3.582   2.733   3.065  0.6715 -0.0670  0.3610
 1891SOL    HW2 7609   3.660   2.773   3.026  1.4008 -1.8958 -0.1673
 1891SOL    HW3 7610   3.508   2.774   3.020  1.4459 -0.5689 -1.4210
 1891SOL    MW4 7611   3.583   2.743   3.054  0.8700 -0.3746  0.0558
 1892SOL     OW 7612   3.803   2.865   2.955 -0.0077 -0.1319 -0.1406
 1892SOL    HW2 7613   3.836   2.951   2.983  0.9879 -0.2823 -0.8369
 1892SOL    HW3 7614   3.827   2.859   2.863 -0.0949 -1.1494 -0.0976
 1892SOL    MW4 7615   3.811   2.876   2.947  0.1118 -0.2861 -0.2267
 1893SOL     OW 7616   3.881   3.086   3.080 -0.9167  0.0611 -0.1479
 1893SOL    HW2 7617   3.946   3.149   3.050 -2.0887  1.4476  0.1669
 1893SOL    HW3 7618   3.796   3.127   3.060 -1.7133 -0.2750  2.3377
 1893SOL    MW4 7619   3.878   3.100   3.073 -1.1766  0.1998  0.2213
 1894SOL     OW 7620   3.651   3.217   2.954  0.3210 -0.1169  0.2684
 1894SOL    HW2 7621   3.565   3.197   2.992 -0.3366  1.3328 -0.4284
 1894SOL    HW3 7622   3.641   3.199   2.861  0.3084  1.4949 -0.0520
 1894SOL    MW4 7623   3.638   3.212   2.947  0.2327  0.2868  0.1340
 1895SOL     OW 7624   3.610   3.480   3.083  0.3421  0.1017  0.0431
 1895SOL    HW2 7625   3.686   3.532   3.055  0.2952 -0.3449 -0.9360
 1895SOL    HW3 7626   3.625   3.394   3.044 -0.1679 -0.2747  0.6852
 1895SOL    MW4 7627   3.622   3.476   3.074  0.2687 -0.0067 -0.0012
 1896SOL     OW 7628   3.837   3.611   2.987 -0.0410 -0.4299 -0.3178
 1896SOL    HW2 7629   3.818   3.699   3.019  0.9825  0.3270 -1.7288
 1896SOL    HW3 7630   3.827   3.616   2.893  0.3876 -1.7328 -0.4538
 1896SOL    MW4 7631   3.833   3.623   2.979  0.1502 -0.5021 -0.5217
 1897SOL     OW 7632   3.820   3.891   3.050 -0.0443 -0.7090 -0.0119
 1897SOL    HW2 7633   3.830   3.896   3.146 -0.7653 -0.9284  0.0737
 1897SOL    HW3 7634   3.753   3.957   3.030  0.5377 -0.2425 -0.4342
 1897SOL    MW4 7635   3.812   3.900   3.060 -0.0625 -0.6764 -0.0563
 1898SOL     OW 7636   3.617   4.051   2.979  0.0944 -0.1973  0.1791
 1898SOL    HW2 7637   3.550   3.994   3.017 -0.3919  0.4225  0.2583
 1898SOL    HW3 7638   3.604   4.043   2.885  0.6096 -0.9103  0.1657
 1898SOL    MW4 7639   3.606   4.042   2.972  0.0985 -0.2093  0.1876
 1899SOL     OW 7640   3.570   4.294   3.074  0.2940  0.0801 -0.1298
 1899SOL    HW2 7641   3.650   4.342   3.053  0.0569  1.3288  1.6471
 1899SOL    HW3 7642   3.588   4.204   3.048  2.7702  0.0941  1.3790
 1899SOL    MW4 7643   3.583   4.288   3.068  0.5891  0.2465  0.3037
 1900SOL     OW 7644   3.802   4.397   2.988  0.1577  0.0965  0.5820
 1900SOL    HW2 7645   3.881   4.345   3.007 -0.2882 -0.2380  1.5508
 1900SOL    HW3 7646   3.794   4.393   2.893  1.9239  1.0467  0.3712
 1900SOL    MW4 7647   3.812   4.389   2.978  0.3319  0.1774  0.6821
 1901SOL     OW 7648   4.254   4.655   3.099 -0.2854 -0.4424 -0.4697
 1901SOL    HW2 7649   4.253   4.666   3.194  1.5011 -0.3292 -0.4490
 1901SOL    HW3 7650   4.276   4.562   3.086  2.1044  0.1388 -0.7723
 1901SOL    MW4 7651   4.257   4.644   3.110  0.2656 -0.3505 -0.5069
 1902SOL     OW 7652   4.030   0.110   2.987  0.1779 -0.3443  0.2421
 1902SOL    HW2 7653   4.108   0.063   3.015 -0.0794 -0.7297  0.3323
 1902SOL    HW3 7654   3.958   0.064   3.031  0.0115  0.8537  1.2214
 1902SOL    MW4 7655   4.031   0.098   2.996  0.1221 -0.2371  0.3831
 1903SOL     OW 7656   4.041   0.347   3.124  0.4063  0.2847 -0.2975
 1903SOL    HW2 7657   4.098   0.402   3.071 -0.7234 -0.1120 -1.9381
 1903SOL    HW3 7658   4.034   0.265   3.076 -1.2129  0.1702  0.0938
 1903SOL    MW4 7659   4.047   0.344   3.111  0.0439  0.2173 -0.4625
 1904SOL     OW 7660   4.277   0.469   2.984 -0.1475 -0.7129  0.4008
 1904SOL    HW2 7661   4.312   0.555   3.006  2.2832 -1.6257  0.2744
 1904SOL    HW3 7662   4.254   0.475   2.891 -1.6330  0.3062  0.8211
 1904SOL    MW4 7663   4.278   0.481   2.975 -0.0224 -0.6990  0.4394
 1905SOL     OW 7664   4.256   0.731   3.081  0.0136 -0.3176 -0.3750
 1905SOL    HW2 7665   4.167   0.764   3.070 -0.5589 -1.7195 -0.0246
 1905SOL    HW3 7666   4.312   0.806   3.057 -1.2364  0.8073  0.1457
 1905SOL    MW4 7667   4.252   0.746   3.076 -0.2265 -0.3542 -0.2599
 1906SOL     OW 7668   4.010   0.847   3.050 -0.3148 -0.5100  0.2068
 1906SOL    HW2 7669   4.013   0.939   3.078  0.5872 -0.5228  0.1838
 1906SOL    HW3 7670   4.023   0.851   2.955 -1.1063 -0.6107  0.0938
 1906SOL    MW4 7671   4.012   0.860   3.041 -0.2999 -0.5249  0.1891
 1907SOL     OW 7672   4.064   1.144   3.112  0.4055  0.2217 -0.4440
 1907SOL    HW2 7673   4.043   1.141   3.205  0.1035  1.1398 -0.4794
 1907SOL    HW3 7674   3.992   1.194   3.073  0.1567 -0.7597 -1.2815
 1907SOL    MW4 7675   4.051   1.150   3.119  0.3333  0.2134 -0.5593
 1908SOL     OW 7676   4.282   1.282   3.006 -0.2239  0.0342  0.2002
 1908SOL    HW2 7677   4.208   1.240   3.051  0.1463  0.1888  0.9649
 1908SOL    HW3 7678   4.268   1.263   2.914 -0.9420 -0.3831  0.3905
 1908SOL    MW4 7679   4.270   1.274   3.000 -0.2689 -0.0004  0.3262
 1909SOL     OW 7680   4.279   1.567   3.084 -0.6323  0.3350  0.3573
 1909SOL    HW2 7681   4.203   1.604   3.040  0.2391  1.1804 -0.4642
 1909SOL    HW3 7682   4.285   1.478   3.051 -1.2922  0.2389  0.4794
 1909SOL    MW4 7683   4.270   1.560   3.074 -0.6037  0.4338  0.2649
 1910SOL     OW 7684   4.029   1.656   2.991  0.0976 -0.1040  0.0618
 1910SOL    HW2 7685   4.030   1.741   3.035  0.9736 -0.4372  0.7145
 1910SOL    HW3 7686   3.947   1.615   3.018 -0.2056  0.4284 -0.0517
 1910SOL    MW4 7687   4.018   1.662   3.000  0.1736 -0.0778  0.1328
 1911SOL     OW 7688   4.033   1.927   3.096 -0.2252  0.4963  0.4605
 1911SOL    HW2 7689   4.106   1.980   3.063  0.4485 -0.5567  0.2097
 1911SOL    HW3 7690   3.954   1.972   3.064  0.3306  1.2934  0.1885
 1911SOL    MW4 7691   4.032   1.940   3.087 -0.0634  0.4625  0.3915
 1912SOL     OW 7692   4.278   2.047   3.016  0.1187 -0.0166 -0.4347
 1912SOL    HW2 7693   4.266   2.140   3.034  1.5483  0.3054 -1.0257
 1912SOL    HW3 7694   4.265   2.039   2.921  1.1148 -0.2170 -0.5616
 1912SOL    MW4 7695   4.275   2.058   3.006  0.4392 -0.0005 -0.5293
 1913SOL     OW 7696   4.261   2.300   3.130 -0.0878  0.0413 -0.5964
 1913SOL    HW2 7697   4.184   2.345   3.094  0.1093 -0.0540 -1.1436
 1913SOL    HW3 7698   4.335   2.338   3.084  0.1479 -0.2772 -0.4846
 1913SOL    MW4 7699   4.261   2.311   3.119 -0.0305 -0.0131 -0.6540
 1914SOL     OW 7700   4.042   2.427   3.027 -0.1329  0.0509  0.4102
 1914SOL    HW2 7701   4.037   2.520   3.046  0.1657  0.5852 -1.9809
 1914SOL    HW3 7702   3.965   2.389   3.070 -1.0842  1.6242  0.0958
 1914SOL    MW4 7703   4.031   2.434   3.035 -0.2193  0.3290  0.0532
 1915SOL     OW 7704   4.044   2.707   3.058 -0.1938  0.4438 -0.3814
 1915SOL    HW2 7705   4.046   2.715   3.153 -1.1522 -3.3792  0.0380
 1915SOL    HW3 7706   3.963   2.750   3.031 -0.5774  0.3784  0.6716
 1915SOL    MW4 7707   4.034   2.714   3.067 -0.3710 -0.0694 -0.1869
 1916SOL     OW 7708   4.279   2.856   3.014 -0.0264  0.2017 -0.2570
 1916SOL    HW2 7709   4.192   2.819   3.028 -0.5673  1.0531 -1.2949
 1916SOL    HW3 7710   4.339   2.784   3.034 -0.9955 -0.6365 -0.3163
 1916SOL    MW4 7711   4.276   2.842   3.019 -0.2255  0.2036 -0.4020
 1917SOL     OW 7712   4.317   3.125   3.125  0.2504  0.7398  0.2435
 1917SOL    HW2 7713   4.250   3.160   3.067  0.4879  1.0820  0.1723
 1917SOL    HW3 7714   4.320   3.031   3.105  0.6071  0.9195 -0.5850
 1917SOL    MW4 7715   4.309   3.117   3.115  0.3290  0.8085  0.1249
 1918SOL     OW 7716   4.093   3.222   2.978 -0.1260  0.5555 -0.0995
 1918SOL    HW2 7717   4.077   3.314   2.997 -2.5962  0.2015 -0.2972
 1918SOL    HW3 7718   4.083   3.216   2.883  1.9680  0.4221 -0.3317
 1918SOL    MW4 7719   4.089   3.233   2.968 -0.1755  0.4911 -0.1562
 1919SOL     OW 7720   4.047   3.471   3.082  0.2231  0.2070 -0.3920
 1919SOL    HW2 7721   4.056   3.474   3.177  0.9781  2.8973 -0.5112
 1919SOL    HW3 7722   3.962   3.512   3.065 -0.8760 -2.1339 -0.7951
 1919SOL    MW4 7723   4.037   3.477   3.092  0.1779  0.2530 -0.4611
 1920SOL     OW 7724   4.274   3.586   2.971  0.2777 -0.8320 -0.1694
 1920SOL    HW2 7725   4.265   3.673   3.011 -0.8280 -0.9596 -0.1243
 1920SOL    HW3 7726   4.196   3.538   3.000  1.0372 -1.9462  0.0701
 1920SOL    MW4 7727   4.262   3.591   2.980  0.2317 -0.9959 -0.1321
 1921SOL     OW 7728   4.254   3.835   3.062  0.4150  0.2948 -0.2796
 1921SOL    HW2 7729   4.179   3.884   3.029  0.3717  0.0971 -0.4811
 1921SOL    HW3 7730   4.325   3.899   3.067 -0.0468  0.7271  0.9263
 1921SOL    MW4 7731   4.253   3.850   3.058  0.3481  0.3257 -0.1473
 1922SOL     OW 7732   4.064   3.999   2.950  0.3470  0.1808 -0.5427
 1922SOL    HW2 7733   4.065   4.089   2.983  0.5739 -0.1153  0.2759
 1922SOL    HW3 7734   3.979   3.965   2.975  0.5533 -0.0734 -0.1765
 1922SOL    MW4 7735   4.053   4.006   2.958  0.4039  0.1087 -0.3865
 1923SOL     OW 7736   4.016   4.246   3.092  0.0535 -0.3293 -0.1287
 1923SOL    HW2 7737   4.020   4.237   3.187  1.1535  0.3215 -0.1049
 1923SOL    HW3 7738   4.089   4.303   3.070  0.2505 -1.0679 -1.4532
 1923SOL    MW4 7739   4.026   4.252   3.102  0.2241 -0.3405 -0.3004
 1924SOL     OW 7740   4.263   4.372   3.020  0.4535  0.1756  0.6454
 1924SOL    HW2 7741   4.346   4.331   3.044  1.5361  1.8823 -0.0600
 1924SOL    HW3 7742   4.260   4.366   2.925 -0.3951 -0.1754  0.6926
 1924SOL    MW4 7743   4.274   4.366   3.011  0.4835  0.3543  0.5586
 1925SOL     OW 7744   0.223   4.616   3.350 -0.0703  0.1559 -0.0825
 1925SOL    HW2 7745   0.302   4.663   3.376 -0.0379  0.4397 -0.7024
 1925SOL    HW3 7746   0.227   4.534   3.399  1.4825 -0.5702 -1.3963
 1925SOL    MW4 7747   0.234   4.611   3.360  0.1388  0.0978 -0.3376
 1926SOL     OW 7748   4.485   0.104   3.397  0.2772 -0.1177  0.5340
 1926SOL    HW2 7749   4.510   0.196   3.388 -1.1731  0.3038  0.7888
 1926SOL    HW3 7750   4.566   0.056   3.379  1.0166  1.1964  0.2779
 1926SOL    MW4 7751   4.499   0.110   3.393  0.1841  0.1113  0.5338
 1927SOL     OW 7752   0.002   0.377   3.407  0.3838  0.1339  0.1430
 1927SOL    HW2 7753  -0.079   0.405   3.450  0.0740  0.6833 -0.7768
 1927SOL    HW3 7754   0.069   0.436   3.442  0.3429 -0.1665  0.7276
 1927SOL    MW4 7755   0.000   0.389   3.417  0.3376  0.1668  0.0989
 1928SOL     OW 7756   0.230   0.519   3.474 -0.0154 -0.4443  0.0928
 1928SOL    HW2 7757   0.295   0.476   3.418  0.2943 -0.0175  0.1204
 1928SOL    HW3 7758   0.230   0.610   3.445  0.6617 -0.0595  1.2474
 1928SOL    MW4 7759   0.239   0.525   3.463  0.1148 -0.3372  0.2489
 1929SOL     OW 7760   0.214   0.785   3.338  0.2941 -0.1754  0.0045
 1929SOL    HW2 7761   0.288   0.829   3.381  0.1641  0.4448 -0.4147
 1929SOL    HW3 7762   0.136   0.830   3.371  0.0097 -1.5934  1.3651
 1929SOL    MW4 7763   0.214   0.796   3.348  0.2394 -0.2806  0.1287
 1930SOL     OW 7764   4.466   0.896   3.453  0.3174 -0.2034 -0.4916
 1930SOL    HW2 7765   4.500   0.898   3.542 -1.4461 -0.9475  0.2181
 1930SOL    HW3 7766   4.444   0.987   3.434 -1.0537 -0.2866  0.5611
 1930SOL    MW4 7767   4.467   0.908   3.462 -0.0954 -0.3126 -0.2592
 1931SOL     OW 7768   4.485   1.166   3.400  0.5835  0.1200  0.6036
 1931SOL    HW2 7769   4.550   1.226   3.434 -0.7003  2.1434 -0.4401
 1931SOL    HW3 7770   4.511   1.152   3.309  1.4800 -1.7892  1.1160
 1931SOL    MW4 7771   4.497   1.172   3.392  0.5326  0.1352  0.5338
 1932SOL     OW 7772   0.217   1.331   3.496 -0.0112  0.0432  0.3310
 1932SOL    HW2 7773   0.300   1.291   3.471  0.7937  1.5508  0.5638
 1932SOL    HW3 7774   0.220   1.419   3.458 -0.6951  0.7594  1.9098
 1932SOL    MW4 7775   0.228   1.337   3.488  0.0048  0.3365  0.5701
 1933SOL     OW 7776   0.233   1.571   3.386  0.2172  0.4231 -0.8389
 1933SOL    HW2 7777   0.316   1.610   3.412  0.2299 -0.4732  0.5014
 1933SOL    HW3 7778   0.238   1.565   3.291  1.2618  1.3109 -0.8441
 1933SOL    MW4 7779   0.244   1.575   3.377  0.3567  0.4220 -0.6628
 1934SOL     OW 7780   4.490   1.668   3.475 -0.2093  0.5631 -0.1051
 1934SOL    HW2 7781   4.438   1.604   3.426  0.6747 -0.9351  0.8575
 1934SOL    HW3 7782   4.581   1.646   3.455  0.1148  2.7674 -1.2776
 1934SOL    MW4 7783   4.495   1.657   3.466 -0.0501  0.6562 -0.1328
 1935SOL     OW 7784   4.483   1.921   3.364  0.0157 -0.1739  0.1258
 1935SOL    HW2 7785   4.479   1.833   3.404  1.2985 -1.2793 -2.0863
 1935SOL    HW3 7786   4.480   1.905   3.270 -1.0910  2.2851 -0.3032
 1935SOL    MW4 7787   4.482   1.907   3.357  0.0389  0.0046 -0.2227
 1936SOL     OW 7788   0.205   2.086   3.477 -0.2116 -0.1024 -0.2313
 1936SOL    HW2 7789   0.170   2.100   3.565 -1.4453  3.0588 -1.1584
 1936SOL    HW3 7790   0.139   2.032   3.433 -0.0425 -0.9034  0.4899
 1936SOL    MW4 7791   0.192   2.080   3.483 -0.3521  0.2091 -0.2584
 1937SOL     OW 7792   0.223   2.350   3.395  0.0990 -0.0217  0.7159
 1937SOL    HW2 7793   0.134   2.383   3.408  0.2358  0.4245  0.5316
 1937SOL    HW3 7794   0.218   2.257   3.417 -0.0894  0.3091  2.0768
 1937SOL    MW4 7795   0.211   2.342   3.399  0.0922  0.0806  0.8709
 1938SOL     OW 7796   4.488   2.486   3.492 -0.2902 -0.4354 -0.0720
 1938SOL    HW2 7797   4.491   2.497   3.587  2.1786  0.0876 -0.1841
 1938SOL    HW3 7798   4.403   2.444   3.476 -0.7035 -0.6152  2.3585
 1938SOL    MW4 7799   4.477   2.482   3.502 -0.0190 -0.3903  0.2339
 1939SOL     OW 7800   0.031   2.726   3.355 -0.0471 -0.3179 -0.3006
 1939SOL    HW2 7801   0.107   2.783   3.361 -0.2931  0.1216 -1.1640
 1939SOL    HW3 7802   0.039   2.666   3.429  0.5491  0.4332  0.2509
 1939SOL    MW4 7803   0.042   2.726   3.365 -0.0009 -0.1607 -0.3417
 1940SOL     OW 7804   0.248   2.857   3.449  0.4482  0.3539 -0.2880
 1940SOL    HW2 7805   0.325   2.831   3.399 -0.2877  2.2303 -2.5007
 1940SOL    HW3 7806   0.250   2.953   3.448 -0.5405  0.4344  1.8468
 1940SOL    MW4 7807   0.258   2.866   3.443  0.2207  0.6123 -0.2985
 1941SOL     OW 7808   0.271   3.139   3.399  0.0912  0.0017  0.3098
 1941SOL    HW2 7809   0.188   3.177   3.428 -0.4866 -0.2254 -0.9956
 1941SOL    HW3 7810   0.254   3.112   3.308  1.1946 -1.2502  0.4710
 1941SOL    MW4 7811   0.258   3.141   3.391  0.1605 -0.1934  0.1590
 1942SOL     OW 7812   0.035   3.255   3.525  0.1456 -0.2922  0.1773
 1942SOL    HW2 7813  -0.045   3.210   3.497 -0.5773 -0.1369  1.9905
 1942SOL    HW3 7814   0.021   3.346   3.501 -0.9469  0.0439  2.0295
 1942SOL    MW4 7815   0.023   3.261   3.518 -0.0939 -0.2275  0.6611
 1943SOL     OW 7816   4.489   3.501   3.414  0.4443  0.4118 -0.1871
 1943SOL    HW2 7817   4.416   3.550   3.453 -0.2399 -1.0558  0.4559
 1943SOL    HW3 7818   4.463   3.487   3.323 -0.0048  0.0508 -0.0061
 1943SOL    MW4 7819   4.476   3.505   3.408  0.2947  0.1707 -0.0784
 1944SOL     OW 7820   0.244   3.615   3.470  0.5165 -0.0640 -0.0164
 1944SOL    HW2 7821   0.254   3.604   3.565 -1.1052  0.0629  0.1819
 1944SOL    HW3 7822   0.167   3.563   3.448 -0.8715  2.2799 -0.7967
 1944SOL    MW4 7823   0.236   3.607   3.480  0.1194  0.2620 -0.0927
 1945SOL     OW 7824   0.218   3.891   3.395 -0.2770 -0.2008 -0.0043
 1945SOL    HW2 7825   0.135   3.936   3.409 -0.4291  0.1398 -1.9330
 1945SOL    HW3 7826   0.200   3.800   3.420 -0.8855  0.1128  0.7200
 1945SOL    MW4 7827   0.204   3.885   3.400 -0.3773 -0.1147 -0.1631
 1946SOL     OW 7828   4.481   4.029   3.405 -0.1395  0.0660  0.4400
 1946SOL    HW2 7829   4.474   4.024   3.500  0.3694 -0.6659  0.4421
 1946SOL    HW3 7830   4.505   4.120   3.387 -0.2562  0.2080  1.0104
 1946SOL    MW4 7831   4.483   4.040   3.415 -0.0882 -0.0119  0.5157
 1947SOL     OW 7832   0.012   4.290   3.360 -0.2050  0.0678  0.2486
 1947SOL    HW2 7833  -0.072   4.335   3.371  0.1442  0.4783  1.2578
 1947SOL    HW3 7834   0.066   4.320   3.433  0.3812 -1.2107  0.3617
 1947SOL    MW4 7835   0.008   4.300   3.371 -0.0816 -0.0467  0.3967
 1948SOL     OW 7836   0.203   4.406   3.531  0.0987  0.1330  0.0077
 1948SOL    HW2 7837   0.199   4.396   3.626  0.6848  0.9525  0.1280
 1948SOL    HW3 7838   0.288   4.368   3.507 -0.4176 -0.8389 -0.2964
 1948SOL    MW4 7839   0.214   4.400   3.541  0.1079  0.1130 -0.0165
 1949SOL     OW 7840   0.704   0.001   3.363 -0.0879 -0.6627  0.0935
 1949SOL    HW2 7841   0.776   0.054   3.395 -1.7547  1.4038  0.5674
 1949SOL    HW3 7842   0.717  -0.002   3.268  0.8195 -0.6275  0.2150
 1949SOL    MW4 7843   0.715   0.007   3.354 -0.1881 -0.3854  0.1719
 1950SOL     OW 7844   0.447   0.115   3.451  0.3327  0.2626 -0.5279
 1950SOL    HW2 7845   0.432   0.104   3.545 -0.3963  1.0767 -0.5403
 1950SOL    HW3 7846   0.540   0.097   3.438  1.0704  2.9136  0.7815
 1950SOL    MW4 7847   0.457   0.111   3.461  0.3339  0.7198 -0.3567
 1951SOL     OW 7848   0.433   0.375   3.370  0.4460  0.0784  0.4082
 1951SOL    HW2 7849   0.507   0.431   3.395  1.6890 -0.5296 -1.7128
 1951SOL    HW3 7850   0.446   0.294   3.420  0.5006  0.4559  1.0046
 1951SOL    MW4 7851   0.445   0.372   3.380  0.6172  0.0480  0.2074
 1952SOL     OW 7852   0.651   0.510   3.468  0.1502  0.1245 -0.1151
 1952SOL    HW2 7853   0.644   0.474   3.557  1.6004 -0.4510 -0.2132
 1952SOL    HW3 7854   0.725   0.462   3.429  1.2605  2.2783 -0.7082
 1952SOL    MW4 7855   0.660   0.499   3.475  0.4880  0.3328 -0.2060
 1953SOL     OW 7856   0.662   0.784   3.386  0.2682  0.1324 -0.4041
 1953SOL    HW2 7857   0.587   0.833   3.419 -0.3344  0.2688 -1.9601
 1953SOL    HW3 7858   0.649   0.695   3.419 -0.2382  0.3112 -0.1190
 1953SOL    MW4 7859   0.651   0.779   3.395  0.1219  0.1740 -0.5717
 1954SOL     OW 7860   0.434   0.902   3.479 -0.5315 -0.3613 -0.3427
 1954SOL    HW2 7861   0.423   0.904   3.574  0.6589 -0.0107 -0.2053
 1954SOL    HW3 7862   0.428   0.994   3.453 -0.0692 -0.3805 -0.5154
 1954SOL    MW4 7863   0.431   0.915   3.488 -0.3135 -0.3176 -0.3476
 1955SOL     OW 7864   0.433   1.165   3.392 -0.3029 -0.2779  0.0390
 1955SOL    HW2 7865   0.517   1.198   3.423 -0.0417 -1.0217  0.1114
 1955SOL    HW3 7866   0.442   1.161   3.296  0.1886 -1.5690  0.1296
 1955SOL    MW4 7867   0.445   1.169   3.383 -0.2035 -0.5463  0.0606
 1956SOL     OW 7868   0.661   1.288   3.493 -0.6490 -0.4295 -0.0582
 1956SOL    HW2 7869   0.740   1.254   3.450 -0.1943  0.4381  0.0738
 1956SOL    HW3 7870   0.650   1.376   3.456 -0.5304  0.1421  1.2348
 1956SOL    MW4 7871   0.670   1.295   3.482 -0.5734 -0.2397  0.1299
 1957SOL     OW 7872   0.671   1.532   3.358  0.3812  0.2024  0.4527
 1957SOL    HW2 7873   0.753   1.575   3.382  0.5775 -0.6738  1.4006
 1957SOL    HW3 7874   0.603   1.583   3.402  0.4630  0.6356  0.0732
 1957SOL    MW4 7875   0.673   1.544   3.367  0.4179  0.1440  0.5276
 1958SOL     OW 7876   0.465   1.694   3.488  0.0307  0.1668 -0.2754
 1958SOL    HW2 7877   0.484   1.683   3.581  1.7387  0.3717 -0.5925
 1958SOL    HW3 7878   0.474   1.788   3.472  1.1155 -0.0417 -0.9393
 1958SOL    MW4 7879   0.469   1.705   3.498  0.3991  0.1663 -0.4051
 1959SOL     OW 7880   0.439   1.965   3.423  0.1126  0.2071 -0.3509
 1959SOL    HW2 7881   0.356   2.006   3.447 -0.1560 -1.2252  1.2651
 1959SOL    HW3 7882   0.441   1.968   3.327  0.0151  3.7489 -0.3350
 1959SOL    MW4 7883   0.429   1.971   3.414  0.0643  0.4853 -0.1359
 1960SOL     OW 7884   0.658   2.109   3.466  0.1078  0.1146 -0.0754
 1960SOL    HW2 7885   0.669   2.097   3.560  0.5156  0.7268 -0.0441
 1960SOL    HW3 7886   0.569   2.078   3.449  0.4578 -1.1370  0.3077
 1960SOL    MW4 7887   0.647   2.104   3.476  0.2078  0.0303 -0.0207
 1961SOL     OW 7888   0.634   2.362   3.343  0.0832  0.0046  0.6302
 1961SOL    HW2 7889   0.704   2.416   3.380  0.0491  0.3167  0.2322
 1961SOL    HW3 7890   0.646   2.276   3.385  0.7138  0.0505  0.5465
 1961SOL    MW4 7891   0.645   2.357   3.354  0.1618  0.0515  0.5667
 1962SOL     OW 7892   0.436   2.521   3.447  0.3268  0.1508  0.2646
 1962SOL    HW2 7893   0.502   2.466   3.405  0.3923  0.3120  0.1579
 1962SOL    HW3 7894   0.355   2.469   3.441  0.4013  0.0385  0.2208
 1962SOL    MW4 7895   0.434   2.507   3.441  0.3453  0.1574  0.2446
 1963SOL     OW 7896   0.485   2.757   3.346  0.2105 -0.4141  0.3054
 1963SOL    HW2 7897   0.482   2.667   3.378  2.5394 -0.4017  0.6567
 1963SOL    HW3 7898   0.486   2.749   3.251 -0.6544 -0.7080  0.3187
 1963SOL    MW4 7899   0.485   2.744   3.338  0.4037 -0.4516  0.3533
 1964SOL     OW 7900   0.711   2.851   3.502  0.8232 -0.3996  0.1416
 1964SOL    HW2 7901   0.781   2.809   3.451  1.8066  0.8557  0.4471
 1964SOL    HW3 7902   0.630   2.822   3.459  1.6252  0.5933 -2.1158
 1964SOL    MW4 7903   0.709   2.841   3.489  1.0587 -0.1030 -0.1159
 1965SOL     OW 7904   0.733   3.133   3.427 -0.0872 -0.2496 -0.1260
 1965SOL    HW2 7905   0.651   3.174   3.456 -0.4419 -0.9997 -0.0377
 1965SOL    HW3 7906   0.720   3.039   3.445  1.0051 -0.3131  0.3966
 1965SOL    MW4 7907   0.720   3.126   3.434  0.0101 -0.3569 -0.0455
 1966SOL     OW 7908   0.513   3.280   3.512 -0.1619 -0.0994 -0.0067
 1966SOL    HW2 7909   0.510   3.260   3.606  0.0139  0.1600  0.0548
 1966SOL    HW3 7910   0.443   3.228   3.475 -0.5395  0.1548  0.3400
 1966SOL    MW4 7911   0.504   3.271   3.520 -0.1885 -0.0317  0.0472
 1967SOL     OW 7912   0.484   3.529   3.374  0.2328  0.4499  0.0881
 1967SOL    HW2 7913   0.492   3.446   3.421 -0.1266  0.0578 -0.5338
 1967SOL    HW3 7914   0.410   3.573   3.417 -1.3418 -0.7564 -1.3593
 1967SOL    MW4 7915   0.475   3.524   3.386 -0.0224  0.2389 -0.1848
 1968SOL     OW 7916   0.684   3.658   3.490 -0.2639 -0.0183 -0.6237
 1968SOL    HW2 7917   0.765   3.627   3.450  0.2116  1.9714 -1.2828
 1968SOL    HW3 7918   0.615   3.606   3.449  0.5719 -0.7755 -1.0807
 1968SOL    MW4 7919   0.685   3.647   3.479 -0.0908  0.1442 -0.7710
 1969SOL     OW 7920   0.665   3.895   3.354 -0.0496 -0.2982  0.0073
 1969SOL    HW2 7921   0.595   3.952   3.385  1.8778  1.4336  1.3535
 1969SOL    HW3 7922   0.661   3.819   3.412  0.1475  0.5081  1.1106
 1969SOL    MW4 7923   0.656   3.893   3.366  0.2307  0.0367  0.3302
 1970SOL     OW 7924   0.462   4.020   3.468  0.2647  0.0434 -0.2665
 1970SOL    HW2 7925   0.448   4.113   3.448 -1.2236  0.1373  1.0637
 1970SOL    HW3 7926   0.381   3.977   3.437 -0.0674 -0.4584  1.2723
 1970SOL    MW4 7927   0.449   4.026   3.461  0.0245 -0.0105  0.1123
 1971SOL     OW 7928   0.423   4.294   3.401 -0.0853  0.1992  0.6202
 1971SOL    HW2 7929   0.505   4.335   3.429  0.2515 -0.5335  0.7245
 1971SOL    HW3 7930   0.435   4.278   3.307  0.2432 -0.6898  0.8022
 1971SOL    MW4 7931   0.435   4.297   3.393  0.0025 -0.0143  0.6580
 1972SOL     OW 7932   0.665   4.410   3.451  0.0635 -0.0953  0.0892
 1972SOL    HW2 7933   0.749   4.363   3.445 -1.1095 -2.2307 -0.1511
 1972SOL    HW3 7934   0.682   4.496   3.412  1.9791 -0.7237 -0.5057
 1972SOL    MW4 7935   0.678   4.415   3.445  0.1615 -0.4601 -0.0212
 1973SOL     OW 7936   1.133   4.655   3.401 -0.0810  0.3254  0.3550
 1973SOL    HW2 7937   1.217   4.698   3.416  0.4196 -0.5409  0.0283
 1973SOL    HW3 7938   1.130   4.641   3.307 -0.3771 -0.0968  0.4285
 1973SOL    MW4 7939   1.144   4.659   3.391 -0.0541  0.1559  0.3216
 1974SOL     OW 7940   0.914   0.140   3.466  0.0816 -0.0934 -0.2957
 1974SOL    HW2 7941   0.931   0.134   3.560  1.7587 -0.3179 -0.6028
 1974SOL    HW3 7942   0.984   0.089   3.426  0.3267  1.3548 -1.7485
 1974SOL    MW4 7943   0.926   0.132   3.473  0.3352  0.0681 -0.5279
 1975SOL     OW 7944   0.876   0.381   3.347 -0.1075  0.0273  0.3055
 1975SOL    HW2 7945   0.960   0.411   3.382 -0.0786 -0.4419  0.6355
 1975SOL    HW3 7946   0.870   0.290   3.375 -0.1448 -0.3133 -0.7725
 1975SOL    MW4 7947   0.887   0.373   3.355 -0.1087 -0.0796  0.2065
 1976SOL     OW 7948   1.124   0.492   3.492 -0.0674 -0.0959 -0.7758
 1976SOL    HW2 7949   1.139   0.493   3.586 -0.2452 -0.1346 -0.7474
 1976SOL    HW3 7950   1.132   0.584   3.466  1.3522 -0.2461 -0.9427
 1976SOL    MW4 7951   1.127   0.505   3.501  0.0964 -0.1209 -0.7937
 1977SOL     OW 7952   1.123   0.764   3.434 -0.2968  0.6571 -0.0974
 1977SOL    HW2 7953   1.199   0.808   3.471 -0.8286 -2.2302  4.9605
 1977SOL    HW3 7954   1.050   0.824   3.449  0.1286  1.1483 -0.0136
 1977SOL    MW4 7955   1.123   0.777   3.441 -0.3110  0.3409  0.5810
 1978SOL     OW 7956   0.884   0.921   3.479  0.2888  0.0076 -0.0837
 1978SOL    HW2 7957   0.887   1.002   3.429 -1.3595  0.9356  1.2744
 1978SOL    HW3 7958   0.816   0.869   3.436  0.8853 -0.3905 -0.5523
 1978SOL    MW4 7959   0.876   0.925   3.467  0.1501  0.0775  0.0339
 1979SOL     OW 7960   0.885   1.179   3.361 -0.5642  0.1663 -0.1475
 1979SOL    HW2 7961   0.967   1.224   3.379 -0.9638  0.8270  0.0186
 1979SOL    HW3 7962   0.891   1.153   3.269 -0.1199  0.1105 -0.1003
 1979SOL    MW4 7963   0.896   1.181   3.352 -0.5583  0.2463 -0.1192
 1980SOL     OW 7964   1.127   1.288   3.450 -0.2949  0.3772 -0.1055
 1980SOL    HW2 7965   1.120   1.262   3.542 -0.3837 -0.8618 -0.4544
 1980SOL    HW3 7966   1.130   1.384   3.453  2.5328  0.3256  1.4153
 1980SOL    MW4 7967   1.127   1.297   3.463  0.0664  0.2068  0.0491
 1981SOL     OW 7968   1.135   1.561   3.325  0.2340 -0.3136  0.0272
 1981SOL    HW2 7969   1.209   1.612   3.357  0.7282 -0.6561 -0.5456
 1981SOL    HW3 7970   1.059   1.593   3.374  0.9457 -0.7282  1.4167
 1981SOL    MW4 7971   1.134   1.572   3.336  0.3930 -0.4134  0.1347
 1982SOL     OW 7972   0.890   1.670   3.449  0.0642 -0.0977 -0.3517
 1982SOL    HW2 7973   0.878   1.762   3.424  1.3303  0.1031 -0.2276
 1982SOL    HW3 7974   0.888   1.671   3.545  2.3509  0.1309 -0.2842
 1982SOL    MW4 7975   0.888   1.682   3.459  0.5329 -0.0411 -0.3264
 1983SOL     OW 7976   0.849   1.944   3.375  0.3054  0.8662 -0.1314
 1983SOL    HW2 7977   0.929   1.985   3.407  0.0838  1.2713 -0.0994
 1983SOL    HW3 7978   0.779   2.006   3.395 -0.0864  0.2945  0.2913
 1983SOL    MW4 7979   0.850   1.957   3.382  0.2244  0.8441 -0.0713
 1984SOL     OW 7980   1.080   2.070   3.424 -0.3758 -0.6129 -0.4748
 1984SOL    HW2 7981   1.159   2.026   3.394  0.3604  0.3990 -0.0354
 1984SOL    HW3 7982   1.096   2.163   3.408 -0.5547 -0.1829  1.6771
 1984SOL    MW4 7983   1.092   2.077   3.418 -0.3023 -0.4227 -0.1328
 1985SOL     OW 7984   1.108   2.323   3.345 -0.4530  0.0088  0.2203
 1985SOL    HW2 7985   1.181   2.367   3.389 -0.0971 -0.6756  0.3201
 1985SOL    HW3 7986   1.136   2.315   3.254 -0.3330 -0.3960  0.2910
 1985SOL    MW4 7987   1.121   2.328   3.339 -0.3902 -0.1352  0.2427
 1986SOL     OW 7988   0.882   2.458   3.431 -0.1217 -0.0587 -0.4055
 1986SOL    HW2 7989   0.901   2.461   3.525 -0.0617  1.6917 -0.4692
 1986SOL    HW3 7990   0.950   2.400   3.396  0.6563  0.3116  0.4446
 1986SOL    MW4 7991   0.894   2.451   3.439 -0.0111  0.2213 -0.3018
 1987SOL     OW 7992   0.931   2.733   3.378 -0.3660  0.0815  0.5278
 1987SOL    HW2 7993   1.002   2.762   3.435 -0.1013  1.4165 -0.4411
 1987SOL    HW3 7994   0.923   2.639   3.394  1.2531  0.0207  1.0332
 1987SOL    MW4 7995   0.939   2.725   3.388 -0.1174  0.2494  0.4671
 1988SOL     OW 7996   1.128   2.846   3.531  0.3460  0.3107 -0.3675
 1988SOL    HW2 7997   1.143   2.840   3.625  0.2722  2.4726 -0.2014
 1988SOL    HW3 7998   1.210   2.815   3.492 -0.2712 -2.3547  0.3527
 1988SOL    MW4 7999   1.141   2.841   3.538  0.2548  0.2444 -0.2506
 1989SOL     OW 8000   1.162   3.086   3.409 -0.5860  0.0040  0.0174
 1989SOL    HW2 8001   1.140   3.005   3.454 -1.9530  1.0840  1.3532
 1989SOL    HW3 8002   1.134   3.072   3.319 -1.5409 -0.7092  0.4237
 1989SOL    MW4 8003   1.156   3.073   3.403 -0.8924  0.0522  0.2472
 1990SOL     OW 8004   0.983   3.266   3.508 -0.1688 -0.5125 -0.1653
 1990SOL    HW2 8005   1.051   3.204   3.483 -1.1363 -1.1466 -1.3468
 1990SOL    HW3 8006   0.901   3.224   3.478 -1.1011  0.0656  1.5149
 1990SOL    MW4 8007   0.981   3.252   3.501 -0.4193 -0.5200 -0.0999
 1991SOL     OW 8008   0.901   3.526   3.389 -0.2560 -0.2498  0.1524
 1991SOL    HW2 8009   0.946   3.444   3.410  1.0818  0.4844  0.2500
 1991SOL    HW3 8010   0.905   3.532   3.294 -1.1247 -0.7085  0.0787
 1991SOL    MW4 8011   0.908   3.516   3.379 -0.1941 -0.2134  0.1557
 1992SOL     OW 8012   1.161   3.611   3.469 -0.3796 -0.3479 -0.1379
 1992SOL    HW2 8013   1.165   3.570   3.555  1.0225  0.3087  0.1281
 1992SOL    HW3 8014   1.071   3.598   3.440 -1.3872  1.0737  2.2307
 1992SOL    MW4 8015   1.150   3.604   3.476 -0.3276 -0.0737  0.2096
 1993SOL     OW 8016   1.132   3.866   3.364 -0.0895 -0.1238  0.5446
 1993SOL    HW2 8017   1.195   3.931   3.394  1.0466 -0.7616 -0.4637
 1993SOL    HW3 8018   1.164   3.783   3.399 -1.1361 -0.2632  1.2076
 1993SOL    MW4 8019   1.144   3.864   3.373 -0.0775 -0.2265  0.4990
 1994SOL     OW 8020   0.906   3.978   3.479  0.1283 -0.2255 -0.3729
 1994SOL    HW2 8021   0.981   3.937   3.435 -0.7043  0.7842 -2.8645
 1994SOL    HW3 8022   0.830   3.931   3.443 -0.4944 -0.4879  1.2787
 1994SOL    MW4 8023   0.906   3.966   3.468 -0.0637 -0.1268 -0.4838
 1995SOL     OW 8024   0.937   4.260   3.409 -0.2739 -0.0606 -0.0801
 1995SOL    HW2 8025   0.919   4.167   3.423  0.2118 -0.0634  0.5446
 1995SOL    HW3 8026   0.933   4.271   3.314 -1.1805 -0.5399 -0.0946
 1995SOL    MW4 8027   0.934   4.249   3.398 -0.3294 -0.1245  0.0000
 1996SOL     OW 8028   1.149   4.386   3.495  0.4531 -0.1711  0.2350
 1996SOL    HW2 8029   1.069   4.343   3.466 -1.0097  0.6495  2.8752
 1996SOL    HW3 8030   1.144   4.474   3.459  0.0158 -0.0169  0.6813
 1996SOL    MW4 8031   1.138   4.392   3.487  0.2023 -0.0424  0.6423
 1997SOL     OW 8032   1.598   4.661   3.389  0.2658  0.3035  0.4195
 1997SOL    HW2 8033   1.602   4.568   3.411 -0.8031 -0.3059 -1.7503
 1997SOL    HW3 8034   1.513   4.691   3.423 -0.0613  0.1028 -0.2136
 1997SOL    MW4 8035   1.587   4.653   3.396  0.0815  0.1965  0.0501
 1998SOL     OW 8036   1.374   0.076   3.479  0.1765  0.1735 -0.1307
 1998SOL    HW2 8037   1.362   0.083   3.573  1.3788  1.4606 -0.0478
 1998SOL    HW3 8038   1.366   0.166   3.447 -2.3622 -0.5093 -1.5367
 1998SOL    MW4 8039   1.372   0.089   3.487  0.0002  0.2532 -0.3052
 1999SOL     OW 8040   1.330   0.320   3.380 -0.4120  0.4166  0.5635
 1999SOL    HW2 8041   1.405   0.378   3.398 -1.4796  2.1863 -0.6030
 1999SOL    HW3 8042   1.253   0.371   3.405 -1.4615  0.0796 -1.8792
 1999SOL    MW4 8043   1.330   0.334   3.386 -0.6914  0.6056  0.0875
 2000SOL     OW 8044   1.554   0.485   3.491  0.3211  0.0662  0.0098
 2000SOL    HW2 8045   1.541   0.502   3.584 -0.2352  1.1070 -0.2561
 2000SOL    HW3 8046   1.629   0.425   3.488  0.2419 -0.0976  1.1317
 2000SOL    MW4 8047   1.563   0.479   3.503  0.2372  0.1819  0.1228
 2001SOL     OW 8048   1.538   0.746   3.379 -0.2343  0.3794 -0.4145
 2001SOL    HW2 8049   1.459   0.786   3.414  0.2172  0.5895  0.3770
 2001SOL    HW3 8050   1.543   0.661   3.422  0.3925  0.6900  0.1329
 2001SOL    MW4 8051   1.528   0.740   3.389 -0.0920  0.4481 -0.2377
 2002SOL     OW 8052   1.354   0.914   3.489 -0.3856 -0.1265  0.3817
 2002SOL    HW2 8053   1.355   0.961   3.572  0.7446  0.5584 -0.0060
 2002SOL    HW3 8054   1.341   0.982   3.423 -0.2204 -0.5334 -0.0757
 2002SOL    MW4 8055   1.353   0.929   3.491 -0.2146 -0.0899  0.2699
 2003SOL     OW 8056   1.339   1.143   3.339  0.9456  0.2075 -0.2235
 2003SOL    HW2 8057   1.410   1.190   3.383 -0.2506  2.5119 -0.6557
 2003SOL    HW3 8058   1.259   1.188   3.370 -0.1705 -0.9729 -1.3622
 2003SOL    MW4 8059   1.338   1.155   3.349  0.6404  0.3557 -0.4306
 2004SOL     OW 8060   1.570   1.261   3.430 -1.1800  0.1931 -0.3010
 2004SOL    HW2 8061   1.559   1.353   3.407 -1.1602  0.1090 -0.6490
 2004SOL    HW3 8062   1.572   1.260   3.525  1.2074  0.8393 -0.3130
 2004SOL    MW4 8063   1.569   1.273   3.439 -0.8624  0.2673 -0.3486
 2005SOL     OW 8064   1.534   1.527   3.356 -0.4211 -0.0368 -0.0677
 2005SOL    HW2 8065   1.598   1.591   3.384  0.6734 -0.5923 -1.2250
 2005SOL    HW3 8066   1.552   1.515   3.262 -1.2467 -1.2860 -0.0758
 2005SOL    MW4 8067   1.545   1.534   3.347 -0.3856 -0.2750 -0.2215
 2006SOL     OW 8068   1.333   1.690   3.440  0.2761 -0.3617  0.0401
 2006SOL    HW2 8069   1.403   1.637   3.401  2.0004  1.9397 -0.0945
 2006SOL    HW3 8070   1.344   1.678   3.534  0.9818  0.1204  0.0252
 2006SOL    MW4 8071   1.344   1.681   3.447  0.5968  0.0056  0.0205
 2007SOL     OW 8072   1.334   1.957   3.360 -0.4103 -0.2768  0.1666
 2007SOL    HW2 8073   1.414   1.993   3.400  0.9698 -3.3361  0.2586
 2007SOL    HW3 8074   1.338   1.863   3.378 -3.1732 -0.7318 -1.3633
 2007SOL    MW4 8075   1.345   1.950   3.368 -0.5928 -0.7405 -0.0231
 2008SOL     OW 8076   1.576   2.066   3.442  0.2518  0.5684 -0.0042
 2008SOL    HW2 8077   1.655   2.016   3.423 -0.4992 -0.5741 -0.1357
 2008SOL    HW3 8078   1.586   2.147   3.391  0.6695 -0.1980 -1.1482
 2008SOL    MW4 8079   1.588   2.070   3.433  0.2079  0.3166 -0.1726
 2009SOL     OW 8080   1.570   2.331   3.353  0.1482  0.2796 -0.0663
 2009SOL    HW2 8081   1.484   2.367   3.377  0.0213 -0.7973  1.1766
 2009SOL    HW3 8082   1.580   2.352   3.261 -1.3163  0.7150 -0.1417
 2009SOL    MW4 8083   1.560   2.338   3.344 -0.0618  0.1950  0.0877
 2010SOL     OW 8084   1.319   2.462   3.446  0.0563  0.2721 -0.1211
 2010SOL    HW2 8085   1.341   2.445   3.537 -1.6545 -0.4521  0.1931
 2010SOL    HW3 8086   1.329   2.556   3.435 -0.6020  0.4900  1.0764
 2010SOL    MW4 8087   1.323   2.472   3.456 -0.2564  0.2053  0.0784
 2011SOL     OW 8088   1.354   2.739   3.387 -0.4425  0.0148  0.0471
 2011SOL    HW2 8089   1.435   2.779   3.419  0.9899 -1.9271 -1.0228
 2011SOL    HW3 8090   1.361   2.743   3.292 -1.5896 -0.2299 -0.0567
 2011SOL    MW4 8091   1.366   2.745   3.379 -0.4047 -0.2735 -0.1078
 2012SOL     OW 8092   1.598   2.824   3.492 -0.1548  0.1997 -0.1669
 2012SOL    HW2 8093   1.670   2.784   3.445 -1.1622  0.3635 -1.8982
 2012SOL    HW3 8094   1.606   2.918   3.474 -0.1398  0.3517  0.5865
 2012SOL    MW4 8095   1.608   2.831   3.484 -0.2857  0.2415 -0.2959
 2013SOL     OW 8096   1.598   3.094   3.364  0.2980 -0.0736  0.5251
 2013SOL    HW2 8097   1.669   3.147   3.401 -0.1518  0.2297  0.9691
 2013SOL    HW3 8098   1.519   3.146   3.380 -0.4018 -1.7068  2.6351
 2013SOL    MW4 8099   1.597   3.108   3.371  0.1464 -0.2491  0.8621
 2014SOL     OW 8100   1.384   3.252   3.472  0.2265 -0.4755  0.1939
 2014SOL    HW2 8101   1.395   3.224   3.563 -0.7802  0.7305  0.7006
 2014SOL    HW3 8102   1.311   3.199   3.439  0.3316 -0.6309  0.2109
 2014SOL    MW4 8103   1.376   3.242   3.480  0.1074 -0.3369  0.2627
 2015SOL     OW 8104   1.383   3.502   3.346  0.0813 -0.0398  0.9983
 2015SOL    HW2 8105   1.370   3.411   3.373 -2.2913 -0.4497 -1.3295
 2015SOL    HW3 8106   1.305   3.547   3.380  1.1014  1.0995  1.8806
 2015SOL    MW4 8107   1.371   3.496   3.354 -0.0970  0.0563  0.8078
 2016SOL     OW 8108   1.581   3.630   3.485 -0.2704  0.0136  0.3908
 2016SOL    HW2 8109   1.569   3.636   3.580 -1.0201  0.8651  0.2502
 2016SOL    HW3 8110   1.506   3.580   3.454 -0.5146  0.5335  0.1422
 2016SOL    MW4 8111   1.570   3.624   3.494 -0.4015  0.1948  0.3393
 2017SOL     OW 8112   1.565   3.887   3.383  0.3357 -0.1405  0.2099
 2017SOL    HW2 8113   1.537   3.802   3.416 -0.1258  0.1119  0.4795
 2017SOL    HW3 8114   1.493   3.946   3.406  0.8575  0.4125  0.4473
 2017SOL    MW4 8115   1.551   3.884   3.391  0.3437 -0.0343  0.2770
 2018SOL     OW 8116   1.322   4.032   3.474 -0.1601 -0.0304  0.1861
 2018SOL    HW2 8117   1.349   4.001   3.561  0.8878 -0.3609 -0.2564
 2018SOL    HW3 8118   1.364   4.117   3.464  1.1839 -0.7916 -0.7283
 2018SOL    MW4 8119   1.331   4.039   3.485  0.1554 -0.1745  0.0072
 2019SOL     OW 8120   1.382   4.287   3.372  0.1323 -0.2875 -0.1409
 2019SOL    HW2 8121   1.301   4.322   3.409  1.3011  1.1550  1.1259
 2019SOL    HW3 8122   1.376   4.307   3.278 -1.3710 -1.0021 -0.2129
 2019SOL    MW4 8123   1.371   4.294   3.365  0.0881 -0.1917  0.0169
 2020SOL     OW 8124   1.606   4.399   3.511 -0.2310  0.1624  0.2655
 2020SOL    HW2 8125   1.674   4.353   3.462 -0.6499 -1.0532  0.7945
 2020SOL    HW3 8126   1.524   4.361   3.478 -0.6299  1.3047 -0.0604
 2020SOL    MW4 8127   1.604   4.388   3.500 -0.3389  0.1526  0.2925
 2021SOL     OW 8128   2.031   4.615   3.344  0.1338  0.0548  0.0858
 2021SOL    HW2 8129   2.109   4.666   3.365  0.4227 -0.8394  1.2574
 2021SOL    HW3 8130   1.961   4.658   3.394  0.1439  0.0150  0.1337
 2021SOL    MW4 8131   2.032   4.628   3.353  0.1733 -0.0691  0.2465
 2022SOL     OW 8132   1.841   0.086   3.504  0.0329 -0.3925  0.2207
 2022SOL    HW2 8133   1.838   0.079   3.600 -1.0712  1.3411  0.3357
 2022SOL    HW3 8134   1.759   0.048   3.475 -0.0117 -0.1267  0.0063
 2022SOL    MW4 8135   1.830   0.080   3.513 -0.1186 -0.1287  0.2077
 2023SOL     OW 8136   1.793   0.360   3.412  0.2417  0.1273 -0.6918
 2023SOL    HW2 8137   1.816   0.272   3.442 -1.2494 -0.2249 -0.5565
 2023SOL    HW3 8138   1.771   0.349   3.320 -2.3500 -0.1227 -0.1000
 2023SOL    MW4 8139   1.793   0.347   3.404 -0.2968  0.0478 -0.5960
 2024SOL     OW 8140   2.017   0.501   3.501  0.6564 -0.0561  0.1693
 2024SOL    HW2 8141   2.019   0.589   3.466 -0.6983  0.1317  0.5334
 2024SOL    HW3 8142   1.934   0.464   3.470  0.5091 -0.6692  1.2436
 2024SOL    MW4 8143   2.006   0.508   3.493  0.4582 -0.1122  0.3593
 2025SOL     OW 8144   2.013   0.765   3.419  0.3228  0.1160 -0.0762
 2025SOL    HW2 8145   1.936   0.806   3.458  1.1448  0.9953  0.6512
 2025SOL    HW3 8146   2.000   0.774   3.325 -1.0911 -0.9208  0.0119
 2025SOL    MW4 8147   2.001   0.772   3.412  0.2451  0.0952  0.0315
 2026SOL     OW 8148   1.771   0.867   3.509 -0.2912 -0.1233  0.0850
 2026SOL    HW2 8149   1.682   0.842   3.484 -0.9799  0.0093  2.2794
 2026SOL    HW3 8150   1.787   0.948   3.460 -0.9177 -0.7785 -1.2307
 2026SOL    MW4 8151   1.761   0.875   3.499 -0.4648 -0.1922  0.2012
 2027SOL     OW 8152   1.783   1.098   3.369  0.6009  0.8286 -0.2831
 2027SOL    HW2 8153   1.859   1.149   3.400  0.6425 -0.3555  1.6812
 2027SOL    HW3 8154   1.708   1.154   3.388  0.9943  2.2947 -2.8533
 2027SOL    MW4 8155   1.783   1.112   3.376  0.6584  0.8658 -0.3633
 2028SOL     OW 8156   2.250   1.645   3.712 -0.1017 -0.5227 -0.2782
 2028SOL    HW2 8157   2.254   1.732   3.752 -0.2009  0.4306 -2.3089
 2028SOL    HW3 8158   2.178   1.601   3.757 -0.7724  0.8301 -0.0136
 2028SOL    MW4 8159   2.241   1.651   3.723 -0.2034 -0.2185 -0.5112
 2029SOL     OW 8160   2.017   1.517   3.362  0.1817 -0.7462 -0.3272
 2029SOL    HW2 8161   2.097   1.554   3.399 -0.6758  1.3740 -0.5436
 2029SOL    HW3 8162   2.011   1.430   3.402  1.5231 -0.1625  1.2325
 2029SOL    MW4 8163   2.027   1.511   3.372  0.2458 -0.3893 -0.1500
 2030SOL     OW 8164   1.776   1.656   3.458 -0.3160  0.4577  0.6563
 2030SOL    HW2 8165   1.775   1.746   3.426 -1.5402 -0.9629 -3.6827
 2030SOL    HW3 8166   1.861   1.622   3.432 -0.9483 -0.4342 -0.2953
 2030SOL    MW4 8167   1.787   1.663   3.451 -0.5609  0.1527 -0.0417
 2031SOL     OW 8168   1.787   1.920   3.378 -0.0069 -0.0074  0.6685
 2031SOL    HW2 8169   1.864   1.972   3.399 -0.0525  0.9538 -1.3552
 2031SOL    HW3 8170   1.784   1.920   3.282 -2.0139 -0.7656  0.7068
 2031SOL    MW4 8171   1.796   1.927   3.368 -0.2776  0.0193  0.4067
 2032SOL     OW 8172   2.009   2.069   3.473  0.5496 -0.4707  0.4456
 2032SOL    HW2 8173   2.088   2.027   3.440  1.2269 -0.3712  1.8957
 2032SOL    HW3 8174   2.017   2.160   3.445 -0.0430 -0.8941 -1.1433
 2032SOL    MW4 8175   2.020   2.076   3.465  0.5608 -0.5136  0.4272
 2033SOL     OW 8176   2.047   2.320   3.372 -0.1433  0.3836 -0.2282
 2033SOL    HW2 8177   2.113   2.381   3.406  0.3136  0.1764 -0.7419
 2033SOL    HW3 8178   2.065   2.315   3.278 -1.1560  0.6445 -0.4395
 2033SOL    MW4 8179   2.058   2.328   3.364 -0.2167  0.3908 -0.3240
 2034SOL     OW 8180   1.813   2.441   3.455 -0.4688  0.2623 -0.3738
 2034SOL    HW2 8181   1.877   2.383   3.413 -0.3593 -0.4421  0.7562
 2034SOL    HW3 8182   1.728   2.405   3.431 -0.4228  0.3802 -0.7174
 2034SOL    MW4 8183   1.810   2.429   3.446 -0.4482  0.1850 -0.2699
 2035SOL     OW 8184   1.822   2.707   3.361 -0.3103  0.0482  0.0657
 2035SOL    HW2 8185   1.900   2.749   3.398 -0.4045  0.8510 -0.6071
 2035SOL    HW3 8186   1.824   2.618   3.394  0.8173  0.1092  0.1907
 2035SOL    MW4 8187   1.833   2.701   3.370 -0.1742  0.1624 -0.0064
 2036SOL     OW 8188   2.015   2.844   3.483  0.1818 -0.0446  0.0241
 2036SOL    HW2 8189   2.030   2.844   3.577  0.1448 -1.2786  0.0380
 2036SOL    HW3 8190   2.025   2.936   3.457 -1.6002  0.5968  1.5060
 2036SOL    MW4 8191   2.018   2.856   3.492 -0.0584 -0.1228  0.2215
 2037SOL     OW 8192   2.024   3.126   3.367  0.2947  0.2639 -0.1445
 2037SOL    HW2 8193   2.093   3.187   3.396  0.9932 -0.1894 -0.8281
 2037SOL    HW3 8194   1.943   3.163   3.402  0.5599  2.2361 -1.5336
 2037SOL    MW4 8195   2.023   3.139   3.376  0.4218  0.4640 -0.4179
 2038SOL     OW 8196   1.803   3.245   3.474 -0.7033  0.4656 -0.7837
 2038SOL    HW2 8197   1.814   3.244   3.569  2.1965  0.5447 -1.0865
 2038SOL    HW3 8198   1.808   3.338   3.450  0.3440  0.3082 -1.1925
 2038SOL    MW4 8199   1.805   3.257   3.483 -0.1826  0.4554 -0.8776
 2039SOL     OW 8200   1.834   3.507   3.419 -0.3781  0.1997  0.1428
 2039SOL    HW2 8201   1.750   3.544   3.444 -0.0429  1.4868 -0.5818
 2039SOL    HW3 8202   1.831   3.501   3.324  0.8932  1.6681 -0.0253
 2039SOL    MW4 8203   1.823   3.511   3.410 -0.1662  0.5631  0.0250
 2040SOL     OW 8204   2.059   3.666   3.470 -0.1872 -0.2414 -0.0710
 2040SOL    HW2 8205   2.129   3.612   3.433  0.9600  0.8467  0.5087
 2040SOL    HW3 8206   1.979   3.620   3.445  0.6922 -1.1555 -1.2889
 2040SOL    MW4 8207   2.057   3.653   3.461  0.0801 -0.2184 -0.1552
 2041SOL     OW 8208   2.041   3.919   3.324  0.1371  0.1531 -0.2120
 2041SOL    HW2 8209   1.971   3.971   3.363 -0.1256  0.5019 -1.1116
 2041SOL    HW3 8210   2.047   3.841   3.378  0.4516  1.0643  1.0920
 2041SOL    MW4 8211   2.033   3.916   3.336  0.1440  0.3192 -0.1585
 2042SOL     OW 8212   1.810   4.033   3.466 -0.0045  0.0490 -0.0261
 2042SOL    HW2 8213   1.819   4.021   3.561 -0.1799  1.5991  0.2066
 2042SOL    HW3 8214   1.733   3.981   3.443  0.4946 -0.9674  0.5405
 2042SOL    MW4 8215   1.801   4.025   3.476  0.0380  0.1197  0.0794
 2043SOL     OW 8216   1.827   4.290   3.382  0.0898 -0.0120  0.0621
 2043SOL    HW2 8217   1.828   4.200   3.415  0.4822  0.1260  0.4448
 2043SOL    HW3 8218   1.786   4.284   3.296  0.4170 -0.6102 -0.0578
 2043SOL    MW4 8219   1.822   4.278   3.375  0.1849 -0.0725  0.0968
 2044SOL     OW 8220   2.086   4.377   3.467  0.3169  0.1617  0.0996
 2044SOL    HW2 8221   2.001   4.334   3.455  0.3888 -0.0124  0.2096
 2044SOL    HW3 8222   2.080   4.457   3.415 -0.1111  0.4194  0.5484
 2044SOL    MW4 8223   2.074   4.382   3.458  0.2699  0.1726  0.1733
 2045SOL     OW 8224   2.478   4.661   3.337 -0.0050  0.2668 -0.2694
 2045SOL    HW2 8225   2.498   4.572   3.366  0.0228 -0.0686 -1.2961
 2045SOL    HW3 8226   2.496   4.661   3.243 -2.4127  0.6583 -0.7732
 2045SOL    MW4 8227   2.483   4.650   3.328 -0.3188  0.2742 -0.4711
 2046SOL     OW 8228   2.235   0.117   3.419 -0.4989  0.2073 -0.6349
 2046SOL    HW2 8229   2.239   0.206   3.383 -0.2561  0.0017 -1.1339
 2046SOL    HW3 8230   2.316   0.076   3.387 -0.2706  0.0220  0.1670
 2046SOL    MW4 8231   2.246   0.123   3.410 -0.4368  0.1557 -0.5951
 2047SOL     OW 8232   2.236   0.385   3.392 -0.1476  0.2493  0.1757
 2047SOL    HW2 8233   2.309   0.420   3.444 -0.8350 -0.3848  1.5757
 2047SOL    HW3 8234   2.159   0.432   3.423 -1.1062 -2.5619  2.1853
 2047SOL    MW4 8235   2.236   0.396   3.403 -0.3645 -0.2052  0.6254
 2048SOL     OW 8236   2.442   0.528   3.516  0.1765 -0.2284 -0.3065
 2048SOL    HW2 8237   2.527   0.500   3.481  0.8043  0.6291  0.4903
 2048SOL    HW3 8238   2.436   0.621   3.491  0.0134  0.0260  0.6602
 2048SOL    MW4 8239   2.453   0.537   3.508  0.2379 -0.0817 -0.0737
 2049SOL     OW 8240   2.460   0.796   3.425 -0.3679  0.7495 -0.0193
 2049SOL    HW2 8241   2.540   0.838   3.455 -1.4719  2.6459  0.4155
 2049SOL    HW3 8242   2.461   0.808   3.330  0.7785 -0.9537 -0.2405
 2049SOL    MW4 8243   2.470   0.803   3.416 -0.3622  0.7750  0.0088
 2050SOL     OW 8244   2.230   0.913   3.500 -0.7262 -0.2741 -0.0876
 2050SOL    HW2 8245   2.157   0.857   3.472  0.8913 -1.7463 -1.4193
 2050SOL    HW3 8246   2.308   0.866   3.473  0.7688  0.9578  1.9750
 2050SOL    MW4 8247   2.230   0.900   3.493 -0.3157 -0.3058  0.0091
 2051SOL     OW 8248   2.236   1.144   3.361 -0.0966  0.0534  0.4656
 2051SOL    HW2 8249   2.306   1.195   3.401 -0.2476  1.6410 -1.2500
 2051SOL    HW3 8250   2.224   1.070   3.420  2.1849  0.4066  1.4053
 2051SOL    MW4 8251   2.244   1.141   3.374  0.1845  0.3095  0.3631
 2052SOL     OW 8252   2.443   1.285   3.476  0.0431  0.5818  0.1753
 2052SOL    HW2 8253   2.435   1.274   3.570 -0.2348  1.0530  0.2054
 2052SOL    HW3 8254   2.516   1.228   3.451  1.3094  1.8647  0.9325
 2052SOL    MW4 8255   2.451   1.276   3.485  0.1736  0.8130  0.2792
 2053SOL     OW 8256   2.476   1.549   3.365  0.3869  0.1551  0.1417
 2053SOL    HW2 8257   2.467   1.455   3.377 -0.2634  0.0385 -1.2013
 2053SOL    HW3 8258   2.469   1.562   3.270  1.9230  1.3942  0.1823
 2053SOL    MW4 8259   2.474   1.539   3.354  0.5040  0.3031 -0.0303
 2054SOL     OW 8260   2.235   1.660   3.435  0.4191 -0.0146 -0.3633
 2054SOL    HW2 8261   2.323   1.636   3.404  0.3033  0.5166 -1.1454
 2054SOL    HW3 8262   2.242   1.662   3.530  1.0333 -0.8129 -0.3925
 2054SOL    MW4 8263   2.248   1.657   3.443  0.4847 -0.0498 -0.4702
 2055SOL     OW 8264   2.232   1.930   3.381 -0.2311 -0.4097  0.3280
 2055SOL    HW2 8265   2.219   1.836   3.388 -2.3120 -0.1572 -0.0113
 2055SOL    HW3 8266   2.240   1.947   3.287  2.5844 -0.5396  0.5099
 2055SOL    MW4 8267   2.231   1.920   3.370 -0.1340 -0.3934  0.3073
 2056SOL     OW 8268   2.673   1.937   3.370 -0.3434  0.3360  0.1301
 2056SOL    HW2 8269   2.683   1.850   3.408  1.0854  0.9354  1.1677
 2056SOL    HW3 8270   2.655   1.921   3.277 -0.9774 -1.0734  0.4857
 2056SOL    MW4 8271   2.672   1.924   3.363 -0.2389  0.2291  0.3138
 2057SOL     OW 8272   2.492   2.363   3.359  0.0769  0.1239 -0.0684
 2057SOL    HW2 8273   2.575   2.393   3.395 -0.2119  0.7831  0.0535
 2057SOL    HW3 8274   2.476   2.278   3.400  0.8913 -0.1892 -0.4014
 2057SOL    MW4 8275   2.500   2.356   3.369  0.1464  0.1695 -0.0963
 2058SOL     OW 8276   2.248   2.475   3.444  0.3883  0.0504  0.0275
 2058SOL    HW2 8277   2.258   2.569   3.429 -1.4320  0.0218 -1.5242
 2058SOL    HW3 8278   2.327   2.436   3.408  0.2685  0.8230 -1.0870
 2058SOL    MW4 8279   2.259   2.482   3.437  0.1323  0.1485 -0.3242
 2059SOL     OW 8280   2.248   2.738   3.402  0.1172  0.4593  0.0611
 2059SOL    HW2 8281   2.164   2.776   3.427 -0.7332 -0.6884 -1.0168
 2059SOL    HW3 8282   2.246   2.734   3.306  0.9840 -0.4712  0.0668
 2059SOL    MW4 8283   2.237   2.742   3.393  0.1194  0.1850 -0.0803
 2060SOL     OW 8284   2.694   2.696   3.373  0.2970 -0.6282 -0.2832
 2060SOL    HW2 8285   2.613   2.735   3.404  0.2819 -0.1326 -0.9276
 2060SOL    HW3 8286   2.710   2.623   3.432  0.3177  0.3478  0.9370
 2060SOL    MW4 8287   2.686   2.692   3.385  0.2978 -0.4342 -0.2072
 2061SOL     OW 8288   2.453   3.100   3.361  0.1503 -0.4269 -0.2982
 2061SOL    HW2 8289   2.536   3.147   3.366 -0.1323  0.1070 -0.5671
 2061SOL    HW3 8290   2.435   3.094   3.267 -2.0674  2.9565 -0.2024
 2061SOL    MW4 8291   2.462   3.105   3.349 -0.1795  0.0899 -0.3211
 2062SOL     OW 8292   2.255   3.265   3.462  0.1560 -0.0196  0.4882
 2062SOL    HW2 8293   2.258   3.249   3.556 -1.1364 -0.5128  0.4591
 2062SOL    HW3 8294   2.336   3.225   3.428 -0.6365 -2.2099  1.0672
 2062SOL    MW4 8295   2.266   3.257   3.470 -0.1192 -0.3736  0.5605
 2063SOL     OW 8296   2.270   3.520   3.369 -0.3589  0.2921 -0.3274
 2063SOL    HW2 8297   2.269   3.426   3.386 -0.9050  0.2174 -0.7903
 2063SOL    HW3 8298   2.252   3.529   3.276 -1.6252  0.9120 -0.0342
 2063SOL    MW4 8299   2.268   3.509   3.359 -0.5982  0.3643 -0.3498
 2064SOL     OW 8300   2.481   3.653   3.485  0.1238 -0.1304  0.1119
 2064SOL    HW2 8301   2.485   3.740   3.446  2.3096  0.1069  0.8106
 2064SOL    HW3 8302   2.406   3.611   3.442 -0.5897  1.8715 -0.6558
 2064SOL    MW4 8303   2.472   3.659   3.474  0.3181  0.1652  0.1028
 2065SOL     OW 8304   2.494   3.919   3.392 -0.0928 -0.2885  0.1495
 2065SOL    HW2 8305   2.564   3.965   3.439  0.8599 -2.4358  0.8944
 2065SOL    HW3 8306   2.414   3.958   3.426  0.6872  0.7397  0.8578
 2065SOL    MW4 8307   2.493   3.931   3.403  0.1359 -0.4363  0.3412
 2066SOL     OW 8308   2.258   4.024   3.480  0.2044 -0.1934 -0.1267
 2066SOL    HW2 8309   2.277   4.103   3.430 -1.0043  0.0918 -0.1574
 2066SOL    HW3 8310   2.209   3.968   3.420  1.1044 -0.9990 -0.1243
 2066SOL    MW4 8311   2.254   4.027   3.465  0.1638 -0.2623 -0.1304
 2067SOL     OW 8312   2.286   4.259   3.324  0.0146  0.1510  0.4013
 2067SOL    HW2 8313   2.212   4.306   3.364  0.7706  0.9390  0.9129
 2067SOL    HW3 8314   2.254   4.233   3.238 -0.8382  0.5497  0.5884
 2067SOL    MW4 8315   2.272   4.262   3.318  0.0019  0.3076  0.4938
 2068SOL     OW 8316   2.515   4.395   3.414 -0.3621 -0.3464  0.3640
 2068SOL    HW2 8317   2.496   4.406   3.507  0.4863 -0.7858  0.5892
 2068SOL    HW3 8318   2.433   4.361   3.378 -0.7350 -0.0569  0.9274
 2068SOL    MW4 8319   2.501   4.392   3.422 -0.2995 -0.3657  0.4678
 2069SOL     OW 8320   2.939   4.640   3.401  0.6264 -0.4133 -0.2291
 2069SOL    HW2 8321   2.865   4.690   3.434  0.9923  0.1648 -0.2818
 2069SOL    HW3 8322   2.929   4.642   3.306  1.0786  0.2385 -0.2662
 2069SOL    MW4 8323   2.928   4.647   3.393  0.7346 -0.2513 -0.2408
 2070SOL     OW 8324   2.697   0.103   3.466 -0.2482  0.8342 -0.1716
 2070SOL    HW2 8325   2.693   0.195   3.439 -0.7759  0.6151 -0.8377
 2070SOL    HW3 8326   2.627   0.060   3.417  0.2664 -0.0069 -0.1847
 2070SOL    MW4 8327   2.687   0.109   3.456 -0.2499  0.6943 -0.2613
 2071SOL     OW 8328   2.666   0.376   3.389 -0.2784  0.1363 -0.0460
 2071SOL    HW2 8329   2.749   0.408   3.426 -0.5726  0.4214  0.3654
 2071SOL    HW3 8330   2.678   0.383   3.294  0.2388  0.0064  0.0079
 2071SOL    MW4 8331   2.679   0.381   3.382 -0.2489  0.1567  0.0155
 2072SOL     OW 8332   2.895   0.484   3.508  0.4948  0.2871 -0.3700
 2072SOL    HW2 8333   2.901   0.501   3.602  0.1451  0.0085 -0.2959
 2072SOL    HW3 8334   2.882   0.570   3.469  2.6617  0.6487 -0.3472
 2072SOL    MW4 8335   2.894   0.497   3.515  0.7348  0.2980 -0.3572
 2073SOL     OW 8336   2.877   0.742   3.393 -0.0941  0.1875  0.1203
 2073SOL    HW2 8337   2.951   0.787   3.432  0.1892  0.6310 -0.9208
 2073SOL    HW3 8338   2.802   0.768   3.446  0.3916  0.2302  0.7909
 2073SOL    MW4 8339   2.877   0.751   3.405  0.0074  0.2517  0.0713
 2074SOL     OW 8340   2.692   0.907   3.529 -0.2356 -0.5877 -0.2183
 2074SOL    HW2 8341   2.685   0.921   3.624 -0.5960 -0.5165 -0.2543
 2074SOL    HW3 8342   2.691   0.995   3.492  0.7070 -0.5865 -0.2357
 2074SOL    MW4 8343   2.691   0.920   3.537 -0.1593 -0.5780 -0.2253
 2075SOL     OW 8344   2.646   1.135   3.387 -0.3367 -0.4364 -0.4476
 2075SOL    HW2 8345   2.721   1.183   3.423  0.7868 -1.5993 -1.1762
 2075SOL    HW3 8346   2.655   1.145   3.293 -0.1252 -2.0031 -0.6040
 2075SOL    MW4 8347   2.657   1.143   3.380 -0.1605 -0.7966 -0.5643
 2076SOL     OW 8348   2.876   1.302   3.454  0.1028 -0.0587 -0.4555
 2076SOL    HW2 8349   2.873   1.306   3.550 -0.7093 -0.1601 -0.4746
 2076SOL    HW3 8350   2.966   1.273   3.434  0.6225  1.0345  0.2382
 2076SOL    MW4 8351   2.888   1.299   3.464  0.0639  0.0722 -0.3664
 2077SOL     OW 8352   2.929   1.556   3.378 -0.2903 -0.4694 -0.0806
 2077SOL    HW2 8353   2.858   1.601   3.424  1.2142  1.3138  0.5923
 2077SOL    HW3 8354   2.916   1.464   3.398 -1.9144 -0.0862  0.7247
 2077SOL    MW4 8355   2.918   1.550   3.387 -0.3061 -0.1835  0.1144
 2078SOL     OW 8356   2.699   1.697   3.491 -0.2890  0.2526 -0.8515
 2078SOL    HW2 8357   2.703   1.686   3.586  1.3774  0.4814 -0.8841
 2078SOL    HW3 8358   2.625   1.643   3.463 -0.3041 -0.4220  0.4883
 2078SOL    MW4 8359   2.690   1.688   3.500 -0.0713  0.1938 -0.6793
 2079SOL     OW 8360   2.924   2.034   3.448  0.3567 -0.2387 -0.1871
 2079SOL    HW2 8361   2.919   2.043   3.543  0.4193 -1.3454 -0.0757
 2079SOL    HW3 8362   2.833   2.030   3.419  0.3501 -0.9573 -0.0691
 2079SOL    MW4 8363   2.911   2.035   3.457  0.3641 -0.4795 -0.1571
 2080SOL     OW 8364   2.698   1.870   4.119 -0.0525  0.2189 -0.4302
 2080SOL    HW2 8365   2.685   1.959   4.153 -0.0466  0.1682 -0.2952
 2080SOL    HW3 8366   2.646   1.815   4.177 -0.1772  0.1515 -0.6045
 2080SOL    MW4 8367   2.689   1.875   4.131 -0.0682  0.2034 -0.4354
 2081SOL     OW 8368   2.937   2.315   3.356  0.1566 -0.2542  0.3459
 2081SOL    HW2 8369   2.957   2.225   3.380  2.5841 -0.1955 -1.2901
 2081SOL    HW3 8370   2.944   2.316   3.260 -1.5508  1.2891  0.2086
 2081SOL    MW4 8371   2.941   2.303   3.346  0.2520 -0.0427  0.1116
 2082SOL     OW 8372   3.056   3.005   4.488  0.3308  0.1993  0.5526
 2082SOL    HW2 8373   3.093   2.926   4.528 -0.5263 -0.8153 -0.6284
 2082SOL    HW3 8374   2.964   3.004   4.514  0.0146  0.1062 -0.5555
 2082SOL    MW4 8375   3.049   2.994   4.497  0.1757  0.0534  0.2503
 2083SOL     OW 8376   2.734   2.443   3.484 -0.1912 -0.1488  0.1523
 2083SOL    HW2 8377   2.808   2.390   3.452 -1.0242 -1.2117 -0.0408
 2083SOL    HW3 8378   2.755   2.458   3.577  0.5492  0.0394 -0.0410
 2083SOL    MW4 8379   2.747   2.438   3.492 -0.2031 -0.2642  0.1016
 2084SOL     OW 8380   2.923   2.864   3.430 -0.3052  0.0339  0.0890
 2084SOL    HW2 8381   2.903   2.863   3.524  1.0640 -0.9763  0.3998
 2084SOL    HW3 8382   2.854   2.810   3.391  0.2763 -1.2365  0.7857
 2084SOL    MW4 8383   2.911   2.856   3.437 -0.0479 -0.2670  0.2222
 2085SOL     OW 8384   2.946   3.132   3.336  0.1490 -0.2438  0.1297
 2085SOL    HW2 8385   2.936   3.037   3.348 -1.4019  0.0133  1.0305
 2085SOL    HW3 8386   2.957   3.143   3.241  1.4327 -1.3960  0.1236
 2085SOL    MW4 8387   2.946   3.121   3.325  0.1135 -0.3614  0.2477
 2086SOL     OW 8388   2.701   3.236   3.428  0.1922 -0.4054 -0.2555
 2086SOL    HW2 8389   2.711   3.245   3.523  0.8304  2.2293 -0.5368
 2086SOL    HW3 8390   2.780   3.189   3.400 -0.0262 -1.2407  0.5093
 2086SOL    MW4 8391   2.713   3.231   3.437  0.2475 -0.1678 -0.1917
 2087SOL     OW 8392   2.703   3.500   3.360  0.3476 -0.4993  0.2650
 2087SOL    HW2 8393   2.686   3.408   3.379  1.3417 -0.7163  0.1412
 2087SOL    HW3 8394   2.642   3.548   3.416 -0.0719 -1.2286  0.4363
 2087SOL    MW4 8395   2.693   3.495   3.370  0.4234 -0.6239  0.2711
 2088SOL     OW 8396   2.929   3.618   3.481  0.2765  0.3316 -0.5194
 2088SOL    HW2 8397   2.937   3.702   3.437  0.3760  0.7400  0.2647
 2088SOL    HW3 8398   2.853   3.577   3.440 -0.7287  1.4733  0.1529
 2088SOL    MW4 8399   2.920   3.624   3.470  0.1569  0.5362 -0.3273
 2089SOL     OW 8400   2.912   3.891   3.363  0.1528  0.1761 -0.9091
 2089SOL    HW2 8401   2.984   3.943   3.400  0.2318 -1.3012  1.0950
 2089SOL    HW3 8402   2.834   3.927   3.405  0.1920 -1.1606  0.3606
 2089SOL    MW4 8403   2.911   3.903   3.374  0.1681 -0.1953 -0.4771
 2090SOL     OW 8404   2.684   4.048   3.520  0.7860 -0.4873 -0.3314
 2090SOL    HW2 8405   2.721   4.067   3.606  1.1857 -0.6363 -0.4706
 2090SOL    HW3 8406   2.705   4.126   3.468  0.6824 -0.4649 -0.3390
 2090SOL    MW4 8407   2.691   4.061   3.524  0.8254 -0.5045 -0.3507
 2091SOL     OW 8408   2.726   4.261   3.323  0.1000 -0.2936 -0.0428
 2091SOL    HW2 8409   2.802   4.291   3.373  0.7305 -0.4885 -0.8838
 2091SOL    HW3 8410   2.653   4.311   3.359  0.6251 -0.0723  0.7409
 2091SOL    MW4 8411   2.726   4.271   3.335  0.2527 -0.2899 -0.0505
 2092SOL     OW 8412   2.948   4.349   3.453 -0.4318 -0.3791  0.2243
 2092SOL    HW2 8413   2.938   4.349   3.548 -1.4644  1.4655  0.1523
 2092SOL    HW3 8414   2.937   4.441   3.428  1.0995 -0.6414 -1.5558
 2092SOL    MW4 8415   2.945   4.361   3.462 -0.3660 -0.1702 -0.0203
 2093SOL     OW 8416   3.410   0.008   3.343  0.4090  0.2557 -0.0828
 2093SOL    HW2 8417   3.326   0.049   3.363 -0.5558 -1.5862 -0.3350
 2093SOL    HW3 8418   3.405  -0.014   3.250  1.2365  0.2905 -0.1398
 2093SOL    MW4 8419   3.398   0.011   3.334  0.3910  0.0172 -0.1235
 2094SOL     OW 8420   3.188   0.086   3.495 -0.6531 -0.4072 -0.3043
 2094SOL    HW2 8421   3.166   0.175   3.469 -0.3160  0.0709  0.9894
 2094SOL    HW3 8422   3.110   0.035   3.473 -1.0474  0.2970 -0.5802
 2094SOL    MW4 8423   3.175   0.091   3.489 -0.6607 -0.2512 -0.1702
 2095SOL     OW 8424   3.138   0.370   3.413 -0.0950  0.0313  0.2280
 2095SOL    HW2 8425   3.056   0.403   3.451  0.1051 -0.2506  0.9125
 2095SOL    HW3 8426   3.128   0.383   3.319 -0.7437  0.4166  0.3487
 2095SOL    MW4 8427   3.126   0.376   3.406 -0.1543  0.0449  0.3343
 2096SOL     OW 8428   3.362   0.520   3.490  0.2914  0.3521 -0.3105
 2096SOL    HW2 8429   3.361   0.515   3.586  0.3967  0.2732 -0.3133
 2096SOL    HW3 8430   3.289   0.464   3.463  0.2913  0.3364 -0.2781
 2096SOL    MW4 8431   3.352   0.512   3.500  0.3052  0.3396 -0.3066
 2097SOL     OW 8432   3.305   0.766   3.396 -0.0396  0.3306  0.2606
 2097SOL    HW2 8433   3.390   0.810   3.403  0.2988 -0.5306  1.5201
 2097SOL    HW3 8434   3.317   0.681   3.437 -1.1003 -0.4147 -0.9061
 2097SOL    MW4 8435   3.317   0.761   3.402 -0.1349  0.1186  0.2730
 2098SOL     OW 8436   3.073   0.901   3.495 -0.3382 -0.1028  0.1297
 2098SOL    HW2 8437   3.074   0.993   3.470 -0.1637  0.2086  1.2691
 2098SOL    HW3 8438   3.151   0.864   3.452  0.7136  0.7254  1.2798
 2098SOL    MW4 8439   3.084   0.908   3.486 -0.1764  0.0476  0.4315
 2099SOL     OW 8440   3.105   1.161   3.380 -0.0519  0.2234 -0.0963
 2099SOL    HW2 8441   3.191   1.187   3.411  0.2818 -2.3476  1.2527
 2099SOL    HW3 8442   3.111   1.166   3.285  1.9117 -0.9029 -0.0412
 2099SOL    MW4 8443   3.117   1.165   3.371  0.2511 -0.2643  0.0889
 2100SOL     OW 8444   3.343   1.266   3.453 -0.4373 -0.0742 -0.4738
 2100SOL    HW2 8445   3.426   1.218   3.449 -0.0870  0.4464  0.4333
 2100SOL    HW3 8446   3.362   1.352   3.416 -0.6650 -0.0734 -0.5944
 2100SOL    MW4 8447   3.356   1.271   3.448 -0.4210 -0.0055 -0.3700
 2101SOL     OW 8448   3.403   1.520   3.357  0.0696 -0.1488  0.1651
 2101SOL    HW2 8449   3.472   1.564   3.408 -0.0366  1.1173 -0.7937
 2101SOL    HW3 8450   3.322   1.562   3.384 -0.2819 -1.2126  0.8181
 2101SOL    MW4 8451   3.402   1.531   3.368  0.0093 -0.1222  0.1247
 2102SOL     OW 8452   3.188   1.664   3.440 -0.2952 -0.2208 -0.0505
 2102SOL    HW2 8453   3.185   1.758   3.424  0.3283 -0.2774 -0.5288
 2102SOL    HW3 8454   3.102   1.632   3.415 -0.9818  0.4140  1.4100
 2102SOL    MW4 8455   3.176   1.672   3.435 -0.3037 -0.1444  0.0792
 2103SOL     OW 8456   3.186   1.942   3.378  0.1587  0.0664  0.0897
 2103SOL    HW2 8457   3.103   1.970   3.416  0.3695 -0.7872  1.2290
 2103SOL    HW3 8458   3.168   1.930   3.285 -0.7088  0.9275  0.1400
 2103SOL    MW4 8459   3.173   1.944   3.371  0.0722  0.0674  0.2465
 2104SOL     OW 8460   3.406   2.065   3.445  0.3165 -0.0126  0.4977
 2104SOL    HW2 8461   3.391   2.153   3.411  1.2972 -0.0366 -0.0086
 2104SOL    HW3 8462   3.322   2.020   3.434  0.3646  0.2619 -1.0336
 2104SOL    MW4 8463   3.393   2.071   3.439  0.4525  0.0205  0.2286
 2105SOL     OW 8464   3.337   2.312   3.362  0.0235  0.2439  0.1603
 2105SOL    HW2 8465   3.405   2.373   3.390  0.1000 -0.4610  1.5142
 2105SOL    HW3 8466   3.255   2.356   3.382  0.0699  0.7971 -0.8294
 2105SOL    MW4 8467   3.335   2.325   3.368  0.0396  0.2239  0.2081
 2106SOL     OW 8468   3.149   2.473   3.465 -0.4153 -0.4639  0.2025
 2106SOL    HW2 8469   3.124   2.558   3.428 -2.0516 -0.5352  1.1059
 2106SOL    HW3 8470   3.077   2.414   3.443  0.0089 -1.2462  0.8679
 2106SOL    MW4 8471   3.136   2.477   3.458 -0.5753 -0.5765  0.4096
 2107SOL     OW 8472   3.131   2.718   3.333 -0.4917  0.4025 -0.1952
 2107SOL    HW2 8473   3.215   2.754   3.359 -0.7112 -0.3491  1.6855
 2107SOL    HW3 8474   3.067   2.775   3.377 -0.8467 -1.8161  2.3053
 2107SOL    MW4 8475   3.133   2.730   3.342 -0.5677  0.0105  0.3829
 2108SOL     OW 8476   3.381   2.833   3.434 -0.0398 -0.1857 -0.3639
 2108SOL    HW2 8477   3.465   2.794   3.408  0.3036  0.9797 -1.0267
 2108SOL    HW3 8478   3.385   2.922   3.402  0.1394  1.1654  3.1711
 2108SOL    MW4 8479   3.393   2.839   3.427  0.0293  0.1466  0.0148
 2109SOL     OW 8480   3.383   3.109   3.321 -0.0651 -0.1305  0.3080
 2109SOL    HW2 8481   3.459   3.154   3.358 -0.0137  0.8278 -0.9764
 2109SOL    HW3 8482   3.309   3.147   3.368  0.2035 -0.9165  1.4136
 2109SOL    MW4 8483   3.384   3.120   3.332 -0.0231 -0.1078  0.2844
 2110SOL     OW 8484   3.183   3.232   3.459 -0.4679 -0.4240  0.4602
 2110SOL    HW2 8485   3.172   3.327   3.455 -1.1037 -0.5120  0.0102
 2110SOL    HW3 8486   3.100   3.197   3.426 -0.0653 -1.1333  0.1889
 2110SOL    MW4 8487   3.170   3.240   3.454 -0.4988 -0.5293  0.3650
 2111SOL     OW 8488   3.147   3.487   3.384  0.3307 -0.0608 -0.6271
 2111SOL    HW2 8489   3.064   3.527   3.410  0.3374  0.0206 -0.7313
 2111SOL    HW3 8490   3.139   3.477   3.289  1.6981  2.7782 -1.0711
 2111SOL    MW4 8491   3.135   3.491   3.375  0.5119  0.3247 -0.6993
 2112SOL     OW 8492   3.378   3.610   3.476 -0.2311  0.0459 -0.7271
 2112SOL    HW2 8493   3.373   3.696   3.435 -1.6265  0.6817  0.6978
 2112SOL    HW3 8494   3.292   3.570   3.457  0.0164 -0.6103 -0.4788
 2112SOL    MW4 8495   3.366   3.616   3.468 -0.3824  0.0432 -0.5064
 2113SOL     OW 8496   3.394   3.858   3.358  0.2712  0.3906 -0.3210
 2113SOL    HW2 8497   3.471   3.901   3.394 -0.2619  1.0727 -0.0019
 2113SOL    HW3 8498   3.320   3.911   3.386 -0.4092 -0.8112  0.2166
 2113SOL    MW4 8499   3.395   3.870   3.366  0.1111  0.3221 -0.2084
 2114SOL     OW 8500   3.140   4.019   3.448 -0.5265  0.0947 -0.0294
 2114SOL    HW2 8501   3.142   4.025   3.543  2.0019  0.1646 -0.0697
 2114SOL    HW3 8502   3.160   4.108   3.418  0.3436 -0.3005 -0.6224
 2114SOL    MW4 8503   3.143   4.032   3.457 -0.0782  0.0515 -0.1130
 2115SOL     OW 8504   3.195   4.268   3.348 -0.5708 -0.1602 -0.1530
 2115SOL    HW2 8505   3.262   4.325   3.386 -0.6199 -0.0387 -0.2495
 2115SOL    HW3 8506   3.112   4.301   3.382 -0.5610 -0.4839  0.1916
 2115SOL    MW4 8507   3.193   4.280   3.358 -0.5763 -0.1864 -0.1202
 2116SOL     OW 8508   3.389   4.433   3.473  0.1647  0.5747 -0.2401
 2116SOL    HW2 8509   3.407   4.441   3.567  1.8475  1.2087 -0.6012
 2116SOL    HW3 8510   3.388   4.523   3.440  1.6367  0.2690 -1.1786
 2116SOL    MW4 8511   3.391   4.446   3.481  0.5810  0.6185 -0.4115
 2117SOL     OW 8512   3.808   4.657   3.379 -0.5453  0.7757  0.0742
 2117SOL    HW2 8513   3.733   4.712   3.403 -0.3844  0.5573  1.0958
 2117SOL    HW3 8514   3.808   4.657   3.283 -1.0618  1.8562  0.0638
 2117SOL    MW4 8515   3.798   4.665   3.369 -0.5920  0.8888  0.2077
 2118SOL     OW 8516   3.608   0.140   3.493  0.1283 -0.0407 -0.4722
 2118SOL    HW2 8517   3.600   0.229   3.458 -0.6518 -0.0878 -0.4227
 2118SOL    HW3 8518   3.539   0.090   3.449  0.3990 -0.5641 -0.3118
 2118SOL    MW4 8519   3.598   0.145   3.483  0.0610 -0.1160 -0.4444
 2119SOL     OW 8520   3.613   0.394   3.383  0.2268 -0.0237  0.0105
 2119SOL    HW2 8521   3.680   0.438   3.436  1.0559 -0.6671 -0.4913
 2119SOL    HW3 8522   3.531   0.437   3.408  1.2443  3.1869 -1.9458
 2119SOL    MW4 8523   3.611   0.405   3.393  0.4704  0.3151 -0.3140
 2120SOL     OW 8524   3.828   0.524   3.491  0.0984  0.8356  0.1262
 2120SOL    HW2 8525   3.838   0.507   3.584 -2.1202 -0.3367  0.1964
 2120SOL    HW3 8526   3.897   0.473   3.450 -0.9657 -1.3428  0.9545
 2120SOL    MW4 8527   3.838   0.515   3.498 -0.3347  0.3935  0.2446
 2121SOL     OW 8528   3.822   0.776   3.404  0.5159 -0.0907 -0.0495
 2121SOL    HW2 8529   3.895   0.834   3.423 -0.7458  1.1520  1.0823
 2121SOL    HW3 8530   3.845   0.693   3.447  0.1027  1.0836  2.5350
 2121SOL    MW4 8531   3.835   0.772   3.412  0.2949  0.2282  0.4406
 2122SOL     OW 8532   3.553   0.876   3.484  0.1662  0.2771  0.0548
 2122SOL    HW2 8533   3.570   0.874   3.578  1.4549  2.1056 -0.1233
 2122SOL    HW3 8534   3.631   0.837   3.444  0.6053  1.5331 -0.3526
 2122SOL    MW4 8535   3.566   0.871   3.491  0.3941  0.6841 -0.0224
 2123SOL     OW 8536   3.592   1.137   3.434  0.1678  0.1228  0.1057
 2123SOL    HW2 8537   3.586   1.043   3.452  0.5892 -0.1745 -1.2590
 2123SOL    HW3 8538   3.586   1.143   3.339  0.2862  1.4701  0.1824
 2123SOL    MW4 8539   3.590   1.125   3.424  0.2387  0.2614 -0.0644
 2124SOL     OW 8540   3.794   1.291   3.521 -0.1515  0.2507 -0.1479
 2124SOL    HW2 8541   3.803   1.286   3.616 -0.2056 -2.0233 -0.2318
 2124SOL    HW3 8542   3.719   1.234   3.501 -0.7535  1.4663 -1.4630
 2124SOL    MW4 8543   3.785   1.283   3.531 -0.2384  0.1111 -0.3326
 2125SOL     OW 8544   3.801   1.522   3.367  0.0575  0.1734  0.4110
 2125SOL    HW2 8545   3.888   1.556   3.387 -0.1466  0.6750  0.4465
 2125SOL    HW3 8546   3.798   1.437   3.412  0.6114  0.0493  0.2165
 2125SOL    MW4 8547   3.812   1.515   3.376  0.1035  0.2233  0.3898
 2126SOL     OW 8548   3.605   1.665   3.493 -0.0630 -0.2870  0.0078
 2126SOL    HW2 8549   3.615   1.748   3.446  0.5344 -0.1442  0.3744
 2126SOL    HW3 8550   3.675   1.609   3.457  2.3209  0.7880  2.7560
 2126SOL    MW4 8551   3.616   1.669   3.482  0.3304 -0.1264  0.4187
 2127SOL     OW 8552   3.613   1.913   3.360 -0.1510 -0.4613  0.4068
 2127SOL    HW2 8553   3.686   1.958   3.404  0.4816 -1.0145 -0.0710
 2127SOL    HW3 8554   3.534   1.955   3.396  0.3643 -0.6361  1.7978
 2127SOL    MW4 8555   3.612   1.924   3.371  0.0007 -0.5573  0.5274
 2128SOL     OW 8556   3.824   2.052   3.462  0.0368  0.5024 -0.2514
 2128SOL    HW2 8557   3.825   2.072   3.556 -2.1662 -0.0779 -0.0946
 2128SOL    HW3 8558   3.910   2.013   3.446  0.7756  1.3967  1.3302
 2128SOL    MW4 8559   3.836   2.050   3.473 -0.1564  0.5436 -0.0222
 2129SOL     OW 8560   3.805   2.317   3.387 -0.2744  0.3246  0.0644
 2129SOL    HW2 8561   3.894   2.353   3.398 -0.6805  1.3817 -0.0557
 2129SOL    HW3 8562   3.811   2.229   3.423  0.3086  1.1005  1.9480
 2129SOL    MW4 8563   3.818   2.310   3.393 -0.2513  0.5660  0.2971
 2130SOL     OW 8564   3.577   2.446   3.435  0.0298 -0.0343 -0.2191
 2130SOL    HW2 8565   3.573   2.531   3.390 -1.9721  0.1368  0.2205
 2130SOL    HW3 8566   3.659   2.407   3.405  1.5198  2.4851  0.3580
 2130SOL    MW4 8567   3.587   2.452   3.425 -0.0377  0.3207 -0.0854
 2131SOL     OW 8568   3.603   2.701   3.346 -0.0830 -0.1664 -0.1814
 2131SOL    HW2 8569   3.682   2.745   3.378  0.1459 -1.6825  1.4039
 2131SOL    HW3 8570   3.605   2.714   3.251  0.8814  1.7303  0.0772
 2131SOL    MW4 8571   3.614   2.708   3.337  0.0744 -0.1166  0.0620
 2132SOL     OW 8572   3.847   2.831   3.432  0.2701 -0.0664  0.0341
 2132SOL    HW2 8573   3.833   2.838   3.526 -1.9948  0.6643 -0.3182
 2132SOL    HW3 8574   3.845   2.922   3.401  1.6412 -0.2540 -0.6463
 2132SOL    MW4 8575   3.845   2.844   3.440  0.1523  0.0052 -0.1020
 2133SOL     OW 8576   3.826   3.089   3.341  0.6429 -0.6277 -0.3458
 2133SOL    HW2 8577   3.899   3.124   3.391  0.9608 -0.4729 -0.9180
 2133SOL    HW3 8578   3.859   3.081   3.252 -1.3001  3.4453 -1.5407
 2133SOL    MW4 8579   3.840   3.092   3.336  0.4287 -0.0699 -0.5789
 2134SOL     OW 8580   3.606   3.232   3.455 -0.0002 -0.1199  0.0002
 2134SOL    HW2 8581   3.601   3.319   3.415  0.1718 -0.0553  0.1163
 2134SOL    HW3 8582   3.672   3.185   3.403 -1.4781 -0.8228 -1.2598
 2134SOL    MW4 8583   3.614   3.237   3.443 -0.1726 -0.2038 -0.1507
 2135SOL     OW 8584   3.591   3.484   3.362  0.0882 -0.7175  0.5885
 2135SOL    HW2 8585   3.517   3.527   3.405  0.7902  1.7153 -0.5314
 2135SOL    HW3 8586   3.577   3.503   3.269  1.8902 -0.6214  0.3350
 2135SOL    MW4 8587   3.579   3.492   3.355  0.4189 -0.3839  0.4075
 2136SOL     OW 8588   3.808   3.626   3.459 -0.6871 -0.1786  0.1266
 2136SOL    HW2 8589   3.816   3.622   3.554 -1.6223  0.2363  0.2299
 2136SOL    HW3 8590   3.726   3.580   3.440 -1.0253  0.6131 -0.3850
 2136SOL    MW4 8591   3.798   3.619   3.469 -0.8552 -0.0196  0.0730
 2137SOL     OW 8592   3.838   3.883   3.330 -0.0678 -0.0443  0.1157
 2137SOL    HW2 8593   3.757   3.926   3.358 -0.0625  0.2042 -0.2425
 2137SOL    HW3 8594   3.843   3.804   3.382  1.1322  1.5502  2.5086
 2137SOL    MW4 8595   3.828   3.879   3.340  0.0913  0.1988  0.3843
 2138SOL     OW 8596   3.617   4.005   3.453 -0.2212  0.0852 -0.0651
 2138SOL    HW2 8597   3.600   4.019   3.546 -2.5327 -1.5943 -0.2004
 2138SOL    HW3 8598   3.609   4.092   3.414 -1.5940  0.4342  0.9528
 2138SOL    MW4 8599   3.614   4.018   3.460 -0.7074 -0.0906  0.0513
 2139SOL     OW 8600   3.580   4.268   3.354  0.3086 -0.2821 -0.4005
 2139SOL    HW2 8601   3.513   4.321   3.397  1.4186  1.1279 -0.3448
 2139SOL    HW3 8602   3.570   4.288   3.261  0.9246  0.2858 -0.3524
 2139SOL    MW4 8603   3.570   4.278   3.348  0.5364 -0.0210 -0.3870
 2140SOL     OW 8604   3.798   4.405   3.477 -0.0807 -0.5860 -0.2101
 2140SOL    HW2 8605   3.726   4.358   3.434 -0.8352  0.3536 -0.0054
 2140SOL    HW3 8606   3.793   4.494   3.442 -0.8950  0.2835  1.9724
 2140SOL    MW4 8607   3.788   4.411   3.467 -0.2880 -0.3476  0.1049
 2141SOL     OW 8608   4.252   4.415   3.431 -0.1405 -0.4495  0.1122
 2141SOL    HW2 8609   4.247   4.430   3.525  1.6237  1.4903 -0.0766
 2141SOL    HW3 8610   4.179   4.357   3.412 -2.7577  2.0916  2.0933
 2141SOL    MW4 8611   4.242   4.409   3.441 -0.2532  0.1421  0.3488
 2142SOL     OW 8612   4.018   0.098   3.533  0.1080 -0.1097  0.6234
 2142SOL    HW2 8613   4.092   0.059   3.488  0.2592 -0.3510  1.0750
 2142SOL    HW3 8614   3.941   0.060   3.491  0.2306  0.4391 -0.1114
 2142SOL    MW4 8615   4.018   0.088   3.522  0.1445 -0.0691  0.5860
 2143SOL     OW 8616   4.042   0.350   3.418 -0.3643  0.0972  0.0224
 2143SOL    HW2 8617   4.053   0.268   3.465  0.0865  0.0735 -0.1268
 2143SOL    HW3 8618   4.049   0.327   3.326 -1.4784  0.1100 -0.0745
 2143SOL    MW4 8619   4.044   0.336   3.412 -0.4520  0.0958 -0.0100
 2144SOL     OW 8620   4.255   0.498   3.509  0.4058 -0.0791 -0.2628
 2144SOL    HW2 8621   4.247   0.580   3.460 -0.5754 -0.8621 -1.4345
 2144SOL    HW3 8622   4.178   0.447   3.485  0.2177 -0.7492  1.6360
 2144SOL    MW4 8623   4.244   0.502   3.499  0.2518 -0.2709 -0.1669
 2145SOL     OW 8624   4.255   0.740   3.369 -0.2219  0.0086 -0.2792
 2145SOL    HW2 8625   4.332   0.796   3.379  0.9969 -1.5732 -0.5842
 2145SOL    HW3 8626   4.249   0.723   3.275 -1.2257  0.5058 -0.3081
 2145SOL    MW4 8627   4.264   0.745   3.358 -0.1936 -0.1345 -0.3231
 2146SOL     OW 8628   4.050   0.927   3.473  0.0234  0.2472  0.2125
 2146SOL    HW2 8629   4.051   1.014   3.433 -0.1896 -0.2091 -0.8086
 2146SOL    HW3 8630   4.140   0.895   3.460 -0.0309  0.1220  0.1475
 2146SOL    MW4 8631   4.062   0.934   3.466 -0.0114  0.1705  0.0694
 2147SOL     OW 8632   4.007   1.190   3.390  0.0620  0.1991 -0.0879
 2147SOL    HW2 8633   4.088   1.235   3.415 -0.7183  0.0486  2.9166
 2147SOL    HW3 8634   3.941   1.223   3.451 -1.5163 -1.7215 -0.6892
 2147SOL    MW4 8635   4.009   1.200   3.402 -0.2494 -0.0740  0.2291
 2148SOL     OW 8636   4.246   1.286   3.478 -0.4917 -0.1345  0.0266
 2148SOL    HW2 8637   4.251   1.370   3.432  1.3569  0.3076  0.9774
 2148SOL    HW3 8638   4.327   1.241   3.454 -1.8513 -2.0271 -1.1432
 2148SOL    MW4 8639   4.258   1.291   3.469 -0.4268 -0.3260 -0.0024
 2149SOL     OW 8640   4.292   1.512   3.350 -0.1795  0.5962 -0.1355
 2149SOL    HW2 8641   4.221   1.564   3.389  0.4135  0.6860  0.8308
 2149SOL    HW3 8642   4.283   1.527   3.256  0.0790  2.5695  0.1385
 2149SOL    MW4 8643   4.281   1.521   3.342 -0.0672  0.8684  0.0281
 2150SOL     OW 8644   4.034   1.626   3.465 -0.1625 -0.2162 -0.1345
 2150SOL    HW2 8645   4.028   1.638   3.560  1.2296 -1.0168  0.0697
 2150SOL    HW3 8646   4.027   1.715   3.429 -0.4270  0.1197  0.7320
 2150SOL    MW4 8647   4.032   1.639   3.473 -0.0138 -0.2775  0.0067
 2151SOL     OW 8648   4.049   1.895   3.367  0.5442  0.2733 -0.2290
 2151SOL    HW2 8649   4.130   1.941   3.389 -0.1718  1.4652 -0.0527
 2151SOL    HW3 8650   4.051   1.891   3.271  0.6041  0.6845 -0.2479
 2151SOL    MW4 8651   4.060   1.901   3.357  0.4573  0.4848 -0.2084
 2152SOL     OW 8652   4.270   2.026   3.501 -0.2074 -0.1678  0.3265
 2152SOL    HW2 8653   4.284   2.121   3.493 -0.6801 -0.3344 -3.1433
 2152SOL    HW3 8654   4.346   1.987   3.457 -1.0533 -1.3661 -0.0744
 2152SOL    MW4 8655   4.282   2.033   3.494 -0.3815 -0.3476 -0.1841
 2153SOL     OW 8656   4.282   2.310   3.403  0.0807 -0.0290 -0.3071
 2153SOL    HW2 8657   4.192   2.341   3.414 -0.0853 -0.6959  0.2618
 2153SOL    HW3 8658   4.288   2.286   3.311 -0.8163 -1.4759 -0.0022
 2153SOL    MW4 8659   4.271   2.311   3.392 -0.0596 -0.3078 -0.1917
 2154SOL     OW 8660   4.043   2.424   3.457 -0.1478  0.3252 -0.1461
 2154SOL    HW2 8661   4.055   2.439   3.551 -0.7322 -0.6504  0.0898
 2154SOL    HW3 8662   4.063   2.508   3.417 -0.3549  0.8802  0.8936
 2154SOL    MW4 8663   4.048   2.437   3.464 -0.2518  0.2699  0.0222
 2155SOL     OW 8664   4.063   2.691   3.327  0.2756 -0.1555 -0.7270
 2155SOL    HW2 8665   4.141   2.724   3.371  0.0802  0.5307 -0.8983
 2155SOL    HW3 8666   3.990   2.740   3.366  0.1420  0.7545 -2.1132
 2155SOL    MW4 8667   4.063   2.702   3.338  0.2322  0.0553 -0.9322
 2156SOL     OW 8668   4.287   2.858   3.424 -0.2517 -0.0767  0.2073
 2156SOL    HW2 8669   4.292   2.865   3.520  0.5001  0.1327  0.1499
 2156SOL    HW3 8670   4.373   2.828   3.397 -0.4461 -0.0805 -0.4147
 2156SOL    MW4 8671   4.299   2.855   3.433 -0.1783 -0.0494  0.1173
 2157SOL     OW 8672   4.307   3.145   3.422  0.2003  0.3914  0.2671
 2157SOL    HW2 8673   4.316   3.050   3.422 -1.5025  0.2220  0.0313
 2157SOL    HW3 8674   4.307   3.169   3.329 -0.6770  0.4802  0.2832
 2157SOL    MW4 8675   4.308   3.135   3.409 -0.1402  0.3810  0.2379
 2158SOL     OW 8676   4.031   3.220   3.455  0.2923  0.3945 -0.3138
 2158SOL    HW2 8677   4.024   3.305   3.410  0.7061  0.4599 -0.2574
 2158SOL    HW3 8678   4.124   3.199   3.452  0.3819  0.5976  0.8884
 2158SOL    MW4 8679   4.042   3.229   3.449  0.3586  0.4299 -0.1478
 2159SOL     OW 8680   4.034   3.474   3.366 -0.1573 -0.2865  0.2053
 2159SOL    HW2 8681   4.106   3.516   3.414 -0.3444 -0.2069  0.4159
 2159SOL    HW3 8682   3.958   3.529   3.384 -0.1565 -0.0598 -0.4680
 2159SOL    MW4 8683   4.033   3.487   3.375 -0.1817 -0.2463  0.1442
 2160SOL     OW 8684   4.262   3.625   3.497 -0.1355 -0.0190  0.1635
 2160SOL    HW2 8685   4.257   3.647   3.590 -0.7790 -0.7412  0.3055
 2160SOL    HW3 8686   4.268   3.709   3.453 -2.3057  0.4618  0.7086
 2160SOL    MW4 8687   4.262   3.639   3.504 -0.5059 -0.0508  0.2542
 2161SOL     OW 8688   4.277   3.848   3.346  0.1624  0.0881  0.3824
 2161SOL    HW2 8689   4.345   3.914   3.357  1.9781 -1.7288  0.1123
 2161SOL    HW3 8690   4.267   3.841   3.251  0.3593 -0.4317  0.4019
 2161SOL    MW4 8691   4.284   3.856   3.335  0.4277 -0.2203  0.3493
 2162SOL     OW 8692   4.028   3.996   3.483 -0.1009 -0.0281  0.2332
 2162SOL    HW2 8693   4.116   3.969   3.456  0.5665  2.3689 -0.0856
 2162SOL    HW3 8694   3.969   3.951   3.423  1.0899  0.8376 -1.6007
 2162SOL    MW4 8695   4.032   3.986   3.472  0.1440  0.4025 -0.0510
 2163SOL     OW 8696   4.030   4.260   3.373 -0.3142  0.0065  0.2828
 2163SOL    HW2 8697   4.033   4.173   3.413 -1.7040 -0.3036 -0.2380
 2163SOL    HW3 8698   3.951   4.300   3.409 -1.4103 -0.1537 -1.8506
 2163SOL    MW4 8699   4.020   4.254   3.383 -0.6418 -0.0558 -0.0675
 2164SOL     OW 8700   4.223   0.011   3.375 -0.0815  0.4140  0.6959
 2164SOL    HW2 8701   4.313   0.046   3.377  0.7073 -1.5775  1.8178
 2164SOL    HW3 8702   4.234  -0.083   3.387 -2.4012  0.2670  1.9212
 2164SOL    MW4 8703   4.237   0.003   3.377 -0.2837  0.1316  1.0054
 2165SOL     OW 8704   0.227   4.616   3.837  0.1273  0.3397  0.2442
 2165SOL    HW2 8705   0.213   4.632   3.931 -0.2942  0.3339  0.1821
 2165SOL    HW3 8706   0.153   4.658   3.794 -0.6211 -1.1438  0.0390
 2165SOL    MW4 8707   0.215   4.623   3.844 -0.0270  0.1431  0.2089
 2166SOL     OW 8708   0.027   0.091   3.723 -0.0571 -0.2319  0.4976
 2166SOL    HW2 8709   0.043   0.179   3.758  0.7800 -0.3527  0.4234
 2166SOL    HW3 8710   0.028   0.102   3.628  0.3875 -0.3830  0.4855
 2166SOL    MW4 8711   0.029   0.104   3.715  0.1121 -0.2678  0.4861
 2167SOL     OW 8712   0.029   0.346   3.838  0.0504  0.1000 -0.4305
 2167SOL    HW2 8713  -0.056   0.387   3.826  0.3373  0.8074 -0.0804
 2167SOL    HW3 8714   0.092   0.411   3.806  0.6081  0.6034  1.5996
 2167SOL    MW4 8715   0.026   0.360   3.833  0.1618  0.2598 -0.1163
 2168SOL     OW 8716   0.233   0.492   3.765 -0.0925 -0.0950  0.1529
 2168SOL    HW2 8717   0.247   0.584   3.787  2.2898 -0.6672  1.1153
 2168SOL    HW3 8718   0.239   0.489   3.670 -2.0757  1.0239 -0.0404
 2168SOL    MW4 8719   0.236   0.504   3.756 -0.0399 -0.0228  0.2546
 2169SOL     OW 8720   0.212   0.769   3.880  0.2955 -0.3270  0.0500
 2169SOL    HW2 8721   0.134   0.811   3.844  0.1030 -0.3411  0.4485
 2169SOL    HW3 8722   0.187   0.746   3.969  0.2126 -1.8041 -0.3474
 2169SOL    MW4 8723   0.198   0.772   3.887  0.2591 -0.5237  0.0501
 2170SOL     OW 8724   0.018   0.919   3.728 -0.0629  0.1023 -0.6694
 2170SOL    HW2 8725  -0.060   0.889   3.775  0.4717  0.1643  0.2704
 2170SOL    HW3 8726   0.021   1.013   3.744 -0.7990  0.4065 -2.2213
 2170SOL    MW4 8727   0.008   0.927   3.736 -0.0896  0.1506 -0.7501
 2171SOL     OW 8728   0.033   1.191   3.791 -0.0479  0.0757 -0.3459
 2171SOL    HW2 8729   0.031   1.174   3.885 -1.0306 -3.1113 -0.8972
 2171SOL    HW3 8730   0.122   1.223   3.774  0.0954  0.7878  1.6643
 2171SOL    MW4 8731   0.044   1.193   3.801 -0.1586 -0.2508 -0.1538
 2172SOL     OW 8732   0.286   1.290   3.765 -0.1180 -0.0269  0.1799
 2172SOL    HW2 8733   0.253   1.291   3.675 -1.9805 -0.4044  0.8298
 2172SOL    HW3 8734   0.268   1.378   3.798  0.8263  0.2006  0.1075
 2172SOL    MW4 8735   0.279   1.301   3.758 -0.2392 -0.0467  0.2561
 2173SOL     OW 8736   0.244   1.546   3.914 -0.1503 -0.0241 -0.3089
 2173SOL    HW2 8737   0.235   1.544   4.009  0.8082  1.5799 -0.1549
 2173SOL    HW3 8738   0.171   1.602   3.885  0.8364  1.3062 -0.2974
 2173SOL    MW4 8739   0.233   1.553   3.922  0.1063  0.3630 -0.2871
 2174SOL     OW 8740   0.049   1.696   3.763  0.3620  0.1445  0.5795
 2174SOL    HW2 8741   0.030   1.786   3.788  2.1394  1.2584 -1.8227
 2174SOL    HW3 8742   0.044   1.697   3.667 -0.3871 -2.5200  0.5543
 2174SOL    MW4 8743   0.046   1.708   3.753  0.4977 -0.0602  0.2594
 2175SOL     OW 8744   4.461   1.932   3.898 -0.1137 -0.2733  0.0301
 2175SOL    HW2 8745   4.528   1.989   3.861  1.5382 -1.9121  0.4431
 2175SOL    HW3 8746   4.482   1.928   3.991 -0.5422 -1.1019  0.0998
 2175SOL    MW4 8747   4.473   1.939   3.905  0.0482 -0.5987  0.0939
 2176SOL     OW 8748   0.167   2.066   3.760  0.5735  0.0296  0.6230
 2176SOL    HW2 8749   0.197   2.156   3.768  1.2011  0.0152 -1.3574
 2176SOL    HW3 8750   0.246   2.013   3.766  0.4596 -0.2617 -0.3687
 2176SOL    MW4 8751   0.181   2.071   3.762  0.6413 -0.0107  0.2310
 2177SOL     OW 8752   0.232   2.336   3.854  0.3327  0.4338  0.7918
 2177SOL    HW2 8753   0.311   2.373   3.815  0.6584  0.3690  1.3873
 2177SOL    HW3 8754   0.259   2.308   3.941  0.1106 -1.2946  0.3203
 2177SOL    MW4 8755   0.246   2.337   3.860  0.3463  0.1974  0.8080
 2178SOL     OW 8756   0.270   2.862   3.743  0.0406 -0.4701  0.2740
 2178SOL    HW2 8757   0.269   2.843   3.649  0.2945  1.1439 -0.0718
 2178SOL    HW3 8758   0.196   2.812   3.778 -0.6332 -0.3505 -0.9403
 2178SOL    MW4 8759   0.260   2.853   3.735 -0.0148 -0.2415  0.0684
 2179SOL     OW 8760   0.001   2.770   3.789  0.1567  0.0324  0.0911
 2179SOL    HW2 8761   0.015   2.681   3.820 -2.9786 -0.4782  0.2288
 2179SOL    HW3 8762  -0.006   2.823   3.868 -0.6445 -0.0603  0.0864
 2179SOL    MW4 8763   0.002   2.765   3.803 -0.3627 -0.0472  0.1087
 2180SOL     OW 8764   3.892   2.054   4.348 -0.0625 -0.2345  0.8421
 2180SOL    HW2 8765   3.884   2.147   4.328  1.6473 -0.5923 -1.6300
 2180SOL    HW3 8766   3.804   2.019   4.332  0.1161  0.3553 -1.5791
 2180SOL    MW4 8767   3.879   2.061   4.343  0.1867 -0.2041  0.1965
 2181SOL     OW 8768   0.515   3.233   3.788  0.3387  0.4022  0.8899
 2181SOL    HW2 8769   0.511   3.315   3.837  1.6812 -0.2852  2.1749
 2181SOL    HW3 8770   0.436   3.186   3.815 -0.9833  1.6629 -0.6293
 2181SOL    MW4 8771   0.504   3.238   3.798  0.3414  0.4778  0.8593
 2182SOL     OW 8772   0.012   3.210   3.796 -0.0279  0.2245 -0.1876
 2182SOL    HW2 8773   0.097   3.176   3.824 -0.1979 -0.5677 -0.6270
 2182SOL    HW3 8774   0.026   3.239   3.706 -0.2290  0.0571 -0.2739
 2182SOL    MW4 8775   0.025   3.209   3.788 -0.0768  0.0978 -0.2570
 2183SOL     OW 8776   0.230   3.629   3.751  0.3009 -0.0401  0.1938
 2183SOL    HW2 8777   0.146   3.593   3.782 -0.0166  0.2140 -0.3630
 2183SOL    HW3 8778   0.230   3.719   3.782  1.2742 -0.6161  1.9307
 2183SOL    MW4 8779   0.219   3.636   3.759  0.3874 -0.0827  0.3493
 2184SOL     OW 8780   0.062   3.280   4.267  0.0494 -0.2956 -0.0240
 2184SOL    HW2 8781   0.054   3.362   4.217 -3.0068 -0.5224 -0.0171
 2184SOL    HW3 8782   0.113   3.304   4.344  0.6783  1.1876 -0.8676
 2184SOL    MW4 8783   0.068   3.294   4.271 -0.2709 -0.1297 -0.1345
 2185SOL     OW 8784   0.007   3.484   3.847 -0.1836  0.3432 -0.0584
 2185SOL    HW2 8785   0.016   3.391   3.828 -1.4162  0.2491 -0.2197
 2185SOL    HW3 8786   0.014   3.491   3.942  0.8671  0.2140 -0.1124
 2185SOL    MW4 8787   0.009   3.473   3.857 -0.2076  0.3135 -0.0870
 2186SOL     OW 8788   4.475   4.009   3.698 -0.7164 -0.6934 -0.2717
 2186SOL    HW2 8789   4.421   3.954   3.755 -1.0837  0.3847  0.4406
 2186SOL    HW3 8790   4.564   3.996   3.729 -0.6394 -1.8432 -0.9205
 2186SOL    MW4 8791   4.479   4.000   3.709 -0.7553 -0.7026 -0.2632
 2187SOL     OW 8792   4.455   4.277   3.820  0.3010  0.3179 -0.3634
 2187SOL    HW2 8793   4.544   4.305   3.840  0.5807 -1.0523  0.3971
 2187SOL    HW3 8794   4.465   4.193   3.776 -0.6246 -0.1348  0.2503
 2187SOL    MW4 8795   4.468   4.269   3.817  0.2155  0.0772 -0.1824
 2188SOL     OW 8796   0.229   4.345   3.791 -0.5283 -0.4820 -0.1285
 2188SOL    HW2 8797   0.314   4.316   3.823 -0.2222 -0.8743 -1.2563
 2188SOL    HW3 8798   0.227   4.440   3.808  0.3795 -0.3702 -0.6315
 2188SOL    MW4 8799   0.240   4.354   3.797 -0.3681 -0.5193 -0.3438
 2189SOL     OW 8800   0.694   4.658   3.809 -0.5639  0.3812  0.1000
 2189SOL    HW2 8801   0.679   4.564   3.802  1.4361  0.1198 -1.1934
 2189SOL    HW3 8802   0.623   4.698   3.759 -0.3174 -0.5503 -1.0314
 2189SOL    MW4 8803   0.683   4.651   3.801 -0.2674  0.2236 -0.2201
 2190SOL     OW 8804   0.430   0.090   3.720 -0.0430 -0.7177 -0.4253
 2190SOL    HW2 8805   0.420   0.171   3.771 -0.0648  0.6947 -2.6358
 2190SOL    HW3 8806   0.366   0.030   3.758  0.2011  0.1596  1.4635
 2190SOL    MW4 8807   0.421   0.093   3.732 -0.0136 -0.4156 -0.4678
 2191SOL     OW 8808   0.421   0.314   3.888 -0.1524 -0.0525  0.2003
 2191SOL    HW2 8809   0.353   0.363   3.842 -0.1340  0.3433  0.5933
 2191SOL    HW3 8810   0.436   0.363   3.969 -1.5727 -1.7632  1.5681
 2191SOL    MW4 8811   0.414   0.327   3.893 -0.3374 -0.2260  0.4323
 2192SOL     OW 8812   0.657   0.423   3.743 -0.2031 -0.3671 -0.0164
 2192SOL    HW2 8813   0.737   0.411   3.793  0.2755  2.2269 -0.1061
 2192SOL    HW3 8814   0.588   0.387   3.799  0.5243  1.0540  1.8456
 2192SOL    MW4 8815   0.658   0.417   3.757 -0.0440  0.1627  0.2172
 2193SOL     OW 8816   3.359   0.371   4.706  0.3337 -0.2292 -0.2076
 2193SOL    HW2 8817   3.405   0.292   4.735  0.4560  0.4661  1.5392
 2193SOL    HW3 8818   3.416   0.443   4.733 -0.4828  0.5241 -0.4706
 2193SOL    MW4 8819   3.373   0.370   4.714  0.2418 -0.0381 -0.0114
 2194SOL     OW 8820   0.421   0.892   3.759 -0.3180  0.2884  0.3194
 2194SOL    HW2 8821   0.494   0.831   3.774 -0.1551  0.8666  1.9053
 2194SOL    HW3 8822   0.349   0.855   3.809 -0.5232  0.8154  0.4159
 2194SOL    MW4 8823   0.421   0.879   3.767 -0.3236  0.4342  0.5414
 2195SOL     OW 8824   0.806   0.836   4.273  0.3715  0.5329 -0.1551
 2195SOL    HW2 8825   0.874   0.769   4.265  0.1094  0.5175 -2.3428
 2195SOL    HW3 8826   0.826   0.899   4.204 -0.2116  1.9876  0.9837
 2195SOL    MW4 8827   0.817   0.835   4.263  0.2600  0.7228 -0.2933
 2196SOL     OW 8828   0.665   1.241   3.785  0.1638 -0.0458 -0.0092
 2196SOL    HW2 8829   0.594   1.184   3.814 -2.1153  2.3997 -0.6420
 2196SOL    HW3 8830   0.646   1.260   3.693  0.4992  2.2614  0.3582
 2196SOL    MW4 8831   0.653   1.236   3.776 -0.0926  0.5814 -0.0441
 2197SOL     OW 8832   0.676   1.501   3.870  0.3007 -0.4237  0.3410
 2197SOL    HW2 8833   0.718   1.501   3.956 -1.5463  0.1337  1.2809
 2197SOL    HW3 8834   0.677   1.409   3.843  2.0274 -0.4239  0.3728
 2197SOL    MW4 8835   0.682   1.489   3.878  0.2849 -0.3501  0.4690
 2198SOL     OW 8836   0.482   1.642   3.756 -0.0104  0.0079 -0.5641
 2198SOL    HW2 8837   0.553   1.603   3.807  1.0113 -0.3179 -2.2193
 2198SOL    HW3 8838   0.402   1.610   3.799  0.8157 -2.6038 -0.8943
 2198SOL    MW4 8839   0.481   1.632   3.769  0.2334 -0.3797 -0.8259
 2199SOL     OW 8840   0.429   1.915   3.797  0.4271 -0.2665 -0.4630
 2199SOL    HW2 8841   0.503   1.968   3.768  0.5530 -0.3548 -0.3035
 2199SOL    HW3 8842   0.446   1.828   3.759  0.7531 -0.4655  0.1328
 2199SOL    MW4 8843   0.441   1.910   3.788  0.4868 -0.3043 -0.3633
 2200SOL     OW 8844   0.656   2.049   3.732  0.2887  0.5278 -0.4623
 2200SOL    HW2 8845   0.659   2.137   3.769  0.4979  0.1456  0.4452
 2200SOL    HW3 8846   0.732   2.004   3.770 -0.0496 -0.1653 -0.5952
 2200SOL    MW4 8847   0.667   2.055   3.742  0.2716  0.3858 -0.3598
 2201SOL     OW 8848   0.703   2.322   3.826  0.1668 -0.3439 -0.3579
 2201SOL    HW2 8849   0.782   2.367   3.798  0.3569 -0.4507  0.0063
 2201SOL    HW3 8850   0.632   2.368   3.782  0.2680  0.9762  0.8405
 2201SOL    MW4 8851   0.704   2.334   3.816  0.2052 -0.1841 -0.1519
 2202SOL     OW 8852   0.470   2.436   3.723  0.1246 -0.1474 -0.1553
 2202SOL    HW2 8853   0.478   2.517   3.773  0.7576 -0.4822  0.2871
 2202SOL    HW3 8854   0.467   2.464   3.631  1.9361  0.2884 -0.0999
 2202SOL    MW4 8855   0.471   2.450   3.717  0.4472 -0.1338 -0.0894
 2203SOL     OW 8856   0.469   2.703   3.838 -0.0779 -0.0011  0.0176
 2203SOL    HW2 8857   0.409   2.768   3.802  0.3240 -0.3748 -1.3643
 2203SOL    HW3 8858   0.555   2.745   3.833 -0.0202 -0.0489  0.5749
 2203SOL    MW4 8859   0.473   2.717   3.832 -0.0173 -0.0570 -0.0913
 2204SOL     OW 8860   1.124   2.817   3.811  0.3030 -0.2766 -0.2422
 2204SOL    HW2 8861   1.049   2.765   3.840 -0.8144  0.0983 -2.3744
 2204SOL    HW3 8862   1.199   2.758   3.820 -0.2618 -0.7378  1.6589
 2204SOL    MW4 8863   1.124   2.802   3.816  0.0811 -0.2880 -0.2728
 2205SOL     OW 8864   0.713   2.823   3.791  0.0730 -0.1337  0.2755
 2205SOL    HW2 8865   0.724   2.913   3.822 -1.0477  0.4133 -0.8771
 2205SOL    HW3 8866   0.728   2.828   3.697  0.8230 -1.3169  0.3229
 2205SOL    MW4 8867   0.716   2.836   3.783  0.0241 -0.2177  0.1297
 2206SOL     OW 8868   0.444   1.212   4.196  0.5144  0.1105 -0.0180
 2206SOL    HW2 8869   0.351   1.230   4.210  0.6354  0.7198  0.0214
 2206SOL    HW3 8870   0.448   1.163   4.114  0.2569  1.0623 -0.6073
 2206SOL    MW4 8871   0.432   1.208   4.187  0.4964  0.3164 -0.0911
 2207SOL     OW 8872   1.118   4.650   4.068  0.0037  0.1142  0.1824
 2207SOL    HW2 8873   1.050   4.613   4.124  0.7762 -1.8451 -0.1357
 2207SOL    HW3 8874   1.097   4.618   3.980  0.5343  0.6463 -0.1434
 2207SOL    MW4 8875   1.106   4.641   4.063  0.1756 -0.0744  0.0978
 2208SOL     OW 8876   0.647   3.634   3.765  0.3150  0.1433  0.1764
 2208SOL    HW2 8877   0.660   3.720   3.804 -1.5794  0.5207  0.0306
 2208SOL    HW3 8878   0.639   3.650   3.671  0.0385 -0.2046  0.1389
 2208SOL    MW4 8879   0.648   3.647   3.758  0.0286  0.1471  0.1523
 2209SOL     OW 8880   0.721   3.876   3.879  0.1174 -0.2876 -0.4917
 2209SOL    HW2 8881   0.751   3.845   3.964 -1.2863 -0.4799 -0.0621
 2209SOL    HW3 8882   0.787   3.941   3.853  0.8888 -0.6815  0.4362
 2209SOL    MW4 8883   0.734   3.881   3.887  0.0340 -0.3650 -0.3126
 2210SOL     OW 8884   0.476   4.004   3.766 -0.3159  0.0455 -0.3817
 2210SOL    HW2 8885   0.504   3.982   3.678  0.7898 -0.4377  0.0791
 2210SOL    HW3 8886   0.533   3.952   3.823 -2.3759 -1.2207  0.5850
 2210SOL    MW4 8887   0.487   3.994   3.762 -0.4418 -0.1853 -0.1934
 2211SOL     OW 8888   0.480   4.260   3.915 -0.0008 -0.1821  0.0855
 2211SOL    HW2 8889   0.538   4.298   3.849 -0.3770 -1.0312 -0.7369
 2211SOL    HW3 8890   0.461   4.172   3.883  2.1849 -1.7341  2.7742
 2211SOL    MW4 8891   0.485   4.254   3.902  0.2379 -0.4988  0.3319
 2212SOL     OW 8892   0.653   4.392   3.738 -0.8369  0.2193 -0.1520
 2212SOL    HW2 8893   0.734   4.342   3.748 -2.8016 -3.2780 -1.0298
 2212SOL    HW3 8894   0.643   4.404   3.644 -1.9252 -0.4289 -0.1330
 2212SOL    MW4 8895   0.662   4.387   3.727 -1.2397 -0.3276 -0.2651
 2213SOL     OW 8896   1.112   4.601   3.794 -0.0644  0.1451  0.8832
 2213SOL    HW2 8897   1.116   4.506   3.787  0.5271  0.1131  1.5398
 2213SOL    HW3 8898   1.202   4.630   3.776  0.1440  0.4541  2.3588
 2213SOL    MW4 8899   1.125   4.592   3.791  0.0411  0.1812  1.1644
 2214SOL     OW 8900   0.932   0.142   3.747 -0.2495 -0.1883 -0.2825
 2214SOL    HW2 8901   1.009   0.090   3.768 -1.6105 -2.1026  0.0817
 2214SOL    HW3 8902   0.858   0.087   3.772 -1.7267  2.4065  1.2244
 2214SOL    MW4 8903   0.932   0.128   3.753 -0.6240 -0.0985 -0.0355
 2215SOL     OW 8904   0.915   0.386   3.881 -0.2244  0.1551 -0.3626
 2215SOL    HW2 8905   0.921   0.300   3.838  1.8529 -0.8838  1.8899
 2215SOL    HW3 8906   0.983   0.438   3.841  0.8644 -0.4094  0.7117
 2215SOL    MW4 8907   0.924   0.381   3.870  0.1934 -0.0564  0.0763
 2216SOL     OW 8908   1.144   0.522   3.759  0.2778 -0.1544  0.4259
 2216SOL    HW2 8909   1.207   0.483   3.819 -1.3830 -0.1740  2.2344
 2216SOL    HW3 8910   1.145   0.615   3.781  0.6790  0.0578 -0.4877
 2216SOL    MW4 8911   1.152   0.529   3.770  0.1115 -0.1289  0.5438
 2217SOL     OW 8912   1.146   0.804   3.840  0.0364 -0.2110 -0.1857
 2217SOL    HW2 8913   1.057   0.830   3.815 -0.3357 -1.6680 -0.4175
 2217SOL    HW3 8914   1.201   0.876   3.811 -0.7508 -0.4805 -2.4427
 2217SOL    MW4 8915   1.141   0.817   3.833 -0.1165 -0.4387 -0.5140
 2218SOL     OW 8916   0.880   0.877   3.759  0.2036 -0.0027 -0.2873
 2218SOL    HW2 8917   0.802   0.822   3.770  0.3799  0.1563  1.8785
 2218SOL    HW3 8918   0.894   0.880   3.664 -1.6925 -1.0526 -0.6172
 2218SOL    MW4 8919   0.872   0.870   3.748 -0.0233 -0.1202 -0.0453
 2219SOL     OW 8920   0.915   1.130   3.871  0.1718 -0.3838  0.6004
 2219SOL    HW2 8921   0.834   1.170   3.839  0.7398  0.3074  0.0198
 2219SOL    HW3 8922   0.907   1.037   3.846 -0.3201 -0.2601  0.2956
 2219SOL    MW4 8923   0.903   1.123   3.863  0.1818 -0.2762  0.4835
 2220SOL     OW 8924   1.106   1.277   3.748  0.1016  0.0958  0.0313
 2220SOL    HW2 8925   1.116   1.368   3.775  1.7070 -0.7678  2.4996
 2220SOL    HW3 8926   1.033   1.244   3.801 -0.3030 -0.1360 -0.6609
 2220SOL    MW4 8927   1.097   1.284   3.758  0.2600 -0.0488  0.2658
 2221SOL     OW 8928   1.167   1.526   3.822  0.0171  0.3249  0.2183
 2221SOL    HW2 8929   1.172   1.535   3.917 -1.7435  2.1365  0.1748
 2221SOL    HW3 8930   1.227   1.593   3.789 -0.1581  0.4015  0.0545
 2221SOL    MW4 8931   1.176   1.536   3.830 -0.2383  0.5741  0.1910
 2222SOL     OW 8932   0.881   1.643   3.743 -0.2115  0.0894  0.5918
 2222SOL    HW2 8933   0.960   1.594   3.766  0.5306  0.6939 -0.6368
 2222SOL    HW3 8934   0.811   1.599   3.791  0.9896  0.0629  2.3678
 2222SOL    MW4 8935   0.882   1.630   3.753  0.0448  0.1657  0.6640
 2223SOL     OW 8936   0.891   1.892   3.838 -0.4420  0.0512 -0.3013
 2223SOL    HW2 8937   0.875   1.801   3.813 -0.3585  0.1107 -0.5696
 2223SOL    HW3 8938   0.958   1.886   3.906 -2.2667 -0.2642  1.5108
 2223SOL    MW4 8939   0.898   1.879   3.844 -0.6717  0.0174 -0.0975
 2224SOL     OW 8940   1.090   2.032   3.697  0.0544  0.1107  0.3407
 2224SOL    HW2 8941   1.009   1.997   3.734 -0.8772  0.9177 -0.9129
 2224SOL    HW3 8942   1.077   2.028   3.603  1.9397 -0.8137  0.1090
 2224SOL    MW4 8943   1.078   2.027   3.690  0.1801  0.0951  0.1450
 2225SOL     OW 8944   1.129   2.287   3.806  0.4950 -0.1303 -0.0324
 2225SOL    HW2 8945   1.141   2.267   3.899  0.1704  0.0247  0.0442
 2225SOL    HW3 8946   1.107   2.203   3.766 -1.1413  0.1025  0.3344
 2225SOL    MW4 8947   1.128   2.273   3.813  0.2363 -0.0789  0.0260
 2226SOL     OW 8948   0.905   2.450   3.717  0.0025 -0.4619  0.2740
 2226SOL    HW2 8949   0.909   2.530   3.769  0.0898  0.1817 -0.7088
 2226SOL    HW3 8950   0.990   2.408   3.730  0.1976 -0.0650  0.2826
 2226SOL    MW4 8951   0.916   2.455   3.725  0.0398 -0.3245  0.1459
 2227SOL     OW 8952   2.981   1.803   4.140  0.0330  0.0817 -0.0193
 2227SOL    HW2 8953   3.006   1.764   4.224  1.8555  3.3063  1.0171
 2227SOL    HW3 8954   2.887   1.816   4.147  0.1235  0.1001  1.4539
 2227SOL    MW4 8955   2.972   1.800   4.152  0.2856  0.5095  0.3119
 2228SOL     OW 8956   1.141   3.106   3.886  0.4847 -0.4110 -0.3644
 2228SOL    HW2 8957   1.143   3.107   3.982 -0.0641 -0.1892 -0.3572
 2228SOL    HW3 8958   1.130   3.014   3.864  0.4857 -0.4482 -0.2127
 2228SOL    MW4 8959   1.140   3.094   3.896  0.4125 -0.3865 -0.3433
 2229SOL     OW 8960   1.357   2.636   3.832 -0.6391 -0.0511  0.1606
 2229SOL    HW2 8961   1.351   2.548   3.795  0.5203  0.1690 -0.5940
 2229SOL    HW3 8962   1.364   2.623   3.926 -0.8515 -0.7504  0.0799
 2229SOL    MW4 8963   1.357   2.623   3.839 -0.5141 -0.1142  0.0503
 2230SOL     OW 8964   0.937   3.271   3.774 -0.2101  0.1570  0.2760
 2230SOL    HW2 8965   1.015   3.236   3.818 -0.5279 -1.2999 -0.2930
 2230SOL    HW3 8966   0.955   3.257   3.681 -1.2583 -0.4098  0.1575
 2230SOL    MW4 8967   0.950   3.265   3.768 -0.3903 -0.1099  0.1853
 2231SOL     OW 8968   0.866   3.523   3.874 -0.5384 -0.2750 -0.9368
 2231SOL    HW2 8969   0.869   3.441   3.825 -1.6012 -0.6221 -0.4445
 2231SOL    HW3 8970   0.799   3.575   3.830 -0.1302  0.1807 -1.0206
 2231SOL    MW4 8971   0.857   3.519   3.862 -0.6247 -0.2608 -0.8829
 2232SOL     OW 8972   1.124   3.584   3.755 -0.1450  0.7373 -0.3943
 2232SOL    HW2 8973   1.134   3.673   3.787 -0.7023  0.5914  0.1882
 2232SOL    HW3 8974   1.043   3.553   3.794 -0.0306  0.0236 -0.7132
 2232SOL    MW4 8975   1.115   3.592   3.764 -0.2035  0.6242 -0.3595
 2233SOL     OW 8976   1.133   3.853   3.857 -0.2041  0.3268  0.3254
 2233SOL    HW2 8977   1.159   3.828   3.946  0.9143 -2.1824 -0.6570
 2233SOL    HW3 8978   1.216   3.874   3.813 -0.5899  0.0153 -0.5612
 2233SOL    MW4 8979   1.148   3.852   3.863 -0.1075 -0.0451  0.0789
 2234SOL     OW 8980   0.932   4.016   3.761  0.0122 -0.6327  0.2163
 2234SOL    HW2 8981   0.987   3.948   3.798  2.5664  0.8051 -0.7657
 2234SOL    HW3 8982   0.924   3.993   3.668  1.1387  0.5359 -0.1829
 2234SOL    MW4 8983   0.938   4.004   3.753  0.4978 -0.2890  0.0341
 2235SOL     OW 8984   0.889   4.277   3.829 -0.1920  0.3556 -0.2702
 2235SOL    HW2 8985   0.896   4.276   3.925 -0.5079 -1.8134 -0.2482
 2235SOL    HW3 8986   0.906   4.186   3.803 -2.4246  0.4346 -2.0981
 2235SOL    MW4 8987   0.892   4.265   3.838 -0.5283  0.0801 -0.5083
 2236SOL     OW 8988   1.159   4.332   3.763 -0.7771  0.1155 -0.0375
 2236SOL    HW2 8989   1.069   4.308   3.784 -0.9013  1.1783  0.6996
 2236SOL    HW3 8990   1.156   4.356   3.670 -1.2441  0.0880 -0.0303
 2236SOL    MW4 8991   1.147   4.332   3.753 -0.8551  0.2522  0.0608
 2237SOL     OW 8992   1.800   4.352   4.160  0.3443  0.0860 -0.0891
 2237SOL    HW2 8993   1.815   4.348   4.066 -0.7760  1.2655 -0.3260
 2237SOL    HW3 8994   1.766   4.265   4.182  3.5687 -1.2833 -0.1991
 2237SOL    MW4 8995   1.797   4.340   4.151  0.6218  0.0615 -0.1349
 2238SOL     OW 8996   1.369   0.099   3.748  0.2743 -0.7009  0.0249
 2238SOL    HW2 8997   1.370   0.184   3.793  0.5052 -1.4343  1.4457
 2238SOL    HW3 8998   1.445   0.053   3.783  0.6580 -1.1732 -1.3971
 2238SOL    MW4 8999   1.379   0.104   3.759  0.3554 -0.8600  0.0250
 2239SOL     OW 9000   1.347   0.353   3.891  0.0131 -0.1961  0.4917
 2239SOL    HW2 9001   1.407   0.421   3.859  0.1400 -0.2655  0.5810
 2239SOL    HW3 9002   1.375   0.336   3.981 -1.1789  0.9436  1.0953
 2239SOL    MW4 9003   1.359   0.360   3.899 -0.1276 -0.0548  0.5832
 2240SOL     OW 9004   1.539   0.544   3.768  0.0228  0.5804  0.1809
 2240SOL    HW2 9005   1.615   0.494   3.799  0.8313 -0.0895 -2.7656
 2240SOL    HW3 9006   1.556   0.634   3.797  0.8615  0.0489  1.4038
 2240SOL    MW4 9007   1.551   0.549   3.776  0.2400  0.4219 -0.0465
 2241SOL     OW 9008   1.576   0.803   3.845 -0.3447  0.0579 -0.0479
 2241SOL    HW2 9009   1.581   0.806   3.940  0.6169 -1.3515 -0.0397
 2241SOL    HW3 9010   1.659   0.838   3.815  0.9366 -3.0146 -0.2799
 2241SOL    MW4 9011   1.587   0.808   3.853 -0.0489 -0.5333 -0.0777
 2242SOL     OW 9012   1.349   0.973   3.791 -0.2242 -0.0130 -0.1237
 2242SOL    HW2 9013   1.426   0.917   3.800 -0.5182 -0.4453 -0.2865
 2242SOL    HW3 9014   1.372   1.053   3.839  0.2247 -0.2418  0.0471
 2242SOL    MW4 9015   1.362   0.977   3.799 -0.2037 -0.1003 -0.1225
 2243SOL     OW 9016   1.341   1.227   3.898 -0.1390 -0.1259 -0.2301
 2243SOL    HW2 9017   1.415   1.248   3.840 -0.8740 -0.6071 -1.3581
 2243SOL    HW3 9018   1.264   1.246   3.846 -0.8190  0.4935  0.9993
 2243SOL    MW4 9019   1.341   1.232   3.883 -0.3257 -0.1076 -0.2170
 2244SOL     OW 9020   1.556   1.306   3.715  0.5910  0.2970 -0.2046
 2244SOL    HW2 9021   1.633   1.266   3.757 -0.6037 -1.1114  0.6904
 2244SOL    HW3 9022   1.556   1.397   3.746  0.4889 -0.3687  1.7861
 2244SOL    MW4 9023   1.566   1.313   3.725  0.4197  0.0232  0.1762
 2245SOL     OW 9024   1.565   1.551   3.868 -0.2028 -0.0934  0.3370
 2245SOL    HW2 9025   1.571   1.548   3.963 -0.0240  0.4656  0.3456
 2245SOL    HW3 9026   1.654   1.573   3.839 -0.5375  0.9606  0.1019
 2245SOL    MW4 9027   1.578   1.553   3.877 -0.2233  0.1194  0.3071
 2246SOL     OW 9028   1.377   1.662   3.704 -0.5738  0.2269  0.2561
 2246SOL    HW2 9029   1.360   1.752   3.731  0.9599  1.0609 -1.4463
 2246SOL    HW3 9030   1.446   1.632   3.763 -0.7712  0.3274  0.5378
 2246SOL    MW4 9031   1.384   1.670   3.715 -0.3974  0.3504  0.0687
 2247SOL     OW 9032   1.329   1.962   3.825  0.2827  0.0442  0.4567
 2247SOL    HW2 9033   1.248   1.993   3.785  0.3768  0.1373  0.3373
 2247SOL    HW3 9034   1.317   1.975   3.919 -0.2158 -0.8055  0.5151
 2247SOL    MW4 9035   1.317   1.967   3.832  0.2294 -0.0557  0.4487
 2248SOL     OW 9036   1.595   2.040   3.715 -0.6548 -0.5198  0.1343
 2248SOL    HW2 9037   1.507   2.020   3.747 -0.9830  1.2066  0.3925
 2248SOL    HW3 9038   1.586   2.042   3.620 -0.6374 -1.4537  0.1113
 2248SOL    MW4 9039   1.582   2.038   3.707 -0.6958 -0.4153  0.1655
 2249SOL     OW 9040   1.610   2.291   3.826 -0.1145 -0.0264  0.3446
 2249SOL    HW2 9041   1.616   2.206   3.782  1.7002  0.1421  0.2339
 2249SOL    HW3 9042   1.691   2.336   3.803 -1.5639  2.2135 -0.5543
 2249SOL    MW4 9043   1.621   2.286   3.817 -0.0662  0.2913  0.2112
 2250SOL     OW 9044   1.378   2.387   3.708  0.1901  0.0886  0.2756
 2250SOL    HW2 9045   1.450   2.346   3.755  1.5535  0.9182 -1.0431
 2250SOL    HW3 9046   1.301   2.335   3.731  1.1267 -0.5393  2.0475
 2250SOL    MW4 9047   1.377   2.375   3.717  0.4934  0.1152  0.3352
 2251SOL     OW 9048   2.437   3.283   4.592 -0.3941  0.1584  0.0975
 2251SOL    HW2 9049   2.533   3.279   4.592 -0.2909  1.9720  0.0804
 2251SOL    HW3 9050   2.418   3.377   4.600 -2.1665 -0.1873  0.0032
 2251SOL    MW4 9051   2.448   3.295   4.593 -0.6144  0.3521  0.0830
 2252SOL     OW 9052   1.599   2.740   3.751 -0.0122 -0.1110 -0.3918
 2252SOL    HW2 9053   1.520   2.691   3.772  0.0807 -0.4737 -0.8716
 2252SOL    HW3 9054   1.594   2.755   3.657  0.9078 -0.8934 -0.5703
 2252SOL    MW4 9055   1.588   2.735   3.741  0.1215 -0.2623 -0.4787
 2253SOL     OW 9056   1.615   3.047   3.791  0.6493  0.1291  0.0015
 2253SOL    HW2 9057   1.612   3.036   3.886 -1.8674  0.3683 -0.0100
 2253SOL    HW3 9058   1.599   2.959   3.757  1.8352 -0.0091 -0.2145
 2253SOL    MW4 9059   1.613   3.034   3.799  0.4737  0.1423 -0.0286
 2254SOL     OW 9060   1.384   3.213   3.753 -0.1650  0.0027  0.1619
 2254SOL    HW2 9061   1.305   3.175   3.792 -0.3010  0.2448  0.1245
 2254SOL    HW3 9062   1.455   3.156   3.783 -0.4286 -0.5896 -0.3237
 2254SOL    MW4 9063   1.383   3.201   3.762 -0.2177 -0.0436  0.0932
 2255SOL     OW 9064   1.551   3.658   3.753 -0.0636  0.0260  0.0308
 2255SOL    HW2 9065   1.483   3.597   3.781  0.3645 -0.5323 -0.1301
 2255SOL    HW3 9066   1.633   3.609   3.761  0.1642  0.1520 -1.3021
 2255SOL    MW4 9067   1.553   3.644   3.758  0.0230 -0.0312 -0.1664
 2256SOL     OW 9068   1.638   3.921   3.846  0.5144 -0.6412  0.1719
 2256SOL    HW2 9069   1.664   3.913   3.938  0.4877  0.2579  0.2692
 2256SOL    HW3 9070   1.612   3.833   3.820 -1.5136 -0.5082  1.6483
 2256SOL    MW4 9071   1.638   3.909   3.855  0.2434 -0.5050  0.3798
 2257SOL     OW 9072   0.825   3.504   4.146  0.4823  0.7225 -0.1006
 2257SOL    HW2 9073   0.828   3.505   4.051 -0.9047  0.2969 -0.1612
 2257SOL    HW3 9074   0.736   3.475   4.167  0.3895  2.0017  1.3269
 2257SOL    MW4 9075   0.814   3.500   4.136  0.2870  0.8352  0.0796
 2258SOL     OW 9076   1.369   3.976   3.741 -0.3725  0.5615 -0.6496
 2258SOL    HW2 9077   1.349   4.061   3.779 -0.2643  1.2908 -2.1634
 2258SOL    HW3 9078   1.457   3.956   3.770 -0.4457  0.9158 -0.1816
 2258SOL    MW4 9079   1.378   3.985   3.750 -0.3679  0.7043 -0.7877
 2259SOL     OW 9080   1.590   0.233   4.313  0.0439 -0.1803 -0.3019
 2259SOL    HW2 9081   1.585   0.141   4.288 -1.7087 -0.5544  1.2962
 2259SOL    HW3 9082   1.656   0.235   4.382  1.3729  0.0570 -1.5770
 2259SOL    MW4 9083   1.598   0.221   4.319 -0.0120 -0.1984 -0.2594
 2260SOL     OW 9084   1.610   4.364   3.787 -0.0890 -0.3368  0.6130
 2260SOL    HW2 9085   1.610   4.362   3.691 -0.7177 -2.8996  0.6374
 2260SOL    HW3 9086   1.699   4.340   3.812 -0.5397 -2.0079  0.6701
 2260SOL    MW4 9087   1.622   4.361   3.777 -0.2315 -0.8955  0.6237
 2261SOL     OW 9088   2.024   4.655   3.817 -0.2883  0.0954 -0.0226
 2261SOL    HW2 9089   2.089   4.707   3.771  0.3660  0.6777  1.5515
 2261SOL    HW3 9090   2.035   4.566   3.782  0.8698  0.3291 -0.2478
 2261SOL    MW4 9091   2.034   4.650   3.806 -0.0491  0.2030  0.1552
 2262SOL     OW 9092   1.772   0.110   3.798  0.2550 -0.0450  0.1784
 2262SOL    HW2 9093   1.849   0.060   3.825  0.4679  1.2848  2.0842
 2262SOL    HW3 9094   1.700   0.072   3.849  0.2542  0.9572  0.9368
 2262SOL    MW4 9095   1.772   0.098   3.808  0.2830  0.2626  0.5300
 2263SOL     OW 9096   1.742   0.382   3.853  0.2069  0.0484  0.2579
 2263SOL    HW2 9097   1.760   0.291   3.828  1.0529  0.2436  0.1542
 2263SOL    HW3 9098   1.748   0.382   3.949 -0.2211 -0.0928  0.2871
 2263SOL    MW4 9099   1.745   0.370   3.862  0.2620  0.0556  0.2482
 2264SOL     OW 9100   2.004   0.476   3.788 -0.5189  0.2620  0.0981
 2264SOL    HW2 9101   1.913   0.446   3.794 -0.1824 -0.8610 -0.1804
 2264SOL    HW3 9102   2.025   0.470   3.694 -0.5233  1.6227  0.0103
 2264SOL    MW4 9103   1.995   0.471   3.776 -0.4750  0.2934  0.0496
 2265SOL     OW 9104   2.002   0.735   3.905 -0.0541  0.3209  0.1756
 2265SOL    HW2 9105   2.005   0.743   4.000  0.4988  0.9924  0.0998
 2265SOL    HW3 9106   2.002   0.640   3.889  0.4279  0.2148  0.8202
 2265SOL    MW4 9107   2.002   0.723   3.915  0.0825  0.3955  0.2506
 2266SOL     OW 9108   1.819   0.912   3.786 -0.7380  0.3927 -0.2113
 2266SOL    HW2 9109   1.880   0.848   3.824  0.6608  1.8416  0.0180
 2266SOL    HW3 9110   1.823   0.895   3.692 -1.0592 -0.4454 -0.0825
 2266SOL    MW4 9111   1.827   0.901   3.779 -0.5958  0.4733 -0.1640
 2267SOL     OW 9112   3.611   3.900   4.508 -0.2591 -0.7003  0.3137
 2267SOL    HW2 9113   3.603   3.931   4.418 -1.6064  0.0281  0.6640
 2267SOL    HW3 9114   3.548   3.828   4.514 -0.5073 -0.4483  0.7889
 2267SOL    MW4 9115   3.601   3.895   4.497 -0.4699 -0.5708  0.4225
 2268SOL     OW 9116   0.618   0.410   4.638  0.5546 -0.1094 -0.4991
 2268SOL    HW2 9117   0.688   0.474   4.643  1.9905 -1.7590  1.6792
 2268SOL    HW3 9118   0.542   0.454   4.676  1.9044 -0.1265  2.3741
 2268SOL    MW4 9119   0.617   0.424   4.644  0.9221 -0.3293  0.1678
 2269SOL     OW 9120   2.040   2.017   3.781 -0.4585  0.0170  0.0412
 2269SOL    HW2 9121   2.122   1.974   3.806 -0.9723 -1.3804 -0.6453
 2269SOL    HW3 9122   2.045   2.026   3.686 -1.3333 -0.5659 -0.0673
 2269SOL    MW4 9123   2.051   2.012   3.772 -0.6416 -0.2444 -0.0637
 2270SOL     OW 9124   1.793   1.619   3.747 -0.4536  0.2415 -0.6772
 2270SOL    HW2 9125   1.799   1.709   3.779 -0.5265 -0.0926  0.2945
 2270SOL    HW3 9126   1.776   1.628   3.653  0.9022  1.2385 -0.8485
 2270SOL    MW4 9127   1.792   1.632   3.739 -0.2844  0.3289 -0.5717
 2271SOL     OW 9128   2.021   1.251   4.755 -0.2014 -0.0654  0.1296
 2271SOL    HW2 9129   2.107   1.212   4.739 -0.3077 -1.3911  2.5017
 2271SOL    HW3 9130   2.032   1.344   4.736  1.2446 -0.5379 -1.4066
 2271SOL    MW4 9131   2.034   1.258   4.751 -0.0246 -0.3027  0.2398
 2272SOL     OW 9132   1.804   1.888   3.796 -0.3479 -0.0534  0.4933
 2272SOL    HW2 9133   1.889   1.932   3.791 -0.4516  0.1205  0.2460
 2272SOL    HW3 9134   1.742   1.951   3.757 -0.2145 -1.1279 -1.5565
 2272SOL    MW4 9135   1.807   1.902   3.790 -0.3440 -0.1721  0.1898
 2273SOL     OW 9136   2.512   2.344   3.837 -0.0969  0.5013  0.0578
 2273SOL    HW2 9137   2.508   2.358   3.932 -1.5751 -1.0289  0.2518
 2273SOL    HW3 9138   2.439   2.394   3.802  0.6750  1.3737 -0.3389
 2273SOL    MW4 9139   2.502   2.352   3.845 -0.1900  0.4144  0.0310
 2274SOL     OW 9140   1.862   2.401   3.739 -0.0356 -0.2033  0.2110
 2274SOL    HW2 9141   1.854   2.488   3.779  1.1634  0.0713 -0.1308
 2274SOL    HW3 9142   1.855   2.417   3.645  1.1457 -0.3585  0.0970
 2274SOL    MW4 9143   1.860   2.415   3.732  0.2784 -0.1876  0.1509
 2275SOL     OW 9144   1.864   2.642   3.849  0.5040  0.4922  0.0779
 2275SOL    HW2 9145   1.857   2.621   3.942 -0.3903  0.7158  0.0646
 2275SOL    HW3 9146   1.775   2.663   3.822  0.6883  0.0208 -0.9298
 2275SOL    MW4 9147   1.851   2.642   3.858  0.4102  0.4594 -0.0567
 2276SOL     OW 9148   2.068   2.805   3.748  0.0493 -0.4271  0.2015
 2276SOL    HW2 9149   2.147   2.789   3.800 -0.8584 -4.3781  0.5561
 2276SOL    HW3 9150   2.001   2.749   3.788 -1.6157 -0.9135 -3.0587
 2276SOL    MW4 9151   2.069   2.795   3.760 -0.2899 -1.0123 -0.1819
 2277SOL     OW 9152   2.040   3.081   3.842  0.3042 -0.0168 -0.5122
 2277SOL    HW2 9153   2.055   2.990   3.815  1.5776  0.3046 -0.9712
 2277SOL    HW3 9154   2.058   3.081   3.936 -2.3635 -0.7731  0.0385
 2277SOL    MW4 9155   2.045   3.069   3.851  0.1202 -0.0739 -0.5000
 2278SOL     OW 9156   1.819   3.241   3.757 -0.2474 -0.1871 -0.1023
 2278SOL    HW2 9157   1.899   3.202   3.791 -0.5889 -0.7519  0.0637
 2278SOL    HW3 9158   1.752   3.174   3.769 -0.8006  0.3738 -0.0087
 2278SOL    MW4 9159   1.821   3.227   3.763 -0.3655 -0.1874 -0.0679
 2279SOL     OW 9160   1.820   3.516   3.811  0.3366  0.0064 -0.1691
 2279SOL    HW2 9161   1.902   3.552   3.778  0.1957  0.3249 -0.1679
 2279SOL    HW3 9162   1.826   3.422   3.794 -0.0650  0.2657 -1.8050
 2279SOL    MW4 9163   1.831   3.508   3.804  0.2650  0.0827 -0.3848
 2280SOL     OW 9164   2.039   3.876   3.866 -0.5396  0.2401 -0.2453
 2280SOL    HW2 9165   2.108   3.927   3.825 -0.1243 -0.8428 -0.9088
 2280SOL    HW3 9166   2.048   3.788   3.829 -1.7918 -0.1014  0.2243
 2280SOL    MW4 9167   2.049   3.871   3.856 -0.6502  0.0522 -0.2708
 2281SOL     OW 9168   1.890   3.609   4.283 -0.3804  0.0306 -0.4230
 2281SOL    HW2 9169   1.913   3.679   4.222 -1.4716  0.7656 -0.0119
 2281SOL    HW3 9170   1.870   3.534   4.228 -0.4257  0.4097 -0.9251
 2281SOL    MW4 9171   1.890   3.608   4.268 -0.5302  0.1771 -0.4354
 2282SOL     OW 9172   1.858   4.030   3.741  0.1135 -0.3823  0.3388
 2282SOL    HW2 9173   1.922   3.977   3.789 -0.0557 -0.3028  0.6534
 2282SOL    HW3 9174   1.773   3.997   3.770  0.0073 -1.0270 -0.6690
 2282SOL    MW4 9175   1.855   4.018   3.751  0.0772 -0.4573  0.2472
 2283SOL     OW 9176   1.862   4.284   3.878  0.2935  0.0835 -0.7527
 2283SOL    HW2 9177   1.936   4.326   3.834  1.5915 -0.0405  1.2723
 2283SOL    HW3 9178   1.860   4.195   3.842  2.3703 -0.5352  0.6288
 2283SOL    MW4 9179   1.871   4.278   3.867  0.7386 -0.0143 -0.3033
 2284SOL     OW 9180   2.076   4.388   3.749  0.0585 -0.6301  0.5833
 2284SOL    HW2 9181   2.162   4.354   3.774  0.9819  0.9912 -0.3185
 2284SOL    HW3 9182   2.078   4.393   3.654  0.2215  2.5180  0.6910
 2284SOL    MW4 9183   2.087   4.385   3.740  0.2017 -0.0010  0.4783
 2285SOL     OW 9184   2.492   4.431   3.690  0.4391 -0.1977 -0.0496
 2285SOL    HW2 9185   2.421   4.378   3.726  0.2776 -0.3943 -0.6470
 2285SOL    HW3 9186   2.474   4.520   3.721  0.1123 -0.3019  0.0631
 2285SOL    MW4 9187   2.480   4.436   3.699  0.3748 -0.2379 -0.1132
 2286SOL     OW 9188   2.224   0.157   3.695  0.1572 -0.2462  0.1995
 2286SOL    HW2 9189   2.302   0.101   3.703 -0.1834 -0.6148  0.9912
 2286SOL    HW3 9190   2.211   0.165   3.600  0.7168 -0.8041  0.0659
 2286SOL    MW4 9191   2.233   0.151   3.683  0.1864 -0.3684  0.2863
 2287SOL     OW 9192   2.234   0.361   3.887  0.1348 -0.0297  0.0149
 2287SOL    HW2 9193   2.240   0.285   3.828  0.5808 -0.2106  0.2930
 2287SOL    HW3 9194   2.149   0.400   3.866  0.5594  0.2754 -1.2007
 2287SOL    MW4 9195   2.223   0.356   3.876  0.2494 -0.0133 -0.1087
 2288SOL     OW 9196   2.475   0.488   3.798  0.2669  0.3791  0.1307
 2288SOL    HW2 9197   2.388   0.457   3.823  0.2821 -0.0808 -0.3610
 2288SOL    HW3 9198   2.471   0.494   3.702  0.1307  2.3248  0.2318
 2288SOL    MW4 9199   2.463   0.485   3.788  0.2506  0.5752  0.0792
 2289SOL     OW 9200   2.454   0.755   3.887 -0.1071  0.4120 -0.3863
 2289SOL    HW2 9201   2.378   0.793   3.843  0.4377  0.5945 -1.1898
 2289SOL    HW3 9202   2.463   0.668   3.849  0.4351  0.6126 -0.7347
 2289SOL    MW4 9203   2.445   0.749   3.876  0.0362  0.4625 -0.5381
 2290SOL     OW 9204   2.225   0.870   3.781  0.0321 -0.0076  0.0966
 2290SOL    HW2 9205   2.149   0.817   3.802  1.3433 -1.9466  0.1019
 2290SOL    HW3 9206   2.220   0.882   3.686 -0.2495 -0.1847  0.0891
 2290SOL    MW4 9207   2.214   0.865   3.771  0.1681 -0.2868  0.0963
 2291SOL     OW 9208   2.789   2.985   4.541 -0.7612 -0.0931 -0.5034
 2291SOL    HW2 9209   2.780   2.956   4.451  0.7039 -0.5397 -0.5231
 2291SOL    HW3 9210   2.724   2.934   4.589 -0.0825 -1.4570 -0.9830
 2291SOL    MW4 9211   2.779   2.974   4.536 -0.4783 -0.3319 -0.5689
 2292SOL     OW 9212   2.475   1.257   3.766 -0.4306 -0.4550  0.4179
 2292SOL    HW2 9213   2.464   1.347   3.797  0.1248  0.4045 -1.7425
 2292SOL    HW3 9214   2.569   1.239   3.776 -0.3943 -0.4773  0.0448
 2292SOL    MW4 9215   2.486   1.266   3.771 -0.3524 -0.3445  0.0834
 2293SOL     OW 9216   3.223   1.014   4.372  0.4022 -0.4602 -0.2153
 2293SOL    HW2 9217   3.245   1.064   4.450  1.2150 -0.4718 -0.4394
 2293SOL    HW3 9218   3.231   0.922   4.400 -2.1280 -0.5059  0.5036
 2293SOL    MW4 9219   3.227   1.008   4.386  0.1757 -0.4677 -0.1497
 2294SOL     OW 9220   1.775   1.182   3.866 -0.0595 -0.1608 -0.0015
 2294SOL    HW2 9221   1.783   1.087   3.854  2.8642 -0.0516  0.6529
 2294SOL    HW3 9222   1.849   1.218   3.818 -1.0456  1.8136 -0.0773
 2294SOL    MW4 9223   1.786   1.174   3.858  0.1962  0.1141  0.0749
 2295SOL     OW 9224   2.279   2.490   3.730 -0.5108  0.1975  0.2869
 2295SOL    HW2 9225   2.268   2.496   3.635 -1.0857 -1.6421  0.2242
 2295SOL    HW3 9226   2.208   2.433   3.759 -0.0322  0.3303  1.7711
 2295SOL    MW4 9227   2.268   2.483   3.722 -0.5236 -0.0279  0.4747
 2296SOL     OW 9228   2.468   2.088   3.457 -0.2502  0.3397 -0.4363
 2296SOL    HW2 9229   2.545   2.032   3.452  0.3397  0.9692  1.0521
 2296SOL    HW3 9230   2.396   2.035   3.422  0.2592 -1.3983  1.0625
 2296SOL    MW4 9231   2.469   2.074   3.452 -0.1054  0.1934 -0.0422
 2297SOL     OW 9232   2.731   2.499   3.771  0.5304 -0.0774  0.1757
 2297SOL    HW2 9233   2.645   2.460   3.787  0.4460  0.1572  0.2812
 2297SOL    HW3 9234   2.792   2.438   3.813  0.4347 -0.3535 -0.0778
 2297SOL    MW4 9235   2.728   2.486   3.779  0.5066 -0.0827  0.1562
 2298SOL     OW 9236   0.748   3.087   3.860 -0.7421 -0.0320  0.1232
 2298SOL    HW2 9237   0.813   3.155   3.845 -1.0128 -0.0158 -1.0427
 2298SOL    HW3 9238   0.665   3.128   3.835 -0.9143 -0.7640 -0.5032
 2298SOL    MW4 9239   0.746   3.101   3.855 -0.8005 -0.1264 -0.1132
 2299SOL     OW 9240   0.828   3.147   4.540 -0.4328 -0.1574 -0.2159
 2299SOL    HW2 9241   0.913   3.190   4.539 -0.0918 -0.7850  0.5972
 2299SOL    HW3 9242   0.767   3.214   4.571  0.1108 -0.2813  1.1585
 2299SOL    MW4 9243   0.831   3.161   4.544 -0.3160 -0.2565  0.0730
 2300SOL     OW 9244   2.510   3.028   3.700  0.2546 -0.1897  0.1461
 2300SOL    HW2 9245   2.438   3.085   3.726 -0.4554  0.3285 -2.7266
 2300SOL    HW3 9246   2.477   2.981   3.623  2.2784 -1.3918 -0.0263
 2300SOL    MW4 9247   2.496   3.029   3.693  0.4280 -0.2799 -0.2558
 2301SOL     OW 9248   2.278   3.215   3.741 -0.1534  0.1178  0.3838
 2301SOL    HW2 9249   2.195   3.177   3.773  0.7346 -0.5480  1.9565
 2301SOL    HW3 9250   2.290   3.293   3.794  0.9392 -0.5713  1.1721
 2301SOL    MW4 9251   2.268   3.220   3.752  0.1080 -0.0608  0.6952
 2302SOL     OW 9252   1.384   0.655   4.261  0.5497 -0.3131  0.0494
 2302SOL    HW2 9253   1.369   0.562   4.247  1.3758 -0.1414 -2.3006
 2302SOL    HW3 9254   1.313   0.698   4.212  1.5797  0.2920 -0.9496
 2302SOL    MW4 9255   1.373   0.649   4.252  0.7945 -0.2105 -0.3924
 2303SOL     OW 9256   0.140   0.696   4.134 -0.1523  0.2409  0.1973
 2303SOL    HW2 9257   0.132   0.601   4.126 -1.1460  0.2016  1.4716
 2303SOL    HW3 9258   0.221   0.710   4.183  0.6261  0.1136 -1.0226
 2303SOL    MW4 9259   0.149   0.686   4.139 -0.1807  0.2189  0.2046
 2304SOL     OW 9260   2.923   3.588   3.762 -0.0629 -0.4951 -0.2045
 2304SOL    HW2 9261   2.928   3.588   3.666 -0.7093 -0.6569 -0.2440
 2304SOL    HW3 9262   3.009   3.558   3.790  0.8004  1.4657 -0.6817
 2304SOL    MW4 9263   2.935   3.584   3.753 -0.0343 -0.2577 -0.2725
 2305SOL     OW 9264   2.530   3.912   3.864 -0.6481  0.3148 -0.1529
 2305SOL    HW2 9265   2.510   3.912   3.957 -2.1391  1.7375 -0.4466
 2305SOL    HW3 9266   2.518   3.822   3.836  0.6816 -0.2926  1.2010
 2305SOL    MW4 9267   2.526   3.900   3.872 -0.6692  0.4225 -0.0131
 2306SOL     OW 9268   2.264   4.025   3.776 -0.0100  0.3398  0.0505
 2306SOL    HW2 9269   2.252   4.018   3.681 -1.7219 -0.9718  0.3504
 2306SOL    HW3 9270   2.345   3.979   3.793  0.0701  0.1812 -0.7150
 2306SOL    MW4 9271   2.273   4.018   3.765 -0.2255  0.1464 -0.0110
 2307SOL     OW 9272   2.313   4.300   3.864 -0.0666 -0.1748  0.3839
 2307SOL    HW2 9273   2.324   4.326   3.955 -1.9869 -0.1019  0.6027
 2307SOL    HW3 9274   2.287   4.208   3.867  0.1663 -0.2641 -0.1168
 2307SOL    MW4 9275   2.311   4.291   3.876 -0.2892 -0.1769  0.3467
 2308SOL     OW 9276   2.459   0.034   3.764 -0.5868  0.0447  0.1265
 2308SOL    HW2 9277   2.447   0.031   3.859  0.7761 -2.4803  0.2611
 2308SOL    HW3 9278   2.545   0.075   3.753 -1.4468  1.8380 -0.1174
 2308SOL    MW4 9279   2.469   0.039   3.775 -0.5202 -0.0518  0.1121
 2309SOL     OW 9280   2.895   4.612   3.831 -0.2385 -0.0918 -0.0533
 2309SOL    HW2 9281   2.973   4.666   3.814  0.3558 -0.6908  0.7339
 2309SOL    HW3 9282   2.912   4.530   3.783 -1.1871  0.4420 -1.3326
 2309SOL    MW4 9283   2.908   4.608   3.822 -0.2854 -0.1006 -0.1180
 2310SOL     OW 9284   2.706   0.140   3.731 -0.2216 -0.4907  0.5118
 2310SOL    HW2 9285   2.770   0.077   3.764 -0.2744 -0.8946 -0.1306
 2310SOL    HW3 9286   2.708   0.128   3.636 -0.9353 -0.2051  0.4585
 2310SOL    MW4 9287   2.715   0.130   3.723 -0.3228 -0.5063  0.4201
 2311SOL     OW 9288   2.720   0.369   3.887  0.0514 -0.0507  0.0812
 2311SOL    HW2 9289   2.728   0.294   3.827 -1.0761 -0.1841  0.1046
 2311SOL    HW3 9290   2.642   0.415   3.858  0.5987  0.9896  0.2291
 2311SOL    MW4 9291   2.711   0.365   3.875 -0.0250  0.0689  0.1037
 2312SOL     OW 9292   2.947   0.525   3.778 -0.3709 -0.1332  0.0620
 2312SOL    HW2 9293   3.030   0.481   3.791 -0.4109 -0.3411 -0.3616
 2312SOL    HW3 9294   2.883   0.469   3.822 -0.2912  0.0047  0.3513
 2312SOL    MW4 9295   2.949   0.512   3.786 -0.3657 -0.1425  0.0441
 2313SOL     OW 9296   2.909   0.788   3.851  0.0923 -0.4209 -0.3254
 2313SOL    HW2 9297   2.906   0.693   3.840 -0.3084 -0.4078 -0.3527
 2313SOL    HW3 9298   2.992   0.815   3.813 -0.2098 -0.6521 -1.1458
 2313SOL    MW4 9299   2.919   0.779   3.845 -0.0002 -0.4497 -0.4370
 2314SOL     OW 9300   2.683   0.913   3.791 -0.1135  0.2452 -0.1486
 2314SOL    HW2 9301   2.761   0.862   3.811 -0.5941 -0.5443 -0.2495
 2314SOL    HW3 9302   2.612   0.865   3.832 -0.3611  1.8148  1.3202
 2314SOL    MW4 9303   2.684   0.900   3.799 -0.2093  0.3482  0.0317
 2315SOL     OW 9304   2.736   1.167   3.839 -0.2864  0.3535 -0.3681
 2315SOL    HW2 9305   2.753   1.175   3.933 -1.0913  1.0956 -0.2833
 2315SOL    HW3 9306   2.710   1.076   3.826 -0.6999  0.3907  0.2148
 2315SOL    MW4 9307   2.735   1.156   3.849 -0.4470  0.4563 -0.2799
 2316SOL     OW 9308   2.944   1.274   3.726 -0.3766  0.8804  0.2923
 2316SOL    HW2 9309   2.876   1.219   3.766  0.1885 -1.1158 -1.3764
 2316SOL    HW3 9310   3.026   1.239   3.762  0.0125  0.3273 -1.1165
 2316SOL    MW4 9311   2.946   1.262   3.736 -0.2508  0.5440 -0.1140
 2317SOL     OW 9312   2.772   1.825   4.936  0.7027 -0.2455  0.5660
 2317SOL    HW2 9313   2.852   1.867   4.905  0.0620  0.3655 -0.2827
 2317SOL    HW3 9314   2.702   1.887   4.915 -0.3147 -1.8849 -1.0735
 2317SOL    MW4 9315   2.773   1.839   4.929  0.4838 -0.3811  0.2379
 2318SOL     OW 9316   2.286   1.911   3.830 -0.2550 -0.3232  0.1974
 2318SOL    HW2 9317   2.309   1.922   3.922 -0.3240  1.4661  0.0301
 2318SOL    HW3 9318   2.341   1.976   3.784  0.4235 -1.7972 -1.1166
 2318SOL    MW4 9319   2.297   1.921   3.836 -0.1748 -0.2816  0.0017
 2319SOL     OW 9320   1.381   4.217   3.865  0.0004 -0.4837  0.0086
 2319SOL    HW2 9321   1.456   4.271   3.841  1.3386 -0.7436  3.4027
 2319SOL    HW3 9322   1.308   4.254   3.815  1.5410  2.3675 -0.2277
 2319SOL    MW4 9323   1.381   4.229   3.855  0.3804 -0.1416  0.4253
 2320SOL     OW 9324   2.424   2.769   4.314  0.2565 -0.1012 -0.1082
 2320SOL    HW2 9325   2.514   2.801   4.308  0.6663 -1.2769 -0.2161
 2320SOL    HW3 9326   2.424   2.711   4.390 -0.3727 -0.2388 -0.2116
 2320SOL    MW4 9327   2.436   2.766   4.323  0.2275 -0.2747 -0.1364
 2321SOL     OW 9328   3.158   2.492   3.741 -0.5791  0.1851 -0.0477
 2321SOL    HW2 9329   3.218   2.428   3.779 -1.9990 -0.0288  1.9448
 2321SOL    HW3 9330   3.161   2.476   3.647  0.9350 -1.1649  0.2145
 2321SOL    MW4 9331   3.167   2.482   3.734 -0.5667 -0.0215  0.2496
 2322SOL     OW 9332   2.930   2.069   3.734 -0.3836 -0.3682  0.4070
 2322SOL    HW2 9333   2.857   2.023   3.775  0.5155 -0.9983  1.3316
 2322SOL    HW3 9334   2.942   2.147   3.787  0.2123 -0.7395  0.8271
 2322SOL    MW4 9335   2.922   2.073   3.746 -0.1867 -0.5002  0.5844
 2323SOL     OW 9336   1.839   3.173   4.149  0.1060 -0.1453 -0.5329
 2323SOL    HW2 9337   1.807   3.256   4.115 -1.1739 -0.5379 -0.3328
 2323SOL    HW3 9338   1.798   3.165   4.236  0.0437 -1.0662 -0.6374
 2323SOL    MW4 9339   1.829   3.183   4.156 -0.0712 -0.3188 -0.5207
 2324SOL     OW 9340   2.748   2.711   3.936  0.1517  0.3220  0.1054
 2324SOL    HW2 9341   2.665   2.760   3.929  0.4088  0.7121 -0.2514
 2324SOL    HW3 9342   2.736   2.635   3.880  0.6758  1.2868 -1.3418
 2324SOL    MW4 9343   2.735   2.708   3.928  0.2546  0.5007 -0.1326
 2325SOL     OW 9344   2.878   2.673   4.173  0.7040 -0.0207 -0.2144
 2325SOL    HW2 9345   2.842   2.597   4.219 -1.6564  1.6279  0.7149
 2325SOL    HW3 9346   2.836   2.671   4.087  0.7278  0.2058 -0.2300
 2325SOL    MW4 9347   2.868   2.663   4.168  0.3958  0.2267 -0.0944
 2326SOL     OW 9348   3.887   1.717   4.177  0.6097  0.2002 -0.5352
 2326SOL    HW2 9349   3.898   1.692   4.085  0.4923  0.2882 -0.5737
 2326SOL    HW3 9350   3.810   1.774   4.177  1.2954  1.1268 -0.5539
 2326SOL    MW4 9351   3.878   1.721   4.164  0.6843  0.3339 -0.5426
 2327SOL     OW 9352   3.153   3.476   3.847 -0.0594 -0.2591  0.3539
 2327SOL    HW2 9353   3.238   3.512   3.821 -0.2017 -0.1017  0.1040
 2327SOL    HW3 9354   3.146   3.394   3.799 -0.0986 -0.2152  0.2839
 2327SOL    MW4 9355   3.164   3.470   3.837 -0.0832 -0.2327  0.3116
 2328SOL     OW 9356   1.985   2.173   4.570 -0.2986  0.3937 -0.2760
 2328SOL    HW2 9357   2.068   2.141   4.537  0.0382  1.5370 -0.5796
 2328SOL    HW3 9358   2.007   2.257   4.612 -1.2926  0.7017 -0.3549
 2328SOL    MW4 9359   1.998   2.180   4.571 -0.3853  0.5851 -0.3266
 2329SOL     OW 9360   3.168   4.007   3.728 -0.0920  0.2304 -0.3898
 2329SOL    HW2 9361   3.191   4.097   3.749  2.7727 -0.6360  0.4250
 2329SOL    HW3 9362   3.097   3.986   3.789  0.2706  1.4427  0.4697
 2329SOL    MW4 9363   3.162   4.016   3.739  0.3338  0.2756 -0.1688
 2330SOL     OW 9364   2.760   4.032   3.794 -0.3293  0.1170  0.4153
 2330SOL    HW2 9365   2.680   3.979   3.791 -0.5575  0.4480  0.6575
 2330SOL    HW3 9366   2.829   3.969   3.818 -0.1010 -0.6448 -2.1045
 2330SOL    MW4 9367   2.759   4.017   3.797 -0.3295  0.0606  0.1147
 2331SOL     OW 9368   2.677   4.283   3.867  0.2705  0.6649 -0.3884
 2331SOL    HW2 9369   2.705   4.193   3.848  0.9001  1.0948 -1.5235
 2331SOL    HW3 9370   2.603   4.297   3.808  1.1636  1.4281 -1.3297
 2331SOL    MW4 9371   2.671   4.273   3.857  0.4711  0.8230 -0.6623
 2332SOL     OW 9372   2.926   4.344   3.735  0.3946  0.0025 -0.1406
 2332SOL    HW2 9373   2.857   4.333   3.801  0.2278 -1.6213 -0.5588
 2332SOL    HW3 9374   3.007   4.320   3.781  0.8036  2.5738  0.5501
 2332SOL    MW4 9375   2.928   4.339   3.750  0.4268  0.1278 -0.1049
 2333SOL     OW 9376   3.791   0.003   3.894 -0.2863 -0.8772  0.3161
 2333SOL    HW2 9377   3.869   0.056   3.881 -0.3195 -0.7516  0.6367
 2333SOL    HW3 9378   3.817  -0.085   3.865  0.8386 -1.4848  3.0302
 2333SOL    MW4 9379   3.805  -0.002   3.889 -0.1421 -0.9407  0.7167
 2334SOL     OW 9380   3.130   0.083   3.770  0.2272 -0.6767  0.1783
 2334SOL    HW2 9381   3.210   0.051   3.811  1.3437  0.7759 -0.7939
 2334SOL    HW3 9382   3.149   0.079   3.676  0.0305  1.7930 -0.0029
 2334SOL    MW4 9383   3.143   0.078   3.763  0.3483 -0.1592  0.0262
 2335SOL     OW 9384   3.158   0.347   3.865  0.3006  0.2742 -0.0845
 2335SOL    HW2 9385   3.126   0.350   3.955 -0.7293  0.1366 -0.4305
 2335SOL    HW3 9386   3.152   0.255   3.840  1.1899  0.2138 -0.0850
 2335SOL    MW4 9387   3.153   0.335   3.874  0.2820  0.2481 -0.1302
 2336SOL     OW 9388   3.360   0.490   3.772 -0.2122 -0.6874 -0.3186
 2336SOL    HW2 9389   3.442   0.450   3.798 -0.2556 -1.1509 -0.8985
 2336SOL    HW3 9390   3.292   0.435   3.811 -0.2522  0.3560  1.1549
 2336SOL    MW4 9391   3.362   0.478   3.781 -0.2232 -0.6109 -0.2007
 2337SOL     OW 9392   3.375   0.762   3.830  0.3910 -0.4067  0.0261
 2337SOL    HW2 9393   3.381   0.769   3.925  0.3121 -1.6058  0.1386
 2337SOL    HW3 9394   3.381   0.668   3.813  0.9287 -0.1608 -1.1975
 2337SOL    MW4 9395   3.376   0.750   3.840  0.4516 -0.5324 -0.1204
 2338SOL     OW 9396   3.160   0.916   3.762 -0.2285 -0.6370 -0.1529
 2338SOL    HW2 9397   3.238   0.863   3.776  1.5813  2.3004  1.2054
 2338SOL    HW3 9398   3.147   0.916   3.667  2.0101 -0.3238 -0.4790
 2338SOL    MW4 9399   3.168   0.909   3.751  0.3057 -0.2081 -0.0167
 2339SOL     OW 9400   3.388   1.240   3.722 -0.1426 -0.0341  0.5323
 2339SOL    HW2 9401   3.353   1.259   3.635  1.0492 -0.0354  0.0459
 2339SOL    HW3 9402   3.313   1.208   3.771 -1.4565  2.5594  0.3207
 2339SOL    MW4 9403   3.374   1.238   3.717 -0.1588  0.3080  0.4404
 2340SOL     OW 9404   3.247   1.184   4.124 -0.1144  0.0933  0.0269
 2340SOL    HW2 9405   3.248   1.275   4.155 -1.2522  0.5297 -1.1941
 2340SOL    HW3 9406   3.217   1.134   4.200 -0.6172  0.8728  0.3485
 2340SOL    MW4 9407   3.243   1.189   4.138 -0.3309  0.2537 -0.0920
 2341SOL     OW 9408   1.616   1.628   4.138 -0.2244 -0.2361  0.5448
 2341SOL    HW2 9409   1.657   1.703   4.095  0.0659 -0.3211  0.6689
 2341SOL    HW3 9410   1.540   1.665   4.184 -1.2688 -0.3483 -1.0679
 2341SOL    MW4 9411   1.611   1.643   4.138 -0.3239 -0.2620  0.3486
 2342SOL     OW 9412   3.168   1.663   3.716  0.1326  0.2722 -0.1463
 2342SOL    HW2 9413   3.161   1.754   3.747  0.4593  0.4305 -0.5315
 2342SOL    HW3 9414   3.173   1.671   3.621  0.9952 -0.0981 -0.1392
 2342SOL    MW4 9415   3.168   1.676   3.708  0.2894  0.2443 -0.1960
 2343SOL     OW 9416   2.461   0.774   4.169 -0.0208  0.5011  0.0566
 2343SOL    HW2 9417   2.438   0.789   4.077  2.2374  0.9475 -0.4863
 2343SOL    HW3 9418   2.392   0.718   4.203  0.3083 -1.5987 -2.5773
 2343SOL    MW4 9419   2.449   0.769   4.161  0.3207  0.2829 -0.3629
 2344SOL     OW 9420   3.375   1.513   3.845  0.2745 -0.3274  0.1725
 2344SOL    HW2 9421   3.386   1.426   3.807 -1.6892  0.1358 -1.5665
 2344SOL    HW3 9422   3.307   1.554   3.791  1.0352  2.2133  1.0792
 2344SOL    MW4 9423   3.368   1.507   3.833  0.1156  0.0690  0.0627
 2345SOL     OW 9424   3.427   2.067   3.739 -0.1979  0.1955 -0.3368
 2345SOL    HW2 9425   3.359   2.003   3.760  0.1896  0.4257  1.7915
 2345SOL    HW3 9426   3.430   2.070   3.644 -2.1707 -0.8798 -0.4488
 2345SOL    MW4 9427   3.418   2.059   3.730 -0.4067  0.0842 -0.0708
 2346SOL     OW 9428   3.362   2.335   3.833 -0.3069 -0.4592 -0.3898
 2346SOL    HW2 9429   3.380   2.243   3.814 -0.0218 -0.5805  0.4628
 2346SOL    HW3 9430   3.408   2.353   3.914 -0.2420  0.4836 -0.6264
 2346SOL    MW4 9431   3.370   2.326   3.841 -0.2608 -0.3510 -0.3085
 2347SOL     OW 9432   1.789   1.422   4.515  0.0283 -0.0881 -0.3297
 2347SOL    HW2 9433   1.735   1.371   4.576  1.3509 -0.0462  0.9158
 2347SOL    HW3 9434   1.798   1.508   4.557  0.4530  0.1409 -0.8775
 2347SOL    MW4 9435   1.783   1.427   4.529  0.2588 -0.0522 -0.2375
 2348SOL     OW 9436   3.374   2.871   3.699 -0.0026 -0.4162  0.4746
 2348SOL    HW2 9437   3.291   2.843   3.737 -0.1960  0.6420  0.8549
 2348SOL    HW3 9438   3.363   2.858   3.605 -1.0368  0.7877  0.4027
 2348SOL    MW4 9439   3.362   2.866   3.692 -0.1645 -0.1178  0.5157
 2349SOL     OW 9440   3.411   3.099   3.832  0.1146 -0.1492  0.3124
 2349SOL    HW2 9441   3.407   3.014   3.788  0.2721 -0.1013  0.2051
 2349SOL    HW3 9442   3.493   3.139   3.801  0.9370 -0.6967  1.7126
 2349SOL    MW4 9443   3.421   3.093   3.822  0.2437 -0.2151  0.4828
 2350SOL     OW 9444   3.183   3.196   3.733  0.3645  0.1330  0.1320
 2350SOL    HW2 9445   3.267   3.160   3.763 -0.4224 -1.6618  0.2395
 2350SOL    HW3 9446   3.186   3.187   3.637  0.3657  0.2346  0.1226
 2350SOL    MW4 9447   3.195   3.190   3.724  0.2606 -0.0904  0.1450
 2351SOL     OW 9448   1.214   2.669   4.443  0.0321 -0.3858 -0.2089
 2351SOL    HW2 9449   1.255   2.583   4.445 -0.5049 -0.6779 -1.2532
 2351SOL    HW3 9450   1.144   2.663   4.508  1.0438 -0.1843  0.9154
 2351SOL    MW4 9451   1.210   2.657   4.452  0.0948 -0.3977 -0.1984
 2352SOL     OW 9452   3.374   3.627   3.749  0.0305  0.2521  0.0827
 2352SOL    HW2 9453   3.345   3.715   3.775 -0.3971  0.2624 -0.4082
 2352SOL    HW3 9454   3.376   3.630   3.653 -1.1688 -0.6399  0.0203
 2352SOL    MW4 9455   3.370   3.639   3.740 -0.1841  0.1359  0.0098
 2353SOL     OW 9456   0.492   0.858   4.658  0.2696 -0.3371 -0.0614
 2353SOL    HW2 9457   0.563   0.922   4.647 -0.4491  0.7386  1.3848
 2353SOL    HW3 9458   0.412   0.911   4.660 -0.3269 -1.2611  1.3435
 2353SOL    MW4 9459   0.491   0.874   4.657  0.0960 -0.3171  0.3147
 2354SOL     OW 9460   3.170   4.277   3.851 -0.4872 -0.3576  0.2667
 2354SOL    HW2 9461   3.193   4.272   3.944 -0.2134 -1.4348  0.1497
 2354SOL    HW3 9462   3.242   4.326   3.811 -0.3688 -0.3076  0.5425
 2354SOL    MW4 9463   3.183   4.283   3.858 -0.4356 -0.4926  0.2878
 2355SOL     OW 9464   3.395   4.433   3.746 -0.1502 -0.1677  0.3183
 2355SOL    HW2 9465   3.476   4.393   3.775  0.4017  0.6110 -0.1432
 2355SOL    HW3 9466   3.400   4.523   3.776 -0.4606  0.1125 -0.4592
 2355SOL    MW4 9467   3.406   4.439   3.753 -0.1183 -0.0281  0.1547
 2356SOL     OW 9468   3.605   4.275   3.865  0.1839 -0.1894  0.2183
 2356SOL    HW2 9469   3.673   4.340   3.848 -1.4930  1.4651 -0.2771
 2356SOL    HW3 9470   3.599   4.270   3.960  0.2602  0.4376  0.2535
 2356SOL    MW4 9471   3.613   4.283   3.875 -0.0272  0.1111  0.1574
 2357SOL     OW 9472   3.550   0.666   4.452  0.0241  0.5650 -0.5508
 2357SOL    HW2 9473   3.459   0.654   4.421 -0.0915 -0.6170  0.2487
 2357SOL    HW3 9474   3.603   0.619   4.388 -0.1808 -1.4907  0.7682
 2357SOL    MW4 9475   3.545   0.658   4.439 -0.0184  0.1377 -0.2708
 2358SOL     OW 9476   3.610   0.398   3.866  0.5038  0.0355 -0.0220
 2358SOL    HW2 9477   3.604   0.306   3.842 -1.0823 -0.0331  0.5910
 2358SOL    HW3 9478   3.698   0.424   3.839  1.3484 -1.9176  0.7310
 2358SOL    MW4 9479   3.621   0.389   3.860  0.4058 -0.2312  0.1583
 2359SOL     OW 9480   4.113   4.097   4.195 -0.1569  0.6894 -0.0465
 2359SOL    HW2 9481   4.061   4.018   4.178 -0.0881  0.8116 -0.8342
 2359SOL    HW3 9482   4.109   4.108   4.290  0.9812 -1.0463  0.2176
 2359SOL    MW4 9483   4.105   4.088   4.206  0.0019  0.4759 -0.1154
 2360SOL     OW 9484   3.837   0.512   3.770  0.3520  0.2773  0.3126
 2360SOL    HW2 9485   3.904   0.475   3.828  0.6069  1.0687  0.5243
 2360SOL    HW3 9486   3.831   0.604   3.796 -0.0244  0.4721 -0.4570
 2360SOL    MW4 9487   3.845   0.519   3.781  0.3362  0.4074  0.2391
 2361SOL     OW 9488   3.835   0.776   3.845  0.1632  0.0150 -0.1144
 2361SOL    HW2 9489   3.910   0.826   3.814 -0.2584 -1.0578 -3.0411
 2361SOL    HW3 9490   3.759   0.820   3.808 -0.5188 -0.1772  1.0223
 2361SOL    MW4 9491   3.835   0.788   3.836  0.0176 -0.1519 -0.3505
 2362SOL     OW 9492   3.616   0.896   3.757 -0.3274  0.1254  0.0377
 2362SOL    HW2 9493   3.620   0.987   3.786  0.9744 -0.2096  0.9445
 2362SOL    HW3 9494   3.528   0.867   3.783 -0.6374  1.0289  0.0223
 2362SOL    MW4 9495   3.605   0.904   3.765 -0.1965  0.2005  0.1554
 2363SOL     OW 9496   3.623   1.175   3.814  0.1198  0.1050 -0.1870
 2363SOL    HW2 9497   3.685   1.245   3.794 -0.1208 -0.2224 -2.2422
 2363SOL    HW3 9498   3.540   1.206   3.776  0.1149 -1.4753 -1.4943
 2363SOL    MW4 9499   3.620   1.188   3.806  0.0875 -0.1467 -0.6306
 2364SOL     OW 9500   3.829   1.355   3.799 -0.1375  0.1138 -0.4595
 2364SOL    HW2 9501   3.907   1.306   3.827 -0.0884  0.2428 -0.3730
 2364SOL    HW3 9502   3.845   1.444   3.828  0.1129  0.3465 -1.2955
 2364SOL    MW4 9503   3.841   1.360   3.807 -0.0980  0.1615 -0.5586
 2365SOL     OW 9504   3.828   1.607   3.923 -0.3213 -0.1502  0.1912
 2365SOL    HW2 9505   3.743   1.640   3.894  0.3560  0.8658 -0.6850
 2365SOL    HW3 9506   3.889   1.635   3.855  1.0251  0.7246  1.7256
 2365SOL    MW4 9507   3.825   1.615   3.910 -0.0544  0.0993  0.2778
 2366SOL     OW 9508   3.598   1.660   3.783 -0.4402  0.1099  0.3104
 2366SOL    HW2 9509   3.600   1.659   3.687 -2.1567  0.9689  0.2489
 2366SOL    HW3 9510   3.527   1.600   3.806 -1.1964  1.2525  0.9841
 2366SOL    MW4 9511   3.589   1.652   3.773 -0.7668  0.3741  0.3910
 2367SOL     OW 9512   3.831   2.101   3.736 -0.3059 -0.0784 -0.4922
 2367SOL    HW2 9513   3.775   2.035   3.776  0.0010  0.3433  0.6409
 2367SOL    HW3 9514   3.920   2.065   3.745 -0.2559 -0.0843 -0.9947
 2367SOL    MW4 9515   3.836   2.087   3.742 -0.2589 -0.0234 -0.4089
 2368SOL     OW 9516   2.555   1.199   4.233  0.1397 -0.4051  0.2147
 2368SOL    HW2 9517   2.472   1.151   4.236  1.0057 -2.0008 -0.4669
 2368SOL    HW3 9518   2.532   1.285   4.199 -1.0605 -1.2518 -1.1555
 2368SOL    MW4 9519   2.541   1.204   4.229  0.0958 -0.7273 -0.0567
 2369SOL     OW 9520   0.009   2.097   4.349  0.1906 -0.0755 -0.3081
 2369SOL    HW2 9521   0.007   2.026   4.413 -1.5076  1.3111  1.2254
 2369SOL    HW3 9522   0.083   2.152   4.376 -0.2965  0.3079  0.2663
 2369SOL    MW4 9523   0.019   2.095   4.361 -0.0977  0.1581 -0.0300
 2370SOL     OW 9524   3.569   2.455   3.709  0.1686 -0.0419 -0.6487
 2370SOL    HW2 9525   3.482   2.421   3.731 -0.0679  0.7977 -0.2583
 2370SOL    HW3 9526   3.578   2.438   3.616 -0.7961  0.6736 -0.8856
 2370SOL    MW4 9527   3.558   2.448   3.700  0.0100  0.1633 -0.6287
 2371SOL     OW 9528   4.105   1.555   4.553  0.3214  0.2130  0.0230
 2371SOL    HW2 9529   4.062   1.505   4.622 -0.8402 -0.3555 -1.0960
 2371SOL    HW3 9530   4.043   1.554   4.480  0.4554  2.9490 -0.1677
 2371SOL    MW4 9531   4.091   1.548   4.553  0.1855  0.4990 -0.1502
 2372SOL     OW 9532   3.809   2.828   3.709  0.3166  0.3948  0.7244
 2372SOL    HW2 9533   3.886   2.788   3.750 -0.2903 -0.7941  0.7231
 2372SOL    HW3 9534   3.735   2.783   3.750 -0.3131 -0.2106 -1.0615
 2372SOL    MW4 9535   3.809   2.816   3.720  0.1535  0.1578  0.4888
 2373SOL     OW 9536   3.868   3.092   3.811  0.3771  0.0423  0.0567
 2373SOL    HW2 9537   3.843   3.003   3.786  1.0428 -0.2937  0.5599
 2373SOL    HW3 9538   3.788   3.144   3.800  0.6248 -0.0932 -2.6492
 2373SOL    MW4 9539   3.854   3.087   3.807  0.4976 -0.0200 -0.2339
 2374SOL     OW 9540   3.627   3.229   3.736  0.1077 -0.3182 -0.3284
 2374SOL    HW2 9541   3.622   3.319   3.766  1.7173 -0.7822  1.4516
 2374SOL    HW3 9542   3.625   3.234   3.641 -1.7005  1.4554 -0.2058
 2374SOL    MW4 9543   3.626   3.241   3.728  0.0815 -0.1450 -0.0775
 2375SOL     OW 9544   3.624   3.494   3.822  0.3464  0.0505 -0.0119
 2375SOL    HW2 9545   3.623   3.460   3.911  0.5694  0.6143  0.2097
 2375SOL    HW3 9546   3.539   3.538   3.812  0.5530  0.4894  0.1257
 2375SOL    MW4 9547   3.613   3.495   3.832  0.4027  0.1829  0.0355
 2376SOL     OW 9548   3.844   3.655   3.759 -0.3086 -0.3100  0.2894
 2376SOL    HW2 9549   3.858   3.735   3.809  0.3738 -0.8677  0.9960
 2376SOL    HW3 9550   3.759   3.622   3.790  0.1349 -0.6818  1.1394
 2376SOL    MW4 9551   3.834   3.661   3.770 -0.1602 -0.4325  0.4945
 2377SOL     OW 9552   3.830   3.901   3.916  0.3170 -0.3563 -0.0407
 2377SOL    HW2 9553   3.829   3.906   4.011  1.0249  1.1683 -0.0941
 2377SOL    HW3 9554   3.915   3.937   3.891 -0.9924  1.9088 -1.3611
 2377SOL    MW4 9555   3.841   3.906   3.925  0.2377  0.1435 -0.2222
 2378SOL     OW 9556   3.616   4.023   3.759  0.0592  0.1437  0.2716
 2378SOL    HW2 9557   3.626   4.107   3.803  0.5599  1.1583 -1.6977
 2378SOL    HW3 9558   3.686   3.969   3.795  1.1609  1.3104 -0.0463
 2378SOL    MW4 9559   3.627   4.027   3.769  0.2706  0.4315 -0.0300
 2379SOL     OW 9560   0.367   1.943   4.063 -0.0462 -0.2735 -0.3584
 2379SOL    HW2 9561   0.395   1.931   3.972 -2.1204 -0.4425 -0.9937
 2379SOL    HW3 9562   0.428   2.008   4.098 -0.5374  1.4195 -2.5124
 2379SOL    MW4 9563   0.379   1.950   4.056 -0.3847 -0.0724 -0.7262
 2380SOL     OW 9564   3.837   4.431   3.749  0.2058 -0.8099 -0.5252
 2380SOL    HW2 9565   3.901   4.366   3.775 -0.9008 -1.2475  1.1661
 2380SOL    HW3 9566   3.829   4.420   3.654  0.5040 -2.7003 -0.3517
 2380SOL    MW4 9567   3.844   4.421   3.740  0.0992 -1.1172 -0.2794
 2381SOL     OW 9568   4.258   4.664   3.838  0.1438  0.7689  0.2258
 2381SOL    HW2 9569   4.341   4.693   3.799 -0.1441  0.8334 -0.3540
 2381SOL    HW3 9570   4.272   4.670   3.932  1.4470 -1.0453  0.1797
 2381SOL    MW4 9571   4.271   4.669   3.845  0.2780  0.5383  0.1433
 2382SOL     OW 9572   4.020   0.119   3.797 -0.2448  0.2077 -0.0298
 2382SOL    HW2 9573   4.021   0.126   3.701  1.3527  1.6225  0.0686
 2382SOL    HW3 9574   4.090   0.056   3.817  0.4415  1.0591  0.2736
 2382SOL    MW4 9575   4.030   0.111   3.787  0.0567  0.5067  0.0231
 2383SOL     OW 9576   4.048   0.394   3.905 -0.3102  0.2002  0.0116
 2383SOL    HW2 9577   4.051   0.387   4.000  0.6255  0.6479  0.0189
 2383SOL    HW3 9578   4.069   0.306   3.873 -1.0534 -0.0589  0.2117
 2383SOL    MW4 9579   4.051   0.381   3.913 -0.2842  0.2250  0.0389
 2384SOL     OW 9580   4.275   0.512   3.772 -0.3915  0.5895 -0.1788
 2384SOL    HW2 9581   4.199   0.478   3.819 -0.3029 -0.7561 -0.9803
 2384SOL    HW3 9582   4.248   0.512   3.680 -0.3610  2.6485 -0.2126
 2384SOL    MW4 9583   4.262   0.507   3.766 -0.3762  0.6836 -0.2890
 2385SOL     OW 9584   4.289   0.799   3.837 -0.2188  0.6751 -0.0397
 2385SOL    HW2 9585   4.209   0.829   3.795  0.6041  0.6133 -1.6840
 2385SOL    HW3 9586   4.301   0.709   3.805  0.8640  0.9211 -0.3695
 2385SOL    MW4 9587   4.280   0.791   3.827  0.0329  0.6993 -0.2999
 2386SOL     OW 9588   4.068   0.916   3.749  0.2510 -0.1353  0.9192
 2386SOL    HW2 9589   4.058   1.003   3.788  1.6153  0.4162  0.0504
 2386SOL    HW3 9590   4.048   0.928   3.657 -0.7874 -1.0086  1.0107
 2386SOL    MW4 9591   4.064   0.929   3.742  0.2937 -0.1777  0.8166
 2387SOL     OW 9592   4.036   1.161   3.882 -0.1333  0.4493  0.2193
 2387SOL    HW2 9593   4.039   1.176   3.976  2.3011 -0.4364  0.3024
 2387SOL    HW3 9594   4.099   1.223   3.846 -1.0265  0.7629 -0.8404
 2387SOL    MW4 9595   4.045   1.171   3.889  0.0701  0.3738  0.0901
 2388SOL     OW 9596   4.251   1.293   3.777 -0.3863 -0.4316 -0.2365
 2388SOL    HW2 9597   4.342   1.265   3.791  0.1108  1.1146 -0.3690
 2388SOL    HW3 9598   4.239   1.288   3.682 -0.0479  0.5526 -0.3355
 2388SOL    MW4 9599   4.262   1.288   3.766 -0.2761 -0.0976 -0.2675
 2389SOL     OW 9600   4.262   1.592   3.834  0.3161  0.0776 -0.1208
 2389SOL    HW2 9601   4.346   1.636   3.825  0.6259 -0.3104  0.7475
 2389SOL    HW3 9602   4.278   1.502   3.804 -0.0126  0.2415 -0.7892
 2389SOL    MW4 9603   4.275   1.586   3.829  0.3138  0.0479 -0.0947
 2390SOL     OW 9604   4.032   1.697   3.731  0.2098  0.2158 -0.2608
 2390SOL    HW2 9605   4.110   1.662   3.774  0.2464 -1.2319 -1.4923
 2390SOL    HW3 9606   4.050   1.791   3.722  1.7073 -0.0690 -0.3196
 2390SOL    MW4 9607   4.044   1.705   3.735  0.4115 -0.0128 -0.4311
 2391SOL     OW 9608   4.068   1.988   3.732 -0.1155  0.2577  0.1197
 2391SOL    HW2 9609   4.121   2.010   3.809 -0.9252  0.6010  0.5775
 2391SOL    HW3 9610   4.121   2.017   3.658 -0.0037  1.3301  0.6102
 2391SOL    MW4 9611   4.082   1.995   3.732 -0.2079  0.4444  0.2446
 2392SOL     OW 9612   4.226   2.086   3.926 -0.3140  0.3688 -0.0961
 2392SOL    HW2 9613   4.297   2.022   3.924 -0.6723 -0.0309 -0.5136
 2392SOL    HW3 9614   4.194   2.084   4.016 -0.7334 -0.5083 -0.2594
 2392SOL    MW4 9615   4.231   2.077   3.937 -0.4163  0.2003 -0.1726
 2393SOL     OW 9616   4.033   2.449   3.734  0.2023  0.2135  0.0188
 2393SOL    HW2 9617   3.953   2.422   3.779 -0.1262  1.3472  0.1173
 2393SOL    HW3 9618   4.036   2.544   3.745  1.2391  0.2471 -0.5186
 2393SOL    MW4 9619   4.023   2.458   3.742  0.2956  0.3676 -0.0389
 2394SOL     OW 9620   3.967   3.368   4.510 -0.1695 -0.5421 -0.1045
 2394SOL    HW2 9621   4.002   3.349   4.424 -0.5368 -1.1829 -0.1222
 2394SOL    HW3 9622   3.986   3.460   4.525 -1.4139 -0.0493 -1.4846
 2394SOL    MW4 9623   3.974   3.378   4.501 -0.3822 -0.5617 -0.2890
 2395SOL     OW 9624   4.039   2.719   3.815 -0.3272  0.3923  0.4280
 2395SOL    HW2 9625   4.046   2.739   3.908  0.2307 -0.3481  0.5503
 2395SOL    HW3 9626   4.116   2.761   3.776 -0.7783  1.0464  0.2409
 2395SOL    MW4 9627   4.050   2.727   3.822 -0.3128  0.3810  0.4194
 2396SOL     OW 9628   4.249   2.848   3.705  0.0191  0.6069 -0.7462
 2396SOL    HW2 9629   4.246   2.930   3.754  0.3945 -0.9014  1.9258
 2396SOL    HW3 9630   4.329   2.805   3.736  0.2002 -0.4706 -2.6329
 2396SOL    MW4 9631   4.259   2.853   3.716  0.0925  0.2658 -0.6425
 2397SOL     OW 9632   4.237   3.101   3.807 -0.3349 -0.4875 -0.4701
 2397SOL    HW2 9633   4.180   3.170   3.772  0.0149 -0.7149 -1.5046
 2397SOL    HW3 9634   4.326   3.138   3.801 -0.0748 -1.2955 -1.6961
 2397SOL    MW4 9635   4.241   3.115   3.802 -0.2542 -0.6239 -0.7682
 2398SOL     OW 9636   4.056   3.283   3.723 -0.1994  0.3193 -0.4655
 2398SOL    HW2 9637   3.994   3.219   3.758  0.2070  0.2428  0.1129
 2398SOL    HW3 9638   4.050   3.273   3.628  0.0188 -0.7141 -0.3739
 2398SOL    MW4 9639   4.047   3.273   3.715 -0.1168  0.1729 -0.3769
 2399SOL     OW 9640   4.051   3.524   3.870  0.0305 -0.0087 -0.1299
 2399SOL    HW2 9641   4.067   3.439   3.830  0.3996  0.3767 -0.8124
 2399SOL    HW3 9642   3.978   3.561   3.821  1.0668  0.8473 -1.0546
 2399SOL    MW4 9643   4.044   3.518   3.858  0.2155  0.1550 -0.3421
 2400SOL     OW 9644   4.271   3.643   3.779 -0.0818  0.0548 -0.0511
 2400SOL    HW2 9645   4.349   3.587   3.787 -0.2288 -0.0676  0.5779
 2400SOL    HW3 9646   4.200   3.589   3.813 -0.3261  0.4045 -0.0123
 2400SOL    MW4 9647   4.272   3.628   3.785 -0.1330  0.0846  0.0372
 2401SOL     OW 9648   4.295   3.890   3.882 -0.0208 -0.2835 -0.2390
 2401SOL    HW2 9649   4.291   3.799   3.854 -0.6400 -0.0718 -0.8374
 2401SOL    HW3 9650   4.209   3.925   3.862  0.7713  0.9098 -1.6384
 2401SOL    MW4 9651   4.283   3.883   3.876  0.0024 -0.0980 -0.5023
 2402SOL     OW 9652   4.052   3.999   3.780  0.7577  0.5166  0.0405
 2402SOL    HW2 9653   4.025   4.090   3.797  1.9130  1.0934 -1.1244
 2402SOL    HW3 9654   4.035   3.986   3.687  0.6788 -0.4491  0.1844
 2402SOL    MW4 9655   4.046   4.010   3.770  0.8993  0.4654 -0.0944
 2403SOL     OW 9656   4.039   4.270   3.841  0.2237  0.3322 -0.8463
 2403SOL    HW2 9657   4.052   4.287   3.935 -0.1941  1.4219 -0.9704
 2403SOL    HW3 9658   4.110   4.317   3.798 -0.6814  1.4214 -1.1803
 2403SOL    MW4 9659   4.050   4.279   3.848  0.0491  0.6204 -0.9067
 2404SOL     OW 9660   4.244   4.414   3.718  0.4661  0.2344  0.0410
 2404SOL    HW2 9661   4.238   4.494   3.769  1.2780 -0.1930  0.8220
 2404SOL    HW3 9662   4.318   4.367   3.755 -0.8451 -1.5260  0.5380
 2404SOL    MW4 9663   4.253   4.418   3.730  0.4001 -0.0539  0.2096
 2405SOL     OW 9664   1.987   1.542   4.121 -0.1606 -0.7485  0.1821
 2405SOL    HW2 9665   1.994   1.636   4.141  1.5022 -0.2475 -2.4833
 2405SOL    HW3 9666   1.915   1.511   4.176 -0.2774  1.9312  1.6323
 2405SOL    MW4 9667   1.979   1.550   4.131  0.0434 -0.3288  0.0219
 2406SOL     OW 9668   3.353   1.149   4.625 -0.4086 -0.4644  0.3795
 2406SOL    HW2 9669   3.326   1.238   4.603 -0.3702 -0.3609  0.7572
 2406SOL    HW3 9670   3.435   1.137   4.576 -1.8931 -1.3275 -2.0147
 2406SOL    MW4 9671   3.360   1.159   4.615 -0.5996 -0.5645  0.1130
 2407SOL     OW 9672   4.052   1.205   4.153 -0.3124 -0.0121  0.0703
 2407SOL    HW2 9673   4.142   1.239   4.153 -0.5412  0.6148 -0.0462
 2407SOL    HW3 9674   4.061   1.113   4.177  0.5226 -0.3700 -1.4820
 2407SOL    MW4 9675   4.065   1.198   4.156 -0.2327  0.0232 -0.1497
 2408SOL     OW 9676   3.834   0.757   4.126  0.2597 -0.2797 -0.4229
 2408SOL    HW2 9677   3.774   0.826   4.153 -1.8368 -2.0798 -0.3988
 2408SOL    HW3 9678   3.838   0.765   4.030  1.0627  0.6790 -0.3249
 2408SOL    MW4 9679   3.827   0.767   4.117  0.0889 -0.3907 -0.4072
 2409SOL     OW 9680   1.694   4.119   4.313 -0.1579  0.7579 -0.4892
 2409SOL    HW2 9681   1.605   4.136   4.344  0.7942  2.3372  1.4482
 2409SOL    HW3 9682   1.742   4.092   4.391  0.9980 -0.4031 -1.5869
 2409SOL    MW4 9683   1.688   4.118   4.327  0.1202  0.8135 -0.3786
 2410SOL     OW 9684   2.820   1.108   4.726 -0.3396  0.0776  0.2343
 2410SOL    HW2 9685   2.744   1.063   4.688  0.5306  0.4080 -1.9693
 2410SOL    HW3 9686   2.887   1.040   4.730 -0.5446 -0.0654  1.6539
 2410SOL    MW4 9687   2.819   1.093   4.721 -0.2518  0.1023  0.1311
 2411SOL     OW 9688   2.604   2.119   4.211  0.2443 -0.2810  0.4160
 2411SOL    HW2 9689   2.603   2.090   4.302 -1.4531  0.3626  0.6179
 2411SOL    HW3 9690   2.581   2.212   4.215  0.2874 -0.2203 -0.6539
 2411SOL    MW4 9691   2.601   2.127   4.224  0.0262 -0.1881  0.3018
 2412SOL     OW 9692   2.912   0.816   4.130 -0.1651  0.2691  0.0836
 2412SOL    HW2 9693   2.989   0.764   4.151  0.9021  1.3876 -0.9308
 2412SOL    HW3 9694   2.908   0.816   4.035 -0.5613  1.4083  0.0841
 2412SOL    MW4 9695   2.921   0.809   4.120 -0.0763  0.5670 -0.0505
 2413SOL     OW 9696   0.666   0.155   4.501  0.0999  0.0444 -0.4296
 2413SOL    HW2 9697   0.640   0.217   4.570 -0.4888 -0.5810 -0.0955
 2413SOL    HW3 9698   0.682   0.211   4.425 -1.9021  0.4554 -0.5599
 2413SOL    MW4 9699   0.665   0.171   4.500 -0.2419  0.0161 -0.4029
 2414SOL     OW 9700   0.009   1.687   4.272  0.3038  0.4959 -0.4742
 2414SOL    HW2 9701   0.019   1.777   4.240  2.3145 -0.3770 -2.4989
 2414SOL    HW3 9702  -0.066   1.653   4.223  0.6879  0.5176 -1.0888
 2414SOL    MW4 9703   0.000   1.694   4.261  0.6199  0.3836 -0.8225
 2415SOL     OW 9704   3.575   3.997   4.236 -0.0670  0.2058 -0.2820
 2415SOL    HW2 9705   3.495   3.955   4.205 -0.9754  0.2534  1.9210
 2415SOL    HW3 9706   3.575   4.083   4.194 -0.8116 -0.0563 -0.8298
 2415SOL    MW4 9707   3.564   4.003   4.227 -0.2851  0.1774 -0.0634
 2416SOL     OW 9708   2.502   3.918   4.150  0.2552  0.1236  0.2058
 2416SOL    HW2 9709   2.463   3.834   4.175 -0.6754  1.0383  1.9310
 2416SOL    HW3 9710   2.579   3.926   4.205 -0.1887  0.8315  0.7354
 2416SOL    MW4 9711   2.507   3.908   4.160  0.0739  0.3376  0.5031
 2417SOL     OW 9712   3.807   1.258   4.335  0.0661  0.0504  0.2435
 2417SOL    HW2 9713   3.897   1.237   4.311 -0.1696 -0.7481  0.0553
 2417SOL    HW3 9714   3.768   1.291   4.254 -0.2726 -1.1441 -0.0918
 2417SOL    MW4 9715   3.814   1.260   4.321 -0.0095 -0.2124  0.1745
 2418SOL     OW 9716   1.764   0.866   4.803  0.4586  0.0909 -0.5847
 2418SOL    HW2 9717   1.784   0.957   4.822 -0.9659  0.2557  0.1165
 2418SOL    HW3 9718   1.823   0.844   4.731  1.1389  1.4185 -0.4511
 2418SOL    MW4 9719   1.775   0.875   4.796  0.3605  0.2878 -0.4745
 2419SOL     OW 9720   1.597   3.049   4.057  0.3787 -0.5441 -0.2425
 2419SOL    HW2 9721   1.594   2.967   4.106 -0.7535  1.0658  2.5116
 2419SOL    HW3 9722   1.685   3.084   4.075  0.1258 -0.1778  0.3153
 2419SOL    MW4 9723   1.608   3.043   4.066  0.1959 -0.2832  0.1945
 2420SOL     OW 9724   3.369   0.276   4.214 -0.6664  0.3334 -0.4932
 2420SOL    HW2 9725   3.351   0.280   4.308 -0.3971 -0.0444 -0.4222
 2420SOL    HW3 9726   3.420   0.355   4.196  1.5396 -0.8588  0.1899
 2420SOL    MW4 9727   3.374   0.287   4.224 -0.3397  0.1263 -0.3939
 2421SOL     OW 9728   3.128   1.681   4.374  0.1420 -0.0491  0.1491
 2421SOL    HW2 9729   3.184   1.752   4.407  0.5270 -0.4329  0.3243
 2421SOL    HW3 9730   3.073   1.658   4.449  0.1274 -0.0504  0.1389
 2421SOL    MW4 9731   3.128   1.688   4.388  0.1907 -0.1000  0.1712
 2422SOL     OW 9732   1.524   2.061   4.410 -0.1296  0.2176 -0.3164
 2422SOL    HW2 9733   1.554   1.979   4.450 -0.5507  0.7147  1.0262
 2422SOL    HW3 9734   1.433   2.070   4.439 -0.1193  1.1024 -0.5555
 2422SOL    MW4 9735   1.516   2.051   4.419 -0.1837  0.4003 -0.1707
 2423SOL     OW 9736   1.392   2.649   4.108 -0.4687 -0.3952  0.4568
 2423SOL    HW2 9737   1.401   2.553   4.111 -1.1703 -0.4660  0.2299
 2423SOL    HW3 9738   1.304   2.666   4.141 -0.3845  0.1724  0.3902
 2423SOL    MW4 9739   1.382   2.638   4.113 -0.5502 -0.3297  0.4172
 2424SOL     OW 9740   2.362   4.115   4.270 -0.0837 -0.4420  0.0010
 2424SOL    HW2 9741   2.419   4.054   4.224 -0.8306 -1.2298  0.1062
 2424SOL    HW3 9742   2.390   4.109   4.362  0.4470  0.0583 -0.1250
 2424SOL    MW4 9743   2.373   4.106   4.276 -0.1123 -0.4797 -0.0019
 2425SOL     OW 9744   1.578   1.082   4.196  0.0182 -0.0830 -0.1100
 2425SOL    HW2 9745   1.582   0.990   4.169 -0.4819  0.1103 -0.8461
 2425SOL    HW3 9746   1.661   1.119   4.166  0.7767 -0.5814  1.2985
 2425SOL    MW4 9747   1.590   1.075   4.189  0.0523 -0.1231 -0.0215
 2426SOL     OW 9748   0.659   0.712   3.795  0.4446  0.0319  0.2897
 2426SOL    HW2 9749   0.657   0.623   3.761 -0.9705 -0.1140  0.7214
 2426SOL    HW3 9750   0.657   0.701   3.891 -0.1762  0.5342  0.3345
 2426SOL    MW4 9751   0.659   0.699   3.803  0.1760  0.0789  0.3526
 2427SOL     OW 9752   3.256   0.873   4.691  0.2959  0.3510 -0.1423
 2427SOL    HW2 9753   3.164   0.876   4.719 -0.1178 -0.5048 -1.3665
 2427SOL    HW3 9754   3.281   0.965   4.683  0.1333  0.6228  2.0133
 2427SOL    MW4 9755   3.247   0.886   4.694  0.2198  0.2739 -0.0196
 2428SOL     OW 9756   4.297   3.150   4.340 -0.3453  0.3347 -0.1388
 2428SOL    HW2 9757   4.380   3.190   4.316 -0.1334 -0.5666 -0.9355
 2428SOL    HW3 9758   4.276   3.091   4.267 -1.2651 -0.0713  0.4363
 2428SOL    MW4 9759   4.305   3.148   4.327 -0.4382  0.1619 -0.1683
 2429SOL     OW 9760   3.405   0.752   4.128  0.0974  0.0403  0.0014
 2429SOL    HW2 9761   3.312   0.740   4.142  0.0197  0.2874 -0.2843
 2429SOL    HW3 9762   3.441   0.663   4.125 -0.4174 -0.1387 -1.7642
 2429SOL    MW4 9763   3.398   0.739   4.129  0.0191  0.0493 -0.2694
 2430SOL     OW 9764   2.209   1.353   4.442 -0.0620  0.3431  0.3073
 2430SOL    HW2 9765   2.126   1.307   4.456  0.6488 -0.7384  1.0161
 2430SOL    HW3 9766   2.221   1.354   4.347 -0.4722 -0.2156  0.2511
 2430SOL    MW4 9767   2.199   1.347   4.432 -0.0222  0.1266  0.3934
 2431SOL     OW 9768   1.717   3.920   4.120  0.0322 -0.1328 -0.3415
 2431SOL    HW2 9769   1.803   3.880   4.119 -0.9604 -2.3370  0.0013
 2431SOL    HW3 9770   1.722   3.986   4.190  1.2078 -0.7576  0.1703
 2431SOL    MW4 9771   1.729   3.924   4.129  0.0564 -0.5059 -0.2289
 2432SOL     OW 9772   0.874   0.884   4.533  0.4868  0.9073 -0.1572
 2432SOL    HW2 9773   0.843   0.876   4.443 -2.4711 -0.0840  0.8810
 2432SOL    HW3 9774   0.817   0.951   4.572  0.5195  0.0121  1.4623
 2432SOL    MW4 9775   0.863   0.892   4.526  0.1009  0.6585  0.1936
 2433SOL     OW 9776   3.630   1.891   4.775  0.3300 -0.0034  0.2971
 2433SOL    HW2 9777   3.696   1.828   4.744  0.0127  0.1053 -0.6183
 2433SOL    HW3 9778   3.673   1.976   4.767 -0.2875  0.1749 -1.3507
 2433SOL    MW4 9779   3.644   1.894   4.769  0.2065  0.0346 -0.0415
 2434SOL     OW 9780   0.450   1.105   3.924  0.0559  0.1129 -0.3234
 2434SOL    HW2 9781   0.386   1.163   3.882  1.2273  0.9228 -1.0176
 2434SOL    HW3 9782   0.436   1.021   3.881  1.7566  1.1032 -2.9835
 2434SOL    MW4 9783   0.440   1.102   3.913  0.4349  0.3505 -0.7660
 2435SOL     OW 9784   0.824   3.800   4.154  0.2063  0.0964  0.2329
 2435SOL    HW2 9785   0.816   3.710   4.183  0.6436 -0.7274 -2.0977
 2435SOL    HW3 9786   0.735   3.835   4.162 -0.1218 -0.7654  0.4203
 2435SOL    MW4 9787   0.811   3.793   4.159  0.2207 -0.1259 -0.0501
 2436SOL     OW 9788   3.828   3.665   4.266 -0.1004 -0.5062  0.4768
 2436SOL    HW2 9789   3.901   3.611   4.237  0.2280 -0.8541  1.9164
 2436SOL    HW3 9790   3.763   3.602   4.299 -0.8631 -0.1765 -0.3744
 2436SOL    MW4 9791   3.829   3.649   4.266 -0.1578 -0.5085  0.5546
 2437SOL     OW 9792   0.741   1.748   4.243 -0.4176 -0.0346 -0.0643
 2437SOL    HW2 9793   0.773   1.838   4.234 -1.2999  0.4170  1.0795
 2437SOL    HW3 9794   0.758   1.725   4.335  1.4190 -1.6931 -0.7919
 2437SOL    MW4 9795   0.747   1.757   4.254 -0.2916 -0.1938 -0.0091
 2438SOL     OW 9796   2.318   1.620   4.489  0.2600  0.1860 -0.0313
 2438SOL    HW2 9797   2.407   1.624   4.524 -0.3663 -0.8677  1.7379
 2438SOL    HW3 9798   2.293   1.528   4.496 -1.6901  0.7830  1.3277
 2438SOL    MW4 9799   2.326   1.608   4.494 -0.0801  0.1259  0.3819
 2439SOL     OW 9800   2.705   0.385   4.171 -0.3754 -0.2242  0.0657
 2439SOL    HW2 9801   2.704   0.362   4.077  0.9492 -1.3347  0.3030
 2439SOL    HW3 9802   2.697   0.480   4.172 -0.0134 -0.1619 -1.2007
 2439SOL    MW4 9803   2.704   0.394   4.158 -0.1528 -0.3625 -0.0701
 2440SOL     OW 9804   3.633   0.948   4.214 -0.0804 -0.0347 -0.4506
 2440SOL    HW2 9805   3.563   0.894   4.178 -0.6524  0.2686  0.1955
 2440SOL    HW3 9806   3.615   1.036   4.180  0.0538  0.0209 -0.3777
 2440SOL    MW4 9807   3.621   0.953   4.204 -0.1385  0.0127 -0.3557
 2441SOL     OW 9808   0.768   3.893   4.531 -0.5844 -0.3029  0.1825
 2441SOL    HW2 9809   0.755   3.981   4.568  1.1879  0.3515 -0.6748
 2441SOL    HW3 9810   0.860   3.874   4.549  0.0130 -0.4515 -2.8631
 2441SOL    MW4 9811   0.779   3.902   4.538 -0.2717 -0.2363 -0.3324
 2442SOL     OW 9812   3.701   1.413   4.136  0.3102  0.1526  0.5607
 2442SOL    HW2 9813   3.662   1.329   4.112 -1.3978  1.0939 -0.0527
 2442SOL    HW3 9814   3.753   1.438   4.060 -0.5623  0.4493  0.0495
 2442SOL    MW4 9815   3.703   1.405   4.123 -0.0303  0.3159  0.4120
 2443SOL     OW 9816   2.279   1.154   4.660  0.3100  0.1311 -0.0261
 2443SOL    HW2 9817   2.350   1.209   4.691 -1.0767  1.6998  0.4597
 2443SOL    HW3 9818   2.247   1.199   4.582  0.4550 -1.0676 -0.7920
 2443SOL    MW4 9819   2.284   1.167   4.654  0.1464  0.1799 -0.0629
 2444SOL     OW 9820   2.708   3.084   4.119  0.0439  0.0327  0.3484
 2444SOL    HW2 9821   2.663   3.041   4.046 -1.4280  1.2158  0.5415
 2444SOL    HW3 9822   2.796   3.100   4.086 -0.8324  1.2967 -1.4840
 2444SOL    MW4 9823   2.713   3.080   4.105 -0.2658  0.3557  0.1321
 2445SOL     OW 9824   0.457   1.726   4.238 -0.2394  0.1289  0.3203
 2445SOL    HW2 9825   0.431   1.786   4.168 -0.2372  0.0408  0.2432
 2445SOL    HW3 9826   0.552   1.723   4.233 -0.1709  1.0139  1.0723
 2445SOL    MW4 9827   0.466   1.734   4.228 -0.2300  0.2340  0.4096
 2446SOL     OW 9828   2.593   1.015   4.560 -0.4195 -0.2204 -0.2035
 2446SOL    HW2 9829   2.576   1.103   4.524 -0.1790  0.2896  0.9305
 2446SOL    HW3 9830   2.507   0.972   4.557 -1.1002  0.9539  1.6604
 2446SOL    MW4 9831   2.579   1.021   4.555 -0.4776  0.0018  0.1922
 2447SOL     OW 9832   3.256   1.904   4.067 -0.1382 -0.1162 -0.0554
 2447SOL    HW2 9833   3.164   1.913   4.091 -0.7398 -1.5048 -1.7538
 2447SOL    HW3 9834   3.278   1.813   4.086  1.3399  0.5786  1.7656
 2447SOL    MW4 9835   3.247   1.893   4.073 -0.0226 -0.2078 -0.0396
 2448SOL     OW 9836   0.824   2.544   4.513  0.0126  0.2881  0.3037
 2448SOL    HW2 9837   0.821   2.639   4.519 -1.3360  0.2284  0.8778
 2448SOL    HW3 9838   0.738   2.520   4.478  0.4144 -0.7023 -0.0115
 2448SOL    MW4 9839   0.812   2.553   4.509 -0.1124  0.1495  0.3376
 2449SOL     OW 9840   1.074   3.265   4.470 -0.0021 -0.1330 -0.0587
 2449SOL    HW2 9841   1.051   3.252   4.377  1.5766  0.8755 -0.6066
 2449SOL    HW3 9842   1.166   3.240   4.476 -0.0078  0.1136  1.1820
 2449SOL    MW4 9843   1.083   3.260   4.458  0.2054  0.0327  0.0324
 2450SOL     OW 9844   2.015   0.791   4.181 -0.5564  0.7409 -0.1520
 2450SOL    HW2 9845   2.091   0.741   4.211 -1.1781  0.2218  0.5664
 2450SOL    HW3 9846   1.940   0.734   4.197 -1.3647  2.1450  1.3666
 2450SOL    MW4 9847   2.015   0.777   4.187 -0.7453  0.8576  0.1426
 2451SOL     OW 9848   2.656   3.678   4.509 -0.4135 -0.2878  0.5879
 2451SOL    HW2 9849   2.717   3.604   4.514  0.1640  0.1561  0.1601
 2451SOL    HW3 9850   2.688   3.731   4.436 -1.2906 -0.0256  0.3893
 2451SOL    MW4 9851   2.669   3.675   4.500 -0.4530 -0.1945  0.5050
 2452SOL     OW 9852   1.821   1.190   4.132 -0.0422  0.3178  0.3515
 2452SOL    HW2 9853   1.807   1.277   4.169 -1.0905  0.1197  0.4513
 2452SOL    HW3 9854   1.809   1.202   4.038  1.1208  0.5275  0.2191
 2452SOL    MW4 9855   1.817   1.203   4.124 -0.0271  0.3195  0.3476
 2453SOL     OW 9856   0.224   1.544   4.196  0.4980 -0.0291 -0.1804
 2453SOL    HW2 9857   0.149   1.597   4.221  0.0024 -0.0650 -1.5327
 2453SOL    HW3 9858   0.300   1.601   4.207  0.3789 -0.2643  2.0205
 2453SOL    MW4 9859   0.224   1.558   4.200  0.4169 -0.0648 -0.0682
 2454SOL     OW 9860   2.939   1.544   3.832  0.3938 -0.7425  0.3579
 2454SOL    HW2 9861   2.939   1.458   3.790 -0.2875  0.1884 -1.5821
 2454SOL    HW3 9862   3.017   1.588   3.798 -0.1188 -0.0088  0.1265
 2454SOL    MW4 9863   2.949   1.538   3.822  0.2363 -0.5229  0.0713
 2455SOL     OW 9864   1.890   1.733   4.493 -0.1053  0.5674 -0.3716
 2455SOL    HW2 9865   1.926   1.798   4.553 -0.0085 -0.4333  0.6726
 2455SOL    HW3 9866   1.931   1.753   4.408  0.0912  1.7138 -0.0141
 2455SOL    MW4 9867   1.900   1.745   4.490 -0.0668  0.5865 -0.1864
 2456SOL     OW 9868   1.539   3.564   4.205  0.4915  0.3979  0.3883
 2456SOL    HW2 9869   1.457   3.520   4.184 -0.2494  2.5814 -1.4843
 2456SOL    HW3 9870   1.535   3.579   4.299 -0.9977 -0.0188  0.4023
 2456SOL    MW4 9871   1.528   3.560   4.214  0.1972  0.6309  0.1435
 2457SOL     OW 9872   1.944   1.809   4.237  0.1431  0.3733  0.2101
 2457SOL    HW2 9873   2.008   1.879   4.219 -0.3594  0.6618 -0.5059
 2457SOL    HW3 9874   1.868   1.833   4.184 -0.4612 -0.1123  0.8590
 2457SOL    MW4 9875   1.943   1.821   4.227 -0.0030  0.3474  0.2017
 2458SOL     OW 9876   3.718   4.654   4.168  0.1373  0.1186 -0.0338
 2458SOL    HW2 9877   3.758   4.670   4.083 -0.3470 -0.7401 -0.4216
 2458SOL    HW3 9878   3.624   4.652   4.150 -0.0231  0.8526  0.6730
 2458SOL    MW4 9879   3.711   4.656   4.155  0.0522  0.1025  0.0086
 2459SOL     OW 9880   2.804   1.480   4.325  0.3398 -0.0792  0.1018
 2459SOL    HW2 9881   2.841   1.465   4.238  2.3223  0.3283  0.8402
 2459SOL    HW3 9882   2.843   1.411   4.380 -0.4054  0.0417  0.7939
 2459SOL    MW4 9883   2.814   1.469   4.321  0.5031 -0.0094  0.2904
 2460SOL     OW 9884   1.587   4.656   4.198 -0.5600  0.1775  0.0341
 2460SOL    HW2 9885   1.502   4.613   4.204 -0.0643 -0.8273 -0.0304
 2460SOL    HW3 9886   1.645   4.605   4.255 -0.1072  1.1327  0.4509
 2460SOL    MW4 9887   1.584   4.643   4.206 -0.4349  0.1712  0.0801
 2461SOL     OW 9888   1.987   1.200   4.492  0.3230 -0.2543 -0.0603
 2461SOL    HW2 9889   1.912   1.253   4.466  0.5342 -0.5943 -1.4210
 2461SOL    HW3 9890   1.984   1.198   4.588 -0.6371  0.8186 -0.0673
 2461SOL    MW4 9891   1.977   1.206   4.501  0.2242 -0.1576 -0.2408
 2462SOL     OW 9892   3.297   3.468   4.662 -0.0011  0.8784  0.0704
 2462SOL    HW2 9893   3.283   3.384   4.618 -0.3526  0.4437  1.0048
 2462SOL    HW3 9894   3.311   3.445   4.754 -0.9079  1.9010  0.4715
 2462SOL    MW4 9895   3.297   3.454   4.668 -0.1674  0.9558  0.2465
 2463SOL     OW 9896   0.873   4.260   4.114  0.5397  0.3718 -0.3382
 2463SOL    HW2 9897   0.939   4.224   4.172  0.1137  2.2009  1.3157
 2463SOL    HW3 9898   0.868   4.353   4.136 -3.7077  0.0071  0.7378
 2463SOL    MW4 9899   0.881   4.268   4.124 -0.0769  0.5646  0.0219
 2464SOL     OW 9900   4.033   0.935   4.212  0.0626  0.0833 -0.4994
 2464SOL    HW2 9901   4.120   0.894   4.216  0.4291  0.9641  1.1901
 2464SOL    HW3 9902   3.979   0.872   4.164  1.2629 -1.1562 -0.2606
 2464SOL    MW4 9903   4.037   0.921   4.206  0.2689  0.0361 -0.2451
 2465SOL     OW 9904   1.627   1.798   4.491 -0.5323 -0.7113  0.2937
 2465SOL    HW2 9905   1.715   1.759   4.493 -0.1771  0.0571 -0.2645
 2465SOL    HW3 9906   1.592   1.781   4.578  0.5393 -0.1668  0.8431
 2465SOL    MW4 9907   1.634   1.790   4.503 -0.3442 -0.5381  0.2923
 2466SOL     OW 9908   3.424   3.596   4.246  0.1715  0.0769  0.0934
 2466SOL    HW2 9909   3.374   3.514   4.254 -0.3978  0.3487 -0.6677
 2466SOL    HW3 9910   3.516   3.568   4.250 -0.0242 -0.5701  0.1269
 2466SOL    MW4 9911   3.430   3.581   4.248  0.0708  0.0274 -0.0033
 2467SOL     OW 9912   1.803   3.304   4.788  0.2644  0.4715 -0.0166
 2467SOL    HW2 9913   1.743   3.317   4.861  1.0016  1.7619  0.3678
 2467SOL    HW3 9914   1.745   3.296   4.711 -0.4920 -0.6609  0.6657
 2467SOL    MW4 9915   1.787   3.305   4.787  0.2619  0.4923  0.1245
 2468SOL     OW 9916   0.059   0.199   4.274  0.9660  0.2503  0.4074
 2468SOL    HW2 9917  -0.035   0.211   4.256  0.9196  1.2427  1.2584
 2468SOL    HW3 9918   0.085   0.127   4.217 -0.5843 -0.8352  1.0102
 2468SOL    MW4 9919   0.050   0.191   4.264  0.7553  0.2380  0.5989
 2469SOL     OW 9920   2.446   2.618   4.534  0.4986 -0.3135  0.3069
 2469SOL    HW2 9921   2.492   2.540   4.504 -0.2905 -1.3750  1.8144
 2469SOL    HW3 9922   2.386   2.586   4.601  0.9558  1.7559  1.7436
 2469SOL    MW4 9923   2.444   2.603   4.539  0.4549 -0.1805  0.6957
 2470SOL     OW 9924   1.101   1.593   4.093  0.6711  0.5493 -0.5123
 2470SOL    HW2 9925   1.021   1.540   4.087  0.3020  1.0933 -0.3657
 2470SOL    HW3 9926   1.077   1.678   4.057  0.7296  1.2401  1.0344
 2470SOL    MW4 9927   1.087   1.597   4.087  0.6303  0.7122 -0.2894
 2471SOL     OW 9928   0.534   1.985   4.609 -0.1726  0.0227 -0.1115
 2471SOL    HW2 9929   0.487   1.903   4.593  0.1821 -0.1040 -0.4889
 2471SOL    HW3 9930   0.610   1.959   4.661 -0.1567  0.1357 -0.0789
 2471SOL    MW4 9931   0.538   1.970   4.614 -0.1236  0.0209 -0.1574
 2472SOL     OW 9932   2.465   1.550   3.875 -0.1321 -0.1369 -0.3283
 2472SOL    HW2 9933   2.381   1.585   3.845 -0.3705 -0.4720 -0.0576
 2472SOL    HW3 9934   2.531   1.596   3.822 -0.6103 -1.6190 -2.2645
 2472SOL    MW4 9935   2.463   1.561   3.864 -0.2267 -0.3767 -0.5481
 2473SOL     OW 9936   1.883   0.964   4.383  0.1443  0.2882 -0.4484
 2473SOL    HW2 9937   1.928   1.044   4.409 -0.6137  0.9016 -0.9870
 2473SOL    HW3 9938   1.936   0.927   4.313  0.7327  0.0796  0.1034
 2473SOL    MW4 9939   1.896   0.970   4.377  0.1220  0.3416 -0.4468
 2474SOL     OW 9940   2.072   3.621   3.762 -0.0592 -0.0814  0.2843
 2474SOL    HW2 9941   2.137   3.555   3.788  1.8309  1.7411  0.2509
 2474SOL    HW3 9942   2.091   3.638   3.670 -0.2114  0.8730  0.4267
 2474SOL    MW4 9943   2.083   3.614   3.753  0.1700  0.2849  0.2990
 2475SOL     OW 9944   0.450   2.724   4.256  0.2565 -0.5033 -0.2839
 2475SOL    HW2 9945   0.485   2.646   4.299  0.9499 -0.9635 -1.6647
 2475SOL    HW3 9946   0.525   2.781   4.243 -0.2010  0.2726  0.4621
 2475SOL    MW4 9947   0.464   2.721   4.260  0.2877 -0.4618 -0.3672
 2476SOL     OW 9948   3.728   1.331   4.703  0.1012 -0.0876  0.1362
 2476SOL    HW2 9949   3.656   1.316   4.765 -3.3305  0.9532 -3.3902
 2476SOL    HW3 9950   3.722   1.258   4.642  0.9476  0.9306 -1.1801
 2476SOL    MW4 9951   3.717   1.320   4.703 -0.2398  0.1839 -0.5031
 2477SOL     OW 9952   4.001   1.392   4.768  0.2668 -0.6386 -0.8865
 2477SOL    HW2 9953   3.907   1.380   4.759  0.0781  1.5100 -1.9711
 2477SOL    HW3 9954   4.013   1.420   4.858 -0.1760 -0.4368 -0.8888
 2477SOL    MW4 9955   3.990   1.394   4.778  0.1833 -0.3284 -1.0304
 2478SOL     OW 9956   1.943   0.770   4.557  0.1136  0.2746  0.1436
 2478SOL    HW2 9957   2.030   0.733   4.542  0.3905  0.9063  0.1591
 2478SOL    HW3 9958   1.932   0.834   4.487 -0.5387 -0.1415 -0.1388
 2478SOL    MW4 9959   1.953   0.774   4.546  0.0640  0.3031  0.1082
 2479SOL     OW 9960   0.211   0.285   4.492 -0.4687  0.1570  0.4816
 2479SOL    HW2 9961   0.260   0.350   4.441  2.4795 -1.3618  1.2661
 2479SOL    HW3 9962   0.154   0.242   4.428  2.3436 -0.9475 -1.3671
 2479SOL    MW4 9963   0.210   0.288   4.477  0.2913 -0.1891  0.3409
 2480SOL     OW 9964   3.425   4.414   4.280  0.5060  0.0036 -0.5169
 2480SOL    HW2 9965   3.338   4.404   4.241  0.4604  0.0618 -0.4298
 2480SOL    HW3 9966   3.421   4.364   4.362  1.0307 -1.2561 -1.2496
 2480SOL    MW4 9967   3.413   4.406   4.286  0.5693 -0.1550 -0.6022
 2481SOL     OW 9968   0.710   2.855   4.244  0.0495 -0.0755  0.2699
 2481SOL    HW2 9969   0.738   2.769   4.213  0.0727 -0.5200  1.4740
 2481SOL    HW3 9970   0.745   2.860   4.333 -1.1035  0.6304  0.6846
 2481SOL    MW4 9971   0.718   2.844   4.252 -0.0995 -0.0412  0.4835
 2482SOL     OW 9972   3.217   3.861   4.549  0.1779 -0.1491  0.1936
 2482SOL    HW2 9973   3.302   3.816   4.543  0.9166  1.1837  0.4374
 2482SOL    HW3 9974   3.189   3.871   4.458  0.8093  0.3708  0.0511
 2482SOL    MW4 9975   3.225   3.856   4.536  0.3588  0.0954  0.2069
 2483SOL     OW 9976   0.387   2.656   4.579  0.1459  0.4992  0.1710
 2483SOL    HW2 9977   0.301   2.619   4.600 -0.2618 -0.4947 -2.9009
 2483SOL    HW3 9978   0.367   2.737   4.531  0.9060  0.0113 -0.9791
 2483SOL    MW4 9979   0.373   2.662   4.575  0.1924  0.3035 -0.3858
 2484SOL     OW 9980   0.507   2.157   4.202 -0.0829  0.8095  0.6593
 2484SOL    HW2 9981   0.446   2.224   4.171 -0.4325  0.4382  0.5535
 2484SOL    HW3 9982   0.592   2.183   4.165 -0.4271  0.5649 -0.3056
 2484SOL    MW4 9983   0.510   2.170   4.193 -0.1745  0.7281  0.5174
 2485SOL     OW 9984   2.704   1.638   3.757  0.4057 -0.1793  0.0071
 2485SOL    HW2 9985   2.782   1.600   3.797  0.2614 -0.6116 -0.1194
 2485SOL    HW3 9986   2.702   1.728   3.788 -0.0932 -0.7054  1.5714
 2485SOL    MW4 9987   2.714   1.645   3.767  0.3207 -0.3057  0.1969
 2486SOL     OW 9988   2.072   2.896   4.647  0.3676 -0.7727 -0.0358
 2486SOL    HW2 9989   2.155   2.941   4.631  0.4966 -1.0930 -0.2611
 2486SOL    HW3 9990   2.016   2.963   4.686  0.4165 -0.2893 -0.7773
 2486SOL    MW4 9991   2.076   2.911   4.650  0.3910 -0.7508 -0.1631
 2487SOL     OW 9992   0.866   1.806   4.632 -0.2470  0.0261 -0.2405
 2487SOL    HW2 9993   0.808   1.747   4.585  2.4211 -2.9581  0.0293
 2487SOL    HW3 9994   0.953   1.766   4.624  1.0314  1.8394  3.3250
 2487SOL    MW4 9995   0.870   1.793   4.625  0.2736 -0.1284  0.2651
 2488SOL     OW 9996   0.921   2.672   3.892  0.2260  0.0659  0.7929
 2488SOL    HW2 9997   0.843   2.721   3.864  0.6102  0.1913 -0.0598
 2488SOL    HW3 9998   0.907   2.656   3.985  0.0026  1.6137  1.0294
 2488SOL    MW4 9999   0.909   2.676   3.900  0.2472  0.2868  0.7117
 2489SOL     OW10000   2.933   1.423   4.088 -0.2670  0.2407 -0.6495
 2489SOL    HW210001   2.881   1.344   4.073  1.3148 -0.7193 -1.1921
 2489SOL    HW310002   2.931   1.469   4.005  0.1184 -0.0200 -0.8039
 2489SOL    MW410003   2.926   1.418   4.075 -0.0074  0.0795 -0.7415
 2490SOL     OW10004   0.205   2.312   4.386  0.3089  0.4518 -0.3485
 2490SOL    HW210005   0.278   2.267   4.428 -0.5182  0.0457  0.6715
 2490SOL    HW310006   0.163   2.361   4.456 -0.0150  1.2069 -1.0613
 2490SOL    MW410007   0.209   2.313   4.401  0.1570  0.4981 -0.3076
 2491SOL     OW10008   1.777   0.590   4.240  0.7235  0.0921 -0.0811
 2491SOL    HW210009   1.753   0.508   4.196  0.8998  0.1917 -0.3650
 2491SOL    HW310010   1.755   0.575   4.332 -1.2118  0.4950 -0.4598
 2491SOL    MW410011   1.771   0.577   4.247  0.4914  0.1584 -0.1683
 2492SOL     OW10012   2.704   3.227   3.704  0.2093 -0.7458  0.1628
 2492SOL    HW210013   2.774   3.186   3.755  0.0939 -1.8935 -0.5820
 2492SOL    HW310014   2.639   3.157   3.694 -0.3294 -0.1492 -0.4947
 2492SOL    MW410015   2.705   3.212   3.710  0.1228 -0.8185 -0.0222
 2493SOL     OW10016   3.328   4.553   4.630 -0.1467  0.1018 -0.5176
 2493SOL    HW210017   3.258   4.544   4.695  1.3092  0.3667  1.1317
 2493SOL    HW310018   3.338   4.466   4.593 -0.3270 -0.2900  0.3393
 2493SOL    MW410019   3.320   4.540   4.634  0.0215  0.0854 -0.1869
 2494SOL     OW10020   3.114   0.387   4.157 -0.0521  0.4411  0.5846
 2494SOL    HW210021   3.192   0.340   4.185 -0.1191 -1.0769 -1.6713
 2494SOL    HW310022   3.045   0.354   4.215  0.2430 -0.9977  0.1502
 2494SOL    MW410023   3.115   0.376   4.169 -0.0222  0.0510  0.2298
 2495SOL     OW10024   2.188   3.705   4.565  0.0069  0.2267  0.0140
 2495SOL    HW210025   2.120   3.646   4.598  0.1159  0.3390  0.4462
 2495SOL    HW310026   2.263   3.649   4.549  0.5382  0.4452  1.6831
 2495SOL    MW410027   2.189   3.690   4.567  0.0913  0.2701  0.2913
 2496SOL     OW10028   0.002   4.467   4.187  0.2028  0.0312 -0.0324
 2496SOL    HW210029   0.003   4.463   4.282  0.9947 -0.7176 -0.0681
 2496SOL    HW310030  -0.028   4.380   4.160  2.1010 -0.5022 -0.5051
 2496SOL    MW410031  -0.002   4.455   4.196  0.5577 -0.1378 -0.0997
 2497SOL     OW10032   3.075   0.380   4.758 -0.6201 -0.2250 -0.0899
 2497SOL    HW210033   3.040   0.298   4.726  0.0037 -2.1448  3.8435
 2497SOL    HW310034   3.170   0.371   4.749 -0.4716 -0.5303  1.5136
 2497SOL    MW410035   3.083   0.368   4.753 -0.5181 -0.5185  0.6404
 2498SOL     OW10036   3.350   3.833   4.117  0.0998  0.1979  0.1006
 2498SOL    HW210037   3.343   3.854   4.024 -1.0164 -1.4109 -0.1963
 2498SOL    HW310038   3.378   3.742   4.119  1.9022  0.7596  1.3594
 2498SOL    MW410039   3.353   3.824   4.105  0.1907  0.0598  0.2275
 2499SOL     OW10040   3.845   3.926   4.187 -0.2489 -0.0488 -0.1133
 2499SOL    HW210041   3.753   3.954   4.186 -0.7045 -1.4816 -1.4279
 2499SOL    HW310042   3.842   3.838   4.225  0.6220  0.0193  0.1103
 2499SOL    MW410043   3.832   3.918   4.192 -0.1941 -0.2286 -0.2570
 2500SOL     OW10044   1.309   3.422   4.111 -0.0648  0.1096 -0.2711
 2500SOL    HW210045   1.317   3.444   4.018  0.8192  1.2371  0.0614
 2500SOL    HW310046   1.237   3.477   4.142  1.0209  1.3256  0.1698
 2500SOL    MW410047   1.301   3.433   4.103  0.1950  0.4189 -0.1693
 2501SOL     OW10048   3.058   4.155   4.315  0.3163 -0.2935 -0.2737
 2501SOL    HW210049   3.074   4.156   4.409  0.4022 -0.0930 -0.2893
 2501SOL    HW310050   2.964   4.144   4.306  0.1914  0.6499 -0.1537
 2501SOL    MW410051   3.048   4.153   4.326  0.3111 -0.1426 -0.2594
 2502SOL     OW10052   3.678   3.330   4.048 -0.0444 -0.2101 -0.0886
 2502SOL    HW210053   3.756   3.275   4.054 -0.0028 -0.1945 -0.4878
 2502SOL    HW310054   3.605   3.268   4.055  0.0019 -0.2652 -0.0943
 2502SOL    MW410055   3.678   3.314   4.050 -0.0327 -0.2153 -0.1421
 2503SOL     OW10056   0.847   0.581   4.558  0.2321  0.3015  0.2649
 2503SOL    HW210057   0.855   0.676   4.560  1.4413  0.2667 -1.6403
 2503SOL    HW310058   0.937   0.549   4.548 -0.1339 -1.0613  1.1714
 2503SOL    MW410059   0.860   0.589   4.557  0.3434  0.1172  0.1335
 2504SOL     OW10060   3.070   3.638   4.621 -0.0834 -0.1509  0.0596
 2504SOL    HW210061   3.110   3.716   4.583 -0.4634  0.6280  1.2357
 2504SOL    HW310062   3.143   3.582   4.645  0.1581 -1.0216 -2.5375
 2504SOL    MW410063   3.085   3.641   4.619 -0.1016 -0.1631 -0.1278
 2505SOL     OW10064   2.570   0.121   4.508  0.2733  0.0184 -0.2073
 2505SOL    HW210065   2.546   0.151   4.420 -1.7313  1.0255  0.6459
 2505SOL    HW310066   2.612   0.036   4.494 -0.0360  0.1613 -2.1252
 2505SOL    MW410067   2.572   0.113   4.495 -0.0322  0.1701 -0.3481
 2506SOL     OW10068   1.797   1.134   4.873 -0.1480 -0.1105  0.3574
 2506SOL    HW210069   1.885   1.158   4.843 -0.3994 -1.1096 -1.2497
 2506SOL    HW310070   1.800   1.146   4.968  1.9912 -0.8996  0.4220
 2506SOL    MW410071   1.809   1.139   4.882  0.1009 -0.3463  0.1540
 2507SOL     OW10072   2.981   0.873   4.715 -0.2483 -0.1686 -0.2327
 2507SOL    HW210073   2.955   0.794   4.763  1.2736 -0.5830 -0.0444
 2507SOL    HW310074   2.955   0.857   4.625 -0.4716 -0.6321 -0.0854
 2507SOL    MW410075   2.974   0.861   4.710 -0.0768 -0.2845 -0.1884
 2508SOL     OW10076   0.108   2.508   4.576 -0.0129  0.1492 -0.1730
 2508SOL    HW210077   0.056   2.585   4.551 -0.1248  0.6066  1.3939
 2508SOL    HW310078   0.056   2.466   4.644  0.7458 -0.4988  0.0106
 2508SOL    MW410079   0.094   2.513   4.582  0.0724  0.1240  0.0582
 2509SOL     OW10080   1.001   2.333   4.478 -0.1763 -0.0337  0.0577
 2509SOL    HW210081   0.942   2.408   4.489 -0.5226 -0.5623  1.9046
 2509SOL    HW310082   1.089   2.371   4.483 -0.3465  0.2390  1.2014
 2509SOL    MW410083   1.005   2.348   4.480 -0.2445 -0.0675  0.4520
 2510SOL     OW10084   0.402   0.068   4.449 -0.2876  0.2964  0.1670
 2510SOL    HW210085   0.347   0.139   4.483 -0.0227  0.1513  0.9257
 2510SOL    HW310086   0.492   0.098   4.464 -0.1369  1.0010 -2.0657
 2510SOL    MW410087   0.407   0.081   4.456 -0.2328  0.3702 -0.0277
 2511SOL     OW10088   4.155   0.602   4.300  0.5300  0.0105 -0.1587
 2511SOL    HW210089   4.179   0.663   4.230 -0.0016 -0.5681 -0.8400
 2511SOL    HW310090   4.158   0.656   4.380  0.2723  0.8819 -0.7285
 2511SOL    MW410091   4.158   0.617   4.302  0.4258  0.0491 -0.3242
 2512SOL     OW10092   2.271   3.450   3.874 -0.3012  0.1790 -0.2631
 2512SOL    HW210093   2.319   3.528   3.844  0.3506 -0.4603 -0.9114
 2512SOL    HW310094   2.225   3.479   3.953  0.0215  1.1937 -0.4393
 2512SOL    MW410095   2.271   3.465   3.880 -0.1724  0.2284 -0.3722
 2513SOL     OW10096   0.453   4.654   4.185  0.4399  0.4593  0.2717
 2513SOL    HW210097   0.443   4.676   4.277 -1.1325 -0.8444  0.4344
 2513SOL    HW310098   0.441   4.559   4.182 -0.8797  0.6606 -1.4526
 2513SOL    MW410099   0.450   4.644   4.197  0.0583  0.3142  0.0658
 2514SOL     OW10100   2.412   3.566   4.497 -0.0214  0.1184 -0.0600
 2514SOL    HW210101   2.491   3.599   4.540 -0.5440 -0.5613  1.4515
 2514SOL    HW310102   2.429   3.577   4.403  1.2232  1.4191  0.3110
 2514SOL    MW410103   2.425   3.571   4.490  0.0737  0.2000  0.1884
 2515SOL     OW10104   0.809   4.338   4.574 -0.0697 -0.7713 -0.3959
 2515SOL    HW210105   0.756   4.276   4.625 -0.1546 -0.0773  0.3632
 2515SOL    HW310106   0.899   4.307   4.584  0.0820  0.1627  1.3396
 2515SOL    MW410107   0.814   4.326   4.582 -0.0609 -0.5569 -0.0672
 2516SOL     OW10108   0.167   1.295   4.275  0.2171 -0.3307  0.1653
 2516SOL    HW210109   0.177   1.384   4.240 -0.2896  0.5974  2.3053
 2516SOL    HW310110   0.106   1.252   4.215 -0.0150  0.9669 -0.5465
 2516SOL    MW410111   0.160   1.301   4.262  0.1196 -0.0371  0.3538
 2517SOL     OW10112   2.256   2.079   4.502 -0.3526 -0.1695 -0.1344
 2517SOL    HW210113   2.260   1.990   4.539  1.8001 -0.2876 -0.5905
 2517SOL    HW310114   2.227   2.066   4.412 -0.0122 -0.4327 -0.2087
 2517SOL    MW410115   2.253   2.065   4.495 -0.0236 -0.2196 -0.2041
 2518SOL     OW10116   1.830   4.021   4.522 -0.2736 -0.1235  0.0085
 2518SOL    HW210117   1.917   4.058   4.538 -0.0188  0.4001 -2.4953
 2518SOL    HW310118   1.843   3.926   4.529 -0.1141  0.0375  2.4199
 2518SOL    MW410119   1.843   4.013   4.525 -0.2190 -0.0329 -0.0033
 2519SOL     OW10120   1.975   3.528   4.652  0.1735  0.5004 -0.3426
 2519SOL    HW210121   1.905   3.575   4.607  1.2684  2.2441 -0.2742
 2519SOL    HW310122   1.929   3.466   4.709 -1.2594 -0.9998 -3.0071
 2519SOL    MW410123   1.960   3.526   4.654  0.1290  0.5329 -0.6852
 2520SOL     OW10124   0.243   4.172   4.235  0.0923 -0.2023 -0.3324
 2520SOL    HW210125   0.160   4.193   4.193  0.6157  1.1087 -0.7329
 2520SOL    HW310126   0.223   4.168   4.328 -0.2462  0.9870 -0.3478
 2520SOL    MW410127   0.230   4.174   4.242  0.1167  0.1273 -0.3877
 2521SOL     OW10128   0.688   0.265   4.232 -0.1935  0.1515 -0.7227
 2521SOL    HW210129   0.771   0.311   4.233 -1.1678  2.0054  2.3892
 2521SOL    HW310130   0.706   0.183   4.186  3.5698  0.0758  0.7313
 2521SOL    MW410131   0.701   0.261   4.226  0.1745  0.3861 -0.1202
 2522SOL     OW10132   0.925   0.382   4.176  0.5880 -0.1961 -0.2199
 2522SOL    HW210133   0.959   0.471   4.186  1.1368 -0.3254 -0.8999
 2522SOL    HW310134   0.908   0.374   4.082 -0.8617 -0.3045  0.0442
 2522SOL    MW410135   0.927   0.393   4.165  0.4691 -0.2275 -0.2751
 2523SOL     OW10136   2.476   2.846   3.463  0.1050 -0.1896  0.2060
 2523SOL    HW210137   2.391   2.809   3.440 -0.3228 -0.1462  1.6745
 2523SOL    HW310138   2.480   2.929   3.415 -0.7623 -0.1126  0.2582
 2523SOL    MW410139   2.466   2.852   3.454 -0.0658 -0.1736  0.4067
 2524SOL     OW10140   0.849   4.599   4.437  0.5718  0.5134 -0.1387
 2524SOL    HW210141   0.789   4.672   4.451 -0.0747 -0.0245 -0.0831
 2524SOL    HW310142   0.817   4.530   4.495 -0.5512 -0.8301 -2.2872
 2524SOL    MW410143   0.837   4.599   4.447  0.3383  0.2656 -0.4144
 2525SOL     OW10144   2.697   3.257   4.503 -0.0204 -0.1441  0.0554
 2525SOL    HW210145   2.737   3.171   4.512 -0.3817 -0.2703  0.4314
 2525SOL    HW310146   2.769   3.318   4.517  0.0793 -0.3747  0.5403
 2525SOL    MW410147   2.712   3.254   4.506 -0.0548 -0.1910  0.1693
 2526SOL     OW10148   3.317   1.508   4.861 -0.1693 -0.1200 -0.1945
 2526SOL    HW210149   3.222   1.518   4.870  0.0164  0.5603  1.1821
 2526SOL    HW310150   3.349   1.597   4.846  0.3000 -0.2700 -0.0815
 2526SOL    MW410151   3.309   1.521   4.860 -0.0830 -0.0501  0.0024
 2527SOL     OW10152   2.711   0.653   4.203  0.2166  0.3042  0.1093
 2527SOL    HW210153   2.777   0.716   4.178 -1.2550  1.5250 -0.7941
 2527SOL    HW310154   2.628   0.701   4.197 -0.9655 -1.7806 -0.9638
 2527SOL    MW410155   2.708   0.667   4.199 -0.1333  0.1902 -0.1516
 2528SOL     OW10156   0.386   3.576   4.410  0.6984 -0.3056 -0.0510
 2528SOL    HW210157   0.434   3.528   4.342 -0.3416 -0.8135 -0.4372
 2528SOL    HW310158   0.313   3.617   4.363  0.4220 -0.0147  0.6354
 2528SOL    MW410159   0.383   3.575   4.394  0.5247 -0.3343 -0.0114
 2529SOL     OW10160   2.222   1.131   3.857  0.9524  0.1397 -0.4841
 2529SOL    HW210161   2.231   1.041   3.825  1.4579  0.8645 -2.4986
 2529SOL    HW310162   2.311   1.167   3.850  0.3103  1.5030 -1.9988
 2529SOL    MW410163   2.235   1.123   3.852  0.9344  0.4152 -0.9499
 2530SOL     OW10164   0.278   1.056   4.593 -0.1731 -0.0249 -0.3348
 2530SOL    HW210165   0.340   1.052   4.520  0.3473 -0.1080  0.1072
 2530SOL    HW310166   0.272   1.150   4.614 -0.6988  0.0489 -0.7985
 2530SOL    MW410167   0.286   1.068   4.586 -0.1738 -0.0262 -0.3371
 2531SOL     OW10168   3.470   3.168   4.089  0.3923  0.2064  0.1955
 2531SOL    HW210169   3.470   3.093   4.148  0.0123  0.8451  1.0312
 2531SOL    HW310170   3.436   3.134   4.006  0.1424 -0.5231  0.5901
 2531SOL    MW410171   3.465   3.154   4.086  0.3090  0.1941  0.3576
 2532SOL     OW10172   1.896   2.671   4.553 -0.0142  0.1154 -0.2306
 2532SOL    HW210173   1.956   2.736   4.588  0.0600  0.1428 -0.4057
 2532SOL    HW310174   1.932   2.587   4.580 -1.1056  0.2014  1.5758
 2532SOL    MW410175   1.908   2.668   4.561 -0.1484  0.1304 -0.0157
 2533SOL     OW10176   2.594   1.306   4.490  0.5065 -0.3412 -0.3106
 2533SOL    HW210177   2.600   1.276   4.400  2.4557  0.7883 -0.5790
 2533SOL    HW310178   2.646   1.386   4.493  0.9730 -0.6824  1.9494
 2533SOL    MW410179   2.601   1.313   4.479  0.8254 -0.2370 -0.0486
 2534SOL     OW10180   2.246   1.843   4.649 -0.0896 -0.0563  0.2427
 2534SOL    HW210181   2.265   1.765   4.596 -1.6675 -0.6534  0.5418
 2534SOL    HW310182   2.320   1.849   4.709 -0.2908 -1.7220  0.6760
 2534SOL    MW410183   2.258   1.834   4.650 -0.3242 -0.3548  0.3390
 2535SOL     OW10184   1.186   3.564   4.485  0.0407 -0.2822 -0.3275
 2535SOL    HW210185   1.159   3.569   4.394 -0.0135 -1.7630 -0.4055
 2535SOL    HW310186   1.144   3.484   4.518  1.4523 -0.6867  0.5277
 2535SOL    MW410187   1.177   3.555   4.478  0.2199 -0.5310 -0.2251
 2536SOL     OW10188   0.680   4.112   4.677 -0.0817  0.3043  0.4225
 2536SOL    HW210189   0.703   4.055   4.750 -1.2346 -1.7747 -0.7826
 2536SOL    HW310190   0.590   4.087   4.655  0.0434  1.3229 -1.3255
 2536SOL    MW410191   0.671   4.101   4.684 -0.2173  0.1645  0.0329
 2537SOL     OW10192   3.433   0.016   4.148 -0.5442  0.0848 -0.1482
 2537SOL    HW210193   3.399  -0.059   4.197  0.0024 -0.5871 -0.7889
 2537SOL    HW310194   3.400   0.092   4.196 -1.0091 -0.5581  0.5757
 2537SOL    MW410195   3.424   0.016   4.161 -0.5336 -0.0882 -0.1373
 2538SOL     OW10196   1.738   0.558   4.525 -0.6816 -0.0387 -0.9257
 2538SOL    HW210197   1.673   0.607   4.575 -0.6782 -0.6970 -0.2734
 2538SOL    HW310198   1.822   0.597   4.549 -0.6915 -0.2656 -0.5193
 2538SOL    MW410199   1.741   0.569   4.534 -0.6825 -0.1554 -0.7858
 2539SOL     OW10200   1.992   4.571   4.456 -0.4976 -0.6206  0.8656
 2539SOL    HW210201   2.051   4.542   4.526 -0.7518 -1.4684  0.7286
 2539SOL    HW310202   2.035   4.543   4.375  0.5744  1.7241  0.5710
 2539SOL    MW410203   2.005   4.564   4.455 -0.3898 -0.4225  0.8092
 2540SOL     OW10204   4.274   0.168   4.242  0.5883 -0.4087 -0.1841
 2540SOL    HW210205   4.205   0.227   4.212  0.6135 -0.3511 -0.1274
 2540SOL    HW310206   4.245   0.141   4.329  1.1842  0.4780  0.2920
 2540SOL    MW410207   4.261   0.172   4.250  0.6704 -0.2841 -0.1135
 2541SOL     OW10208   0.045   3.518   4.136 -0.0343  0.1780 -0.1372
 2541SOL    HW210209   0.108   3.582   4.170  1.0065 -1.6819  1.5240
 2541SOL    HW310210  -0.040   3.554   4.161  0.4308  1.8261 -0.8382
 2541SOL    MW410211   0.042   3.531   4.144  0.1645  0.1502 -0.0105
 2542SOL     OW10212   3.834   2.328   4.349 -0.2736 -0.4756  0.1429
 2542SOL    HW210213   3.881   2.386   4.409  0.5152 -0.5891 -0.3628
 2542SOL    HW310214   3.759   2.296   4.400 -0.0381  0.0403  0.8091
 2542SOL    MW410215   3.830   2.331   4.364 -0.1385 -0.4225  0.1640
 2543SOL     OW10216   2.637   3.498   4.117  0.4329 -0.4627  0.6132
 2543SOL    HW210217   2.592   3.418   4.144  0.3912 -0.8478 -0.5677
 2543SOL    HW310218   2.639   3.493   4.021 -1.4153  1.9374  0.3966
 2543SOL    MW410219   2.631   3.487   4.108  0.1833 -0.1972  0.4282
 2544SOL     OW10220   4.486   2.707   4.437  0.1243 -0.3844 -0.0509
 2544SOL    HW210221   4.511   2.799   4.447 -1.1240  0.1999 -2.0940
 2544SOL    HW310222   4.512   2.685   4.348 -1.7682 -1.3145 -0.3955
 2544SOL    MW410223   4.493   2.716   4.426 -0.2904 -0.4301 -0.3657
 2545SOL     OW10224   1.468   3.834   4.184 -0.1638  0.4763 -0.1517
 2545SOL    HW210225   1.536   3.884   4.139  1.3918 -0.3111  1.2690
 2545SOL    HW310226   1.493   3.743   4.170 -0.6427  0.1965  0.8237
 2545SOL    MW410227   1.480   3.829   4.176 -0.0218  0.3357  0.1650
 2546SOL     OW10228   2.197   1.376   4.163 -0.4179  0.1226 -0.2421
 2546SOL    HW210229   2.124   1.438   4.155  0.2077  0.7897 -0.8320
 2546SOL    HW310230   2.157   1.290   4.151 -1.6417  0.2516  2.4998
 2546SOL    MW410231   2.182   1.373   4.161 -0.4969  0.2276  0.0415
 2547SOL     OW10232   1.746   1.880   4.064  0.1189 -0.2309  0.4933
 2547SOL    HW210233   1.767   1.883   3.971 -0.9109 -0.5366  0.2528
 2547SOL    HW310234   1.689   1.955   4.078  0.8012  0.2013  1.0192
 2547SOL    MW410235   1.742   1.890   4.054  0.0730 -0.2141  0.5302
 2548SOL     OW10236   1.483   4.442   4.555 -0.2790 -0.0254  0.0065
 2548SOL    HW210237   1.550   4.488   4.504 -0.5443  0.5454  0.1698
 2548SOL    HW310238   1.496   4.473   4.645  0.1943 -1.0334  0.3021
 2548SOL    MW410239   1.494   4.452   4.560 -0.2515 -0.0834  0.0668
 2549SOL     OW10240   1.053   3.836   4.527 -0.3568 -0.1542 -0.1720
 2549SOL    HW210241   1.098   3.752   4.535 -0.1278  0.0966  1.1900
 2549SOL    HW310242   1.124   3.900   4.516 -0.4023  0.1655  1.3457
 2549SOL    MW410243   1.068   3.833   4.526 -0.3326 -0.0792  0.2084
 2550SOL     OW10244   2.504   1.708   4.255 -0.2775  0.1534  0.5524
 2550SOL    HW210245   2.441   1.694   4.326 -1.4730  0.6018 -0.3788
 2550SOL    HW310246   2.523   1.621   4.222 -0.6861  0.0360  0.6222
 2550SOL    MW410247   2.498   1.695   4.260 -0.4892  0.1971  0.4387
 2551SOL     OW10248   2.461   2.258   4.665  0.5238  0.3468 -0.0783
 2551SOL    HW210249   2.516   2.303   4.601 -1.6917  0.3440 -2.0733
 2551SOL    HW310250   2.410   2.195   4.613 -0.7559 -0.2284  1.8086
 2551SOL    MW410251   2.461   2.255   4.650  0.0627  0.2706 -0.0930
 2552SOL     OW10252   4.313   1.347   4.522  0.7911  0.3905  0.4515
 2552SOL    HW210253   4.271   1.288   4.585  0.9992  1.3860  1.5308
 2552SOL    HW310254   4.253   1.421   4.515  0.2025 -0.2249 -1.4114
 2552SOL    MW410255   4.300   1.349   4.529  0.7410  0.4406  0.3481
 2553SOL     OW10256   0.624   4.155   4.154  0.0682  0.0005 -0.2476
 2553SOL    HW210257   0.718   4.170   4.153  0.0864 -0.1189 -0.8804
 2553SOL    HW310258   0.595   4.183   4.067 -0.5388  0.4201  0.0924
 2553SOL    MW410259   0.633   4.161   4.142 -0.0096  0.0401 -0.2861
 2554SOL     OW10260   3.791   2.367   3.855  0.1514 -0.2371  0.1356
 2554SOL    HW210261   3.714   2.399   3.809  0.7203  0.9139 -0.0353
 2554SOL    HW310262   3.807   2.279   3.819 -0.8198 -0.3061 -0.1243
 2554SOL    MW410263   3.783   2.359   3.845  0.0982 -0.0944  0.0784
 2555SOL     OW10264   0.035   2.644   4.155 -0.2951 -0.2679 -0.0502
 2555SOL    HW210265  -0.033   2.579   4.133  0.2199 -0.4291 -1.2099
 2555SOL    HW310266   0.110   2.619   4.101  0.6706 -0.0413  1.1663
 2555SOL    MW410267   0.036   2.632   4.145 -0.0997 -0.2592 -0.0424
 2556SOL     OW10268   2.952   1.043   4.281  0.7597 -0.0907 -0.3558
 2556SOL    HW210269   2.931   0.967   4.227  1.1583 -0.5535  0.1347
 2556SOL    HW310270   3.046   1.036   4.297  0.6206 -0.0416  0.5111
 2556SOL    MW410271   2.962   1.032   4.276  0.7942 -0.1453 -0.1764
 2557SOL     OW10272   3.550   1.630   4.259  0.1574  0.2976 -0.0305
 2557SOL    HW210273   3.588   1.546   4.232  0.8735  0.7606 -0.4764
 2557SOL    HW310274   3.468   1.636   4.210  0.1038 -0.1370 -0.0009
 2557SOL    MW410275   3.544   1.619   4.249  0.2446  0.3015 -0.0854
 2558SOL     OW10276   2.508   1.817   4.765 -0.0944 -0.1880  0.0458
 2558SOL    HW210277   2.540   1.753   4.702 -1.2868  0.0209 -0.7651
 2558SOL    HW310278   2.560   1.895   4.748  0.9134 -0.7227  0.6092
 2558SOL    MW410279   2.519   1.819   4.755 -0.1187 -0.2310  0.0124
 2559SOL     OW10280   0.263   3.335   4.474  0.3460  0.0614 -0.2231
 2559SOL    HW210281   0.308   3.420   4.471 -1.1737  0.9487  0.9195
 2559SOL    HW310282   0.332   3.271   4.486  1.3367  1.3745  1.2217
 2559SOL    MW410283   0.278   3.338   4.475  0.2762  0.3517  0.1183
 2560SOL     OW10284   2.957   2.342   3.830  0.5453 -0.5328  0.8090
 2560SOL    HW210285   3.018   2.406   3.792 -0.5779  0.4643  0.6606
 2560SOL    HW310286   2.972   2.348   3.924 -0.0430  0.4652  0.8481
 2560SOL    MW410287   2.967   2.351   3.837  0.3195 -0.2697  0.7946
 2561SOL     OW10288   1.426   2.889   4.493 -0.0157  0.2573 -0.3882
 2561SOL    HW210289   1.376   2.970   4.501 -0.3556  0.1091 -0.9646
 2561SOL    HW310290   1.360   2.820   4.497  0.4192 -0.0676  1.6161
 2561SOL    MW410291   1.411   2.891   4.495 -0.0031  0.1948 -0.1998
 2562SOL     OW10292   1.817   3.735   4.520 -0.7829  0.4571  0.1265
 2562SOL    HW210293   1.725   3.763   4.523 -1.4116 -1.5856  0.6314
 2562SOL    HW310294   1.830   3.705   4.430  0.6612  4.7183 -1.2099
 2562SOL    MW410295   1.807   3.735   4.508 -0.6753  0.7498  0.0172
 2563SOL     OW10296   0.695   1.643   4.490 -0.3430  0.1196 -0.4124
 2563SOL    HW210297   0.711   1.550   4.501 -0.8709 -0.1047 -1.5134
 2563SOL    HW310298   0.607   1.656   4.525  0.0244  0.3448  0.4386
 2563SOL    MW410299   0.685   1.633   4.496 -0.3642  0.1198 -0.4454
 2564SOL     OW10300   3.590   2.714   3.814  0.1465  0.0152 -0.3606
 2564SOL    HW210301   3.581   2.630   3.769  1.0373  0.3938 -1.2620
 2564SOL    HW310302   3.514   2.765   3.785 -0.1545 -0.3124 -0.1564
 2564SOL    MW410303   3.579   2.710   3.804  0.2241  0.0219 -0.4525
 2565SOL     OW10304   2.029   2.270   4.091  0.4976 -0.6553 -0.7492
 2565SOL    HW210305   2.073   2.267   4.006  1.0605  1.3428 -0.5539
 2565SOL    HW310306   1.936   2.262   4.071  0.6159  0.0694 -1.5648
 2565SOL    MW410307   2.022   2.268   4.078  0.5877 -0.2961 -0.8316
 2566SOL     OW10308   3.574   4.145   4.630  0.0888 -0.1440  0.3945
 2566SOL    HW210309   3.596   4.064   4.584 -0.0689  1.1177 -1.9535
 2566SOL    HW310310   3.650   4.163   4.685  1.1335 -0.6346 -0.8720
 2566SOL    MW410311   3.587   4.137   4.631  0.2058 -0.0424 -0.0825
 2567SOL     OW10312   3.111   4.140   4.576 -0.0000 -0.0849 -0.0210
 2567SOL    HW210313   3.029   4.150   4.625  0.7339  0.1921  1.1636
 2567SOL    HW310314   3.139   4.050   4.594  0.4911  0.1552  0.3911
 2567SOL    MW410315   3.104   4.129   4.585  0.1619 -0.0167  0.1893
 2568SOL     OW10316   3.297   1.398   4.528  0.4138  0.3653 -0.5216
 2568SOL    HW210317   3.258   1.391   4.441  0.3855 -0.1779 -0.4642
 2568SOL    HW310318   3.345   1.481   4.526 -0.3442  0.8036 -0.7506
 2568SOL    MW410319   3.298   1.408   4.516  0.3102  0.3515 -0.5445
 2569SOL     OW10320   1.777   0.321   4.128  0.1445  0.2980 -0.1112
 2569SOL    HW210321   1.860   0.286   4.159 -0.0988  0.5335  0.8216
 2569SOL    HW310322   1.710   0.274   4.178 -0.2464  0.8579 -0.0980
 2569SOL    MW410323   1.779   0.310   4.138  0.0609  0.4029  0.0138
 2570SOL     OW10324   1.626   1.237   4.651 -0.4327 -0.0602  0.0767
 2570SOL    HW210325   1.684   1.199   4.717  2.7085  1.4388 -1.6749
 2570SOL    HW310326   1.630   1.175   4.578 -1.3326 -0.1269  0.0840
 2570SOL    MW410327   1.634   1.224   4.650 -0.1371  0.1287 -0.1535
 2571SOL     OW10328   4.344   3.941   4.146  0.0280 -0.3630 -0.4274
 2571SOL    HW210329   4.342   3.935   4.051  1.1506  1.2855 -0.5768
 2571SOL    HW310330   4.265   3.991   4.169  0.1227 -0.1591 -0.5455
 2571SOL    MW410331   4.333   3.947   4.136  0.1884 -0.1190 -0.4630
 2572SOL     OW10332   4.284   2.283   4.322  0.2812  0.5385  0.3928
 2572SOL    HW210333   4.262   2.310   4.411  4.4661  2.2081  1.0557
 2572SOL    HW310334   4.340   2.206   4.333  1.0708  0.9224 -0.7639
 2572SOL    MW410335   4.289   2.276   4.335  0.9379  0.8094  0.3271
 2573SOL     OW10336   2.105   1.100   4.123  0.0852  0.2689  0.2328
 2573SOL    HW210337   2.009   1.109   4.121 -0.0233 -0.9408 -0.3558
 2573SOL    HW310338   2.131   1.102   4.031  0.4828 -0.9155  0.3253
 2573SOL    MW410339   2.095   1.102   4.111  0.1235 -0.0471  0.1678
 2574SOL     OW10340   3.593   0.142   3.770 -0.5002 -0.0748 -0.2767
 2574SOL    HW210341   3.665   0.086   3.799 -0.5854 -0.6499 -1.1509
 2574SOL    HW310342   3.601   0.144   3.675 -1.1601  0.5099 -0.3244
 2574SOL    MW410343   3.604   0.135   3.761 -0.5984 -0.0735 -0.3982
 2575SOL     OW10344   3.520   2.695   4.315  0.1007  0.0231  0.2054
 2575SOL    HW210345   3.575   2.685   4.237  0.6919 -2.6931  0.9098
 2575SOL    HW310346   3.447   2.635   4.301 -0.0126 -0.1651  1.5415
 2575SOL    MW410347   3.518   2.686   4.303  0.1638 -0.3600  0.4745
 2576SOL     OW10348   4.218   2.321   4.583  0.2733 -0.0400 -0.0101
 2576SOL    HW210349   4.186   2.235   4.611 -0.2679 -0.2193 -1.1466
 2576SOL    HW310350   4.282   2.346   4.650  1.2317 -1.8139 -0.2295
 2576SOL    MW410351   4.222   2.313   4.595  0.3285 -0.2975 -0.1888
 2577SOL     OW10352   3.155   0.667   4.219 -0.0034 -0.3767  0.3135
 2577SOL    HW210353   3.177   0.677   4.311 -2.0693 -0.2502  0.8224
 2577SOL    HW310354   3.132   0.574   4.209 -1.9366  0.0658  0.4432
 2577SOL    MW410355   3.155   0.656   4.230 -0.5307 -0.3017  0.3977
 2578SOL     OW10356   0.972   2.370   4.204 -0.3902  0.2083 -0.2759
 2578SOL    HW210357   0.998   2.363   4.296 -1.1588 -1.6076 -0.1669
 2578SOL    HW310358   1.049   2.342   4.155 -0.7553 -1.1735 -0.0872
 2578SOL    MW410359   0.985   2.365   4.210 -0.5397 -0.2134 -0.2360
 2579SOL     OW10360   0.213   3.065   4.156  0.1621  0.7184 -0.4444
 2579SOL    HW210361   0.154   3.007   4.108  0.8329 -0.2943 -0.0510
 2579SOL    HW310362   0.158   3.139   4.182 -0.8461 -0.0332 -0.4083
 2579SOL    MW410363   0.198   3.067   4.153  0.1176  0.4857 -0.3872
 2580SOL     OW10364   4.190   4.373   4.385 -0.0666 -0.2883  0.5022
 2580SOL    HW210365   4.180   4.331   4.470 -2.3671 -0.3377  0.2346
 2580SOL    HW310366   4.134   4.451   4.390 -0.5689 -0.5197 -1.1091
 2580SOL    MW410367   4.181   4.378   4.396 -0.4363 -0.3252  0.2542
 2581SOL     OW10368   0.575   4.300   4.400  0.0904  0.1036  0.2854
 2581SOL    HW210369   0.661   4.331   4.429  0.5503 -0.1447 -0.7800
 2581SOL    HW310370   0.580   4.303   4.305 -1.2275  0.4473  0.2219
 2581SOL    MW410371   0.587   4.304   4.392 -0.0229  0.1168  0.1369
 2582SOL     OW10372   0.158   1.609   4.515  0.4212 -0.5357 -0.3702
 2582SOL    HW210373   0.145   1.514   4.522 -0.3082 -0.3729  0.4138
 2582SOL    HW310374   0.108   1.634   4.437 -0.4940 -0.5744  0.2093
 2582SOL    MW410375   0.150   1.599   4.505  0.2043 -0.5194 -0.1907
 2583SOL     OW10376   1.212   4.484   4.465  0.4018  0.8421  0.4490
 2583SOL    HW210377   1.299   4.483   4.504 -0.2690 -0.9660  1.9583
 2583SOL    HW310378   1.181   4.573   4.477  1.4723  1.1244  1.1809
 2583SOL    MW410379   1.219   4.495   4.471  0.4545  0.6409  0.7448
 2584SOL     OW10380   0.001   3.895   4.386  0.0654 -0.1553  0.5701
 2584SOL    HW210381  -0.057   3.830   4.425 -0.3003  0.2479  0.7054
 2584SOL    HW310382  -0.045   3.923   4.307  1.1490 -1.5185 -0.5738
 2584SOL    MW410383  -0.013   3.890   4.381  0.1602 -0.2823  0.4368
 2585SOL     OW10384   0.562   3.883   4.164 -0.5995 -0.0345  0.3578
 2585SOL    HW210385   0.538   3.866   4.255 -0.7599  1.4071  0.5975
 2585SOL    HW310386   0.562   3.979   4.156  0.6825 -0.1044 -0.8125
 2585SOL    MW410387   0.559   3.894   4.175 -0.4515  0.1466  0.2346
 2586SOL     OW10388   3.447   2.966   4.274  0.2282 -0.4778  0.0152
 2586SOL    HW210389   3.494   2.883   4.266  1.4086  0.2451 -0.6950
 2586SOL    HW310390   3.474   3.000   4.359 -0.1132 -0.7333  0.2263
 2586SOL    MW410391   3.457   2.959   4.284  0.3390 -0.4165 -0.0505
 2587SOL     OW10392   3.908   1.523   4.372 -0.2349  0.1779 -0.1081
 2587SOL    HW210393   3.852   1.447   4.352  0.5309  0.1787 -2.3020
 2587SOL    HW310394   3.878   1.591   4.313  0.9037  0.7421 -0.0421
 2587SOL    MW410395   3.897   1.522   4.362  0.0162  0.2525 -0.3886
 2588SOL     OW10396   2.958   4.492   4.077  0.1031  0.0625  0.2020
 2588SOL    HW210397   2.944   4.537   3.994 -0.1568 -0.7718 -0.2117
 2588SOL    HW310398   2.942   4.559   4.144  1.5428  1.0640 -0.4287
 2588SOL    MW410399   2.954   4.507   4.075  0.2589  0.0844  0.0644
 2589SOL     OW10400   4.233   3.022   4.076 -0.2232 -0.3040 -0.1109
 2589SOL    HW210401   4.170   2.950   4.085 -1.4889  0.6617 -1.0042
 2589SOL    HW310402   4.223   3.051   3.985 -0.4894  1.6953  0.5531
 2589SOL    MW410403   4.223   3.016   4.065 -0.4253  0.0873 -0.1411
 2590SOL     OW10404   1.243   4.045   4.520  0.3159 -0.3703 -0.4859
 2590SOL    HW210405   1.194   4.118   4.558  0.7652 -0.0962 -0.4268
 2590SOL    HW310406   1.315   4.086   4.473 -0.3187 -0.7051 -1.7756
 2590SOL    MW410407   1.246   4.060   4.519  0.2916 -0.3786 -0.6485
 2591SOL     OW10408   3.165   2.991   4.227 -0.8619  0.6384  0.1189
 2591SOL    HW210409   3.136   3.000   4.317 -2.2796 -2.1937 -0.0202
 2591SOL    HW310410   3.260   2.997   4.231 -0.7507 -1.9007  2.1244
 2591SOL    MW410411   3.173   2.993   4.239 -1.0340 -0.0703  0.3653
 2592SOL     OW10412   0.398   0.591   4.723 -0.1549 -0.4704  0.4057
 2592SOL    HW210413   0.424   0.683   4.732 -0.5104 -0.2976 -0.3046
 2592SOL    HW310414   0.305   0.590   4.746 -0.8617 -0.1717 -2.2756
 2592SOL    MW410415   0.389   0.603   4.728 -0.2951 -0.4082 -0.0415
 2593SOL     OW10416   0.402   1.744   4.526  0.5329  0.3249 -0.0835
 2593SOL    HW210417   0.327   1.686   4.539  0.2411  1.0607  1.6139
 2593SOL    HW310418   0.414   1.746   4.432 -1.4725  0.0600 -0.3689
 2593SOL    MW410419   0.394   1.737   4.516  0.2298  0.3868  0.1035
 2594SOL     OW10420   0.397   4.392   4.146 -0.3739 -0.3318  0.1924
 2594SOL    HW210421   0.337   4.328   4.185 -1.4154  0.1665 -0.5592
 2594SOL    HW310422   0.431   4.347   4.068  1.0880 -1.0240  1.2058
 2594SOL    MW410423   0.394   4.378   4.141 -0.3184 -0.3576  0.2275
 2595SOL     OW10424   1.331   4.281   4.149  0.1048  0.2703 -0.1024
 2595SOL    HW210425   1.322   4.376   4.146 -0.5345  0.2382  0.5011
 2595SOL    HW310426   1.339   4.254   4.058 -1.9358  0.7101 -0.4441
 2595SOL    MW410427   1.331   4.290   4.137 -0.2488  0.3242 -0.0677
 2596SOL     OW10428   2.511   0.217   4.258 -0.4866 -0.0076 -0.4297
 2596SOL    HW210429   2.434   0.272   4.243 -0.0330  1.0002  0.8733
 2596SOL    HW310430   2.585   0.269   4.226 -0.1186 -0.1166  0.2420
 2596SOL    MW410431   2.511   0.231   4.251 -0.3784  0.1110 -0.1688
 2597SOL     OW10432   0.664   1.066   4.582  0.3909  0.4850 -0.0548
 2597SOL    HW210433   0.678   1.158   4.604 -1.3334  0.6700  0.2822
 2597SOL    HW310434   0.610   1.067   4.503  0.5040 -0.2394 -0.1438
 2597SOL    MW410435   0.659   1.078   4.575  0.1784  0.4138 -0.0224
 2598SOL     OW10436   2.925   3.794   4.143 -0.3637  0.0192  0.0895
 2598SOL    HW210437   2.915   3.706   4.178 -0.5132  0.4033  1.0204
 2598SOL    HW310438   2.990   3.836   4.200 -1.0521  0.8440  0.2814
 2598SOL    MW410439   2.932   3.788   4.155 -0.4742  0.1788  0.2375
 2599SOL     OW10440   1.549   1.732   4.755 -0.0629  0.3238  0.6210
 2599SOL    HW210441   1.516   1.643   4.742  0.6636  0.1018  0.2792
 2599SOL    HW310442   1.643   1.721   4.767  0.3673  1.2428 -1.6244
 2599SOL    MW410443   1.557   1.718   4.755  0.0898  0.4157  0.2799
 2600SOL     OW10444   3.794   2.098   4.692 -0.2878  0.6621  0.3297
 2600SOL    HW210445   3.882   2.073   4.663 -0.1054  0.4700  1.0457
 2600SOL    HW310446   3.752   2.131   4.613 -0.1062 -0.7301 -0.3661
 2600SOL    MW410447   3.800   2.099   4.677 -0.2401  0.4530  0.3324
 2601SOL     OW10448   4.463   4.206   4.099  0.0093 -0.0762 -0.1258
 2601SOL    HW210449   4.418   4.121   4.106 -2.4932  1.1936 -0.4057
 2601SOL    HW310450   4.450   4.232   4.008  0.6305  0.6977  0.0044
 2601SOL    MW410451   4.455   4.198   4.088 -0.2394  0.1941 -0.1459
 2602SOL     OW10452   2.287   0.221   4.619  0.9320 -0.1655  0.2887
 2602SOL    HW210453   2.363   0.171   4.589  0.7671  0.9682 -2.1964
 2602SOL    HW310454   2.324   0.304   4.648  0.6729  0.3169 -0.7500
 2602SOL    MW410455   2.302   0.225   4.619  0.8762  0.0477 -0.1760
 2603SOL     OW10456   2.366   1.956   4.139 -0.4675 -0.6143 -0.1544
 2603SOL    HW210457   2.406   1.870   4.152 -0.6122 -0.8434 -1.1645
 2603SOL    HW310458   2.429   2.018   4.174 -0.3541 -1.1277  0.5718
 2603SOL    MW410459   2.379   1.953   4.145 -0.4714 -0.7123 -0.1917
 2604SOL     OW10460   3.186   0.713   4.487 -0.1476 -0.2889  0.2422
 2604SOL    HW210461   3.204   0.762   4.566 -2.5988  0.2100  0.5327
 2604SOL    HW310462   3.124   0.645   4.514 -0.1095 -0.8452 -1.0103
 2604SOL    MW410463   3.180   0.710   4.501 -0.4661 -0.2964  0.1149
 2605SOL     OW10464   2.520   4.519   4.230 -0.3407 -0.2364 -0.3842
 2605SOL    HW210465   2.505   4.589   4.166 -0.0436  1.1598  1.0609
 2605SOL    HW310466   2.593   4.469   4.193  2.1246  2.5894  0.4882
 2605SOL    MW410467   2.528   4.521   4.216  0.0238  0.3204 -0.0782
 2606SOL     OW10468   4.447   4.484   4.458  0.1153  0.3720  0.1462
 2606SOL    HW210469   4.369   4.434   4.435 -0.2326  0.6166  0.7666
 2606SOL    HW310470   4.491   4.431   4.525 -0.5700  1.1537  1.2478
 2606SOL    MW410471   4.442   4.471   4.464 -0.0210  0.5074  0.3729
 2607SOL     OW10472   1.751   2.317   4.137  0.4474  0.0636 -0.4420
 2607SOL    HW210473   1.757   2.411   4.120 -0.6633 -0.1592 -2.1278
 2607SOL    HW310474   1.757   2.310   4.233 -0.4108  1.9288 -0.2222
 2607SOL    MW410475   1.752   2.328   4.148  0.1874  0.2806 -0.6356
 2608SOL     OW10476   2.472   3.655   3.774  0.2392  0.6994 -0.3016
 2608SOL    HW210477   2.489   3.657   3.680  0.3989  0.3145 -0.2840
 2608SOL    HW310478   2.537   3.593   3.809  0.3441  1.0248  0.0955
 2608SOL    MW410479   2.483   3.647   3.767  0.2739  0.6917 -0.2468
 2609SOL     OW10480   2.973   1.691   4.631  0.2277  0.1860  0.1978
 2609SOL    HW210481   2.895   1.661   4.678  0.5546  1.0706  1.3418
 2609SOL    HW310482   3.018   1.748   4.694  1.5164  0.1140 -0.6404
 2609SOL    MW410483   2.968   1.695   4.646  0.4411  0.2933  0.2375
 2610SOL     OW10484   1.566   0.713   4.698  0.0953 -0.0945 -0.1474
 2610SOL    HW210485   1.630   0.776   4.731  0.1802 -0.4415  0.3553
 2610SOL    HW310486   1.561   0.646   4.766 -0.6875 -0.1502 -0.2520
 2610SOL    MW410487   1.573   0.713   4.711  0.0032 -0.1476 -0.0949
 2611SOL     OW10488   4.040   4.357   4.101  0.0092 -0.5671 -0.3835
 2611SOL    HW210489   4.055   4.279   4.154 -0.2212 -0.5438 -0.2830
 2611SOL    HW310490   4.115   4.413   4.118  0.2721 -0.8502 -0.6060
 2611SOL    MW410491   4.052   4.354   4.110  0.0138 -0.6018 -0.3996
 2612SOL     OW10492   2.124   2.415   4.322  0.4604  0.2355  0.4792
 2612SOL    HW210493   2.095   2.506   4.318 -0.3846 -0.0334  0.3827
 2612SOL    HW310494   2.097   2.378   4.238 -0.3042 -0.4259  1.0080
 2612SOL    MW410495   2.117   2.422   4.310  0.2484  0.1130  0.5360
 2613SOL     OW10496   4.461   4.106   4.564 -0.7068 -0.1567 -0.2300
 2613SOL    HW210497   4.474   4.030   4.508  0.3062  1.0477 -1.6832
 2613SOL    HW310498   4.546   4.150   4.566 -1.0005  0.3846  1.4273
 2613SOL    MW410499   4.474   4.102   4.557 -0.6118  0.0734 -0.2031
 2614SOL     OW10500   1.340   0.997   4.586  0.1991  0.0829 -0.0358
 2614SOL    HW210501   1.339   0.903   4.567  1.4779 -0.4696  2.4094
 2614SOL    HW310502   1.424   1.027   4.552  0.2407  0.1335  0.1120
 2614SOL    MW410503   1.351   0.989   4.579  0.3732  0.0167  0.3071
 2615SOL     OW10504   3.019   0.487   4.512 -0.2691  0.5891 -0.6637
 2615SOL    HW210505   3.024   0.447   4.599  0.8214 -1.0943 -1.4647
 2615SOL    HW310506   2.930   0.522   4.507 -0.0227  1.6528  1.5099
 2615SOL    MW410507   3.008   0.486   4.523 -0.0925  0.5073 -0.4830
 2616SOL     OW10508   1.452   2.373   4.085 -0.0627 -0.0752 -0.0208
 2616SOL    HW210509   1.515   2.344   4.019  0.9448  2.6836 -0.3461
 2616SOL    HW310510   1.505   2.396   4.161 -0.7958  0.7550  0.2588
 2616SOL    MW410511   1.467   2.373   4.086 -0.0265  0.3984 -0.0272
 2617SOL     OW10512   0.898   4.525   4.178  0.5352  0.5219 -0.1115
 2617SOL    HW210513   0.837   4.591   4.146 -0.2755  0.4561  1.2928
 2617SOL    HW310514   0.891   4.529   4.273  0.3729 -1.6989 -0.0061
 2617SOL    MW410515   0.889   4.534   4.186  0.4067  0.2203  0.0877
 2618SOL     OW10516   2.764   1.598   4.769 -0.4545  0.0347  0.2167
 2618SOL    HW210517   2.792   1.513   4.803 -1.3291 -0.3162  0.0604
 2618SOL    HW310518   2.770   1.657   4.845  1.8801  0.2607 -0.0915
 2618SOL    MW410519   2.769   1.595   4.784 -0.2620  0.0184  0.1554
 2619SOL     OW10520   2.694   2.860   4.295 -0.0537  0.3262  0.6645
 2619SOL    HW210521   2.742   2.787   4.257  1.3679  1.1777  0.7616
 2619SOL    HW310522   2.693   2.927   4.226 -1.5181  0.1369  0.5045
 2619SOL    MW410523   2.701   2.859   4.281 -0.0594  0.4137  0.6561
 2620SOL     OW10524   3.504   3.063   4.523  0.2287  0.2179 -0.2015
 2620SOL    HW210525   3.428   3.120   4.538 -0.3220 -0.4920 -0.3102
 2620SOL    HW310526   3.572   3.123   4.494 -0.7904  0.6450 -1.8097
 2620SOL    MW410527   3.503   3.079   4.521  0.0217  0.1810 -0.4282
 2621SOL     OW10528   3.533   0.499   4.118 -0.1425 -0.1462  0.2731
 2621SOL    HW210529   3.614   0.506   4.169 -0.6925  0.3006  1.0928
 2621SOL    HW310530   3.562   0.473   4.031  0.6629 -2.8562  1.2891
 2621SOL    MW410531   3.547   0.496   4.113 -0.1090 -0.4448  0.5155
 2622SOL     OW10532   2.831   0.874   4.470 -0.0342  0.0653 -0.4479
 2622SOL    HW210533   2.878   0.922   4.402 -0.0957  1.5783  0.5283
 2622SOL    HW310534   2.757   0.931   4.491  0.6865  0.2243  1.7581
 2622SOL    MW410535   2.827   0.888   4.464  0.0527  0.2859 -0.0281
 2623SOL     OW10536   4.308   0.909   4.708  0.0936  0.0238  0.1175
 2623SOL    HW210537   4.368   0.883   4.638 -0.5872 -1.6544  0.1320
 2623SOL    HW310538   4.275   0.994   4.680 -0.8613 -1.0082 -2.0887
 2623SOL    MW410539   4.312   0.917   4.695 -0.1225 -0.3337 -0.1717
 2624SOL     OW10540   0.014   1.889   4.550  0.5550 -0.0019  0.1696
 2624SOL    HW210541  -0.078   1.864   4.546  0.4854  0.1747  0.6552
 2624SOL    HW310542   0.062   1.806   4.552  0.3123 -0.1131  2.0654
 2624SOL    MW410543   0.009   1.875   4.550  0.5136  0.0067  0.4840
 2625SOL     OW10544   0.201   4.242   4.524 -0.3251  0.9700  0.3635
 2625SOL    HW210545   0.267   4.181   4.558 -1.1095  0.0104  0.1996
 2625SOL    HW310546   0.249   4.323   4.508  0.4564  0.8090  1.8471
 2625SOL    MW410547   0.216   4.245   4.526 -0.3255  0.8221  0.5379
 2626SOL     OW10548   2.302   2.558   4.141  0.0719  0.1348 -0.2140
 2626SOL    HW210549   2.258   2.495   4.198 -1.2001 -0.9371 -2.3518
 2626SOL    HW310550   2.333   2.626   4.201  1.5139 -2.5146  2.1280
 2626SOL    MW410551   2.300   2.559   4.157  0.0944 -0.3560 -0.1874
 2627SOL     OW10552   2.104   2.286   3.837 -0.7883  0.1220  0.2040
 2627SOL    HW210553   2.018   2.320   3.812 -0.8607 -0.6356 -0.5803
 2627SOL    HW310554   2.103   2.194   3.810  0.2820  0.1176  0.1507
 2627SOL    MW410555   2.093   2.278   3.831 -0.6568  0.0215  0.0937
 2628SOL     OW10556   3.665   1.871   4.198 -0.1238 -0.1810  0.5070
 2628SOL    HW210557   3.623   1.787   4.215  0.5293 -0.6712 -0.2561
 2628SOL    HW310558   3.596   1.927   4.165 -0.5773 -0.3935  1.0881
 2628SOL    MW410559   3.651   1.867   4.196 -0.0975 -0.2737  0.4830
 2629SOL     OW10560   0.734   3.111   4.127 -0.0151 -0.0285  0.3793
 2629SOL    HW210561   0.733   3.104   4.031  0.4409  0.0459  0.3683
 2629SOL    HW310562   0.739   3.021   4.158  0.3458 -0.0259  0.3259
 2629SOL    MW410563   0.734   3.098   4.118  0.0926 -0.0186  0.3705
 2630SOL     OW10564   2.012   1.262   3.716  0.3999 -0.1186 -0.3121
 2630SOL    HW210565   2.077   1.211   3.764 -0.1151  0.3123  0.8551
 2630SOL    HW310566   2.029   1.353   3.740 -1.2111 -0.0761  0.7384
 2630SOL    MW410567   2.023   1.267   3.725  0.1194 -0.0561 -0.0193
 2631SOL     OW10568   1.978   3.824   4.130  0.1012  0.5696 -0.7958
 2631SOL    HW210569   2.026   3.833   4.048 -0.0719  0.7499 -0.8764
 2631SOL    HW310570   2.033   3.868   4.195  0.2081  0.4807 -0.8254
 2631SOL    MW410571   1.992   3.831   4.128  0.0924  0.5817 -0.8101
 2632SOL     OW10572   4.043   4.596   4.517 -0.3274 -0.3807 -1.2306
 2632SOL    HW210573   4.122   4.646   4.538  0.2483 -1.0950 -1.6668
 2632SOL    HW310574   3.993   4.654   4.460 -0.1150  0.0752 -0.9552
 2632SOL    MW410575   4.047   4.610   4.512 -0.2236 -0.4153 -1.2522
 2633SOL     OW10576   0.007   2.502   3.770 -0.2813  0.0779 -0.0479
 2633SOL    HW210577   0.071   2.434   3.790 -0.6307 -0.5576 -1.0527
 2633SOL    HW310578  -0.074   2.471   3.809 -0.4063 -0.0073 -0.3757
 2633SOL    MW410579   0.005   2.489   3.777 -0.3439 -0.0174 -0.2239
 2634SOL     OW10580   2.323   3.017   4.570  0.4999 -0.1835 -0.4686
 2634SOL    HW210581   2.372   3.098   4.572 -2.0301  1.4442 -1.8189
 2634SOL    HW310582   2.311   2.998   4.477 -0.7942 -0.9092 -0.1674
 2634SOL    MW410583   2.328   3.025   4.558 -0.0045 -0.0646 -0.6070
 2635SOL     OW10584   2.121   0.016   4.070  0.4190 -0.0041  0.6179
 2635SOL    HW210585   2.110  -0.070   4.110  1.2890 -0.0640  0.7348
 2635SOL    HW310586   2.074   0.011   3.987  0.5719 -0.6340  0.5720
 2635SOL    MW410587   2.113   0.004   4.065  0.5538 -0.0952  0.6266
 2636SOL     OW10588   2.793   1.184   4.110  0.0984 -0.8397 -0.6818
 2636SOL    HW210589   2.706   1.182   4.150  0.4450  0.1217  0.1462
 2636SOL    HW310590   2.846   1.129   4.167  0.5031  0.2177 -0.0221
 2636SOL    MW410591   2.788   1.176   4.123  0.1974 -0.5734 -0.4859
 2637SOL     OW10592   0.563   0.689   4.455 -0.3461  0.0240 -0.5249
 2637SOL    HW210593   0.527   0.743   4.525  0.5352  1.8425 -1.4473
 2637SOL    HW310594   0.626   0.632   4.498  1.2811  2.1612 -0.0375
 2637SOL    MW410595   0.566   0.688   4.470 -0.0151  0.5459 -0.5827
 2638SOL     OW10596   3.907   3.149   4.077 -0.1169 -0.0430  0.0468
 2638SOL    HW210597   3.864   3.081   4.129  1.4526 -0.5042  0.7783
 2638SOL    HW310598   3.905   3.116   3.988  0.6734 -1.0694  0.4070
 2638SOL    MW410599   3.901   3.136   4.072  0.1945 -0.2391  0.1912
 2639SOL     OW10600   4.246   0.786   4.116 -0.1803 -0.3185 -0.0411
 2639SOL    HW210601   4.259   0.768   4.023 -0.9399 -5.0114  0.6793
 2639SOL    HW310602   4.331   0.818   4.146  0.6972 -0.8403 -1.8953
 2639SOL    MW410603   4.259   0.788   4.107 -0.1645 -1.0066 -0.1907
 2640SOL     OW10604   1.620   2.795   4.164  0.2175  0.3103 -0.1749
 2640SOL    HW210605   1.538   2.748   4.148  0.1976  0.3500 -0.1884
 2640SOL    HW310606   1.644   2.770   4.254  1.5066 -1.6974 -1.0401
 2640SOL    MW410607   1.612   2.785   4.174  0.3849  0.0508 -0.2913
 2641SOL     OW10608   3.402   3.889   3.858 -0.1022  0.0359 -0.1274
 2641SOL    HW210609   3.337   3.939   3.809 -0.5366 -0.0755  0.3314
 2641SOL    HW310610   3.485   3.934   3.842 -0.4894  0.8954  0.2830
 2641SOL    MW410611   3.405   3.902   3.849 -0.2103  0.1345 -0.0126
 2642SOL     OW10612   0.834   1.525   4.106 -0.8568 -0.2848 -0.6926
 2642SOL    HW210613   0.802   1.451   4.158  0.4156  0.4988  1.2515
 2642SOL    HW310614   0.788   1.601   4.142  0.6884  0.3858 -0.1275
 2642SOL    MW410615   0.823   1.525   4.118 -0.4850 -0.0929 -0.3614
 2643SOL     OW10616   1.543   3.817   4.458  0.2519  0.2721 -0.0681
 2643SOL    HW210617   1.513   3.826   4.367  2.1074 -0.8625 -0.8309
 2643SOL    HW310618   1.514   3.897   4.501 -0.7317  0.7924 -1.6406
 2643SOL    MW410619   1.535   3.829   4.451  0.3668  0.1912 -0.3762
 2644SOL     OW10620   2.266   3.916   4.710 -0.2684 -0.4144 -0.7734
 2644SOL    HW210621   2.284   3.892   4.801 -1.6529 -0.2374 -0.4383
 2644SOL    HW310622   2.234   3.836   4.670 -1.0856 -0.1209 -0.7084
 2644SOL    MW410623   2.264   3.902   4.717 -0.5589 -0.3526 -0.7210
 2645SOL     OW10624   1.466   1.485   4.662  0.1186  0.2331  0.3192
 2645SOL    HW210625   1.378   1.466   4.695  0.3396 -0.3095  0.6104
 2645SOL    HW310626   1.508   1.399   4.657  0.2242  0.3532 -0.9858
 2645SOL    MW410627   1.460   1.471   4.666  0.1616  0.1773  0.1855
 2646SOL     OW10628   1.024   1.337   4.552  0.1877  0.0788 -0.4865
 2646SOL    HW210629   1.051   1.246   4.548 -0.7822 -0.1361 -2.5090
 2646SOL    HW310630   1.091   1.384   4.502  0.1008  0.3346 -0.3617
 2646SOL    MW410631   1.036   1.331   4.545  0.0483  0.0842 -0.7372
 2647SOL     OW10632   3.531   1.189   4.096 -0.6704  0.1595 -0.4678
 2647SOL    HW210633   3.441   1.163   4.115 -0.2613 -0.2304  1.0753
 2647SOL    HW310634   3.541   1.175   4.002 -1.3863 -2.4098 -0.2003
 2647SOL    MW410635   3.520   1.184   4.086 -0.7110 -0.2309 -0.2289
 2648SOL     OW10636   4.193   1.834   4.498 -0.2296  0.1178 -0.0713
 2648SOL    HW210637   4.181   1.824   4.403 -0.4091  0.6935 -0.1121
 2648SOL    HW310638   4.146   1.760   4.536 -0.3266 -0.0031 -0.4271
 2648SOL    MW410639   4.185   1.823   4.490 -0.2661  0.1779 -0.1240
 2649SOL     OW10640   2.603   1.602   4.553 -0.2337 -0.0199  0.3304
 2649SOL    HW210641   2.662   1.650   4.494 -0.4910 -0.2728 -0.1361
 2649SOL    HW310642   2.657   1.581   4.629  0.4895 -0.8547 -0.3904
 2649SOL    MW410643   2.618   1.605   4.555 -0.1721 -0.1633  0.1740
 2650SOL     OW10644   3.732   2.454   4.120  0.7890  0.1001  0.3173
 2650SOL    HW210645   3.792   2.427   4.190 -0.1112  0.1492  1.1200
 2650SOL    HW310646   3.770   2.416   4.041  1.1678 -0.9877  1.0010
 2650SOL    MW410647   3.745   2.445   4.119  0.7200 -0.0372  0.5136
 2651SOL     OW10648   2.871   0.630   4.787  0.6513 -0.3862 -0.0012
 2651SOL    HW210649   2.936   0.563   4.810  0.4246 -0.9599 -1.0105
 2651SOL    HW310650   2.795   0.581   4.755  0.4669  0.3468 -0.7178
 2651SOL    MW410651   2.870   0.615   4.786  0.5972 -0.3652 -0.2294
 2652SOL     OW10652   1.069   4.268   4.547 -0.4347 -0.6490 -0.0635
 2652SOL    HW210653   1.117   4.350   4.542  0.1441 -0.9321  0.8426
 2652SOL    HW310654   1.052   4.245   4.455  1.8460 -0.9537 -0.4349
 2652SOL    MW410655   1.073   4.275   4.534 -0.0573 -0.7262  0.0062
 2653SOL     OW10656   3.308   3.332   4.277  0.7478 -0.4648  0.0432
 2653SOL    HW210657   3.239   3.351   4.214 -0.1855 -0.0885  1.1561
 2653SOL    HW310658   3.381   3.300   4.224  0.1686  0.3453 -1.2654
 2653SOL    MW410659   3.308   3.331   4.262  0.5484 -0.3085  0.0172
 2654SOL     OW10660   0.110   1.325   4.544  0.1147 -0.3136  0.2943
 2654SOL    HW210661   0.017   1.344   4.530  0.1022 -0.0369  0.7459
 2654SOL    HW310662   0.139   1.287   4.461 -0.5760 -1.0800  0.3926
 2654SOL    MW410663   0.101   1.323   4.531  0.0219 -0.3781  0.3672
 2655SOL     OW10664   4.141   1.801   4.234 -0.1440 -0.2675  0.0288
 2655SOL    HW210665   4.141   1.888   4.194 -1.2023  0.5590  1.7756
 2655SOL    HW310666   4.055   1.765   4.214 -0.8442  0.3188  1.8209
 2655SOL    MW410667   4.130   1.808   4.226 -0.3757 -0.0811  0.4959
 2656SOL     OW10668   1.165   1.684   4.366  0.0664 -0.4435  0.4741
 2656SOL    HW210669   1.115   1.665   4.287 -0.4937 -1.8865  1.1699
 2656SOL    HW310670   1.206   1.601   4.389  0.4394  0.0315  1.5582
 2656SOL    MW410671   1.164   1.671   4.359  0.0417 -0.5713  0.7091
 2657SOL     OW10672   4.450   2.336   4.749  0.5394 -0.0607 -0.0301
 2657SOL    HW210673   4.485   2.254   4.715 -0.5717 -0.2884 -0.6481
 2657SOL    HW310674   4.432   2.319   4.841  1.7151 -0.0427  0.2132
 2657SOL    MW410675   4.452   2.323   4.757  0.5484 -0.0885 -0.0796
 2658SOL     OW10676   0.406   4.063   4.567  0.2720 -0.2139 -0.4363
 2658SOL    HW210677   0.431   3.985   4.517  1.4004 -0.0972 -0.0687
 2658SOL    HW310678   0.451   4.135   4.525  0.1758  0.0784 -0.0488
 2658SOL    MW410679   0.415   4.062   4.555  0.4082 -0.1597 -0.3371
 2659SOL     OW10680   2.665   2.049   4.707 -0.2053 -0.0656 -0.5760
 2659SOL    HW210681   2.605   2.123   4.696  1.2651  1.2620  0.1313
 2659SOL    HW310682   2.742   2.087   4.750  0.8768 -1.8685 -0.8897
 2659SOL    MW410683   2.668   2.064   4.712  0.1314 -0.1285 -0.5240
 2660SOL     OW10684   1.286   1.439   4.409  0.2910 -0.2429 -0.0186
 2660SOL    HW210685   1.371   1.460   4.445  0.6128  0.0756 -0.9442
 2660SOL    HW310686   1.305   1.397   4.325 -0.4540 -0.2714 -0.1789
 2660SOL    MW410687   1.299   1.437   4.402  0.2351 -0.2047 -0.1621
 2661SOL     OW10688   1.095   3.586   4.231 -0.3542  0.2200  0.0748
 2661SOL    HW210689   1.004   3.570   4.205 -0.5631  1.4567  0.0031
 2661SOL    HW310690   1.121   3.663   4.179 -0.0351  1.3167  1.8188
 2661SOL    MW410691   1.086   3.594   4.221 -0.3397  0.5279  0.2952
 2662SOL     OW10692   1.007   0.655   4.247 -0.1890 -0.1926  0.5478
 2662SOL    HW210693   1.039   0.630   4.334 -0.3587  0.9752  0.9511
 2662SOL    HW310694   1.071   0.720   4.216 -0.3242 -0.3477 -0.0567
 2662SOL    MW410695   1.020   0.660   4.254 -0.2294 -0.0590  0.5217
 2663SOL     OW10696   2.093   4.089   4.551 -0.0666 -0.4036  0.4012
 2663SOL    HW210697   2.133   4.037   4.621  0.7848 -0.0793  0.1687
 2663SOL    HW310698   2.127   4.051   4.470  0.5483  0.4951  0.2304
 2663SOL    MW410699   2.103   4.077   4.550  0.1271 -0.2422  0.3481
 2664SOL     OW10700   2.008   2.681   4.304  0.1133  0.5513  0.3768
 2664SOL    HW210701   1.944   2.674   4.376 -0.5071  0.0706 -0.2160
 2664SOL    HW310702   2.045   2.768   4.313 -0.0224  0.5228  1.2390
 2664SOL    MW410703   2.004   2.691   4.315  0.0136  0.4840  0.4125
 2665SOL     OW10704   1.551   4.633   3.914 -0.2849 -0.3189  0.0913
 2665SOL    HW210705   1.581   4.625   4.005  3.7612  0.2306 -1.0811
 2665SOL    HW310706   1.571   4.548   3.875  0.1900  0.2139 -0.8440
 2665SOL    MW410707   1.558   4.621   3.921  0.3115 -0.1760 -0.1869
 2666SOL     OW10708   1.741   2.270   4.410  0.1395 -0.1496 -0.5966
 2666SOL    HW210709   1.819   2.246   4.461  0.5284  0.9857 -0.6398
 2666SOL    HW310710   1.683   2.195   4.418  0.3366 -0.1181  1.2559
 2666SOL    MW410711   1.744   2.257   4.418  0.2170  0.0041 -0.3581
 2667SOL     OW10712   3.256   3.215   4.520  0.0260 -0.2143 -0.6334
 2667SOL    HW210713   3.252   3.253   4.432 -3.1300 -0.2602 -0.5718
 2667SOL    HW310714   3.188   3.148   4.520 -0.7249  0.4815  2.1594
 2667SOL    MW410715   3.246   3.211   4.508 -0.4897 -0.1283 -0.2565
 2668SOL     OW10716   1.976   1.906   4.679  0.1602  0.0145  0.2979
 2668SOL    HW210717   1.974   2.000   4.657  0.5652  0.1449  0.8148
 2668SOL    HW310718   2.069   1.884   4.679  0.1585 -0.0197  1.7257
 2668SOL    MW410719   1.988   1.916   4.676  0.2135  0.0272  0.5546
 2669SOL     OW10720   0.732   1.352   4.521  0.5498 -0.1062  0.4408
 2669SOL    HW210721   0.716   1.354   4.426 -1.1958  1.0909  0.7448
 2669SOL    HW310722   0.825   1.329   4.528  0.6736 -0.3694 -1.5596
 2669SOL    MW410723   0.742   1.350   4.509  0.3358  0.0170  0.2170
 2670SOL     OW10724   3.835   2.946   4.492 -0.1268  0.4387 -0.0246
 2670SOL    HW210725   3.906   2.938   4.556  0.0216 -0.8498 -0.3437
 2670SOL    HW310726   3.768   2.886   4.522 -0.7084  0.9802 -0.2297
 2670SOL    MW410727   3.836   2.937   4.504 -0.1838  0.3400 -0.0935
 2671SOL     OW10728   4.075   3.280   4.263 -0.3854  0.2505  0.1551
 2671SOL    HW210729   4.164   3.249   4.275 -0.1503  1.0037  0.4325
 2671SOL    HW310730   4.039   3.227   4.193 -0.1712 -0.9863  0.9712
 2671SOL    MW410731   4.082   3.269   4.256 -0.3257  0.1864  0.2995
 2672SOL     OW10732   3.138   2.740   4.119  0.1959  0.3315 -0.3888
 2672SOL    HW210733   3.050   2.712   4.145  0.5244  0.7473  1.2539
 2672SOL    HW310734   3.149   2.826   4.160  1.7133 -0.1284  0.2262
 2672SOL    MW410735   3.128   2.748   4.128  0.4394  0.3254 -0.0911
 2673SOL     OW10736   2.799   1.750   4.414  0.0452 -0.1340  0.2412
 2673SOL    HW210737   2.806   1.674   4.356  0.9329 -1.0353  1.5142
 2673SOL    HW310738   2.880   1.750   4.464  0.0260  1.6307  0.3184
 2673SOL    MW410739   2.811   1.740   4.413  0.1597 -0.0200  0.4191
 2674SOL     OW10740   2.874   3.550   4.248 -0.2316  0.0368  0.0918
 2674SOL    HW210741   2.946   3.503   4.207 -0.1331  1.3916 -1.3489
 2674SOL    HW310742   2.797   3.524   4.197 -0.9357 -2.0585  2.1480
 2674SOL    MW410743   2.873   3.541   4.236 -0.3114 -0.0608  0.1731
 2675SOL     OW10744   2.532   3.263   4.249  0.3233 -0.1223 -0.2794
 2675SOL    HW210745   2.569   3.191   4.198 -0.0017 -0.9338  0.6249
 2675SOL    HW310746   2.579   3.261   4.332 -1.1826 -0.6682  0.5839
 2675SOL    MW410747   2.543   3.253   4.253  0.0820 -0.3016 -0.0458
 2676SOL     OW10748   0.752   2.217   4.092  0.3528  0.3702  0.3035
 2676SOL    HW210749   0.816   2.275   4.133  0.4987  0.5732 -0.2105
 2676SOL    HW310750   0.737   2.255   4.006 -0.1174  0.0650  0.2508
 2676SOL    MW410751   0.759   2.229   4.086  0.3100  0.3569  0.2284
 2677SOL     OW10752   1.136   3.042   4.151 -0.1728 -0.0000 -0.0316
 2677SOL    HW210753   1.080   3.116   4.174 -1.3793 -0.7176 -0.5910
 2677SOL    HW310754   1.225   3.073   4.166 -0.6515  1.6297 -0.4799
 2677SOL    MW410755   1.140   3.056   4.156 -0.3952  0.1202 -0.1645
 2678SOL     OW10756   4.089   0.367   4.173 -0.4844 -0.1612 -0.1532
 2678SOL    HW210757   4.131   0.440   4.216 -0.5400  0.6527 -1.4473
 2678SOL    HW310758   4.021   0.339   4.234 -0.5210  0.9257  0.3128
 2678SOL    MW410759   4.085   0.373   4.187 -0.4959  0.0896 -0.2627
 2679SOL     OW10760   0.974   2.025   4.474 -0.2969 -0.1299  0.2194
 2679SOL    HW210761   0.953   1.951   4.531 -0.4934 -0.4110 -0.2064
 2679SOL    HW310762   0.934   2.101   4.516  0.1735 -0.2145  0.8226
 2679SOL    MW410763   0.966   2.025   4.487 -0.2608 -0.1783  0.2432
 2680SOL     OW10764   2.291   2.710   3.904  0.5637  0.7672  0.5665
 2680SOL    HW210765   2.279   2.640   3.840 -3.9131  1.1857  0.7695
 2680SOL    HW310766   2.297   2.665   3.988  2.5671  0.4366  0.2795
 2680SOL    MW410767   2.290   2.695   3.907  0.2375  0.7787  0.5555
 2681SOL     OW10768   2.715   4.547   4.466  0.3319 -0.1260 -0.3977
 2681SOL    HW210769   2.657   4.527   4.393 -0.2273  0.0935 -0.0175
 2681SOL    HW310770   2.741   4.462   4.502 -0.5371 -0.2102  0.0422
 2681SOL    MW410771   2.711   4.533   4.461  0.1435 -0.1082 -0.2899
 2682SOL     OW10772   1.540   2.471   4.366 -0.0991 -0.0644 -0.0854
 2682SOL    HW210773   1.566   2.560   4.390  0.3805  0.2558 -1.7198
 2682SOL    HW310774   1.612   2.416   4.397  0.1698  0.2455 -0.1587
 2682SOL    MW410775   1.553   2.475   4.373 -0.0004  0.0186 -0.3104
 2683SOL     OW10776   2.878   4.139   4.714 -0.2996  0.0472  0.9258
 2683SOL    HW210777   2.847   4.049   4.706 -0.6330  0.3078 -0.9800
 2683SOL    HW310778   2.883   4.155   4.808 -0.5634 -1.8456  1.2689
 2683SOL    MW410779   2.874   4.129   4.725 -0.3784 -0.1683  0.7195
 2684SOL     OW10780   2.847   3.492   4.516  0.2832  0.8560  0.0895
 2684SOL    HW210781   2.872   3.498   4.424  1.6025  1.4033  0.4782
 2684SOL    HW310782   2.918   3.536   4.563 -1.4034  2.4169  1.2139
 2684SOL    MW410783   2.860   3.499   4.510  0.2348  1.1342  0.2894
 2685SOL     OW10784   3.251   0.289   4.464 -0.7850  0.1138 -0.1691
 2685SOL    HW210785   3.300   0.309   4.544 -0.0254 -2.2119  0.0035
 2685SOL    HW310786   3.180   0.352   4.463  0.9623  2.1705  0.7250
 2685SOL    MW410787   3.248   0.300   4.474 -0.4539  0.0783 -0.0281
 2686SOL     OW10788   1.952   3.075   4.424  0.1104 -0.0041 -0.3701
 2686SOL    HW210789   2.013   3.001   4.425 -0.1118 -0.2099 -1.6462
 2686SOL    HW310790   2.008   3.153   4.433  0.5877 -0.1734 -1.8814
 2686SOL    MW410791   1.968   3.076   4.426  0.1441 -0.0534 -0.7377
 2687SOL     OW10792   1.120   1.101   4.251  0.0204  0.1788 -0.4795
 2687SOL    HW210793   1.185   1.167   4.226  0.6699 -0.0473  0.6150
 2687SOL    HW310794   1.128   1.093   4.346 -0.8806 -0.6228 -0.4600
 2687SOL    MW410795   1.129   1.109   4.260 -0.0129  0.0432 -0.3328
 2688SOL     OW10796   1.331   4.555   4.217 -0.1463  0.8345  0.6708
 2688SOL    HW210797   1.266   4.599   4.161  0.6428 -0.3970 -1.2738
 2688SOL    HW310798   1.280   4.520   4.290 -1.3262  1.7936  0.3298
 2688SOL    MW410799   1.316   4.556   4.219 -0.1979  0.7987  0.3691
 2689SOL     OW10800   2.923   0.000   4.290  0.2235  0.1715 -0.6469
 2689SOL    HW210801   2.865  -0.036   4.356  0.2662  1.6494  0.2299
 2689SOL    HW310802   3.009   0.003   4.333  0.2368  1.2118 -0.7425
 2689SOL    MW410803   2.927  -0.004   4.305  0.2308  0.5035 -0.5445
 2690SOL     OW10804   1.419   1.768   4.272  0.5366  0.3265 -0.1603
 2690SOL    HW210805   1.334   1.733   4.298 -0.2975  1.8018 -0.8355
 2690SOL    HW310806   1.463   1.788   4.355 -0.4567  1.1363  0.1855
 2690SOL    MW410807   1.413   1.766   4.286  0.2954  0.6280 -0.2031
 2691SOL     OW10808   2.413   0.028   4.045 -0.2701  0.1359  0.3693
 2691SOL    HW210809   2.431   0.098   4.107 -0.8363 -0.5405  1.3148
 2691SOL    HW310810   2.318   0.015   4.049 -0.0713 -1.3058  0.9031
 2691SOL    MW410811   2.403   0.035   4.054 -0.3185 -0.1435  0.5646
 2692SOL     OW10812   1.034   3.930   4.264 -0.4907  0.2792 -0.2788
 2692SOL    HW210813   0.956   3.896   4.220 -0.2784 -1.1631  0.4099
 2692SOL    HW310814   1.032   3.888   4.350  0.3275  1.2829  0.2342
 2692SOL    MW410815   1.023   3.920   4.270 -0.3549  0.2213 -0.1202
 2693SOL     OW10816   1.257   2.121   4.555 -0.5765 -0.1953 -0.3523
 2693SOL    HW210817   1.177   2.082   4.518 -1.3797  0.3594  0.7675
 2693SOL    HW310818   1.291   2.054   4.615  0.1791 -0.6993 -1.3319
 2693SOL    MW410819   1.251   2.107   4.558 -0.5828 -0.1884 -0.3338
 2694SOL     OW10820   2.053   1.530   4.702  0.0445  0.1350 -0.3752
 2694SOL    HW210821   2.051   1.560   4.612 -0.6071  0.1232 -0.3678
 2694SOL    HW310822   2.142   1.549   4.732 -0.1955  1.5246 -0.5446
 2694SOL    MW410823   2.064   1.536   4.694 -0.0732  0.3167 -0.3967
 2695SOL     OW10824   4.277   2.349   3.853 -0.3885 -0.1415 -0.1373
 2695SOL    HW210825   4.195   2.381   3.816 -0.4483 -0.1908 -0.0486
 2695SOL    HW310826   4.262   2.256   3.868 -0.7522  0.1014  1.0479
 2695SOL    MW410827   4.265   2.341   3.850 -0.4444 -0.1161  0.0308
 2696SOL     OW10828   0.076   0.430   4.115  0.3810 -0.0295 -0.2531
 2696SOL    HW210829   0.080   0.349   4.166  1.7740  0.1037 -0.1263
 2696SOL    HW310830   0.097   0.402   4.026  0.5943  0.1449 -0.2580
 2696SOL    MW410831   0.080   0.415   4.110  0.5929  0.0111 -0.2375
 2697SOL     OW10832   2.503   1.321   4.752  0.0203  0.0897 -0.1123
 2697SOL    HW210833   2.582   1.311   4.804 -0.0629 -0.5673 -0.1063
 2697SOL    HW310834   2.534   1.325   4.662  0.0929  0.2810 -0.0801
 2697SOL    MW410835   2.517   1.320   4.747  0.0188  0.0281 -0.1073
 2698SOL     OW10836   4.194   4.203   4.608  0.0335 -0.2282  0.2793
 2698SOL    HW210837   4.156   4.121   4.578 -0.1959 -0.5605  1.4416
 2698SOL    HW310838   4.289   4.187   4.609  0.0210 -0.3177  0.0455
 2698SOL    MW410839   4.202   4.190   4.604  0.0019 -0.2837  0.4020
 2699SOL     OW10840   3.618   4.628   4.552  0.0950  0.2698  0.0237
 2699SOL    HW210841   3.682   4.557   4.549 -0.2720 -0.1019  0.6952
 2699SOL    HW310842   3.536   4.585   4.577 -0.0842  0.9614  0.6476
 2699SOL    MW410843   3.615   4.613   4.555  0.0226  0.3119  0.1945
 2700SOL     OW10844   1.184   1.464   4.728  0.2949 -0.4707  0.3190
 2700SOL    HW210845   1.133   1.395   4.685 -0.6005  0.3455  0.0626
 2700SOL    HW310846   1.142   1.475   4.814  0.2935 -0.0969  0.2724
 2700SOL    MW410847   1.171   1.456   4.734  0.1768 -0.3135  0.2785
 2701SOL     OW10848   4.305   1.338   4.223 -0.0944 -0.3128 -0.3208
 2701SOL    HW210849   4.279   1.423   4.187 -0.8856 -0.6678 -0.6094
 2701SOL    HW310850   4.304   1.350   4.318  0.3322  0.1523 -0.3740
 2701SOL    MW410851   4.301   1.350   4.231 -0.1421 -0.2981 -0.3662
 2702SOL     OW10852   1.342   3.159   4.466  0.1042 -0.2913 -0.7488
 2702SOL    HW210853   1.372   3.162   4.375  0.0724  1.3058 -0.7294
 2702SOL    HW310854   1.411   3.203   4.516  0.1464 -1.2051  0.0099
 2702SOL    MW410855   1.355   3.165   4.461  0.1056 -0.2012 -0.6461
 2703SOL     OW10856   1.192   2.225   4.076  0.7452 -0.3850  0.2893
 2703SOL    HW210857   1.274   2.271   4.095  1.2737 -0.9309 -0.6157
 2703SOL    HW310858   1.210   2.134   4.097 -0.0659 -0.2989  1.3661
 2703SOL    MW410859   1.205   2.219   4.081  0.7080 -0.4456  0.3119
 2704SOL     OW10860   3.491   0.664   4.736  0.5181  0.2912 -0.2295
 2704SOL    HW210861   3.514   0.662   4.643  1.0027 -0.1914 -0.1066
 2704SOL    HW310862   3.431   0.738   4.745  0.9987  0.7573 -0.8030
 2704SOL    MW410863   3.486   0.673   4.725  0.6454  0.2891 -0.2894
 2705SOL     OW10864   1.687   3.131   4.365  0.7012 -0.2777  0.3307
 2705SOL    HW210865   1.641   3.049   4.346  0.2165 -0.0894  0.6704
 2705SOL    HW310866   1.776   3.104   4.386  0.4804 -0.7442  0.6882
 2705SOL    MW410867   1.693   3.116   4.365  0.6082 -0.3147  0.4225
 2706SOL     OW10868   0.521   3.475   4.188  0.1650  0.1630  0.1424
 2706SOL    HW210869   0.511   3.381   4.202  2.5998 -0.3422 -1.2069
 2706SOL    HW310870   0.491   3.488   4.098  1.1367  0.4442 -0.1405
 2706SOL    MW410871   0.515   3.464   4.178  0.6145  0.1330 -0.0730
 2707SOL     OW10872   2.997   0.110   4.668 -0.2358 -0.1091  0.2812
 2707SOL    HW210873   3.032   0.085   4.582  0.3220 -1.3101  0.8481
 2707SOL    HW310874   2.917   0.159   4.647 -0.9723 -1.7394 -0.9069
 2707SOL    MW410875   2.991   0.113   4.654 -0.2592 -0.4826  0.1988
 2708SOL     OW10876   2.767   0.611   4.479 -0.0935  0.3710 -0.5667
 2708SOL    HW210877   2.741   0.615   4.387  0.5551  0.2108 -0.7598
 2708SOL    HW310878   2.788   0.701   4.502  0.7560  0.2504 -0.8724
 2708SOL    MW410879   2.766   0.623   4.470  0.1042  0.3340 -0.6323
 2709SOL     OW10880   3.658   3.432   4.302  0.1301 -0.1688 -0.8043
 2709SOL    HW210881   3.665   3.399   4.212 -0.6169 -0.4264 -0.7701
 2709SOL    HW310882   3.690   3.360   4.356  0.8127  0.0772 -0.8726
 2709SOL    MW410883   3.663   3.418   4.297  0.1216 -0.1702 -0.8082
 2710SOL     OW10884   2.255   0.621   4.251 -0.0905 -0.4340  0.1887
 2710SOL    HW210885   2.279   0.531   4.232 -0.1302 -0.6282  1.0124
 2710SOL    HW310886   2.229   0.620   4.343  0.1287  0.4645  0.2694
 2710SOL    MW410887   2.255   0.609   4.261 -0.0668 -0.3411  0.3080
 2711SOL     OW10888   0.354   0.495   4.371  0.0940  0.5811  0.0441
 2711SOL    HW210889   0.442   0.509   4.405  0.4473 -1.0621 -0.1639
 2711SOL    HW310890   0.300   0.561   4.415  1.5106  1.9529 -0.2232
 2711SOL    MW410891   0.358   0.505   4.381  0.3275  0.5453 -0.0181
 2712SOL     OW10892   3.847   4.390   4.524  0.1734 -0.1581 -0.4247
 2712SOL    HW210893   3.841   4.398   4.429  1.6728 -0.5109 -0.5654
 2712SOL    HW310894   3.905   4.461   4.550 -0.1172 -0.1543  0.2178
 2712SOL    MW410895   3.854   4.401   4.515  0.3328 -0.2046 -0.3581
 2713SOL     OW10896   1.091   1.073   4.545 -0.4628 -0.1695  0.2513
 2713SOL    HW210897   1.030   1.000   4.539  0.6835 -1.0670 -0.7650
 2713SOL    HW310898   1.172   1.034   4.578 -0.0761  0.7781  0.4386
 2713SOL    MW410899   1.094   1.058   4.549 -0.2606 -0.1628  0.1421
 2714SOL     OW10900   3.362   4.288   4.535  0.1219  0.1083  0.3839
 2714SOL    HW210901   3.439   4.251   4.579  0.5362 -0.4459 -0.7797
 2714SOL    HW310902   3.289   4.234   4.563  0.3812 -0.2189  0.4215
 2714SOL    MW410903   3.363   4.276   4.544  0.2108 -0.0081  0.2351
 2715SOL     OW10904   1.395   3.178   4.197 -0.0951  0.0276 -0.0112
 2715SOL    HW210905   1.471   3.145   4.150 -0.7388 -0.2439 -0.8615
 2715SOL    HW310906   1.377   3.263   4.158 -0.2398  0.0873  0.1847
 2715SOL    MW410907   1.403   3.185   4.186 -0.1991 -0.0002 -0.0973
 2716SOL     OW10908   4.106   2.753   4.115  0.4756  0.0860 -0.2809
 2716SOL    HW210909   4.019   2.777   4.146  0.4698  0.5155 -0.6206
 2716SOL    HW310910   4.148   2.711   4.190 -0.4217 -1.1500 -0.4507
 2716SOL    MW410911   4.100   2.750   4.129  0.3567 -0.0203 -0.3481
 2717SOL     OW10912   0.292   2.637   4.044  0.2387 -0.1605  0.1646
 2717SOL    HW210913   0.347   2.669   4.116 -0.1139  1.3194 -0.1977
 2717SOL    HW310914   0.345   2.650   3.965  0.7987 -2.1960  0.1884
 2717SOL    MW410915   0.306   2.643   4.043  0.2661 -0.2337  0.1197
 2718SOL     OW10916   4.291   3.671   4.213  0.2636 -0.6972 -0.6856
 2718SOL    HW210917   4.205   3.637   4.186  0.1094  0.0636 -1.1381
 2718SOL    HW310918   4.295   3.759   4.177  0.0445  0.3416  1.7738
 2718SOL    MW410919   4.280   3.678   4.205  0.2141 -0.4597 -0.4206
 2719SOL     OW10920   4.149   2.070   4.197  0.0348 -0.6967  0.1827
 2719SOL    HW210921   4.183   2.145   4.246 -0.9076 -0.0447 -0.1622
 2719SOL    HW310922   4.055   2.070   4.214 -0.2453 -0.7147 -1.2957
 2719SOL    MW410923   4.141   2.080   4.206 -0.1264 -0.6130 -0.0577
 2720SOL     OW10924   1.757   1.429   4.254 -0.5054  0.1377 -0.1193
 2720SOL    HW210925   1.704   1.503   4.225  0.4046  0.8306 -0.0287
 2720SOL    HW310926   1.761   1.437   4.349 -0.7683 -0.2842 -0.0676
 2720SOL    MW410927   1.750   1.440   4.262 -0.4201  0.1734 -0.1006
 2721SOL     OW10928   4.482   0.931   4.216 -0.6794 -0.2985 -0.0666
 2721SOL    HW210929   4.480   0.944   4.311  0.0478  0.1220 -0.1031
 2721SOL    HW310930   4.541   0.857   4.203 -0.4225 -0.0678 -0.2188
 2721SOL    MW410931   4.489   0.923   4.227 -0.5496 -0.2126 -0.0916
 2722SOL     OW10932   2.364   0.492   4.691  0.0580  0.2909 -0.3230
 2722SOL    HW210933   2.459   0.492   4.706  0.0822 -0.0503 -0.4858
 2722SOL    HW310934   2.328   0.535   4.769  0.2176 -1.2196  0.6123
 2722SOL    MW410935   2.372   0.497   4.704  0.0820  0.0466 -0.2208
 2723SOL     OW10936   2.680   3.481   3.833 -0.1902  0.2873 -0.3801
 2723SOL    HW210937   2.688   3.397   3.790  0.5915  0.4583 -0.5910
 2723SOL    HW310938   2.762   3.526   3.813 -0.2738  0.7964  0.3634
 2723SOL    MW410939   2.692   3.476   3.825 -0.0985  0.3772 -0.3099
 2724SOL     OW10940   2.041   1.508   3.832 -0.2212  0.6548 -0.0713
 2724SOL    HW210941   1.966   1.558   3.802 -0.6040  0.9682  1.3624
 2724SOL    HW310942   2.024   1.492   3.925 -0.2641 -2.4275 -0.5616
 2724SOL    MW410943   2.029   1.512   3.840 -0.2773  0.2893  0.0532
 2725SOL     OW10944   4.129   0.724   4.597 -0.2441 -0.1695 -0.3120
 2725SOL    HW210945   4.065   0.790   4.568 -1.6304 -0.7757  1.3049
 2725SOL    HW310946   4.186   0.772   4.657  0.5535  0.2527 -1.3842
 2725SOL    MW410947   4.128   0.739   4.601 -0.3214 -0.1937 -0.2408
 2726SOL     OW10948   3.744   0.528   4.285 -0.2093 -0.5923 -0.2468
 2726SOL    HW210949   3.799   0.595   4.244 -1.5770  0.8095  0.1533
 2726SOL    HW310950   3.805   0.458   4.308  1.3876  0.8298  0.0033
 2726SOL    MW410951   3.760   0.528   4.283 -0.1793 -0.2197 -0.1612
 2727SOL     OW10952   4.312   2.456   4.112  0.5778 -0.1198  0.1201
 2727SOL    HW210953   4.295   2.401   4.036 -1.1822 -0.0234  0.4369
 2727SOL    HW310954   4.306   2.397   4.186 -0.4840  0.3227  0.3964
 2727SOL    MW410955   4.309   2.441   4.112  0.2055 -0.0486  0.1988
 2728SOL     OW10956   4.279   3.752   4.475 -0.3700 -0.3838 -0.2217
 2728SOL    HW210957   4.202   3.709   4.513 -1.8290 -0.5260 -3.1585
 2728SOL    HW310958   4.282   3.719   4.385  1.2898  2.0538 -1.0997
 2728SOL    MW410959   4.269   3.742   4.468 -0.3438 -0.0806 -0.7253
 2729SOL     OW10960   2.016   0.219   4.220  0.3773 -0.1630 -0.2929
 2729SOL    HW210961   2.058   0.145   4.176 -1.2476 -0.9965 -0.4453
 2729SOL    HW310962   2.031   0.202   4.314 -0.4677 -0.9691 -0.3015
 2729SOL    MW410963   2.024   0.207   4.227  0.0515 -0.3793 -0.3147
 2730SOL     OW10964   0.176   3.712   4.277 -0.0063  0.2009  0.0477
 2730SOL    HW210965   0.121   3.765   4.336  1.2515 -0.1618  1.5585
 2730SOL    HW310966   0.224   3.777   4.225  1.0461  0.5489  1.4428
 2730SOL    MW410967   0.175   3.728   4.278  0.2985  0.1988  0.4315
 2731SOL     OW10968   0.449   3.492   3.896 -0.4658  0.1086 -0.3081
 2731SOL    HW210969   0.365   3.527   3.865 -0.6106 -1.3326 -1.6121
 2731SOL    HW310970   0.515   3.551   3.859 -0.7468 -0.5010 -1.7971
 2731SOL    MW410971   0.447   3.505   3.887 -0.5220 -0.1619 -0.6766
 2732SOL     OW10972   0.468   1.032   4.389 -0.1851 -0.3344 -0.1253
 2732SOL    HW210973   0.460   1.104   4.327  1.4295  0.8069  0.9378
 2732SOL    HW310974   0.459   0.953   4.336  0.0237  0.6342 -1.6336
 2732SOL    MW410975   0.466   1.031   4.374  0.0555 -0.0560 -0.1841
 2733SOL     OW10976   3.735   1.612   4.633 -0.4909 -0.1317  0.5261
 2733SOL    HW210977   3.818   1.606   4.585 -0.2543 -1.4079  1.0710
 2733SOL    HW310978   3.725   1.526   4.675 -2.4472 -0.2649 -0.1373
 2733SOL    MW410979   3.744   1.600   4.632 -0.7179 -0.3177  0.5097
 2734SOL     OW10980   4.225   2.633   4.321 -0.2246  0.1355  0.0782
 2734SOL    HW210981   4.249   2.568   4.255  0.3939  2.0180 -1.6282
 2734SOL    HW310982   4.309   2.661   4.358 -0.4790  0.0870  0.7007
 2734SOL    MW410983   4.239   2.628   4.317 -0.1764  0.3777 -0.0648
 2735SOL     OW10984   2.939   3.099   3.792 -0.0671 -0.2475 -0.5446
 2735SOL    HW210985   2.932   3.008   3.763 -0.2807 -0.4255  0.0470
 2735SOL    HW310986   3.025   3.128   3.762 -0.4109 -0.3258 -1.6183
 2735SOL    MW410987   2.949   3.091   3.784 -0.1407 -0.2813 -0.6084
 2736SOL     OW10988   4.028   2.044   4.582  0.1164 -0.1180  0.4655
 2736SOL    HW210989   3.975   2.044   4.503 -1.2738 -0.4942  1.3865
 2736SOL    HW310990   4.086   1.969   4.572  0.3134  0.1395 -0.4182
 2736SOL    MW410991   4.029   2.034   4.570 -0.0405 -0.1335  0.4706
 2737SOL     OW10992   2.468   4.048   4.549  0.3408  0.2579 -0.1164
 2737SOL    HW210993   2.386   4.017   4.589 -0.0887 -0.2793 -1.3826
 2737SOL    HW310994   2.521   3.969   4.539  0.7469  0.5049  0.0647
 2737SOL    MW410995   2.464   4.034   4.553  0.3378  0.2193 -0.2594
 2738SOL     OW10996   2.550   2.379   4.128  0.2854 -0.6093  0.0633
 2738SOL    HW210997   2.476   2.439   4.132  0.4441 -0.2148 -2.2322
 2738SOL    HW310998   2.614   2.417   4.188 -0.1895  0.7285 -0.2405
 2738SOL    MW410999   2.549   2.392   4.137  0.2437 -0.3808 -0.2794
 2739SOL     OW11000   4.087   0.439   4.627  0.7426 -0.6285 -0.0325
 2739SOL    HW211001   4.096   0.425   4.722 -0.8095 -0.5953  0.1333
 2739SOL    HW311002   4.090   0.534   4.617 -1.0977 -0.5247  0.2229
 2739SOL    MW411003   4.089   0.449   4.638  0.2952 -0.6104  0.0229
 2740SOL     OW11004   0.129   2.138   4.657 -0.3973  0.4422  0.1232
 2740SOL    HW211005   0.224   2.125   4.663 -0.3615  0.8526  0.4657
 2740SOL    HW311006   0.097   2.057   4.617  0.2694  0.9419 -1.4314
 2740SOL    MW411007   0.137   2.125   4.653 -0.3046  0.5624 -0.0372
 2741SOL     OW11008   2.627   0.476   4.698 -0.4979 -0.3688  0.1387
 2741SOL    HW211009   2.638   0.520   4.614  1.2630 -0.0980  0.4881
 2741SOL    HW311010   2.676   0.394   4.689  1.3064  0.5064  1.4917
 2741SOL    MW411011   2.635   0.471   4.685 -0.0274 -0.2176  0.3633
 2742SOL     OW11012   2.692   4.268   4.552  0.1730  0.2436  0.4787
 2742SOL    HW211013   2.611   4.218   4.559  0.5596 -0.7579 -1.8204
 2742SOL    HW311014   2.750   4.226   4.616  0.1675 -1.6980 -0.7170
 2742SOL    MW411015   2.689   4.256   4.561  0.2234 -0.1445  0.0181
 2743SOL     OW11016   2.725   4.346   4.133 -0.2974  0.4658  0.0001
 2743SOL    HW211017   2.699   4.337   4.041  0.4460  0.0125 -0.1661
 2743SOL    HW311018   2.805   4.397   4.131  0.3196 -0.4810  0.3203
 2743SOL    MW411019   2.732   4.351   4.121 -0.1180  0.2809  0.0205
 2744SOL     OW11020   0.295   3.892   4.108 -0.1028  0.0457 -0.0158
 2744SOL    HW211021   0.271   3.981   4.136 -1.6968 -0.8426  1.6344
 2744SOL    HW311022   0.390   3.889   4.114 -0.1789  0.9734  2.1384
 2744SOL    MW411023   0.304   3.903   4.113 -0.3231  0.0510  0.4864
 2745SOL     OW11024   4.062   3.525   4.162  0.2834 -0.7374  0.6367
 2745SOL    HW211025   4.043   3.526   4.068  0.5479 -1.2252  0.5814
 2745SOL    HW311026   4.076   3.433   4.183  0.0149 -0.6532  1.1973
 2745SOL    MW411027   4.061   3.513   4.152  0.2828 -0.7906  0.7033
 2746SOL     OW11028   0.625   0.704   4.089  0.3480 -0.1874 -0.1263
 2746SOL    HW211029   0.690   0.734   4.152  0.0068 -1.2662  0.7503
 2746SOL    HW311030   0.605   0.614   4.115 -0.7684 -0.2091 -0.9829
 2746SOL    MW411031   0.631   0.696   4.101  0.1556 -0.3327 -0.1240
 2747SOL     OW11032   2.885   1.338   4.556 -0.2806  0.1289  0.4658
 2747SOL    HW211033   2.946   1.368   4.623  1.4663 -0.1609 -0.9334
 2747SOL    HW311034   2.862   1.249   4.582  0.8987 -0.2190  0.3719
 2747SOL    MW411035   2.890   1.331   4.568  0.1056  0.0448  0.2689
 2748SOL     OW11036   1.626   1.037   4.459  0.1400 -0.1766 -0.1551
 2748SOL    HW211037   1.708   0.988   4.449  0.2055 -0.1447  0.1913
 2748SOL    HW311038   1.602   1.063   4.371  0.9975  0.6134 -0.1705
 2748SOL    MW411039   1.634   1.034   4.446  0.2618 -0.0682 -0.1111
 2749SOL     OW11040   1.386   0.352   4.163  0.7434  0.0282 -0.0605
 2749SOL    HW211041   1.456   0.312   4.215  1.2948 -0.2467 -1.0083
 2749SOL    HW311042   1.305   0.328   4.209  1.1498 -1.2092  0.0217
 2749SOL    MW411043   1.384   0.343   4.176  0.8698 -0.1714 -0.1750
 2750SOL     OW11044   3.820   2.927   4.210 -0.1788  0.1031 -0.1115
 2750SOL    HW211045   3.826   2.917   4.305  1.9518 -1.3251 -0.3770
 2750SOL    HW311046   3.758   2.859   4.183  1.0085 -1.0360  0.0052
 2750SOL    MW411047   3.812   2.917   4.219  0.2589 -0.2353 -0.1311
 2751SOL     OW11048   2.755   4.146   4.311  0.0069  0.6453  0.0182
 2751SOL    HW211049   2.737   4.198   4.389  0.1163 -0.0710  0.5263
 2751SOL    HW311050   2.740   4.206   4.238 -0.0141  1.3427  0.5906
 2751SOL    MW411051   2.751   4.161   4.311  0.0186  0.6428  0.1607
 2752SOL     OW11052   0.558   2.494   4.426  0.0740 -0.1639  0.5734
 2752SOL    HW211053   0.522   2.405   4.428 -1.5460  0.4522  0.1233
 2752SOL    HW311054   0.498   2.545   4.480  0.2433  0.9221 -0.2499
 2752SOL    MW411055   0.545   2.489   4.434 -0.1175  0.0606  0.4063
 2753SOL     OW11056   2.040   0.180   4.497  0.0922 -0.3850 -0.3653
 2753SOL    HW211057   2.123   0.192   4.543  1.4190 -1.2448 -2.4215
 2753SOL    HW311058   2.030   0.085   4.492  0.0995 -0.3145 -2.0119
 2753SOL    MW411059   2.049   0.169   4.502  0.2680 -0.4891 -0.8535
 2754SOL     OW11060   0.047   0.919   4.489  0.3409 -0.3040 -0.1151
 2754SOL    HW211061   0.125   0.970   4.509  1.5392 -1.1912 -2.3283
 2754SOL    HW311062   0.079   0.829   4.479 -0.9944 -0.7126 -0.8813
 2754SOL    MW411063   0.062   0.914   4.490  0.3228 -0.4750 -0.5083
 2755SOL     OW11064   3.492   2.055   4.065  0.4273  0.2781  0.1163
 2755SOL    HW211065   3.531   2.003   3.995  1.8994 -1.6628  2.2821
 2755SOL    HW311066   3.406   2.016   4.078 -0.1485  1.1318 -1.1117
 2755SOL    MW411067   3.486   2.043   4.058  0.5455  0.1347  0.2394
 2756SOL     OW11068   3.456   0.113   4.767 -0.1721 -0.1286  0.3107
 2756SOL    HW211069   3.538   0.098   4.720  0.0484  0.3944  0.5156
 2756SOL    HW311070   3.400   0.040   4.743 -0.0412  0.1070 -0.7257
 2756SOL    MW411071   3.459   0.102   4.758 -0.1256 -0.0285  0.2017
 2757SOL     OW11072   0.405   0.793   4.239 -0.0524  0.3307  0.2275
 2757SOL    HW211073   0.438   0.743   4.313 -0.8588 -0.3871  0.1100
 2757SOL    HW311074   0.467   0.775   4.169  0.4862  0.6858  0.6164
 2757SOL    MW411075   0.417   0.784   4.239 -0.0877  0.2828  0.2632
 2758SOL     OW11076   0.346   4.466   4.487 -0.2415  0.1258 -0.1116
 2758SOL    HW211077   0.432   4.434   4.462  0.0481  0.8461 -0.0577
 2758SOL    HW311078   0.357   4.561   4.495 -0.9974  0.2054  0.0519
 2758SOL    MW411079   0.359   4.474   4.485 -0.3030  0.2313 -0.0834
 2759SOL     OW11080   1.454   3.547   4.456 -0.0955 -0.7966 -0.1760
 2759SOL    HW211081   1.489   3.634   4.474  0.2111 -0.7773 -0.8890
 2759SOL    HW311082   1.359   3.557   4.467  0.0980 -0.8504  1.7239
 2759SOL    MW411083   1.446   3.560   4.460 -0.0296 -0.8013 -0.0191
 2760SOL     OW11084   3.808   4.403   4.245  0.1478  0.4499 -0.4031
 2760SOL    HW211085   3.769   4.487   4.220 -0.0088  0.0773 -1.4660
 2760SOL    HW311086   3.885   4.394   4.188  0.9740  0.5171  0.6809
 2760SOL    MW411087   3.813   4.413   4.234  0.2360  0.4096 -0.4005
 2761SOL     OW11088   2.052   3.168   4.747  0.3270 -0.0788  0.6635
 2761SOL    HW211089   1.965   3.203   4.766  1.0887  0.8343  2.5428
 2761SOL    HW311090   2.101   3.177   4.829  2.2212 -0.5158 -0.3799
 2761SOL    MW411091   2.047   3.174   4.760  0.6773 -0.0157  0.7739
 2762SOL     OW11092   3.623   1.924   3.852  0.5443  0.6482  0.0863
 2762SOL    HW211093   3.623   1.831   3.829 -2.0526  0.3896  0.9721
 2762SOL    HW311094   3.563   1.965   3.790  0.9617  1.5852  0.2935
 2762SOL    MW411095   3.615   1.917   3.841  0.2568  0.7377  0.2303
 2763SOL     OW11096   3.595   1.145   4.506 -0.2180 -0.1876  0.4049
 2763SOL    HW211097   3.644   1.066   4.528 -0.8404 -0.6273  0.2349
 2763SOL    HW311098   3.642   1.183   4.432 -0.2683 -0.7369  0.0880
 2763SOL    MW411099   3.607   1.139   4.499 -0.3064 -0.3181  0.3405
 2764SOL     OW11100   2.328   4.354   4.137 -0.4300  0.0705 -0.0434
 2764SOL    HW211101   2.328   4.276   4.192 -0.5221 -0.5815 -0.9560
 2764SOL    HW311102   2.399   4.408   4.171 -0.8653 -0.0607  1.0820
 2764SOL    MW411103   2.337   4.351   4.148 -0.4995 -0.0334 -0.0153
 2765SOL     OW11104   0.872   2.644   4.181  0.4417 -0.3080  0.1298
 2765SOL    HW211105   0.883   2.561   4.227  0.1461  0.1754  1.0936
 2765SOL    HW311106   0.956   2.688   4.190  0.2752 -0.0682  0.4911
 2765SOL    MW411107   0.884   2.639   4.188  0.3808 -0.2127  0.3042
 2766SOL     OW11108   4.013   3.643   4.513  0.0165  0.1186 -0.1271
 2766SOL    HW211109   3.993   3.641   4.419 -0.9737  2.6251  0.0062
 2766SOL    HW311110   3.954   3.709   4.549  1.3109  0.1343  2.0536
 2766SOL    MW411111   4.002   3.651   4.505  0.0567  0.4513  0.1783
 2767SOL     OW11112   3.595   4.257   4.132 -0.3130  0.3018 -0.2863
 2767SOL    HW211113   3.667   4.300   4.178 -0.5929  0.5970 -0.1175
 2767SOL    HW311114   3.516   4.289   4.177 -0.6134  0.8969 -1.2343
 2767SOL    MW411115   3.594   4.267   4.144 -0.3896  0.4187 -0.3891
 2768SOL     OW11116   3.479   1.636   4.539 -0.3888  0.1826 -0.1261
 2768SOL    HW211117   3.569   1.629   4.570 -0.2491  1.2710 -0.2595
 2768SOL    HW311118   3.486   1.628   4.444 -0.6958 -2.0186 -0.0023
 2768SOL    MW411119   3.492   1.634   4.531 -0.4110  0.0359 -0.1273
 2769SOL     OW11120   3.199   1.439   4.232 -0.5446  0.2770 -0.1782
 2769SOL    HW211121   3.120   1.431   4.178 -0.0818 -0.9834 -0.6760
 2769SOL    HW311122   3.182   1.516   4.286 -1.6555  0.6715 -1.0510
 2769SOL    MW411123   3.186   1.448   4.232 -0.6299  0.1626 -0.3591
 2770SOL     OW11124   1.607   0.788   4.118  0.2314  0.5668  0.6068
 2770SOL    HW211125   1.695   0.767   4.148  0.3121 -1.7809 -1.1621
 2770SOL    HW311126   1.551   0.726   4.164 -0.2626  0.6245  0.0839
 2770SOL    MW411127   1.611   0.777   4.128  0.1768  0.2647  0.3047
 2771SOL     OW11128   4.260   4.590   4.114 -0.5710  0.4139  0.0187
 2771SOL    HW211129   4.349   4.561   4.135 -0.5892  0.4241  0.1105
 2771SOL    HW311130   4.246   4.668   4.168 -0.5485  0.5515 -0.1724
 2771SOL    MW411131   4.270   4.596   4.124 -0.5708  0.4334  0.0057
 2772SOL     OW11132   3.765   2.554   4.661 -0.1339 -0.1155  0.5788
 2772SOL    HW211133   3.834   2.579   4.598 -0.1559 -0.6740  0.3361
 2772SOL    HW311134   3.700   2.624   4.653 -0.4775 -0.5505 -0.5490
 2772SOL    MW411135   3.766   2.567   4.651 -0.1822 -0.2468  0.3982
 2773SOL     OW11136   2.174   2.890   4.321 -0.1017  0.5123 -0.4838
 2773SOL    HW211137   2.265   2.863   4.332  0.6818  3.1704 -0.0732
 2773SOL    HW311138   2.172   2.929   4.234 -0.5872  1.4944 -0.0316
 2773SOL    MW411139   2.186   2.891   4.311 -0.0627  0.9928 -0.3700
 2774SOL     OW11140   2.912   0.282   4.317 -0.2252  0.0631 -0.2749
 2774SOL    HW211141   2.845   0.324   4.263 -0.1093 -1.5661 -1.7017
 2774SOL    HW311142   2.904   0.189   4.297  1.2118 -0.3397  0.9716
 2774SOL    MW411143   2.902   0.275   4.308 -0.0200 -0.2050 -0.2990
 2775SOL     OW11144   2.562   2.853   4.636  0.5905 -0.0843  0.3958
 2775SOL    HW211145   2.530   2.772   4.597  1.8848 -0.6951  0.5979
 2775SOL    HW311146   2.487   2.913   4.631  0.0798 -0.8323 -1.0312
 2775SOL    MW411147   2.548   2.850   4.630  0.6940 -0.2637  0.2346
 2776SOL     OW11148   1.853   1.704   4.814 -0.3998  0.1682 -0.1743
 2776SOL    HW211149   1.910   1.629   4.795  0.2320  0.1608  1.6169
 2776SOL    HW311150   1.900   1.780   4.780 -0.5645 -0.1345 -1.0829
 2776SOL    MW411151   1.867   1.704   4.807 -0.3382  0.1272 -0.0587
 2777SOL     OW11152   1.768   3.449   4.079  0.2627 -0.0435  0.4493
 2777SOL    HW211153   1.691   3.495   4.112  0.0734 -1.1384  1.5826
 2777SOL    HW311154   1.785   3.488   3.993 -0.8054  1.0576  0.7254
 2777SOL    MW411155   1.760   3.460   4.072  0.0969 -0.0427  0.6347
 2778SOL     OW11156   3.673   2.713   4.082  0.6445 -0.6014  0.5367
 2778SOL    HW211157   3.693   2.622   4.105 -0.2480 -0.7816  0.6136
 2778SOL    HW311158   3.637   2.709   3.994  1.6528 -0.1877  0.0909
 2778SOL    MW411159   3.671   2.701   4.074  0.6597 -0.5705  0.4873
 2779SOL     OW11160   3.382   0.011   3.889  0.0519 -0.0112  0.4296
 2779SOL    HW211161   3.402   0.011   3.983  0.3794 -1.3445  0.3765
 2779SOL    HW311162   3.448   0.068   3.850  2.0898 -2.1906  0.5946
 2779SOL    MW411163   3.394   0.018   3.896  0.3641 -0.4746  0.4442
 2780SOL     OW11164   3.325   1.632   4.087  0.3469  0.2107 -0.5577
 2780SOL    HW211165   3.338   1.593   4.001  1.4844 -1.5127  0.3504
 2780SOL    HW311166   3.256   1.580   4.128 -0.3881  1.1957 -0.5263
 2780SOL    MW411167   3.318   1.620   4.081  0.4001  0.1131 -0.4334
 2781SOL     OW11168   1.776   0.280   4.530  0.5139  0.1588  0.1750
 2781SOL    HW211169   1.868   0.253   4.529  0.7094  0.8233 -0.0201
 2781SOL    HW311170   1.779   0.375   4.534 -0.1638  0.2080 -0.3534
 2781SOL    MW411171   1.789   0.289   4.530  0.4503  0.2530  0.0796
 2782SOL     OW11172   3.689   0.883   4.577 -0.0039  0.1286  0.3573
 2782SOL    HW211173   3.668   0.847   4.663  0.1339 -0.6855  0.0624
 2782SOL    HW311174   3.636   0.831   4.516 -0.0470  0.6517 -0.0569
 2782SOL    MW411175   3.679   0.871   4.580  0.0086  0.0902  0.2632
 2783SOL     OW11176   2.328   0.912   4.515  0.2542 -0.2695  0.1726
 2783SOL    HW211177   2.338   0.960   4.433  1.4341 -0.6922  0.0507
 2783SOL    HW311178   2.305   0.978   4.579  1.2925  0.3829 -0.1120
 2783SOL    MW411179   2.326   0.927   4.512  0.5467 -0.2392  0.1187
 2784SOL     OW11180   1.209   3.795   4.109 -0.0180 -0.2730  0.2069
 2784SOL    HW211181   1.168   3.851   4.174  0.8412 -0.4682  0.9484
 2784SOL    HW311182   1.303   3.804   4.126  0.1962 -0.6894 -0.7090
 2784SOL    MW411183   1.216   3.803   4.120  0.1236 -0.3536  0.1841
 2785SOL     OW11184   2.628   1.971   4.442  0.0566  0.3807 -0.0802
 2785SOL    HW211185   2.636   1.977   4.538 -0.7074  0.3546 -0.0127
 2785SOL    HW311186   2.679   1.894   4.419  0.7056  0.7046  0.2480
 2785SOL    MW411187   2.636   1.962   4.452  0.0415  0.4202 -0.0277
 2786SOL     OW11188   0.503   3.840   4.435 -0.0412 -0.0163  0.2346
 2786SOL    HW211189   0.594   3.836   4.463  0.6212  0.0073 -1.8269
 2786SOL    HW311190   0.472   3.750   4.438  0.2401 -0.1096  0.3053
 2786SOL    MW411191   0.511   3.828   4.439  0.0833 -0.0255 -0.0281
 2787SOL     OW11192   2.160   3.517   4.139 -0.2292 -0.2562  0.0952
 2787SOL    HW211193   2.091   3.561   4.188 -1.6708 -2.5926  0.2353
 2787SOL    HW311194   2.182   3.440   4.192  0.1840 -1.2867 -1.5220
 2787SOL    MW411195   2.154   3.513   4.152 -0.3648 -0.7005 -0.0997
 2788SOL     OW11196   0.289   3.117   3.883 -0.2724  0.0757  0.2013
 2788SOL    HW211197   0.275   3.100   3.976 -1.3290 -1.1283 -0.1644
 2788SOL    HW311198   0.287   3.030   3.842 -0.1986  0.6269 -0.9952
 2788SOL    MW411199   0.287   3.103   3.890 -0.4021 -0.0100 -0.0048
 2789SOL     OW11200   3.823   0.077   4.389 -0.0741 -0.2215 -0.8335
 2789SOL    HW211201   3.791   0.043   4.305  2.0012 -0.7309 -1.4599
 2789SOL    HW311202   3.758   0.050   4.453 -1.0173 -0.9847 -2.0978
 2789SOL    MW411203   3.810   0.069   4.386  0.0753 -0.3894 -1.0834
 2790SOL     OW11204   2.337   1.017   4.254  0.0901  0.3623  0.3225
 2790SOL    HW211205   2.251   1.040   4.218  0.3859  0.4768 -0.3154
 2790SOL    HW311206   2.350   0.926   4.228 -0.0916  0.1616  0.9226
 2790SOL    MW411207   2.327   1.008   4.246  0.1054  0.3508  0.3171
 2791SOL     OW11208   0.123   0.649   4.465 -0.0804  0.5678  0.3301
 2791SOL    HW211209   0.131   0.629   4.558  0.7468  1.4154  0.4504
 2791SOL    HW311210   0.063   0.583   4.431  1.4665 -1.1894  0.9915
 2791SOL    MW411211   0.116   0.638   4.472  0.2328  0.4478  0.4334
 2792SOL     OW11212   1.595   2.096   4.147  0.7811  0.3039 -0.2647
 2792SOL    HW211213   1.565   2.086   4.237 -0.8789 -0.0323 -0.8444
 2792SOL    HW311214   1.640   2.181   4.146  0.1121  0.6727  0.6887
 2792SOL    MW411215   1.597   2.106   4.158  0.4736  0.3083 -0.2160
 2793SOL     OW11216   3.081   1.459   4.730 -0.0320  0.0548  0.3403
 2793SOL    HW211217   3.174   1.451   4.709  0.0581  1.9327 -0.0173
 2793SOL    HW311218   3.055   1.545   4.697 -1.7798 -0.2343  0.8794
 2793SOL    MW411219   3.090   1.469   4.723 -0.2506  0.2644  0.3638
 2794SOL     OW11220   4.485   1.179   4.087 -0.2131  0.0789  0.0889
 2794SOL    HW211221   4.402   1.214   4.120  0.5448  1.0386  1.0257
 2794SOL    HW311222   4.493   1.093   4.129 -1.3814 -0.6071 -1.0723
 2794SOL    MW411223   4.475   1.173   4.097 -0.2675  0.1149  0.0596
 2795SOL     OW11224   4.052   2.947   4.695  0.1412  0.1497 -0.2318
 2795SOL    HW211225   4.125   2.889   4.716  0.0014 -0.3379 -1.0682
 2795SOL    HW311226   4.093   3.028   4.665  0.3390  0.6256  1.3038
 2795SOL    MW411227   4.067   2.950   4.694  0.1483  0.1481 -0.1392
 2796SOL     OW11228   3.165   1.165   3.854  0.2825  0.4459  0.2192
 2796SOL    HW211229   3.155   1.073   3.829  1.1060  0.4779 -0.2703
 2796SOL    HW311230   3.185   1.162   3.948 -0.1308  0.1497  0.2982
 2796SOL    MW411231   3.167   1.152   3.863  0.3364  0.4110  0.1650
 2797SOL     OW11232   2.100   2.023   4.232 -0.4124 -0.0870  0.2024
 2797SOL    HW211233   2.075   2.109   4.198 -0.0029 -0.2252 -0.4576
 2797SOL    HW311234   2.182   2.003   4.188 -1.0358 -1.2702 -0.4351
 2797SOL    MW411235   2.107   2.032   4.222 -0.4404 -0.2613  0.0315
 2798SOL     OW11236   2.495   2.089   3.759 -0.1129 -0.3698  0.2375
 2798SOL    HW211237   2.498   2.183   3.773 -0.1371 -0.1282 -1.3130
 2798SOL    HW311238   2.490   2.079   3.664  0.2311 -1.9385  0.3695
 2798SOL    MW411239   2.495   2.100   3.748 -0.0706 -0.5450  0.0503
 2799SOL     OW11240   0.971   3.254   4.201 -0.1299  0.2505  0.1901
 2799SOL    HW211241   0.946   3.341   4.172 -1.6529 -0.8305 -1.9044
 2799SOL    HW311242   0.889   3.204   4.201  0.8546 -1.3994  0.4936
 2799SOL    MW411243   0.957   3.259   4.197 -0.2009 -0.1099 -0.0458
 2800SOL     OW11244   2.904   2.814   3.715  0.1403  0.3128 -0.4113
 2800SOL    HW211245   2.836   2.777   3.771  0.3312  2.1208  1.0500
 2800SOL    HW311246   2.987   2.788   3.756  0.3044  0.4909 -0.6221
 2800SOL    MW411247   2.906   2.805   3.728  0.1869  0.5751 -0.2460
 2801SOL     OW11248   1.355   3.476   3.852  0.3529 -0.3423 -0.0430
 2801SOL    HW211249   1.285   3.518   3.802 -0.3793 -0.5716  0.7833
 2801SOL    HW311250   1.368   3.392   3.809  0.7315  0.0610 -0.7313
 2801SOL    MW411251   1.347   3.471   3.840  0.3062 -0.3192 -0.0248
 2802SOL     OW11252   3.165   0.006   4.403  0.0428  0.0004 -0.7233
 2802SOL    HW211253   3.207   0.092   4.398 -1.2386  0.7216  0.6361
 2802SOL    HW311254   3.208  -0.037   4.477 -0.8967  0.3560  0.0360
 2802SOL    MW411255   3.176   0.012   4.412 -0.2503  0.1425 -0.4430
 2803SOL     OW11256   4.353   0.361   4.597 -0.2761  0.3756  0.0675
 2803SOL    HW211257   4.384   0.399   4.515  0.3926  0.8449  0.5354
 2803SOL    HW311258   4.261   0.386   4.601 -0.2362  0.6100 -0.3908
 2803SOL    MW411259   4.345   0.369   4.586 -0.1826  0.4684  0.0687
 2804SOL     OW11260   1.591   3.315   4.558 -0.3801 -0.0468  0.6055
 2804SOL    HW211261   1.540   3.390   4.528 -0.6497 -0.2083  0.6492
 2804SOL    HW311262   1.636   3.284   4.479 -0.9973 -0.4018  0.3856
 2804SOL    MW411263   1.590   3.321   4.543 -0.4971 -0.1149  0.5822
 2805SOL     OW11264   4.036   2.519   4.509  0.6967 -0.2594 -0.0141
 2805SOL    HW211265   4.095   2.565   4.449 -0.6117  1.9082  0.3235
 2805SOL    HW311266   4.084   2.440   4.534  2.2902  0.0591 -1.9398
 2805SOL    MW411267   4.050   2.514   4.504  0.7343  0.0682 -0.2236
 2806SOL     OW11268   1.719   4.516   4.395 -0.0452  0.3534 -0.0809
 2806SOL    HW211269   1.728   4.438   4.339 -0.6611  0.2549 -0.0474
 2806SOL    HW311270   1.809   4.536   4.423  0.1407 -0.2272 -0.2522
 2806SOL    MW411271   1.732   4.508   4.391 -0.1019  0.2642 -0.0987
 2807SOL     OW11272   1.813   2.606   4.122 -0.1824  0.4550  0.7140
 2807SOL    HW211273   1.758   2.684   4.117  0.3103  0.7366 -0.5512
 2807SOL    HW311274   1.875   2.624   4.193 -0.4082  0.9845  0.7737
 2807SOL    MW411275   1.814   2.618   4.131 -0.1470  0.5620  0.5546
 2808SOL     OW11276   0.498   0.448   4.135  0.2784 -0.1215 -0.3925
 2808SOL    HW211277   0.563   0.387   4.169  0.0074 -1.3545 -2.0044
 2808SOL    HW311278   0.425   0.442   4.196  0.1137 -1.7087 -0.7097
 2808SOL    MW411279   0.497   0.439   4.147  0.2209 -0.4936 -0.6471
 2809SOL     OW11280   1.136   1.715   4.639  0.3383  0.0084 -0.0320
 2809SOL    HW211281   1.163   1.627   4.664 -1.4305 -0.5750 -0.0674
 2809SOL    HW311282   1.141   1.715   4.543 -0.2135 -0.2456 -0.0623
 2809SOL    MW411283   1.140   1.704   4.630  0.0322 -0.1022 -0.0405
 2810SOL     OW11284   1.350   1.270   4.168 -0.1721  0.2061 -0.1057
 2810SOL    HW211285   1.422   1.210   4.190  0.9728  1.7826  0.5491
 2810SOL    HW311286   1.346   1.268   4.072  0.5377 -0.1173 -0.1334
 2810SOL    MW411287   1.359   1.262   4.158  0.0725  0.3713 -0.0229
 2811SOL     OW11288   1.291   2.408   4.521  0.6419 -0.0266  0.5825
 2811SOL    HW211289   1.377   2.411   4.480 -0.7104  0.3261 -2.4424
 2811SOL    HW311290   1.282   2.318   4.552  1.4716 -0.5280 -0.5767
 2811SOL    MW411291   1.301   2.396   4.520  0.5729 -0.0463  0.0305
 2812SOL     OW11292   0.905   1.998   4.203  0.2209  0.1464  0.1296
 2812SOL    HW211293   0.862   2.070   4.157 -0.8041 -1.2769 -1.1788
 2812SOL    HW311294   0.913   2.029   4.293  1.6749  2.7128 -0.8228
 2812SOL    MW411295   0.901   2.012   4.209  0.2774  0.2971 -0.1683
 2813SOL     OW11296   2.286   0.364   4.178 -0.2130  0.0262 -0.1661
 2813SOL    HW211297   2.277   0.381   4.084 -0.8849  1.7620  0.2141
 2813SOL    HW311298   2.201   0.330   4.204  0.0308 -0.6310 -0.2021
 2813SOL    MW411299   2.274   0.362   4.169 -0.2697  0.1685 -0.1206
 2814SOL     OW11300   2.963   3.857   3.858  0.2522  0.6551  0.3626
 2814SOL    HW211301   2.962   3.775   3.808  0.2284  0.5342  0.5570
 2814SOL    HW311302   2.956   3.828   3.949 -2.0123  0.9529  0.3169
 2814SOL    MW411303   2.962   3.842   3.864 -0.0498  0.6788  0.3822
 2815SOL     OW11304   1.997   1.251   3.423 -0.2231  0.2640  0.0044
 2815SOL    HW211305   2.080   1.214   3.394  0.1597  0.8328  0.3480
 2815SOL    HW311306   2.002   1.249   3.519 -0.5092  0.5161  0.0256
 2815SOL    MW411307   2.009   1.246   3.432 -0.2103  0.3723  0.0525
 2816SOL     OW11308   1.198   0.837   4.133  0.2481 -0.5197  0.2212
 2816SOL    HW211309   1.173   0.926   4.159 -1.0893 -0.9256  0.3809
 2816SOL    HW311310   1.177   0.833   4.040  0.9320 -0.4683  0.0603
 2816SOL    MW411311   1.192   0.848   4.124  0.1620 -0.5665  0.2213
 2817SOL     OW11312   2.525   2.907   3.957 -0.6054 -0.0446  0.3747
 2817SOL    HW211313   2.503   2.925   3.866 -0.3015 -0.9387  0.1238
 2817SOL    HW311314   2.451   2.855   3.989 -0.7829  0.3921  0.6905
 2817SOL    MW411315   2.512   2.903   3.949 -0.5882 -0.1049  0.3834
 2818SOL     OW11316   3.939   0.903   4.496 -0.5299  0.9211  0.1983
 2818SOL    HW211317   3.932   0.902   4.401 -0.2181  2.0015  0.1579
 2818SOL    HW311318   3.849   0.895   4.527 -0.6219  0.4690 -0.1732
 2818SOL    MW411319   3.926   0.902   4.488 -0.5007  1.0041  0.1435
 2819SOL     OW11320   4.294   0.066   4.526  0.3658 -0.1748  0.7654
 2819SOL    HW211321   4.348   0.137   4.559  2.1892 -0.9046 -0.5572
 2819SOL    HW311322   4.356  -0.005   4.507 -1.0437 -1.0313 -0.7744
 2819SOL    MW411323   4.309   0.066   4.528  0.4206 -0.3841  0.3881
 2820SOL     OW11324   2.147   3.913   4.341 -0.4465 -0.0728 -0.1315
 2820SOL    HW211325   2.231   3.946   4.309 -0.7196  0.0977 -0.6723
 2820SOL    HW311326   2.171   3.844   4.403  0.1240  1.5559  1.4675
 2820SOL    MW411327   2.161   3.908   4.345 -0.4072  0.1645  0.0086
 2821SOL     OW11328   3.883   3.896   4.569 -0.6269  0.2840  0.2258
 2821SOL    HW211329   3.790   3.893   4.547 -0.7696  0.2820  0.8459
 2821SOL    HW311330   3.892   3.971   4.627 -0.0640  0.9278 -0.6730
 2821SOL    MW411331   3.872   3.906   4.573 -0.5713  0.3686  0.1898
 2822SOL     OW11332   1.130   2.755   4.190  0.0877 -0.7810 -0.2346
 2822SOL    HW211333   1.169   2.749   4.277 -0.0115 -0.7634 -0.1882
 2822SOL    HW311334   1.139   2.847   4.165 -1.7081 -0.3547  0.6175
 2822SOL    MW411335   1.136   2.766   4.198 -0.1622 -0.7224 -0.1159
 2823SOL     OW11336   3.139   3.903   4.284  0.1525  0.7878  0.4393
 2823SOL    HW211337   3.214   3.895   4.226 -0.0745  0.8112  0.1403
 2823SOL    HW311338   3.118   3.996   4.283  0.1159  0.7804  0.5174
 2823SOL    MW411339   3.146   3.914   4.276  0.1180  0.7899  0.4106
 2824SOL     OW11340   3.306   2.564   4.236  0.2041  0.2821  0.2869
 2824SOL    HW211341   3.341   2.509   4.165  0.2320  0.1579  0.3954
 2824SOL    HW311342   3.256   2.632   4.191  0.5663  0.4471  0.1287
 2824SOL    MW411343   3.304   2.566   4.220  0.2553  0.2875  0.2809
 2825SOL     OW11344   0.786   2.864   4.514 -0.6425  0.0645 -0.1080
 2825SOL    HW211345   0.825   2.950   4.528 -0.3322  0.0159 -0.6423
 2825SOL    HW311346   0.760   2.834   4.602  0.2712  0.2164  0.2162
 2825SOL    MW411347   0.788   2.871   4.528 -0.4809  0.0782 -0.1354
 2826SOL     OW11348   1.342   1.907   4.705 -0.1992 -0.4801  0.0346
 2826SOL    HW211349   1.420   1.853   4.718  0.4158  0.3113 -0.3704
 2826SOL    HW311350   1.269   1.844   4.709  0.2473 -0.9186  2.8679
 2826SOL    MW411351   1.342   1.891   4.707 -0.0591 -0.4336  0.3548
 2827SOL     OW11352   4.098   1.098   4.639 -0.2216 -0.2980 -0.2312
 2827SOL    HW211353   4.037   1.050   4.583  0.2613  1.3747 -2.2413
 2827SOL    HW311354   4.044   1.163   4.683 -0.3164 -0.5066 -0.0383
 2827SOL    MW411355   4.083   1.100   4.638 -0.1702 -0.1049 -0.4711
 2828SOL     OW11356   3.199   1.942   3.795  0.4303 -0.8338 -0.4157
 2828SOL    HW211357   3.108   1.972   3.794  0.3981 -0.9106  0.4103
 2828SOL    HW311358   3.220   1.929   3.887  1.4842 -0.1980 -0.5481
 2828SOL    MW411359   3.190   1.944   3.807  0.5653 -0.7602 -0.3240
 2829SOL     OW11360   3.561   2.397   4.761  0.1739 -0.4515 -0.0214
 2829SOL    HW211361   3.587   2.443   4.840  0.3097 -1.8056  0.7290
 2829SOL    HW311362   3.634   2.410   4.700 -0.0108  0.7365 -0.0043
 2829SOL    MW411363   3.574   2.405   4.763  0.1671 -0.4733  0.0796
 2830SOL     OW11364   1.095   4.205   4.271  0.0012 -0.9444 -0.1996
 2830SOL    HW211365   1.179   4.224   4.230 -0.2720  0.5919 -0.1086
 2830SOL    HW311366   1.087   4.110   4.270  1.7022 -1.0878 -0.2683
 2830SOL    MW411367   1.105   4.195   4.266  0.1898 -0.7601 -0.1969
 2831SOL     OW11368   0.710   0.033   4.081 -0.1829  0.1940 -0.3324
 2831SOL    HW211369   0.716   0.024   3.986 -0.8543  0.9355 -0.4540
 2831SOL    HW311370   0.618   0.017   4.101 -0.0567  0.1153  0.1859
 2831SOL    MW411371   0.698   0.030   4.071 -0.2548  0.2815 -0.2809
 2832SOL     OW11372   3.190   4.338   4.134 -0.3796  0.3182  0.0036
 2832SOL    HW211373   3.138   4.286   4.195  0.6407  0.7203  1.2419
 2832SOL    HW311374   3.131   4.409   4.107 -1.1388 -0.3819 -0.1901
 2832SOL    MW411375   3.175   4.341   4.139 -0.3452  0.2785  0.1411
 2833SOL     OW11376   2.320   1.534   4.792  0.0772 -0.2984  0.5664
 2833SOL    HW211377   2.382   1.462   4.779  1.5904  0.9446  0.7733
 2833SOL    HW311378   2.374   1.607   4.820 -1.1646  1.5606 -1.7061
 2833SOL    MW411379   2.335   1.534   4.794  0.1130  0.1110  0.2942
 2834SOL     OW11380   2.707   1.916   3.839  0.0080  0.0621  0.7292
 2834SOL    HW211381   2.635   1.974   3.816  0.5009  0.7978  1.0487
 2834SOL    HW311382   2.696   1.899   3.933  0.1951  0.0903  0.7559
 2834SOL    MW411383   2.696   1.921   3.848  0.0975  0.1628  0.7749
 2835SOL     OW11384   2.206   0.659   4.520  0.2077 -0.0052  0.0885
 2835SOL    HW211385   2.252   0.742   4.521  0.7452 -0.2213 -2.6025
 2835SOL    HW311386   2.257   0.602   4.577  2.4151  0.2080 -1.6352
 2835SOL    MW411387   2.219   0.662   4.528  0.5701 -0.0056 -0.4940
 2836SOL     OW11388   2.085   3.297   4.494 -0.5998 -0.2908 -0.6252
 2836SOL    HW211389   2.098   3.244   4.574  0.5736  1.1154  0.1387
 2836SOL    HW311390   2.035   3.373   4.524 -1.4949 -0.5132 -1.5454
 2836SOL    MW411391   2.080   3.300   4.509 -0.5631 -0.1347 -0.6452
 2837SOL     OW11392   0.454   3.153   4.496 -0.4748  0.0539 -0.7971
 2837SOL    HW211393   0.517   3.150   4.424  0.6539 -0.6972  0.1882
 2837SOL    HW311394   0.400   3.075   4.484  0.1331 -0.4226 -0.4710
 2837SOL    MW411395   0.455   3.142   4.485 -0.2457 -0.1082 -0.6242
 2838SOL     OW11396   3.143   2.762   3.821 -0.6705  0.5256 -0.6472
 2838SOL    HW211397   3.160   2.754   3.915  1.1752  0.1730 -0.9920
 2838SOL    HW311398   3.156   2.673   3.787  0.8357  1.0642 -1.5524
 2838SOL    MW411399   3.147   2.749   3.829 -0.2284  0.5500 -0.8121
 2839SOL     OW11400   0.191   0.016   4.105 -0.1992 -0.1139 -0.5872
 2839SOL    HW211401   0.278   0.013   4.146 -0.3144  0.3773 -0.3039
 2839SOL    HW311402   0.152  -0.068   4.127  0.6393 -0.8137 -1.6891
 2839SOL    MW411403   0.197   0.005   4.113 -0.1038 -0.1414 -0.6952
 2840SOL     OW11404   3.877   4.174   4.684  0.7311 -0.1567  0.4715
 2840SOL    HW211405   3.861   4.235   4.612 -0.1494 -0.7094  0.1884
 2840SOL    HW311406   3.963   4.198   4.717  0.2843  1.4188  0.5392
 2840SOL    MW411407   3.886   4.185   4.679  0.5560 -0.0219  0.4425
 2841SOL     OW11408   2.062   4.453   4.211  0.0105 -0.3935 -0.0085
 2841SOL    HW211409   1.991   4.396   4.183  0.4520 -0.4136 -1.1150
 2841SOL    HW311410   2.142   4.404   4.191  0.3611  0.1187  0.1250
 2841SOL    MW411411   2.064   4.439   4.205  0.1149 -0.3281 -0.1364
 2842SOL     OW11412   0.306   2.888   4.451 -0.1868  0.1502  0.1526
 2842SOL    HW211413   0.343   2.829   4.386  0.7225  1.0579 -0.1736
 2842SOL    HW311414   0.221   2.915   4.414 -0.5139 -0.7897  0.2166
 2842SOL    MW411415   0.300   2.884   4.438 -0.1100  0.1459  0.1183
 2843SOL     OW11416   3.627   2.772   4.563 -0.1256 -0.0591 -0.2354
 2843SOL    HW211417   3.601   2.724   4.484  1.5544  0.1569 -0.9486
 2843SOL    HW311418   3.572   2.850   4.563 -0.9042 -0.6039 -0.5940
 2843SOL    MW411419   3.617   2.776   4.552 -0.0067 -0.1025 -0.3772
 2844SOL     OW11420   2.112   3.094   4.104 -0.1849 -0.3587 -0.0342
 2844SOL    HW211421   2.021   3.119   4.122 -0.0404  0.3464 -0.2935
 2844SOL    HW311422   2.164   3.162   4.146  0.2399 -1.1032  0.6612
 2844SOL    MW411423   2.107   3.106   4.112 -0.1099 -0.3638  0.0234
 2845SOL     OW11424   2.244   3.286   4.261 -0.1971  0.1629  0.1810
 2845SOL    HW211425   2.208   3.292   4.349 -0.1315  0.1095  0.2118
 2845SOL    HW311426   2.338   3.271   4.275 -0.6944 -3.2315  0.1206
 2845SOL    MW411427   2.252   3.285   4.274 -0.2539 -0.2918  0.1769
 2846SOL     OW11428   4.276   1.590   4.112  0.4390 -0.0331 -0.2977
 2846SOL    HW211429   4.222   1.659   4.151 -0.6864 -0.4438 -1.1323
 2846SOL    HW311430   4.260   1.598   4.018  0.5497 -1.2453 -0.4167
 2846SOL    MW411431   4.267   1.600   4.105  0.3052 -0.2472 -0.4234
 2847SOL     OW11432   2.971   3.151   4.070  0.5950  0.1103 -0.1495
 2847SOL    HW211433   2.969   3.123   3.979 -0.1006 -0.8415  0.1329
 2847SOL    HW311434   3.028   3.087   4.114  1.2839  0.8257 -0.0001
 2847SOL    MW411435   2.978   3.139   4.064  0.5939  0.0792 -0.0925
 2848SOL     OW11436   2.052   2.434   4.606  0.1007  0.2010  0.1496
 2848SOL    HW211437   2.126   2.451   4.665 -0.0252  2.0806 -0.2083
 2848SOL    HW311438   2.093   2.418   4.521  0.2288 -1.5684  0.5228
 2848SOL    MW411439   2.067   2.434   4.603  0.1009  0.2155  0.1512
 2849SOL     OW11440   3.373   1.788   4.752  0.1902  0.0055  0.4544
 2849SOL    HW211441   3.458   1.820   4.783  1.0703 -1.3599 -0.4753
 2849SOL    HW311442   3.393   1.747   4.668 -1.3139 -0.7494  0.4578
 2849SOL    MW411443   3.387   1.787   4.745  0.1078 -0.2743  0.3324
 2850SOL     OW11444   3.124   4.584   4.841  0.4955 -0.2097  0.2344
 2850SOL    HW211445   3.109   4.596   4.935 -0.0854 -1.7005  0.3386
 2850SOL    HW311446   3.070   4.651   4.800 -1.3396 -1.2948  0.8602
 2850SOL    MW411447   3.115   4.595   4.848  0.1769 -0.5493  0.3309
 2851SOL     OW11448   1.437   4.203   4.379  0.2822  0.3760  0.2772
 2851SOL    HW211449   1.447   4.288   4.422  0.9300 -0.0577  0.9921
 2851SOL    HW311450   1.411   4.225   4.289  1.8484  1.3902  0.0400
 2851SOL    MW411451   1.435   4.217   4.373  0.5745  0.4525  0.3409
 2852SOL     OW11452   1.138   0.548   4.494 -0.4648  0.2833 -0.5865
 2852SOL    HW211453   1.172   0.459   4.506 -1.4708 -0.0189  0.2240
 2852SOL    HW311454   1.213   0.605   4.506  0.1999 -0.4697 -1.1458
 2852SOL    MW411455   1.152   0.544   4.497 -0.5097  0.1441 -0.5536
 2853SOL     OW11456   3.463   2.332   4.087 -0.0100 -0.6043  0.7206
 2853SOL    HW211457   3.550   2.351   4.121 -0.9594 -0.3340  3.0548
 2853SOL    HW311458   3.457   2.236   4.089  0.4916 -0.6626 -0.1595
 2853SOL    MW411459   3.473   2.322   4.091 -0.0691 -0.5763  0.9117
 2854SOL     OW11460   0.095   1.922   4.145 -0.3804  0.1099  0.0068
 2854SOL    HW211461   0.063   1.983   4.211 -0.4856  1.7648 -1.5491
 2854SOL    HW311462   0.188   1.942   4.137 -0.0124 -1.1993  0.7996
 2854SOL    MW411463   0.103   1.933   4.153 -0.3458  0.1554 -0.0944
 2855SOL     OW11464   3.077   3.427   4.115 -0.3275  0.0073 -0.7138
 2855SOL    HW211465   3.038   3.340   4.103  1.2902 -0.8179 -0.1423
 2855SOL    HW311466   3.099   3.457   4.027  2.2897 -1.6845 -0.6868
 2855SOL    MW411467   3.075   3.420   4.102  0.2317 -0.3250 -0.6347
 2856SOL     OW11468   0.225   3.908   3.845  0.5996 -0.2230 -0.3267
 2856SOL    HW211469   0.244   3.891   3.937  0.7541  1.4194 -0.0407
 2856SOL    HW311470   0.309   3.935   3.807 -0.0050  1.6786 -0.3342
 2856SOL    MW411471   0.238   3.909   3.852  0.5402  0.2449 -0.2897
 2857SOL     OW11472   2.305   2.484   4.752 -0.2191 -0.2544  0.4425
 2857SOL    HW211473   2.353   2.403   4.733 -1.0318 -0.8919  1.0434
 2857SOL    HW311474   2.309   2.493   4.847  0.5959  0.8823  0.3134
 2857SOL    MW411475   2.312   2.474   4.762 -0.2186 -0.1886  0.5045
 2858SOL     OW11476   4.133   3.986   4.445  0.3447  0.3963  0.9241
 2858SOL    HW211477   4.045   3.950   4.455  0.7137 -0.7015  0.3551
 2858SOL    HW311478   4.191   3.910   4.455  1.1357  0.7920 -0.4804
 2858SOL    MW411479   4.129   3.971   4.448  0.4983  0.3037  0.6633
 2859SOL     OW11480   0.303   2.364   4.128  0.4108  0.3124  0.1051
 2859SOL    HW211481   0.290   2.456   4.104 -0.3804 -0.1370 -1.2928
 2859SOL    HW311482   0.273   2.358   4.219 -0.9448  1.1430 -0.2634
 2859SOL    MW411483   0.297   2.375   4.137  0.1275  0.3629 -0.1273
 2860SOL     OW11484   0.011   2.910   4.039  0.0456 -0.2055  0.3878
 2860SOL    HW211485  -0.001   2.828   4.087 -0.0261 -1.5471 -1.8858
 2860SOL    HW311486  -0.065   2.963   4.062 -1.1653 -1.7308 -0.0238
 2860SOL    MW411487  -0.000   2.906   4.049 -0.1235 -0.5839  0.0334
 2861SOL     OW11488   2.823   3.860   4.679  0.5412  0.3583 -0.2112
 2861SOL    HW211489   2.887   3.793   4.703  1.6406  0.7040 -2.0662
 2861SOL    HW311490   2.758   3.813   4.625  0.6426  0.5273 -0.4826
 2861SOL    MW411491   2.823   3.845   4.675  0.6995  0.4263 -0.4921
 2862SOL     OW11492   3.487   1.288   4.831  0.2614  0.4523 -0.5142
 2862SOL    HW211493   3.422   1.355   4.852 -0.9043 -0.6035 -0.7135
 2862SOL    HW311494   3.442   1.229   4.772  1.1982 -0.6829 -0.1091
 2862SOL    MW411495   3.473   1.289   4.826  0.2313  0.1632 -0.4878
 2863SOL     OW11496   2.417   3.640   4.231  0.0388 -0.2440  0.0531
 2863SOL    HW211497   2.332   3.611   4.197  0.5312 -0.9959 -0.5717
 2863SOL    HW311498   2.480   3.584   4.186  0.7929 -0.4112  1.3033
 2863SOL    MW411499   2.414   3.628   4.221  0.2031 -0.3650  0.1359
 2864SOL     OW11500   1.077   1.870   4.048 -0.6247  0.3159 -0.0194
 2864SOL    HW211501   1.020   1.916   4.110 -0.2804  2.7988 -1.4754
 2864SOL    HW311502   1.165   1.885   4.081 -0.5732 -0.1721  0.0625
 2864SOL    MW411503   1.081   1.878   4.061 -0.5726  0.5791 -0.2007
 2865SOL     OW11504   0.109   0.497   4.710  0.3037  0.2311  0.5139
 2865SOL    HW211505   0.014   0.482   4.702  0.3789 -1.2246  1.9237
 2865SOL    HW311506   0.148   0.417   4.674  1.0608  1.4662 -1.4648
 2865SOL    MW411507   0.101   0.484   4.704  0.4135  0.2020  0.4387
 2866SOL     OW11508   2.754   1.306   4.901  0.2808  0.0001  0.4703
 2866SOL    HW211509   2.784   1.282   4.989 -0.9119  0.7260  1.0768
 2866SOL    HW311510   2.783   1.233   4.845  2.5877  0.3878  1.1477
 2866SOL    MW411511   2.762   1.293   4.905  0.4280  0.1471  0.6399
 2867SOL     OW11512   0.865   1.093   4.129 -0.2664 -0.0293 -0.2089
 2867SOL    HW211513   0.951   1.082   4.170 -0.5548 -0.5031  0.2725
 2867SOL    HW311514   0.885   1.107   4.036  0.2964 -1.1506 -0.2731
 2867SOL    MW411515   0.879   1.093   4.122 -0.2302 -0.2398 -0.1535
 2868SOL     OW11516   0.718   1.308   4.234 -0.1628  0.1439  0.3871
 2868SOL    HW211517   0.624   1.297   4.230 -0.1573 -0.1019  0.8368
 2868SOL    HW311518   0.754   1.226   4.200 -0.1129  0.1427  0.4424
 2868SOL    MW411519   0.711   1.296   4.229 -0.1555  0.1113  0.4544
 2869SOL     OW11520   3.920   0.340   4.387  0.1647  0.8192  0.4693
 2869SOL    HW211521   3.882   0.253   4.399 -1.2555  1.2059 -1.1339
 2869SOL    HW311522   3.933   0.373   4.476 -3.1859  0.6469  1.0667
 2869SOL    MW411523   3.917   0.333   4.400 -0.4647  0.8475  0.3366
 2870SOL     OW11524   1.647   2.729   4.452  0.5466  0.3237 -0.4107
 2870SOL    HW211525   1.711   2.720   4.523  0.5009  0.2675 -0.3770
 2870SOL    HW311526   1.589   2.800   4.481 -2.6948 -3.1445  2.0724
 2870SOL    MW411527   1.648   2.738   4.465  0.1129 -0.1416 -0.0787
 2871SOL     OW11528   1.100   0.070   4.478  0.2603  0.0062  0.2734
 2871SOL    HW211529   1.119   0.120   4.399  0.8796 -0.1192  0.3431
 2871SOL    HW311530   1.013   0.032   4.463 -0.3111  1.2706  0.3056
 2871SOL    MW411531   1.091   0.072   4.466  0.2667  0.1565  0.2871
 2872SOL     OW11532   0.445   2.215   4.468  0.2990 -0.0064  0.0262
 2872SOL    HW211533   0.483   2.151   4.529 -1.2740 -0.4713  0.5396
 2872SOL    HW311534   0.462   2.178   4.381 -2.5364 -2.3370  0.3475
 2872SOL    MW411535   0.452   2.202   4.465 -0.2826 -0.3750  0.1364
 2873SOL     OW11536   2.717   3.888   4.320  0.1091 -0.2988 -0.2116
 2873SOL    HW211537   2.733   3.982   4.310  0.1697 -0.1940  0.8497
 2873SOL    HW311538   2.788   3.846   4.272 -0.2653  0.1910 -1.2142
 2873SOL    MW411539   2.728   3.895   4.312  0.0677 -0.2203 -0.2041
 2874SOL     OW11540   1.353   1.980   4.100 -0.5020  0.2211  0.4846
 2874SOL    HW211541   1.435   2.030   4.095  0.1450 -0.9855 -1.1732
 2874SOL    HW311542   1.367   1.918   4.171  0.1462 -0.1911  0.0009
 2874SOL    MW411543   1.366   1.979   4.109 -0.3310  0.0075  0.2022
 2875SOL     OW11544   3.439   3.680   4.508 -0.1816  0.3336 -0.2445
 2875SOL    HW211545   3.384   3.615   4.553  0.0408  0.2358 -0.1130
 2875SOL    HW311546   3.438   3.654   4.416  1.6715 -1.1365  0.1144
 2875SOL    MW411547   3.432   3.668   4.502  0.0925  0.1266 -0.1802
 2876SOL     OW11548   1.146   0.225   4.236  0.2770  0.5359  0.1707
 2876SOL    HW211549   1.071   0.281   4.218 -0.1359  0.1106  0.5778
 2876SOL    HW311550   1.139   0.154   4.172  0.7438  0.8853 -0.2763
 2876SOL    MW411551   1.135   0.223   4.225  0.2841  0.5259  0.1655
 2877SOL     OW11552   4.417   0.488   4.346  0.1034 -0.2804  0.0857
 2877SOL    HW211553   4.455   0.474   4.259  0.8643 -2.2792  0.7053
 2877SOL    HW311554   4.331   0.527   4.328  1.1155  1.3409 -1.4571
 2877SOL    MW411555   4.410   0.491   4.332  0.3371 -0.3302 -0.0358
 2878SOL     OW11556   0.478   3.197   4.190  0.1381  0.1499 -0.1032
 2878SOL    HW211557   0.552   3.141   4.166  0.6878  0.3842  1.0023
 2878SOL    HW311558   0.401   3.144   4.170  0.6395 -0.8311  0.4921
 2878SOL    MW411559   0.478   3.182   4.184  0.2768  0.0510  0.1206
 2879SOL     OW11560   2.788   0.292   4.588 -0.4702 -0.2114 -0.1274
 2879SOL    HW211561   2.832   0.319   4.508 -1.1643 -0.2917 -0.5443
 2879SOL    HW311562   2.708   0.248   4.558 -0.0753 -1.4368  0.5743
 2879SOL    MW411563   2.783   0.290   4.574 -0.5097 -0.3836 -0.0901
 2880SOL     OW11564   2.471   1.442   4.122  0.3511 -0.1781 -0.0221
 2880SOL    HW211565   2.378   1.434   4.142  0.5250 -0.8023  0.5409
 2880SOL    HW311566   2.473   1.485   4.037 -0.4176  1.3871  0.7326
 2880SOL    MW411567   2.459   1.447   4.114  0.2728 -0.0540  0.1516
 2881SOL     OW11568   0.039   3.000   4.455  0.2242  0.5457  0.3714
 2881SOL    HW211569   0.091   3.072   4.491  1.0556  0.2352 -0.1816
 2881SOL    HW311570  -0.044   3.041   4.431  1.1546  1.6045 -1.1313
 2881SOL    MW411571   0.035   3.015   4.457  0.4566  0.6447  0.1001
 2882SOL     OW11572   3.748   3.201   4.453  0.0435 -0.1903  0.5041
 2882SOL    HW211573   3.825   3.252   4.478 -1.3395  1.0437  2.4498
 2882SOL    HW311574   3.777   3.110   4.458  1.6294  0.2867  0.2792
 2882SOL    MW411575   3.762   3.196   4.457  0.0706  0.0355  0.7315
 2883SOL     OW11576   1.339   0.730   4.519 -0.0020  0.0586 -0.2445
 2883SOL    HW211577   1.417   0.715   4.572  0.8862  1.4765 -1.1270
 2883SOL    HW311578   1.368   0.713   4.429 -0.7757  0.3444 -0.5509
 2883SOL    MW411579   1.353   0.725   4.514  0.0131  0.2834 -0.4010
 2884SOL     OW11580   4.155   3.193   4.606 -0.1900  0.3206  0.5001
 2884SOL    HW211581   4.211   3.219   4.534 -1.6777 -1.0416 -1.2071
 2884SOL    HW311582   4.082   3.255   4.604 -1.0184 -0.6423 -0.1894
 2884SOL    MW411583   4.153   3.204   4.596 -0.4954  0.0136  0.1836
 2885NA      NA11584   0.603   1.514   0.646  0.0687 -0.0014  0.3289
   4.49070   4.66690  10.00000
