Gromacs Runs On Most of All Computer Systems in water
11584
    1RU5    O5'    1   2.729   2.220   4.587 -0.0161 -0.1877  0.4767
    1RU5    H5T    2   2.650   2.167   4.599 -1.5304  1.5791 -1.5266
    1RU5    C5'    3   2.717   2.297   4.469  0.3121 -0.2898  0.2402
    1RU5   H5'1    4   2.688   2.229   4.389  0.8828  0.3040 -0.4789
    1RU5   H5'2    5   2.811   2.347   4.445 -0.9962  0.9824 -2.3797
    1RU5    C4'    6   2.601   2.399   4.470  0.1356 -0.7543  0.0243
    1RU5    H4'    7   2.612   2.464   4.382  2.6255  0.4316  1.1691
    1RU5    O4'    8   2.471   2.344   4.457 -0.3464 -0.3380  0.3010
    1RU5    C1'    9   2.379   2.447   4.497 -0.3782  0.0496  0.3831
    1RU5    H1'   10   2.355   2.507   4.410 -2.1933  1.3680  1.7721
    1RU5     N1   11   2.249   2.393   4.545  0.1099 -0.1266 -0.1092
    1RU5     C6   12   2.230   2.263   4.580 -0.2594 -0.0473  0.3381
    1RU5     H6   13   2.317   2.205   4.608 -0.4958 -0.0218  1.1468
    1RU5     C5   14   2.106   2.210   4.580 -0.0702  0.1555  0.1155
    1RU5     H5   15   2.093   2.103   4.591 -0.2965  0.1417 -0.2808
    1RU5     C4   16   1.989   2.292   4.563  0.7234  0.2328 -0.0124
    1RU5     O4   17   1.868   2.258   4.565 -0.4502  0.0776  0.0509
    1RU5     N3   18   2.013   2.424   4.540 -0.1277  0.1713 -0.2892
    1RU5     H3   19   1.936   2.488   4.533  0.4552  0.8492 -0.5056
    1RU5     C2   20   2.139   2.483   4.534  0.5954  0.3533  0.1647
    1RU5     O2   21   2.148   2.605   4.515  0.3688  0.4500  0.3921
    1RU5    C3'   22   2.598   2.481   4.596  0.6070  0.2010 -0.4200
    1RU5    H3'   23   2.595   2.409   4.679  0.4835  0.3533 -0.2922
    1RU5    C2'   24   2.453   2.540   4.593  0.5999  0.4027  0.4756
    1RU5   H2'1   25   2.413   2.533   4.694  1.3390  1.1198  0.8205
    1RU5    O2'   26   2.453   2.673   4.545  0.3769  0.1539 -0.0618
    1RU5   HO'2   27   2.454   2.741   4.613 -0.2180  0.5808 -0.4781
    1RU5    O3'   28   2.702   2.579   4.606 -0.3568  0.1920  0.3855
    2RG3      P   29   2.769   2.616   4.745  0.1930 -0.0955 -0.1496
    2RG3    O1P   30   2.891   2.700   4.720 -0.1999 -0.1540  0.1949
    2RG3    O2P   31   2.785   2.494   4.825 -0.3261 -0.0726 -0.1751
    2RG3    O5'   32   2.657   2.710   4.801  0.1504  0.1805 -0.1139
    2RG3    C5'   33   2.643   2.845   4.763  0.2775  0.1645 -0.3290
    2RG3   H5'1   34   2.635   2.847   4.654  0.8560  0.5451 -0.3670
    2RG3   H5'2   35   2.733   2.892   4.802  0.3875 -1.6720  1.7138
    2RG3    C4'   36   2.521   2.919   4.818 -0.0914 -0.5228  0.9193
    2RG3    H4'   37   2.516   3.019   4.775 -1.6009 -0.3817  1.3914
    2RG3    O4'   38   2.406   2.846   4.773  0.0693  0.6153 -0.5731
    2RG3    C1'   39   2.313   2.834   4.875 -0.5192 -0.0873 -0.2591
    2RG3    H1'   40   2.210   2.856   4.847 -0.9354 -0.8539  0.6627
    2RG3     N9   41   2.311   2.691   4.925  0.0158  0.3119 -0.4251
    2RG3     C8   42   2.413   2.616   4.980  0.2446  0.4486  0.5683
    2RG3     H8   43   2.505   2.663   5.011  0.1027  1.5174 -0.5685
    2RG3     N7   44   2.389   2.487   4.989  0.5972 -0.2846  0.1432
    2RG3     C5   45   2.256   2.480   4.946  0.2114  0.6952 -0.3858
    2RG3     C6   46   2.166   2.366   4.924  0.0041  0.1288 -0.0256
    2RG3     O6   47   2.177   2.245   4.941 -0.3952  0.2892  0.0499
    2RG3     N1   48   2.037   2.405   4.880  0.3730  0.2553 -0.1932
    2RG3     H1   49   1.967   2.332   4.873  0.7691 -0.5190  3.1996
    2RG3     C2   50   2.002   2.533   4.854 -0.1873 -0.6629 -0.6149
    2RG3     N2   51   1.877   2.553   4.836 -0.1967 -0.0589 -0.5003
    2RG3    H21   52   1.812   2.476   4.839 -0.6317  0.3247  0.3195
    2RG3    H22   53   1.851   2.648   4.816  1.1351  1.1468  3.0043
    2RG3     N3   54   2.084   2.638   4.860  0.1495 -0.1948 -0.7709
    2RG3     C4   55   2.209   2.604   4.910  0.6049 -0.0331  0.3529
    2RG3    C3'   56   2.512   2.937   4.970 -0.4054  0.2646  0.0604
    2RG3    H3'   57   2.561   2.848   5.009 -0.4962  1.0105  1.9349
    2RG3    C2'   58   2.361   2.927   4.986  0.1617 -0.5396 -0.0073
    2RG3   H2'1   59   2.347   2.885   5.085  0.7484  0.2140  0.4018
    2RG3    O2'   60   2.306   3.054   4.973  0.2497 -0.0959 -0.0023
    2RG3   HO'2   61   2.375   3.113   5.002 -1.0682  0.7421  1.4966
    2RG3    O3'   62   2.559   3.062   5.023  0.0477 -0.9702 -0.3362
    2RG3    H3T   63   2.644   3.086   4.985  0.1953  0.8016  1.0959
    5SOL     OW   64   2.735   3.470   0.406 -0.0363 -0.1463  0.1029
    5SOL    HW2   65   2.822   3.510   0.406 -0.7004  1.3473 -1.8299
    5SOL    HW3   66   2.676   3.541   0.433 -0.8245 -0.7576 -0.0036
    5SOL    MW4   67   2.739   3.485   0.410 -0.2279 -0.0298 -0.1661
    6SOL     OW   68   3.180   3.926   0.722  0.0383 -0.1707 -0.3332
    6SOL    HW2   69   3.242   3.897   0.789 -0.7636 -0.4106  0.3095
    6SOL    HW3   70   3.094   3.902   0.756 -0.4335  0.3813 -1.1060
    6SOL    MW4   71   3.177   3.919   0.735 -0.1297 -0.1297 -0.3504
    7SOL     OW   72   1.600   2.319   0.819 -0.1404  0.2785  0.1547
    7SOL    HW2   73   1.594   2.232   0.778  1.8641  0.2143 -0.0358
    7SOL    HW3   74   1.512   2.356   0.810 -0.6820 -1.2227 -0.8879
    7SOL    MW4   75   1.588   2.312   0.813  0.0527  0.0722 -0.0080
    8SOL     OW   76   1.309   4.363   0.382 -0.0536  0.3284  0.4304
    8SOL    HW2   77   1.300   4.273   0.413  1.8966 -0.1025 -0.1459
    8SOL    HW3   78   1.314   4.354   0.286 -1.0900  1.1662  0.2974
    8SOL    MW4   79   1.309   4.350   0.373  0.0671  0.3810  0.3369
    9SOL     OW   80   4.331   2.085   0.226  0.3493  0.0373 -0.5173
    9SOL    HW2   81   4.259   2.140   0.256 -0.5593 -0.4641 -1.7720
    9SOL    HW3   82   4.409   2.125   0.266 -0.6746  0.1568  1.4291
    9SOL    MW4   83   4.332   2.098   0.235  0.0944 -0.0131 -0.4260
   10SOL     OW   84   1.571   4.619   0.897  0.1326 -0.0982  0.2578
   10SOL    HW2   85   1.565   4.647   0.988 -1.4205 -0.1053  0.1678
   10SOL    HW3   86   1.521   4.685   0.848  0.0908 -0.6536 -0.4568
   10SOL    MW4   87   1.563   4.631   0.903 -0.0778 -0.1724  0.1517
   11SOL     OW   88   4.208   0.482   0.837  0.4470  0.0031  0.5991
   11SOL    HW2   89   4.220   0.577   0.835 -1.1361  0.1933 -0.3141
   11SOL    HW3   90   4.296   0.447   0.855  1.5183  1.5175 -1.4913
   11SOL    MW4   91   4.221   0.490   0.839  0.3796  0.2280  0.2028
   12SOL     OW   92   0.095   2.463   0.495 -0.6017  0.2416 -0.1895
   12SOL    HW2   93   0.041   2.520   0.441  0.3700  0.5200 -0.8911
   12SOL    HW3   94   0.066   2.375   0.473 -0.7437  0.3875 -0.5913
   12SOL    MW4   95   0.084   2.459   0.485 -0.4923  0.2973 -0.3351
   13SOL     OW   96   3.382   3.048   0.840 -0.0196  0.4131 -0.5908
   13SOL    HW2   97   3.380   2.955   0.820  1.2472  0.1529  0.3843
   13SOL    HW3   98   3.391   3.051   0.936 -3.1106  1.5610 -0.3022
   13SOL    MW4   99   3.383   3.036   0.850 -0.2606  0.5302 -0.4240
   14SOL     OW  100   0.227   2.035   0.791  0.2275  0.0816  0.1591
   14SOL    HW2  101   0.152   1.991   0.832  1.3635 -1.0073  1.1011
   14SOL    HW3  102   0.235   2.118   0.838 -1.1113  0.7513 -0.7459
   14SOL    MW4  103   0.218   2.040   0.802  0.2007  0.0262  0.1640
   15SOL     OW  104   0.114   3.351   0.336  0.1837 -0.4433  0.4812
   15SOL    HW2  105   0.140   3.260   0.345  1.5866 -0.0321  0.7169
   15SOL    HW3  106   0.166   3.398   0.401 -1.2256  0.4130  1.0313
   15SOL    MW4  107   0.124   3.345   0.346  0.1828 -0.2763  0.5849
   16SOL     OW  108   1.528   0.752   0.165  0.2497 -0.3683 -0.0800
   16SOL    HW2  109   1.551   0.790   0.080 -0.2300  0.1684  0.0226
   16SOL    HW3  110   1.546   0.822   0.228  0.4429 -0.7064  0.2435
   16SOL    MW4  111   1.533   0.766   0.162  0.2120 -0.3421 -0.0238
   17SOL     OW  112   3.173   2.426   0.725  0.2409 -0.4049  0.1931
   17SOL    HW2  113   3.247   2.372   0.754 -0.3245  0.3651  3.2337
   17SOL    HW3  114   3.096   2.382   0.759 -0.5858 -0.1495 -1.2948
   17SOL    MW4  115   3.172   2.413   0.733  0.0570 -0.2697  0.3979
   18SOL     OW  116   0.019   1.879   0.932  0.3621 -0.1214 -0.8479
   18SOL    HW2  117  -0.060   1.921   0.898  0.3443 -1.0360 -1.9314
   18SOL    HW3  118   0.016   1.789   0.899  1.2182 -0.5323  0.1407
   18SOL    MW4  119   0.009   1.873   0.923  0.4730 -0.2961 -0.8604
   19SOL     OW  120   3.573   1.613   0.520 -0.2820 -0.1214  0.1717
   19SOL    HW2  121   3.588   1.521   0.497  1.4280 -0.1560  1.3063
   19SOL    HW3  122   3.635   1.661   0.465  0.2210  0.1837  0.9927
   19SOL    MW4  123   3.584   1.607   0.510  0.0100 -0.0857  0.4297
   20SOL     OW  124   2.068   2.868   0.709 -0.1118 -0.1598 -0.1501
   20SOL    HW2  125   2.154   2.838   0.739 -0.5588 -2.2476 -0.9096
   20SOL    HW3  126   2.077   2.876   0.614 -0.2906  1.1887 -0.0589
   20SOL    MW4  127   2.080   2.865   0.701 -0.1943 -0.2575 -0.2383
   21SOL     OW  128   0.714   0.501   0.433 -0.2157  0.1212 -0.1099
   21SOL    HW2  129   0.672   0.558   0.368 -1.6852 -1.3178 -0.4368
   21SOL    HW3  130   0.666   0.419   0.428  1.9381 -1.2036  0.3112
   21SOL    MW4  131   0.702   0.498   0.424 -0.1254 -0.2435 -0.0975
   22SOL     OW  132   1.805   3.235   0.773  0.0646  0.3147  0.1220
   22SOL    HW2  133   1.869   3.176   0.811  0.5876 -0.8027 -2.3883
   22SOL    HW3  134   1.720   3.199   0.799  0.4031 -0.6079 -0.0735
   22SOL    MW4  135   1.802   3.223   0.781  0.1783  0.0460 -0.2350
   23SOL     OW  136   3.816   3.048   0.872  0.3578  0.2260 -0.0205
   23SOL    HW2  137   3.740   3.096   0.839 -0.0114 -0.1496  0.2719
   23SOL    HW3  138   3.891   3.099   0.842  0.0087  0.3355 -0.7375
   23SOL    MW4  139   3.816   3.061   0.864  0.2630  0.1910 -0.0765
   24SOL     OW  140   1.471   0.356   0.408  0.3304  0.2195 -0.0289
   24SOL    HW2  141   1.537   0.339   0.341 -1.0092 -0.8759 -1.1094
   24SOL    HW3  142   1.498   0.438   0.449  1.9580  0.1465 -0.9447
   24SOL    MW4  143   1.483   0.364   0.404  0.3684  0.0653 -0.2923
   25SOL     OW  144   3.593   1.662   0.799 -0.1584 -0.2154  0.1489
   25SOL    HW2  145   3.530   1.600   0.836  0.6452 -0.5993  0.8873
   25SOL    HW3  146   3.582   1.653   0.704  0.2407 -1.7882  0.2323
   25SOL    MW4  147   3.583   1.653   0.791  0.0005 -0.4736  0.2574
   26SOL     OW  148   0.559   3.477   0.421 -0.2272  0.2770  0.0785
   26SOL    HW2  149   0.495   3.535   0.380 -1.0312  0.2625  1.2910
   26SOL    HW3  150   0.506   3.407   0.460  0.4013  1.0609  2.3820
   26SOL    MW4  151   0.543   3.475   0.420 -0.2503  0.3784  0.5424
   27SOL     OW  152   3.702   2.795   0.549 -0.1315 -0.5205  0.0830
   27SOL    HW2  153   3.754   2.823   0.625  1.1485 -1.3440 -0.4771
   27SOL    HW3  154   3.728   2.856   0.479 -0.9328 -0.0847  0.1595
   27SOL    MW4  155   3.713   2.807   0.550 -0.0682 -0.5717  0.0192
   28SOL     OW  156   3.196   3.204   0.474 -0.3882  0.5395 -0.0627
   28SOL    HW2  157   3.212   3.298   0.467 -1.4351  0.7202  0.0136
   28SOL    HW3  158   3.179   3.190   0.568  0.1247  0.2131 -0.0147
   28SOL    MW4  159   3.196   3.215   0.486 -0.4587  0.5202 -0.0463
   29SOL     OW  160   2.993   3.600   0.806 -0.1920  0.3351  0.0927
   29SOL    HW2  161   2.975   3.691   0.831  0.3960  0.0633  1.5364
   29SOL    HW3  162   2.977   3.598   0.712  0.8906  2.2258 -0.1633
   29SOL    MW4  163   2.988   3.612   0.797  0.0284  0.5488  0.2494
   30SOL     OW  164   0.909   4.016   0.707 -0.0707 -0.0725  0.2053
   30SOL    HW2  165   0.939   4.017   0.617 -0.5233  0.7886  0.0629
   30SOL    HW3  166   0.977   3.967   0.754 -0.0159 -0.8430 -0.6550
   30SOL    MW4  167   0.922   4.009   0.702 -0.1232 -0.0606  0.0730
   31SOL     OW  168   2.725   4.655   0.487  0.4023 -0.0982  0.2036
   31SOL    HW2  169   2.723   4.674   0.580  0.4774 -0.5883  0.3082
   31SOL    HW3  170   2.763   4.733   0.447 -0.7074  0.5821  0.4529
   31SOL    MW4  171   2.730   4.668   0.494  0.2656 -0.0734  0.2503
   32SOL     OW  172   4.032   0.986   0.517 -0.5093 -0.0038 -0.1155
   32SOL    HW2  173   4.031   0.965   0.611 -0.4439  0.6070  0.0216
   32SOL    HW3  174   4.123   0.974   0.490 -0.6912 -1.0357 -0.2984
   32SOL    MW4  175   4.044   0.982   0.526 -0.5250 -0.0593 -0.1217
   33SOL     OW  176   4.489   1.434   0.321  0.0839 -0.0526  0.2279
   33SOL    HW2  177   4.505   1.366   0.386  0.1950  0.7307  1.0245
   33SOL    HW3  178   4.565   1.492   0.326 -1.0489  1.4131  1.1954
   33SOL    MW4  179   4.501   1.433   0.330 -0.0510  0.2441  0.4607
   34SOL     OW  180   0.137   0.668   0.902  0.1315  0.6413  0.2822
   34SOL    HW2  181   0.218   0.648   0.855  0.7815 -0.2281  1.7382
   34SOL    HW3  182   0.165   0.690   0.991 -1.2435 -0.0472  0.9053
   34SOL    MW4  183   0.151   0.668   0.908  0.0359  0.4357  0.5565
   35SOL     OW  184   2.437   2.046   0.470 -0.0164  0.1457  0.0303
   35SOL    HW2  185   2.503   2.109   0.441  0.6058 -0.8243 -0.6569
   35SOL    HW3  186   2.449   2.040   0.565  0.4909  0.4089 -0.0176
   35SOL    MW4  187   2.447   2.054   0.479  0.1328  0.0522 -0.0667
   36SOL     OW  188   3.547   0.893   0.513  0.1651 -0.1222  0.3379
   36SOL    HW2  189   3.477   0.845   0.470  0.8287 -2.1231  1.4546
   36SOL    HW3  190   3.627   0.848   0.486  0.7636  0.0907  1.7105
   36SOL    MW4  191   3.548   0.881   0.504  0.3316 -0.3582  0.6663
   37SOL     OW  192   2.701   0.056   0.763  0.5794  0.1648 -0.0683
   37SOL    HW2  193   2.780   0.021   0.805  0.4242  0.1042  0.1730
   37SOL    HW3  194   2.694   0.145   0.797 -0.5900 -0.4917  1.4955
   37SOL    MW4  195   2.710   0.063   0.773  0.4048  0.0701  0.1698
   38SOL     OW  196   2.359   4.364   0.289  0.0043 -0.1416 -0.1537
   38SOL    HW2  197   2.410   4.418   0.350 -0.9986  1.1983 -0.4822
   38SOL    HW3  198   2.382   4.397   0.202 -1.1346  0.2227 -0.3232
   38SOL    MW4  199   2.369   4.376   0.286 -0.2782  0.0839 -0.2194
   39SOL     OW  200   0.464   1.906   0.474 -0.7956 -0.1752  0.5986
   39SOL    HW2  201   0.537   1.938   0.421 -1.1473 -0.3856 -0.0250
   39SOL    HW3  202   0.479   1.811   0.478 -1.6993 -0.3753 -0.5664
   39SOL    MW4  203   0.476   1.897   0.467 -0.9612 -0.2295  0.3626
   40SOL     OW  204   4.303   2.477   0.143  0.0967  0.0594 -0.3245
   40SOL    HW2  205   4.330   2.550   0.198 -0.0793 -0.3965  0.3752
   40SOL    HW3  206   4.370   2.472   0.075  0.5623  0.3435  0.1080
   40SOL    MW4  207   4.315   2.486   0.142  0.1340  0.0370 -0.1751
   41SOL     OW  208   0.964   3.300   0.528 -0.7304  0.1339  0.8886
   41SOL    HW2  209   0.932   3.280   0.616 -0.3233 -0.8687  0.8128
   41SOL    HW3  210   0.885   3.304   0.474 -1.0202  1.1754  1.3651
   41SOL    MW4  211   0.949   3.298   0.532 -0.7148  0.1390  0.9415
   42SOL     OW  212   3.023   1.940   0.205 -0.6440 -0.1712 -0.2025
   42SOL    HW2  213   3.071   1.887   0.141  0.1181 -0.4920  0.6248
   42SOL    HW3  214   2.964   1.878   0.247 -0.2031 -0.2412  0.3226
   42SOL    MW4  215   3.022   1.925   0.202 -0.4854 -0.2228 -0.0241
   43SOL     OW  216   4.261   3.102   0.844  0.1244 -0.1453 -0.2419
   43SOL    HW2  217   4.327   3.151   0.795  0.6517  0.1018  0.7098
   43SOL    HW3  218   4.265   3.014   0.808 -1.2596  0.6165 -2.4025
   43SOL    MW4  219   4.270   3.097   0.833  0.0110 -0.0122 -0.4014
   44SOL     OW  220   0.440   2.681   0.876  0.0411  0.4307  0.0649
   44SOL    HW2  221   0.457   2.598   0.832  1.6190  0.9750 -0.3794
   44SOL    HW3  222   0.360   2.713   0.835  0.3693 -0.0501 -0.9865
   44SOL    MW4  223   0.432   2.674   0.865  0.2926  0.4392 -0.1324
   45SOL     OW  224   0.011   3.589   0.187  0.1167  0.1286 -0.1818
   45SOL    HW2  225  -0.082   3.569   0.180 -0.4569  1.6962  2.1769
   45SOL    HW3  226   0.051   3.509   0.220 -0.3328 -0.6880 -1.6189
   45SOL    MW4  227   0.004   3.576   0.191 -0.0182  0.2277 -0.0602
   46SOL     OW  228   2.719   4.008   0.736  0.2834  0.2073  0.4653
   46SOL    HW2  229   2.645   3.958   0.771  1.2053 -0.6885  1.1648
   46SOL    HW3  230   2.716   4.091   0.783 -1.5043  0.9953 -1.0021
   46SOL    MW4  231   2.709   4.012   0.747  0.1695  0.1926  0.3639
   47SOL     OW  232   2.442   0.692   0.856 -0.1509 -0.5717  0.2193
   47SOL    HW2  233   2.461   0.607   0.815 -1.3032 -0.1961 -1.1037
   47SOL    HW3  234   2.521   0.744   0.840  0.7905 -1.5526  1.5226
   47SOL    MW4  235   2.455   0.688   0.849 -0.1788 -0.6517  0.2167
   48SOL     OW  236   1.561   4.375   0.790 -0.2719 -0.3907 -0.8239
   48SOL    HW2  237   1.548   4.459   0.833 -0.3271 -1.0384  0.4391
   48SOL    HW3  238   1.560   4.396   0.696 -2.4819  0.7151 -0.5865
   48SOL    MW4  239   1.559   4.389   0.783 -0.5708 -0.3300 -0.6259
   49SOL     OW  240   1.144   0.807   0.895  0.2128  0.0765  0.0793
   49SOL    HW2  241   1.140   0.717   0.863  3.0288  0.0920 -0.4555
   49SOL    HW3  242   1.131   0.799   0.990  1.4754 -1.0134  0.1663
   49SOL    MW4  243   1.142   0.794   0.904  0.7509 -0.0651  0.0202
   50SOL     OW  244   1.565   0.946   0.352 -0.4448  0.0005  0.4394
   50SOL    HW2  245   1.549   1.040   0.342 -2.1414 -0.5412 -2.2542
   50SOL    HW3  246   1.490   0.913   0.402 -0.7255 -0.2074 -0.1167
   50SOL    MW4  247   1.553   0.954   0.357 -0.7057 -0.0984  0.0106
   51SOL     OW  248   0.715   4.443   0.767  0.2066  0.4534 -0.0042
   51SOL    HW2  249   0.699   4.536   0.778 -1.1814  0.1350  0.8107
   51SOL    HW3  250   0.685   4.424   0.678  0.5082  0.7926 -0.1756
   51SOL    MW4  251   0.709   4.453   0.757  0.0633  0.4563  0.0808
   52SOL     OW  252   3.870   1.227   0.506  0.4329  0.6010  0.1612
   52SOL    HW2  253   3.916   1.303   0.469  0.5198  0.9451  0.9615
   52SOL    HW3  254   3.930   1.154   0.490  0.2377  0.6526 -0.8380
   52SOL    MW4  255   3.884   1.228   0.499  0.4187  0.6533  0.1349
   53SOL     OW  256   3.608   3.173   0.479  0.5189  0.1932 -0.0662
   53SOL    HW2  257   3.626   3.238   0.411  1.8308 -0.9643 -0.8698
   53SOL    HW3  258   3.525   3.134   0.454  0.3409  0.7002 -0.2711
   53SOL    MW4  259   3.600   3.177   0.467  0.6683  0.1075 -0.1993
   54SOL     OW  260   1.308   3.208   0.730  0.2175  0.1566  0.1097
   54SOL    HW2  261   1.387   3.164   0.761 -0.5095  0.0835  1.9366
   54SOL    HW3  262   1.277   3.153   0.658  2.6488  1.0217 -1.6590
   54SOL    MW4  263   1.315   3.195   0.725  0.4424  0.2608  0.1174
   55SOL     OW  264   1.340   2.468   0.779  0.0052 -0.5232  0.0841
   55SOL    HW2  265   1.331   2.486   0.686 -0.7251  0.1576  0.2817
   55SOL    HW3  266   1.262   2.418   0.802 -0.7279  0.8509  0.6932
   55SOL    MW4  267   1.329   2.464   0.770 -0.1880 -0.2522  0.1905
   56SOL     OW  268   2.021   1.080   0.455  0.1356 -0.4921  0.5349
   56SOL    HW2  269   2.104   1.046   0.421 -0.7208 -1.9281 -0.1776
   56SOL    HW3  270   1.960   1.007   0.446 -1.5219  0.9374 -0.1165
   56SOL    MW4  271   2.024   1.066   0.449 -0.1962 -0.4930  0.3549
   57SOL     OW  272   3.628   2.400   0.762 -0.2459 -0.1409  0.0896
   57SOL    HW2  273   3.559   2.357   0.813 -0.6478 -0.6475 -0.8715
   57SOL    HW3  274   3.635   2.488   0.801 -0.0404 -0.7541  1.4834
   57SOL    MW4  275   3.620   2.406   0.774 -0.2720 -0.2882  0.1467
   58SOL     OW  276   1.516   0.615   0.518  0.3225 -0.2700 -0.0359
   58SOL    HW2  277   1.462   0.694   0.527  0.6434  0.0679 -0.9274
   58SOL    HW3  278   1.524   0.581   0.607 -3.5340 -1.8276 -0.1718
   58SOL    MW4  279   1.510   0.621   0.531 -0.1440 -0.4309 -0.1714
   59SOL     OW  280   4.019   1.597   0.723  0.0942 -0.1220  0.2185
   59SOL    HW2  281   3.952   1.566   0.784 -0.4639  0.6961  0.0312
   59SOL    HW3  282   4.100   1.560   0.757 -0.2135  0.2995  1.4550
   59SOL    MW4  283   4.021   1.588   0.735 -0.0200  0.0416  0.3570
   60SOL     OW  284   4.334   1.238   0.762  0.0040  0.0723 -0.0436
   60SOL    HW2  285   4.252   1.208   0.801 -0.4046 -2.0498 -2.4140
   60SOL    HW3  286   4.403   1.196   0.814 -0.4873 -0.8241 -0.1144
   60SOL    MW4  287   4.333   1.229   0.774 -0.1144 -0.3259 -0.3657
   61SOL     OW  288   2.887   0.205   0.355 -0.1029  0.0272  0.1507
   61SOL    HW2  289   2.849   0.225   0.270 -1.4202 -0.0013  0.7208
   61SOL    HW3  290   2.904   0.291   0.394 -0.7910  0.0462  0.4178
   61SOL    MW4  291   2.884   0.219   0.349 -0.3676  0.0260  0.2612
   62SOL     OW  292   1.037   3.076   0.364 -0.0983  0.1967 -0.1544
   62SOL    HW2  293   1.004   3.146   0.420 -1.1825 -0.7200  0.3819
   62SOL    HW3  294   1.090   3.120   0.298 -0.3182  1.4620  0.5053
   62SOL    MW4  295   1.040   3.091   0.363 -0.2702  0.2427  0.0034
   63SOL     OW  296   4.243   2.854   0.718 -0.1786  0.1469 -0.2422
   63SOL    HW2  297   4.241   2.859   0.622 -3.8649 -3.0250 -0.4812
   63SOL    HW3  298   4.328   2.814   0.738 -0.1534 -0.9269 -2.3564
   63SOL    MW4  299   4.254   2.849   0.708 -0.6614 -0.4137 -0.5527
   64SOL     OW  300   0.405   2.912   0.220  0.2031  0.3600 -0.2591
   64SOL    HW2  301   0.393   2.862   0.140 -1.1278  0.9942 -0.4734
   64SOL    HW3  302   0.413   2.847   0.290  0.4217 -0.1682 -0.7805
   64SOL    MW4  303   0.405   2.897   0.219  0.0563  0.3741 -0.3562
   65SOL     OW  304   0.217   1.308   0.553  0.1419  0.4309  0.5098
   65SOL    HW2  305   0.132   1.265   0.555 -0.1279  0.9326  0.0064
   65SOL    HW3  306   0.275   1.245   0.509 -0.2446  0.5750 -0.2032
   65SOL    MW4  307   0.214   1.294   0.547  0.0553  0.5163  0.3493
   66SOL     OW  308   2.517   3.606   0.720 -0.2158  0.3795 -0.8882
   66SOL    HW2  309   2.600   3.570   0.750 -0.5902 -0.9051 -1.3561
   66SOL    HW3  310   2.451   3.559   0.770 -0.7095  0.5238 -1.4028
   66SOL    MW4  311   2.519   3.595   0.730 -0.3304  0.2289 -1.0179
   67SOL     OW  312   4.037   3.671   0.384  0.2626  0.1876 -0.0197
   67SOL    HW2  313   3.991   3.589   0.365  0.4871 -0.4344  1.9506
   67SOL    HW3  314   4.122   3.644   0.419  0.4105  1.2493  0.4857
   67SOL    MW4  315   4.042   3.657   0.386  0.3123  0.2458  0.3069
   68SOL     OW  316   1.253   1.640   0.458 -0.0077  0.0598 -0.2761
   68SOL    HW2  317   1.158   1.633   0.472  0.2466 -0.6408  1.1006
   68SOL    HW3  318   1.261   1.699   0.383 -1.5676 -0.6958 -1.0618
   68SOL    MW4  319   1.241   1.647   0.450 -0.1800 -0.1324 -0.1981
   69SOL     OW  320   0.861   2.282   0.459  0.2907  0.4139  0.0724
   69SOL    HW2  321   0.826   2.306   0.545  1.1075 -0.6611  0.7132
   69SOL    HW3  322   0.793   2.226   0.420 -0.3161  1.3382 -0.2130
   69SOL    MW4  323   0.847   2.278   0.465  0.3183  0.3939  0.1193
   70SOL     OW  324   1.013   3.977   0.459 -0.0506  0.7598  0.6626
   70SOL    HW2  325   1.106   3.998   0.458  0.0456  0.2937 -1.1188
   70SOL    HW3  326   1.009   3.883   0.440 -0.9087  0.9307 -0.0300
   70SOL    MW4  327   1.025   3.968   0.456 -0.1510  0.7207  0.3362
   71SOL     OW  328   2.920   0.731   0.906  0.3535 -0.2143  0.3206
   71SOL    HW2  329   2.835   0.755   0.869  1.4052  0.6224 -1.6161
   71SOL    HW3  330   2.907   0.736   1.001 -1.4234  1.0962  0.0359
   71SOL    MW4  331   2.907   0.735   0.914  0.2577  0.0690  0.0275
   72SOL     OW  332   2.868   1.778   0.361 -0.3865 -0.0151 -0.1616
   72SOL    HW2  333   2.796   1.720   0.388  0.1579  0.1970  1.7826
   72SOL    HW3  334   2.862   1.853   0.419  0.6131  0.6300 -0.8735
   72SOL    MW4  335   2.857   1.780   0.372 -0.1829  0.0980  0.0010
   73SOL     OW  336   2.940   1.541   0.833 -0.4402 -0.2398 -0.1540
   73SOL    HW2  337   3.017   1.558   0.778 -0.8375  1.4740 -0.1786
   73SOL    HW3  338   2.920   1.448   0.817  1.3008 -0.5757 -0.5368
   73SOL    MW4  339   2.948   1.531   0.824 -0.2630 -0.0579 -0.2077
   74SOL     OW  340   3.746   2.527   0.509  0.3058 -0.3739 -0.1202
   74SOL    HW2  341   3.700   2.484   0.581  0.8509  0.9586  1.0519
   74SOL    HW3  342   3.724   2.619   0.519  0.8477 -0.1120 -1.3270
   74SOL    MW4  343   3.737   2.533   0.520  0.4492 -0.1633 -0.1248
   75SOL     OW  344   1.081   3.102   0.897 -0.0531 -1.2496  0.0834
   75SOL    HW2  345   1.074   3.016   0.857 -0.8642 -1.2024  0.1095
   75SOL    HW3  346   1.153   3.145   0.851 -0.0033 -1.7457 -0.2956
   75SOL    MW4  347   1.089   3.097   0.886 -0.1535 -1.3087  0.0368
   76SOL     OW  348   1.003   0.540   0.529 -0.5372 -0.3696  0.2093
   76SOL    HW2  349   1.064   0.523   0.457 -0.4288 -1.4829  0.5601
   76SOL    HW3  350   0.918   0.514   0.496 -0.8810  1.3839 -0.3548
   76SOL    MW4  351   1.000   0.534   0.515 -0.5684 -0.2851  0.1811
   77SOL     OW  352   1.271   3.034   0.505 -0.1498 -0.0582 -0.3026
   77SOL    HW2  353   1.180   3.033   0.476 -0.4265  0.8568  0.5066
   77SOL    HW3  354   1.320   3.070   0.431 -0.5675  0.2530 -0.4287
   77SOL    MW4  355   1.265   3.039   0.491 -0.2414  0.1037 -0.2125
   78SOL     OW  356   3.884   0.502   0.517 -0.0510  0.3750  0.3162
   78SOL    HW2  357   3.872   0.420   0.469 -1.0812  0.9812 -0.4897
   78SOL    HW3  358   3.979   0.512   0.525  0.1019 -0.2917 -0.6146
   78SOL    MW4  359   3.895   0.492   0.512 -0.1667  0.3670  0.0871
   79SOL     OW  360   3.905   1.997   0.845  0.2064 -0.9206 -0.1537
   79SOL    HW2  361   3.930   1.997   0.752 -0.1199 -2.9020 -0.2627
   79SOL    HW3  362   3.904   2.090   0.870 -0.6010 -0.3216 -2.3583
   79SOL    MW4  363   3.908   2.010   0.836  0.0567 -1.1032 -0.4590
   80SOL     OW  364   1.694   4.176   0.469 -0.1936  0.3459  0.1173
   80SOL    HW2  365   1.631   4.243   0.493 -1.2233 -0.9372  1.0812
   80SOL    HW3  366   1.640   4.103   0.439  0.8237 -0.7961  1.0232
   80SOL    MW4  367   1.678   4.175   0.468 -0.1953  0.0257  0.3640
   81SOL     OW  368   1.801   0.913   0.736  0.2003 -0.0978  0.2735
   81SOL    HW2  369   1.795   0.906   0.641 -1.0122  0.0608  0.3270
   81SOL    HW3  370   1.786   1.006   0.754 -0.9295 -0.3638  0.7088
   81SOL    MW4  371   1.798   0.925   0.726 -0.1088 -0.1120  0.3381
   82SOL     OW  372   3.086   4.326   0.495 -0.2397 -0.1612  0.3883
   82SOL    HW2  373   3.117   4.237   0.480 -0.0430 -0.2497  1.2911
   82SOL    HW3  374   3.151   4.381   0.451 -0.0522 -0.4363  0.3157
   82SOL    MW4  375   3.099   4.321   0.487 -0.1891 -0.2089  0.4978
   83SOL     OW  376   1.807   1.186   0.837  0.3997 -0.1238 -0.0653
   83SOL    HW2  377   1.886   1.220   0.796  0.9092 -0.6613  0.4517
   83SOL    HW3  378   1.735   1.230   0.792  1.0061  0.7107 -0.2250
   83SOL    MW4  379   1.808   1.196   0.826  0.5469 -0.0846 -0.0182
   84SOL     OW  380   2.500   2.858   0.441 -0.0532  0.4055 -0.3735
   84SOL    HW2  381   2.575   2.806   0.413 -0.3027 -0.9210  1.4091
   84SOL    HW3  382   2.424   2.808   0.412 -0.2840  0.3108  0.4047
   84SOL    MW4  383   2.500   2.845   0.433 -0.1166  0.2182 -0.0356
   85SOL     OW  384   1.066   0.237   0.244  0.1172  0.2392  0.2142
   85SOL    HW2  385   1.002   0.187   0.193  1.0645 -0.0499 -0.7016
   85SOL    HW3  386   1.079   0.184   0.323  0.5944 -0.6209 -0.4309
   85SOL    MW4  387   1.059   0.223   0.248  0.3052  0.0876  0.0083
   86SOL     OW  388   2.726   2.680   0.415 -0.4156 -0.2590  0.1206
   86SOL    HW2  389   2.804   2.733   0.430 -2.0692  2.5543 -0.8697
   86SOL    HW3  390   2.758   2.590   0.417  2.5713  0.7591  1.3010
   86SOL    MW4  391   2.740   2.675   0.417 -0.2396  0.2465  0.1457
   87SOL     OW  392   0.699   3.666   0.832 -0.1744 -0.0617 -0.0098
   87SOL    HW2  393   0.720   3.677   0.739  0.1244  0.1743  0.0853
   87SOL    HW3  394   0.764   3.602   0.863  0.0039  0.1945  0.1405
   87SOL    MW4  395   0.711   3.659   0.824 -0.1115  0.0031  0.0226
   88SOL     OW  396   2.051   2.037   0.790 -0.0195  0.2077  0.1606
   88SOL    HW2  397   2.035   2.037   0.695  0.8353  0.1207  0.0126
   88SOL    HW3  398   2.056   2.129   0.813  0.1633  0.2245  0.0537
   88SOL    MW4  399   2.049   2.049   0.780  0.1175  0.1984  0.1269
   89SOL     OW  400   2.925   3.105   0.412 -0.0692 -0.3061 -0.1656
   89SOL    HW2  401   3.012   3.143   0.417  0.1503 -0.8587  0.3122
   89SOL    HW3  402   2.939   3.010   0.414 -0.6803 -0.4007 -0.0188
   89SOL    MW4  403   2.938   3.097   0.413 -0.1209 -0.3912 -0.0832
   90SOL     OW  404   0.398   3.693   0.384  0.0137  0.2060  0.2295
   90SOL    HW2  405   0.359   3.716   0.300 -0.3421 -1.0013  0.0455
   90SOL    HW3  406   0.454   3.767   0.407  0.0588  0.5633 -1.0365
   90SOL    MW4  407   0.400   3.706   0.376 -0.0273  0.0939  0.0381
   91SOL     OW  408   1.557   0.519   0.769 -0.0429 -0.0082  0.0904
   91SOL    HW2  409   1.475   0.502   0.814  0.6736 -1.6646  0.8111
   91SOL    HW3  410   1.592   0.597   0.814 -0.8670  0.2840  0.2408
   91SOL    MW4  411   1.551   0.527   0.781 -0.0571 -0.1882  0.2054
   92SOL     OW  412   1.832   2.735   0.845  0.2674  0.0741  0.2198
   92SOL    HW2  413   1.831   2.642   0.824 -0.0109 -0.3699  2.1332
   92SOL    HW3  414   1.908   2.769   0.799  2.0043 -1.6466  1.7288
   92SOL    MW4  415   1.842   2.727   0.836  0.4599 -0.2115  0.6713
   93SOL     OW  416   0.606   3.034   0.383  0.5127  0.2659 -0.1116
   93SOL    HW2  417   0.549   2.997   0.315 -0.4929  0.2029  0.7655
   93SOL    HW3  418   0.643   2.958   0.427 -1.1026  0.2841  1.3110
   93SOL    MW4  419   0.604   3.019   0.380  0.1670  0.2599  0.1918
   94SOL     OW  420   0.630   3.156   0.906  0.5956  0.3621 -0.3912
   94SOL    HW2  421   0.558   3.195   0.857 -1.4412  0.0336  2.2163
   94SOL    HW3  422   0.639   3.068   0.870 -2.1100 -0.5290  0.9981
   94SOL    MW4  423   0.622   3.150   0.895 -0.0301  0.2010  0.1361
   95SOL     OW  424   1.114   2.324   0.903 -0.3391  0.2741 -0.2278
   95SOL    HW2  425   1.098   2.234   0.875 -0.1707  0.3829 -0.6731
   95SOL    HW3  426   1.150   2.316   0.991  0.5385 -0.1362 -0.6254
   95SOL    MW4  427   1.116   2.311   0.911 -0.2010  0.2344 -0.3390
   96SOL     OW  428   1.188   3.242   0.186 -0.0431  0.1039  0.2232
   96SOL    HW2  429   1.172   3.211   0.097  1.5974  1.1528 -0.4637
   96SOL    HW3  430   1.129   3.317   0.196  1.1092  1.1554 -0.6761
   96SOL    MW4  431   1.178   3.248   0.176  0.3254  0.3810  0.0139
   97SOL     OW  432   2.710   1.655   0.736 -0.0879  0.2956  0.1164
   97SOL    HW2  433   2.695   1.742   0.773 -0.4021 -0.0404  0.7848
   97SOL    HW3  434   2.781   1.618   0.788  0.0901  0.1810 -0.2096
   97SOL    MW4  435   2.717   1.662   0.748 -0.1059  0.2363  0.1616
   98SOL     OW  436   1.236   0.727   0.278 -0.7180  0.2267 -0.0910
   98SOL    HW2  437   1.218   0.636   0.304 -0.8349  0.6261  1.2545
   98SOL    HW3  438   1.297   0.719   0.204 -0.9738 -0.9490 -0.1868
   98SOL    MW4  439   1.242   0.714   0.271 -0.7671  0.1243  0.0739
   99SOL     OW  440   1.438   2.797   0.505 -0.0075  0.0413 -0.3792
   99SOL    HW2  441   1.367   2.861   0.498 -0.5356 -0.6023 -0.9368
   99SOL    HW3  442   1.486   2.824   0.583 -1.2752  0.0690  0.4059
   99SOL    MW4  443   1.435   2.809   0.514 -0.2445 -0.0401 -0.3493
  100SOL     OW  444   0.665   2.882   0.789 -0.1779 -0.3794 -0.1421
  100SOL    HW2  445   0.738   2.825   0.814  1.8247  1.8168 -0.7843
  100SOL    HW3  446   0.587   2.833   0.814  1.5281 -2.2677  1.7187
  100SOL    MW4  447   0.664   2.868   0.796  0.3114 -0.3386  0.0187
  101SOL     OW  448   0.206   3.533   0.523  0.3697 -0.2770 -0.0587
  101SOL    HW2  449   0.208   3.558   0.616 -0.4780 -0.0766 -0.0965
  101SOL    HW3  450   0.279   3.582   0.484  0.4443 -0.0097  0.4099
  101SOL    MW4  451   0.216   3.543   0.530  0.2677 -0.2153 -0.0020
  102SOL     OW  452   2.303   1.008   0.445  0.2769  0.2897 -0.1232
  102SOL    HW2  453   2.365   0.962   0.388 -0.3724  0.7673 -1.2298
  102SOL    HW3  454   2.281   0.945   0.513  1.6206 -0.0447  0.0150
  102SOL    MW4  455   2.309   0.994   0.446  0.3684  0.3087 -0.2510
  103SOL     OW  456   0.733   3.685   0.547 -0.2530 -0.2369 -0.4729
  103SOL    HW2  457   0.693   3.607   0.508 -0.2366  0.6482 -2.3324
  103SOL    HW3  458   0.683   3.758   0.510  0.5890  0.6933  0.2074
  103SOL    MW4  459   0.721   3.685   0.537 -0.1397  0.0024 -0.6284
  104SOL     OW  460   3.567   3.573   0.458  0.5849 -0.1238  0.0875
  104SOL    HW2  461   3.637   3.636   0.473  0.6918 -0.2416  0.0797
  104SOL    HW3  462   3.527   3.560   0.544  0.4261  0.1160  0.0510
  104SOL    MW4  463   3.571   3.579   0.471  0.5779 -0.1078  0.0817
  105SOL     OW  464   2.970   2.832   0.488 -0.1063  0.1828 -0.0694
  105SOL    HW2  465   3.048   2.781   0.470 -0.8661 -0.7813 -0.6497
  105SOL    HW3  466   2.959   2.825   0.583  0.0031 -0.4201 -0.0994
  105SOL    MW4  467   2.979   2.825   0.498 -0.1924 -0.0238 -0.1499
  106SOL     OW  468   1.884   2.421   0.486 -0.0913 -0.1651 -0.5063
  106SOL    HW2  469   1.826   2.352   0.453  0.2027 -0.3857 -0.5687
  106SOL    HW3  470   1.853   2.501   0.444 -0.0911 -0.3492 -0.8589
  106SOL    MW4  471   1.873   2.422   0.477 -0.0526 -0.2184 -0.5611
  107SOL     OW  472   3.429   1.131   0.535 -0.1414  0.2284  0.1169
  107SOL    HW2  473   3.471   1.047   0.521 -0.9767 -0.2947  0.6911
  107SOL    HW3  474   3.345   1.124   0.490  0.2460  1.1540 -0.7775
  107SOL    MW4  475   3.423   1.119   0.527 -0.2005  0.2817  0.0747
  108SOL     OW  476   3.378   3.032   0.393  0.3782 -0.2147  0.1136
  108SOL    HW2  477   3.351   3.027   0.301 -0.9060  0.7034  0.4305
  108SOL    HW3  478   3.312   3.088   0.434  0.3368 -1.4970  1.8207
  108SOL    MW4  479   3.365   3.039   0.386  0.2031 -0.2627  0.3807
  109SOL     OW  480   1.989   0.193   0.398 -0.3632 -0.2802  0.1116
  109SOL    HW2  481   2.070   0.143   0.411 -0.8487 -0.8294  1.0635
  109SOL    HW3  482   2.006   0.278   0.438  0.3366  0.2036 -1.1852
  109SOL    MW4  483   2.002   0.198   0.405 -0.3347 -0.2888  0.0661
  110SOL     OW  484   4.285   2.081   0.566  0.0519  0.4179  0.1607
  110SOL    HW2  485   4.198   2.121   0.562  0.5062  1.2711 -1.8988
  110SOL    HW3  486   4.273   1.993   0.531  0.1894  0.8928 -1.1160
  110SOL    MW4  487   4.272   2.075   0.561  0.1302  0.5929 -0.2794
  111SOL     OW  488   2.532   3.119   0.415 -0.6913  0.3448 -0.4190
  111SOL    HW2  489   2.441   3.131   0.439 -0.9217  1.2428 -1.6626
  111SOL    HW3  490   2.539   3.026   0.392  0.0164 -1.0523  4.8390
  111SOL    MW4  491   2.521   3.108   0.415 -0.6280  0.2789  0.1107
  112SOL     OW  492   4.281   3.581   0.482  0.4721 -0.2159 -0.4941
  112SOL    HW2  493   4.310   3.490   0.484  1.1103  0.0140  0.9341
  112SOL    HW3  494   4.361   3.632   0.469  0.3967  0.2613  0.8279
  112SOL    MW4  495   4.295   3.576   0.480  0.5465 -0.1225 -0.1312
  113SOL     OW  496   0.877   1.897   0.473  0.8755 -0.3119  0.0012
  113SOL    HW2  497   0.908   1.807   0.488 -0.8674 -1.0366 -0.6236
  113SOL    HW3  498   0.829   1.919   0.553 -2.7337 -1.7265 -1.6505
  113SOL    MW4  499   0.875   1.888   0.486  0.1693 -0.5941 -0.2992
  114SOL     OW  500   1.316   3.992   0.785 -0.0508  0.2193 -0.0045
  114SOL    HW2  501   1.249   3.937   0.826 -0.8877  0.0648 -1.5423
  114SOL    HW3  502   1.399   3.961   0.823 -0.7907 -0.0136  1.4377
  114SOL    MW4  503   1.318   3.981   0.795 -0.2587  0.1683 -0.0172
  115SOL     OW  504   0.740   2.010   0.703 -0.3107 -0.1919 -0.3357
  115SOL    HW2  505   0.652   1.975   0.717 -0.0303 -0.2745  1.3026
  115SOL    HW3  506   0.795   1.962   0.765  1.2454 -1.4710 -2.5982
  115SOL    MW4  507   0.735   1.999   0.713 -0.0684 -0.3717 -0.4181
  116SOL     OW  508   3.598   4.003   0.488 -0.4365 -0.2118 -0.1732
  116SOL    HW2  509   3.636   3.919   0.463  2.2544  1.0557 -0.5800
  116SOL    HW3  510   3.604   4.005   0.584 -2.6959 -1.4334  0.0227
  116SOL    MW4  511   3.604   3.992   0.498 -0.3796 -0.2060 -0.2010
  117SOL     OW  512   1.066   2.862   0.744 -0.3925 -0.3676  0.2547
  117SOL    HW2  513   1.003   2.802   0.784  0.5647 -0.6935  1.3222
  117SOL    HW3  514   1.151   2.824   0.765  0.2380  1.4171  0.9964
  117SOL    MW4  515   1.069   2.849   0.752 -0.1831 -0.1752  0.4935
  118SOL     OW  516   1.363   3.468   0.841  0.1603  0.2250  0.0626
  118SOL    HW2  517   1.439   3.508   0.800 -0.3162 -0.5350 -1.6193
  118SOL    HW3  518   1.367   3.376   0.815 -0.7674 -0.0464  0.8308
  118SOL    MW4  519   1.373   3.461   0.832 -0.0250  0.0889 -0.0579
  119SOL     OW  520   2.999   1.327   0.467 -0.1436  0.2733 -0.5851
  119SOL    HW2  521   2.910   1.336   0.433 -0.3561  0.1807 -0.0435
  119SOL    HW3  522   3.038   1.414   0.457 -0.7014  0.6313  0.3529
  119SOL    MW4  523   2.993   1.340   0.461 -0.2449  0.3084 -0.3899
  120SOL     OW  524   0.963   3.692   0.397  0.2953  0.3382  0.3508
  120SOL    HW2  525   0.900   3.711   0.467 -0.2661 -0.7172  0.1422
  120SOL    HW3  526   1.036   3.649   0.442 -0.0856 -0.3821  0.2955
  120SOL    MW4  527   0.965   3.689   0.412  0.1709  0.1037  0.3160
  121SOL     OW  528   2.440   4.368   0.750  0.4294 -0.0133 -0.1590
  121SOL    HW2  529   2.521   4.317   0.760  0.7199  0.1355 -1.6593
  121SOL    HW3  530   2.455   4.447   0.801  0.9058 -0.3522  0.2365
  121SOL    MW4  531   2.453   4.372   0.758  0.5305 -0.0386 -0.3048
  122SOL     OW  532   2.519   0.467   0.692 -0.0904  0.1038 -0.4692
  122SOL    HW2  533   2.430   0.437   0.712  0.0684  0.2527  0.4770
  122SOL    HW3  534   2.576   0.404   0.736  0.2824 -0.3431 -1.5839
  122SOL    MW4  535   2.515   0.455   0.701 -0.0203  0.0645 -0.4914
  123SOL     OW  536   3.792   2.998   0.376  0.9774  0.0610  0.0160
  123SOL    HW2  537   3.766   3.008   0.284 -1.3879  0.1416  0.6606
  123SOL    HW3  538   3.746   3.069   0.422  3.0153  0.7063  1.1227
  123SOL    MW4  539   3.783   3.009   0.370  0.9344  0.1566  0.2471
  124SOL     OW  540   1.167   4.664   0.858  0.2841 -0.0966  0.2618
  124SOL    HW2  541   1.159   4.580   0.813 -1.0493  0.3739 -0.4134
  124SOL    HW3  542   1.107   4.722   0.811  2.7061  1.8133 -0.5906
  124SOL    MW4  543   1.158   4.661   0.846  0.4277  0.2174  0.0603
  125SOL     OW  544   2.030   3.650   0.302 -0.2437  0.0018  0.5193
  125SOL    HW2  545   1.960   3.669   0.364 -0.2230 -1.0726  0.8840
  125SOL    HW3  546   2.099   3.713   0.324 -0.2098 -0.4073  1.6415
  125SOL    MW4  547   2.030   3.661   0.313 -0.2365 -0.1938  0.7155
  126SOL     OW  548   2.485   1.515   0.820  0.2191 -0.0724  0.5432
  126SOL    HW2  549   2.487   1.421   0.798  0.6108 -0.0558  0.5016
  126SOL    HW3  550   2.557   1.552   0.769 -0.9258  0.5263 -0.6750
  126SOL    MW4  551   2.495   1.507   0.810  0.1194  0.0088  0.3769
  127SOL     OW  552   2.815   4.365   0.465  0.2336 -0.0708  0.5752
  127SOL    HW2  553   2.808   4.460   0.471  1.3398  0.0902 -0.5568
  127SOL    HW3  554   2.908   4.346   0.470 -0.0586 -1.2166  2.1956
  127SOL    MW4  555   2.826   4.375   0.466  0.3412 -0.2007  0.6396
  128SOL     OW  556   4.364   3.321   0.492  0.4764  0.0640  0.2211
  128SOL    HW2  557   4.431   3.319   0.424  0.9051  0.7439  0.6149
  128SOL    HW3  558   4.406   3.284   0.569 -0.2005 -1.2714 -0.0422
  128SOL    MW4  559   4.378   3.316   0.493  0.4439 -0.0226  0.2383
  129SOL     OW  560   0.943   1.602   0.778 -0.2722  0.2697 -0.0704
  129SOL    HW2  561   0.877   1.550   0.823 -1.5873  0.3141 -1.8860
  129SOL    HW3  562   0.939   1.688   0.820 -1.0429  0.1199  0.1694
  129SOL    MW4  563   0.934   1.606   0.789 -0.5475  0.2558 -0.2783
  130SOL     OW  564   0.484   4.031   0.747  0.2583  0.5532  0.3671
  130SOL    HW2  565   0.558   3.997   0.798  1.2792  0.5779 -1.0573
  130SOL    HW3  566   0.470   4.119   0.783  0.9493  0.5663  0.6266
  130SOL    MW4  567   0.492   4.038   0.759  0.4842  0.5584  0.2134
  131SOL     OW  568   3.220   0.494   0.475 -0.3600 -0.3000 -0.1587
  131SOL    HW2  569   3.273   0.571   0.454  0.3240 -0.7336 -0.0220
  131SOL    HW3  570   3.244   0.471   0.564 -1.7552  0.2929  0.3950
  131SOL    MW4  571   3.230   0.501   0.484 -0.4539 -0.2789 -0.0676
  132SOL     OW  572   1.063   4.474   0.474 -0.4058  0.2260  0.4791
  132SOL    HW2  573   1.151   4.476   0.438 -0.2024 -0.0724  0.9544
  132SOL    HW3  574   1.074   4.435   0.561 -1.0404 -0.0253  0.4433
  132SOL    MW4  575   1.076   4.469   0.481 -0.4627  0.1526  0.5371
  133SOL     OW  576   0.335   4.432   0.505  0.2626  0.2202 -0.1468
  133SOL    HW2  577   0.283   4.357   0.474  0.9302 -0.9845  1.6202
  133SOL    HW3  578   0.301   4.450   0.593 -0.9228  2.9849 -1.1084
  133SOL    MW4  579   0.324   4.424   0.512  0.1943  0.4258 -0.0405
  134SOL     OW  580   2.273   2.483   0.733  0.0976  0.0131 -0.0282
  134SOL    HW2  581   2.204   2.427   0.769  0.2680  0.5262  1.1112
  134SOL    HW3  582   2.259   2.480   0.638 -0.6547 -0.9677  0.1055
  134SOL    MW4  583   2.262   2.475   0.725  0.0207 -0.0486  0.1398
  135SOL     OW  584   1.128   3.519   0.527 -0.1202  0.1906  0.0824
  135SOL    HW2  585   1.211   3.492   0.489 -0.4990 -0.5127 -0.2404
  135SOL    HW3  586   1.075   3.440   0.530 -0.4368  0.4289  1.1916
  135SOL    MW4  587   1.132   3.505   0.523 -0.2120  0.1292  0.1861
  136SOL     OW  588   1.395   1.117   0.686 -0.1322  0.0329  0.4531
  136SOL    HW2  589   1.405   1.060   0.611 -1.9418 -1.5048  1.3349
  136SOL    HW3  590   1.459   1.187   0.673  0.9989 -1.3435 -1.4334
  136SOL    MW4  591   1.404   1.119   0.674 -0.2217 -0.3515  0.3206
  137SOL     OW  592   3.317   1.717   0.457 -0.0883  0.0379  0.4182
  137SOL    HW2  593   3.335   1.810   0.453  0.9130 -0.1630  0.1604
  137SOL    HW3  594   3.402   1.676   0.470 -0.5409 -0.8302  0.7263
  137SOL    MW4  595   3.330   1.724   0.458 -0.0157 -0.1030  0.4248
  138SOL     OW  596   2.000   4.661   0.906 -0.2541 -0.6489 -0.1619
  138SOL    HW2  597   1.994   4.568   0.883  0.9412 -1.2876  1.8714
  138SOL    HW3  598   2.085   4.689   0.872  0.4315 -0.9539  1.2459
  138SOL    MW4  599   2.011   4.652   0.899 -0.0060 -0.7734  0.2921
  139SOL     OW  600   2.041   1.252   0.721  0.0689 -0.5274  0.2764
  139SOL    HW2  601   2.017   1.229   0.631  1.0246 -0.0257 -0.1153
  139SOL    HW3  602   2.101   1.182   0.748 -0.3134 -0.7434  0.5700
  139SOL    MW4  603   2.046   1.240   0.713  0.1447 -0.4897  0.2635
  140SOL     OW  604   0.230   3.622   0.788  0.2795 -0.2329  0.1820
  140SOL    HW2  605   0.304   3.573   0.822  0.7990 -0.3002 -1.0411
  140SOL    HW3  606   0.246   3.712   0.817  2.4576  0.3561 -2.6630
  140SOL    MW4  607   0.242   3.628   0.796  0.6354 -0.1640 -0.3548
  141SOL     OW  608   1.790   4.049   0.717 -0.1196  0.2484 -0.3649
  141SOL    HW2  609   1.772   4.090   0.632 -0.2955 -0.2260 -0.5585
  141SOL    HW3  610   1.789   4.122   0.779 -3.0003  0.2311 -0.3311
  141SOL    MW4  611   1.787   4.064   0.714 -0.5230  0.1836 -0.3860
  142SOL     OW  612   1.067   2.119   0.535 -0.0946 -0.6796 -0.0344
  142SOL    HW2  613   1.022   2.044   0.495 -0.6752 -1.2240  1.6080
  142SOL    HW3  614   1.017   2.195   0.506 -0.6109 -1.0795 -0.2161
  142SOL    MW4  615   1.055   2.119   0.526 -0.2394 -0.8039  0.1584
  143SOL     OW  616   3.795   0.803   0.439 -0.2757  0.5681  0.0997
  143SOL    HW2  617   3.807   0.713   0.471 -0.0739 -0.5117 -2.8845
  143SOL    HW3  618   3.877   0.847   0.461 -0.0335 -0.2023  0.7968
  143SOL    MW4  619   3.807   0.797   0.446 -0.2172  0.3240 -0.2021
  144SOL     OW  620   2.824   0.696   0.508 -0.1710  0.1419  0.4868
  144SOL    HW2  621   2.854   0.607   0.486 -0.0605 -0.2585  2.1549
  144SOL    HW3  622   2.903   0.749   0.502  0.1935 -0.2718  1.5341
  144SOL    MW4  623   2.838   0.691   0.504 -0.1085  0.0345  0.8451
  145SOL     OW  624   4.166   0.416   0.564 -0.2599  0.1977 -0.4116
  145SOL    HW2  625   4.254   0.411   0.528 -0.2258  2.6189 -0.7971
  145SOL    HW3  626   4.179   0.440   0.656 -0.4867  0.4145 -0.4342
  145SOL    MW4  627   4.179   0.419   0.572 -0.2851  0.5458 -0.4655
  146SOL     OW  628   1.391   3.429   0.504  0.2298  0.3069 -0.3104
  146SOL    HW2  629   1.467   3.390   0.462  0.3215 -0.0887  0.2119
  146SOL    HW3  630   1.399   3.403   0.596 -1.5981 -1.4598 -0.6115
  146SOL    MW4  631   1.402   3.420   0.511  0.0007  0.0215 -0.2813
  147SOL     OW  632   1.123   0.084   0.478  0.3623 -0.3141 -0.3194
  147SOL    HW2  633   1.091  -0.006   0.484 -0.4780 -0.0620 -0.9571
  147SOL    HW3  634   1.095   0.125   0.561 -0.8067 -0.1505 -0.7911
  147SOL    MW4  635   1.115   0.078   0.490  0.0973 -0.2592 -0.4658
  148SOL     OW  636   4.314   0.986   0.399 -0.1698 -0.3623  0.4411
  148SOL    HW2  637   4.397   0.949   0.431 -0.2820 -1.5132 -0.5641
  148SOL    HW3  638   4.296   0.938   0.318 -1.2371  0.6849  0.0454
  148SOL    MW4  639   4.323   0.975   0.392 -0.3252 -0.3760  0.2562
  149SOL     OW  640   2.137   3.550   0.581  0.1079 -0.1596  0.2659
  149SOL    HW2  641   2.050   3.572   0.612 -0.2485 -2.0339  0.6759
  149SOL    HW3  642   2.160   3.620   0.520 -1.4173  0.6699  0.6399
  149SOL    MW4  643   2.129   3.562   0.577 -0.1404 -0.2975  0.3693
  150SOL     OW  644   0.682   0.522   0.707  0.3018  0.1643  0.0801
  150SOL    HW2  645   0.699   0.518   0.613  0.8341 -0.0950  0.1881
  150SOL    HW3  646   0.761   0.486   0.747 -0.2388 -0.4600  0.5940
  150SOL    MW4  647   0.694   0.517   0.700  0.3007  0.0477  0.1621
  151SOL     OW  648   2.269   3.156   0.461  0.2071 -0.2559  0.1816
  151SOL    HW2  649   2.220   3.074   0.463  1.0901 -0.8316 -0.6979
  151SOL    HW3  650   2.206   3.222   0.433  0.0535 -1.0969 -1.5758
  151SOL    MW4  651   2.254   3.154   0.457  0.3035 -0.4427 -0.1662
  152SOL     OW  652   2.698   3.929   0.458 -0.5276  0.0336  0.2525
  152SOL    HW2  653   2.659   4.015   0.443 -1.8135 -0.7086 -0.7168
  152SOL    HW3  654   2.714   3.926   0.553  0.4863  1.7326  0.1452
  152SOL    MW4  655   2.695   3.940   0.469 -0.5634  0.1600  0.1104
  153SOL     OW  656   0.587   3.924   0.482  0.0762 -0.2210 -0.3330
  153SOL    HW2  657   0.562   3.965   0.564  0.6373 -1.5433  0.5203
  153SOL    HW3  658   0.619   3.996   0.427 -1.3212  0.8248  0.1931
  153SOL    MW4  659   0.588   3.939   0.486 -0.0342 -0.2575 -0.1510
  154SOL     OW  660   3.410   3.841   0.870 -0.0765 -0.8740  0.2414
  154SOL    HW2  661   3.416   3.840   0.965 -1.7924 -1.3403  0.3697
  154SOL    HW3  662   3.468   3.912   0.843 -1.1018  0.5923  1.7676
  154SOL    MW4  663   3.418   3.850   0.879 -0.4382 -0.7422  0.4597
  155SOL     OW  664   0.233   1.551   0.422 -0.1059 -0.3579 -0.1635
  155SOL    HW2  665   0.211   1.467   0.463  0.6234 -0.0077  0.9780
  155SOL    HW3  666   0.165   1.611   0.452  0.1879 -0.2007  0.1884
  155SOL    MW4  667   0.222   1.548   0.431  0.0291 -0.2911  0.0335
  156SOL     OW  668   3.137   2.113   0.402  0.1800  0.1234 -0.3331
  156SOL    HW2  669   3.212   2.068   0.441 -0.6169 -0.0270  1.0546
  156SOL    HW3  670   3.117   2.062   0.323  0.7518 -0.5600 -0.0432
  156SOL    MW4  671   3.144   2.100   0.396  0.1504  0.0136 -0.1118
  157SOL     OW  672   0.360   2.469   0.456 -0.1796 -0.1139 -0.2462
  157SOL    HW2  673   0.381   2.376   0.452 -0.5064 -0.1679 -0.7272
  157SOL    HW3  674   0.269   2.471   0.484  0.0605  0.0827  0.5240
  157SOL    MW4  675   0.351   2.457   0.459 -0.1910 -0.0951 -0.2080
  158SOL     OW  676   0.511   0.968   0.300  0.6789  0.0757  0.4161
  158SOL    HW2  677   0.592   0.946   0.347  0.6986  0.3000  0.4856
  158SOL    HW3  678   0.539   1.033   0.235  0.6944 -0.3903 -0.0505
  158SOL    MW4  679   0.526   0.974   0.297  0.6835  0.0438  0.3637
  159SOL     OW  680   2.961   2.268   0.837  0.1294  0.1469  0.8792
  159SOL    HW2  681   2.888   2.316   0.799  0.3023  0.2036  0.6162
  159SOL    HW3  682   2.946   2.272   0.931 -0.8549 -0.8617  0.7767
  159SOL    MW4  683   2.950   2.275   0.844  0.0219  0.0217  0.8309
  160SOL     OW  684   1.570   1.911   0.463 -0.1251  0.1520 -0.2233
  160SOL    HW2  685   1.483   1.939   0.436 -0.9330 -0.6729  1.4757
  160SOL    HW3  686   1.590   1.967   0.539 -0.0928 -1.1372  0.7298
  160SOL    MW4  687   1.561   1.922   0.470 -0.2275 -0.1268  0.1266
  161SOL     OW  688   0.252   3.716   0.113  0.0895 -0.7106 -0.1409
  161SOL    HW2  689   0.243   3.781   0.043 -1.3588  2.4518  2.8372
  161SOL    HW3  690   0.165   3.678   0.122  0.7596 -2.5669 -1.3760
  161SOL    MW4  691   0.240   3.720   0.105 -0.0131 -0.5381  0.0890
  162SOL     OW  692   0.006   0.147   0.787  0.0761  0.0163  0.1137
  162SOL    HW2  693  -0.080   0.107   0.802  0.9399 -1.1665  2.0388
  162SOL    HW3  694   0.005   0.226   0.840  1.1366 -1.3802  2.2714
  162SOL    MW4  695  -0.006   0.152   0.796  0.3300 -0.3240  0.6523
  163SOL     OW  696   1.155   1.254   0.701  0.2053  0.0571  0.3847
  163SOL    HW2  697   1.238   1.207   0.708 -0.8148 -1.8508  0.1805
  163SOL    HW3  698   1.129   1.245   0.609 -0.3590  0.3842  0.5064
  163SOL    MW4  699   1.162   1.246   0.690 -0.0037 -0.1513  0.3738
  164SOL     OW  700   3.340   3.668   0.319 -0.7320  0.1675 -0.2414
  164SOL    HW2  701   3.333   3.763   0.332  0.5322  0.5888 -2.3477
  164SOL    HW3  702   3.430   3.648   0.342 -0.5572 -0.2532 -1.2745
  164SOL    MW4  703   3.351   3.678   0.323 -0.5426  0.1674 -0.6556
  165SOL     OW  704   2.954   0.436   0.504  0.2670 -0.3746  0.0752
  165SOL    HW2  705   3.044   0.465   0.492 -0.1192  0.4850 -0.8334
  165SOL    HW3  706   2.935   0.449   0.597  0.7968  0.2439  0.0942
  165SOL    MW4  707   2.963   0.441   0.514  0.2859 -0.1795 -0.0421
  166SOL     OW  708   0.509   0.297   0.444 -0.0142 -0.0737  0.2366
  166SOL    HW2  709   0.590   0.248   0.459 -0.9690 -0.6754  3.7581
  166SOL    HW3  710   0.449   0.233   0.407  0.4663 -0.1009 -0.5271
  166SOL    MW4  711   0.512   0.282   0.441 -0.0768 -0.1567  0.6005
  167SOL     OW  712   3.159   1.120   0.402  0.0565 -0.8293 -0.2957
  167SOL    HW2  713   3.099   1.194   0.390  0.5976 -0.4061 -0.4348
  167SOL    HW3  714   3.137   1.060   0.331 -0.0419 -0.5629 -0.4942
  167SOL    MW4  715   3.148   1.122   0.391  0.1149 -0.7383 -0.3402
  168SOL     OW  716   0.954   1.130   0.852 -0.9257 -0.3023 -0.3959
  168SOL    HW2  717   0.873   1.158   0.807  0.2823  1.1823 -1.7238
  168SOL    HW3  718   1.024   1.160   0.794  0.6172 -0.5553  1.3242
  168SOL    MW4  719   0.952   1.138   0.838 -0.5628 -0.1398 -0.3442
  169SOL     OW  720   4.484   3.227   0.737 -0.2935  0.1844  0.4748
  169SOL    HW2  721   4.553   3.162   0.754  0.9945  1.1868 -0.7630
  169SOL    HW3  722   4.495   3.293   0.805 -1.2044 -0.5622  1.3598
  169SOL    MW4  723   4.495   3.227   0.748 -0.2432  0.2184  0.4282
  170SOL     OW  724   4.076   3.946   0.484 -0.3840 -0.2359  0.1588
  170SOL    HW2  725   4.048   3.857   0.465 -0.5392 -0.1062 -0.2266
  170SOL    HW3  726   3.997   3.999   0.471 -0.5639 -0.1775  1.4180
  170SOL    MW4  727   4.062   3.941   0.480 -0.4282 -0.2110  0.2741
  171SOL     OW  728   2.881   2.022   0.521  0.0556 -0.1182 -0.7022
  171SOL    HW2  729   2.807   2.071   0.485 -0.2011  0.3287  0.4350
  171SOL    HW3  730   2.958   2.066   0.485 -0.2030  0.0261 -1.0893
  171SOL    MW4  731   2.882   2.034   0.511 -0.0122 -0.0398 -0.6033
  172SOL     OW  732   0.423   2.745   0.434 -0.1261 -0.5219  0.2695
  172SOL    HW2  733   0.422   2.649   0.424 -0.4540 -0.5284  0.3739
  172SOL    HW3  734   0.499   2.762   0.489 -0.3676 -0.7649  0.6812
  172SOL    MW4  735   0.433   2.734   0.440 -0.2012 -0.5550  0.3376
  173SOL     OW  736   1.064   0.846   0.629  0.0296 -0.2229  0.0580
  173SOL    HW2  737   1.033   0.756   0.626  1.6008 -0.7963  0.3744
  173SOL    HW3  738   1.078   0.864   0.722  2.4794 -0.6705 -0.1776
  173SOL    MW4  739   1.062   0.837   0.641  0.5603 -0.3576  0.0687
  174SOL     OW  740   1.382   1.680   0.702 -0.5431 -0.7285 -0.1452
  174SOL    HW2  741   1.370   1.673   0.607 -1.9739  1.0974 -0.1329
  174SOL    HW3  742   1.312   1.627   0.739  0.2133 -1.7053 -0.1001
  174SOL    MW4  743   1.371   1.672   0.694 -0.6320 -0.6164 -0.1376
  175SOL     OW  744   1.428   3.128   0.292 -0.5264  0.1170  0.0329
  175SOL    HW2  745   1.501   3.188   0.279  0.1810 -0.8539 -0.4974
  175SOL    HW3  746   1.356   3.167   0.242  0.2633 -0.0922 -1.2769
  175SOL    MW4  747   1.428   3.141   0.284 -0.3288 -0.0389 -0.2099
  176SOL     OW  748   3.363   0.238   0.389  0.3264  0.2647  0.0181
  176SOL    HW2  749   3.287   0.184   0.412  0.7250 -1.1078 -1.7316
  176SOL    HW3  750   3.330   0.328   0.390 -1.7597 -0.4130 -2.2080
  176SOL    MW4  751   3.348   0.242   0.392  0.1037 -0.0058 -0.5065
  177SOL     OW  752   0.205   3.083   0.348 -0.6899 -0.1986 -0.1821
  177SOL    HW2  753   0.173   3.010   0.401  0.2188  0.1030  0.8055
  177SOL    HW3  754   0.260   3.042   0.281 -0.7023 -0.4722 -0.0236
  177SOL    MW4  755   0.208   3.068   0.346 -0.5716 -0.1950 -0.0309
  178SOL     OW  756   1.755   0.632   0.344  0.0729  0.3489  0.3081
  178SOL    HW2  757   1.697   0.649   0.270  0.4163 -0.7394 -0.2356
  178SOL    HW3  758   1.697   0.605   0.415 -0.1058 -0.5982 -0.1911
  178SOL    MW4  759   1.740   0.630   0.344  0.0945  0.0803  0.1705
  179SOL     OW  760   2.041   2.332   0.833 -0.3530 -0.0009  0.5832
  179SOL    HW2  761   1.952   2.357   0.808 -0.8294 -0.2868  1.9666
  179SOL    HW3  762   2.041   2.333   0.928  1.6318  1.7874  0.6125
  179SOL    MW4  763   2.030   2.336   0.842 -0.1538  0.1976  0.7696
  180SOL     OW  764   2.296   4.058   0.496 -0.4586  0.3209 -0.3024
  180SOL    HW2  765   2.383   4.094   0.482 -0.4226  0.4957  0.3685
  180SOL    HW3  766   2.236   4.124   0.461 -0.3029 -0.1432 -1.4787
  180SOL    MW4  767   2.299   4.071   0.489 -0.4332  0.2832 -0.3691
  181SOL     OW  768   1.758   3.875   0.233 -0.2619  0.4212 -0.2379
  181SOL    HW2  769   1.779   3.848   0.143  0.3737 -0.4239  0.1585
  181SOL    HW3  770   1.816   3.949   0.250  1.0937 -0.7225  0.1913
  181SOL    MW4  771   1.768   3.881   0.223  0.0007  0.1590 -0.1290
  182SOL     OW  772   2.675   1.610   0.482  0.1980  0.2610 -0.2157
  182SOL    HW2  773   2.591   1.654   0.463  0.2190  0.5096  0.2737
  182SOL    HW3  774   2.694   1.633   0.572 -1.1724 -2.9841  0.9841
  182SOL    MW4  775   2.666   1.619   0.491  0.0198 -0.1345  0.0072
  183SOL     OW  776   1.111   2.067   0.805 -0.0237 -0.2438  0.0939
  183SOL    HW2  777   1.105   2.105   0.717  0.4049  0.8159  0.5258
  183SOL    HW3  778   1.203   2.044   0.814 -0.1911 -0.9554  0.0207
  183SOL    MW4  779   1.122   2.069   0.794  0.0107 -0.1976  0.1412
  184SOL     OW  780   4.300   2.335   0.873  0.1455 -0.1297 -0.2763
  184SOL    HW2  781   4.379   2.373   0.835  0.1732 -0.3641 -0.4537
  184SOL    HW3  782   4.309   2.241   0.858 -0.3264 -0.1255 -0.5999
  184SOL    MW4  783   4.311   2.327   0.866  0.0873 -0.1597 -0.3425
  185SOL     OW  784   2.015   0.499   0.711  0.1928 -0.2116 -0.0628
  185SOL    HW2  785   1.934   0.467   0.750  0.0295 -1.1418 -1.1574
  185SOL    HW3  786   2.004   0.485   0.617  2.0946 -1.4239 -0.1175
  185SOL    MW4  787   2.003   0.493   0.704  0.4218 -0.4943 -0.2144
  186SOL     OW  788   1.601   1.561   0.825  0.3499  0.1349  0.0141
  186SOL    HW2  789   1.579   1.544   0.916  1.0355 -0.3565  0.0921
  186SOL    HW3  790   1.529   1.615   0.792  0.0562  0.2348  0.8174
  186SOL    MW4  791   1.588   1.566   0.833  0.4016  0.0833  0.1304
  187SOL     OW  792   1.837   2.924   0.386  0.2061 -0.1817 -0.1319
  187SOL    HW2  793   1.760   2.901   0.333  0.3842  1.6243 -1.2455
  187SOL    HW3  794   1.826   3.017   0.404  2.8810  0.4619 -1.5973
  187SOL    MW4  795   1.825   2.933   0.381  0.5825  0.1416 -0.4721
  188SOL     OW  796   4.205   2.807   0.419  0.0305 -0.2852 -0.0119
  188SOL    HW2  797   4.160   2.879   0.374  0.3602 -0.7208 -1.0678
  188SOL    HW3  798   4.136   2.746   0.442 -0.1388 -0.0788  0.0236
  188SOL    MW4  799   4.190   2.808   0.416  0.0520 -0.3154 -0.1466
  189SOL     OW  800   3.379   2.018   0.758 -0.0902 -0.0043 -0.4025
  189SOL    HW2  801   3.321   1.948   0.788  0.2333 -0.2087 -0.2543
  189SOL    HW3  802   3.467   1.981   0.766  0.1722  0.8864  0.9726
  189SOL    MW4  803   3.383   2.004   0.763 -0.0129  0.0863 -0.2015
  190SOL     OW  804   3.590   3.197   0.766 -0.3946 -0.1502 -0.2353
  190SOL    HW2  805   3.519   3.139   0.793 -0.3849 -0.4796 -0.8980
  190SOL    HW3  806   3.591   3.190   0.670  0.5748 -0.1984 -0.2266
  190SOL    MW4  807   3.581   3.188   0.757 -0.2654 -0.2000 -0.3216
  191SOL     OW  808   2.218   1.470   0.426 -0.4594  0.0960 -0.5331
  191SOL    HW2  809   2.229   1.510   0.512  0.6729 -1.5277  0.1059
  191SOL    HW3  810   2.236   1.541   0.364  0.7007  0.7729  0.5615
  191SOL    MW4  811   2.222   1.485   0.429 -0.1569 -0.0288 -0.3044
  192SOL     OW  812   2.683   0.812   0.770 -0.2524  0.0621  0.2572
  192SOL    HW2  813   2.685   0.907   0.783 -1.8154  0.4157 -1.7224
  192SOL    HW3  814   2.701   0.801   0.676 -0.7133 -1.5404  0.3439
  192SOL    MW4  815   2.685   0.823   0.759 -0.5195 -0.1027  0.0075
  193SOL     OW  816   3.848   4.135   0.482 -0.2054  0.3625 -0.0073
  193SOL    HW2  817   3.826   4.228   0.486 -2.9020 -0.2590  0.0700
  193SOL    HW3  818   3.766   4.090   0.498  0.7160 -2.0590 -1.8122
  193SOL    MW4  819   3.835   4.142   0.484 -0.4396 -0.0391 -0.2353
  194SOL     OW  820   0.053   2.447   0.769 -0.5066 -0.4641  0.2911
  194SOL    HW2  821   0.126   2.406   0.816  0.3403 -0.2797 -0.8385
  194SOL    HW3  822   0.081   2.447   0.678 -1.8637 -0.2408 -0.1289
  194SOL    MW4  823   0.066   2.441   0.763 -0.5739 -0.4103  0.0866
  195SOL     OW  824   1.803   3.185   0.498 -0.2032  0.0576 -0.7327
  195SOL    HW2  825   1.788   3.199   0.591 -0.2554 -1.6639 -0.4712
  195SOL    HW3  826   1.885   3.232   0.479 -0.0055  0.1027  0.2400
  195SOL    MW4  827   1.811   3.193   0.507 -0.1841 -0.1638 -0.5699
  196SOL     OW  828   2.126   4.232   0.367 -0.0468  0.3051  0.5732
  196SOL    HW2  829   2.077   4.296   0.419  0.0749 -0.1274  1.2237
  196SOL    HW3  830   2.205   4.279   0.340 -0.5572  0.8320 -0.0219
  196SOL    MW4  831   2.130   4.247   0.370 -0.0980  0.3176  0.5805
  197SOL     OW  832   2.290   2.737   0.835 -0.8235  0.0556 -0.4252
  197SOL    HW2  833   2.262   2.744   0.927  2.3417 -1.3562  0.7407
  197SOL    HW3  834   2.284   2.643   0.815  1.5827 -0.1132 -0.5474
  197SOL    MW4  835   2.285   2.725   0.845 -0.0889 -0.1528 -0.2874
  198SOL     OW  836   1.255   1.377   0.344 -0.3323 -0.3182  0.5026
  198SOL    HW2  837   1.253   1.459   0.393  0.9478  0.5157 -0.7634
  198SOL    HW3  838   1.274   1.404   0.254 -0.5943 -1.9504 -0.0643
  198SOL    MW4  839   1.258   1.391   0.338 -0.1980 -0.4233  0.2608
  199SOL     OW  840   2.670   0.319   0.857  0.1956 -0.1112 -0.0910
  199SOL    HW2  841   2.749   0.362   0.823  0.8938 -1.5758 -0.3850
  199SOL    HW3  842   2.675   0.331   0.952  0.4743  0.3034 -0.1562
  199SOL    MW4  843   2.681   0.326   0.865  0.3247 -0.2497 -0.1384
  200SOL     OW  844   2.251   3.991   0.758 -0.0651  0.0259 -0.4395
  200SOL    HW2  845   2.260   4.003   0.664 -0.2560 -0.4662 -0.5231
  200SOL    HW3  846   2.165   3.950   0.769  0.6102 -1.3351 -0.1713
  200SOL    MW4  847   2.241   3.987   0.747 -0.0014 -0.2186 -0.4151
  201SOL     OW  848   0.957   0.153   0.747  0.2030  0.1398 -0.0297
  201SOL    HW2  849   0.877   0.108   0.777  0.4414 -0.2378  0.0358
  201SOL    HW3  850   0.949   0.241   0.785 -0.1359  0.0734  0.0614
  201SOL    MW4  851   0.945   0.159   0.756  0.1898  0.0812 -0.0090
  202SOL     OW  852   2.266   1.853   0.863 -0.1139 -0.3793  0.4340
  202SOL    HW2  853   2.262   1.785   0.796 -0.8506 -0.5706  0.6671
  202SOL    HW3  854   2.201   1.917   0.836 -0.3342 -0.4018  0.9020
  202SOL    MW4  855   2.257   1.852   0.850 -0.2403 -0.4076  0.5265
  203SOL     OW  856   0.280   1.274   0.819 -0.2358 -0.3766 -0.7221
  203SOL    HW2  857   0.246   1.296   0.733 -0.8881 -0.0154 -0.3743
  203SOL    HW3  858   0.359   1.223   0.801  0.2079  0.5772 -1.5327
  203SOL    MW4  859   0.286   1.270   0.806 -0.2633 -0.2033 -0.7832
  204SOL     OW  860   1.722   0.251   0.257 -0.3776 -0.4836 -0.1415
  204SOL    HW2  861   1.699   0.158   0.246  0.9900 -0.9153  0.5442
  204SOL    HW3  862   1.815   0.250   0.280  0.2316  1.2066 -2.3934
  204SOL    MW4  863   1.731   0.238   0.259 -0.1167 -0.3176 -0.3482
  205SOL     OW  864   4.042   0.930   0.788  0.3583  0.2494  0.5197
  205SOL    HW2  865   3.985   0.875   0.842  2.7353 -1.6924  1.1731
  205SOL    HW3  866   4.060   1.007   0.843  0.9623 -0.6721  1.6385
  205SOL    MW4  867   4.037   0.933   0.803  0.7515 -0.1284  0.7535
  206SOL     OW  868   1.502   3.683   0.498 -0.2940  0.3145 -0.5560
  206SOL    HW2  869   1.459   3.602   0.470  0.1660 -0.1253  0.0080
  206SOL    HW3  870   1.532   3.666   0.587 -1.1214  1.4691 -0.0382
  206SOL    MW4  871   1.500   3.670   0.506 -0.3426  0.4086 -0.4133
  207SOL     OW  872   4.296   1.839   0.378  0.1053 -0.4201  0.1896
  207SOL    HW2  873   4.321   1.894   0.304  1.6344 -0.6748  0.5029
  207SOL    HW3  874   4.274   1.755   0.338  1.0635 -0.6020  0.0181
  207SOL    MW4  875   4.297   1.835   0.363  0.4330 -0.4777  0.2083
  208SOL     OW  876   2.202   0.003   0.512  0.2209  0.1431 -0.1546
  208SOL    HW2  877   2.153  -0.079   0.507 -1.9636  1.4523 -1.0539
  208SOL    HW3  878   2.294  -0.023   0.505 -0.5293 -2.0742 -2.5194
  208SOL    MW4  879   2.208  -0.011   0.511 -0.1662  0.0232 -0.5853
  209SOL     OW  880   3.598   0.100   0.455 -0.5837 -0.3722  0.6645
  209SOL    HW2  881   3.525   0.161   0.449 -0.1699  0.0186 -0.6770
  209SOL    HW3  882   3.675   0.154   0.435 -0.1555 -1.2097  0.0339
  209SOL    MW4  883   3.599   0.115   0.452 -0.4728 -0.4311  0.4044
  210SOL     OW  884   4.066   3.053   0.339 -0.1543  0.3023 -0.2519
  210SOL    HW2  885   3.976   3.029   0.360  0.1047 -1.2896 -0.9052
  210SOL    HW3  886   4.083   3.131   0.392 -1.0351 -0.9296  1.9103
  210SOL    MW4  887   4.056   3.060   0.349 -0.2365 -0.0703 -0.0528
  211SOL     OW  888   3.356   1.211   0.810 -0.0103 -0.2518  0.1940
  211SOL    HW2  889   3.386   1.193   0.721 -1.3317 -1.3307 -0.0565
  211SOL    HW3  890   3.368   1.305   0.821 -3.1074  0.5512 -2.4210
  211SOL    MW4  891   3.361   1.221   0.800 -0.5929 -0.2881 -0.1841
  212SOL     OW  892   1.895   4.104   0.292 -0.5227  0.5149 -0.3147
  212SOL    HW2  893   1.841   4.163   0.345  1.8999  0.3315  2.4720
  212SOL    HW3  894   1.983   4.143   0.296  0.7927 -2.4149  0.2827
  212SOL    MW4  895   1.900   4.117   0.300 -0.0296  0.1044  0.1318
  213SOL     OW  896   4.443   2.678   0.365  0.2800 -0.2279 -0.1950
  213SOL    HW2  897   4.365   2.716   0.405  0.2995  0.0067 -0.3815
  213SOL    HW3  898   4.515   2.733   0.398  0.3429 -0.3063 -0.2020
  213SOL    MW4  899   4.443   2.691   0.375  0.2913 -0.2074 -0.2206
  214SOL     OW  900   2.893   0.456   0.777  0.1696  0.4227 -0.2688
  214SOL    HW2  901   2.885   0.543   0.817  0.8221 -0.2430  1.3590
  214SOL    HW3  902   2.959   0.411   0.830  0.3089 -0.8504 -1.4938
  214SOL    MW4  903   2.900   0.462   0.789  0.2742  0.1669 -0.2155
  215SOL     OW  904   0.774   1.235   0.426  0.2344 -0.2329 -0.1889
  215SOL    HW2  905   0.865   1.261   0.440  0.0186  1.2597 -1.3832
  215SOL    HW3  906   0.774   1.140   0.435  1.5471 -0.0768  1.7547
  215SOL    MW4  907   0.786   1.226   0.429  0.3791 -0.0153 -0.0900
  216SOL     OW  908   4.016   2.549   0.491 -0.4022 -0.7018 -0.1256
  216SOL    HW2  909   3.923   2.561   0.506 -0.0396  1.6626  0.4293
  216SOL    HW3  910   4.048   2.506   0.571 -0.7658 -0.2068  0.2862
  216SOL    MW4  911   4.008   2.545   0.503 -0.4029 -0.3245  0.0020
  217SOL     OW  912   0.534   1.649   0.490 -0.3354  0.1094  0.1720
  217SOL    HW2  913   0.452   1.600   0.480  0.6874 -1.3541 -1.2106
  217SOL    HW3  914   0.546   1.657   0.585 -1.8712  0.0176  0.3967
  217SOL    MW4  915   0.525   1.644   0.501 -0.4031 -0.0958  0.0193
  218SOL     OW  916   4.004   2.101   0.598 -0.6019  0.2626  0.5378
  218SOL    HW2  917   4.005   2.025   0.539  0.1381 -0.5018  1.5169
  218SOL    HW3  918   3.953   2.167   0.551  0.5567 -0.0842 -1.2886
  218SOL    MW4  919   3.997   2.100   0.584 -0.3517  0.1159  0.4261
  219SOL     OW  920   2.240   4.240   0.889 -0.0151  0.4392  0.0311
  219SOL    HW2  921   2.244   4.160   0.836 -0.9015  0.5723 -0.2478
  219SOL    HW3  922   2.304   4.299   0.848  1.2348 -0.3994  0.7234
  219SOL    MW4  923   2.249   4.237   0.876  0.0331  0.3462  0.0857
  220SOL     OW  924   1.308   2.549   0.513 -0.2039 -0.1857  0.0631
  220SOL    HW2  925   1.348   2.635   0.508  0.9387 -0.8274 -2.7067
  220SOL    HW3  926   1.219   2.562   0.480 -1.2888  0.6037  3.1475
  220SOL    MW4  927   1.302   2.562   0.508 -0.1962 -0.1664  0.1047
  221SOL     OW  928   3.601   4.253   0.894  0.1200  0.0737  0.2656
  221SOL    HW2  929   3.520   4.300   0.876  0.4105  0.3978 -0.1768
  221SOL    HW3  930   3.666   4.291   0.835  0.7403  0.2108  1.0185
  221SOL    MW4  931   3.599   4.264   0.884  0.2403  0.1340  0.3066
  222SOL     OW  932   1.599   4.643   0.363 -0.0248 -0.0940 -0.0484
  222SOL    HW2  933   1.684   4.627   0.404 -0.1714 -0.9013 -0.0473
  222SOL    HW3  934   1.549   4.691   0.429 -0.0376 -0.8302  0.4892
  222SOL    MW4  935   1.603   4.647   0.377 -0.0459 -0.2976  0.0226
  223SOL     OW  936   0.362   0.556   0.462 -0.1428 -0.0815 -0.5267
  223SOL    HW2  937   0.428   0.607   0.415  0.7721 -0.9208 -0.1742
  223SOL    HW3  938   0.408   0.475   0.486 -0.9328 -0.1273  0.8438
  223SOL    MW4  939   0.377   0.552   0.459 -0.1263 -0.1982 -0.2994
  224SOL     OW  940   1.771   3.691   0.451  0.2728 -0.2178  0.2757
  224SOL    HW2  941   1.681   3.666   0.469 -0.1272 -0.2736 -1.7216
  224SOL    HW3  942   1.766   3.749   0.375  1.9243 -0.3286  0.0481
  224SOL    MW4  943   1.759   3.695   0.444  0.4380 -0.2398 -0.0178
  225SOL     OW  944   3.115   1.092   0.863  0.0182  0.6332 -0.0797
  225SOL    HW2  945   3.201   1.124   0.836  0.4180 -0.7488 -0.4378
  225SOL    HW3  946   3.121   1.086   0.959  0.6262 -0.3451 -0.1777
  225SOL    MW4  947   3.127   1.096   0.872  0.1509  0.3217 -0.1400
  226SOL     OW  948   3.263   4.518   0.369 -0.1674  0.8518 -0.1277
  226SOL    HW2  949   3.264   4.536   0.275 -0.4437  1.2122 -0.0619
  226SOL    HW3  950   3.220   4.594   0.408 -0.3687  0.5425  0.2587
  226SOL    MW4  951   3.257   4.530   0.362 -0.2303  0.8588 -0.0680
  227SOL     OW  952   0.761   0.960   0.436 -0.3428  0.1539 -0.3274
  227SOL    HW2  953   0.834   0.925   0.385 -0.9638 -2.0772  0.2771
  227SOL    HW3  954   0.778   0.932   0.525 -0.0423  2.7857  0.5043
  227SOL    MW4  955   0.773   0.952   0.441 -0.3851  0.2068 -0.1379
  228SOL     OW  956   0.486   2.431   0.736  0.2069 -0.1696  0.1945
  228SOL    HW2  957   0.552   2.365   0.715 -0.1526 -0.8292  1.1032
  228SOL    HW3  958   0.453   2.460   0.651  2.1115  0.6412 -0.2989
  228SOL    MW4  959   0.490   2.426   0.722  0.4107 -0.1495  0.2494
  229SOL     OW  960   1.790   0.070   0.759  0.2763 -0.0593  0.1113
  229SOL    HW2  961   1.864   0.036   0.810  1.1269 -0.0498 -1.1007
  229SOL    HW3  962   1.712   0.032   0.801  0.9412  0.1365  1.5568
  229SOL    MW4  963   1.789   0.061   0.771  0.4762 -0.0322  0.1420
  230SOL     OW  964   0.219   2.835   0.771  0.0092 -0.0380 -0.0412
  230SOL    HW2  965   0.137   2.795   0.799  0.3390 -1.5634 -1.1662
  230SOL    HW3  966   0.213   2.925   0.801 -1.8510 -0.2645  0.3586
  230SOL    MW4  967   0.207   2.841   0.779 -0.1927 -0.2694 -0.1369
  231SOL     OW  968   0.852   2.421   0.873  0.0272 -0.0968 -0.1792
  231SOL    HW2  969   0.934   2.385   0.905  0.3127  1.2310  0.6001
  231SOL    HW3  970   0.793   2.417   0.948 -0.7852 -1.4569 -0.8525
  231SOL    MW4  971   0.855   2.415   0.887 -0.0424 -0.1013 -0.1652
  232SOL     OW  972   1.362   0.845   0.510 -0.2919 -0.1375  0.3846
  232SOL    HW2  973   1.331   0.816   0.424  1.7801  0.8858 -0.7267
  232SOL    HW3  974   1.281   0.862   0.560 -1.5449 -2.6056 -0.6667
  232SOL    MW4  975   1.347   0.843   0.505 -0.1837 -0.3282  0.0993
  233SOL     OW  976   3.768   3.766   0.493  0.1543  0.5016 -0.3183
  233SOL    HW2  977   3.836   3.744   0.429  0.2989 -0.6664  0.2182
  233SOL    HW3  978   3.789   3.712   0.569 -1.4155  0.0909 -0.1680
  233SOL    MW4  979   3.780   3.756   0.495 -0.0339  0.2933 -0.2276
  234SOL     OW  980   3.800   4.407   0.491 -0.1558 -0.2566 -0.0958
  234SOL    HW2  981   3.708   4.429   0.484  0.1366  0.9265 -0.3485
  234SOL    HW3  982   3.816   4.400   0.585 -0.7624 -1.6080 -0.0899
  234SOL    MW4  983   3.790   4.409   0.503 -0.1976 -0.2789 -0.1283
  235SOL     OW  984   3.656   2.036   0.380 -0.1366 -0.5186 -0.1894
  235SOL    HW2  985   3.677   2.125   0.409 -1.5350  0.0297 -0.7955
  235SOL    HW3  986   3.675   2.037   0.286  1.0601 -1.2426  0.0452
  235SOL    MW4  987   3.661   2.048   0.371 -0.1631 -0.5419 -0.2384
  236SOL     OW  988   1.408   0.935   0.903  0.1151  0.2081  0.0377
  236SOL    HW2  989   1.315   0.914   0.904 -0.2043  1.6166  0.7147
  236SOL    HW3  990   1.417   1.001   0.834  0.1863  1.9001  1.6333
  236SOL    MW4  991   1.397   0.941   0.894  0.0825  0.6172  0.3375
  237SOL     OW  992   3.833   2.261   0.420  0.0208  0.0419  0.2771
  237SOL    HW2  993   3.809   2.353   0.437  2.0308  0.2446  2.3155
  237SOL    HW3  994   3.909   2.267   0.363  0.0858 -0.3670  0.3231
  237SOL    MW4  995   3.840   2.274   0.415  0.2944  0.0145  0.5521
  238SOL     OW  996   1.714   1.395   0.465 -0.2721 -0.6978  0.8377
  238SOL    HW2  997   1.700   1.483   0.430  1.4950 -0.8125 -0.1886
  238SOL    HW3  998   1.807   1.377   0.451 -0.9398 -3.4038 -0.5351
  238SOL    MW4  999   1.724   1.404   0.459 -0.1271 -1.0700  0.5212
  239SOL     OW 1000   1.595   1.328   0.692 -0.3726 -0.1719 -0.4169
  239SOL    HW2 1001   1.596   1.403   0.751  0.3085  0.1552 -0.8404
  239SOL    HW3 1002   1.641   1.357   0.614 -0.4780 -0.8923 -0.7566
  239SOL    MW4 1003   1.601   1.341   0.690 -0.2968 -0.2238 -0.5176
  240SOL     OW 1004   0.414   3.225   0.482  0.1360 -0.2821  0.1905
  240SOL    HW2 1005   0.475   3.155   0.462  0.3695  0.1818 -0.7502
  240SOL    HW3 1006   0.336   3.205   0.431  0.2361  0.1890 -0.1492
  240SOL    MW4 1007   0.411   3.213   0.473  0.1800 -0.1585  0.0215
  241SOL     OW 1008   4.481   4.020   0.788 -0.3283  0.0027 -0.3466
  241SOL    HW2 1009   4.477   4.023   0.692 -0.0630 -1.2070 -0.4019
  241SOL    HW3 1010   4.568   3.987   0.807 -0.2719  0.5282  0.3340
  241SOL    MW4 1011   4.492   4.016   0.778 -0.2859 -0.0877 -0.2641
  242SOL     OW 1012   3.949   1.508   0.448  0.2153  0.4960 -0.1163
  242SOL    HW2 1013   3.864   1.547   0.430 -0.2492 -0.4500 -0.0245
  242SOL    HW3 1014   3.971   1.540   0.536  0.6929  1.9976 -0.7665
  242SOL    MW4 1015   3.940   1.517   0.458  0.2170  0.5693 -0.1900
  243SOL     OW 1016   0.174   1.968   0.525 -0.6007 -0.0377 -0.2298
  243SOL    HW2 1017   0.198   2.000   0.612 -0.3883  0.1561 -0.3571
  243SOL    HW3 1018   0.253   1.923   0.494 -0.8284 -0.5045 -0.1370
  243SOL    MW4 1019   0.188   1.967   0.533 -0.6027 -0.0737 -0.2343
  244SOL     OW 1020   0.971   2.828   0.475 -0.2645  0.2495  0.2744
  244SOL    HW2 1021   0.974   2.904   0.417 -0.9450  0.5341  0.6060
  244SOL    HW3 1022   1.012   2.857   0.556  1.1094 -0.2901 -0.2096
  244SOL    MW4 1023   0.977   2.842   0.478 -0.1730  0.2158  0.2542
  245SOL     OW 1024   0.439   0.143   0.722 -0.2825  0.2399  0.2857
  245SOL    HW2 1025   0.368   0.093   0.762  0.0556  0.2349  0.8760
  245SOL    HW3 1026   0.410   0.158   0.632 -1.1650  0.5088  0.6147
  245SOL    MW4 1027   0.426   0.138   0.715 -0.3543  0.2747  0.4069
  246SOL     OW 1028   0.234   0.022   0.882 -0.1715 -0.2670  0.1594
  246SOL    HW2 1029   0.153   0.048   0.838 -0.2233  1.0799  0.9979
  246SOL    HW3 1030   0.260  -0.060   0.840 -0.8024  0.4177 -1.6195
  246SOL    MW4 1031   0.227   0.015   0.871 -0.2616  0.0011  0.0353
  247SOL     OW 1032   4.471   0.424   0.913 -0.1112  0.0115  0.3394
  247SOL    HW2 1033   4.521   0.497   0.878  2.4434 -1.9727 -0.2878
  247SOL    HW3 1034   4.472   0.437   1.008  1.1759  0.2606  0.2909
  247SOL    MW4 1035   4.478   0.435   0.921  0.3958 -0.2174  0.2503
  248SOL     OW 1036   0.315   1.026   0.511  0.2658  0.7664 -0.2248
  248SOL    HW2 1037   0.361   1.003   0.592 -0.2341  0.0122 -0.1438
  248SOL    HW3 1038   0.376   1.002   0.442  0.6338  1.2669 -0.0749
  248SOL    MW4 1039   0.329   1.020   0.513  0.2484  0.7329 -0.1943
  249SOL     OW 1040   0.346   0.638   0.722  0.0205 -0.1078  0.3737
  249SOL    HW2 1041   0.407   0.576   0.762  3.2598  1.6026 -1.6874
  249SOL    HW3 1042   0.344   0.612   0.629  0.9399  2.4088 -0.3906
  249SOL    MW4 1043   0.354   0.626   0.715  0.5692  0.4499  0.0009
  250SOL     OW 1044   4.102   1.183   0.892  0.1387  0.2230  0.4381
  250SOL    HW2 1045   4.016   1.201   0.855  0.0867 -0.8780 -0.0125
  250SOL    HW3 1046   4.090   1.189   0.987 -0.3699  0.3188  0.3661
  250SOL    MW4 1047   4.089   1.186   0.900  0.0644  0.0905  0.3691
  251SOL     OW 1048   0.434   2.206   0.451 -0.3431 -0.1091 -0.2028
  251SOL    HW2 1049   0.525   2.198   0.422  0.1306  0.3416  1.0975
  251SOL    HW3 1050   0.408   2.116   0.474  0.3808  0.0234  1.1632
  251SOL    MW4 1051   0.443   2.193   0.450 -0.1851 -0.0324  0.1490
  252SOL     OW 1052   0.059   1.135   0.922  0.3543 -0.6310  0.5507
  252SOL    HW2 1053   0.057   1.150   1.017  0.5708  1.1767  0.2897
  252SOL    HW3 1054   0.141   1.174   0.893 -1.0358  1.5008 -0.7581
  252SOL    MW4 1055   0.069   1.142   0.931  0.1994 -0.1112  0.3436
  253SOL     OW 1056   4.086   2.327   0.287  0.0374  0.5197  0.1495
  253SOL    HW2 1057   4.080   2.379   0.367  0.4837  0.4931  0.2048
  253SOL    HW3 1058   4.148   2.374   0.232  1.5441 -0.6623  0.7745
  253SOL    MW4 1059   4.093   2.340   0.291  0.2952  0.3603  0.2392
  254SOL     OW 1060   0.505   1.932   0.824 -0.1517  0.4905 -0.8636
  254SOL    HW2 1061   0.510   1.945   0.919 -0.1350 -1.9487 -0.5063
  254SOL    HW3 1062   0.415   1.957   0.802 -0.5326 -0.0835 -0.0048
  254SOL    MW4 1063   0.494   1.937   0.834 -0.1998  0.0929 -0.7031
  255SOL     OW 1064   0.976   1.638   0.503  0.3960  0.0616 -0.7307
  255SOL    HW2 1065   0.980   1.597   0.590  0.3705  0.8940 -0.3371
  255SOL    HW3 1066   0.906   1.591   0.458  0.9964 -0.9660 -0.6104
  255SOL    MW4 1067   0.967   1.626   0.509  0.4718  0.0358 -0.6628
  256SOL     OW 1068   2.556   0.608   0.469  0.1633  0.1102  0.4546
  256SOL    HW2 1069   2.547   0.562   0.553  0.0189  0.9364  0.8926
  256SOL    HW3 1070   2.639   0.656   0.477  0.8611 -0.9116 -0.4130
  256SOL    MW4 1071   2.566   0.608   0.481  0.2363  0.0844  0.3979
  257SOL     OW 1072   0.274   2.304   0.874 -0.1949  0.2519 -0.1878
  257SOL    HW2 1073   0.292   2.321   0.966 -0.4269 -1.7514  0.2561
  257SOL    HW3 1074   0.354   2.332   0.828  0.8755 -0.9907  0.8887
  257SOL    MW4 1075   0.287   2.310   0.880 -0.0843 -0.1764  0.0129
  258SOL     OW 1076   4.298   2.060   0.840  0.4020  0.0516 -0.2810
  258SOL    HW2 1077   4.316   2.066   0.747 -1.2783  0.0272 -0.6325
  258SOL    HW3 1078   4.209   2.025   0.845  0.2372  0.6322  1.3158
  258SOL    MW4 1079   4.289   2.056   0.829  0.1593  0.1252 -0.1168
  259SOL     OW 1080   4.475   2.715   0.820 -0.5019  0.2401 -0.0110
  259SOL    HW2 1081   4.486   2.709   0.915 -0.1489 -0.6159 -0.1041
  259SOL    HW3 1082   4.498   2.628   0.788  1.2230  1.0577 -1.0488
  259SOL    MW4 1083   4.480   2.703   0.828 -0.2277  0.2348 -0.1602
  260SOL     OW 1084   4.092   3.273   0.502 -0.1932 -0.6227 -0.3984
  260SOL    HW2 1085   4.186   3.292   0.506  0.1310 -2.2422  0.3301
  260SOL    HW3 1086   4.070   3.245   0.591 -1.1532 -1.1721 -0.7971
  260SOL    MW4 1087   4.102   3.271   0.515 -0.2761 -0.9089 -0.3549
  261SOL     OW 1088   0.223   3.083   0.871  0.3218 -0.2588  0.4876
  261SOL    HW2 1089   0.228   3.102   0.965  0.1224  2.1362  0.0550
  261SOL    HW3 1090   0.295   3.133   0.832 -2.0428  2.1279 -1.0619
  261SOL    MW4 1091   0.233   3.092   0.878 -0.0165  0.3722  0.2260
  262SOL     OW 1092   3.633   1.922   0.866 -0.0875 -0.0583 -0.2842
  262SOL    HW2 1093   3.629   1.828   0.852 -0.0650 -0.0833 -0.1264
  262SOL    HW3 1094   3.721   1.948   0.838  0.0049 -0.1291 -0.0632
  262SOL    MW4 1095   3.644   1.913   0.861 -0.0725 -0.0710 -0.2342
  263SOL     OW 1096   0.009   3.479   0.888 -0.1165 -0.0010  0.1037
  263SOL    HW2 1097  -0.068   3.519   0.847 -0.2388  0.6438  0.9687
  263SOL    HW3 1098   0.083   3.528   0.852 -0.2166  0.4909  0.5686
  263SOL    MW4 1099   0.009   3.491   0.878 -0.1459  0.1490  0.2791
  264SOL     OW 1100   3.614   1.130   0.897  0.2749 -0.1504 -0.0963
  264SOL    HW2 1101   3.533   1.170   0.867  1.0529  0.5881 -1.2999
  264SOL    HW3 1102   3.608   1.129   0.992 -0.7965  0.6096 -0.1563
  264SOL    MW4 1103   3.603   1.135   0.905  0.2363  0.0474 -0.2630
  265SOL     OW 1104   3.629   3.466   0.850 -0.1199  0.1403 -0.4637
  265SOL    HW2 1105   3.552   3.505   0.808 -0.4751  0.1493  0.1975
  265SOL    HW3 1106   3.622   3.372   0.831 -1.4124 -0.1522  1.3637
  265SOL    MW4 1107   3.618   3.459   0.842 -0.3374  0.1030 -0.1354
  266SOL     OW 1108   0.251   3.901   0.838  0.1214  0.3121 -0.1336
  266SOL    HW2 1109   0.250   3.906   0.934 -1.3533  3.1999 -0.2270
  266SOL    HW3 1110   0.335   3.940   0.813  0.7022 -0.8516 -0.0110
  266SOL    MW4 1111   0.262   3.907   0.848  0.0035  0.5395 -0.1298
  267SOL     OW 1112   0.014   4.289   0.835  0.1044 -0.1825 -0.0986
  267SOL    HW2 1113   0.019   4.195   0.818  0.7282 -0.1621 -0.0193
  267SOL    HW3 1114   0.024   4.297   0.929 -0.9147 -0.1030  0.0150
  267SOL    MW4 1115   0.016   4.277   0.845  0.0523 -0.1698 -0.0731
  268SOL     OW 1116   0.758   3.291   0.361  0.2695 -0.2352  0.4456
  268SOL    HW2 1117   0.699   3.366   0.367  0.7722  0.1886  0.2043
  268SOL    HW3 1118   0.701   3.214   0.367 -0.1697  0.1657  1.4942
  268SOL    MW4 1119   0.743   3.291   0.363  0.2778 -0.1264  0.5521
  269SOL     OW 1120   0.708   0.053   0.822 -0.2584  0.1140  0.4167
  269SOL    HW2 1121   0.696   0.051   0.917  1.6685  0.5645  0.7012
  269SOL    HW3 1122   0.635   0.104   0.789  0.1647  1.7029  1.8724
  269SOL    MW4 1123   0.697   0.060   0.831  0.0517  0.3829  0.6464
  270SOL     OW 1124   1.904   3.418   0.209  0.0140 -0.4411  0.0578
  270SOL    HW2 1125   1.954   3.393   0.131 -2.1969 -0.4701 -1.3821
  270SOL    HW3 1126   1.939   3.503   0.234 -0.0829  0.1297 -1.6995
  270SOL    MW4 1127   1.915   3.426   0.202 -0.2904 -0.3695 -0.3641
  271SOL     OW 1128   0.480   0.402   0.851  0.3202  0.0036  0.3180
  271SOL    HW2 1129   0.456   0.319   0.811 -0.9471  0.8358 -0.6884
  271SOL    HW3 1130   0.557   0.432   0.801 -0.6858  0.5876 -0.9038
  271SOL    MW4 1131   0.487   0.395   0.839  0.0203  0.1904  0.0241
  272SOL     OW 1132   2.115   2.912   0.426 -0.5901  0.1266 -0.1235
  272SOL    HW2 1133   2.140   2.825   0.396  1.9394  1.2306 -1.3098
  272SOL    HW3 1134   2.024   2.921   0.398 -0.6736 -1.8716 -0.5752
  272SOL    MW4 1135   2.106   2.902   0.418 -0.2677  0.0086 -0.3396
  273SOL     OW 1136   0.745   0.791   0.664 -0.5024 -0.3542  0.2917
  273SOL    HW2 1137   0.740   0.699   0.690 -0.1205 -0.7859 -1.1084
  273SOL    HW3 1138   0.765   0.838   0.745 -1.1357 -1.4526  1.1038
  273SOL    MW4 1139   0.747   0.785   0.678 -0.5355 -0.5560  0.2140
  274SOL     OW 1140   0.015   0.893   0.765  0.1573 -0.0441 -0.2316
  274SOL    HW2 1141   0.066   0.817   0.791 -0.5581 -0.4232  0.0725
  274SOL    HW3 1142   0.028   0.956   0.836 -1.5127 -0.9486  0.9240
  274SOL    MW4 1143   0.023   0.891   0.778 -0.1574 -0.2135 -0.0390
  275SOL     OW 1144   0.476   0.873   0.718 -0.1692  0.1397 -0.1526
  275SOL    HW2 1145   0.556   0.829   0.690  0.1814  0.1740  0.7792
  275SOL    HW3 1146   0.412   0.803   0.730 -0.1821  0.0794 -0.5751
  275SOL    MW4 1147   0.478   0.858   0.716 -0.1247  0.1363 -0.0854
  276SOL     OW 1148   2.066   1.511   0.823  0.2656 -0.0964  0.0199
  276SOL    HW2 1149   2.131   1.562   0.775  0.5349  0.3626  0.8805
  276SOL    HW3 1150   2.062   1.427   0.776  0.6556  0.2882 -0.6995
  276SOL    MW4 1151   2.074   1.506   0.810  0.3526  0.0150  0.0386
  277SOL     OW 1152   0.521   1.663   0.776 -0.2690  0.1168 -0.3057
  277SOL    HW2 1153   0.439   1.627   0.810  0.4450  0.1691  1.5049
  277SOL    HW3 1154   0.517   1.757   0.796  1.4411 -0.3263  2.3540
  277SOL    MW4 1155   0.510   1.671   0.783  0.0508  0.0652  0.2841
  278SOL     OW 1156   0.288   1.554   0.884  0.0234 -0.3854 -0.2650
  278SOL    HW2 1157   0.201   1.573   0.847  0.0194 -0.4624 -0.2962
  278SOL    HW3 1158   0.298   1.460   0.872 -1.0730 -0.8580  2.2689
  278SOL    MW4 1159   0.278   1.544   0.878 -0.1218 -0.4579  0.0652
  279SOL     OW 1160   0.047   0.126   0.522 -0.0392 -0.1371  0.2832
  279SOL    HW2 1161   0.026   0.126   0.616 -1.3936 -0.5021 -0.0229
  279SOL    HW3 1162   0.033   0.216   0.494  0.1438 -0.0782  0.3810
  279SOL    MW4 1163   0.043   0.138   0.531 -0.1937 -0.1775  0.2556
  280SOL     OW 1164   1.114   4.383   0.716  0.5591  0.0466 -0.1048
  280SOL    HW2 1165   1.199   4.349   0.747 -0.2286 -1.3413  0.5657
  280SOL    HW3 1166   1.051   4.351   0.781 -0.6702 -0.0842 -1.3463
  280SOL    MW4 1167   1.117   4.374   0.729  0.2930 -0.1535 -0.1801
  281SOL     OW 1168   0.688   2.280   0.693 -0.2437 -0.1346  0.4321
  281SOL    HW2 1169   0.746   2.314   0.761 -0.5738 -0.5264  0.9062
  281SOL    HW3 1170   0.703   2.185   0.694  0.4797 -0.0469 -0.7045
  281SOL    MW4 1171   0.698   2.272   0.702 -0.1919 -0.1745  0.3446
  282SOL     OW 1172   0.882   2.713   0.865  0.2698  0.1905 -0.5871
  282SOL    HW2 1173   0.907   2.711   0.957  0.3599 -0.0896 -0.6174
  282SOL    HW3 1174   0.879   2.621   0.839 -0.8874  0.2200 -0.5600
  282SOL    MW4 1175   0.885   2.701   0.873  0.1290  0.1574 -0.5875
  283SOL     OW 1176   0.153   2.863   0.495 -0.1247  0.3870  0.2155
  283SOL    HW2 1177   0.156   2.855   0.591 -0.2081 -0.3010  0.1598
  283SOL    HW3 1178   0.234   2.824   0.465 -0.8965 -1.0026 -0.1024
  283SOL    MW4 1179   0.164   2.857   0.504 -0.2375  0.1128  0.1662
  284SOL     OW 1180   2.925   4.603   0.850  0.2919  0.0561  0.4916
  284SOL    HW2 1181   2.987   4.657   0.801  0.2589 -0.0798  0.2984
  284SOL    HW3 1182   2.944   4.514   0.823  0.1844 -0.0094  0.6274
  284SOL    MW4 1183   2.935   4.599   0.840  0.2735  0.0291  0.4840
  285SOL     OW 1184   1.311   4.251   0.875 -0.0360  0.3333  0.1461
  285SOL    HW2 1185   1.402   4.275   0.854  0.3315  0.7466  2.1070
  285SOL    HW3 1186   1.307   4.157   0.859 -0.0681  0.7664 -2.6721
  285SOL    MW4 1187   1.323   4.242   0.870  0.0083  0.4444  0.0330
  286SOL     OW 1188   0.481   3.508   0.870  0.1122  0.0344 -0.4871
  286SOL    HW2 1189   0.472   3.523   0.964 -0.2555  2.4763 -0.8736
  286SOL    HW3 1190   0.550   3.569   0.843 -1.9049  1.6069 -2.2978
  286SOL    MW4 1191   0.489   3.518   0.878 -0.2025  0.5641 -0.7770
  287SOL     OW 1192   0.767   0.200   0.525 -0.3757  0.4857  0.2889
  287SOL    HW2 1193   0.821   0.213   0.604 -0.3357 -1.3552  0.5819
  287SOL    HW3 1194   0.771   0.106   0.509  0.3666  0.9620 -2.4720
  287SOL    MW4 1195   0.774   0.190   0.534 -0.2726  0.3056 -0.0367
  288SOL     OW 1196   3.060   0.852   0.529 -0.0311 -0.1071  0.0559
  288SOL    HW2 1197   3.060   0.947   0.519 -0.2180 -0.0807  0.3159
  288SOL    HW3 1198   3.076   0.838   0.622  0.9514 -0.3454 -0.1435
  288SOL    MW4 1199   3.062   0.863   0.540  0.0737 -0.1351  0.0639
  289SOL     OW 1200   4.273   3.842   0.873  0.3459  0.3787  0.0161
  289SOL    HW2 1201   4.276   3.847   0.969 -1.5665  0.0648  0.1153
  289SOL    HW3 1202   4.335   3.908   0.844 -0.2066  1.5702  1.4794
  289SOL    MW4 1203   4.282   3.851   0.882  0.0210  0.4942  0.2223
  290SOL     OW 1204   0.567   0.688   0.306 -0.1859 -0.2006  0.2012
  290SOL    HW2 1205   0.528   0.775   0.304 -2.0037 -0.9773  0.6661
  290SOL    HW3 1206   0.547   0.650   0.220 -0.9006 -0.7866  0.6192
  290SOL    MW4 1207   0.559   0.694   0.295 -0.5201 -0.3804  0.3177
  291SOL     OW 1208   0.474   4.293   0.861  0.4371  0.0132  0.0248
  291SOL    HW2 1209   0.466   4.291   0.956  1.0743  0.0635  0.0822
  291SOL    HW3 1210   0.550   4.348   0.844  1.3259 -1.3247 -0.4511
  291SOL    MW4 1211   0.483   4.300   0.871  0.6385 -0.1569 -0.0305
  292SOL     OW 1212   3.793   0.509   0.792 -0.5372 -0.1935  0.1295
  292SOL    HW2 1213   3.793   0.600   0.821 -0.7693 -0.2136  0.1879
  292SOL    HW3 1214   3.818   0.514   0.699  0.3972 -0.1460  0.3802
  292SOL    MW4 1215   3.796   0.522   0.783 -0.4444 -0.1899  0.1703
  293SOL     OW 1216   2.465   4.519   0.513 -0.2404 -0.5134 -0.1656
  293SOL    HW2 1217   2.557   4.547   0.506 -0.7346  1.4306  0.8396
  293SOL    HW3 1218   2.464   4.459   0.587 -0.0535  0.6731  0.8029
  293SOL    MW4 1219   2.477   4.515   0.522 -0.2809 -0.1006  0.0948
  294SOL     OW 1220   4.435   0.366   0.397  0.3109  0.2830  0.2073
  294SOL    HW2 1221   4.486   0.446   0.388 -1.2241  1.2345 -0.1471
  294SOL    HW3 1222   4.415   0.339   0.307  0.4796 -0.2823  0.3336
  294SOL    MW4 1223   4.439   0.373   0.384  0.1307  0.3340  0.1771
  295SOL     OW 1224   0.906   0.430   0.844  0.2217 -0.0219  0.0010
  295SOL    HW2 1225   0.895   0.436   0.939  0.5366  0.4735  0.0064
  295SOL    HW3 1226   0.987   0.478   0.826 -1.5538  2.7158 -0.8987
  295SOL    MW4 1227   0.916   0.437   0.855  0.0290  0.4047 -0.1171
  296SOL     OW 1228   0.717   1.482   0.881  0.3640  0.5305 -0.0564
  296SOL    HW2 1229   0.665   1.557   0.854 -0.3368  0.1664  0.2517
  296SOL    HW3 1230   0.715   1.485   0.977 -0.8968 -0.7021 -0.0240
  296SOL    MW4 1231   0.710   1.492   0.890  0.1052  0.3197 -0.0115
  297SOL     OW 1232   1.127   0.559   0.783 -0.4374 -0.3540 -0.1294
  297SOL    HW2 1233   1.109   0.525   0.695  1.3220  0.1304 -0.6978
  297SOL    HW3 1234   1.203   0.508   0.813  1.1781  1.8435 -0.3195
  297SOL    MW4 1235   1.135   0.548   0.775  0.0077 -0.0001 -0.2295
  298SOL     OW 1236   0.687   2.810   0.525 -0.0270  0.5997  0.0109
  298SOL    HW2 1237   0.675   2.835   0.616 -0.1827 -0.6507  0.3438
  298SOL    HW3 1238   0.779   2.784   0.518 -0.1656  0.1096 -0.0365
  298SOL    MW4 1239   0.697   2.810   0.536 -0.0659  0.3703  0.0486
  299SOL     OW 1240   0.834   0.877   0.922 -0.3361  0.2777 -0.0993
  299SOL    HW2 1241   0.886   0.957   0.919  0.3608 -0.1336  0.9601
  299SOL    HW3 1242   0.898   0.806   0.916 -0.7923 -0.2286  0.8424
  299SOL    MW4 1243   0.849   0.878   0.920 -0.3043  0.1566  0.1647
  300SOL     OW 1244   1.831   1.638   0.734  0.0987 -0.1977 -0.2531
  300SOL    HW2 1245   1.751   1.609   0.778  0.9161 -2.2324 -0.0506
  300SOL    HW3 1246   1.898   1.578   0.765  1.5563  0.9970 -1.0412
  300SOL    MW4 1247   1.829   1.626   0.744  0.3988 -0.3086 -0.3304
  301SOL     OW 1248   1.208   1.506   0.808 -0.4476 -0.3185 -0.2474
  301SOL    HW2 1249   1.118   1.526   0.782 -0.5925  0.1616  0.5967
  301SOL    HW3 1250   1.218   1.413   0.789 -0.8787 -0.2039 -1.0452
  301SOL    MW4 1251   1.197   1.497   0.802 -0.5234 -0.2401 -0.2412
  302SOL     OW 1252   0.514   1.133   0.806  0.7483 -0.7002 -0.3325
  302SOL    HW2 1253   0.523   1.043   0.776 -0.4838 -0.1526 -2.4006
  302SOL    HW3 1254   0.591   1.177   0.771  0.9522 -0.7667  0.0275
  302SOL    MW4 1255   0.526   1.127   0.798  0.6127 -0.6367 -0.5579
  303SOL     OW 1256   2.426   1.748   0.473  0.0251 -0.4370  0.5450
  303SOL    HW2 1257   2.382   1.729   0.390 -0.9511 -1.8280  1.3444
  303SOL    HW3 1258   2.436   1.843   0.474  0.9513 -0.4894 -1.6034
  303SOL    MW4 1259   2.422   1.758   0.462  0.0184 -0.6275  0.3670
  304SOL     OW 1260   4.039   1.809   0.508 -0.2247  0.0952 -0.1295
  304SOL    HW2 1261   4.113   1.787   0.452  0.6485  1.3903  0.4902
  304SOL    HW3 1262   4.046   1.750   0.582  0.9823  1.1114  0.5825
  304SOL    MW4 1263   4.050   1.798   0.510  0.0505  0.4003  0.0463
  305SOL     OW 1264   1.305   4.067   0.506 -0.3081  0.0346 -0.1551
  305SOL    HW2 1265   1.381   4.042   0.453  0.6325  0.0098  1.1549
  305SOL    HW3 1266   1.328   4.038   0.594 -0.4789  2.7944  0.8608
  305SOL    MW4 1267   1.318   4.060   0.511 -0.2065  0.3953  0.1518
  306SOL     OW 1268   3.542   4.487   0.477  0.0217 -0.3288 -0.6260
  306SOL    HW2 1269   3.568   4.579   0.472 -0.7034 -0.1738 -1.7841
  306SOL    HW3 1270   3.451   4.486   0.446 -0.2795 -1.3131  0.2329
  306SOL    MW4 1271   3.533   4.499   0.472 -0.1135 -0.4382 -0.6655
  307SOL     OW 1272   1.347   2.742   0.858 -0.3878  0.3237  0.2043
  307SOL    HW2 1273   1.373   2.746   0.950  1.4694  0.6952 -0.3230
  307SOL    HW3 1274   1.344   2.649   0.838 -0.6706  0.2441  0.5943
  307SOL    MW4 1275   1.350   2.730   0.868 -0.1800  0.3622  0.1862
  308SOL     OW 1276   3.430   2.789   0.512 -0.2968  0.4807  0.2437
  308SOL    HW2 1277   3.524   2.789   0.529 -0.5346 -0.4848  1.6593
  308SOL    HW3 1278   3.414   2.869   0.462  1.0422  1.4248  1.3175
  308SOL    MW4 1279   3.440   2.799   0.507 -0.1512  0.4783  0.5722
  309SOL     OW 1280   4.241   1.570   0.337 -0.1520  0.2015  0.4955
  309SOL    HW2 1281   4.154   1.532   0.334  0.0291 -0.1705 -0.0891
  309SOL    HW3 1282   4.300   1.495   0.335  0.2477  0.5233 -2.5296
  309SOL    MW4 1283   4.237   1.555   0.336 -0.0753  0.1949  0.0192
  310SOL     OW 1284   0.714   3.936   0.897 -0.4103 -0.0147  0.1261
  310SOL    HW2 1285   0.788   3.972   0.848  1.5359 -1.5249  1.8226
  310SOL    HW3 1286   0.720   3.841   0.882  0.5194 -0.5537  3.6036
  310SOL    MW4 1287   0.725   3.928   0.888 -0.0309 -0.2851  0.8088
  311SOL     OW 1288   0.324   0.057   0.428  0.4236  0.4060  0.1512
  311SOL    HW2 1289   0.321  -0.038   0.438 -0.0255  0.3459 -0.4988
  311SOL    HW3 1290   0.238   0.087   0.458  0.0337  0.4627 -0.9794
  311SOL    MW4 1291   0.312   0.048   0.433  0.3129  0.4056 -0.0837
  312SOL     OW 1292   1.598   2.848   0.758 -0.1067  0.0624  0.0659
  312SOL    HW2 1293   1.674   2.794   0.780 -1.6507 -2.2011 -0.0314
  312SOL    HW3 1294   1.525   2.808   0.806 -1.3763  1.8208 -0.3381
  312SOL    MW4 1295   1.598   2.835   0.767 -0.4780 -0.0043 -0.0002
  313SOL     OW 1296   1.380   0.150   0.779  0.6812  0.1126 -0.0333
  313SOL    HW2 1297   1.308   0.090   0.796 -0.0340  0.6793 -1.0656
  313SOL    HW3 1298   1.392   0.148   0.684  1.2599  0.9121  0.0137
  313SOL    MW4 1299   1.372   0.141   0.769  0.6632  0.2929 -0.1633
  314SOL     OW 1300   0.902   3.490   0.886  0.6984  0.1645 -0.2854
  314SOL    HW2 1301   0.907   3.402   0.848  0.3242  0.3135 -0.6954
  314SOL    HW3 1302   0.979   3.535   0.850  0.9595 -0.0335  0.0252
  314SOL    MW4 1303   0.913   3.484   0.876  0.6835  0.1583 -0.2986
  315SOL     OW 1304   0.917   4.255   0.871  0.0289  0.3998  0.2375
  315SOL    HW2 1305   0.846   4.311   0.839 -0.0921  0.0250 -0.1524
  315SOL    HW3 1306   0.921   4.183   0.808 -1.6396 -1.4894  2.2261
  315SOL    MW4 1307   0.908   4.253   0.858 -0.2071  0.1011  0.4484
  316SOL     OW 1308   1.724   2.223   0.387  0.1541 -0.3517  0.1070
  316SOL    HW2 1309   1.642   2.272   0.399  0.5142  0.7584 -1.6720
  316SOL    HW3 1310   1.696   2.135   0.363 -0.5344 -0.0030 -0.3947
  316SOL    MW4 1311   1.709   2.218   0.385  0.1107 -0.1593 -0.1939
  317SOL     OW 1312   1.777   0.354   0.827  0.4188 -0.0264  0.0361
  317SOL    HW2 1313   1.759   0.264   0.800 -0.2102  0.0201  0.2940
  317SOL    HW3 1314   1.692   0.398   0.822  0.4178  0.1482  1.4632
  317SOL    MW4 1315   1.763   0.348   0.822  0.3357  0.0027  0.2584
  318SOL     OW 1316   3.393   2.010   0.476  0.6304 -0.1823  0.3516
  318SOL    HW2 1317   3.480   2.023   0.439  0.8209 -1.0410  0.4915
  318SOL    HW3 1318   3.403   2.035   0.568  0.5581  0.3711  0.2127
  318SOL    MW4 1319   3.406   2.015   0.484  0.6461 -0.2224  0.3518
  319SOL     OW 1320   0.766   4.129   0.353  0.3555  0.2537  0.4817
  319SOL    HW2 1321   0.838   4.075   0.385  0.4934  0.4175  0.4459
  319SOL    HW3 1322   0.791   4.152   0.263 -0.3637 -0.8102 -0.0094
  319SOL    MW4 1323   0.779   4.124   0.345  0.2789  0.1354  0.4122
  320SOL     OW 1324   0.873   3.232   0.781 -0.1077  0.3615 -0.2163
  320SOL    HW2 1325   0.785   3.209   0.811  0.1513 -0.5303 -0.1409
  320SOL    HW3 1326   0.929   3.164   0.816  0.5221  0.5478 -0.8493
  320SOL    MW4 1327   0.869   3.220   0.790  0.0095  0.2685 -0.2899
  321SOL     OW 1328   3.342   0.446   0.739 -0.2326  0.0180  0.6916
  321SOL    HW2 1329   3.411   0.386   0.765  0.0566  0.6272  1.3386
  321SOL    HW3 1330   3.365   0.529   0.780 -1.1558  0.3190  0.6206
  321SOL    MW4 1331   3.354   0.449   0.748 -0.3161  0.1380  0.7676
  322SOL     OW 1332   1.803   0.878   0.471 -1.2808 -0.4156  0.4818
  322SOL    HW2 1333   1.805   0.786   0.445 -2.1823 -0.2496 -0.2186
  322SOL    HW3 1334   1.729   0.914   0.423 -1.1266  0.6037  1.0028
  322SOL    MW4 1335   1.793   0.871   0.462 -1.3793 -0.2593  0.4581
  323SOL     OW 1336   2.446   1.241   0.722 -0.1067 -0.0546  0.4801
  323SOL    HW2 1337   2.442   1.262   0.628 -0.4588 -0.4803  0.3970
  323SOL    HW3 1338   2.369   1.186   0.737 -0.0960  0.0870  1.0385
  323SOL    MW4 1339   2.435   1.236   0.711 -0.1519 -0.0920  0.5429
  324SOL     OW 1340   1.832   4.628   0.506 -0.1397  0.0084 -0.2139
  324SOL    HW2 1341   1.823   4.663   0.595 -0.4370 -0.5702 -0.0120
  324SOL    HW3 1342   1.875   4.698   0.457  0.6017  0.0861  0.5387
  324SOL    MW4 1343   1.836   4.642   0.512 -0.0812 -0.0582 -0.0880
  325SOL     OW 1344   4.288   0.029   0.432  0.0008 -0.5244  0.4065
  325SOL    HW2 1345   4.306  -0.065   0.433 -2.4225 -1.0403 -0.6613
  325SOL    HW3 1346   4.370   0.069   0.460  1.0551 -2.9508  0.9668
  325SOL    MW4 1347   4.301   0.022   0.436 -0.1798 -0.9127  0.3395
  326SOL     OW 1348   0.036   1.741   0.537  0.3607  0.2605  0.0197
  326SOL    HW2 1349  -0.044   1.760   0.487 -0.0167  0.3026  0.6303
  326SOL    HW3 1350   0.085   1.824   0.534  0.1336  0.3988  0.0995
  326SOL    MW4 1351   0.032   1.755   0.530  0.2810  0.2844  0.1108
  327SOL     OW 1352   0.940   1.858   0.879 -0.1853 -0.5699  0.5423
  327SOL    HW2 1353   0.937   1.872   0.974 -0.7243 -0.0882  0.4597
  327SOL    HW3 1354   1.006   1.920   0.848 -1.1130  0.3895  0.4253
  327SOL    MW4 1355   0.948   1.868   0.888 -0.3788 -0.3798  0.5159
  328SOL     OW 1356   0.692   2.063   0.343 -0.0392 -0.0566  0.0290
  328SOL    HW2 1357   0.721   2.060   0.252  1.4084 -0.1468  0.4879
  328SOL    HW3 1358   0.745   1.998   0.388  0.3386  1.0575  1.2347
  328SOL    MW4 1359   0.703   2.054   0.336  0.2016  0.0784  0.2486
  329SOL     OW 1360   3.813   4.362   0.774  0.0156  0.1092 -0.2084
  329SOL    HW2 1361   3.891   4.319   0.809 -1.9263 -1.5710  2.3220
  329SOL    HW3 1362   3.810   4.447   0.818 -0.4938 -0.5515  1.0676
  329SOL    MW4 1363   3.823   4.367   0.785 -0.3078 -0.1993  0.2937
  330SOL     OW 1364   0.977   3.415   0.235 -0.7048  0.3208 -0.1004
  330SOL    HW2 1365   0.893   3.372   0.254 -0.8362  0.9710  0.7824
  330SOL    HW3 1366   0.970   3.501   0.276 -0.4487  1.2250 -1.8878
  330SOL    MW4 1367   0.965   3.420   0.243 -0.6884  0.5260 -0.2197
  331SOL     OW 1368   1.048   2.577   0.395 -0.0733 -0.7250 -0.5246
  331SOL    HW2 1369   1.035   2.668   0.424  0.0590 -0.9435  0.2301
  331SOL    HW3 1370   0.963   2.535   0.411  0.1067 -0.9352 -0.1151
  331SOL    MW4 1371   1.035   2.584   0.401 -0.0322 -0.7815 -0.3710
  332SOL     OW 1372   1.826   2.468   0.750 -0.2281  0.0512 -0.0793
  332SOL    HW2 1373   1.844   2.463   0.657 -2.0402  1.0518 -0.5063
  332SOL    HW3 1374   1.737   2.433   0.759 -0.1139  0.0762  1.2471
  332SOL    MW4 1375   1.817   2.463   0.739 -0.4520  0.1864  0.0393
  333SOL     OW 1376   1.565   3.101   0.849 -0.4816  0.5991  0.0676
  333SOL    HW2 1377   1.598   3.013   0.830  1.1069  1.0413  0.7884
  333SOL    HW3 1378   1.552   3.102   0.944  0.1374  1.3608  0.1482
  333SOL    MW4 1379   1.567   3.089   0.859 -0.1904  0.7579  0.1734
  334SOL     OW 1380   3.178   2.687   0.435 -0.4856 -0.2240 -0.1747
  334SOL    HW2 1381   3.268   2.708   0.460 -0.6646  0.8128 -0.3714
  334SOL    HW3 1382   3.169   2.594   0.453  0.0287  0.0752  1.6582
  334SOL    MW4 1383   3.189   2.678   0.440 -0.4418 -0.0479  0.0412
  335SOL     OW 1384   1.802   3.497   0.890 -0.0412  0.4523 -0.3386
  335SOL    HW2 1385   1.851   3.542   0.822 -2.3872  1.0298 -1.7010
  335SOL    HW3 1386   1.793   3.407   0.858  0.3380  0.2845  0.0230
  335SOL    MW4 1387   1.807   3.491   0.877 -0.3006  0.5066 -0.4706
  336SOL     OW 1388   2.189   0.701   0.447  0.2789 -0.4509 -0.1766
  336SOL    HW2 1389   2.250   0.736   0.382 -0.5146  0.2254 -0.5701
  336SOL    HW3 1390   2.218   0.738   0.530 -0.0104  0.4404 -0.4644
  336SOL    MW4 1391   2.201   0.711   0.450  0.1359 -0.2441 -0.2665
  337SOL     OW 1392   1.092   3.859   0.890  0.4597 -0.2019  0.3848
  337SOL    HW2 1393   1.107   3.774   0.849 -0.6817 -0.6957  0.9609
  337SOL    HW3 1394   1.097   3.842   0.984  0.3937  0.4041  0.5014
  337SOL    MW4 1395   1.095   3.846   0.897  0.3004 -0.1872  0.4762
  338SOL     OW 1396   2.238   3.788   0.428 -0.0058 -0.0533  0.2151
  338SOL    HW2 1397   2.326   3.750   0.424 -0.2705 -0.9009  2.2904
  338SOL    HW3 1398   2.254   3.883   0.423  0.7596 -0.2711 -2.9872
  338SOL    MW4 1399   2.252   3.796   0.427  0.0598 -0.1938  0.0664
  339SOL     OW 1400   1.420   0.110   0.513  0.3342 -0.2986 -0.2453
  339SOL    HW2 1401   1.326   0.096   0.502  0.1107  1.9478 -1.2461
  339SOL    HW3 1402   1.437   0.196   0.476  2.8146 -0.6962 -0.1241
  339SOL    MW4 1403   1.410   0.119   0.507  0.6319 -0.0547 -0.3613
  340SOL     OW 1404   0.755   1.525   0.404 -0.0166 -0.3066 -0.3610
  340SOL    HW2 1405   0.729   1.434   0.388  1.0529 -0.6396 -0.1832
  340SOL    HW3 1406   0.671   1.572   0.412 -0.5871 -1.4413  0.5386
  340SOL    MW4 1407   0.740   1.519   0.403  0.0493 -0.5003 -0.2189
  341SOL     OW 1408   2.009   4.400   0.837  0.1451 -0.1096  0.1958
  341SOL    HW2 1409   2.083   4.340   0.849  0.4028  0.0973 -0.3668
  341SOL    HW3 1410   1.932   4.346   0.854  0.3873 -0.5402 -0.0526
  341SOL    MW4 1411   2.008   4.385   0.841  0.2110 -0.1388  0.0888
  342SOL     OW 1412   2.287   1.629   0.657 -0.6956 -0.3342  0.1824
  342SOL    HW2 1413   2.361   1.586   0.702 -0.3779  0.5530  0.5133
  342SOL    HW3 1414   2.328   1.683   0.590 -1.0907 -0.3878 -0.1013
  342SOL    MW4 1415   2.302   1.630   0.654 -0.7057 -0.2242  0.1886
  343SOL     OW 1416   0.738   1.256   0.713 -0.3032  0.6720  0.2120
  343SOL    HW2 1417   0.744   1.342   0.755  0.3019  1.0592 -0.6354
  343SOL    HW3 1418   0.744   1.275   0.619  0.4415 -0.3450  0.0420
  343SOL    MW4 1419   0.740   1.270   0.706 -0.1251  0.5889  0.0778
  344SOL     OW 1420   1.343   0.412   0.897 -0.2176 -0.3337  0.5596
  344SOL    HW2 1421   1.355   0.322   0.866  1.3263 -0.3094  1.0615
  344SOL    HW3 1422   1.332   0.403   0.992 -0.2010 -0.0017  0.5926
  344SOL    MW4 1423   1.343   0.399   0.906 -0.0116 -0.2867  0.6301
  345SOL     OW 1424   3.246   3.500   0.504 -0.2874 -0.1015  0.2884
  345SOL    HW2 1425   3.280   3.554   0.432 -0.8609  1.7494  1.3702
  345SOL    HW3 1426   3.298   3.525   0.580  1.7833 -3.6162  0.1309
  345SOL    MW4 1427   3.257   3.511   0.504 -0.0896 -0.3211  0.4103
  346SOL     OW 1428   3.143   0.068   0.481  0.0130  0.0547  0.1512
  346SOL    HW2 1429   3.062   0.093   0.437 -1.1094 -2.4561  0.6870
  346SOL    HW3 1430   3.125   0.082   0.574  0.3845 -0.0072  0.2330
  346SOL    MW4 1431   3.130   0.073   0.488 -0.0858 -0.2847  0.2326
  347SOL     OW 1432   1.990   1.843   0.352 -0.0845 -0.0250 -0.5734
  347SOL    HW2 1433   1.912   1.791   0.376  0.2753  0.1246  1.0120
  347SOL    HW3 1434   1.985   1.920   0.408  0.6158  0.5297 -1.2720
  347SOL    MW4 1435   1.979   1.846   0.363  0.0553  0.0679 -0.4564
  348SOL     OW 1436   1.972   1.347   0.382  0.2180 -0.1979 -0.5643
  348SOL    HW2 1437   2.057   1.392   0.383  0.1641 -0.1173  0.9223
  348SOL    HW3 1438   1.994   1.254   0.379  0.3603 -0.1887  0.1914
  348SOL    MW4 1439   1.986   1.341   0.382  0.2296 -0.1860 -0.2685
  349SOL     OW 1440   0.431   3.240   0.754 -0.1721  0.3106  0.4911
  349SOL    HW2 1441   0.441   3.333   0.775 -0.2660  0.3227  0.4855
  349SOL    HW3 1442   0.416   3.238   0.659 -1.5094  0.3997  0.6839
  349SOL    MW4 1443   0.430   3.252   0.744 -0.3610  0.3240  0.5158
  350SOL     OW 1444   1.360   1.947   0.806  0.2957  0.0187 -0.1665
  350SOL    HW2 1445   1.366   1.858   0.769  2.3068 -0.5176  1.3189
  350SOL    HW3 1446   1.346   1.933   0.899 -0.6610  1.3031 -0.1057
  350SOL    MW4 1447   1.359   1.933   0.813  0.4349  0.1174  0.0375
  351SOL     OW 1448   1.795   1.901   0.843 -0.2214  0.1589 -0.4286
  351SOL    HW2 1449   1.801   1.813   0.806  0.1155  0.2025 -0.4784
  351SOL    HW3 1450   1.880   1.940   0.826 -0.2329  0.3540 -0.0521
  351SOL    MW4 1451   1.807   1.894   0.836 -0.1785  0.1904 -0.3855
  352SOL     OW 1452   0.073   4.267   0.457 -0.6548 -0.0334  0.3640
  352SOL    HW2 1453   0.004   4.332   0.446 -0.2217  0.6470  1.6491
  352SOL    HW3 1454   0.027   4.183   0.449 -1.6956  0.4093  1.5862
  352SOL    MW4 1455   0.058   4.264   0.454 -0.7350  0.1144  0.6948
  353SOL     OW 1456   1.612   2.061   0.707  0.0458  0.0627  0.4734
  353SOL    HW2 1457   1.678   2.025   0.767  0.0459 -0.1961  0.3219
  353SOL    HW3 1458   1.531   2.016   0.731 -0.0056  0.1411  0.4458
  353SOL    MW4 1459   1.610   2.050   0.718  0.0391  0.0389  0.4497
  354SOL     OW 1460   0.020   3.726   0.434 -0.0409 -0.2825  0.6914
  354SOL    HW2 1461   0.020   3.706   0.340 -1.1687  0.4774  0.5125
  354SOL    HW3 1462   0.082   3.664   0.472  1.4060  0.2509 -0.7412
  354SOL    MW4 1463   0.028   3.715   0.426  0.0010 -0.1118  0.4788
  355SOL     OW 1464   1.908   3.654   0.699 -0.0849 -0.3089 -0.1278
  355SOL    HW2 1465   1.869   3.677   0.614 -1.6104 -1.1431  0.3297
  355SOL    HW3 1466   1.940   3.737   0.734 -0.4995  0.2221 -0.9905
  355SOL    MW4 1467   1.907   3.668   0.692 -0.3409 -0.3488 -0.1813
  356SOL     OW 1468   1.030   0.917   0.354 -0.3129  0.3850 -0.1661
  356SOL    HW2 1469   1.043   0.907   0.449  1.6082  0.0634 -0.4302
  356SOL    HW3 1470   1.088   0.851   0.316  0.9318  2.2762 -1.6134
  356SOL    MW4 1471   1.040   0.907   0.362  0.1049  0.5921 -0.3919
  357SOL     OW 1472   1.990   3.078   0.900  0.3261 -0.1397  0.2426
  357SOL    HW2 1473   2.062   3.124   0.857 -0.3218 -0.5682 -1.3379
  357SOL    HW3 1474   1.991   2.991   0.861 -0.3330 -0.5135  1.0500
  357SOL    MW4 1475   2.000   3.073   0.889  0.1538 -0.2456  0.1406
  358SOL     OW 1476   1.636   3.341   0.337 -0.1985  0.5083 -0.2858
  358SOL    HW2 1477   1.680   3.290   0.405 -0.4638 -0.0636 -0.5399
  358SOL    HW3 1478   1.707   3.379   0.286  0.0079  1.6678  0.8429
  358SOL    MW4 1479   1.651   3.339   0.340 -0.2062  0.5860 -0.1704
  359SOL     OW 1480   2.983   3.595   0.518 -0.0098  0.0440  0.2418
  359SOL    HW2 1481   3.074   3.569   0.507  0.3474  1.1795  0.4456
  359SOL    HW3 1482   2.975   3.677   0.470 -1.3015 -0.7864 -1.0266
  359SOL    MW4 1483   2.994   3.602   0.510 -0.1330  0.0844  0.1013
  360SOL     OW 1484   2.523   3.724   0.459 -0.4183  0.2857  0.1656
  360SOL    HW2 1485   2.517   3.703   0.552  0.4984  1.8760  0.6012
  360SOL    HW3 1486   2.582   3.799   0.455 -0.7290  0.4580 -1.6718
  360SOL    MW4 1487   2.530   3.731   0.471 -0.3381  0.5183 -0.0194
  361SOL     OW 1488   1.998   3.888   0.822  0.4953 -0.1102 -0.0695
  361SOL    HW2 1489   2.003   3.906   0.916 -0.6802 -1.1973  0.2151
  361SOL    HW3 1490   1.933   3.949   0.788  0.3441 -0.2508 -0.0339
  361SOL    MW4 1491   1.990   3.898   0.830  0.3203 -0.2720 -0.0273
  362SOL     OW 1492   1.586   3.612   0.742  0.4062  0.2766  0.5555
  362SOL    HW2 1493   1.662   3.571   0.784  0.2146  1.5115  2.1911
  362SOL    HW3 1494   1.589   3.703   0.772 -1.4588  0.4428  0.2940
  362SOL    MW4 1495   1.597   3.619   0.752  0.1348  0.4616  0.7368
  363SOL     OW 1496   1.791   4.252   0.897  0.2382 -0.2529 -0.3627
  363SOL    HW2 1497   1.813   4.267   0.989 -0.0371  0.4915 -0.4142
  363SOL    HW3 1498   1.705   4.291   0.887 -0.2368 -1.3796 -0.6527
  363SOL    MW4 1499   1.783   4.259   0.908  0.1392 -0.3037 -0.4077
  364SOL     OW 1500   2.033   4.444   0.549 -0.7972 -0.3858  0.3681
  364SOL    HW2 1501   2.037   4.434   0.645  0.1323 -1.3735  0.2439
  364SOL    HW3 1502   1.958   4.501   0.534 -0.4981  0.4044  1.7358
  364SOL    MW4 1503   2.024   4.450   0.560 -0.6351 -0.4120  0.5322
  365SOL     OW 1504   2.465   4.605   0.871  0.0505  0.1236 -0.1792
  365SOL    HW2 1505   2.465   4.642   0.959 -0.9737 -0.4650  0.0808
  365SOL    HW3 1506   2.544   4.640   0.830  0.6504  0.2270  1.0444
  365SOL    MW4 1507   2.476   4.614   0.877 -0.0055  0.0601  0.0166
  366SOL     OW 1508   2.241   0.821   0.693  0.1368  0.0406  0.1361
  366SOL    HW2 1509   2.156   0.799   0.730 -0.6465  0.4566 -1.3659
  366SOL    HW3 1510   2.304   0.777   0.750 -1.0052  0.6726  1.9609
  366SOL    MW4 1511   2.238   0.813   0.705 -0.1171  0.1789  0.1786
  367SOL     OW 1512   1.998   0.757   0.838  0.3967 -0.2978 -0.0359
  367SOL    HW2 1513   1.986   0.677   0.787  0.6621  0.3782 -1.1683
  367SOL    HW3 1514   1.935   0.819   0.801  1.0041  0.3824  0.0615
  367SOL    MW4 1515   1.988   0.755   0.827  0.5119 -0.1189 -0.1724
  368SOL     OW 1516   4.450   1.219   0.508  0.4546  0.0607  0.0299
  368SOL    HW2 1517   4.404   1.221   0.592  0.7201  0.1704  0.1723
  368SOL    HW3 1518   4.396   1.162   0.453  1.6963 -2.2347  1.1145
  368SOL    MW4 1519   4.437   1.212   0.512  0.6537 -0.2276  0.1918
  369SOL     OW 1520   2.043   3.334   0.437 -0.1948 -0.0371  0.5289
  369SOL    HW2 1521   2.000   3.362   0.357 -0.9897  0.8506  1.2551
  369SOL    HW3 1522   2.067   3.415   0.482  0.0242 -0.5251  1.3016
  369SOL    MW4 1523   2.040   3.348   0.433 -0.2708  0.0155  0.7266
  370SOL     OW 1524   2.237   1.701   0.272 -0.2987  0.2061 -0.4263
  370SOL    HW2 1525   2.180   1.767   0.313  0.2276  0.9034 -0.7968
  370SOL    HW3 1526   2.187   1.671   0.196 -1.0504 -0.7016  0.4245
  370SOL    MW4 1527   2.223   1.706   0.268 -0.3285  0.1782 -0.3630
  371SOL     OW 1528   2.236   1.068   0.794 -0.0503  0.4517  0.3947
  371SOL    HW2 1529   2.255   1.067   0.888 -0.5420  0.4282  0.4976
  371SOL    HW3 1530   2.244   0.976   0.767 -1.5931  0.1927  0.7684
  371SOL    MW4 1531   2.240   1.056   0.803 -0.3185  0.4144  0.4576
  372SOL     OW 1532   2.202   2.175   0.378  0.2067  0.4237  0.0683
  372SOL    HW2 1533   2.231   2.212   0.295  2.4405  2.8322  1.8320
  372SOL    HW3 1534   2.278   2.127   0.412  0.5113  2.4009  2.3180
  372SOL    MW4 1535   2.216   2.173   0.372  0.5419  1.0026  0.5978
  373SOL     OW 1536   2.831   2.398   0.469  0.1658  0.1562 -0.2825
  373SOL    HW2 1537   2.818   2.426   0.560  0.3728  1.1425 -0.5422
  373SOL    HW3 1538   2.926   2.397   0.458  0.1464 -0.2091 -0.4175
  373SOL    MW4 1539   2.842   2.402   0.480  0.1907  0.2384 -0.3345
  374SOL     OW 1540   2.471   2.022   0.747 -0.1420 -0.1294 -0.0412
  374SOL    HW2 1541   2.407   1.965   0.787  1.0107 -1.1422  0.3958
  374SOL    HW3 1542   2.556   1.987   0.775  0.5846  1.8836  0.3677
  374SOL    MW4 1543   2.474   2.010   0.756  0.1059  0.0026  0.0705
  375SOL     OW 1544   2.186   2.425   0.482  0.1699  0.1760 -0.2362
  375SOL    HW2 1545   2.095   2.455   0.493  0.3080  0.3801  0.3534
  375SOL    HW3 1546   2.177   2.334   0.454 -0.2048 -0.1236  0.8355
  375SOL    MW4 1547   2.173   2.417   0.479  0.1385  0.1633 -0.0170
  376SOL     OW 1548   2.273   2.700   0.367 -0.2465 -0.0048 -0.1538
  376SOL    HW2 1549   2.262   2.617   0.413 -1.3742  0.1599 -0.1269
  376SOL    HW3 1550   2.307   2.675   0.281  1.2049 -0.3572  0.4975
  376SOL    MW4 1551   2.276   2.685   0.362 -0.2038 -0.0296 -0.0643
  377SOL     OW 1552   2.525   2.317   0.799  0.2851  0.3498 -0.1978
  377SOL    HW2 1553   2.497   2.228   0.777 -0.1018  0.2804  0.5567
  377SOL    HW3 1554   2.447   2.370   0.783  0.2707  0.4294  0.1315
  377SOL    MW4 1555   2.511   2.312   0.794  0.2322  0.3512 -0.0547
  378SOL     OW 1556   2.727   1.361   0.397  0.3064 -0.0092 -0.1984
  378SOL    HW2 1557   2.642   1.319   0.381 -0.0612 -0.1678  1.9272
  378SOL    HW3 1558   2.704   1.451   0.422  0.8359  0.2865 -0.7852
  378SOL    MW4 1559   2.713   1.367   0.398  0.3278  0.0089  0.0046
  379SOL     OW 1560   2.516   2.867   0.716 -0.2101  0.4356 -0.2834
  379SOL    HW2 1561   2.503   2.870   0.622 -0.0502  0.5009 -0.3043
  379SOL    HW3 1562   2.439   2.822   0.750  0.5028 -1.0803 -0.6051
  379SOL    MW4 1563   2.504   2.862   0.708 -0.0949  0.2441 -0.3286
  380SOL     OW 1564   2.708   2.700   0.824 -0.3660  0.2467  0.0589
  380SOL    HW2 1565   2.695   2.707   0.919  0.2761  1.4457  0.0712
  380SOL    HW3 1566   2.636   2.752   0.787 -0.4534  0.0098 -0.1022
  380SOL    MW4 1567   2.697   2.708   0.832 -0.2925  0.3736  0.0393
  381SOL     OW 1568   2.460   3.127   0.800  0.2830 -0.3334  0.1101
  381SOL    HW2 1569   2.461   3.112   0.894  1.2094 -0.8933  0.0201
  381SOL    HW3 1570   2.508   3.053   0.763  0.3090  0.1077 -0.7618
  381SOL    MW4 1571   2.467   3.115   0.807  0.4089 -0.3490 -0.0168
  382SOL     OW 1572   2.205   3.206   0.760 -0.0114 -0.3610  0.0327
  382SOL    HW2 1573   2.285   3.155   0.774  1.3078  1.8796  0.8173
  382SOL    HW3 1574   2.197   3.212   0.665  0.3369 -1.2100 -0.0579
  382SOL    MW4 1575   2.215   3.200   0.749  0.2089 -0.1771  0.1242
  383SOL     OW 1576   2.261   3.485   0.838  0.0430  0.2361  0.3530
  383SOL    HW2 1577   2.253   3.390   0.835  0.1898  0.2218  0.4015
  383SOL    HW3 1578   2.212   3.516   0.762  0.0209  0.1209  0.3204
  383SOL    MW4 1579   2.253   3.476   0.828  0.0594  0.2191  0.3551
  384SOL     OW 1580   3.151   4.059   0.478  0.1506  0.2802 -0.1461
  384SOL    HW2 1581   3.224   4.035   0.421 -0.8128  0.4713 -1.4849
  384SOL    HW3 1582   3.159   4.000   0.554  2.2353  0.9410  0.1823
  384SOL    MW4 1583   3.161   4.048   0.481  0.2985  0.3924 -0.2794
  385SOL     OW 1584   1.334   2.065   0.423  0.4964 -0.4238 -0.2179
  385SOL    HW2 1585   1.386   2.144   0.407  0.2509  0.0184  1.1090
  385SOL    HW3 1586   1.260   2.095   0.474  0.3483 -1.5039  0.2231
  385SOL    MW4 1587   1.331   2.079   0.428  0.4444 -0.5081  0.0154
  386SOL     OW 1588   1.577   2.879   0.278 -0.4199  0.4661 -0.7082
  386SOL    HW2 1589   1.533   2.857   0.360  1.9679 -0.4453  0.3781
  386SOL    HW3 1590   1.550   2.969   0.259 -1.4785  0.4611  0.7403
  386SOL    MW4 1591   1.567   2.888   0.286 -0.2445  0.3452 -0.3738
  387SOL     OW 1592   2.494   3.867   0.847 -0.5997 -0.1268 -0.1470
  387SOL    HW2 1593   2.503   3.779   0.810  0.9529  0.6043 -1.5791
  387SOL    HW3 1594   2.415   3.902   0.805 -0.3208 -0.2612 -0.7904
  387SOL    MW4 1595   2.485   3.860   0.837 -0.3581 -0.0482 -0.4209
  388SOL     OW 1596   4.070   2.433   0.728  0.2892 -0.2351 -0.3144
  388SOL    HW2 1597   4.143   2.397   0.778 -0.8171 -0.2645  1.3106
  388SOL    HW3 1598   3.992   2.389   0.763 -0.5870  0.3328 -1.5033
  388SOL    MW4 1599   4.069   2.422   0.739  0.0277 -0.1640 -0.2568
  389SOL     OW 1600   0.047   0.884   0.490 -0.4346 -0.2448 -0.0092
  389SOL    HW2 1601   0.129   0.930   0.470 -1.0066  0.7693 -0.0676
  389SOL    HW3 1602   0.032   0.901   0.583 -0.1569 -1.1165  0.1974
  389SOL    MW4 1603   0.056   0.892   0.500 -0.4734 -0.2260  0.0103
  390SOL     OW 1604   1.530   3.935   0.393 -0.2979 -0.1367  0.2726
  390SOL    HW2 1605   1.516   3.858   0.448 -2.1725  0.1543  0.2624
  390SOL    HW3 1606   1.581   3.904   0.319 -2.3518 -1.7476 -0.5136
  390SOL    MW4 1607   1.535   3.921   0.391 -0.8163 -0.3111  0.1675
  391SOL     OW 1608   2.252   0.380   0.806 -0.1510  0.1938  0.6386
  391SOL    HW2 1609   2.173   0.419   0.769 -0.2265  0.1047  0.7046
  391SOL    HW3 1610   2.252   0.290   0.773  0.9013  0.7309 -0.8775
  391SOL    MW4 1611   2.242   0.373   0.797 -0.0219  0.2529  0.4472
  392SOL     OW 1612   4.069   4.295   0.390 -0.3533  0.0630  0.2389
  392SOL    HW2 1613   4.007   4.358   0.426 -0.4197 -0.2659  0.7083
  392SOL    HW3 1614   4.029   4.210   0.407 -0.1752 -0.1114 -0.2224
  392SOL    MW4 1615   4.056   4.292   0.397 -0.3381 -0.0033  0.2399
  393SOL     OW 1616   3.145   0.831   0.779 -0.3066 -0.3193 -0.4141
  393SOL    HW2 1617   3.067   0.785   0.811 -0.3504 -0.7692 -1.1434
  393SOL    HW3 1618   3.139   0.918   0.817 -0.9420 -0.4916 -0.1150
  393SOL    MW4 1619   3.134   0.836   0.788 -0.3963 -0.4014 -0.4709
  394SOL     OW 1620   3.397   1.475   0.858  0.0597 -0.4488  0.1646
  394SOL    HW2 1621   3.385   1.505   0.948 -1.6244 -0.6954  0.0405
  394SOL    HW3 1622   3.325   1.515   0.809 -0.1968 -1.9090 -0.6816
  394SOL    MW4 1623   3.386   1.484   0.863 -0.1967 -0.6739  0.0366
  395SOL     OW 1624   1.532   4.421   0.520  0.0873 -0.2928  0.2930
  395SOL    HW2 1625   1.553   4.501   0.472 -0.6493  0.0951  0.5998
  395SOL    HW3 1626   1.454   4.387   0.477 -0.1558 -0.3312  0.7585
  395SOL    MW4 1627   1.524   4.427   0.508 -0.0420 -0.2460  0.3949
  396SOL     OW 1628   1.797   2.660   0.362  0.0096  0.2150  0.0264
  396SOL    HW2 1629   1.822   2.742   0.404 -1.3623 -0.0172  1.3499
  396SOL    HW3 1630   1.756   2.686   0.280  0.5730  0.7940 -0.0759
  396SOL    MW4 1631   1.795   2.674   0.357 -0.0972  0.2608  0.1876
  397SOL     OW 1632   3.307   0.772   0.400 -0.4313  0.4604 -0.3046
  397SOL    HW2 1633   3.225   0.800   0.443 -0.3948  1.7831 -1.0770
  397SOL    HW3 1634   3.294   0.792   0.308  0.0505 -1.0780 -0.7201
  397SOL    MW4 1635   3.294   0.778   0.394 -0.3631  0.4320 -0.4613
  398SOL     OW 1636   2.421   1.267   0.442 -0.0737 -0.3272  0.4770
  398SOL    HW2 1637   2.352   1.330   0.422 -0.7116 -1.0034  0.5228
  398SOL    HW3 1638   2.377   1.182   0.439  0.8715 -0.7984  0.0020
  398SOL    MW4 1639   2.406   1.264   0.439 -0.0334 -0.4786  0.4204
  399SOL     OW 1640   2.707   1.911   0.833  0.2298 -0.4517 -0.1274
  399SOL    HW2 1641   2.797   1.934   0.811  0.7759 -1.6243  0.8583
  399SOL    HW3 1642   2.707   1.902   0.928 -0.1536 -3.6998 -0.3997
  399SOL    MW4 1643   2.719   1.913   0.843  0.2513 -1.0350 -0.0333
  400SOL     OW 1644   1.054   1.221   0.443  0.3101 -0.1925 -0.0556
  400SOL    HW2 1645   1.116   1.263   0.383 -0.8743  0.5502 -0.7741
  400SOL    HW3 1646   1.047   1.131   0.411 -0.0517  0.1070 -0.8261
  400SOL    MW4 1647   1.061   1.214   0.431  0.1062 -0.0550 -0.2520
  401SOL     OW 1648   2.234   0.091   0.772  0.5398  0.3759 -0.8587
  401SOL    HW2 1649   2.231   0.059   0.682  1.8754  1.8809 -1.4681
  401SOL    HW3 1650   2.311   0.049   0.810 -0.2165 -0.5254 -0.2963
  401SOL    MW4 1651   2.244   0.081   0.765  0.6166  0.4556 -0.8649
  402SOL     OW 1652   2.757   2.438   0.743  0.4230  0.4113 -0.0652
  402SOL    HW2 1653   2.744   2.519   0.792  0.3063  0.3514  0.0027
  402SOL    HW3 1654   2.673   2.391   0.751  0.7523 -0.0762  0.5473
  402SOL    MW4 1655   2.744   2.443   0.750  0.4511  0.3390  0.0246
  403SOL     OW 1656   2.941   2.821   0.761  0.0950 -0.3692 -0.0912
  403SOL    HW2 1657   2.860   2.777   0.785  0.9200 -0.4529  2.7020
  403SOL    HW3 1658   3.007   2.785   0.821  1.6459  1.6396 -0.5184
  403SOL    MW4 1659   2.939   2.810   0.772  0.4086 -0.1149  0.2209
  404SOL     OW 1660   1.619   0.771   0.909 -0.0659 -0.3477 -1.0620
  404SOL    HW2 1661   1.540   0.824   0.901  0.1054 -0.0438 -0.7677
  404SOL    HW3 1662   1.687   0.821   0.864 -0.0979 -0.7317 -1.5421
  404SOL    MW4 1663   1.618   0.784   0.902 -0.0476 -0.3582 -1.0865
  405SOL     OW 1664   2.906   3.095   0.837  0.3415 -0.5506 -0.2188
  405SOL    HW2 1665   2.831   3.133   0.790  0.1673  0.2895  0.7098
  405SOL    HW3 1666   2.914   3.007   0.802  0.9419  0.4462 -2.6730
  405SOL    MW4 1667   2.897   3.089   0.826  0.3977 -0.3083 -0.4201
  406SOL     OW 1668   2.680   3.253   0.691 -0.0716 -0.2334  0.1471
  406SOL    HW2 1669   2.696   3.336   0.736 -0.4446 -0.3269  0.4610
  406SOL    HW3 1670   2.594   3.225   0.724 -1.0296  0.4345 -1.7389
  406SOL    MW4 1671   2.670   3.260   0.701 -0.2472 -0.1574 -0.0603
  407SOL     OW 1672   2.727   3.492   0.833 -0.4840  0.2341 -0.3101
  407SOL    HW2 1673   2.711   3.496   0.928 -0.2266 -0.4219 -0.2373
  407SOL    HW3 1674   2.813   3.532   0.822 -0.9516  1.2394 -0.3875
  407SOL    MW4 1675   2.736   3.498   0.844 -0.5121  0.2804 -0.3107
  408SOL     OW 1676   4.100   3.264   0.150  0.1195  0.1938 -0.4719
  408SOL    HW2 1677   4.080   3.184   0.198 -0.4203  0.6993  0.1528
  408SOL    HW3 1678   4.111   3.235   0.059  0.8896 -0.7236 -0.0984
  408SOL    MW4 1679   4.099   3.250   0.144  0.1497  0.1395 -0.3402
  409SOL     OW 1680   2.935   3.867   0.836 -0.7010  0.7855 -0.4614
  409SOL    HW2 1681   2.854   3.905   0.801 -0.5532  2.3243  0.8460
  409SOL    HW3 1682   2.934   3.889   0.929  0.8777  0.1912 -0.2897
  409SOL    MW4 1683   2.924   3.875   0.843 -0.4730  0.9103 -0.2663
  410SOL     OW 1684   2.558   4.169   0.410 -0.3526  0.0773  0.0248
  410SOL    HW2 1685   2.496   4.218   0.356  0.5747  0.6545 -0.5392
  410SOL    HW3 1686   2.618   4.236   0.443  0.3723 -0.5586  0.0049
  410SOL    MW4 1687   2.558   4.185   0.407 -0.1347  0.0696 -0.0523
  411SOL     OW 1688   2.689   4.273   0.811 -0.3811 -0.3487 -0.2687
  411SOL    HW2 1689   2.697   4.277   0.906  0.6923  1.0634 -0.4043
  411SOL    HW3 1690   2.775   4.299   0.778  0.0642 -3.3914 -1.6226
  411SOL    MW4 1691   2.701   4.277   0.819 -0.1807 -0.5636 -0.4653
  412SOL     OW 1692   1.158   3.625   0.772 -0.0149  0.1557  0.4361
  412SOL    HW2 1693   1.148   3.587   0.685 -0.2504 -0.1672  0.6029
  412SOL    HW3 1694   1.235   3.582   0.809  0.4804  0.7705  0.1399
  412SOL    MW4 1695   1.167   3.614   0.765  0.0193  0.1941  0.4190
  413SOL     OW 1696   3.343   4.628   0.832 -0.7116 -0.4761  0.2274
  413SOL    HW2 1697   3.358   4.632   0.927 -1.0962 -0.8231  0.3063
  413SOL    HW3 1698   3.422   4.664   0.793 -0.3303 -0.8275  0.6699
  413SOL    MW4 1699   3.356   4.633   0.840 -0.7119 -0.5684  0.2962
  414SOL     OW 1700   2.687   1.092   0.775  0.5854  0.6076  0.1763
  414SOL    HW2 1701   2.755   1.155   0.755  0.4653  0.6428 -0.1212
  414SOL    HW3 1702   2.605   1.138   0.758  0.4896  0.5448  0.4703
  414SOL    MW4 1703   2.685   1.106   0.770  0.5567  0.6040  0.1758
  415SOL     OW 1704   3.105   2.403   0.471 -0.1292 -0.0742 -0.4505
  415SOL    HW2 1705   3.138   2.392   0.561  0.1631  0.8247 -0.4472
  415SOL    HW3 1706   3.127   2.320   0.428 -0.4723 -0.6012  0.3676
  415SOL    MW4 1707   3.112   2.391   0.477 -0.1359 -0.0255 -0.3421
  416SOL     OW 1708   3.125   0.092   0.740 -0.6210 -0.5467  0.2259
  416SOL    HW2 1709   3.119   0.176   0.785  1.8672 -0.6247  0.7636
  416SOL    HW3 1710   3.205   0.052   0.773  0.0568 -1.6190 -2.5582
  416SOL    MW4 1711   3.134   0.097   0.750 -0.2034 -0.6985 -0.0705
  417SOL     OW 1712   3.383   0.690   0.858  0.3835  0.3323  0.1323
  417SOL    HW2 1713   3.449   0.749   0.821 -0.1903 -0.4740 -2.2644
  417SOL    HW3 1714   3.299   0.730   0.835 -0.0071 -1.0457 -0.9132
  417SOL    MW4 1715   3.381   0.703   0.850  0.2563  0.0442 -0.3218
  418SOL     OW 1716   2.678   2.190   0.358  1.1296  0.1326  0.0803
  418SOL    HW2 1717   2.735   2.260   0.392  1.8815 -0.3529 -0.1673
  418SOL    HW3 1718   2.710   2.173   0.270 -0.6693  1.2118 -0.8048
  418SOL    MW4 1719   2.690   2.197   0.351  0.9913  0.2110 -0.0691
  419SOL     OW 1720   3.080   1.579   0.403 -0.1466  0.1584  0.0733
  419SOL    HW2 1721   3.147   1.645   0.419 -0.7538  0.6282  0.7086
  419SOL    HW3 1722   3.001   1.629   0.383 -0.8968 -0.3328  1.6968
  419SOL    MW4 1723   3.078   1.594   0.402 -0.3257  0.1556  0.3714
  420SOL     OW 1724   3.190   1.592   0.716 -0.6824  0.1757  0.4916
  420SOL    HW2 1725   3.181   1.676   0.762  0.2579  1.2616 -1.2462
  420SOL    HW3 1726   3.214   1.616   0.627  1.4806 -2.0078  0.4320
  420SOL    MW4 1727   3.192   1.606   0.710 -0.2732  0.0308  0.2545
  421SOL     OW 1728   2.914   1.272   0.755 -0.3138 -0.1467 -0.0155
  421SOL    HW2 1729   2.988   1.224   0.794  0.2771 -0.4971 -1.5293
  421SOL    HW3 1730   2.939   1.284   0.664 -2.5720 -1.1263 -0.8024
  421SOL    MW4 1731   2.927   1.267   0.748 -0.5336 -0.3220 -0.3191
  422SOL     OW 1732   4.234   3.531   0.174 -0.2825 -0.2424  0.0155
  422SOL    HW2 1733   4.201   3.443   0.158 -0.4071 -0.2517  0.3197
  422SOL    HW3 1734   4.178   3.566   0.243  0.6258 -0.4315  0.8609
  422SOL    MW4 1735   4.222   3.524   0.181 -0.1793 -0.2685  0.1672
  423SOL     OW 1736   3.192   1.836   0.842  0.2557  0.1831  0.1962
  423SOL    HW2 1737   3.123   1.892   0.805  1.6808  2.5248  0.9685
  423SOL    HW3 1738   3.176   1.839   0.937 -0.9843 -2.5565  0.1140
  423SOL    MW4 1739   3.181   1.844   0.850  0.2799  0.1305  0.2872
  424SOL     OW 1740   0.082   0.608   0.396 -0.3171 -0.1185 -0.3310
  424SOL    HW2 1741   0.174   0.591   0.417 -0.0648  0.2746 -1.0992
  424SOL    HW3 1742   0.062   0.690   0.441 -0.5819 -0.6976  0.6374
  424SOL    MW4 1743   0.091   0.616   0.405 -0.3187 -0.1431 -0.3046
  425SOL     OW 1744   2.968   2.006   0.785 -0.0442  0.2716 -0.1026
  425SOL    HW2 1745   2.938   2.011   0.694 -0.9811  0.4276  0.2101
  425SOL    HW3 1746   2.979   2.097   0.812 -1.5331  0.2741  0.5116
  425SOL    MW4 1747   2.966   2.018   0.776 -0.3643  0.2923  0.0197
  426SOL     OW 1748   3.371   3.982   0.342 -0.1449 -0.1670  0.1506
  426SOL    HW2 1749   3.392   4.046   0.274  0.8090 -0.4690  0.1526
  426SOL    HW3 1750   3.442   3.992   0.406 -1.6124  0.8775  1.6484
  426SOL    MW4 1751   3.384   3.992   0.341 -0.2127 -0.0691  0.3484
  427SOL     OW 1752   3.391   2.772   0.774 -0.1924 -0.7968 -0.0123
  427SOL    HW2 1753   3.406   2.770   0.680  0.9990  0.8625  0.1215
  427SOL    HW3 1754   3.472   2.738   0.812 -0.8072 -1.8081  0.4121
  427SOL    MW4 1755   3.403   2.768   0.767 -0.1166 -0.7114  0.0615
  428SOL     OW 1756   3.923   3.406   0.316 -0.1810 -0.1024 -0.2605
  428SOL    HW2 1757   3.978   3.357   0.255  0.2652  1.0203 -0.7841
  428SOL    HW3 1758   3.949   3.376   0.402  0.7135 -0.1383 -0.5418
  428SOL    MW4 1759   3.934   3.396   0.319 -0.0043  0.0408 -0.3667
  429SOL     OW 1760   3.168   2.652   0.868  0.1191  0.2929  0.2067
  429SOL    HW2 1761   3.251   2.677   0.828 -0.6122  1.0329 -0.9062
  429SOL    HW3 1762   3.143   2.572   0.822  0.5261 -0.2776  0.9820
  429SOL    MW4 1763   3.176   2.645   0.856  0.0763  0.3152  0.1622
  430SOL     OW 1764   3.160   3.206   0.738  0.1893  0.0251 -0.0764
  430SOL    HW2 1765   3.217   3.151   0.791  0.9303  1.3068  0.4850
  430SOL    HW3 1766   3.072   3.171   0.753  0.8397 -2.1541 -1.1861
  430SOL    MW4 1767   3.156   3.194   0.747  0.3729 -0.0932 -0.1488
  431SOL     OW 1768   3.211   3.450   0.873  0.4580  0.3329  0.2947
  431SOL    HW2 1769   3.188   3.359   0.857  0.5047  0.3351  0.2104
  431SOL    HW3 1770   3.136   3.500   0.842  1.0968  0.4127 -1.1893
  431SOL    MW4 1771   3.198   3.445   0.866  0.5484  0.3438  0.0877
  432SOL     OW 1772   3.398   3.589   0.718 -0.3907 -0.2335  0.3059
  432SOL    HW2 1773   3.413   3.669   0.769 -0.3931 -0.8180  1.2161
  432SOL    HW3 1774   3.353   3.530   0.778  0.3475 -1.2276 -0.1096
  432SOL    MW4 1775   3.394   3.592   0.732 -0.2937 -0.4420  0.3711
  433SOL     OW 1776   3.590   4.019   0.764 -0.1910  0.5899  0.1198
  433SOL    HW2 1777   3.674   3.977   0.784 -0.1553  0.6194  0.0299
  433SOL    HW3 1778   3.589   4.098   0.818 -1.7499 -1.2473  2.9591
  433SOL    MW4 1779   3.601   4.024   0.774 -0.3920  0.3510  0.4825
  434SOL     OW 1780   3.191   4.236   0.834 -0.2525  0.3768 -0.0321
  434SOL    HW2 1781   3.170   4.157   0.786 -1.4638  1.6635 -1.6880
  434SOL    HW3 1782   3.249   4.285   0.775  0.3260  0.8130  0.8846
  434SOL    MW4 1783   3.196   4.232   0.820 -0.3357  0.6046 -0.1296
  435SOL     OW 1784   2.962   4.356   0.749  0.3559  0.0430 -0.3463
  435SOL    HW2 1785   3.016   4.303   0.808  0.0835 -0.4929 -0.5828
  435SOL    HW3 1786   3.009   4.355   0.666  0.9990  1.2112 -0.0145
  435SOL    MW4 1787   2.975   4.349   0.746  0.4046  0.1264 -0.3337
  436SOL     OW 1788   3.396   4.383   0.724 -0.0787 -0.4138  0.4534
  436SOL    HW2 1789   3.453   4.396   0.649 -0.3436 -1.6140  0.0284
  436SOL    HW3 1790   3.369   4.471   0.750  0.3215  0.0294 -0.6152
  436SOL    MW4 1791   3.400   4.396   0.718 -0.0608 -0.5136  0.2562
  437SOL     OW 1792   3.760   4.591   0.899  0.2132 -0.0854  0.1942
  437SOL    HW2 1793   3.836   4.646   0.876  0.6280 -0.6717  0.1645
  437SOL    HW3 1794   3.687   4.633   0.854  0.3688  0.9531  0.8697
  437SOL    MW4 1795   3.760   4.604   0.890  0.2882 -0.0253  0.2794
  438SOL     OW 1796   3.581   0.059   0.743  0.4974  0.4002  0.1032
  438SOL    HW2 1797   3.586   0.146   0.782  1.9444 -0.3940  1.7500
  438SOL    HW3 1798   3.615   0.070   0.654  1.0870  1.4334  0.4541
  438SOL    MW4 1799   3.586   0.072   0.736  0.7660  0.4317  0.3669
  439SOL     OW 1800   3.134   0.342   0.888  0.4796  0.1536 -0.4601
  439SOL    HW2 1801   3.214   0.387   0.858  0.6996 -1.0935 -1.8050
  439SOL    HW3 1802   3.142   0.339   0.983  0.1542  3.5277 -0.2504
  439SOL    MW4 1803   3.146   0.348   0.896  0.4656  0.4342 -0.6099
  440SOL     OW 1804   0.651   4.349   0.511  0.0600 -0.0501  0.1936
  440SOL    HW2 1805   0.671   4.267   0.468 -1.3812 -1.2240  1.6801
  440SOL    HW3 1806   0.556   4.358   0.504  0.2554  1.7357 -0.3909
  440SOL    MW4 1807   0.641   4.339   0.505 -0.1044  0.0310  0.3126
  441SOL     OW 1808   4.270   0.772   0.844 -0.4383 -0.2564 -0.2356
  441SOL    HW2 1809   4.191   0.826   0.832 -0.8020 -0.6352  0.4076
  441SOL    HW3 1810   4.341   0.827   0.811 -0.9281  0.2268 -0.5120
  441SOL    MW4 1811   4.269   0.787   0.839 -0.5507 -0.2425 -0.1872
  442SOL     OW 1812   3.830   0.770   0.880 -0.0648  0.2727  0.1923
  442SOL    HW2 1813   3.815   0.775   0.974  1.8726  0.7821  0.4849
  442SOL    HW3 1814   3.746   0.794   0.841 -0.9006 -0.0276  1.7813
  442SOL    MW4 1815   3.817   0.774   0.887  0.0803  0.3003  0.4405
  443SOL     OW 1816   3.584   0.873   0.801 -0.3972  0.2112 -0.3460
  443SOL    HW2 1817   3.592   0.959   0.843  2.2012  0.0172 -0.3714
  443SOL    HW3 1818   3.564   0.893   0.709  1.1459  0.8374 -0.5636
  443SOL    MW4 1819   3.582   0.887   0.794  0.1493  0.2682 -0.3780
  444SOL     OW 1820   2.951   3.863   0.415 -0.2440 -0.2201  0.0804
  444SOL    HW2 1821   3.006   3.941   0.425 -0.3201 -0.2114  0.4607
  444SOL    HW3 1822   2.861   3.895   0.426 -0.1641 -0.6776  2.2947
  444SOL    MW4 1823   2.946   3.878   0.418 -0.2437 -0.2794  0.4227
  445SOL     OW 1824   3.828   1.501   0.891  0.0300 -0.0008  0.3664
  445SOL    HW2 1825   3.833   1.410   0.861  0.2183 -0.4008  1.5896
  445SOL    HW3 1826   3.741   1.531   0.862 -0.0554 -0.5862  0.0159
  445SOL    MW4 1827   3.817   1.493   0.883  0.0436 -0.1309  0.4816
  446SOL     OW 1828   3.651   3.382   0.288 -0.3436  0.0659 -0.0203
  446SOL    HW2 1829   3.741   3.401   0.313 -0.6666  0.9134  0.5293
  446SOL    HW3 1830   3.598   3.444   0.339 -1.4393 -2.4113  2.0139
  446SOL    MW4 1831   3.656   3.392   0.298 -0.5307 -0.1493  0.3206
  447SOL     OW 1832   4.309   4.427   0.446 -0.0985  0.0416  0.1990
  447SOL    HW2 1833   4.228   4.381   0.425 -0.7379  0.9493  0.5840
  447SOL    HW3 1834   4.314   4.423   0.542 -0.0902  0.6164  0.2284
  447SOL    MW4 1835   4.299   4.421   0.456 -0.1817  0.2370  0.2537
  448SOL     OW 1836   3.859   2.281   0.852 -0.1509  0.3463 -0.1962
  448SOL    HW2 1837   3.861   2.294   0.947  0.9951  0.7835 -0.2672
  448SOL    HW3 1838   3.768   2.300   0.827 -0.1702  1.4485  0.6512
  448SOL    MW4 1839   3.847   2.285   0.861 -0.0021  0.5496 -0.0937
  449SOL     OW 1840   3.399   2.277   0.842 -0.0985 -0.1108 -0.3185
  449SOL    HW2 1841   3.365   2.280   0.931 -1.3075  1.8314 -0.8289
  449SOL    HW3 1842   3.385   2.186   0.815  1.6469 -1.1307  1.9479
  449SOL    MW4 1843   3.393   2.265   0.850 -0.0279  0.0112 -0.0868
  450SOL     OW 1844   3.766   1.777   0.403  0.2887  0.3372 -0.3705
  450SOL    HW2 1845   3.722   1.860   0.421  0.6058  0.2618  0.7931
  450SOL    HW3 1846   3.854   1.789   0.439 -0.2122 -1.1318  1.4383
  450SOL    MW4 1847   3.772   1.789   0.410  0.2644  0.1335  0.0217
  451SOL     OW 1848   3.642   2.661   0.858 -0.5369  0.5536 -0.1649
  451SOL    HW2 1849   3.651   2.687   0.950 -0.8042 -2.1813  0.6616
  451SOL    HW3 1850   3.726   2.684   0.818 -0.3751  1.6370  0.7627
  451SOL    MW4 1851   3.654   2.667   0.865 -0.5507  0.3355  0.0666
  452SOL     OW 1852   1.759   1.692   0.461  0.1929 -0.1498 -0.1585
  452SOL    HW2 1853   1.689   1.755   0.478  0.4799 -0.4628  2.4140
  452SOL    HW3 1854   1.786   1.661   0.548  0.6101 -3.2236 -1.2955
  452SOL    MW4 1855   1.754   1.696   0.475  0.2859 -0.5966  0.0309
  453SOL     OW 1856   4.093   2.672   0.856  0.2520 -0.0064  0.3509
  453SOL    HW2 1857   4.138   2.737   0.801  0.1729  0.6197  1.0164
  453SOL    HW3 1858   4.101   2.590   0.807  0.2714  0.5186 -0.5491
  453SOL    MW4 1859   4.100   2.670   0.842  0.2446  0.1452  0.3200
  454SOL     OW 1860   2.408   0.769   0.276  0.2550  0.0181 -0.0427
  454SOL    HW2 1861   2.403   0.723   0.192  0.4755  0.0924 -0.0964
  454SOL    HW3 1862   2.471   0.718   0.327 -1.2665 -1.1118  0.7551
  454SOL    MW4 1863   2.416   0.756   0.272  0.0834 -0.1212  0.0555
  455SOL     OW 1864   3.841   3.614   0.728 -0.0009 -0.3530 -0.0667
  455SOL    HW2 1865   3.924   3.576   0.756  0.1461 -0.3411 -0.4728
  455SOL    HW3 1866   3.775   3.574   0.784  0.3091 -0.1721  0.4291
  455SOL    MW4 1867   3.843   3.604   0.739  0.0596 -0.3276 -0.0549
  456SOL     OW 1868   1.487   1.223   0.348  0.3236 -0.4535  0.0218
  456SOL    HW2 1869   1.559   1.285   0.364  0.3809 -0.3393 -0.6700
  456SOL    HW3 1870   1.408   1.276   0.355  0.3950 -0.1981 -1.0548
  456SOL    MW4 1871   1.486   1.238   0.351  0.3406 -0.4046 -0.2116
  457SOL     OW 1872   3.829   3.882   0.827  0.2021  0.0189 -0.4041
  457SOL    HW2 1873   3.825   3.790   0.799 -0.9650  0.0238 -0.3057
  457SOL    HW3 1874   3.908   3.917   0.785 -0.0484 -0.6988 -1.5013
  457SOL    MW4 1875   3.839   3.874   0.817  0.0150 -0.0751 -0.5358
  458SOL     OW 1876   4.317   0.191   0.208 -0.0805 -0.1112 -0.2470
  458SOL    HW2 1877   4.301   0.134   0.284 -1.8101  0.0769 -0.4314
  458SOL    HW3 1878   4.311   0.132   0.133  1.3129 -0.2416 -0.2542
  458SOL    MW4 1879   4.314   0.175   0.208 -0.1245 -0.1036 -0.2723
  459SOL     OW 1880   4.067   4.261   0.851  0.3364  0.1855 -0.3758
  459SOL    HW2 1881   4.066   4.172   0.815  0.0580  0.3455 -0.7691
  459SOL    HW3 1882   4.134   4.307   0.801  2.2883 -0.4907  1.5285
  459SOL    MW4 1883   4.076   4.255   0.840  0.5574  0.1173 -0.1765
  460SOL     OW 1884   4.024   0.077   0.848 -0.0007 -0.0415 -0.0799
  460SOL    HW2 1885   4.018   0.154   0.905 -0.5168 -0.0173 -0.1616
  460SOL    HW3 1886   4.014   0.112   0.760 -1.6018 -0.3653 -0.0309
  460SOL    MW4 1887   4.022   0.092   0.844 -0.2799 -0.0810 -0.0842
  461SOL     OW 1888   4.268   4.642   0.856 -0.0290 -0.2018 -0.2393
  461SOL    HW2 1889   4.268   4.645   0.952  0.9928  2.4070 -0.2928
  461SOL    HW3 1890   4.181   4.673   0.831  0.1724  0.4357 -0.1663
  461SOL    MW4 1891   4.257   4.646   0.865  0.1326  0.2265 -0.2367
  462SOL     OW 1892   3.990   0.352   0.944 -0.0197 -0.1498  0.2506
  462SOL    HW2 1893   4.071   0.402   0.932  0.9259 -2.1112 -1.8738
  462SOL    HW3 1894   3.921   0.408   0.908  0.7912  0.2891 -0.6251
  462SOL    MW4 1895   3.992   0.366   0.938  0.2120 -0.3507 -0.1453
  463SOL     OW 1896   4.060   0.156   0.553  0.1806  0.5895  0.3130
  463SOL    HW2 1897   4.105   0.241   0.552  0.5734  0.3760 -1.0539
  463SOL    HW3 1898   4.121   0.096   0.510 -0.4038 -0.2346  0.6209
  463SOL    MW4 1899   4.074   0.160   0.547  0.1554  0.4526  0.1733
  464SOL     OW 1900   3.588   0.331   0.850 -0.4198 -0.3820 -0.1602
  464SOL    HW2 1901   3.650   0.404   0.841  0.5425 -1.2916 -1.2046
  464SOL    HW3 1902   3.577   0.319   0.944  1.1410 -0.3125  0.0406
  464SOL    MW4 1903   3.595   0.339   0.861 -0.0868 -0.4928 -0.2715
  465SOL     OW 1904   3.842   0.244   0.395  0.0623 -0.0646 -0.1300
  465SOL    HW2 1905   3.920   0.205   0.434  1.2041  2.3398  0.1207
  465SOL    HW3 1906   3.863   0.250   0.302  0.1469  0.4415 -0.0833
  465SOL    MW4 1907   3.855   0.240   0.388  0.2244  0.3194 -0.0907
  466SOL     OW 1908   1.992   0.486   0.436  0.4479 -0.2308  0.0470
  466SOL    HW2 1909   2.063   0.550   0.438 -1.1237  1.5395  2.7106
  466SOL    HW3 1910   1.926   0.525   0.379  0.0176 -0.0753  0.6510
  466SOL    MW4 1911   1.993   0.499   0.429  0.1838  0.0233  0.4781
  467SOL     OW 1912   1.978   2.053   0.528  0.3523  0.0492  0.0172
  467SOL    HW2 1913   1.893   2.098   0.520 -0.1641 -0.5276  1.9420
  467SOL    HW3 1914   2.037   2.104   0.473 -1.3734  0.1172 -1.8502
  467SOL    MW4 1915   1.974   2.065   0.520  0.0565 -0.0179  0.0247
  468SOL     OW 1916   3.855   1.244   0.792  0.3128 -0.3468  0.0557
  468SOL    HW2 1917   3.846   1.252   0.697 -1.5759  0.7367  0.2828
  468SOL    HW3 1918   3.775   1.200   0.819  0.2297  0.5214  1.2655
  468SOL    MW4 1919   3.843   1.239   0.783  0.0527 -0.0893  0.2453
  469SOL     OW 1920   4.252   1.487   0.858  0.3415  0.5539  0.5170
  469SOL    HW2 1921   4.261   1.488   0.953 -1.5270 -0.1291  0.7017
  469SOL    HW3 1922   4.292   1.405   0.830 -0.6754 -0.0602  0.8713
  469SOL    MW4 1923   4.259   1.477   0.867 -0.0396  0.3828  0.5881
  470SOL     OW 1924   1.444   2.319   0.368 -0.2983 -0.1226  0.1382
  470SOL    HW2 1925   1.410   2.337   0.280  2.1418  2.5491 -0.3450
  470SOL    HW3 1926   1.397   2.379   0.425  1.2595  1.3272 -0.0586
  470SOL    MW4 1927   1.433   2.329   0.364  0.2291  0.4215  0.0485
  471SOL     OW 1928   0.012   2.193   0.451  0.2778 -0.0889  0.1478
  471SOL    HW2 1929  -0.064   2.158   0.498 -1.2056 -0.7426 -2.6406
  471SOL    HW3 1930   0.085   2.136   0.477 -1.0032 -1.9208 -0.2121
  471SOL    MW4 1931   0.012   2.181   0.461 -0.0870 -0.4168 -0.2676
  472SOL     OW 1932   3.626   1.345   0.452 -0.1021  0.1704  0.0081
  472SOL    HW2 1933   3.563   1.273   0.459  0.3875 -0.2185  0.3803
  472SOL    HW3 1934   3.711   1.304   0.462  0.1666  0.8395  0.5078
  472SOL    MW4 1935   3.629   1.330   0.455 -0.0021  0.2073  0.1231
  473SOL     OW 1936   0.009   1.611   0.798  0.1296  0.2260 -0.0173
  473SOL    HW2 1937  -0.027   1.644   0.716  0.5071 -1.8486 -1.0753
  473SOL    HW3 1938  -0.058   1.550   0.830  0.5586  0.0402  0.5258
  473SOL    MW4 1939  -0.004   1.607   0.791  0.2360 -0.0722 -0.0852
  474SOL     OW 1940   1.571   3.878   0.849  0.8169  0.1127  0.0171
  474SOL    HW2 1941   1.638   3.932   0.807  1.3375 -0.8716 -0.4319
  474SOL    HW3 1942   1.594   3.880   0.942  0.8912  0.5797 -0.0110
  474SOL    MW4 1943   1.583   3.885   0.856  0.8954  0.0443 -0.0458
  475SOL     OW 1944   3.866   2.789   0.778  0.3073  0.1859 -0.4259
  475SOL    HW2 1945   3.940   2.736   0.807 -0.3221 -0.7203 -0.4576
  475SOL    HW3 1946   3.864   2.863   0.838  0.8951 -0.0702 -0.0852
  475SOL    MW4 1947   3.876   2.792   0.790  0.3018  0.0327 -0.3852
  476SOL     OW 1948   1.195   0.453   0.343 -0.3067  0.0468  0.2003
  476SOL    HW2 1949   1.282   0.417   0.361 -0.2041 -0.4368 -1.1654
  476SOL    HW3 1950   1.153   0.386   0.290 -0.7399  1.1980 -0.9410
  476SOL    MW4 1951   1.201   0.439   0.338 -0.3501  0.1349 -0.1305
  477SOL     OW 1952   4.026   3.201   0.761 -0.2892 -0.0512  0.4039
  477SOL    HW2 1953   4.101   3.153   0.797 -0.6832 -0.6911  0.3941
  477SOL    HW3 1954   4.038   3.291   0.790 -0.4647 -0.4991  1.9192
  477SOL    MW4 1955   4.037   3.206   0.769 -0.3643 -0.1948  0.6025
  478SOL     OW 1956   4.062   3.459   0.844  0.1344 -0.3739 -0.0823
  478SOL    HW2 1957   4.064   3.456   0.939  0.0477 -0.5520 -0.0858
  478SOL    HW3 1958   4.146   3.498   0.819  0.1436 -0.2986  0.0668
  478SOL    MW4 1959   4.073   3.464   0.853  0.1240 -0.3874 -0.0631
  479SOL     OW 1960   4.440   4.015   0.505  0.1164  0.5224  0.4341
  479SOL    HW2 1961   4.489   3.936   0.482 -1.2569 -0.5674  1.1625
  479SOL    HW3 1962   4.364   4.013   0.448 -0.4885  0.7350  1.2293
  479SOL    MW4 1963   4.437   4.004   0.495 -0.1450  0.4063  0.6351
  480SOL     OW 1964   4.281   3.599   0.756  0.1521  0.0725  0.3092
  480SOL    HW2 1965   4.274   3.606   0.661 -1.0643 -1.0615  0.3002
  480SOL    HW3 1966   4.288   3.690   0.787  0.4745  0.4436 -0.8522
  480SOL    MW4 1967   4.281   3.612   0.748  0.0343 -0.0281  0.1548
  481SOL     OW 1968   0.787   4.599   0.464 -0.4983  0.3086  0.0086
  481SOL    HW2 1969   0.876   4.564   0.463 -0.1588  1.1325  1.2359
  481SOL    HW3 1970   0.731   4.522   0.473  0.1565 -0.0897  0.7262
  481SOL    MW4 1971   0.791   4.584   0.465 -0.3670  0.3648  0.2652
  482SOL     OW 1972   4.066   3.995   0.758  0.0271 -0.0456  0.1267
  482SOL    HW2 1973   4.091   3.969   0.669  0.0054  0.9750 -0.1800
  482SOL    HW3 1974   4.127   3.947   0.815  0.8068  0.2017 -0.4930
  482SOL    MW4 1975   4.078   3.985   0.754  0.1268  0.1214  0.0044
  483SOL     OW 1976   4.280   4.393   0.742  0.2374 -0.3811 -0.6357
  483SOL    HW2 1977   4.296   4.483   0.772 -0.5290  0.2720 -2.1136
  483SOL    HW3 1978   4.353   4.343   0.777  0.8168  0.8778  0.0003
  483SOL    MW4 1979   4.291   4.398   0.750  0.2131 -0.1287 -0.7468
  484SOL     OW 1980   0.265   4.443   0.761 -0.4300 -0.1099  0.0488
  484SOL    HW2 1981   0.336   4.385   0.788  0.0462  0.0510 -0.8368
  484SOL    HW3 1982   0.185   4.392   0.776 -0.1352 -0.3079  0.9946
  484SOL    MW4 1983   0.263   4.429   0.767 -0.3283 -0.1154  0.0567
  485SOL     OW 1984   0.228   0.049   1.166  0.0088 -0.2020 -0.0487
  485SOL    HW2 1985   0.309   0.100   1.175  0.4147 -0.7552 -0.4758
  485SOL    HW3 1986   0.225   0.026   1.073 -0.2042 -0.8889  0.1292
  485SOL    MW4 1987   0.239   0.053   1.155  0.0342 -0.3656 -0.0814
  486SOL     OW 1988   4.483   0.152   1.278 -0.2317  0.4907 -0.2892
  486SOL    HW2 1989   4.417   0.098   1.236 -0.0284 -1.0026  1.2578
  486SOL    HW3 1990   4.566   0.121   1.242 -0.1428  0.0726  0.2775
  486SOL    MW4 1991   4.486   0.141   1.267 -0.1936  0.2385 -0.0101
  487SOL     OW 1992   4.468   0.412   1.188 -0.1546  0.1267  0.0496
  487SOL    HW2 1993   4.383   0.442   1.220  0.0494  2.0348 -1.1363
  487SOL    HW3 1994   4.472   0.320   1.215 -2.0827  0.3260  1.1386
  487SOL    MW4 1995   4.457   0.404   1.196 -0.3815  0.4047  0.0368
  488SOL     OW 1996   0.234   0.513   1.247  0.0116 -0.0741 -0.0835
  488SOL    HW2 1997   0.236   0.607   1.233  0.4636 -0.1608 -0.6363
  488SOL    HW3 1998   0.152   0.484   1.208  1.5641 -0.4056 -3.2030
  488SOL    MW4 1999   0.224   0.521   1.240  0.2761 -0.1293 -0.5682
  489SOL     OW 2000   0.228   0.770   1.146  0.1039 -0.0771 -0.2644
  489SOL    HW2 2001   0.311   0.812   1.168  0.1092  1.1733 -2.4840
  489SOL    HW3 2002   0.161   0.832   1.175  0.0344  0.1796 -0.9635
  489SOL    MW4 2003   0.230   0.783   1.153  0.0955  0.1218 -0.6495
  490SOL     OW 2004   0.009   0.913   1.241  0.1734  0.1927  0.2909
  490SOL    HW2 2005   0.002   0.879   1.330  0.1252  0.3862  0.3597
  490SOL    HW3 2006  -0.054   0.861   1.191  0.6895 -0.3849  0.2286
  490SOL    MW4 2007  -0.000   0.902   1.246  0.2346  0.1421  0.2917
  491SOL     OW 2008   4.483   1.185   1.218 -0.0713 -0.2399 -0.3994
  491SOL    HW2 2009   4.397   1.215   1.247 -0.2207 -1.0899  0.0800
  491SOL    HW3 2010   4.481   1.090   1.233  0.3597 -0.5017 -1.9060
  491SOL    MW4 2011   4.471   1.176   1.224 -0.0334 -0.3866 -0.5350
  492SOL     OW 2012   0.235   1.303   1.248  0.0792  0.1714  0.1902
  492SOL    HW2 2013   0.304   1.264   1.194  0.1511 -0.1943  0.5489
  492SOL    HW3 2014   0.158   1.250   1.228  0.0508  0.1812  0.2768
  492SOL    MW4 2015   0.234   1.291   1.238  0.0849  0.1245  0.2488
  493SOL     OW 2016   0.268   1.550   1.157 -0.1194  0.1332  0.1554
  493SOL    HW2 2017   0.251   1.463   1.192 -0.6448  0.4968  0.8114
  493SOL    HW3 2018   0.268   1.538   1.062 -2.1553 -0.2423  0.1769
  493SOL    MW4 2019   0.266   1.537   1.149 -0.4573  0.1318  0.2447
  494SOL     OW 2020   0.014   1.677   1.244 -0.2324 -0.1912  0.0679
  494SOL    HW2 2021   0.029   1.770   1.230  0.4377 -0.4374 -0.8592
  494SOL    HW3 2022   0.092   1.634   1.209 -0.6906 -1.1230  0.1764
  494SOL    MW4 2023   0.026   1.684   1.237 -0.2045 -0.3468 -0.0401
  495SOL     OW 2024   0.035   1.954   1.196 -0.2000 -0.0232  0.2908
  495SOL    HW2 2025  -0.049   1.984   1.230 -0.0390  0.0916  0.5913
  495SOL    HW3 2026   0.017   1.928   1.106 -0.0017  2.4621 -0.5031
  495SOL    MW4 2027   0.022   1.954   1.189 -0.1527  0.3198  0.2255
  496SOL     OW 2028   0.288   2.042   1.178 -0.2260 -0.0641 -0.2066
  496SOL    HW2 2029   0.285   2.138   1.173 -1.4338 -0.1223 -0.8361
  496SOL    HW3 2030   0.196   2.016   1.181  0.1014 -1.2077  0.0383
  496SOL    MW4 2031   0.275   2.051   1.178 -0.3422 -0.2229 -0.2574
  497SOL     OW 2032   0.304   2.322   1.146 -0.2764  0.0789 -0.0698
  497SOL    HW2 2033   0.371   2.366   1.197 -1.0171  1.3957 -0.2096
  497SOL    HW3 2034   0.223   2.370   1.165 -0.8204 -0.2703 -1.4074
  497SOL    MW4 2035   0.302   2.334   1.156 -0.4459  0.2062 -0.2649
  498SOL     OW 2036   0.038   2.447   1.192 -0.0397 -0.5577 -0.2678
  498SOL    HW2 2037   0.048   2.453   1.287 -0.3251  1.8210 -0.3592
  498SOL    HW3 2038  -0.048   2.408   1.179  0.1154 -1.1494  0.4485
  498SOL    MW4 2039   0.028   2.443   1.202 -0.0569 -0.3219 -0.1854
  499SOL     OW 2040   0.028   2.709   1.113 -0.4723 -0.0315 -0.5020
  499SOL    HW2 2041  -0.031   2.764   1.164  1.2574  0.8497  0.5837
  499SOL    HW3 2042   0.015   2.621   1.149 -1.0405  0.1684 -0.2108
  499SOL    MW4 2043   0.019   2.704   1.124 -0.3190  0.1111 -0.3203
  500SOL     OW 2044   0.241   2.861   1.211 -0.1164 -0.3519 -0.3523
  500SOL    HW2 2045   0.214   2.858   1.303  0.8484  0.2614 -0.0430
  500SOL    HW3 2046   0.168   2.820   1.164  0.1952 -2.3704  0.8539
  500SOL    MW4 2047   0.227   2.855   1.217  0.0520 -0.5372 -0.1525
  501SOL     OW 2048   0.257   3.118   1.129 -0.3474 -0.0670  0.0835
  501SOL    HW2 2049   0.315   3.182   1.170 -1.2237  0.2936  0.7737
  501SOL    HW3 2050   0.273   3.037   1.177  0.7182 -0.3705 -0.7520
  501SOL    MW4 2051   0.266   3.116   1.141 -0.3224 -0.0596  0.0643
  502SOL     OW 2052   0.028   3.222   1.247 -0.1869  0.2419  0.1665
  502SOL    HW2 2053  -0.044   3.192   1.192  0.2725 -0.3350 -0.1296
  502SOL    HW3 2054   0.106   3.185   1.206  0.1542 -0.2168  1.2191
  502SOL    MW4 2055   0.029   3.213   1.234 -0.0813  0.1054  0.2663
  503SOL     OW 2056   4.467   3.495   1.174  0.1113 -0.1107  0.2069
  503SOL    HW2 2057   4.487   3.409   1.211 -0.8279 -0.2955  0.2990
  503SOL    HW3 2058   4.474   3.483   1.079 -2.5897 -0.9660  0.0937
  503SOL    MW4 2059   4.471   3.482   1.166 -0.3690 -0.2480  0.2042
  504SOL     OW 2060   0.211   3.637   1.248 -0.0607 -0.2557  0.0069
  504SOL    HW2 2061   0.179   3.616   1.336  1.2597 -2.5448 -0.0007
  504SOL    HW3 2062   0.139   3.613   1.190 -0.3139 -0.3561  0.3611
  504SOL    MW4 2063   0.198   3.631   1.252  0.0801 -0.5710  0.0526
  505SOL     OW 2064   0.282   3.898   1.136  0.1761 -0.0135 -0.4038
  505SOL    HW2 2065   0.202   3.948   1.153  0.8048  0.7721  0.2539
  505SOL    HW3 2066   0.269   3.816   1.183 -0.7412 -0.3637 -1.2564
  505SOL    MW4 2067   0.270   3.894   1.145  0.1380  0.0441 -0.4295
  506SOL     OW 2068   0.044   4.025   1.201 -0.5250 -0.0373  0.0033
  506SOL    HW2 2069   0.047   4.059   1.291  1.8439 -1.5874  0.5493
  506SOL    HW3 2070  -0.046   3.995   1.191 -0.4746 -1.1326  2.3753
  506SOL    MW4 2071   0.032   4.026   1.212 -0.2059 -0.3862  0.3883
  507SOL     OW 2072   0.026   4.292   1.125  0.3511  0.2240 -0.0214
  507SOL    HW2 2073   0.102   4.333   1.167  0.3596 -0.2115  0.3910
  507SOL    HW3 2074   0.027   4.202   1.156 -0.6965  0.3749  0.4665
  507SOL    MW4 2075   0.036   4.286   1.135  0.2140  0.1869  0.0974
  508SOL     OW 2076   0.228   4.439   1.246 -0.0084 -0.1851  0.1816
  508SOL    HW2 2077   0.248   4.437   1.339 -1.7593 -0.5970  0.5686
  508SOL    HW3 2078   0.239   4.531   1.221 -1.6187  0.3267  1.2827
  508SOL    MW4 2079   0.232   4.451   1.255 -0.4519 -0.1721  0.3779
  509SOL     OW 2080   0.672   0.035   1.100  0.3183  0.2007  0.2168
  509SOL    HW2 2081   0.747   0.074   1.145 -0.1336 -0.5193  1.6430
  509SOL    HW3 2082   0.662  -0.051   1.142 -1.7845  0.6156  0.5932
  509SOL    MW4 2083   0.681   0.028   1.112 -0.0188  0.1604  0.4547
  510SOL     OW 2084   0.460   0.161   1.238 -0.0098  0.2703 -0.6293
  510SOL    HW2 2085   0.459   0.254   1.217 -0.3187  0.6836  1.0740
  510SOL    HW3 2086   0.546   0.130   1.212 -0.1378  0.8871 -1.7962
  510SOL    MW4 2087   0.471   0.169   1.232 -0.0674  0.4062 -0.5586
  511SOL     OW 2088   0.478   0.408   1.140  0.1309  0.1123 -0.1085
  511SOL    HW2 2089   0.392   0.443   1.161 -0.8444 -2.2220 -0.0032
  511SOL    HW3 2090   0.473   0.387   1.046  0.3274 -0.6970  0.0573
  511SOL    MW4 2091   0.466   0.410   1.130  0.0282 -0.3024 -0.0726
  512SOL     OW 2092   0.683   0.548   1.281 -0.5057  0.5157  0.4500
  512SOL    HW2 2093   0.670   0.637   1.248  0.8208  0.2738 -0.7593
  512SOL    HW3 2094   0.623   0.494   1.228 -0.0095  0.4414 -0.0371
  512SOL    MW4 2095   0.673   0.552   1.270 -0.2653  0.4740  0.2263
  513SOL     OW 2096   0.691   0.790   1.151 -0.1105 -0.1351  0.0129
  513SOL    HW2 2097   0.609   0.836   1.166 -0.6857 -1.5813  1.4572
  513SOL    HW3 2098   0.717   0.815   1.062 -1.6011  1.0840 -0.0949
  513SOL    MW4 2099   0.684   0.799   1.141 -0.3831 -0.1650  0.1892
  514SOL     OW 2100   0.449   0.913   1.209 -0.1893 -0.7324  0.5345
  514SOL    HW2 2101   0.460   0.938   1.300  0.2481 -0.8716  0.5207
  514SOL    HW3 2102   0.439   0.995   1.162 -0.2202 -0.6526  0.6821
  514SOL    MW4 2103   0.449   0.927   1.215 -0.1357 -0.7403  0.5523
  515SOL     OW 2104   0.470   1.182   1.148  0.1802  0.6818 -0.0242
  515SOL    HW2 2105   0.531   1.234   1.200 -0.9681  1.6298  0.4087
  515SOL    HW3 2106   0.491   1.204   1.057  0.5904  0.8767  0.1179
  515SOL    MW4 2107   0.481   1.192   1.143  0.0828  0.8324  0.0517
  516SOL     OW 2108   0.727   1.248   1.261 -0.6793 -0.1505  0.0360
  516SOL    HW2 2109   0.799   1.205   1.215 -1.2903  1.8516 -2.9296
  516SOL    HW3 2110   0.741   1.341   1.245 -3.1106  0.3481  0.6648
  516SOL    MW4 2111   0.738   1.255   1.253 -1.0807  0.1793 -0.2723
  517SOL     OW 2112   0.722   1.506   1.158  0.2425  0.2720  0.3526
  517SOL    HW2 2113   0.798   1.553   1.191  0.0135  0.1384  1.0760
  517SOL    HW3 2114   0.647   1.557   1.190  0.0299  0.4819 -0.4742
  517SOL    MW4 2115   0.722   1.519   1.167  0.1843  0.2819  0.3389
  518SOL     OW 2116   0.510   1.656   1.234 -0.0340 -0.5573 -0.4165
  518SOL    HW2 2117   0.496   1.692   1.322  0.0173 -0.1918 -0.5567
  518SOL    HW3 2118   0.429   1.610   1.214  0.0806 -0.9326 -0.0405
  518SOL    MW4 2119   0.497   1.655   1.243 -0.0121 -0.5586 -0.3854
  519SOL     OW 2120   0.519   1.938   1.096  0.2423  0.1696  0.2272
  519SOL    HW2 2121   0.525   1.850   1.133  0.1643 -0.5965 -1.5411
  519SOL    HW3 2122   0.435   1.972   1.128  0.5514 -0.1540  1.3998
  519SOL    MW4 2123   0.509   1.931   1.105  0.2728  0.0259  0.1485
  520SOL     OW 2124   0.734   2.089   1.211 -0.0844 -0.1075 -0.4260
  520SOL    HW2 2125   0.731   2.067   1.304  0.4367 -1.0097 -0.6096
  520SOL    HW3 2126   0.665   2.035   1.171  1.2110 -1.4854 -0.8831
  520SOL    MW4 2127   0.725   2.079   1.218  0.1552 -0.4084 -0.5105
  521SOL     OW 2128   0.737   2.372   1.129 -0.1474 -0.2560  0.1057
  521SOL    HW2 2129   0.658   2.412   1.163  1.2493  0.5740  2.5025
  521SOL    HW3 2130   0.735   2.282   1.160 -0.3106 -0.3319 -0.1245
  521SOL    MW4 2131   0.727   2.366   1.137  0.0154 -0.1564  0.3916
  522SOL     OW 2132   0.508   2.472   1.266  0.2712 -0.7932 -0.1318
  522SOL    HW2 2133   0.504   2.462   1.362 -0.6656  0.6463 -0.0022
  522SOL    HW3 2134   0.487   2.564   1.251  0.1435 -1.0778 -1.7437
  522SOL    MW4 2135   0.504   2.483   1.277  0.1308 -0.6406 -0.3273
  523SOL     OW 2136   0.484   2.759   1.147 -0.1501 -0.0739 -0.1949
  523SOL    HW2 2137   0.400   2.798   1.172  0.0003 -0.4220  0.8685
  523SOL    HW3 2138   0.472   2.735   1.055 -1.2159 -0.1037 -0.0613
  523SOL    MW4 2139   0.471   2.761   1.138 -0.2709 -0.1235 -0.0370
  524SOL     OW 2140   0.721   2.856   1.243  0.1946 -0.0411 -0.0361
  524SOL    HW2 2141   0.677   2.939   1.228 -0.0540 -0.1620  0.0323
  524SOL    HW3 2142   0.664   2.790   1.204  0.6156 -0.1339 -0.4968
  524SOL    MW4 2143   0.708   2.858   1.236  0.2173 -0.0696 -0.0880
  525SOL     OW 2144   0.631   3.108   1.170  0.2341 -0.1803  0.3688
  525SOL    HW2 2145   0.710   3.154   1.199  0.0710  0.2941  0.0705
  525SOL    HW3 2146   0.629   3.123   1.075  1.0230 -2.1086  0.0249
  525SOL    MW4 2147   0.642   3.116   1.161  0.3167 -0.3722  0.2841
  526SOL     OW 2148   0.430   3.286   1.270  0.0468 -0.1597 -0.1563
  526SOL    HW2 2149   0.433   3.364   1.213 -0.5499 -0.0982 -0.1100
  526SOL    HW3 2150   0.504   3.233   1.241  0.6794  0.5955  0.0541
  526SOL    MW4 2151   0.440   3.289   1.259  0.0515 -0.0517 -0.1224
  527SOL     OW 2152   0.445   3.533   1.144  0.1915 -0.1783  0.3415
  527SOL    HW2 2153   0.520   3.580   1.183 -1.4247  0.5929  2.6317
  527SOL    HW3 2154   0.369   3.568   1.190 -1.3701 -2.7476 -0.2117
  527SOL    MW4 2155   0.445   3.544   1.155 -0.2278 -0.4158  0.5707
  528SOL     OW 2156   0.686   3.644   1.261 -0.4855  0.3359 -0.1113
  528SOL    HW2 2157   0.699   3.638   1.356 -1.4331 -1.6223 -0.0737
  528SOL    HW3 2158   0.693   3.737   1.242 -2.4593  1.0372  2.2265
  528SOL    MW4 2159   0.689   3.655   1.271 -0.8709  0.1700  0.2022
  529SOL     OW 2160   0.699   3.925   1.168  0.5296  0.0982 -0.6377
  529SOL    HW2 2161   0.626   3.980   1.195  0.5071  0.0708 -0.6423
  529SOL    HW3 2162   0.694   3.924   1.072 -0.4701 -1.2658 -0.5900
  529SOL    MW4 2163   0.689   3.932   1.159  0.3947 -0.0854 -0.6320
  530SOL     OW 2164   0.490   4.072   1.254  0.5235  0.0618 -0.3477
  530SOL    HW2 2165   0.475   4.162   1.226 -1.1493  0.2356  1.0877
  530SOL    HW3 2166   0.432   4.020   1.199 -0.7942  0.1526  0.9525
  530SOL    MW4 2167   0.481   4.077   1.243  0.1290  0.0968  0.0131
  531SOL     OW 2168   0.439   4.305   1.135 -0.0312 -0.1976 -0.7734
  531SOL    HW2 2169   0.506   4.352   1.184 -0.1139 -0.3188 -0.5463
  531SOL    HW3 2170   0.361   4.360   1.142 -0.8001 -1.5266  1.5055
  531SOL    MW4 2171   0.438   4.318   1.142 -0.1436 -0.3891 -0.4427
  532SOL     OW 2172   0.703   4.449   1.240 -0.4769  0.6548  0.1936
  532SOL    HW2 2173   0.706   4.435   1.335  0.3701  1.8694  0.3490
  532SOL    HW3 2174   0.780   4.403   1.207  0.2154  1.7299  0.2947
  532SOL    MW4 2175   0.713   4.441   1.248 -0.2738  0.9570  0.2275
  533SOL     OW 2176   1.128   0.037   1.142 -0.2421  0.0476 -0.6446
  533SOL    HW2 2177   1.110  -0.052   1.173 -1.6281  0.1797 -1.0642
  533SOL    HW3 2178   1.146   0.027   1.049  0.6902  0.0725 -0.4725
  533SOL    MW4 2179   1.128   0.024   1.134 -0.3018  0.0683 -0.6772
  534SOL     OW 2180   0.887   0.157   1.243 -0.4484 -0.2385 -0.5145
  534SOL    HW2 2181   0.877   0.134   1.335 -0.3296 -0.4990 -0.5653
  534SOL    HW3 2182   0.966   0.109   1.215 -0.9508 -0.8132 -0.9589
  534SOL    MW4 2183   0.896   0.147   1.251 -0.4990 -0.3487 -0.5798
  535SOL     OW 2184   0.871   0.412   1.128 -0.1227 -0.0413 -0.0519
  535SOL    HW2 2185   0.860   0.336   1.184 -0.0553  0.6189  0.8739
  535SOL    HW3 2186   0.824   0.482   1.174  0.3260  0.6145 -0.5811
  535SOL    MW4 2187   0.863   0.412   1.142 -0.0546  0.1324  0.0005
  536SOL     OW 2188   1.101   0.501   1.234 -0.1258  0.1526 -0.0147
  536SOL    HW2 2189   1.118   0.490   1.327 -0.8432  1.2054  0.2472
  536SOL    HW3 2190   1.015   0.462   1.219 -0.3574  0.6796 -0.0807
  536SOL    MW4 2191   1.092   0.494   1.244 -0.2511  0.3610  0.0112
  537SOL     OW 2192   1.121   0.761   1.166  0.2521  0.5628 -0.2608
  537SOL    HW2 2193   1.071   0.815   1.227  0.2106  0.0512  0.1644
  537SOL    HW3 2194   1.089   0.673   1.180  1.0102  0.2846 -0.2484
  537SOL    MW4 2195   1.110   0.757   1.176  0.3467  0.4586 -0.2031
  538SOL     OW 2196   0.917   0.909   1.265  0.0718  0.6062 -0.1460
  538SOL    HW2 2197   0.936   0.985   1.209  0.4698  0.7160  0.1354
  538SOL    HW3 2198   0.836   0.872   1.229 -0.4103  1.4731  0.0403
  538SOL    MW4 2199   0.909   0.914   1.253  0.0607  0.7350 -0.0843
  539SOL     OW 2200   0.948   1.135   1.116 -0.0749  0.3183 -0.4020
  539SOL    HW2 2201   1.020   1.192   1.144  2.4579 -1.6410 -2.7031
  539SOL    HW3 2202   0.944   1.145   1.021 -0.4963 -2.2278 -0.7024
  539SOL    MW4 2203   0.957   1.144   1.107  0.2037 -0.2761 -0.7453
  540SOL     OW 2204   1.183   1.267   1.209 -0.1618  0.4448  0.2308
  540SOL    HW2 2205   1.167   1.290   1.300 -0.2072 -1.0182  0.6156
  540SOL    HW3 2206   1.257   1.207   1.212 -0.2325  0.2994 -0.6814
  540SOL    MW4 2207   1.191   1.262   1.221 -0.1771  0.2327  0.1613
  541SOL     OW 2208   1.149   1.525   1.091  0.1192 -0.1718  0.7417
  541SOL    HW2 2209   1.166   1.436   1.123  0.6671 -0.4266 -0.2375
  541SOL    HW3 2210   1.184   1.525   1.002 -0.5818  0.7950  0.4649
  541SOL    MW4 2211   1.156   1.513   1.083  0.0991 -0.0778  0.5760
  542SOL     OW 2212   0.939   1.658   1.226 -0.7011 -0.2510  0.1036
  542SOL    HW2 2213   0.927   1.749   1.200 -1.7321 -0.1652  0.8731
  542SOL    HW3 2214   1.009   1.626   1.168  0.0734  1.1798  0.2151
  542SOL    MW4 2215   0.947   1.666   1.215 -0.7349 -0.0509  0.2198
  543SOL     OW 2216   0.944   1.918   1.141  0.6240 -0.2219 -0.6475
  543SOL    HW2 2217   1.024   1.966   1.163  0.3758 -0.0586 -0.0825
  543SOL    HW3 2218   0.873   1.971   1.179  0.4983 -2.1598  1.9598
  543SOL    MW4 2219   0.945   1.931   1.149  0.5746 -0.4561 -0.2290
  544SOL     OW 2220   1.192   2.036   1.227  0.5758  0.0734 -0.5622
  544SOL    HW2 2221   1.204   2.030   1.321 -2.8332 -0.6328 -0.1164
  544SOL    HW3 2222   1.169   2.128   1.211  0.3624  0.0142 -0.5984
  544SOL    MW4 2223   1.191   2.047   1.237  0.0979 -0.0272 -0.5082
  545SOL     OW 2224   1.187   2.307   1.177  0.2694 -0.4563 -0.4685
  545SOL    HW2 2225   1.258   2.371   1.172 -0.6295  0.5193 -0.8250
  545SOL    HW3 2226   1.110   2.359   1.199 -0.5238 -1.3790 -1.0858
  545SOL    MW4 2227   1.187   2.322   1.179  0.0460 -0.4492 -0.5969
  546SOL     OW 2228   0.964   2.454   1.251  0.1494  0.0577  0.0008
  546SOL    HW2 2229   0.944   2.432   1.342  0.3606  0.6374  0.1886
  546SOL    HW3 2230   0.890   2.420   1.201  0.6425 -1.4075  0.2439
  546SOL    MW4 2231   0.952   2.446   1.256  0.2423 -0.0591  0.0577
  547SOL     OW 2232   0.941   2.716   1.140 -0.3209  0.2465  0.1853
  547SOL    HW2 2233   0.945   2.638   1.196  0.4870  1.1179  1.3727
  547SOL    HW3 2234   0.863   2.764   1.171 -0.8037 -0.0803 -0.5269
  547SOL    MW4 2235   0.931   2.712   1.152 -0.2781  0.3183  0.2480
  548SOL     OW 2236   1.178   2.811   1.231 -0.3138  0.2177  0.0538
  548SOL    HW2 2237   1.165   2.839   1.322 -1.0649  0.7789 -0.2181
  548SOL    HW3 2238   1.096   2.768   1.208  0.4627 -1.3127  0.1373
  548SOL    MW4 2239   1.165   2.809   1.240 -0.3104  0.0896  0.0291
  549SOL     OW 2240   1.084   3.068   1.182 -0.0966  0.0907  0.8319
  549SOL    HW2 2241   1.122   2.982   1.196  2.1504  0.7237 -1.0818
  549SOL    HW3 2242   1.071   3.074   1.088  0.0088  1.9334  0.9125
  549SOL    MW4 2243   1.088   3.058   1.172  0.2137  0.4175  0.5900
  550SOL     OW 2244   0.872   3.233   1.253 -0.0374 -0.3349 -0.1350
  550SOL    HW2 2245   0.902   3.318   1.221 -0.1381 -0.3294 -0.2131
  550SOL    HW3 2246   0.943   3.172   1.228 -0.4405 -0.4580 -1.0115
  550SOL    MW4 2247   0.886   3.236   1.245 -0.1038 -0.3505 -0.2609
  551SOL     OW 2248   0.908   3.500   1.173 -0.5952  0.0781 -0.0336
  551SOL    HW2 2249   0.831   3.546   1.206 -0.6529 -0.5409  0.7227
  551SOL    HW3 2250   0.899   3.502   1.078 -0.3055  2.1122 -0.0510
  551SOL    MW4 2251   0.897   3.507   1.165 -0.5646  0.2646  0.0639
  552SOL     OW 2252   1.147   3.621   1.269  0.0207 -0.0305  0.0470
  552SOL    HW2 2253   1.221   3.604   1.211 -1.2002 -1.1981 -1.2077
  552SOL    HW3 2254   1.075   3.571   1.231 -1.5752  1.5778  0.8805
  552SOL    MW4 2255   1.147   3.612   1.256 -0.3508  0.0277 -0.0086
  553SOL     OW 2256   1.145   3.898   1.158  0.0509  0.0580  0.0301
  553SOL    HW2 2257   1.065   3.934   1.196  0.6894  1.5751 -0.0249
  553SOL    HW3 2258   1.155   3.813   1.201 -0.8653  0.4350  1.0222
  553SOL    MW4 2259   1.136   3.891   1.169  0.0142  0.3080  0.1538
  554SOL     OW 2260   0.921   4.028   1.274 -0.1907  0.1312  0.1791
  554SOL    HW2 2261   0.901   4.013   1.367  0.5937 -0.8354  0.2033
  554SOL    HW3 2262   0.844   3.998   1.227  0.0215 -0.8434  0.4383
  554SOL    MW4 2263   0.909   4.023   1.280 -0.0591 -0.1245  0.2165
  555SOL     OW 2264   0.908   4.284   1.156  0.3298 -0.0274 -0.1326
  555SOL    HW2 2265   0.914   4.199   1.201  1.3081 -0.8752 -1.8062
  555SOL    HW3 2266   0.915   4.262   1.063 -0.6603  1.7876 -0.6539
  555SOL    MW4 2267   0.910   4.270   1.150  0.3282  0.1001 -0.4221
  556SOL     OW 2268   1.125   4.430   1.241 -0.0502 -0.4552  0.1775
  556SOL    HW2 2269   1.131   4.432   1.337 -1.7494  0.4188  0.2745
  556SOL    HW3 2270   1.048   4.376   1.223 -1.0625  1.2356 -0.6382
  556SOL    MW4 2271   1.116   4.423   1.252 -0.4078 -0.1168  0.0825
  557SOL     OW 2272   1.547   0.024   1.171  0.3185  0.0307 -0.8259
  557SOL    HW2 2273   1.620   0.082   1.195 -0.3541 -0.1818  1.8752
  557SOL    HW3 2274   1.568  -0.059   1.214 -2.0328  0.2901  0.9204
  557SOL    MW4 2275   1.560   0.021   1.180 -0.0806  0.0367 -0.2390
  558SOL     OW 2276   1.335   0.132   1.288  0.4584  0.5341 -0.6120
  558SOL    HW2 2277   1.407   0.093   1.238  1.9755  1.4628  0.7584
  558SOL    HW3 2278   1.256   0.092   1.253  1.7509 -1.5864 -1.2174
  558SOL    MW4 2279   1.334   0.121   1.277  0.8290  0.3769 -0.5112
  559SOL     OW 2280   1.360   0.389   1.170 -0.0615 -0.5492  0.2887
  559SOL    HW2 2281   1.366   0.301   1.208 -0.5578 -0.5649  0.3348
  559SOL    HW3 2282   1.272   0.419   1.193  0.0377 -0.1155  0.1085
  559SOL    MW4 2283   1.350   0.381   1.178 -0.1140 -0.4941  0.2710
  560SOL     OW 2284   1.619   0.497   1.216  0.2125 -0.1194 -0.0444
  560SOL    HW2 2285   1.618   0.592   1.199  1.3536 -0.1758 -0.4961
  560SOL    HW3 2286   1.531   0.468   1.191  0.0051  0.7447 -0.3637
  560SOL    MW4 2287   1.607   0.506   1.210  0.3357 -0.0128 -0.1462
  561SOL     OW 2288   1.608   0.766   1.179  0.0272 -0.2358  0.0839
  561SOL    HW2 2289   1.670   0.828   1.216  0.3306 -0.4791 -0.0204
  561SOL    HW3 2290   1.618   0.776   1.084 -0.8925  0.5331  0.0581
  561SOL    MW4 2291   1.617   0.775   1.172 -0.0541 -0.1665  0.0668
  562SOL     OW 2292   1.368   0.838   1.284 -0.2436 -0.3815  0.1350
  562SOL    HW2 2293   1.447   0.811   1.237 -0.4869  0.9268 -1.0814
  562SOL    HW3 2294   1.299   0.783   1.248  0.1364 -1.7648  1.4408
  562SOL    MW4 2295   1.370   0.827   1.273 -0.2254 -0.3914  0.1466
  563SOL     OW 2296   1.387   1.080   1.152  0.5953 -0.1557 -0.0348
  563SOL    HW2 2297   1.356   1.006   1.204  1.5169 -0.6545 -0.1803
  563SOL    HW3 2298   1.396   1.044   1.063  1.9676 -0.1414  0.0841
  563SOL    MW4 2299   1.384   1.065   1.147  0.8980 -0.2197 -0.0384
  564SOL     OW 2300   1.570   1.267   1.231 -0.4108  0.6135  0.0162
  564SOL    HW2 2301   1.653   1.236   1.193 -1.0374  0.5233 -1.3067
  564SOL    HW3 2302   1.505   1.204   1.201 -1.2107  1.5581 -0.2603
  564SOL    MW4 2303   1.573   1.254   1.222 -0.5990  0.7261 -0.1948
  565SOL     OW 2304   1.569   1.505   1.091 -0.1920  0.7293  0.1356
  565SOL    HW2 2305   1.643   1.539   1.141 -1.4838  0.8748  1.9997
  565SOL    HW3 2306   1.557   1.416   1.125 -0.5852  0.5357 -0.4997
  565SOL    MW4 2307   1.578   1.497   1.102 -0.4143  0.7229  0.2978
  566SOL     OW 2308   1.371   1.654   1.190 -0.3048 -0.0245 -0.0193
  566SOL    HW2 2309   1.439   1.599   1.152 -0.9204 -1.7712  1.3546
  566SOL    HW3 2310   1.289   1.619   1.155 -0.5902  1.4531 -0.9035
  566SOL    MW4 2311   1.369   1.642   1.180 -0.4238 -0.0600  0.0454
  567SOL     OW 2312   1.373   1.897   1.088  0.6850  0.4045  0.0291
  567SOL    HW2 2313   1.311   1.940   1.146  0.7004  0.2565  0.1570
  567SOL    HW3 2314   1.382   1.809   1.124  0.8274  0.3675 -0.0964
  567SOL    MW4 2315   1.366   1.891   1.100  0.7058  0.3800  0.0293
  568SOL     OW 2316   1.588   2.056   1.220  0.4757  0.1883 -0.0368
  568SOL    HW2 2317   1.581   2.143   1.180  0.3439  0.5665  0.8029
  568SOL    HW3 2318   1.513   2.008   1.185 -1.0569  1.2909  1.6450
  568SOL    MW4 2319   1.577   2.061   1.210  0.2559  0.3836  0.2960
  569SOL     OW 2320   1.591   2.292   1.093 -0.4918  0.1433  0.5325
  569SOL    HW2 2321   1.519   2.344   1.128 -0.9838 -0.3409  0.2408
  569SOL    HW3 2322   1.586   2.305   0.998 -0.4020 -0.1598  0.4861
  569SOL    MW4 2323   1.581   2.301   1.085 -0.5447  0.0393  0.4879
  570SOL     OW 2324   1.402   2.476   1.205 -0.1699 -0.1997  0.1594
  570SOL    HW2 2325   1.372   2.479   1.296  0.5365 -0.7149  0.4207
  570SOL    HW3 2326   1.409   2.568   1.179  0.6490 -0.0204  0.9840
  570SOL    MW4 2327   1.399   2.488   1.214  0.0312 -0.2441  0.3026
  571SOL     OW 2328   1.428   2.747   1.125 -0.0560  0.5299 -0.0884
  571SOL    HW2 2329   1.499   2.799   1.162  1.2938 -2.0780  1.0710
  571SOL    HW3 2330   1.350   2.771   1.175  0.6947  0.9369  0.8723
  571SOL    MW4 2331   1.427   2.757   1.136  0.2213  0.2398  0.1915
  572SOL     OW 2332   1.613   2.888   1.246  0.0085  0.2715  0.4101
  572SOL    HW2 2333   1.692   2.855   1.203  0.0052 -0.4146  0.9170
  572SOL    HW3 2334   1.597   2.973   1.205  1.5050  0.8116  0.9022
  572SOL    MW4 2335   1.621   2.895   1.235  0.2054  0.2522  0.5419
  573SOL     OW 2336   1.552   3.132   1.120 -0.0204  0.4907 -0.3390
  573SOL    HW2 2337   1.621   3.181   1.165 -0.5305  2.1552 -1.3424
  573SOL    HW3 2338   1.471   3.176   1.146 -0.6298 -0.7981 -0.0076
  573SOL    MW4 2339   1.550   3.144   1.130 -0.1681  0.5405 -0.4277
  574SOL     OW 2340   1.298   3.253   1.221  0.1281 -0.3750 -0.0674
  574SOL    HW2 2341   1.322   3.250   1.314  1.1683  1.2596 -0.2612
  574SOL    HW3 2342   1.224   3.193   1.214  1.1226 -1.8351  1.4808
  574SOL    MW4 2343   1.291   3.245   1.233  0.3965 -0.3519  0.1115
  575SOL     OW 2344   1.360   3.510   1.112 -0.7617 -0.3028 -0.1301
  575SOL    HW2 2345   1.326   3.431   1.155 -0.5090 -0.6751 -0.6041
  575SOL    HW3 2346   1.369   3.485   1.020  0.9113 -0.2625  0.0073
  575SOL    MW4 2347   1.357   3.496   1.105 -0.5076 -0.3467 -0.1745
  576SOL     OW 2348   1.548   3.635   1.270 -0.0334  0.1930  0.6894
  576SOL    HW2 2349   1.621   3.590   1.227 -0.4404  0.0608  0.1386
  576SOL    HW3 2350   1.470   3.597   1.232 -0.3856  1.8203 -0.2996
  576SOL    MW4 2351   1.548   3.624   1.260 -0.1335  0.3901  0.4861
  577SOL     OW 2352   1.603   3.883   1.124 -0.2386  0.1212  0.0531
  577SOL    HW2 2353   1.527   3.933   1.155 -0.3506  0.1189 -0.2175
  577SOL    HW3 2354   1.597   3.800   1.171 -0.4950  0.0577 -0.0880
  577SOL    MW4 2355   1.592   3.878   1.134 -0.2872  0.1125 -0.0012
  578SOL     OW 2356   1.391   4.039   1.202  0.5045  0.4613  0.0653
  578SOL    HW2 2357   1.382   4.132   1.181  0.0669  0.0277 -1.8036
  578SOL    HW3 2358   1.304   4.002   1.186  1.1632 -0.6171 -1.1535
  578SOL    MW4 2359   1.379   4.046   1.197  0.5337  0.2618 -0.3419
  579SOL     OW 2360   1.332   4.296   1.139 -0.6674  0.2121 -0.2228
  579SOL    HW2 2361   1.258   4.347   1.171 -2.7355 -1.5425 -2.0248
  579SOL    HW3 2362   1.321   4.295   1.044  0.9261 -1.2070 -0.4191
  579SOL    MW4 2363   1.321   4.303   1.131 -0.7300 -0.2074 -0.4865
  580SOL     OW 2364   1.576   4.431   1.263  0.2023  0.1951 -0.4194
  580SOL    HW2 2365   1.578   4.415   1.357 -0.7161 -0.8017 -0.5666
  580SOL    HW3 2366   1.501   4.382   1.231  0.4500  0.5961 -1.6689
  580SOL    MW4 2367   1.566   4.423   1.271  0.1137  0.1168 -0.6038
  581SOL     OW 2368   2.018   0.025   1.188  0.2064 -0.0283 -0.3836
  581SOL    HW2 2369   2.034  -0.060   1.228 -0.0934 -0.1397 -0.5031
  581SOL    HW3 2370   2.016   0.007   1.094 -0.0820  0.0760 -0.3971
  581SOL    MW4 2371   2.020   0.011   1.181  0.1287 -0.0292 -0.4011
  582SOL     OW 2372   1.783   0.146   1.242  0.3847 -0.3903  0.0222
  582SOL    HW2 2373   1.798   0.234   1.209 -0.1193 -0.6386 -0.8935
  582SOL    HW3 2374   1.866   0.100   1.227  1.1869  0.3532  1.9658
  582SOL    MW4 2375   1.796   0.151   1.236  0.4241 -0.3249  0.1578
  583SOL     OW 2376   1.844   0.389   1.099  0.9828  0.5764  0.0668
  583SOL    HW2 2377   1.768   0.438   1.131  1.5535  1.0602  0.6695
  583SOL    HW3 2378   1.821   0.367   1.009  0.3356  1.1533  0.0857
  583SOL    MW4 2379   1.831   0.393   1.091  0.9727  0.7163  0.1489
  584SOL     OW 2380   2.067   0.530   1.188  0.7362  0.3094  0.0050
  584SOL    HW2 2381   2.048   0.521   1.282 -1.2380 -0.9793 -0.4901
  584SOL    HW3 2382   1.997   0.480   1.145  0.7003  2.2163 -2.2128
  584SOL    MW4 2383   2.055   0.522   1.195  0.4709  0.3909 -0.3530
  585SOL     OW 2384   2.027   0.818   1.104  0.5773  0.5772  0.6791
  585SOL    HW2 2385   2.041   0.733   1.146 -0.9966 -0.5457 -0.9581
  585SOL    HW3 2386   2.001   0.796   1.014  0.8404  2.8214  0.0124
  585SOL    MW4 2387   2.026   0.804   1.097  0.4044  0.7252  0.3752
  586SOL     OW 2388   1.809   0.927   1.228 -0.4466  0.4763  0.1532
  586SOL    HW2 2389   1.833   0.936   1.321  1.4795  1.0902 -0.3688
  586SOL    HW3 2390   1.891   0.902   1.185 -0.5644  3.3131 -1.8545
  586SOL    MW4 2391   1.823   0.925   1.235 -0.2080  0.9316 -0.1806
  587SOL     OW 2392   1.802   1.177   1.116  0.1863  0.3015  0.7399
  587SOL    HW2 2393   1.804   1.173   1.020  0.8994 -0.4680  0.7811
  587SOL    HW3 2394   1.797   1.086   1.144  2.8518  0.3228  1.4683
  587SOL    MW4 2395   1.802   1.165   1.107  0.6320  0.2029  0.8413
  588SOL     OW 2396   2.056   1.271   1.205 -0.0850  0.1108 -0.1736
  588SOL    HW2 2397   2.120   1.216   1.160  0.6740 -0.9781  2.1498
  588SOL    HW3 2398   1.972   1.246   1.168  0.4012 -1.6746 -0.1023
  588SOL    MW4 2399   2.054   1.260   1.194  0.0792 -0.2685  0.1423
  589SOL     OW 2400   2.048   1.519   1.095  0.4821  0.2476 -0.3655
  589SOL    HW2 2401   2.057   1.426   1.117  1.7878  0.3685 -0.3215
  589SOL    HW3 2402   2.042   1.520   1.000  0.9639  0.1521 -0.3978
  589SOL    MW4 2403   2.049   1.507   1.085  0.7181  0.2508 -0.3639
  590SOL     OW 2404   1.796   1.648   1.170 -0.2104 -0.0627  0.2590
  590SOL    HW2 2405   1.796   1.743   1.158  0.8165  0.1045  1.4743
  590SOL    HW3 2406   1.882   1.620   1.138 -0.1457 -0.4627  0.7826
  590SOL    MW4 2407   1.807   1.657   1.164 -0.0664 -0.0933  0.4884
  591SOL     OW 2408   1.822   1.934   1.140  0.1053 -0.4440  0.6414
  591SOL    HW2 2409   1.741   1.965   1.180 -0.8954 -2.5444  0.3322
  591SOL    HW3 2410   1.803   1.930   1.046  1.1354  0.6693  0.3745
  591SOL    MW4 2411   1.808   1.937   1.133  0.1092 -0.5744  0.5652
  592SOL     OW 2412   2.054   2.104   1.216  0.0287 -0.2169  0.1016
  592SOL    HW2 2413   2.077   2.098   1.308  0.0430  1.0178  0.1857
  592SOL    HW3 2414   1.975   2.051   1.206 -1.6618  2.0280  1.3975
  592SOL    MW4 2415   2.047   2.096   1.227 -0.1926  0.2420  0.2837
  593SOL     OW 2416   2.041   2.353   1.095 -0.1695  0.0032  0.0768
  593SOL    HW2 2417   2.113   2.396   1.141  0.2950 -0.6336 -0.0416
  593SOL    HW3 2418   2.037   2.266   1.132 -1.0958  0.1377  0.2996
  593SOL    MW4 2419   2.050   2.347   1.106 -0.2303 -0.0627  0.0906
  594SOL     OW 2420   1.801   2.472   1.196  0.1450 -0.0220  0.0727
  594SOL    HW2 2421   1.879   2.418   1.180  0.3590  0.1986  0.3789
  594SOL    HW3 2422   1.732   2.429   1.145  0.3425 -0.5211  0.2263
  594SOL    MW4 2423   1.802   2.459   1.187  0.1993 -0.0584  0.1333
  595SOL     OW 2424   1.851   2.773   1.135 -0.0254  0.2025 -0.2182
  595SOL    HW2 2425   1.847   2.684   1.169 -1.1574  0.0630 -0.6754
  595SOL    HW3 2426   1.844   2.763   1.040 -1.9960  0.8706 -0.1668
  595SOL    MW4 2427   1.850   2.760   1.127 -0.4348  0.2723 -0.2718
  596SOL     OW 2428   2.044   2.901   1.246  0.4636 -0.6103 -0.0927
  596SOL    HW2 2429   2.035   2.992   1.219  0.0108 -0.1400  1.5549
  596SOL    HW3 2430   1.969   2.856   1.207 -1.4238  0.4996  2.1400
  596SOL    MW4 2431   2.033   2.907   1.238  0.1547 -0.4020  0.4194
  597SOL     OW 2432   2.009   3.166   1.168 -0.1960  0.3785 -0.2728
  597SOL    HW2 2433   1.923   3.195   1.199 -0.0448  0.0295  0.4913
  597SOL    HW3 2434   1.998   3.154   1.074 -1.0295  0.1828 -0.1573
  597SOL    MW4 2435   1.996   3.168   1.160 -0.2861  0.3066 -0.1566
  598SOL     OW 2436   1.766   3.255   1.267 -0.0890  0.0704  0.8238
  598SOL    HW2 2437   1.765   3.254   1.363  0.5100 -1.4241  0.8202
  598SOL    HW3 2438   1.786   3.346   1.245 -1.8899  0.7990  2.0849
  598SOL    MW4 2439   1.768   3.267   1.277 -0.2476 -0.0308  0.9897
  599SOL     OW 2440   1.780   3.518   1.163 -0.0161 -0.2125  0.5885
  599SOL    HW2 2441   1.854   3.575   1.183 -1.7415  2.5166 -0.5334
  599SOL    HW3 2442   1.781   3.510   1.067  0.5209 -2.5557  0.7567
  599SOL    MW4 2443   1.790   3.524   1.153 -0.1727 -0.1614  0.4627
  600SOL     OW 2444   2.013   3.656   1.213  0.4265 -0.0691  0.5249
  600SOL    HW2 2445   2.020   3.646   1.308  0.0459 -1.2060  0.4410
  600SOL    HW3 2446   2.065   3.584   1.177 -0.5329 -0.4506 -0.1238
  600SOL    MW4 2447   2.021   3.645   1.220  0.2496 -0.2694  0.4282
  601SOL     OW 2448   2.033   3.910   1.092 -0.1085  0.1217 -0.2536
  601SOL    HW2 2449   1.956   3.948   1.134 -0.9558 -0.3218 -1.3881
  601SOL    HW3 2450   2.035   3.819   1.123 -0.6685 -0.1735 -1.0906
  601SOL    MW4 2451   2.023   3.903   1.102 -0.2944  0.0243 -0.5137
  602SOL     OW 2452   1.824   4.018   1.217  0.4153  0.3801  0.4337
  602SOL    HW2 2453   1.835   4.011   1.311  0.6852 -0.8644  0.3222
  602SOL    HW3 2454   1.741   3.973   1.199 -0.0029  1.2485  0.1556
  602SOL    MW4 2455   1.814   4.011   1.227  0.3958  0.3304  0.3823
  603SOL     OW 2456   1.807   4.316   1.155  0.2325  0.0589  0.5707
  603SOL    HW2 2457   1.808   4.227   1.191 -1.3651  0.0179  0.5654
  603SOL    HW3 2458   1.733   4.358   1.198  0.9292  1.3704  0.5008
  603SOL    MW4 2459   1.798   4.310   1.165  0.1136  0.2270  0.5608
  604SOL     OW 2460   2.012   4.443   1.279  0.5381 -0.4854  0.1762
  604SOL    HW2 2461   2.011   4.419   1.372  0.5532 -0.0898  0.2768
  604SOL    HW3 2462   1.937   4.396   1.242 -0.6133  0.8595  0.7636
  604SOL    MW4 2463   2.002   4.433   1.286  0.3884 -0.2561  0.2669
  605SOL     OW 2464   2.486   0.021   1.124  0.1658 -0.1247  0.2134
  605SOL    HW2 2465   2.567   0.035   1.173  0.7524 -0.3550 -0.6851
  605SOL    HW3 2466   2.421   0.074   1.171  0.1895 -2.1101  2.6092
  605SOL    MW4 2467   2.488   0.030   1.137  0.2463 -0.4170  0.4110
  606SOL     OW 2468   2.273   0.161   1.211  0.8174 -0.2257  0.0628
  606SOL    HW2 2469   2.272   0.249   1.173  1.1086  0.2005  1.0101
  606SOL    HW3 2470   2.189   0.123   1.186  1.0141  0.0250 -1.0211
  606SOL    MW4 2471   2.262   0.167   1.203  0.8817 -0.1364  0.0447
  607SOL     OW 2472   2.293   0.410   1.074  0.0375 -0.6043 -0.0317
  607SOL    HW2 2473   2.213   0.457   1.096 -1.1863 -2.0373 -1.2269
  607SOL    HW3 2474   2.281   0.385   0.982  1.3788 -1.7785  0.0978
  607SOL    MW4 2475   2.281   0.413   1.065  0.0529 -0.9483 -0.1724
  608SOL     OW 2476   2.518   0.482   1.233  0.2683 -0.1681 -0.0192
  608SOL    HW2 2477   2.490   0.470   1.324 -0.1904  0.3746 -0.0906
  608SOL    HW3 2478   2.451   0.437   1.181 -1.0665  2.0013 -0.2489
  608SOL    MW4 2479   2.506   0.474   1.238  0.0317  0.1897 -0.0589
  609SOL     OW 2480   2.456   0.736   1.129  0.8245  0.0128  0.2195
  609SOL    HW2 2481   2.472   0.656   1.179  0.7807 -0.2769 -0.2257
  609SOL    HW3 2482   2.438   0.705   1.040  0.8599  0.5205  0.0358
  609SOL    MW4 2483   2.456   0.721   1.124  0.8235  0.0417  0.1365
  610SOL     OW 2484   2.255   0.892   1.217  0.4189 -0.4141  0.2343
  610SOL    HW2 2485   2.328   0.842   1.179  1.9011  2.6912 -1.2024
  610SOL    HW3 2486   2.178   0.863   1.168  1.2776 -1.1621 -0.6975
  610SOL    MW4 2487   2.255   0.881   1.206  0.7277 -0.1031 -0.0782
  611SOL     OW 2488   2.269   1.141   1.069  0.0619 -0.1601 -0.2824
  611SOL    HW2 2489   2.332   1.189   1.123 -1.3123  0.6692  0.6303
  611SOL    HW3 2490   2.270   1.052   1.105  1.0200 -0.2634 -0.5544
  611SOL    MW4 2491   2.278   1.135   1.081  0.0069 -0.0641 -0.1978
  612SOL     OW 2492   2.514   1.240   1.207 -0.6384 -0.2426  0.2274
  612SOL    HW2 2493   2.580   1.195   1.154 -1.5920 -2.3149  0.7736
  612SOL    HW3 2494   2.517   1.331   1.176  0.0103 -1.0520 -2.1799
  612SOL    MW4 2495   2.523   1.246   1.196 -0.6788 -0.6226 -0.0182
  613SOL     OW 2496   2.488   1.494   1.109 -0.4443  0.3703  0.2913
  613SOL    HW2 2497   2.412   1.539   1.146 -2.0339  0.2351 -2.6864
  613SOL    HW3 2498   2.480   1.506   1.015  1.6840 -2.0898 -0.2579
  613SOL    MW4 2499   2.477   1.501   1.102 -0.3734  0.0279 -0.1739
  614SOL     OW 2500   2.269   1.642   1.235  0.0374  0.0530  0.2275
  614SOL    HW2 2501   2.268   1.735   1.215 -1.4215 -0.1739 -0.8255
  614SOL    HW3 2502   2.195   1.606   1.186  0.0143 -1.5024  1.3600
  614SOL    MW4 2503   2.259   1.649   1.226 -0.1583 -0.1820  0.2381
  615SOL     OW 2504   2.274   1.906   1.152  0.0695  0.3253  0.3214
  615SOL    HW2 2505   2.185   1.941   1.148  0.7272  2.0949  0.6418
  615SOL    HW3 2506   2.294   1.881   1.062 -0.4088  0.8050  0.0766
  615SOL    MW4 2507   2.264   1.907   1.140  0.0930  0.6222  0.3313
  616SOL     OW 2508   2.462   2.105   1.231  0.2520  0.7158  0.3942
  616SOL    HW2 2509   2.533   2.049   1.201  0.4693  0.5953  1.1133
  616SOL    HW3 2510   2.383   2.066   1.194  0.6036  1.0961 -0.7590
  616SOL    MW4 2511   2.461   2.092   1.222  0.3273  0.7498  0.3370
  617SOL     OW 2512   2.485   2.374   1.086  0.0843 -0.1325  0.2675
  617SOL    HW2 2513   2.480   2.286   1.125  1.0040 -0.5676 -0.5815
  617SOL    HW3 2514   2.500   2.358   0.993 -0.9184  0.9263 -0.0846
  617SOL    MW4 2515   2.486   2.360   1.079  0.0732 -0.0503  0.1090
  618SOL     OW 2516   2.255   2.481   1.196 -0.5516  0.1159  0.7338
  618SOL    HW2 2517   2.266   2.482   1.291 -0.7907 -2.7267  0.8314
  618SOL    HW3 2518   2.335   2.440   1.163 -0.8845  0.2213 -0.2247
  618SOL    MW4 2519   2.267   2.475   1.204 -0.6270 -0.2453  0.6202
  619SOL     OW 2520   2.236   2.748   1.106  0.5050 -0.5038 -0.2136
  619SOL    HW2 2521   2.239   2.659   1.139 -2.1262 -0.6359 -0.2940
  619SOL    HW3 2522   2.168   2.791   1.157 -0.7257  0.4426 -2.5682
  619SOL    MW4 2523   2.228   2.742   1.117 -0.0048 -0.3963 -0.5349
  620SOL     OW 2524   2.473   2.840   1.176  0.5050 -0.1731 -0.3951
  620SOL    HW2 2525   2.471   2.856   1.270 -1.0525 -0.3862 -0.3832
  620SOL    HW3 2526   2.389   2.798   1.157  1.2736 -1.1602 -1.7011
  620SOL    MW4 2527   2.462   2.836   1.186  0.4008 -0.3316 -0.5658
  621SOL     OW 2528   2.456   3.095   1.070  0.2321 -0.5860  0.6213
  621SOL    HW2 2529   2.390   3.136   1.126  0.4803 -0.5888  0.9166
  621SOL    HW3 2530   2.460   3.004   1.100 -0.5532 -0.9215 -0.2511
  621SOL    MW4 2531   2.448   3.089   1.081  0.1612 -0.6306  0.5450
  622SOL     OW 2532   2.260   3.242   1.223  0.8772  0.2804 -0.3050
  622SOL    HW2 2533   2.269   3.329   1.183  0.1215  1.0873  1.2670
  622SOL    HW3 2534   2.169   3.218   1.208  0.7873  0.2598  0.2751
  622SOL    MW4 2535   2.249   3.250   1.216  0.7653  0.3841 -0.0210
  623SOL     OW 2536   2.235   3.487   1.123 -0.1966 -0.4510  0.3377
  623SOL    HW2 2537   2.303   3.542   1.162 -1.2841  1.1230  0.0464
  623SOL    HW3 2538   2.250   3.492   1.029 -0.1048 -0.9222  0.3246
  623SOL    MW4 2539   2.246   3.495   1.116 -0.3281 -0.3052  0.2977
  624SOL     OW 2540   2.474   3.614   1.217  0.3465 -0.2864  0.4169
  624SOL    HW2 2541   2.492   3.617   1.311  0.7403  2.1809  0.3031
  624SOL    HW3 2542   2.491   3.703   1.186 -1.8759 -0.4911 -1.6143
  624SOL    MW4 2543   2.478   3.626   1.225  0.1051  0.0119  0.1340
  625SOL     OW 2544   2.510   3.865   1.127 -0.3845  0.2065  0.2264
  625SOL    HW2 2545   2.424   3.902   1.149  0.0144  1.0844  0.3069
  625SOL    HW3 2546   2.510   3.863   1.031 -0.2043  0.8711  0.2170
  625SOL    MW4 2547   2.498   3.869   1.117 -0.3080  0.4098  0.2358
  626SOL     OW 2548   2.285   4.016   1.221 -0.3014 -0.0125  0.0252
  626SOL    HW2 2549   2.268   4.110   1.214 -0.3602  0.1413  1.9162
  626SOL    HW3 2550   2.217   3.975   1.168 -0.3473  1.0110 -0.7174
  626SOL    MW4 2551   2.274   4.023   1.213 -0.3150  0.1426  0.1767
  627SOL     OW 2552   2.228   4.292   1.178  0.3183  0.5505 -0.6062
  627SOL    HW2 2553   2.149   4.340   1.202  0.1014 -0.0497 -0.1130
  627SOL    HW3 2554   2.219   4.275   1.085 -0.5792 -0.3439 -0.3588
  627SOL    MW4 2555   2.217   4.296   1.169  0.1714  0.3529 -0.5085
  628SOL     OW 2556   2.493   4.395   1.188 -0.5002 -0.1584 -0.0730
  628SOL    HW2 2557   2.407   4.365   1.159 -0.2730  0.5308 -1.4845
  628SOL    HW3 2558   2.495   4.488   1.167  0.1495  0.0931  1.0386
  628SOL    MW4 2559   2.482   4.403   1.182 -0.3846 -0.0348 -0.1125
  629SOL     OW 2560   2.957   4.664   1.152  0.1102 -0.1966  0.2123
  629SOL    HW2 2561   2.960   4.569   1.167  1.1444 -0.2829 -0.4364
  629SOL    HW3 2562   2.951   4.672   1.057  1.7003  0.3955  0.1488
  629SOL    MW4 2563   2.957   4.652   1.141  0.4563 -0.1297  0.1181
  630SOL     OW 2564   2.723   0.086   1.253  0.2433 -0.5892  0.2879
  630SOL    HW2 2565   2.709   0.076   1.347 -1.0295  1.9287  0.4144
  630SOL    HW3 2566   2.805   0.041   1.235  0.7556 -0.6418  2.6980
  630SOL    MW4 2567   2.732   0.079   1.263  0.1428 -0.2639  0.6225
  631SOL     OW 2568   2.728   0.349   1.135  0.1319  0.4336  0.3997
  631SOL    HW2 2569   2.737   0.264   1.178  0.6563 -0.1262 -0.8266
  631SOL    HW3 2570   2.650   0.387   1.175 -0.1484 -0.6485  0.8959
  631SOL    MW4 2571   2.719   0.343   1.146  0.1638  0.2170  0.3035
  632SOL     OW 2572   2.912   0.469   1.282 -0.5237 -0.0227 -0.2257
  632SOL    HW2 2573   2.918   0.561   1.254 -0.5484 -0.2908 -1.1258
  632SOL    HW3 2574   2.840   0.433   1.232 -0.0363 -0.7326 -0.4272
  632SOL    MW4 2575   2.904   0.477   1.272 -0.4628 -0.1518 -0.3710
  633SOL     OW 2576   2.880   0.735   1.183 -0.6247  0.4072  0.2468
  633SOL    HW2 2577   2.962   0.784   1.184 -0.7722  0.6660 -0.3871
  633SOL    HW3 2578   2.815   0.796   1.218 -0.7108  0.4930 -0.0621
  633SOL    MW4 2579   2.882   0.749   1.188 -0.6554  0.4527  0.1223
  634SOL     OW 2580   2.657   0.908   1.249 -0.0405 -0.1075  0.0319
  634SOL    HW2 2581   2.660   0.976   1.183 -0.1364 -0.7363 -0.6329
  634SOL    HW3 2582   2.602   0.840   1.210 -0.1495 -0.4521  0.7840
  634SOL    MW4 2583   2.650   0.908   1.235 -0.0675 -0.2359  0.0434
  635SOL     OW 2584   2.708   1.114   1.067  0.1335 -0.3344 -0.4569
  635SOL    HW2 2585   2.714   1.099   0.973 -0.6207  0.6393 -0.6694
  635SOL    HW3 2586   2.782   1.171   1.087  0.5572 -0.9085 -0.3783
  635SOL    MW4 2587   2.718   1.120   1.057  0.0901 -0.2818 -0.4746
  636SOL     OW 2588   2.922   1.266   1.167  0.1785  0.2567 -0.1035
  636SOL    HW2 2589   2.886   1.272   1.255 -0.9240  0.6027 -0.5699
  636SOL    HW3 2590   2.925   1.356   1.136  1.5826  0.2503 -0.0322
  636SOL    MW4 2591   2.918   1.279   1.174  0.2186  0.3015 -0.1556
  637SOL     OW 2592   2.906   1.536   1.107  0.2672 -0.1772 -0.5113
  637SOL    HW2 2593   2.977   1.578   1.155 -0.0674 -0.6274  0.3722
  637SOL    HW3 2594   2.935   1.539   1.015  1.8680 -1.2043 -0.0630
  637SOL    MW4 2595   2.919   1.542   1.101  0.4344 -0.3721 -0.3355
  638SOL     OW 2596   2.687   1.667   1.227  0.0375 -0.1355  0.0468
  638SOL    HW2 2597   2.766   1.647   1.177  0.3455  2.4101 -0.5745
  638SOL    HW3 2598   2.625   1.598   1.204  1.3035 -0.8410 -1.2786
  638SOL    MW4 2599   2.689   1.655   1.218  0.2451  0.1072 -0.2102
  639SOL     OW 2600   2.666   1.919   1.114  0.3559  0.4451  0.0972
  639SOL    HW2 2601   2.747   1.966   1.136 -0.2528  0.6893  1.8708
  639SOL    HW3 2602   2.677   1.833   1.154  0.6182 -0.2522 -1.4528
  639SOL    MW4 2603   2.678   1.914   1.122  0.3102  0.3852  0.1267
  640SOL     OW 2604   2.902   2.045   1.191  0.5172  0.1076  0.3243
  640SOL    HW2 2605   2.909   2.048   1.286  0.9007  1.4007  0.2775
  640SOL    HW3 2606   2.906   2.137   1.165 -1.4299 -0.0999 -0.8149
  640SOL    MW4 2607   2.903   2.058   1.200  0.3109  0.2508  0.1677
  641SOL     OW 2608   2.930   2.309   1.120  0.0891  0.0674 -0.7339
  641SOL    HW2 2609   3.008   2.355   1.151 -0.8688  0.9989  0.3120
  641SOL    HW3 2610   2.857   2.354   1.162 -0.8293 -2.7908  0.8272
  641SOL    MW4 2611   2.931   2.321   1.130 -0.1583 -0.1869 -0.3897
  642SOL     OW 2612   2.701   2.451   1.229 -0.1174 -0.3592 -0.1572
  642SOL    HW2 2613   2.679   2.454   1.322 -0.7173 -1.5728 -0.2534
  642SOL    HW3 2614   2.618   2.433   1.185 -0.1603  1.9373 -1.0806
  642SOL    MW4 2615   2.688   2.449   1.235 -0.2022 -0.2162 -0.2917
  643SOL     OW 2616   2.708   2.706   1.106 -0.2177 -0.0513 -0.2482
  643SOL    HW2 2617   2.705   2.615   1.138  2.3007  0.2183  0.9227
  643SOL    HW3 2618   2.623   2.742   1.130 -0.4172 -1.4687  1.3338
  643SOL    MW4 2619   2.696   2.699   1.114  0.0885 -0.2029  0.1150
  644SOL     OW 2620   2.942   2.818   1.213 -0.0178 -0.1961 -0.0773
  644SOL    HW2 2621   2.920   2.831   1.305 -0.2158  2.4668 -0.4629
  644SOL    HW3 2622   2.865   2.776   1.175 -0.8871  0.8767  0.4741
  644SOL    MW4 2623   2.929   2.814   1.220 -0.1585  0.2968 -0.0554
  645SOL     OW 2624   2.919   3.087   1.117  0.2316 -0.0776 -0.9851
  645SOL    HW2 2625   2.923   2.997   1.149 -2.9185 -0.6060 -1.8768
  645SOL    HW3 2626   2.901   3.078   1.023 -0.5608  1.4643 -1.0044
  645SOL    MW4 2627   2.917   3.074   1.108 -0.2887  0.0558 -1.1053
  646SOL     OW 2628   2.677   3.231   1.207  0.1916 -0.1122  0.3579
  646SOL    HW2 2629   2.758   3.194   1.171  0.5343  0.8731  0.1069
  646SOL    HW3 2630   2.609   3.200   1.147  0.6704  0.9448 -0.7571
  646SOL    MW4 2631   2.679   3.222   1.194  0.3002  0.1571  0.1776
  647SOL     OW 2632   2.694   3.494   1.120  0.5237  0.6541  0.2379
  647SOL    HW2 2633   2.683   3.403   1.147 -1.0143  0.8153  0.2133
  647SOL    HW3 2634   2.612   3.537   1.146  0.4381  1.5989 -1.5164
  647SOL    MW4 2635   2.682   3.488   1.127  0.3095  0.8001  0.0033
  648SOL     OW 2636   2.923   3.633   1.172 -0.0947 -0.2012  0.3970
  648SOL    HW2 2637   2.991   3.568   1.158  1.1541  0.7179  2.0971
  648SOL    HW3 2638   2.841   3.585   1.158  0.8451 -1.6681 -0.1697
  648SOL    MW4 2639   2.921   3.618   1.168  0.1941 -0.2735  0.5466
  649SOL     OW 2640   2.930   3.905   1.110  0.1597  0.3303  0.3491
  649SOL    HW2 2641   3.015   3.940   1.136  0.0567  0.3317  0.6892
  649SOL    HW3 2642   2.934   3.812   1.133 -0.2579  0.5158  1.2152
  649SOL    MW4 2643   2.941   3.897   1.117  0.0908  0.3550  0.5083
  650SOL     OW 2644   2.710   4.046   1.244 -0.6076  0.0248  0.0739
  650SOL    HW2 2645   2.788   3.996   1.221 -0.4907 -0.5430  1.6518
  650SOL    HW3 2646   2.637   3.998   1.204 -0.4587 -1.2251  1.2743
  650SOL    MW4 2647   2.710   4.033   1.236 -0.5722 -0.2151  0.4404
  651SOL     OW 2648   2.732   4.279   1.087 -0.0734  0.1133 -0.1130
  651SOL    HW2 2649   2.741   4.192   1.127 -0.8414  0.1261  0.0938
  651SOL    HW3 2650   2.656   4.318   1.130  0.3969  0.9791 -0.0450
  651SOL    MW4 2651   2.724   4.273   1.098 -0.1128  0.2294 -0.0767
  652SOL     OW 2652   2.938   4.391   1.226 -0.0272  0.4046  0.3758
  652SOL    HW2 2653   3.017   4.349   1.192  0.1786  0.1341  1.1546
  652SOL    HW3 2654   2.866   4.353   1.175  0.3732  0.9251 -0.5860
  652SOL    MW4 2655   2.939   4.380   1.215  0.0529  0.4373  0.3515
  653SOL     OW 2656   3.424   4.640   1.106  0.1451 -0.3098  0.7897
  653SOL    HW2 2657   3.497   4.679   1.154 -0.2328 -0.6593  1.6684
  653SOL    HW3 2658   3.346   4.671   1.153 -0.1862 -1.5892  1.0972
  653SOL    MW4 2659   3.423   4.649   1.119  0.0515 -0.5250  0.9463
  654SOL     OW 2660   3.195   0.097   1.234 -0.4121 -0.1146  0.1338
  654SOL    HW2 2661   3.187   0.086   1.328 -0.0623 -1.4186  0.0218
  654SOL    HW3 2662   3.110   0.071   1.199 -1.1328  2.0601  0.2106
  654SOL    MW4 2663   3.183   0.092   1.242 -0.4609  0.0002  0.1291
  655SOL     OW 2664   3.190   0.365   1.170 -0.0106  0.0072 -0.6664
  655SOL    HW2 2665   3.200   0.275   1.202 -0.6301  0.0413 -0.3732
  655SOL    HW3 2666   3.106   0.393   1.205  0.2491  0.7542 -0.6415
  655SOL    MW4 2667   3.180   0.357   1.179 -0.0582  0.1103 -0.6243
  656SOL     OW 2668   3.398   0.510   1.294  1.1389 -0.1987 -0.3468
  656SOL    HW2 2669   3.391   0.592   1.245 -1.0047 -0.5580 -0.7057
  656SOL    HW3 2670   3.324   0.457   1.263  0.0538 -0.6541  2.8407
  656SOL    MW4 2671   3.387   0.514   1.284  0.7129 -0.3062  0.0265
  657SOL     OW 2672   3.366   0.737   1.137 -0.3602 -0.1618 -0.0867
  657SOL    HW2 2673   3.280   0.771   1.159 -0.8281 -1.6237  0.4084
  657SOL    HW3 2674   3.369   0.739   1.041 -1.2816 -0.8878 -0.1393
  657SOL    MW4 2675   3.355   0.742   1.127 -0.5436 -0.4504 -0.0284
  658SOL     OW 2676   3.151   0.860   1.229  0.0777  0.0274 -0.6002
  658SOL    HW2 2677   3.150   0.868   1.325  0.3135 -0.7320 -0.5316
  658SOL    HW3 2678   3.137   0.950   1.198  0.2945  0.3277  0.1423
  658SOL    MW4 2679   3.149   0.873   1.238  0.1373 -0.0331 -0.4932
  659SOL     OW 2680   3.145   1.119   1.142 -0.0662  0.2429  0.7750
  659SOL    HW2 2681   3.213   1.175   1.180 -0.0666 -1.0497  2.7414
  659SOL    HW3 2682   3.063   1.166   1.158 -0.1310 -0.6056  2.9980
  659SOL    MW4 2683   3.143   1.133   1.149 -0.0746 -0.0396  1.3278
  660SOL     OW 2684   3.362   1.269   1.253  0.1105 -0.1563  0.2188
  660SOL    HW2 2685   3.348   1.293   1.344  1.2516 -0.2677  0.4274
  660SOL    HW3 2686   3.355   1.351   1.205 -0.7420 -0.1331  0.3644
  660SOL    MW4 2687   3.359   1.283   1.259  0.1485 -0.1678  0.2655
  661SOL     OW 2688   3.357   1.523   1.122  0.5239 -0.0486 -0.0476
  661SOL    HW2 2689   3.426   1.582   1.153  0.4232  0.5564 -0.9452
  661SOL    HW3 2690   3.276   1.573   1.133  0.3142 -0.4521  0.2466
  661SOL    MW4 2691   3.356   1.538   1.128  0.4828 -0.0221 -0.1273
  662SOL     OW 2692   3.132   1.646   1.236 -0.1209  0.4688  0.0923
  662SOL    HW2 2693   3.134   1.646   1.331  4.0050  0.3692  0.0905
  662SOL    HW3 2694   3.128   1.739   1.212 -0.1144  0.5366  0.3561
  662SOL    MW4 2695   3.131   1.658   1.245  0.4244  0.4646  0.1270
  663SOL     OW 2696   3.131   1.896   1.128 -0.4855 -0.3701  0.7317
  663SOL    HW2 2697   3.213   1.937   1.157 -0.6515  0.1432  0.4773
  663SOL    HW3 2698   3.063   1.960   1.149 -0.9631 -1.2746  1.9920
  663SOL    MW4 2699   3.133   1.910   1.135 -0.5705 -0.4218  0.8644
  664SOL     OW 2700   3.360   2.046   1.229  0.0636  0.0008 -0.8421
  664SOL    HW2 2701   3.446   2.018   1.199  0.5286  0.0306  0.4264
  664SOL    HW3 2702   3.351   2.136   1.198  1.6850  0.9969  1.4147
  664SOL    MW4 2703   3.370   2.054   1.221  0.3386  0.1361 -0.3771
  665SOL     OW 2704   3.365   2.303   1.119  0.2266 -0.1587  0.0183
  665SOL    HW2 2705   3.449   2.345   1.137  0.3711  0.1342 -1.2935
  665SOL    HW3 2706   3.301   2.357   1.165  0.6867  0.0266  0.4408
  665SOL    MW4 2707   3.367   2.316   1.127  0.3064 -0.0956 -0.0989
  666SOL     OW 2708   3.150   2.431   1.238 -0.1003  0.2873 -0.0412
  666SOL    HW2 2709   3.157   2.447   1.333 -1.0221  0.9257 -0.0673
  666SOL    HW3 2710   3.172   2.515   1.198  1.4277 -0.2939 -0.4469
  666SOL    MW4 2711   3.154   2.444   1.246 -0.0205  0.2947 -0.0982
  667SOL     OW 2712   3.178   2.686   1.153  0.5894  0.1855  0.2642
  667SOL    HW2 2713   3.101   2.734   1.182 -0.0981 -1.2277  0.8050
  667SOL    HW3 2714   3.165   2.674   1.059 -0.2752 -0.8124  0.5079
  667SOL    MW4 2715   3.166   2.691   1.145  0.3846 -0.1326  0.3678
  668SOL     OW 2716   3.391   2.821   1.279  0.0987 -0.1570 -0.2118
  668SOL    HW2 2717   3.398   2.904   1.232  0.4237 -0.1752 -0.1980
  668SOL    HW3 2718   3.312   2.780   1.244  0.1377 -0.0048 -0.4745
  668SOL    MW4 2719   3.381   2.827   1.268  0.1469 -0.1392 -0.2446
  669SOL     OW 2720   3.404   3.057   1.130 -0.1760 -0.2008 -0.0062
  669SOL    HW2 2721   3.476   3.101   1.175  1.4120  0.0345 -2.6136
  669SOL    HW3 2722   3.326   3.103   1.158  0.9008  0.8393  1.3673
  669SOL    MW4 2723   3.403   3.068   1.139  0.1757 -0.0327 -0.1688
  670SOL     OW 2724   3.175   3.193   1.219 -0.3759  0.2202 -0.3256
  670SOL    HW2 2725   3.168   3.285   1.193  0.2430  0.4738  0.3809
  670SOL    HW3 2726   3.095   3.152   1.186 -0.5160  0.9511 -0.8962
  670SOL    MW4 2727   3.164   3.200   1.211 -0.3126  0.3502 -0.3077
  671SOL     OW 2728   3.148   3.455   1.153 -0.3468 -0.0732  0.2391
  671SOL    HW2 2729   3.233   3.488   1.183 -0.2438 -1.4516  1.5225
  671SOL    HW3 2730   3.163   3.430   1.061  0.6630 -0.3659  0.4759
  671SOL    MW4 2731   3.162   3.456   1.145 -0.2000 -0.2937  0.4398
  672SOL     OW 2732   3.382   3.585   1.246 -0.4905  0.1557 -0.2446
  672SOL    HW2 2733   3.382   3.591   1.341 -0.4044  2.6059 -0.3696
  672SOL    HW3 2734   3.475   3.572   1.223 -0.3401  0.8900 -0.0569
  672SOL    MW4 2735   3.395   3.584   1.256 -0.4594  0.5755 -0.2362
  673SOL     OW 2736   3.406   3.831   1.143  0.1920 -0.0719 -0.0810
  673SOL    HW2 2737   3.401   3.748   1.191  2.4939  0.4482  1.0722
  673SOL    HW3 2738   3.338   3.886   1.182 -0.1396 -0.7835  0.3484
  673SOL    MW4 2739   3.396   3.827   1.154  0.4523 -0.0973  0.1279
  674SOL     OW 2740   3.168   4.008   1.224 -0.3523  0.1785 -0.0730
  674SOL    HW2 2741   3.136   3.994   1.313  0.0069 -0.1764 -0.0007
  674SOL    HW3 2742   3.159   4.102   1.211 -0.9086  0.1623  0.1445
  674SOL    MW4 2743   3.162   4.019   1.234 -0.3781  0.1302 -0.0347
  675SOL     OW 2744   3.158   4.276   1.115 -0.2509 -0.1539  0.0201
  675SOL    HW2 2745   3.232   4.315   1.163 -0.2611  1.2695 -1.0819
  675SOL    HW3 2746   3.185   4.278   1.023 -1.4282 -0.1238 -0.3362
  675SOL    MW4 2747   3.171   4.282   1.109 -0.4077  0.0381 -0.1725
  676SOL     OW 2748   3.393   4.402   1.236  0.0301  0.0215  0.4951
  676SOL    HW2 2749   3.454   4.333   1.213 -0.5011 -0.4145  0.3686
  676SOL    HW3 2750   3.427   4.480   1.193  1.2232  0.0728  1.5319
  676SOL    MW4 2751   3.405   4.403   1.228  0.1175 -0.0291  0.6152
  677SOL     OW 2752   3.804   4.633   1.181 -0.1340 -0.4570 -0.0028
  677SOL    HW2 2753   3.822   4.547   1.220  0.3934 -0.2293  0.2629
  677SOL    HW3 2754   3.785   4.614   1.089  0.1534 -0.8385  0.0162
  677SOL    MW4 2755   3.804   4.619   1.174 -0.0265 -0.4773  0.0348
  678SOL     OW 2756   3.604   0.116   1.275 -0.2003 -0.0473  0.0776
  678SOL    HW2 2757   3.602   0.197   1.224  0.2628  0.2089  0.4589
  678SOL    HW3 2758   3.689   0.077   1.255 -0.2268 -0.2014  0.2594
  678SOL    MW4 2759   3.615   0.121   1.266 -0.1426 -0.0338  0.1519
  679SOL     OW 2760   3.587   0.354   1.146 -0.4556 -0.0888 -0.2232
  679SOL    HW2 2761   3.660   0.402   1.185  0.3044 -1.1412 -0.3117
  679SOL    HW3 2762   3.508   0.393   1.185  0.2289 -0.0339  1.1403
  679SOL    MW4 2763   3.586   0.365   1.156 -0.2649 -0.2204 -0.0550
  680SOL     OW 2764   3.790   0.516   1.261  0.2615  0.0189  0.0525
  680SOL    HW2 2765   3.866   0.460   1.244  0.2408  0.1258 -0.3964
  680SOL    HW3 2766   3.800   0.590   1.202 -0.3698 -0.1396 -0.2704
  680SOL    MW4 2767   3.801   0.518   1.251  0.1755  0.0122 -0.0494
  681SOL     OW 2768   3.857   0.766   1.164  0.2860 -0.1561  0.6621
  681SOL    HW2 2769   3.917   0.833   1.197  0.7945 -1.0549  1.6074
  681SOL    HW3 2770   3.770   0.795   1.191  0.3680  0.7565 -0.0318
  681SOL    MW4 2771   3.853   0.779   1.172  0.3638 -0.1543  0.6952
  682SOL     OW 2772   3.606   0.858   1.211 -0.2147 -0.5931  0.3516
  682SOL    HW2 2773   3.608   0.950   1.187  1.6281 -0.3998  1.1518
  682SOL    HW3 2774   3.517   0.829   1.190 -0.1452  0.7950 -2.0017
  682SOL    MW4 2775   3.595   0.866   1.205  0.0374 -0.3845  0.1467
  683SOL     OW 2776   3.590   1.132   1.161  0.1559  0.6565 -0.2455
  683SOL    HW2 2777   3.659   1.185   1.199  0.5616 -2.3088  3.4009
  683SOL    HW3 2778   3.510   1.160   1.206  0.1612 -0.8512  0.7270
  683SOL    MW4 2779   3.589   1.143   1.172  0.2103  0.0663  0.3638
  684SOL     OW 2780   3.788   1.310   1.249  0.2578  0.1483  0.0141
  684SOL    HW2 2781   3.778   1.311   1.344  2.3760  0.6793  0.2417
  684SOL    HW3 2782   3.774   1.401   1.222  0.4327  0.1392 -0.1073
  684SOL    MW4 2783   3.785   1.322   1.258  0.5603  0.2172  0.0281
  685SOL     OW 2784   3.818   1.573   1.155  0.2287 -0.4627  0.3576
  685SOL    HW2 2785   3.904   1.604   1.184  0.2792  0.5731 -0.8732
  685SOL    HW3 2786   3.829   1.551   1.063 -0.9948  0.3424  0.0070
  685SOL    MW4 2787   3.831   1.574   1.147  0.0741 -0.2198  0.1490
  686SOL     OW 2788   3.569   1.696   1.186 -0.1676 -0.3591 -0.3135
  686SOL    HW2 2789   3.570   1.791   1.172  0.1645 -0.4177 -0.7057
  686SOL    HW3 2790   3.661   1.671   1.184 -0.2417 -0.6582  0.0222
  686SOL    MW4 2791   3.581   1.705   1.184 -0.1335 -0.4063 -0.3209
  687SOL     OW 2792   3.609   1.962   1.140  0.0579  0.2278 -0.3848
  687SOL    HW2 2793   3.692   2.005   1.159  0.1623  0.9880 -2.4148
  687SOL    HW3 2794   3.609   1.951   1.045 -1.5030 -1.1351 -0.2513
  687SOL    MW4 2795   3.620   1.966   1.130 -0.1342  0.1483 -0.6350
  688SOL     OW 2796   3.844   2.079   1.230 -0.3498 -0.3743 -0.1181
  688SOL    HW2 2797   3.866   2.085   1.323 -0.3290  2.7981 -0.2789
  688SOL    HW3 2798   3.917   2.030   1.191  1.1056  0.8102  1.0797
  688SOL    MW4 2799   3.857   2.073   1.237 -0.1554  0.2005  0.0187
  689SOL     OW 2800   3.844   2.322   1.112  0.4822 -0.1167 -0.4199
  689SOL    HW2 2801   3.912   2.381   1.145  2.3210 -1.4144 -1.7798
  689SOL    HW3 2802   3.851   2.244   1.167 -1.2472  0.4932  0.6995
  689SOL    MW4 2803   3.854   2.319   1.123  0.4966 -0.2072 -0.4516
  690SOL     OW 2804   3.586   2.439   1.216 -0.4738 -0.1782 -0.3219
  690SOL    HW2 2805   3.601   2.446   1.310  0.2770  1.1743 -0.5334
  690SOL    HW3 2806   3.672   2.418   1.179 -0.6090  0.0696 -0.7830
  690SOL    MW4 2807   3.599   2.437   1.224 -0.3922  0.0331 -0.4106
  691SOL     OW 2808   3.622   2.703   1.152  0.3870 -0.1253 -0.8581
  691SOL    HW2 2809   3.597   2.613   1.174 -2.6994  0.6301 -1.0235
  691SOL    HW3 2810   3.548   2.756   1.183  1.6360  2.2204 -1.8322
  691SOL    MW4 2811   3.609   2.698   1.159  0.1447  0.2837 -1.0084
  692SOL     OW 2812   3.872   2.798   1.238 -0.3586  0.3576 -0.2484
  692SOL    HW2 2813   3.864   2.815   1.332 -0.6498  2.4582 -0.6286
  692SOL    HW3 2814   3.787   2.763   1.213 -0.0189 -0.9576  0.4180
  692SOL    MW4 2815   3.860   2.796   1.247 -0.3524  0.4613 -0.2106
  693SOL     OW 2816   3.811   3.060   1.148 -0.4379  0.3645  0.3367
  693SOL    HW2 2817   3.835   2.972   1.176 -1.6794  0.2155  0.9431
  693SOL    HW3 2818   3.812   3.056   1.052 -0.8368 -0.4139  0.3603
  693SOL    MW4 2819   3.814   3.048   1.139 -0.6542  0.2420  0.4197
  694SOL     OW 2820   3.613   3.216   1.287 -0.2484 -0.0477 -0.1790
  694SOL    HW2 2821   3.623   3.305   1.251 -1.7518  0.1676 -0.0772
  694SOL    HW3 2822   3.677   3.164   1.238 -0.4471  0.7828 -1.3592
  694SOL    MW4 2823   3.623   3.221   1.276 -0.4730  0.0904 -0.3213
  695SOL     OW 2824   3.629   3.457   1.148 -0.1208 -0.1794  0.0939
  695SOL    HW2 2825   3.714   3.502   1.154  0.6099 -1.6176  0.7706
  695SOL    HW3 2826   3.622   3.431   1.056  0.3074 -0.2972  0.0939
  695SOL    MW4 2827   3.640   3.460   1.136  0.0319 -0.3846  0.1831
  696SOL     OW 2828   3.851   3.620   1.186 -0.0555 -0.0246  0.4433
  696SOL    HW2 2829   3.826   3.632   1.278  0.0732  0.6556  0.3892
  696SOL    HW3 2830   3.865   3.709   1.153 -0.0002 -0.2748 -0.2075
  696SOL    MW4 2831   3.850   3.633   1.194 -0.0315  0.0319  0.3504
  697SOL     OW 2832   3.888   3.869   1.086 -0.3393 -0.1493  0.2084
  697SOL    HW2 2833   3.812   3.904   1.133 -0.5531 -0.7296  0.2987
  697SOL    HW3 2834   3.860   3.867   0.994 -0.4809 -0.4819  0.2577
  697SOL    MW4 2835   3.874   3.873   1.080 -0.3858 -0.2697  0.2269
  698SOL     OW 2836   3.651   3.948   1.214 -0.3515  0.1585 -0.3271
  698SOL    HW2 2837   3.635   3.951   1.308  0.2300  1.5107 -0.2622
  698SOL    HW3 2838   3.573   3.905   1.178  0.1361 -1.8296  0.9141
  698SOL    MW4 2839   3.638   3.943   1.221 -0.2105  0.0744 -0.1547
  699SOL     OW 2840   3.597   4.226   1.182  0.3258 -0.1476  0.1820
  699SOL    HW2 2841   3.609   4.133   1.202 -1.2882 -0.3456  0.3157
  699SOL    HW3 2842   3.599   4.231   1.087  0.1588 -0.3595  0.1668
  699SOL    MW4 2843   3.599   4.215   1.172  0.0908 -0.2017  0.1976
  700SOL     OW 2844   3.846   4.376   1.282 -1.0399 -0.0806 -0.0669
  700SOL    HW2 2845   3.838   4.385   1.377  0.1506  0.9788 -0.0575
  700SOL    HW3 2846   3.765   4.332   1.256 -1.7052  0.2595  1.3514
  700SOL    MW4 2847   3.834   4.371   1.291 -0.9708  0.1040  0.1214
  701SOL     OW 2848   4.283   4.663   1.135  0.6624 -0.1495  0.1688
  701SOL    HW2 2849   4.289   4.576   1.174 -2.2653 -0.3012  0.3609
  701SOL    HW3 2850   4.204   4.701   1.172  0.0951  1.3223 -2.4436
  701SOL    MW4 2851   4.274   4.656   1.145  0.2012  0.0243 -0.1506
  702SOL     OW 2852   4.043   0.088   1.269  0.2134  0.4547 -0.0224
  702SOL    HW2 2853   4.035   0.063   1.361  0.2786  0.1303 -0.1039
  702SOL    HW3 2854   3.966   0.049   1.227  2.0329 -2.4799 -0.7712
  702SOL    MW4 2855   4.032   0.079   1.275  0.4621  0.0247 -0.1318
  703SOL     OW 2856   4.025   0.367   1.221  0.5019  0.4890 -0.2043
  703SOL    HW2 2857   4.026   0.276   1.249  2.1356  0.7275  0.5753
  703SOL    HW3 2858   3.993   0.364   1.131  1.1066 -0.8977 -0.3844
  703SOL    MW4 2859   4.021   0.355   1.213  0.7977  0.3375 -0.1252
  704SOL     OW 2860   4.246   0.516   1.286  0.2531 -0.0236  0.1154
  704SOL    HW2 2861   4.255   0.515   1.381  1.6217 -1.9459 -0.0225
  704SOL    HW3 2862   4.177   0.452   1.268 -1.6902  2.0663 -0.0465
  704SOL    MW4 2863   4.238   0.507   1.296  0.1774 -0.0015  0.0758
  705SOL     OW 2864   4.280   0.765   1.156  0.2131 -0.0681  0.1387
  705SOL    HW2 2865   4.272   0.677   1.193 -0.1506 -0.2362 -0.3362
  705SOL    HW3 2866   4.278   0.752   1.061  0.3962  0.4318  0.0628
  705SOL    MW4 2867   4.279   0.752   1.148  0.1898 -0.0243  0.0660
  706SOL     OW 2868   4.053   0.945   1.240  0.3618 -0.1161  0.1430
  706SOL    HW2 2869   4.053   0.954   1.336  0.5939 -0.4578  0.1722
  706SOL    HW3 2870   4.123   0.883   1.221  2.2759  2.1506 -0.4637
  706SOL    MW4 2871   4.062   0.938   1.250  0.6456  0.1379  0.0668
  707SOL     OW 2872   4.027   1.206   1.154  0.2898  0.4905  0.5963
  707SOL    HW2 2873   4.029   1.115   1.183  0.6784  0.0372 -0.8192
  707SOL    HW3 2874   3.937   1.234   1.171  0.5566  0.3199  2.4227
  707SOL    MW4 2875   4.016   1.198   1.160  0.3762  0.4082  0.6505
  708SOL     OW 2876   4.257   1.336   1.274 -0.1938 -0.8359 -0.2092
  708SOL    HW2 2877   4.264   1.347   1.369  0.1989  0.0314 -0.3304
  708SOL    HW3 2878   4.171   1.296   1.261 -0.1883 -1.1028  0.5205
  708SOL    MW4 2879   4.247   1.332   1.285 -0.1411 -0.7567 -0.1290
  709SOL     OW 2880   4.286   1.567   1.133  0.3419 -0.3416 -0.1849
  709SOL    HW2 2881   4.286   1.487   1.186 -1.5863  2.1063  3.7111
  709SOL    HW3 2882   4.363   1.616   1.163 -0.4266  0.8074 -0.0568
  709SOL    MW4 2883   4.296   1.563   1.144 -0.0134  0.1329  0.3459
  710SOL     OW 2884   4.061   1.709   1.212  0.4084 -0.1770  0.2994
  710SOL    HW2 2885   4.092   1.705   1.302  0.6624  0.7350  0.2550
  710SOL    HW3 2886   4.122   1.653   1.163 -0.4317 -1.6295  0.8753
  710SOL    MW4 2887   4.073   1.701   1.217  0.3309 -0.2483  0.3697
  711SOL     OW 2888   4.040   1.966   1.086  0.0528 -0.1039  0.6596
  711SOL    HW2 2889   4.060   1.877   1.118 -0.0606 -0.3736 -0.0185
  711SOL    HW3 2890   4.005   1.952   0.998 -0.9519  0.5411  0.9562
  711SOL    MW4 2891   4.038   1.952   1.079 -0.0949 -0.0544  0.6093
  712SOL     OW 2892   4.269   2.057   1.250  0.1428  0.1291  0.3003
  712SOL    HW2 2893   4.298   2.143   1.221  1.7085 -0.9208 -1.3836
  712SOL    HW3 2894   4.184   2.044   1.208 -0.2652  1.0152  0.8650
  712SOL    MW4 2895   4.262   2.067   1.241  0.2956  0.1075  0.1527
  713SOL     OW 2896   4.288   2.315   1.162  0.2701  0.6725  0.1228
  713SOL    HW2 2897   4.208   2.361   1.184  0.2241  0.8018 -0.3208
  713SOL    HW3 2898   4.293   2.318   1.066  0.8308  0.7165  0.1501
  713SOL    MW4 2899   4.278   2.321   1.152  0.3381  0.6955  0.0679
  714SOL     OW 2900   4.062   2.458   1.217  0.0462 -0.3457 -0.3607
  714SOL    HW2 2901   4.066   2.462   1.313  0.5584 -1.1793 -0.3308
  714SOL    HW3 2902   4.079   2.547   1.188  0.0602 -0.1203  0.3285
  714SOL    MW4 2903   4.065   2.470   1.226  0.1154 -0.4261 -0.2657
  715SOL     OW 2904   4.137   2.723   1.135  0.0582 -0.1554  0.2132
  715SOL    HW2 2905   4.051   2.752   1.167  0.6822  0.1754  1.6060
  715SOL    HW3 2906   4.122   2.704   1.042 -2.4137 -3.6229  1.2027
  715SOL    MW4 2907   4.123   2.725   1.127 -0.1860 -0.5691  0.5275
  716SOL     OW 2908   4.338   2.868   1.241  0.1988  0.1668  0.1571
  716SOL    HW2 2909   4.339   2.954   1.199  0.3810  0.0584 -0.0573
  716SOL    HW3 2910   4.258   2.827   1.208 -1.3372  1.2887  2.3251
  716SOL    MW4 2911   4.328   2.874   1.231  0.0200  0.3004  0.4151
  717SOL     OW 2912   4.296   3.114   1.114  0.1273  0.4845 -0.3509
  717SOL    HW2 2913   4.224   3.154   1.163 -0.2028 -0.5871  0.0489
  717SOL    HW3 2914   4.266   3.115   1.023 -0.5821 -0.3602 -0.1292
  717SOL    MW4 2915   4.282   3.119   1.108 -0.0095  0.2317 -0.2691
  718SOL     OW 2916   4.050   3.197   1.227 -0.1497 -0.1583  0.5277
  718SOL    HW2 2917   4.048   3.201   1.323 -1.2709 -0.2443  0.5133
  718SOL    HW3 2918   3.971   3.149   1.203 -0.5191  0.9232 -0.5019
  718SOL    MW4 2919   4.040   3.191   1.236 -0.3462 -0.0269  0.3899
  719SOL     OW 2920   4.093   3.467   1.127  0.0688 -0.0312  0.1158
  719SOL    HW2 2921   4.079   3.377   1.158  0.1805  0.7521  2.5314
  719SOL    HW3 2922   4.008   3.509   1.136  0.0149  0.1129 -1.0295
  719SOL    MW4 2923   4.080   3.461   1.132  0.0763  0.0911  0.2834
  720SOL     OW 2924   4.249   3.639   1.277 -0.4913 -0.6131 -0.0290
  720SOL    HW2 2925   4.179   3.592   1.231 -0.5299 -1.3260  0.7607
  720SOL    HW3 2926   4.330   3.597   1.247 -0.4218 -0.0496 -0.6384
  720SOL    MW4 2927   4.250   3.627   1.267 -0.4878 -0.6330 -0.0051
  721SOL     OW 2928   4.301   3.887   1.163 -0.2267  0.5755 -0.0569
  721SOL    HW2 2929   4.224   3.938   1.188 -0.2361  0.6371 -0.2160
  721SOL    HW3 2930   4.282   3.798   1.194 -0.7936  0.3693 -0.9873
  721SOL    MW4 2931   4.288   3.882   1.171 -0.3028  0.5565 -0.2006
  722SOL     OW 2932   4.076   4.027   1.224  0.1974  0.0838 -0.3766
  722SOL    HW2 2933   4.066   4.116   1.189  1.7117  0.0327 -0.9691
  722SOL    HW3 2934   4.016   3.974   1.171 -0.1508  0.6213 -0.5298
  722SOL    MW4 2935   4.067   4.032   1.212  0.3514  0.1478 -0.4748
  723SOL     OW 2936   4.100   4.299   1.129 -0.3519 -0.1164 -0.4545
  723SOL    HW2 2937   4.012   4.311   1.165  0.2126  1.4907  0.4356
  723SOL    HW3 2938   4.086   4.294   1.034 -1.3355  0.8677 -0.3765
  723SOL    MW4 2939   4.087   4.300   1.121 -0.4072  0.2255 -0.3269
  724SOL     OW 2940   4.306   4.413   1.283  0.4638  0.2832  0.0903
  724SOL    HW2 2941   4.231   4.368   1.244 -0.7378  0.7306  1.8292
  724SOL    HW3 2942   4.382   4.373   1.241 -0.6581 -1.6558 -0.1538
  724SOL    MW4 2943   4.306   4.402   1.272  0.1574  0.0868  0.2875
  725SOL     OW 2944   0.281   4.634   1.660  0.0662 -0.2152 -0.3747
  725SOL    HW2 2945   0.352   4.695   1.642  0.8998 -1.3185 -0.8743
  725SOL    HW3 2946   0.202   4.680   1.630  0.4769  1.2625  0.7573
  725SOL    MW4 2947   0.280   4.648   1.654  0.2304 -0.1655 -0.2912
  726SOL     OW 2948   0.061   0.133   1.548  0.0161 -0.0890 -0.2118
  726SOL    HW2 2949  -0.020   0.092   1.579 -0.5380  2.0192  1.2594
  726SOL    HW3 2950   0.041   0.161   1.459 -0.3090 -1.0955 -0.4581
  726SOL    MW4 2951   0.048   0.131   1.541 -0.0999  0.0564 -0.0501
  727SOL     OW 2952   4.490   0.395   1.639 -0.5731 -0.2156  0.0402
  727SOL    HW2 2953   4.499   0.395   1.734 -1.7958 -0.0956  0.1667
  727SOL    HW3 2954   4.500   0.303   1.614  1.3415 -0.0515  0.1030
  727SOL    MW4 2955   4.493   0.383   1.648 -0.4818 -0.1781  0.0651
  728SOL     OW 2956   0.261   0.501   1.538 -0.0548  0.1053  0.2865
  728SOL    HW2 2957   0.171   0.484   1.564 -0.1835  0.8136  0.3117
  728SOL    HW3 2958   0.260   0.497   1.442  0.1827 -1.3161  0.3244
  728SOL    MW4 2959   0.249   0.498   1.529 -0.0405  0.0112  0.2949
  729SOL     OW 2960   0.251   0.771   1.604 -0.0268 -0.2272  0.1455
  729SOL    HW2 2961   0.330   0.817   1.577 -0.4085  0.8534  0.8537
  729SOL    HW3 2962   0.265   0.680   1.576  0.3965  0.4653 -1.9545
  729SOL    MW4 2963   0.263   0.765   1.596 -0.0213  0.0067 -0.0381
  730SOL     OW 2964   0.006   0.881   1.528  0.2579 -0.1268 -0.0982
  730SOL    HW2 2965  -0.005   0.973   1.552 -0.7857 -0.1110 -0.6131
  730SOL    HW3 2966   0.096   0.861   1.552  0.3935  0.9402  0.3209
  730SOL    MW4 2967   0.017   0.890   1.534  0.1383  0.0161 -0.1107
  731SOL     OW 2968   4.478   1.149   1.616 -0.3023 -0.2127  0.2874
  731SOL    HW2 2969   4.500   1.139   1.709 -0.3415  0.3196  0.3528
  731SOL    HW3 2970   4.547   1.205   1.581 -0.0209 -0.8034 -0.1114
  731SOL    MW4 2971   4.490   1.155   1.623 -0.2703 -0.2204  0.2435
  732SOL     OW 2972   0.201   1.307   1.546  0.1902 -0.0015  0.3469
  732SOL    HW2 2973   0.241   1.391   1.566  0.8461 -0.7852  2.5256
  732SOL    HW3 2974   0.189   1.307   1.451  1.6538  1.8889  0.1428
  732SOL    MW4 2975   0.205   1.318   1.536  0.4699  0.1445  0.6073
  733SOL     OW 2976   0.273   1.570   1.599  0.2946 -0.4580  0.0915
  733SOL    HW2 2977   0.250   1.580   1.692  1.5720  0.4546  0.3229
  733SOL    HW3 2978   0.195   1.600   1.552 -0.2597 -0.6494  0.8639
  733SOL    MW4 2979   0.259   1.575   1.605  0.3900 -0.3629  0.2240
  734SOL     OW 2980   0.036   1.696   1.518 -0.0945 -0.2765  0.3168
  734SOL    HW2 2981   0.040   1.789   1.540 -0.0078 -0.0666 -0.5757
  734SOL    HW3 2982   0.051   1.693   1.423  1.0384 -1.2786  0.5082
  734SOL    MW4 2983   0.039   1.708   1.508  0.0664 -0.3810  0.2244
  735SOL     OW 2984   0.069   1.947   1.609 -0.1284 -0.2864  0.0417
  735SOL    HW2 2985   0.071   1.952   1.705  0.9858  1.5926 -0.0431
  735SOL    HW3 2986  -0.020   1.974   1.586  0.5432  2.4681  0.4492
  735SOL    MW4 2987   0.058   1.952   1.619  0.1072  0.3248  0.0843
  736SOL     OW 2988   0.270   2.084   1.466 -0.3730 -0.1381 -0.3024
  736SOL    HW2 2989   0.211   2.025   1.512 -0.0362 -0.5300 -0.3678
  736SOL    HW3 2990   0.267   2.055   1.375 -1.8146  1.2728 -0.7305
  736SOL    MW4 2991   0.262   2.073   1.460 -0.5187 -0.0038 -0.3674
  737SOL     OW 2992   0.240   2.332   1.607  0.1015 -0.3201 -0.1282
  737SOL    HW2 2993   0.209   2.316   1.697 -0.5111  0.4170 -0.2072
  737SOL    HW3 2994   0.236   2.246   1.565  1.1394 -0.8206  0.7813
  737SOL    MW4 2995   0.235   2.318   1.614  0.1576 -0.2887 -0.0187
  738SOL     OW 2996   0.033   2.445   1.483 -0.3934 -0.0313  0.2093
  738SOL    HW2 2997  -0.040   2.391   1.514  0.3440 -0.3850  1.3631
  738SOL    HW3 2998   0.110   2.408   1.526  0.3909  0.7226 -0.5259
  738SOL    MW4 2999   0.034   2.433   1.492 -0.1926  0.0217  0.2645
  739SOL     OW 3000   0.022   2.696   1.618 -0.1569 -0.2727  0.0620
  739SOL    HW2 3001  -0.055   2.742   1.584 -1.9144 -1.7539  1.9338
  739SOL    HW3 3002   0.030   2.619   1.562 -0.0319 -0.1233 -0.1272
  739SOL    MW4 3003   0.013   2.692   1.606 -0.3723 -0.4482  0.2840
  740SOL     OW 3004   0.216   2.884   1.505  0.4746  0.3294  0.1202
  740SOL    HW2 3005   0.292   2.835   1.536 -0.7287 -1.4356  0.3465
  740SOL    HW3 3006   0.140   2.836   1.539 -0.7587  2.8661  1.1244
  740SOL    MW4 3007   0.216   2.871   1.513  0.1531  0.4313  0.2826
  741SOL     OW 3008   0.235   3.121   1.641  0.6798 -0.2024 -0.7402
  741SOL    HW2 3009   0.151   3.159   1.613  1.1089  1.6796  0.4624
  741SOL    HW3 3010   0.245   3.043   1.586 -1.8240 -0.4210 -0.9593
  741SOL    MW4 3011   0.225   3.116   1.630  0.4061  0.0172 -0.6106
  742SOL     OW 3012   4.476   3.222   1.555 -0.3065  0.3093  0.0364
  742SOL    HW2 3013   4.457   3.311   1.583 -0.6052  0.2145  0.1361
  742SOL    HW3 3014   4.487   3.229   1.460  0.2859  0.5563  0.1150
  742SOL    MW4 3015   4.475   3.235   1.546 -0.2680  0.3295  0.0600
  743SOL     OW 3016   4.461   3.488   1.646 -0.1126 -0.0085 -0.1649
  743SOL    HW2 3017   4.448   3.481   1.741 -0.2248 -0.4623 -0.2130
  743SOL    HW3 3018   4.390   3.544   1.616 -0.4884 -0.4280 -0.0743
  743SOL    MW4 3019   4.450   3.494   1.655 -0.1769 -0.1235 -0.1594
  744SOL     OW 3020   0.181   3.620   1.517  0.4398 -0.3185  0.6536
  744SOL    HW2 3021   0.203   3.708   1.546 -0.0907 -0.1990  0.7050
  744SOL    HW3 3022   0.124   3.586   1.586 -0.6449 -0.1152 -0.1283
  744SOL    MW4 3023   0.176   3.627   1.530  0.2267 -0.2759  0.5572
  745SOL     OW 3024   0.452   4.024   1.535 -0.4080  0.4009  0.5683
  745SOL    HW2 3025   0.536   3.988   1.561 -1.0478  0.4393  2.8071
  745SOL    HW3 3026   0.457   4.032   1.440  2.5388  1.4627  0.7733
  745SOL    MW4 3027   0.464   4.021   1.526 -0.1036  0.5460  0.8907
  746SOL     OW 3028   0.018   4.037   1.485  0.1002  0.4482  0.0362
  746SOL    HW2 3029   0.030   4.118   1.535  0.5991  0.5449 -0.2491
  746SOL    HW3 3030   0.097   3.986   1.501  0.1027  0.3227 -0.3780
  746SOL    MW4 3031   0.030   4.041   1.494  0.1664  0.4449 -0.0563
  747SOL     OW 3032   0.061   4.284   1.615  0.0365 -0.0485  0.0329
  747SOL    HW2 3033   0.064   4.261   1.708 -0.3392 -0.9829 -0.1841
  747SOL    HW3 3034  -0.028   4.315   1.601 -0.3168 -1.2153 -0.3213
  747SOL    MW4 3035   0.050   4.285   1.625 -0.0596 -0.3262 -0.0424
  748SOL     OW 3036   0.298   4.400   1.528 -0.2655  0.1412  0.0524
  748SOL    HW2 3037   0.218   4.351   1.542  1.3327 -2.2236  1.3772
  748SOL    HW3 3038   0.291   4.476   1.587 -1.6271  0.0924 -0.0516
  748SOL    MW4 3039   0.287   4.404   1.538 -0.2342 -0.1774  0.2134
  749SOL     OW 3040   0.701   4.640   1.664  0.1921 -0.1154 -0.3690
  749SOL    HW2 3041   0.771   4.689   1.621 -0.0789  1.6049  1.0782
  749SOL    HW3 3042   0.620   4.676   1.626  0.0341 -1.1122 -1.0089
  749SOL    MW4 3043   0.699   4.651   1.653  0.1355 -0.0200 -0.2625
  750SOL     OW 3044   0.486   0.114   1.546 -0.2700  0.2759 -0.0178
  750SOL    HW2 3045   0.527   0.197   1.569 -0.5701  0.1268  1.1115
  750SOL    HW3 3046   0.462   0.124   1.454  0.3652  1.1581 -0.0976
  750SOL    MW4 3047   0.488   0.127   1.537 -0.2258  0.3726  0.1209
  751SOL     OW 3048   0.495   0.371   1.644  0.4912 -0.1347 -0.4732
  751SOL    HW2 3049   0.558   0.419   1.591 -0.4138  0.7119 -0.8193
  751SOL    HW3 3050   0.410   0.402   1.613 -0.0493  0.8408  1.8859
  751SOL    MW4 3051   0.492   0.381   1.633  0.3006  0.1057 -0.2077
  752SOL     OW 3052   0.686   0.548   1.556 -0.2568  0.0452 -0.1171
  752SOL    HW2 3053   0.677   0.639   1.582  0.3035  0.0836 -0.0469
  752SOL    HW3 3054   0.676   0.549   1.461  2.1072  0.5059 -0.3864
  752SOL    MW4 3055   0.683   0.560   1.547  0.1291  0.1110 -0.1433
  753SOL     OW 3056   0.684   0.809   1.639  0.1085  0.1430  0.1445
  753SOL    HW2 3057   0.701   0.803   1.733 -0.9579 -0.6000  0.3036
  753SOL    HW3 3058   0.765   0.845   1.602  0.8829 -0.4542  1.2245
  753SOL    MW4 3059   0.697   0.813   1.647  0.0699 -0.0338  0.3079
  754SOL     OW 3060   0.475   0.931   1.511 -0.1346  0.3465  0.1934
  754SOL    HW2 3061   0.461   1.013   1.558  1.0828  0.9614 -0.5004
  754SOL    HW3 3062   0.541   0.885   1.563  0.8465  0.8058 -0.6521
  754SOL    MW4 3063   0.482   0.935   1.524  0.1555  0.4882 -0.0095
  755SOL     OW 3064   0.445   1.180   1.646  0.1805 -0.4106 -0.0075
  755SOL    HW2 3065   0.525   1.210   1.602 -0.2364  0.8026  0.0327
  755SOL    HW3 3066   0.376   1.233   1.607 -0.5744 -1.2709  0.1479
  755SOL    MW4 3067   0.447   1.191   1.635  0.0259 -0.3641  0.0184
  756SOL     OW 3068   0.674   1.271   1.539 -0.5628 -0.3397  0.1159
  756SOL    HW2 3069   0.665   1.365   1.528 -0.7681 -0.4417 -0.6469
  756SOL    HW3 3070   0.691   1.238   1.450  0.5057 -0.9071  0.5198
  756SOL    MW4 3071   0.675   1.279   1.526 -0.4489 -0.4281  0.0685
  757SOL     OW 3072   0.684   1.541   1.559  0.4971 -0.1838 -0.0788
  757SOL    HW2 3073   0.768   1.582   1.538  0.9873 -1.2521 -0.2658
  757SOL    HW3 3074   0.618   1.608   1.539  1.2806  0.5485 -0.2324
  757SOL    MW4 3075   0.686   1.555   1.554  0.6651 -0.2280 -0.1237
  758SOL     OW 3076   0.484   1.718   1.500 -0.3292 -0.3227  0.0551
  758SOL    HW2 3077   0.474   1.802   1.545  0.5504 -1.3910  2.3377
  758SOL    HW3 3078   0.420   1.661   1.543 -0.9854 -0.8185 -1.5423
  758SOL    MW4 3079   0.474   1.722   1.512 -0.2997 -0.5291  0.1454
  759SOL     OW 3080   0.478   1.956   1.619  0.7747  0.0866  0.3667
  759SOL    HW2 3081   0.469   1.963   1.714  0.3458 -1.0408  0.4158
  759SOL    HW3 3082   0.410   2.014   1.585  0.1356 -0.4234  0.7551
  759SOL    MW4 3083   0.467   1.965   1.627  0.6338 -0.1293  0.4244
  760SOL     OW 3084   0.699   2.063   1.498  0.3606  0.1250  0.2502
  760SOL    HW2 3085   0.774   2.011   1.527  0.3126 -0.3388 -0.4342
  760SOL    HW3 3086   0.623   2.013   1.529  0.3178 -0.0699 -0.1701
  760SOL    MW4 3087   0.699   2.049   1.506  0.3486  0.0381  0.1044
  761SOL     OW 3088   0.693   2.317   1.634  0.2220 -0.0339 -0.0100
  761SOL    HW2 3089   0.611   2.356   1.605  1.1611  0.6550 -1.8643
  761SOL    HW3 3090   0.699   2.234   1.586  0.4823 -0.1893  0.2893
  761SOL    MW4 3091   0.683   2.312   1.623  0.3802  0.0367 -0.2151
  762SOL     OW 3092   0.466   2.481   1.540  0.4575 -0.4612 -0.0655
  762SOL    HW2 3093   0.445   2.574   1.553  0.7310  0.1499 -3.4122
  762SOL    HW3 3094   0.387   2.435   1.567 -0.2452  0.8461  0.1697
  762SOL    MW4 3095   0.453   2.487   1.545  0.4009 -0.2081 -0.4760
  763SOL     OW 3096   0.450   2.765   1.589 -0.2484  0.1485  0.0645
  763SOL    HW2 3097   0.458   2.737   1.680 -0.1599 -2.6133 -0.7378
  763SOL    HW3 3098   0.535   2.800   1.566  0.2730 -0.7714  0.5645
  763SOL    MW4 3099   0.462   2.766   1.598 -0.1679 -0.3374  0.0247
  764SOL     OW 3100   0.703   2.853   1.517  0.3623 -0.2967  0.1869
  764SOL    HW2 3101   0.676   2.939   1.552 -0.6861 -0.4483 -0.2229
  764SOL    HW3 3102   0.713   2.868   1.423 -2.5866 -1.2615 -0.3387
  764SOL    MW4 3103   0.701   2.867   1.509 -0.1650 -0.4439  0.0634
  765SOL     OW 3104   0.635   3.116   1.622 -0.0885 -0.2540 -0.3268
  765SOL    HW2 3105   0.711   3.154   1.578  0.5645  0.1184  1.0952
  765SOL    HW3 3106   0.566   3.181   1.611  0.5870  0.6624  0.7581
  765SOL    MW4 3107   0.636   3.130   1.615  0.0867 -0.0839  0.0037
  766SOL     OW 3108   0.432   3.289   1.549  0.5971  0.2909 -0.2084
  766SOL    HW2 3109   0.368   3.224   1.577  0.5548  0.0124 -0.9215
  766SOL    HW3 3110   0.427   3.287   1.453  0.6473  1.2919 -0.2395
  766SOL    MW4 3111   0.423   3.280   1.540  0.5982  0.3860 -0.3066
  767SOL     OW 3112   0.428   3.555   1.644  0.0009  0.3096  0.2915
  767SOL    HW2 3113   0.441   3.469   1.605  1.5459  0.1477  1.1152
  767SOL    HW3 3114   0.342   3.583   1.612  0.0957 -0.9156 -1.1236
  767SOL    MW4 3115   0.419   3.547   1.634  0.2172  0.1266  0.2136
  768SOL     OW 3116   0.676   3.652   1.545  0.1585  0.2391  0.0661
  768SOL    HW2 3117   0.745   3.606   1.593 -0.4188  1.2132  1.8828
  768SOL    HW3 3118   0.594   3.617   1.580 -0.2794  1.4787  0.3019
  768SOL    MW4 3119   0.674   3.641   1.556  0.0246  0.5312  0.3369
  769SOL     OW 3120   0.675   3.908   1.649  0.4640 -0.0042 -0.5257
  769SOL    HW2 3121   0.750   3.949   1.608  0.8567 -0.5441 -0.3578
  769SOL    HW3 3122   0.676   3.818   1.617 -1.1858  0.4719 -1.9753
  769SOL    MW4 3123   0.685   3.901   1.639  0.2981 -0.0129 -0.6950
  770SOL     OW 3124   0.236   3.874   1.600 -0.0067 -0.4135  0.0701
  770SOL    HW2 3125   0.237   3.865   1.696  0.0421 -0.8154  0.0327
  770SOL    HW3 3126   0.311   3.930   1.581 -0.7115  0.6379  0.3636
  770SOL    MW4 3127   0.246   3.880   1.610 -0.0933 -0.3278  0.1040
  771SOL     OW 3128   0.492   4.252   1.653 -0.1230 -0.0378  0.6375
  771SOL    HW2 3129   0.473   4.161   1.631 -0.4266  0.0778  0.4245
  771SOL    HW3 3130   0.419   4.302   1.617 -0.1866  0.2422  1.1510
  771SOL    MW4 3131   0.480   4.247   1.645 -0.1715  0.0143  0.6771
  772SOL     OW 3132   0.688   4.402   1.508 -0.3966  0.4559  0.0504
  772SOL    HW2 3133   0.614   4.352   1.543 -2.0716  0.3945 -3.3664
  772SOL    HW3 3134   0.678   4.489   1.547 -1.6124  0.1166  0.5301
  772SOL    MW4 3135   0.677   4.407   1.517 -0.7780  0.4029 -0.3372
  773SOL     OW 3136   1.104   0.016   1.648  0.2016 -0.3707 -0.2892
  773SOL    HW2 3137   1.095   0.015   1.743 -0.4970  0.7645 -0.3227
  773SOL    HW3 3138   1.190   0.055   1.632 -0.4013  1.0905 -0.1240
  773SOL    MW4 3139   1.114   0.021   1.658  0.0298 -0.0281 -0.2719
  774SOL     OW 3140   0.890   0.132   1.517 -0.3752 -0.2533  0.0994
  774SOL    HW2 3141   0.904   0.217   1.558 -0.9527 -0.2672  0.3200
  774SOL    HW3 3142   0.964   0.079   1.546 -1.3683 -0.6057  2.0207
  774SOL    MW4 3143   0.902   0.136   1.526 -0.5823 -0.3017  0.3819
  775SOL     OW 3144   0.899   0.383   1.630 -0.1419  0.3019  0.0872
  775SOL    HW2 3145   0.909   0.397   1.724  0.8196 -0.3628  0.0936
  775SOL    HW3 3146   0.816   0.425   1.608 -0.9039 -0.4633  1.4298
  775SOL    MW4 3147   0.889   0.390   1.640 -0.1156  0.1132  0.2654
  776SOL     OW 3148   1.142   0.474   1.498 -0.0677 -0.0251 -0.2884
  776SOL    HW2 3149   1.141   0.564   1.529  1.9956  0.5460 -1.7489
  776SOL    HW3 3150   1.068   0.432   1.542  0.0074  1.9150  1.7554
  776SOL    MW4 3151   1.132   0.480   1.508  0.2145  0.3063 -0.2115
  777SOL     OW 3152   1.127   0.753   1.595 -0.2961  0.2596  0.1305
  777SOL    HW2 3153   1.125   0.754   1.690 -2.3442  0.4885  0.1286
  777SOL    HW3 3154   1.216   0.778   1.571  0.1985  0.2763  1.9809
  777SOL    MW4 3155   1.138   0.756   1.604 -0.5013  0.2919  0.3744
  778SOL     OW 3156   0.916   0.927   1.552 -0.0950 -0.3361  0.1511
  778SOL    HW2 3157   0.969   0.851   1.576 -1.1760 -1.0652  0.2668
  778SOL    HW3 3158   0.905   0.920   1.457  0.5535  0.1842  0.0268
  778SOL    MW4 3159   0.922   0.916   1.543 -0.1521 -0.3636  0.1501
  779SOL     OW 3160   0.940   1.192   1.605 -0.2983  0.2564 -0.2260
  779SOL    HW2 3161   0.943   1.098   1.586  0.8207  0.0795  0.7413
  779SOL    HW3 3162   0.847   1.215   1.597 -0.5145 -0.8328 -0.9427
  779SOL    MW4 3163   0.928   1.182   1.602 -0.1792  0.0894 -0.1930
  780SOL     OW 3164   1.161   1.296   1.497  0.2339  0.1336  0.0476
  780SOL    HW2 3165   1.227   1.234   1.527 -0.6249 -0.4732  0.6802
  780SOL    HW3 3166   1.081   1.272   1.544 -0.4251  0.9120 -0.6529
  780SOL    MW4 3167   1.159   1.285   1.507  0.0337  0.1562  0.0386
  781SOL     OW 3168   1.163   1.546   1.596 -0.5103  0.1517 -0.3853
  781SOL    HW2 3169   1.241   1.594   1.569 -1.4709  1.3789 -1.0487
  781SOL    HW3 3170   1.176   1.457   1.562  1.3647 -0.1277  1.0189
  781SOL    MW4 3171   1.175   1.541   1.588 -0.3896  0.2767 -0.2875
  782SOL     OW 3172   0.940   1.688   1.500 -0.4721 -0.1982  0.3747
  782SOL    HW2 3173   1.016   1.640   1.533 -0.2913  0.2062  0.5428
  782SOL    HW3 3174   0.945   1.677   1.405  0.0907  0.2635  0.3481
  782SOL    MW4 3175   0.951   1.680   1.492 -0.3740 -0.0839  0.3933
  783SOL     OW 3176   0.928   1.949   1.581  0.8334  0.0893  0.3443
  783SOL    HW2 3177   1.004   1.999   1.551 -0.6996  0.3560 -3.3196
  783SOL    HW3 3178   0.945   1.859   1.553 -0.3835  0.2357 -0.9050
  783SOL    MW4 3179   0.940   1.944   1.574  0.4705  0.1440 -0.3040
  784SOL     OW 3180   1.176   2.068   1.506 -0.2876 -0.3130 -0.0770
  784SOL    HW2 3181   1.252   2.028   1.549 -1.1272 -0.8753  0.8959
  784SOL    HW3 3182   1.180   2.160   1.532 -1.4750 -0.8784  2.2569
  784SOL    MW4 3183   1.187   2.075   1.515 -0.5549 -0.4616  0.3592
  785SOL     OW 3184   1.155   2.326   1.606 -0.2150 -0.3049  0.2360
  785SOL    HW2 3185   1.222   2.377   1.560  2.2466 -2.0893  1.6998
  785SOL    HW3 3186   1.072   2.358   1.571  1.2996  3.4206 -0.1686
  785SOL    MW4 3187   1.153   2.337   1.595  0.3095 -0.0486  0.3757
  786SOL     OW 3188   0.916   2.443   1.525 -0.2611 -0.1929 -0.4496
  786SOL    HW2 3189   0.926   2.537   1.542  1.0394 -0.5724  1.0176
  786SOL    HW3 3190   0.839   2.417   1.575 -0.0136 -0.0973 -0.0128
  786SOL    MW4 3191   0.907   2.452   1.534 -0.0569 -0.2306 -0.1984
  787SOL     OW 3192   0.941   2.724   1.600 -0.2216 -0.2162 -0.0294
  787SOL    HW2 3193   0.941   2.697   1.692  1.8060 -0.5778 -0.1063
  787SOL    HW3 3194   0.854   2.761   1.585 -0.7222 -0.5810  1.9060
  787SOL    MW4 3195   0.930   2.725   1.610 -0.0201 -0.3121  0.2158
  788SOL     OW 3196   1.155   2.871   1.492 -0.2972  0.1794 -0.1326
  788SOL    HW2 3197   1.148   2.964   1.512 -1.1933 -0.2505  1.6342
  788SOL    HW3 3198   1.084   2.830   1.542 -0.9035 -1.2696 -2.1432
  788SOL    MW4 3199   1.145   2.878   1.501 -0.4953 -0.0687 -0.1646
  789SOL     OW 3200   1.121   3.128   1.593  0.0628  0.1122  0.0351
  789SOL    HW2 3201   1.128   3.120   1.688  0.2232  1.0639  0.1040
  789SOL    HW3 3202   1.201   3.174   1.567  1.1582 -2.2155 -0.8220
  789SOL    MW4 3203   1.132   3.133   1.602  0.2283 -0.0691 -0.0689
  790SOL     OW 3204   0.879   3.234   1.532  0.9966 -0.1696  0.0818
  790SOL    HW2 3205   0.953   3.180   1.558  0.8030 -0.4929 -0.0376
  790SOL    HW3 3206   0.875   3.226   1.437  0.1040 -1.0698  0.1956
  790SOL    MW4 3207   0.888   3.226   1.523  0.8533 -0.3309  0.0811
  791SOL     OW 3208   0.890   3.503   1.655  0.0239  0.0666  0.1013
  791SOL    HW2 3209   0.971   3.538   1.618  1.8822 -1.3980  2.6435
  791SOL    HW3 3210   0.887   3.412   1.624 -0.8098  0.1989 -0.2212
  791SOL    MW4 3211   0.900   3.495   1.646  0.1591 -0.1092  0.3941
  792SOL     OW 3212   1.102   3.634   1.539  0.0154  0.2758 -0.5696
  792SOL    HW2 3213   1.179   3.586   1.566 -1.3612 -1.3102  0.6528
  792SOL    HW3 3214   1.101   3.628   1.444  0.4114 -1.2597 -0.4833
  792SOL    MW4 3215   1.112   3.627   1.530 -0.1140 -0.1359 -0.3968
  793SOL     OW 3216   1.126   3.893   1.653 -0.0880  0.0511  0.3810
  793SOL    HW2 3217   1.195   3.938   1.604  0.3481 -0.0526  0.8949
  793SOL    HW3 3218   1.117   3.808   1.609  0.6067 -0.2133  0.7424
  793SOL    MW4 3219   1.134   3.888   1.641  0.0613  0.0026  0.4965
  794SOL     OW 3220   0.902   4.023   1.548  0.5155 -0.0567 -0.0647
  794SOL    HW2 3221   0.923   4.114   1.570 -0.0426  0.0448  0.0583
  794SOL    HW3 3222   0.971   3.972   1.591  0.0038  0.2071  1.0796
  794SOL    MW4 3223   0.914   4.029   1.557  0.3743 -0.0086  0.1026
  795SOL     OW 3224   0.926   4.291   1.608 -0.2056 -0.0607  0.6654
  795SOL    HW2 3225   0.894   4.283   1.697 -1.5234  0.6839  0.2744
  795SOL    HW3 3226   0.849   4.318   1.557  0.8887  1.1225 -0.4056
  795SOL    MW4 3227   0.911   4.294   1.613 -0.2351  0.1941  0.4725
  796SOL     OW 3228   1.157   4.437   1.523  0.3879  0.3721 -0.2289
  796SOL    HW2 3229   1.081   4.391   1.559 -1.2362  1.2248 -2.4205
  796SOL    HW3 3230   1.160   4.520   1.571  1.6600 -0.8363  1.8183
  796SOL    MW4 3231   1.147   4.442   1.534  0.3415  0.3252 -0.2480
  797SOL     OW 3232   1.613   4.651   1.616 -0.6069  0.5623  0.7719
  797SOL    HW2 3233   1.616   4.634   1.710  0.0773  1.7125  0.9623
  797SOL    HW3 3234   1.533   4.703   1.604 -1.0698 -0.1701  0.6066
  797SOL    MW4 3235   1.603   4.656   1.627 -0.5777  0.6170  0.7752
  798SOL     OW 3236   1.364   0.117   1.575  0.0559  0.1393 -0.4071
  798SOL    HW2 3237   1.363   0.210   1.599  0.1210 -0.0135  0.1749
  798SOL    HW3 3238   1.359   0.118   1.479 -1.0911  0.7128 -0.3474
  798SOL    MW4 3239   1.363   0.130   1.565 -0.0869  0.1948 -0.3225
  799SOL     OW 3240   1.348   0.393   1.649 -0.7198  0.3882 -0.1865
  799SOL    HW2 3241   1.425   0.427   1.602 -0.5758 -0.2930 -0.4532
  799SOL    HW3 3242   1.273   0.432   1.604 -0.6525 -1.6693 -2.1644
  799SOL    MW4 3243   1.349   0.402   1.637 -0.6918  0.0269 -0.4826
  800SOL     OW 3244   1.589   0.514   1.489 -0.0342  0.2666 -0.1562
  800SOL    HW2 3245   1.662   0.464   1.525  0.3926  0.9182 -0.1061
  800SOL    HW3 3246   1.594   0.498   1.394 -1.0787 -1.3383  0.0323
  800SOL    MW4 3247   1.599   0.505   1.481 -0.1155  0.1408 -0.1248
  801SOL     OW 3248   1.632   0.764   1.596  0.3136 -0.0934 -0.2432
  801SOL    HW2 3249   1.627   0.751   1.691  0.7905  0.1273 -0.1895
  801SOL    HW3 3250   1.628   0.676   1.560 -0.5831 -0.1354 -0.0480
  801SOL    MW4 3251   1.631   0.751   1.604  0.2582 -0.0699 -0.2103
  802SOL     OW 3252   1.380   0.865   1.553 -0.4635  0.6968 -0.3890
  802SOL    HW2 3253   1.464   0.827   1.580 -0.8740 -0.9732 -1.3463
  802SOL    HW3 3254   1.384   0.863   1.457 -1.8820 -0.0652 -0.4401
  802SOL    MW4 3255   1.392   0.860   1.544 -0.7049  0.3760 -0.5220
  803SOL     OW 3256   1.343   1.124   1.584 -0.1904  0.5180  0.1479
  803SOL    HW2 3257   1.342   1.144   1.677 -0.2983 -0.2307  0.3060
  803SOL    HW3 3258   1.341   1.028   1.579  0.1802  0.5445 -0.6124
  803SOL    MW4 3259   1.343   1.114   1.596 -0.1557  0.4228  0.0684
  804SOL     OW 3260   1.545   1.273   1.510 -0.6706  0.1818 -0.1887
  804SOL    HW2 3261   1.475   1.212   1.534  0.0125 -0.3771  0.4003
  804SOL    HW3 3262   1.556   1.261   1.415 -1.3210  0.2199 -0.2693
  804SOL    MW4 3263   1.537   1.263   1.500 -0.6663  0.1130 -0.1216
  805SOL     OW 3264   1.610   1.541   1.538  0.1610 -0.1789 -0.2365
  805SOL    HW2 3265   1.613   1.555   1.633 -0.7631 -1.1161 -0.0525
  805SOL    HW3 3266   1.584   1.449   1.529 -0.8038  0.1979 -1.3918
  805SOL    MW4 3267   1.607   1.531   1.549 -0.0882 -0.2530 -0.3648
  806SOL     OW 3268   1.376   1.696   1.479  0.5128 -0.5737  0.2199
  806SOL    HW2 3269   1.450   1.645   1.511  0.6523 -0.4763  0.0520
  806SOL    HW3 3270   1.384   1.693   1.383  1.0168  0.4932  0.2276
  806SOL    MW4 3271   1.387   1.689   1.470  0.5977 -0.4201  0.1988
  807SOL     OW 3272   1.408   1.944   1.587 -0.7248 -0.0455  0.3704
  807SOL    HW2 3273   1.408   1.921   1.680 -0.5120  0.0463  0.3933
  807SOL    HW3 3274   1.398   1.860   1.542  1.8151 -0.3935  0.4107
  807SOL    MW4 3275   1.407   1.930   1.594 -0.3616 -0.0794  0.3786
  808SOL     OW 3276   1.598   2.100   1.491 -0.2272 -0.2030 -0.1073
  808SOL    HW2 3277   1.527   2.045   1.524 -0.6405  0.2793 -0.1977
  808SOL    HW3 3278   1.594   2.089   1.396  0.0699 -0.4797 -0.0913
  808SOL    MW4 3279   1.588   2.091   1.483 -0.2426 -0.1760 -0.1173
  809SOL     OW 3280   1.575   2.348   1.585  0.2863 -0.0636  0.0438
  809SOL    HW2 3281   1.654   2.393   1.554 -0.7357  0.8954 -1.2540
  809SOL    HW3 3282   1.589   2.257   1.560  0.3185  0.3723 -1.6191
  809SOL    MW4 3283   1.587   2.342   1.577  0.1557  0.1204 -0.3468
  810SOL     OW 3284   1.355   2.478   1.469  0.0049  0.2248 -0.0042
  810SOL    HW2 3285   1.346   2.562   1.515 -0.2558  0.6087 -0.7541
  810SOL    HW3 3286   1.441   2.445   1.497  1.4310  2.1236 -1.9675
  810SOL    MW4 3287   1.365   2.485   1.479  0.1588  0.5262 -0.3623
  811SOL     OW 3288   1.361   2.723   1.583 -0.2413 -0.5378 -0.0575
  811SOL    HW2 3289   1.432   2.769   1.538 -0.2867 -1.6206 -1.2673
  811SOL    HW3 3290   1.284   2.779   1.570 -0.0348 -0.3392 -0.4314
  811SOL    MW4 3291   1.360   2.737   1.575 -0.2202 -0.6545 -0.2664
  812SOL     OW 3292   1.576   2.872   1.520 -0.6964 -0.1229  0.5202
  812SOL    HW2 3293   1.637   2.802   1.545 -1.3739 -0.6847  0.6118
  812SOL    HW3 3294   1.586   2.878   1.425 -1.3948 -1.0671  0.3788
  812SOL    MW4 3295   1.585   2.864   1.511 -0.8779 -0.3214  0.5137
  813SOL     OW 3296   1.536   3.126   1.643 -0.2883 -0.1801  0.6324
  813SOL    HW2 3297   1.612   3.179   1.619  1.5489 -1.9328  2.3856
  813SOL    HW3 3298   1.551   3.042   1.599 -0.9083 -0.7157  1.4291
  813SOL    MW4 3299   1.548   3.122   1.634 -0.1277 -0.4823  0.9688
  814SOL     OW 3300   1.352   3.272   1.511  0.0301 -0.0936  0.0611
  814SOL    HW2 3301   1.351   3.362   1.541 -0.8272 -0.2844  0.6080
  814SOL    HW3 3302   1.429   3.234   1.553 -0.0032  0.1945  0.3839
  814SOL    MW4 3303   1.362   3.279   1.520 -0.0873 -0.0808  0.1758
  815SOL     OW 3304   1.346   3.510   1.630  0.3918  0.0847 -0.1716
  815SOL    HW2 3305   1.358   3.523   1.724  0.7631  2.6750 -0.5339
  815SOL    HW3 3306   1.430   3.535   1.592 -0.0952  0.0653 -1.2746
  815SOL    MW4 3307   1.359   3.515   1.638  0.3766  0.4239 -0.3649
  816SOL     OW 3308   1.575   3.662   1.548  0.3912 -0.4340  0.3851
  816SOL    HW2 3309   1.548   3.750   1.576 -0.8286 -0.8757  0.5976
  816SOL    HW3 3310   1.557   3.661   1.454  0.7818 -0.3234  0.3074
  816SOL    MW4 3311   1.569   3.674   1.539  0.2819 -0.4780  0.4029
  817SOL     OW 3312   1.565   3.948   1.601 -0.8636  0.0656  0.4676
  817SOL    HW2 3313   1.565   3.917   1.692 -0.6719 -0.2314  0.3688
  817SOL    HW3 3314   1.474   3.973   1.584 -1.3581 -1.9593  0.0439
  817SOL    MW4 3315   1.553   3.947   1.611 -0.9035 -0.2406  0.3985
  818SOL     OW 3316   1.315   4.017   1.488 -0.0891 -0.1877 -0.2895
  818SOL    HW2 3317   1.326   4.101   1.533  1.4231  0.0078 -0.9757
  818SOL    HW3 3318   1.330   4.037   1.396  1.9159 -1.4783 -0.2870
  818SOL    MW4 3319   1.319   4.031   1.482  0.3748 -0.3328 -0.3798
  819SOL     OW 3320   1.354   4.253   1.636 -0.1650  0.1777 -0.4033
  819SOL    HW2 3321   1.435   4.288   1.598  0.1988 -0.8231 -0.5530
  819SOL    HW3 3322   1.285   4.304   1.594  0.2638 -0.5375 -2.0367
  819SOL    MW4 3323   1.356   4.264   1.625 -0.0604 -0.0482 -0.6386
  820SOL     OW 3324   1.602   4.397   1.534 -0.2844  0.0654 -0.1564
  820SOL    HW2 3325   1.668   4.347   1.583  1.1443  0.2376 -1.8377
  820SOL    HW3 3326   1.604   4.484   1.575 -0.0757 -0.1742  0.3524
  820SOL    MW4 3327   1.611   4.402   1.546 -0.0684  0.0563 -0.3110
  821SOL     OW 3328   2.038   0.001   1.594 -0.5728 -0.1383  0.2830
  821SOL    HW2 3329   2.042   0.009   1.690  0.7248  1.1132  0.1311
  821SOL    HW3 3330   1.953   0.040   1.571 -0.5078  0.3496  0.8456
  821SOL    MW4 3331   2.027   0.007   1.604 -0.3929  0.0912  0.3371
  822SOL     OW 3332   1.813   0.151   1.523 -0.0220  0.3746 -0.3592
  822SOL    HW2 3333   1.752   0.095   1.570  0.2377  0.4236  0.0406
  822SOL    HW3 3334   1.796   0.133   1.430  0.0612 -0.3724 -0.2369
  822SOL    MW4 3335   1.803   0.141   1.517  0.0234  0.2825 -0.2903
  823SOL     OW 3336   1.833   0.418   1.589  0.0855 -0.1138  0.0913
  823SOL    HW2 3337   1.911   0.454   1.548  0.0847  0.3383  0.4830
  823SOL    HW3 3338   1.831   0.326   1.561  1.7617 -0.6214  1.5448
  823SOL    MW4 3339   1.843   0.410   1.580  0.3065 -0.1211  0.3347
  824SOL     OW 3340   2.075   0.537   1.480  0.0128 -0.0703  0.4896
  824SOL    HW2 3341   2.117   0.477   1.542  0.7384  0.1897  0.2620
  824SOL    HW3 3342   2.083   0.623   1.521  0.3696  0.0832  0.1094
  824SOL    MW4 3343   2.082   0.540   1.494  0.1554 -0.0157  0.4094
  825SOL     OW 3344   2.032   0.770   1.616  0.3258 -0.2408 -0.3220
  825SOL    HW2 3345   2.108   0.816   1.580  0.5834 -1.3780 -1.2591
  825SOL    HW3 3346   1.958   0.827   1.595  0.5431 -0.6233 -2.2137
  825SOL    MW4 3347   2.032   0.784   1.608  0.3886 -0.4414 -0.6951
  826SOL     OW 3348   1.832   0.925   1.508 -0.0400 -0.1407  0.1962
  826SOL    HW2 3349   1.800   1.007   1.545  1.1970  0.1521  0.6264
  826SOL    HW3 3350   1.768   0.859   1.537 -0.8629  0.6065  0.1067
  826SOL    MW4 3351   1.819   0.927   1.516  0.0147 -0.0035  0.2410
  827SOL     OW 3352   1.770   1.176   1.631 -0.1037  0.0603 -0.1912
  827SOL    HW2 3353   1.842   1.228   1.596  1.0593 -1.5764 -0.3179
  827SOL    HW3 3354   1.692   1.212   1.589  0.9097  0.2630 -1.9935
  827SOL    MW4 3355   1.769   1.187   1.620  0.1835 -0.1289 -0.4457
  828SOL     OW 3356   2.003   1.284   1.492 -0.5751  0.0879 -0.1838
  828SOL    HW2 3357   2.013   1.371   1.530  1.5642 -0.1653 -0.1151
  828SOL    HW3 3358   2.011   1.297   1.398 -1.7027  0.1553 -0.2724
  828SOL    MW4 3359   2.005   1.297   1.485 -0.4418  0.0634 -0.1864
  829SOL     OW 3360   2.037   1.557   1.571 -0.4957  0.5931 -0.0267
  829SOL    HW2 3361   2.120   1.602   1.555 -0.0844 -0.1173  0.0490
  829SOL    HW3 3362   1.970   1.616   1.538 -0.1019  2.0680  1.7440
  829SOL    MW4 3363   2.040   1.571   1.564 -0.3896  0.6938  0.2168
  830SOL     OW 3364   1.828   1.709   1.476 -0.0004 -0.1539 -0.1683
  830SOL    HW2 3365   1.753   1.653   1.496  0.8407 -1.1105  0.3690
  830SOL    HW3 3366   1.835   1.705   1.380 -0.2144 -0.6227 -0.1676
  830SOL    MW4 3367   1.819   1.701   1.466  0.0824 -0.3420 -0.0973
  831SOL     OW 3368   1.821   1.971   1.581 -0.2869 -0.1535 -0.2340
  831SOL    HW2 3369   1.825   1.886   1.538 -0.2326  0.2241 -0.9783
  831SOL    HW3 3370   1.743   2.013   1.545 -0.4954 -0.0198  0.3709
  831SOL    MW4 3371   1.811   1.965   1.571 -0.3073 -0.0861 -0.2522
  832SOL     OW 3372   2.073   2.089   1.489  0.1413  0.5020  0.4888
  832SOL    HW2 3373   2.134   2.029   1.532  1.5443  1.0542 -0.7296
  832SOL    HW3 3374   1.986   2.056   1.514  0.8911 -1.8537  0.0885
  832SOL    MW4 3375   2.070   2.077   1.498  0.4251  0.2642  0.2754
  833SOL     OW 3376   2.042   2.363   1.542  0.0018 -0.1088  0.0675
  833SOL    HW2 3377   2.042   2.366   1.637  1.5408 -0.5005  0.0768
  833SOL    HW3 3378   2.064   2.273   1.520 -1.0000 -0.1895 -0.6648
  833SOL    MW4 3379   2.045   2.352   1.551  0.0727 -0.1712 -0.0279
  834SOL     OW 3380   1.795   2.450   1.478 -0.3626 -0.2345  0.3800
  834SOL    HW2 3381   1.873   2.399   1.500 -0.1443 -0.0613  0.0215
  834SOL    HW3 3382   1.790   2.446   1.382 -0.8017 -0.2566  0.4002
  834SOL    MW4 3383   1.804   2.443   1.468 -0.3917 -0.2146  0.3353
  835SOL     OW 3384   1.782   2.700   1.600 -0.3658  0.5144  0.1388
  835SOL    HW2 3385   1.847   2.746   1.547  0.8786  0.4769  1.6004
  835SOL    HW3 3386   1.795   2.607   1.580 -1.1375  0.6094 -0.8537
  835SOL    MW4 3387   1.792   2.694   1.590 -0.3034  0.5219  0.2006
  836SOL     OW 3388   1.985   2.840   1.501 -0.3255  0.2353  0.5044
  836SOL    HW2 3389   1.980   2.913   1.563 -3.4312  0.6242 -0.1032
  836SOL    HW3 3390   1.992   2.882   1.415  2.1851 -0.2892  0.3976
  836SOL    MW4 3391   1.985   2.855   1.498 -0.4041  0.2174  0.4101
  837SOL     OW 3392   1.994   3.112   1.612 -0.4006 -0.0826 -0.1937
  837SOL    HW2 3393   2.008   3.104   1.706  0.2936 -1.0093 -0.3721
  837SOL    HW3 3394   2.078   3.139   1.577 -0.3656 -0.7749 -0.6701
  837SOL    MW4 3395   2.007   3.114   1.620 -0.3045 -0.2961 -0.2800
  838SOL     OW 3396   1.763   3.250   1.554  0.4895 -0.0531 -0.0150
  838SOL    HW2 3397   1.783   3.343   1.566  1.1290 -0.1952  0.0533
  838SOL    HW3 3398   1.844   3.205   1.579 -0.0612 -0.6723  0.6927
  838SOL    MW4 3399   1.777   3.257   1.559  0.5012 -0.1533  0.0874
  839SOL     OW 3400   1.810   3.523   1.616 -0.1723  0.1225  0.9875
  839SOL    HW2 3401   1.837   3.529   1.708  0.7795 -0.2572  0.7482
  839SOL    HW3 3402   1.731   3.577   1.610 -1.1506 -1.1028  2.3679
  839SOL    MW4 3403   1.803   3.531   1.627 -0.1757 -0.0892  1.1382
  840SOL     OW 3404   2.044   3.596   1.479 -0.6425  0.2249  0.2896
  840SOL    HW2 3405   2.120   3.555   1.520 -0.1135 -0.1226 -1.0347
  840SOL    HW3 3406   1.969   3.550   1.518 -0.1577  0.0368  1.0211
  840SOL    MW4 3407   2.044   3.584   1.490 -0.5090  0.1540  0.2112
  841SOL     OW 3408   2.013   3.858   1.574 -0.0033  0.0342  0.0385
  841SOL    HW2 3409   2.084   3.908   1.535  1.9820 -1.2726  1.8893
  841SOL    HW3 3410   2.019   3.771   1.533 -0.7510  0.0069 -0.0292
  841SOL    MW4 3411   2.023   3.853   1.563  0.1600 -0.1416  0.2737
  842SOL     OW 3412   1.812   4.019   1.491  0.4013 -0.3474 -0.2217
  842SOL    HW2 3413   1.877   3.955   1.521 -0.0987 -0.2729  1.0569
  842SOL    HW3 3414   1.728   3.983   1.519 -0.0102  0.1243 -0.8403
  842SOL    MW4 3415   1.809   4.006   1.499  0.2811 -0.2761 -0.1346
  843SOL     OW 3416   1.806   4.244   1.645 -0.6352  0.0542 -0.0696
  843SOL    HW2 3417   1.877   4.300   1.613 -1.7021  1.3640 -0.1570
  843SOL    HW3 3418   1.814   4.164   1.592  0.1284  0.6041 -0.8037
  843SOL    MW4 3419   1.816   4.241   1.633 -0.6752  0.2999 -0.1781
  844SOL     OW 3420   2.001   4.409   1.560 -0.5152  0.3416  0.3068
  844SOL    HW2 3421   2.084   4.367   1.580  0.0748  0.6257 -1.4610
  844SOL    HW3 3422   2.019   4.503   1.569 -0.4246  0.4374 -0.8909
  844SOL    MW4 3423   2.014   4.416   1.564 -0.4256  0.3920 -0.0844
  845SOL     OW 3424   2.495   4.633   1.577 -0.4022 -0.1922 -0.2869
  845SOL    HW2 3425   2.487   4.651   1.670  1.2171 -0.7321 -0.0165
  845SOL    HW3 3426   2.419   4.675   1.537 -0.6668  0.7422  1.1741
  845SOL    MW4 3427   2.484   4.641   1.584 -0.2234 -0.1407 -0.0585
  846SOL     OW 3428   2.277   0.104   1.484 -0.5036 -0.5883  0.2489
  846SOL    HW2 3429   2.193   0.077   1.522 -0.6649  1.1290  1.1536
  846SOL    HW3 3430   2.253   0.137   1.397 -0.7749 -0.0308  0.5340
  846SOL    MW4 3431   2.263   0.105   1.477 -0.5605 -0.2881  0.4059
  847SOL     OW 3432   2.226   0.346   1.644  0.4517 -0.0734 -0.2902
  847SOL    HW2 3433   2.265   0.376   1.726  0.4049 -0.3364 -0.1722
  847SOL    HW3 3434   2.271   0.265   1.623 -0.1913 -0.5105 -0.0216
  847SOL    MW4 3435   2.237   0.339   1.652  0.3610 -0.1658 -0.2391
  848SOL     OW 3436   2.423   0.500   1.492 -0.0516  0.5572  0.9378
  848SOL    HW2 3437   2.503   0.462   1.530 -0.0192 -0.9168 -0.5383
  848SOL    HW3 3438   2.352   0.465   1.546  0.1391  0.0448  0.8589
  848SOL    MW4 3439   2.424   0.490   1.504 -0.0219  0.2951  0.7327
  849SOL     OW 3440   2.459   0.748   1.601 -0.0150  0.1883 -0.0263
  849SOL    HW2 3441   2.382   0.790   1.563 -0.1406  1.1997  1.3389
  849SOL    HW3 3442   2.454   0.657   1.569 -1.4916  0.3661 -0.3552
  849SOL    MW4 3443   2.448   0.741   1.592 -0.2265  0.3451  0.1104
  850SOL     OW 3444   2.252   0.884   1.503  0.1166  0.2013 -0.4486
  850SOL    HW2 3445   2.238   0.975   1.530 -1.7382 -0.0155 -0.5878
  850SOL    HW3 3446   2.250   0.887   1.407 -0.7633 -0.0845 -0.4472
  850SOL    MW4 3447   2.250   0.897   1.494 -0.2441  0.1350 -0.4667
  851SOL     OW 3448   2.254   1.149   1.580  0.0114  0.0479  0.0004
  851SOL    HW2 3449   2.250   1.158   1.675 -1.1063 -0.0609 -0.0307
  851SOL    HW3 3450   2.182   1.203   1.548  2.1580  2.4243 -0.9464
  851SOL    MW4 3451   2.244   1.157   1.588  0.1471  0.3471 -0.1285
  852SOL     OW 3452   2.492   1.280   1.495  0.3766  0.2618  0.1506
  852SOL    HW2 3453   2.415   1.226   1.517  0.2104  0.5217  0.2062
  852SOL    HW3 3454   2.505   1.265   1.401  0.6552 -0.2940  0.2768
  852SOL    MW4 3455   2.483   1.271   1.486  0.3912  0.2227  0.1746
  853SOL     OW 3456   2.504   1.529   1.603 -0.4841  0.5179  0.1426
  853SOL    HW2 3457   2.585   1.569   1.571 -1.0520  1.0451 -0.6520
  853SOL    HW3 3458   2.507   1.440   1.569  0.7951 -0.1455  1.9367
  853SOL    MW4 3459   2.515   1.523   1.595 -0.3901  0.4997  0.2747
  854SOL     OW 3460   2.284   1.663   1.510 -0.0734  0.1802  0.1193
  854SOL    HW2 3461   2.359   1.614   1.542 -1.2925 -1.5041  0.4790
  854SOL    HW3 3462   2.286   1.651   1.415 -0.4330 -0.6785  0.2172
  854SOL    MW4 3463   2.294   1.655   1.502 -0.2818 -0.1554  0.1796
  855SOL     OW 3464   2.291   1.921   1.602  0.1143 -0.1999  0.5902
  855SOL    HW2 3465   2.295   1.913   1.697  0.5428 -0.2080  0.5707
  855SOL    HW3 3466   2.302   1.831   1.570 -0.6416 -0.2848  0.5491
  855SOL    MW4 3467   2.293   1.908   1.610  0.0713 -0.2121  0.5822
  856SOL     OW 3468   2.488   2.085   1.495 -0.2468  0.2312  0.6529
  856SOL    HW2 3469   2.416   2.036   1.536  0.5330 -0.3683  1.3337
  856SOL    HW3 3470   2.467   2.086   1.402  0.1711 -2.1438  0.5268
  856SOL    MW4 3471   2.475   2.079   1.488 -0.0885 -0.1612  0.7261
  857SOL     OW 3472   2.470   2.365   1.587  0.1394 -0.2302  0.1525
  857SOL    HW2 3473   2.453   2.362   1.681  0.7956 -1.0450  0.2595
  857SOL    HW3 3474   2.467   2.273   1.560 -1.4533  0.1246 -0.8856
  857SOL    MW4 3475   2.468   2.352   1.596  0.0157 -0.2909  0.0297
  858SOL     OW 3476   2.270   2.499   1.474 -0.0204 -0.4706 -0.2310
  858SOL    HW2 3477   2.340   2.453   1.521 -1.1695 -0.5646  1.4383
  858SOL    HW3 3478   2.192   2.446   1.490 -0.8997  0.7918 -0.2528
  858SOL    MW4 3479   2.269   2.486   1.482 -0.2882 -0.3164 -0.0136
  859SOL     OW 3480   2.262   2.768   1.545 -0.4545 -0.1058  0.3587
  859SOL    HW2 3481   2.271   2.675   1.524 -1.2723  0.1617 -1.2692
  859SOL    HW3 3482   2.169   2.788   1.530 -0.5281  0.7370  1.7540
  859SOL    MW4 3483   2.251   2.759   1.540 -0.5724  0.0408  0.3279
  860SOL     OW 3484   2.488   2.895   1.459  0.1107 -0.0761  0.0177
  860SOL    HW2 3485   2.476   2.979   1.504 -0.3339 -0.4250  0.5467
  860SOL    HW3 3486   2.415   2.841   1.488  0.9773 -1.0131  0.5070
  860SOL    MW4 3487   2.477   2.899   1.469  0.1664 -0.2456  0.1519
  861SOL     OW 3488   2.449   3.126   1.645 -0.3194 -0.1060 -0.1135
  861SOL    HW2 3489   2.518   3.160   1.588 -0.8710 -0.1254 -0.7899
  861SOL    HW3 3490   2.368   3.157   1.606 -0.6808  0.2964  0.9372
  861SOL    MW4 3491   2.447   3.134   1.632 -0.4401 -0.0553 -0.0643
  862SOL     OW 3492   2.223   3.225   1.504 -0.0669 -0.2469 -0.4249
  862SOL    HW2 3493   2.237   3.318   1.524 -1.5908 -0.0991  0.0056
  862SOL    HW3 3494   2.229   3.220   1.409  1.6534 -0.0009 -0.3558
  862SOL    MW4 3495   2.226   3.237   1.494 -0.0410 -0.1950 -0.3589
  863SOL     OW 3496   2.260   3.498   1.607  0.0382 -0.1919  0.2421
  863SOL    HW2 3497   2.275   3.501   1.702  0.2954  0.5782  0.1848
  863SOL    HW3 3498   2.336   3.544   1.570 -1.2112  1.5688 -0.1940
  863SOL    MW4 3499   2.272   3.505   1.615 -0.0923  0.1419  0.1770
  864SOL     OW 3500   2.502   3.606   1.492  0.5835  0.2095  0.1113
  864SOL    HW2 3501   2.574   3.558   1.533  0.0762 -0.0316  0.7420
  864SOL    HW3 3502   2.505   3.693   1.531  0.4475  0.1529  0.2522
  864SOL    MW4 3503   2.512   3.611   1.502  0.4985  0.1702  0.2130
  865SOL     OW 3504   2.505   3.873   1.573  0.3721  0.3082  0.4718
  865SOL    HW2 3505   2.504   3.883   1.668 -0.3394  0.1589  0.4830
  865SOL    HW3 3506   2.584   3.918   1.545  1.9022 -1.7742  1.3716
  865SOL    MW4 3507   2.515   3.880   1.582  0.4802  0.0138  0.5920
  866SOL     OW 3508   2.262   4.029   1.511  0.0542  0.0993  0.3311
  866SOL    HW2 3509   2.329   3.969   1.545  0.4231  0.1053 -0.3875
  866SOL    HW3 3510   2.267   4.019   1.416 -0.0985  1.0431  0.2261
  866SOL    MW4 3511   2.271   4.020   1.503  0.0827  0.2246  0.2224
  867SOL     OW 3512   2.241   4.288   1.615 -0.0046  0.2480 -0.1964
  867SOL    HW2 3513   2.320   4.325   1.575  0.6018 -0.1969  0.5652
  867SOL    HW3 3514   2.243   4.195   1.593 -0.1255  0.1679  0.1220
  867SOL    MW4 3515   2.252   4.281   1.607  0.0594  0.1793 -0.0538
  868SOL     OW 3516   2.483   4.373   1.475  0.4410 -0.4885  0.3440
  868SOL    HW2 3517   2.488   4.465   1.502 -0.2909 -0.6345  0.9701
  868SOL    HW3 3518   2.488   4.376   1.380 -0.1697  0.2397  0.3353
  868SOL    MW4 3519   2.485   4.386   1.466  0.2639 -0.4115  0.4255
  869SOL     OW 3520   2.920   4.615   1.604 -0.5088 -0.3650 -0.2159
  869SOL    HW2 3521   2.924   4.626   1.699  0.5942  0.8567 -0.3930
  869SOL    HW3 3522   2.849   4.674   1.576 -0.5299 -0.3835 -0.2011
  869SOL    MW4 3523   2.911   4.624   1.612 -0.3662 -0.2065 -0.2372
  870SOL     OW 3524   2.723   0.131   1.525 -0.4458  0.2248 -0.0745
  870SOL    HW2 3525   2.708   0.225   1.534  0.0369  0.2601  0.3932
  870SOL    HW3 3526   2.640   0.091   1.549 -0.7810  0.5469 -0.6816
  870SOL    MW4 3527   2.710   0.138   1.529 -0.4265  0.2720 -0.0930
  871SOL     OW 3528   2.641   0.393   1.599 -0.5883 -0.3026  0.2934
  871SOL    HW2 3529   2.641   0.367   1.691 -1.9734 -0.7480  0.1722
  871SOL    HW3 3530   2.711   0.458   1.593  0.4712 -1.3230  1.3533
  871SOL    MW4 3531   2.650   0.398   1.611 -0.6311 -0.4960  0.4171
  872SOL     OW 3532   2.899   0.503   1.558 -0.3665  0.0777 -0.0632
  872SOL    HW2 3533   2.933   0.591   1.578  1.0016 -0.5052  0.2199
  872SOL    HW3 3534   2.906   0.496   1.462  0.8896 -0.2627  0.0469
  872SOL    MW4 3535   2.905   0.514   1.548 -0.0200 -0.0442 -0.0113
  873SOL     OW 3536   2.950   0.780   1.631 -0.1339  0.0760 -0.4756
  873SOL    HW2 3537   2.931   0.774   1.725  1.6847 -0.8550 -0.1287
  873SOL    HW3 3538   2.873   0.820   1.593 -0.7293  0.8468  1.4881
  873SOL    MW4 3539   2.938   0.784   1.638  0.0277  0.0548 -0.1708
  874SOL     OW 3540   2.694   0.856   1.509 -0.5754 -0.4140 -0.1715
  874SOL    HW2 3541   2.612   0.814   1.535 -1.7210  1.4648 -0.5974
  874SOL    HW3 3542   2.678   0.884   1.419  0.5264 -0.0024 -0.2418
  874SOL    MW4 3543   2.681   0.854   1.501 -0.5810 -0.1118 -0.2370
  875SOL     OW 3544   2.690   1.130   1.586 -0.4374  0.1812  0.0804
  875SOL    HW2 3545   2.681   1.035   1.574  0.7942  0.2769 -1.7702
  875SOL    HW3 3546   2.607   1.166   1.554 -0.2980 -0.1697 -0.6926
  875SOL    MW4 3547   2.678   1.122   1.580 -0.2565  0.1476 -0.2656
  876SOL     OW 3548   2.907   1.276   1.461  0.2307 -0.2095  0.1221
  876SOL    HW2 3549   2.983   1.236   1.503 -0.2806 -1.1791  0.1256
  876SOL    HW3 3550   2.831   1.239   1.507 -0.3159 -0.9591 -1.3716
  876SOL    MW4 3551   2.907   1.266   1.473  0.0913 -0.4364 -0.0746
  877SOL     OW 3552   2.921   1.525   1.593 -0.2131 -0.0137  0.4995
  877SOL    HW2 3553   2.854   1.581   1.554 -0.3375 -0.4244  0.1182
  877SOL    HW3 3554   2.911   1.441   1.549 -0.2949 -0.4629  1.3729
  877SOL    MW4 3555   2.911   1.521   1.582 -0.2403 -0.1271  0.5643
  878SOL     OW 3556   2.719   1.680   1.505  0.2011  0.0146  0.3207
  878SOL    HW2 3557   2.717   1.770   1.538  0.5543  0.2488 -0.2741
  878SOL    HW3 3558   2.714   1.690   1.409 -0.4620 -0.6301  0.2840
  878SOL    MW4 3559   2.718   1.693   1.496  0.1602 -0.0395  0.2375
  879SOL     OW 3560   2.718   1.953   1.573 -0.0756 -0.0482 -0.6789
  879SOL    HW2 3561   2.704   1.943   1.667 -0.5998  0.8822 -0.6537
  879SOL    HW3 3562   2.642   2.002   1.542 -0.2164 -0.8930 -1.7022
  879SOL    MW4 3563   2.706   1.958   1.581 -0.1633 -0.0368 -0.8107
  880SOL     OW 3564   2.946   2.062   1.459 -0.6706 -0.2288 -0.2453
  880SOL    HW2 3565   2.942   2.155   1.481  2.7796 -0.1605  0.2165
  880SOL    HW3 3566   2.872   2.023   1.506 -1.4981  2.0669  0.4195
  880SOL    MW4 3567   2.936   2.069   1.468 -0.3242  0.0830 -0.0967
  881SOL     OW 3568   2.939   2.331   1.536  0.2609  0.4308 -0.2700
  881SOL    HW2 3569   2.935   2.314   1.630  0.5298 -0.2770 -0.3792
  881SOL    HW3 3570   2.855   2.373   1.516  0.0156  0.1830  0.2093
  881SOL    MW4 3571   2.927   2.334   1.546  0.2637  0.3047 -0.2211
  882SOL     OW 3572   2.707   2.476   1.516  0.0996  0.2678  0.4491
  882SOL    HW2 3573   2.683   2.566   1.539 -0.4253  0.3061 -0.2583
  882SOL    HW3 3574   2.628   2.424   1.535  0.0313  0.1279 -0.2231
  882SOL    MW4 3575   2.693   2.481   1.522  0.0212  0.2542  0.2670
  883SOL     OW 3576   2.676   2.746   1.580 -0.2542 -0.2339  0.5473
  883SOL    HW2 3577   2.763   2.773   1.551 -0.6475  0.0609 -0.3679
  883SOL    HW3 3578   2.616   2.801   1.530 -0.9257  0.8269  2.4918
  883SOL    MW4 3579   2.680   2.757   1.570 -0.3946 -0.0551  0.6831
  884SOL     OW 3580   2.908   2.855   1.482 -0.3798 -0.5835 -0.0418
  884SOL    HW2 3581   2.988   2.819   1.520  0.3090 -0.0195 -0.9488
  884SOL    HW3 3582   2.900   2.942   1.521  0.2831 -0.0355 -1.0994
  884SOL    MW4 3583   2.917   2.862   1.492 -0.2012 -0.4370 -0.3011
  885SOL     OW 3584   2.903   3.114   1.579 -0.0305  0.2345 -0.0752
  885SOL    HW2 3585   2.917   3.122   1.674  0.9772 -0.7117 -0.1303
  885SOL    HW3 3586   2.980   3.154   1.540 -0.0333 -0.1411 -0.4735
  885SOL    MW4 3587   2.915   3.120   1.587  0.1016  0.0601 -0.1351
  886SOL     OW 3588   2.653   3.188   1.486 -0.3682  0.0072 -0.0994
  886SOL    HW2 3589   2.741   3.158   1.507 -0.3032 -0.2350 -0.7116
  886SOL    HW3 3590   2.651   3.194   1.390 -1.2616 -0.7776 -0.1407
  886SOL    MW4 3591   2.664   3.185   1.476 -0.4773 -0.1283 -0.1856
  887SOL     OW 3592   2.734   3.459   1.549  0.2714 -0.2885  0.1844
  887SOL    HW2 3593   2.746   3.470   1.644 -0.5181  0.9224  0.1481
  887SOL    HW3 3594   2.712   3.366   1.539 -1.4831 -0.0388  1.3909
  887SOL    MW4 3595   2.733   3.448   1.560 -0.0641 -0.0958  0.3388
  888SOL     OW 3596   2.927   3.610   1.459  0.3333  0.2529  0.5065
  888SOL    HW2 3597   2.850   3.563   1.488  0.9364 -1.4138 -0.5289
  888SOL    HW3 3598   2.918   3.615   1.363  1.7177 -0.3798  0.3267
  888SOL    MW4 3599   2.916   3.605   1.450  0.5953 -0.0503  0.3462
  889SOL     OW 3600   2.950   3.834   1.608  0.7367 -0.6058 -0.0694
  889SOL    HW2 3601   2.877   3.885   1.575  1.6680  0.8173 -0.0021
  889SOL    HW3 3602   2.955   3.757   1.551 -0.8297 -0.7572 -0.0224
  889SOL    MW4 3603   2.941   3.830   1.596  0.6528 -0.4382 -0.0544
  890SOL     OW 3604   2.757   3.986   1.508 -0.0846 -0.2326 -0.5921
  890SOL    HW2 3605   2.744   4.067   1.557 -1.6434 -1.6748  1.4992
  890SOL    HW3 3606   2.740   4.010   1.417  0.8957  2.0932 -0.1958
  890SOL    MW4 3607   2.753   4.000   1.502 -0.1609 -0.1161 -0.2639
  891SOL     OW 3608   2.709   4.239   1.623 -0.1700  0.2438  0.2734
  891SOL    HW2 3609   2.782   4.286   1.583  0.1161 -0.8807 -0.5675
  891SOL    HW3 3610   2.631   4.276   1.582 -0.0290  0.9129  0.6082
  891SOL    MW4 3611   2.708   4.250   1.612 -0.1137  0.1836  0.2065
  892SOL     OW 3612   2.929   4.362   1.497  0.1437  0.1095 -0.2840
  892SOL    HW2 3613   2.916   4.450   1.533 -1.1219 -0.7902  1.5400
  892SOL    HW3 3614   2.920   4.374   1.403 -0.2202  1.9169 -0.0492
  892SOL    MW4 3615   2.926   4.375   1.490 -0.0715  0.2294 -0.0123
  893SOL     OW 3616   3.360   4.623   1.658  0.0142 -0.1353 -0.4405
  893SOL    HW2 3617   3.432   4.671   1.618 -1.5510  1.2230 -1.6805
  893SOL    HW3 3618   3.369   4.534   1.625  1.6575 -0.2207  0.1616
  893SOL    MW4 3619   3.371   4.617   1.649  0.0243  0.0329 -0.5248
  894SOL     OW 3620   3.149   0.081   1.521  0.5350 -0.2046 -0.0334
  894SOL    HW2 3621   3.226   0.045   1.565  0.0872 -0.9468  0.1432
  894SOL    HW3 3622   3.077   0.024   1.547 -0.1323  0.6539  0.0180
  894SOL    MW4 3623   3.150   0.069   1.530  0.3879 -0.1892 -0.0033
  895SOL     OW 3624   3.105   0.324   1.632  0.6290  0.0117 -0.0498
  895SOL    HW2 3625   3.098   0.235   1.598 -1.3913 -0.7110  2.1129
  895SOL    HW3 3626   3.022   0.366   1.608  1.6949  1.4514 -1.3426
  895SOL    MW4 3627   3.093   0.318   1.624  0.5031  0.1063  0.0648
  896SOL     OW 3628   3.353   0.479   1.581  0.2021 -0.3404  0.0993
  896SOL    HW2 3629   3.277   0.420   1.572  0.3056 -0.6606  1.3341
  896SOL    HW3 3630   3.383   0.492   1.491 -1.4237 -0.0693 -0.4236
  896SOL    MW4 3631   3.347   0.473   1.568  0.0012 -0.3469  0.1934
  897SOL     OW 3632   3.373   0.749   1.607  0.2133  0.1627  0.1727
  897SOL    HW2 3633   3.400   0.758   1.699 -0.0481 -0.6527  0.3322
  897SOL    HW3 3634   3.355   0.656   1.597 -0.2944  0.3416 -0.5635
  897SOL    MW4 3635   3.374   0.738   1.618  0.1118  0.0787  0.0966
  898SOL     OW 3636   3.169   0.911   1.515 -0.3261  0.1102 -0.5435
  898SOL    HW2 3637   3.243   0.859   1.547 -0.3092 -0.8258 -2.0874
  898SOL    HW3 3638   3.092   0.864   1.547 -0.3051 -0.6825 -1.6528
  898SOL    MW4 3639   3.168   0.897   1.524 -0.3207 -0.1179 -0.8936
  899SOL     OW 3640   3.122   1.171   1.605 -0.1044  0.2122 -0.1040
  899SOL    HW2 3641   3.137   1.157   1.698 -1.0877  1.2687  0.2279
  899SOL    HW3 3642   3.143   1.087   1.564  2.5491  0.3854  0.7870
  899SOL    MW4 3643   3.127   1.158   1.611  0.1159  0.3743  0.0573
  900SOL     OW 3644   3.355   1.295   1.531  0.1829 -0.2877  0.8299
  900SOL    HW2 3645   3.269   1.255   1.542  0.2770 -0.3225  1.4652
  900SOL    HW3 3646   3.416   1.231   1.568  0.6388 -0.9445 -0.9847
  900SOL    MW4 3647   3.352   1.281   1.537  0.2553 -0.3788  0.6742
  901SOL     OW 3648   3.368   1.546   1.628 -0.0452  0.1947  0.1475
  901SOL    HW2 3649   3.368   1.540   1.724 -2.5366 -0.4599  0.1376
  901SOL    HW3 3650   3.368   1.454   1.599 -0.1255  0.3886 -0.4689
  901SOL    MW4 3651   3.368   1.533   1.637 -0.3846  0.1340  0.0650
  902SOL     OW 3652   3.154   1.685   1.531  0.1755  0.0175 -0.6180
  902SOL    HW2 3653   3.233   1.635   1.550  0.6543  0.4154 -1.5449
  902SOL    HW3 3654   3.082   1.629   1.561  0.7859 -0.5109 -0.1295
  902SOL    MW4 3655   3.155   1.671   1.537  0.3192  0.0004 -0.6758
  903SOL     OW 3656   3.180   1.953   1.605  0.0686  0.2630 -0.4086
  903SOL    HW2 3657   3.181   1.861   1.581 -1.3338  0.0868  0.1530
  903SOL    HW3 3658   3.104   1.989   1.559 -0.5287  0.7047  0.9133
  903SOL    MW4 3659   3.170   1.946   1.596 -0.1953  0.2980 -0.1601
  904SOL     OW 3660   3.425   2.038   1.505  0.1297  0.0814 -0.4090
  904SOL    HW2 3661   3.342   2.012   1.543 -0.5869  0.5027 -1.6687
  904SOL    HW3 3662   3.408   2.045   1.411  1.4063  0.8159 -0.6032
  904SOL    MW4 3663   3.412   2.036   1.498  0.2038  0.2339 -0.6009
  905SOL     OW 3664   3.382   2.308   1.608 -0.0563  0.0295 -0.2138
  905SOL    HW2 3665   3.460   2.344   1.564 -0.5502  0.2276 -0.9432
  905SOL    HW3 3666   3.368   2.224   1.566  0.3331 -0.4413  0.5954
  905SOL    MW4 3667   3.390   2.302   1.597 -0.0701 -0.0064 -0.2034
  906SOL     OW 3668   3.170   2.471   1.503 -0.0445  0.2644  0.2735
  906SOL    HW2 3669   3.235   2.418   1.549  0.1087 -0.2789 -0.5803
  906SOL    HW3 3670   3.086   2.433   1.528 -0.0154  0.5566  0.8449
  906SOL    MW4 3671   3.168   2.459   1.513 -0.0203  0.2310  0.2362
  907SOL     OW 3672   3.125   2.726   1.589  0.1178  0.0730 -0.3298
  907SOL    HW2 3673   3.209   2.770   1.575 -0.1627  0.0221 -2.2363
  907SOL    HW3 3674   3.141   2.635   1.563 -0.4069 -0.0318 -0.2867
  907SOL    MW4 3675   3.138   2.719   1.584  0.0114  0.0525 -0.5755
  908SOL     OW 3676   3.380   2.842   1.553 -0.3463  0.1396  0.1664
  908SOL    HW2 3677   3.375   2.933   1.581 -0.7468  0.3083 -0.4462
  908SOL    HW3 3678   3.383   2.846   1.457  0.9044 -0.4392  0.1648
  908SOL    MW4 3679   3.380   2.854   1.544 -0.2341  0.0856  0.0855
  909SOL     OW 3680   3.368   3.113   1.626  0.0997 -0.1032 -0.3342
  909SOL    HW2 3681   3.355   3.116   1.720 -0.1045  0.5328 -0.3838
  909SOL    HW3 3682   3.449   3.161   1.611  0.7647 -1.2200 -0.3644
  909SOL    MW4 3683   3.377   3.120   1.636  0.1605 -0.1667 -0.3448
  910SOL     OW 3684   3.155   3.216   1.501  0.5440  0.2941 -0.2227
  910SOL    HW2 3685   3.226   3.172   1.548 -0.0628  0.4350  0.8315
  910SOL    HW3 3686   3.184   3.216   1.409  1.4873 -0.4621  0.0629
  910SOL    MW4 3687   3.168   3.210   1.495  0.5884  0.2131 -0.0459
  911SOL     OW 3688   3.144   3.482   1.588  0.3088 -0.0787 -0.2843
  911SOL    HW2 3689   3.159   3.392   1.560 -0.5539 -0.8370  1.6031
  911SOL    HW3 3690   3.081   3.517   1.525 -0.7090 -1.3587  0.0125
  911SOL    MW4 3691   3.138   3.475   1.576  0.0606 -0.3476  0.0039
  912SOL     OW 3692   3.379   3.607   1.512 -0.1895 -0.1277  0.1483
  912SOL    HW2 3693   3.454   3.560   1.549  0.5483  0.1641 -0.9506
  912SOL    HW3 3694   3.302   3.559   1.543  0.5428 -2.0138 -0.8550
  912SOL    MW4 3695   3.379   3.595   1.521  0.0045 -0.3378 -0.1291
  913SOL     OW 3696   3.375   3.860   1.612  0.2682 -0.1509 -0.0407
  913SOL    HW2 3697   3.298   3.906   1.578  1.0072  0.6696 -0.6226
  913SOL    HW3 3698   3.360   3.768   1.588 -0.7475 -0.0695  0.2629
  913SOL    MW4 3699   3.363   3.854   1.604  0.2317 -0.0322 -0.0775
  914SOL     OW 3700   3.139   3.995   1.490  0.1230  0.0289 -0.0155
  914SOL    HW2 3701   3.144   4.075   1.543 -0.1062 -0.1270  0.2414
  914SOL    HW3 3702   3.077   3.939   1.537 -1.0160  0.3671 -1.0982
  914SOL    MW4 3703   3.132   3.998   1.504 -0.0577  0.0534 -0.1246
  915SOL     OW 3704   3.146   4.246   1.613 -0.0864 -0.2052  0.3965
  915SOL    HW2 3705   3.141   4.267   1.706 -0.2991  1.1339  0.0977
  915SOL    HW3 3706   3.068   4.286   1.575 -0.4696 -1.5117 -0.2259
  915SOL    MW4 3707   3.135   4.254   1.620 -0.1652 -0.2012  0.2748
  916SOL     OW 3708   3.360   4.385   1.541 -0.5954 -0.3555 -0.3531
  916SOL    HW2 3709   3.276   4.342   1.556 -1.0697 -0.0215 -1.9639
  916SOL    HW3 3710   3.360   4.406   1.448  0.8086  0.6385 -0.1469
  916SOL    MW4 3711   3.349   4.382   1.531 -0.4725 -0.1802 -0.5383
  917SOL     OW 3712   3.785   4.623   1.638  0.5794  0.5471  0.2924
  917SOL    HW2 3713   3.777   4.628   1.733  1.0116 -0.6929  0.4000
  917SOL    HW3 3714   3.872   4.657   1.619  0.7812  0.0938  0.4051
  917SOL    MW4 3715   3.795   4.628   1.648  0.6630  0.3233  0.3214
  918SOL     OW 3716   3.571   0.112   1.538  0.3341  0.1013  0.1320
  918SOL    HW2 3717   3.636   0.051   1.574  1.5988  1.5027  0.2524
  918SOL    HW3 3718   3.581   0.105   1.443  0.6314  0.2743  0.1498
  918SOL    MW4 3719   3.581   0.103   1.530  0.5403  0.3090  0.1503
  919SOL     OW 3720   3.611   0.379   1.626  0.0121 -0.2966  0.1166
  919SOL    HW2 3721   3.605   0.292   1.587 -0.2371 -0.5380  0.6890
  919SOL    HW3 3722   3.520   0.409   1.631  0.1650  0.3624 -0.8872
  919SOL    MW4 3723   3.598   0.371   1.622 -0.0005 -0.2415  0.0596
  920SOL     OW 3724   3.838   0.530   1.545  0.6704  0.3742  0.2053
  920SOL    HW2 3725   3.762   0.490   1.587  0.9591  0.1800  0.5380
  920SOL    HW3 3726   3.817   0.527   1.451  0.7025 -0.5746  0.2280
  920SOL    MW4 3727   3.825   0.525   1.538  0.7126  0.2234  0.2521
  921SOL     OW 3728   3.841   0.799   1.617  0.5275  0.2624  0.4545
  921SOL    HW2 3729   3.759   0.824   1.574  0.7398  2.1986  1.0911
  921SOL    HW3 3730   3.852   0.706   1.597 -0.8855  0.4203 -1.1489
  921SOL    MW4 3731   3.831   0.790   1.609  0.3688  0.5387  0.3269
  922SOL     OW 3732   3.610   0.899   1.496 -0.0059 -0.2426 -0.3698
  922SOL    HW2 3733   3.537   0.839   1.511 -0.8739  0.4166 -1.7891
  922SOL    HW3 3734   3.629   0.891   1.402  1.6678 -0.3145 -0.0272
  922SOL    MW4 3735   3.603   0.890   1.485  0.1009 -0.1651 -0.5119
  923SOL     OW 3736   3.556   1.132   1.603 -0.2524 -0.2497  0.0756
  923SOL    HW2 3737   3.628   1.188   1.575  0.2416 -0.7440  0.3514
  923SOL    HW3 3738   3.574   1.047   1.564 -0.7698 -0.3379  0.0180
  923SOL    MW4 3739   3.568   1.128   1.594 -0.2556 -0.3265  0.1044
  924SOL     OW 3740   3.784   1.305   1.529  0.2449  0.4243 -0.1001
  924SOL    HW2 3741   3.869   1.268   1.555  0.0263  0.4735  0.6884
  924SOL    HW3 3742   3.800   1.399   1.524  0.1580  0.4647  0.3594
  924SOL    MW4 3743   3.797   1.312   1.532  0.2048  0.4362  0.0647
  925SOL     OW 3744   3.822   1.565   1.576 -0.2288 -0.4866  0.4092
  925SOL    HW2 3745   3.825   1.561   1.672 -0.3548  0.1240  0.4423
  925SOL    HW3 3746   3.740   1.610   1.557  0.0452 -0.1517  0.0272
  925SOL    MW4 3747   3.812   1.570   1.586 -0.2093 -0.3620  0.3632
  926SOL     OW 3748   3.570   1.678   1.508 -0.1213  0.6627 -0.3647
  926SOL    HW2 3749   3.498   1.636   1.556  1.0166 -0.3850  0.4468
  926SOL    HW3 3750   3.554   1.656   1.417  0.6900 -1.9565  0.0815
  926SOL    MW4 3751   3.558   1.669   1.502  0.1361  0.1788 -0.1988
  927SOL     OW 3752   3.658   1.941   1.582 -0.1363 -0.2464 -0.0258
  927SOL    HW2 3753   3.641   1.847   1.575 -1.7756 -0.0887  1.2977
  927SOL    HW3 3754   3.585   1.982   1.536  0.1927  0.3789  0.0018
  927SOL    MW4 3755   3.646   1.934   1.575 -0.3090 -0.1431  0.1525
  928SOL     OW 3756   3.900   2.077   1.515 -0.1723  0.1925  0.1166
  928SOL    HW2 3757   3.891   2.170   1.536 -0.9340  0.1348  0.0473
  928SOL    HW3 3758   3.817   2.038   1.541  0.0877 -0.4440  0.0011
  928SOL    MW4 3759   3.888   2.084   1.521 -0.2384  0.1009  0.0921
  929SOL     OW 3760   3.860   2.334   1.580  0.2602 -0.0325 -0.3283
  929SOL    HW2 3761   3.857   2.322   1.675 -0.3025  1.8604 -0.0874
  929SOL    HW3 3762   3.947   2.369   1.563  0.1777  0.1256 -0.4330
  929SOL    MW4 3763   3.871   2.337   1.591  0.1750  0.2379 -0.3104
  930SOL     OW 3764   3.612   2.427   1.484 -0.0681 -0.4737 -0.2221
  930SOL    HW2 3765   3.604   2.515   1.519 -0.3779 -0.8010  0.5472
  930SOL    HW3 3766   3.697   2.395   1.516 -0.9882 -1.3072  1.5021
  930SOL    MW4 3767   3.622   2.434   1.493 -0.2303 -0.6268  0.1068
  931SOL     OW 3768   3.618   2.696   1.589 -0.3754 -0.2679  0.2978
  931SOL    HW2 3769   3.627   2.690   1.684  0.1308 -0.2957  0.2505
  931SOL    HW3 3770   3.536   2.744   1.575  0.0048  0.5235  0.7527
  931SOL    MW4 3771   3.608   2.701   1.599 -0.2584 -0.1671  0.3517
  932SOL     OW 3772   3.860   2.864   1.539  0.3641  0.0536 -0.4744
  932SOL    HW2 3773   3.926   2.797   1.551 -0.1900 -0.3383  0.4483
  932SOL    HW3 3774   3.777   2.819   1.556 -0.1982  0.3687 -2.2621
  932SOL    MW4 3775   3.858   2.850   1.543  0.2167  0.0434 -0.5884
  933SOL     OW 3776   3.819   3.116   1.624  0.0032 -0.7308  0.0326
  933SOL    HW2 3777   3.897   3.155   1.585 -1.6268  0.4335 -2.1775
  933SOL    HW3 3778   3.825   3.023   1.603  1.0470 -0.7258  0.3078
  933SOL    MW4 3779   3.830   3.109   1.616 -0.0741 -0.5765 -0.2227
  934SOL     OW 3780   3.586   3.252   1.538 -0.1228  0.0549  0.6211
  934SOL    HW2 3781   3.656   3.200   1.578 -1.2316 -0.7114  1.5730
  934SOL    HW3 3782   3.590   3.231   1.445  0.2714 -0.7330  0.8151
  934SOL    MW4 3783   3.596   3.243   1.531 -0.2172 -0.1502  0.7721
  935SOL     OW 3784   3.623   3.515   1.603  0.5126 -0.3092  0.5416
  935SOL    HW2 3785   3.683   3.566   1.548 -1.9402  1.4316 -0.6048
  935SOL    HW3 3786   3.629   3.426   1.569  0.2952  0.4192 -1.4322
  935SOL    MW4 3787   3.632   3.510   1.591  0.1602  0.0165  0.1298
  936SOL     OW 3788   3.829   3.644   1.471 -0.1292  0.2229  0.4208
  936SOL    HW2 3789   3.908   3.602   1.505 -0.3507 -0.0402  0.6097
  936SOL    HW3 3790   3.840   3.737   1.493  0.3089  0.2496  0.0965
  936SOL    MW4 3791   3.841   3.651   1.478 -0.1009  0.1919  0.4029
  937SOL     OW 3792   3.873   3.908   1.592  0.4590  0.1445  0.0660
  937SOL    HW2 3793   3.940   3.972   1.568 -0.4883  1.0630 -0.1776
  937SOL    HW3 3794   3.791   3.947   1.563 -0.5798  0.6296  3.3887
  937SOL    MW4 3795   3.871   3.922   1.585  0.1967  0.3295  0.4722
  938SOL     OW 3796   3.613   3.974   1.484  0.4569  0.5946  0.6465
  938SOL    HW2 3797   3.608   4.065   1.512 -1.0646  0.7878 -0.1625
  938SOL    HW3 3798   3.534   3.933   1.520  1.6866 -0.6881  1.9371
  938SOL    MW4 3799   3.602   3.980   1.492  0.4184  0.4506  0.7100
  939SOL     OW 3800   3.568   4.229   1.609  0.1827  0.0620 -0.2433
  939SOL    HW2 3801   3.558   4.214   1.703  0.0074  0.4813 -0.1945
  939SOL    HW3 3802   3.501   4.294   1.588 -0.2225 -0.5269 -0.7840
  939SOL    MW4 3803   3.557   4.235   1.619  0.1063  0.0391 -0.3080
  940SOL     OW 3804   3.807   4.353   1.553  0.6336  0.2117  0.0997
  940SOL    HW2 3805   3.726   4.312   1.582  0.4813  0.5009  0.0869
  940SOL    HW3 3806   3.798   4.444   1.580  0.0456  0.7247 -1.7656
  940SOL    MW4 3807   3.795   4.360   1.561  0.5362  0.3176 -0.1482
  941SOL     OW 3808   4.315   0.018   1.655  0.1562  0.1372 -0.5413
  941SOL    HW2 3809   4.299   0.015   1.749  0.6514 -0.3883 -0.4650
  941SOL    HW3 3810   4.330  -0.074   1.631 -1.6238  0.0650 -1.4250
  941SOL    MW4 3811   4.315   0.005   1.664 -0.0134  0.0583 -0.6478
  942SOL     OW 3812   4.036   0.064   1.553 -0.0226  0.1989 -0.4252
  942SOL    HW2 3813   4.043   0.159   1.548  0.7677  0.0391 -3.6039
  942SOL    HW3 3814   4.121   0.035   1.586  0.3590  0.5195 -1.1113
  942SOL    MW4 3815   4.048   0.072   1.556  0.1321  0.2201 -0.9351
  943SOL     OW 3816   4.024   0.341   1.602  0.3811  0.1893  0.0305
  943SOL    HW2 3817   4.036   0.346   1.697  1.6436 -0.1514 -0.1139
  943SOL    HW3 3818   3.957   0.408   1.583 -0.8637 -0.6524  1.3230
  943SOL    MW4 3819   4.017   0.351   1.612  0.3834  0.0333  0.1820
  944SOL     OW 3820   4.254   0.499   1.556 -0.1566  0.1794 -0.1497
  944SOL    HW2 3821   4.175   0.446   1.567 -0.8999  1.2799 -0.2377
  944SOL    HW3 3822   4.321   0.451   1.606 -1.1286 -0.1676  0.8421
  944SOL    MW4 3823   4.253   0.485   1.564 -0.3829  0.2788 -0.0304
  945SOL     OW 3824   4.269   0.786   1.630  0.2393 -0.1800  0.0923
  945SOL    HW2 3825   4.276   0.697   1.595  2.0580  0.0647 -0.2324
  945SOL    HW3 3826   4.353   0.827   1.608 -0.1274  1.2438  1.2615
  945SOL    MW4 3827   4.281   0.779   1.623  0.4311  0.0401  0.2037
  946SOL     OW 3828   4.068   0.940   1.517  0.1278  0.1102 -0.0543
  946SOL    HW2 3829   4.141   0.894   1.559  0.3203  1.6241  1.3364
  946SOL    HW3 3830   3.990   0.902   1.555  0.2427 -0.1246 -0.0535
  946SOL    MW4 3831   4.067   0.929   1.527  0.1688  0.2789  0.1293
  947SOL     OW 3832   4.021   1.197   1.610 -0.0772  0.0528  0.1766
  947SOL    HW2 3833   4.025   1.172   1.702  0.8113  0.3051  0.2164
  947SOL    HW3 3834   4.030   1.115   1.562  0.1097 -0.0067  0.3136
  947SOL    MW4 3835   4.023   1.183   1.615  0.0644  0.0783  0.1999
  948SOL     OW 3836   4.267   1.319   1.542 -0.3651  0.5561 -0.1216
  948SOL    HW2 3837   4.185   1.278   1.570 -0.5394  0.8039 -0.2618
  948SOL    HW3 3838   4.333   1.251   1.553 -0.5354  0.4573  0.3009
  948SOL    MW4 3839   4.265   1.305   1.547 -0.4106  0.5757 -0.0844
  949SOL     OW 3840   4.318   1.567   1.645 -0.1572 -0.0027  0.1094
  949SOL    HW2 3841   4.319   1.477   1.612 -0.1690 -0.0105  0.1303
  949SOL    HW3 3842   4.399   1.605   1.611 -0.0837 -0.0628  0.2157
  949SOL    MW4 3843   4.329   1.560   1.636 -0.1488 -0.0118  0.1261
  950SOL     OW 3844   4.114   1.659   1.480 -0.7301 -0.2091 -0.6558
  950SOL    HW2 3845   4.191   1.623   1.523  0.2742  0.0657 -2.1747
  950SOL    HW3 3846   4.043   1.601   1.506 -0.1068 -0.2031  1.1187
  950SOL    MW4 3847   4.115   1.646   1.489 -0.5155 -0.1720 -0.6222
  951SOL     OW 3848   4.082   1.905   1.615 -0.1701 -0.3717 -0.3501
  951SOL    HW2 3849   4.069   1.823   1.567 -0.1988 -0.0582 -0.8762
  951SOL    HW3 3850   4.023   1.967   1.574  1.0930  0.3712 -1.0693
  951SOL    MW4 3851   4.073   1.902   1.603 -0.0072 -0.2325 -0.5145
  952SOL     OW 3852   4.308   2.034   1.538 -0.5799  0.2725  0.2705
  952SOL    HW2 3853   4.230   1.987   1.569  0.5402 -1.3233  0.7583
  952SOL    HW3 3854   4.304   2.028   1.443 -1.2755  0.5807  0.2771
  952SOL    MW4 3855   4.297   2.027   1.530 -0.5240  0.1023  0.3358
  953SOL     OW 3856   4.311   2.314   1.578 -0.3981 -0.0131 -0.1036
  953SOL    HW2 3857   4.293   2.322   1.672 -1.0968 -0.6223 -0.1835
  953SOL    HW3 3858   4.321   2.220   1.564 -0.8455  0.0373 -0.7454
  953SOL    MW4 3859   4.310   2.303   1.589 -0.5493 -0.0868 -0.1988
  954SOL     OW 3860   4.094   2.460   1.500  0.2668  0.1664 -0.0626
  954SOL    HW2 3861   4.089   2.538   1.556  0.6918  1.3461 -1.6220
  954SOL    HW3 3862   4.176   2.418   1.524 -0.2919 -0.1974  1.2712
  954SOL    MW4 3863   4.104   2.465   1.510  0.2499  0.2742 -0.0924
  955SOL     OW 3864   4.081   2.693   1.635  0.1893  0.0625 -0.1469
  955SOL    HW2 3865   4.083   2.687   1.731  0.4222 -0.3343 -0.1754
  955SOL    HW3 3866   4.148   2.758   1.614 -0.5356  0.8745  0.0139
  955SOL    MW4 3867   4.090   2.701   1.645  0.1240  0.1171 -0.1293
  956SOL     OW 3868   4.277   2.828   1.499 -0.4819  0.0641 -0.3668
  956SOL    HW2 3869   4.280   2.919   1.527 -0.5385 -0.2579  0.6845
  956SOL    HW3 3870   4.301   2.831   1.406  1.4212  0.9322  0.1362
  956SOL    MW4 3871   4.280   2.840   1.490 -0.2375  0.1361 -0.1618
  957SOL     OW 3872   4.239   3.086   1.612  0.1067  0.2594 -0.3526
  957SOL    HW2 3873   4.227   3.075   1.706  1.3341 -0.0409 -0.2298
  957SOL    HW3 3874   4.322   3.132   1.603  0.1753 -0.0299 -1.3020
  957SOL    MW4 3875   4.248   3.091   1.623  0.2780  0.1814 -0.4617
  958SOL     OW 3876   4.031   3.235   1.506  0.0907 -0.0973  0.0740
  958SOL    HW2 3877   4.045   3.322   1.544 -0.2428 -0.3111  0.7092
  958SOL    HW3 3878   4.104   3.182   1.539  0.6014  0.0861 -0.7689
  958SOL    MW4 3879   4.042   3.239   1.516  0.1144 -0.1013  0.0465
  959SOL     OW 3880   4.041   3.487   1.638  0.1702  0.6615 -0.0072
  959SOL    HW2 3881   4.041   3.471   1.732 -0.5989  2.3383  0.3104
  959SOL    HW3 3882   4.108   3.554   1.625  0.6528  0.0484 -0.7440
  959SOL    MW4 3883   4.050   3.494   1.649  0.1321  0.8018 -0.0626
  960SOL     OW 3884   4.254   3.655   1.548 -0.0924  0.0297  0.2269
  960SOL    HW2 3885   4.266   3.748   1.567  0.4502 -0.0562  0.2902
  960SOL    HW3 3886   4.240   3.651   1.453  2.7906 -0.1120 -0.2344
  960SOL    MW4 3887   4.253   3.667   1.538  0.3600  0.0000  0.1743
  961SOL     OW 3888   4.291   3.931   1.618  0.3075  0.1674 -0.3088
  961SOL    HW2 3889   4.227   3.989   1.577  0.0558  0.5430  0.6006
  961SOL    HW3 3890   4.373   3.951   1.573 -0.0704  0.1781 -1.0033
  961SOL    MW4 3891   4.294   3.942   1.607  0.2241  0.2182 -0.2805
  962SOL     OW 3892   4.108   4.084   1.496 -0.1727  0.1972  0.0113
  962SOL    HW2 3893   4.079   4.173   1.515 -0.4307  0.2806 -0.7650
  962SOL    HW3 3894   4.084   4.069   1.405 -0.3577 -0.7603  0.2051
  962SOL    MW4 3895   4.101   4.094   1.487 -0.2313  0.0815 -0.0654
  963SOL     OW 3896   4.064   4.335   1.640 -0.0160 -0.1132  0.2451
  963SOL    HW2 3897   4.087   4.314   1.730  0.4490  1.8398  0.6076
  963SOL    HW3 3898   3.968   4.327   1.637  0.0160 -0.6689  0.7766
  963SOL    MW4 3899   4.054   4.331   1.651  0.0496  0.0710  0.3630
  964SOL     OW 3900   4.312   4.417   1.549 -0.0355 -0.0556  0.0146
  964SOL    HW2 3901   4.222   4.396   1.575  0.1730 -0.6391  0.2697
  964SOL    HW3 3902   4.310   4.418   1.454 -0.5698  1.0606  0.0266
  964SOL    MW4 3903   4.300   4.415   1.540 -0.0782  0.0148  0.0498
  965SOL     OW 3904   0.221   0.011   1.931  0.0601  0.0193  0.1219
  965SOL    HW2 3905   0.290   0.068   1.964 -0.6822  1.7053 -1.1788
  965SOL    HW3 3906   0.247  -0.009   1.841 -0.9412  0.3415 -0.2452
  965SOL    MW4 3907   0.234   0.016   1.924 -0.1699  0.2842 -0.0981
  966SOL     OW 3908   4.477   0.120   2.011  0.1401 -0.6942 -0.2014
  966SOL    HW2 3909   4.492   0.210   1.981 -0.1310 -0.4357  0.4334
  966SOL    HW3 3910   4.555   0.072   1.983 -0.3494 -0.5746 -1.7820
  966SOL    MW4 3911   4.489   0.125   2.004  0.0396 -0.6443 -0.3264
  967SOL     OW 3912   0.039   0.377   1.914  0.4488  0.0440 -0.1566
  967SOL    HW2 3913  -0.041   0.416   1.947  2.2127  3.7449  0.0280
  967SOL    HW3 3914   0.109   0.415   1.967  2.4609 -2.2041 -1.0503
  967SOL    MW4 3915   0.038   0.387   1.925  0.9470  0.2356 -0.2502
  968SOL     OW 3916   0.215   0.531   2.049 -0.1954  0.1266 -0.4761
  968SOL    HW2 3917   0.297   0.485   2.036  0.5840  0.9769  1.2535
  968SOL    HW3 3918   0.212   0.595   1.978  0.3826 -0.2622 -0.8551
  968SOL    MW4 3919   0.225   0.534   2.038 -0.0163  0.1875 -0.2980
  969SOL     OW 3920   0.220   0.749   1.868  0.4496 -0.2219  0.0284
  969SOL    HW2 3921   0.298   0.792   1.904 -0.2773  0.3425  0.9739
  969SOL    HW3 3922   0.225   0.764   1.774  0.9487  0.6993  0.1970
  969SOL    MW4 3923   0.231   0.756   1.861  0.4196 -0.0259  0.1752
  970SOL     OW 3924   0.002   0.859   2.008 -0.5190  0.1222 -0.0040
  970SOL    HW2 3925  -0.075   0.806   1.986 -0.4314 -0.4789  1.0989
  970SOL    HW3 3926   0.074   0.813   1.966 -0.6689  0.3127 -0.4741
  970SOL    MW4 3927   0.001   0.846   1.999 -0.5273  0.0680  0.0795
  971SOL     OW 3928   0.005   1.106   1.893  0.0029 -0.1621  0.0883
  971SOL    HW2 3929  -0.070   1.160   1.915  0.1315  0.2180 -0.3953
  971SOL    HW3 3930  -0.017   1.019   1.927 -0.7154 -0.0866 -0.1856
  971SOL    MW4 3931  -0.008   1.101   1.901 -0.0749 -0.1020 -0.0116
  972SOL     OW 3932   0.219   1.284   1.993  0.2567  0.0441 -0.1876
  972SOL    HW2 3933   0.209   1.367   1.946 -1.6903  0.9161  1.7105
  972SOL    HW3 3934   0.147   1.229   1.962  1.4533 -0.9151 -1.3290
  972SOL    MW4 3935   0.208   1.288   1.983  0.1577  0.0328 -0.0879
  973SOL     OW 3936   0.236   1.550   1.885  0.4194 -0.2637  0.4789
  973SOL    HW2 3937   0.312   1.598   1.917  1.2302  0.2910 -2.1726
  973SOL    HW3 3938   0.161   1.597   1.921  1.2741  0.1509  1.7630
  973SOL    MW4 3939   0.236   1.562   1.894  0.6391 -0.1357  0.2985
  974SOL     OW 3940   0.029   1.671   2.029 -0.2075 -0.2595  0.4004
  974SOL    HW2 3941   0.028   1.647   2.122 -0.3998  1.4229  0.8653
  974SOL    HW3 3942  -0.041   1.619   1.990 -0.3064 -0.7866  1.2507
  974SOL    MW4 3943   0.020   1.661   2.036 -0.2459 -0.1072  0.5741
  975SOL     OW 3944   0.005   1.919   1.877 -0.1998  0.1700 -0.0600
  975SOL    HW2 3945  -0.074   1.972   1.891 -0.9300 -0.7635 -0.5951
  975SOL    HW3 3946  -0.010   1.840   1.929  0.6534  0.2566  0.3183
  975SOL    MW4 3947  -0.008   1.915   1.885 -0.1836  0.0584 -0.0808
  976SOL     OW 3948   0.226   2.054   2.024  0.3974 -0.1695 -0.5633
  976SOL    HW2 3949   0.232   2.139   1.981 -1.3255 -0.5131 -1.5429
  976SOL    HW3 3950   0.142   2.019   1.996 -0.4862 -0.7315  2.5449
  976SOL    MW4 3951   0.216   2.061   2.015  0.0536 -0.2890 -0.2825
  977SOL     OW 3952   0.211   2.300   1.884 -0.1242 -0.1383 -0.0541
  977SOL    HW2 3953   0.286   2.350   1.914 -0.1493  0.5676 -1.1275
  977SOL    HW3 3954   0.136   2.340   1.928  0.0521 -0.3649  0.4469
  977SOL    MW4 3955   0.211   2.312   1.894 -0.1043 -0.0753 -0.1295
  978SOL     OW 3956   4.484   2.442   2.006  0.0570 -0.1546  0.0727
  978SOL    HW2 3957   4.474   2.445   2.101  3.0514 -0.6606  0.4301
  978SOL    HW3 3958   4.485   2.534   1.980  1.6469  0.0717  0.8410
  978SOL    MW4 3959   4.483   2.455   2.015  0.6619 -0.1915  0.2213
  979SOL     OW 3960   0.046   2.695   1.931 -0.4074  0.5712 -0.2795
  979SOL    HW2 3961  -0.033   2.747   1.946 -0.5397  0.3131 -0.0801
  979SOL    HW3 3962   0.057   2.694   1.836 -0.9566  0.1381 -0.3379
  979SOL    MW4 3963   0.037   2.702   1.921 -0.4973  0.4802 -0.2609
  980SOL     OW 3964   0.263   2.825   2.007 -0.4592 -0.3519  0.0483
  980SOL    HW2 3965   0.243   2.912   1.973 -2.0339 -1.0110 -0.7900
  980SOL    HW3 3966   0.179   2.780   2.007  0.1289 -1.4940  1.6025
  980SOL    MW4 3967   0.249   2.830   2.003 -0.5894 -0.5896  0.1428
  981SOL     OW 3968   0.204   3.063   1.926  0.0345  0.2375 -0.5747
  981SOL    HW2 3969   0.276   3.116   1.960  0.0147  0.5287 -0.9838
  981SOL    HW3 3970   0.205   3.080   1.831 -1.8975  1.8618 -0.3240
  981SOL    MW4 3971   0.214   3.072   1.918 -0.2230  0.4902 -0.5957
  982SOL     OW 3972   4.462   3.199   2.022 -0.6500  0.0884 -0.3186
  982SOL    HW2 3973   4.388   3.172   1.967  0.2828 -0.8534 -1.1348
  982SOL    HW3 3974   4.538   3.154   1.984  0.2461  0.5561  0.8853
  982SOL    MW4 3975   4.463   3.190   2.009 -0.4091  0.0260 -0.2677
  983SOL     OW 3976   4.452   3.461   1.931 -0.1226 -0.0239 -0.0476
  983SOL    HW2 3977   4.536   3.491   1.966 -0.6563  0.1062  1.1525
  983SOL    HW3 3978   4.442   3.372   1.964 -0.8957  0.3003  0.6220
  983SOL    MW4 3979   4.461   3.453   1.940 -0.2947  0.0365  0.1991
  984SOL     OW 3980   0.191   3.597   2.018  0.4032 -0.3505  0.3274
  984SOL    HW2 3981   0.202   3.603   2.113 -1.0865  1.9159  0.3891
  984SOL    HW3 3982   0.270   3.554   1.988  1.7047  0.4877  2.4147
  984SOL    MW4 3983   0.203   3.592   2.027  0.3784  0.0591  0.6108
  985SOL     OW 3984   0.238   3.840   1.887 -0.0405 -0.3337  0.7447
  985SOL    HW2 3985   0.309   3.895   1.918  0.2581 -0.2760 -0.0368
  985SOL    HW3 3986   0.242   3.762   1.942  0.6868 -0.3693  0.6383
  985SOL    MW4 3987   0.248   3.837   1.898  0.0949 -0.3307  0.6276
  986SOL     OW 3988   0.021   4.001   1.971 -0.1810  0.4304 -0.1477
  986SOL    HW2 3989   0.034   4.086   1.929 -0.7636 -0.2236 -1.7298
  986SOL    HW3 3990   0.095   3.948   1.940 -0.3496  0.0843  0.0399
  986SOL    MW4 3991   0.033   4.005   1.961 -0.2801  0.2985 -0.3316
  987SOL     OW 3992   0.053   4.260   1.887 -0.2228 -0.0304  0.6399
  987SOL    HW2 3993  -0.030   4.301   1.911  0.1070  1.2483 -0.3014
  987SOL    HW3 3994   0.119   4.308   1.937  0.1074  0.1686  0.0230
  987SOL    MW4 3995   0.051   4.272   1.897 -0.1357  0.1645  0.4343
  988SOL     OW 3996   0.267   4.401   2.008  0.5275 -0.0547 -0.0500
  988SOL    HW2 3997   0.260   4.407   2.103  1.0010  2.5605 -0.1253
  988SOL    HW3 3998   0.244   4.489   1.976  3.2538 -0.0106 -2.1306
  988SOL    MW4 3999   0.263   4.414   2.016  0.9497  0.2961 -0.3345
  989SOL     OW 4000   0.671   0.003   1.929 -0.1021 -0.0470 -0.0647
  989SOL    HW2 4001   0.670  -0.089   1.955 -0.2920 -0.3178 -0.9986
  989SOL    HW3 4002   0.689   0.000   1.835 -0.0542  0.8728 -0.0827
  989SOL    MW4 4003   0.673  -0.010   1.920 -0.1209  0.0391 -0.1903
  990SOL     OW 4004   0.450   0.139   2.026 -0.1537  0.6624  0.0531
  990SOL    HW2 4005   0.459   0.232   2.007 -0.5345  0.5146 -0.8672
  990SOL    HW3 4006   0.525   0.098   1.983 -0.5311  0.4241 -0.3725
  990SOL    MW4 4007   0.461   0.146   2.018 -0.2538  0.6114 -0.1245
  991SOL     OW 4008   0.463   0.395   1.949  0.2135 -0.0539 -0.1481
  991SOL    HW2 4009   0.537   0.452   1.970 -0.2704  0.1203  1.1046
  991SOL    HW3 4010   0.467   0.386   1.853  1.7249  0.1153 -0.1184
  991SOL    MW4 4011   0.473   0.401   1.939  0.3491 -0.0086  0.0210
  992SOL     OW 4012   0.697   0.534   2.024  0.0353  0.0234  0.0500
  992SOL    HW2 4013   0.683   0.518   2.118  0.7031  0.1787  0.1788
  992SOL    HW3 4014   0.775   0.482   2.002 -0.4984 -0.5263 -0.5690
  992SOL    MW4 4015   0.705   0.525   2.034  0.0530 -0.0287 -0.0148
  993SOL     OW 4016   0.711   0.787   1.918 -0.3216  0.0788  0.2491
  993SOL    HW2 4017   0.789   0.826   1.956 -0.5981  1.1322 -0.2682
  993SOL    HW3 4018   0.700   0.705   1.966  0.8164  0.1614  0.6549
  993SOL    MW4 4019   0.720   0.781   1.930 -0.2079  0.2287  0.2344
  994SOL     OW 4020   0.447   0.868   1.971  0.0965  0.3204  0.2870
  994SOL    HW2 4021   0.449   0.963   1.956  0.4698  0.1454 -0.8081
  994SOL    HW3 4022   0.529   0.836   1.933 -0.2110 -0.4861  0.2975
  994SOL    MW4 4023   0.458   0.877   1.964  0.1052  0.1909  0.1439
  995SOL     OW 4024   0.446   1.130   1.911  0.1326  0.1302  0.7537
  995SOL    HW2 4025   0.368   1.169   1.950  0.2962 -0.1604  1.3727
  995SOL    HW3 4026   0.446   1.162   1.821 -0.5403  0.3669  0.8355
  995SOL    MW4 4027   0.436   1.139   1.904  0.0654  0.1230  0.8463
  996SOL     OW 4028   0.681   1.246   1.971  0.0693  0.0717 -0.5200
  996SOL    HW2 4029   0.686   1.253   2.066  0.2149  1.6932 -0.6426
  996SOL    HW3 4030   0.602   1.195   1.955 -0.3615  0.4245  0.4406
  996SOL    MW4 4031   0.671   1.240   1.981  0.0317  0.3321 -0.4094
  997SOL     OW 4032   0.696   1.517   1.851  0.0939  0.3194 -0.1042
  997SOL    HW2 4033   0.689   1.432   1.894 -0.1239  1.0913  1.4188
  997SOL    HW3 4034   0.677   1.499   1.759 -0.4655 -1.2012  0.2969
  997SOL    MW4 4035   0.692   1.504   1.844 -0.0086  0.2207  0.1496
  998SOL     OW 4036   0.461   1.680   1.965  0.2740  0.2848  0.3287
  998SOL    HW2 4037   0.457   1.656   2.057 -1.3679 -0.7042  0.0271
  998SOL    HW3 4038   0.545   1.646   1.935 -0.5619 -2.2540  0.7298
  998SOL    MW4 4039   0.471   1.672   1.973 -0.0529 -0.1807  0.3418
  999SOL     OW 4040   0.443   1.938   1.898 -0.2402 -0.2382 -0.0538
  999SOL    HW2 4041   0.442   1.848   1.930  0.6006 -0.6825 -1.2398
  999SOL    HW3 4042   0.366   1.978   1.937 -0.8510 -1.5868  0.1551
  999SOL    MW4 4043   0.433   1.931   1.907 -0.2099 -0.4748 -0.1827
 1000SOL     OW 4044   0.700   2.024   1.966 -0.3922 -0.3688 -0.1907
 1000SOL    HW2 4045   0.694   2.035   2.061  2.5952 -3.1470  0.4214
 1000SOL    HW3 4046   0.610   2.004   1.939 -1.2593  0.2880  2.0668
 1000SOL    MW4 4047   0.687   2.023   1.975 -0.1124 -0.6490  0.1879
 1001SOL     OW 4048   0.682   2.296   1.920  0.3864  0.4035 -0.4200
 1001SOL    HW2 4049   0.703   2.204   1.935 -1.1448  0.0760 -0.2395
 1001SOL    HW3 4050   0.677   2.304   1.824  2.4385  0.7520 -0.5233
 1001SOL    MW4 4051   0.684   2.285   1.909  0.4551  0.4060 -0.4097
 1002SOL     OW 4052   0.442   2.434   1.988  0.1069  0.5298 -0.2062
 1002SOL    HW2 4053   0.444   2.443   2.084 -0.4711 -0.7965 -0.0561
 1002SOL    HW3 4054   0.512   2.372   1.969 -0.7921 -0.4196 -0.4826
 1002SOL    MW4 4055   0.451   2.427   1.998 -0.0879  0.2296 -0.2229
 1003SOL     OW 4056   0.443   2.685   1.860  0.1902  0.2938  0.4705
 1003SOL    HW2 4057   0.440   2.596   1.894  1.8538  0.2437  0.5408
 1003SOL    HW3 4058   0.372   2.731   1.905 -0.3634 -0.8652  0.7899
 1003SOL    MW4 4059   0.433   2.679   1.870  0.3366  0.1342  0.5219
 1004SOL     OW 4060   0.644   2.844   1.980  0.3248 -0.0077 -0.0089
 1004SOL    HW2 4061   0.640   2.832   2.075  0.0096  1.0740  0.1168
 1004SOL    HW3 4062   0.577   2.785   1.946 -0.6865  0.8255  0.5458
 1004SOL    MW4 4063   0.635   2.834   1.988  0.1498  0.2449  0.0808
 1005SOL     OW 4064   0.665   3.110   1.898  0.4325 -0.0351 -0.7444
 1005SOL    HW2 4065   0.653   3.017   1.914 -0.4046  0.0761 -0.7049
 1005SOL    HW3 4066   0.657   3.120   1.803  0.8801 -0.0507 -0.7864
 1005SOL    MW4 4067   0.662   3.099   1.887  0.3812 -0.0226 -0.7447
 1006SOL     OW 4068   0.436   3.225   1.993 -0.0913  0.1559  0.5345
 1006SOL    HW2 4069   0.436   3.315   1.962  0.2487 -0.0330 -0.0050
 1006SOL    HW3 4070   0.522   3.190   1.970 -0.3826 -0.4458  0.3337
 1006SOL    MW4 4071   0.447   3.232   1.986 -0.0849  0.0517  0.4368
 1007SOL     OW 4072   0.418   3.496   1.919 -0.3918  0.1673 -0.0118
 1007SOL    HW2 4073   0.494   3.538   1.958 -0.2801 -0.3062  0.2843
 1007SOL    HW3 4074   0.420   3.523   1.827 -0.3961  0.9118  0.2051
 1007SOL    MW4 4075   0.428   3.505   1.912 -0.3776  0.2031  0.0560
 1008SOL     OW 4076   0.655   3.633   2.010 -0.7330 -0.0835 -0.2236
 1008SOL    HW2 4077   0.724   3.574   1.981  0.3975  0.9795  0.2729
 1008SOL    HW3 4078   0.677   3.717   1.971 -2.6995 -0.0919 -1.4798
 1008SOL    MW4 4079   0.667   3.636   2.001 -0.8433  0.0556 -0.3240
 1009SOL     OW 4080   0.668   3.891   1.932  0.3973 -0.0530 -0.0675
 1009SOL    HW2 4081   0.722   3.961   1.966 -0.2947  0.4387  0.0261
 1009SOL    HW3 4082   0.673   3.901   1.837  0.3592  0.0851 -0.0557
 1009SOL    MW4 4083   0.676   3.901   1.924  0.3010  0.0300 -0.0535
 1010SOL     OW 4084   0.427   4.013   1.994 -0.3000 -0.6454 -0.6558
 1010SOL    HW2 4085   0.438   4.104   1.966  0.0564  0.3645  2.5414
 1010SOL    HW3 4086   0.513   3.973   1.979  0.1004  0.0629 -0.2973
 1010SOL    MW4 4087   0.440   4.020   1.988 -0.2001 -0.4191 -0.1866
 1011SOL     OW 4088   0.491   4.264   1.917 -0.4688 -0.9576 -0.2719
 1011SOL    HW2 4089   0.425   4.331   1.933  0.4430 -0.3422  1.0257
 1011SOL    HW3 4090   0.505   4.265   1.823 -1.4547 -0.2967 -0.4213
 1011SOL    MW4 4091   0.484   4.273   1.907 -0.4786 -0.7896 -0.1205
 1012SOL     OW 4092   0.701   4.384   2.027 -0.0204  0.2531 -0.0461
 1012SOL    HW2 4093   0.777   4.361   1.973  0.7409 -1.5396  1.7136
 1012SOL    HW3 4094   0.629   4.333   1.991  0.5708 -1.2321  0.8432
 1012SOL    MW4 4095   0.702   4.375   2.015  0.1580 -0.1798  0.3033
 1013SOL     OW 4096   1.134   4.647   1.914 -0.2343  0.1019  0.1795
 1013SOL    HW2 4097   1.216   4.694   1.930 -0.6229  0.2580  1.7949
 1013SOL    HW3 4098   1.147   4.561   1.954 -0.5664 -0.1631 -0.2773
 1013SOL    MW4 4099   1.147   4.642   1.921 -0.3294  0.0877  0.3322
 1014SOL     OW 4100   0.908   0.107   2.041 -0.1303  0.3153  0.0113
 1014SOL    HW2 4101   0.979   0.046   2.019 -1.5413 -1.6536  0.7300
 1014SOL    HW3 4102   0.832   0.072   1.994 -0.7332  2.1344 -0.3931
 1014SOL    MW4 4103   0.907   0.094   2.032 -0.3961  0.2955  0.0527
 1015SOL     OW 4104   0.935   0.375   1.920  0.0524  0.0812  0.3220
 1015SOL    HW2 4105   1.018   0.415   1.946  0.6632 -0.2905 -1.0229
 1015SOL    HW3 4106   0.930   0.295   1.971  0.5078  0.1196  0.4284
 1015SOL    MW4 4107   0.945   0.370   1.930  0.1931  0.0372  0.1585
 1016SOL     OW 4108   1.160   0.491   1.998 -0.0759 -0.0090 -0.7163
 1016SOL    HW2 4109   1.248   0.460   1.977  0.0301  0.8006 -1.4661
 1016SOL    HW3 4110   1.157   0.580   1.965 -0.8607  0.3035  0.1748
 1016SOL    MW4 4111   1.171   0.498   1.991 -0.1652  0.1390 -0.6979
 1017SOL     OW 4112   1.153   0.746   1.885  0.5177  0.2310 -0.2505
 1017SOL    HW2 4113   1.237   0.789   1.900  0.1780  1.0904 -0.7521
 1017SOL    HW3 4114   1.089   0.805   1.924  0.1426 -0.4190  0.1294
 1017SOL    MW4 4115   1.155   0.759   1.892  0.4234  0.2586 -0.2667
 1018SOL     OW 4116   0.945   0.906   2.012  0.7120 -0.4138 -0.2074
 1018SOL    HW2 4117   0.931   0.921   2.106  0.7455  0.2512 -0.3093
 1018SOL    HW3 4118   0.948   0.994   1.974 -1.7626 -0.6965 -1.1824
 1018SOL    MW4 4119   0.943   0.920   2.019  0.3899 -0.3634 -0.3495
 1019SOL     OW 4120   0.940   1.147   1.893  0.0327  0.4342 -0.0654
 1019SOL    HW2 4121   0.852   1.166   1.923 -0.5752  0.1422 -1.6190
 1019SOL    HW3 4122   0.938   1.165   1.799  1.7060  0.7180 -0.0648
 1019SOL    MW4 4123   0.928   1.152   1.885  0.1733  0.4331 -0.2704
 1020SOL     OW 4124   1.149   1.296   1.980 -0.1439  0.4449  0.2708
 1020SOL    HW2 4125   1.137   1.383   1.940  1.7495  0.8511  0.5524
 1020SOL    HW3 4126   1.076   1.245   1.946 -1.4237  2.1998  0.2597
 1020SOL    MW4 4127   1.137   1.301   1.970 -0.0629  0.7302  0.3066
 1021SOL     OW 4128   1.120   1.551   1.874  0.2636 -0.1658 -0.3894
 1021SOL    HW2 4129   1.047   1.610   1.891  0.0877 -0.2927 -0.7039
 1021SOL    HW3 4130   1.135   1.558   1.780  0.1776 -0.7010 -0.4444
 1021SOL    MW4 4131   1.112   1.560   1.864  0.2291 -0.2532 -0.4380
 1022SOL     OW 4132   0.869   1.694   1.971  0.2083 -0.1272  0.4077
 1022SOL    HW2 4133   0.880   1.783   1.936  0.1397  0.1421  1.0620
 1022SOL    HW3 4134   0.801   1.655   1.917  0.2156  0.2332  0.1369
 1022SOL    MW4 4135   0.862   1.701   1.960  0.2002 -0.0441  0.4582
 1023SOL     OW 4136   0.939   1.943   1.850 -0.3264 -0.2560 -0.1970
 1023SOL    HW2 4137   0.862   1.995   1.874 -0.7641 -0.7645 -0.5080
 1023SOL    HW3 4138   0.934   1.935   1.755 -0.4300 -1.1574 -0.1139
 1023SOL    MW4 4139   0.928   1.949   1.841 -0.3978 -0.4421 -0.2270
 1024SOL     OW 4140   1.168   2.045   1.961 -0.3109  0.0319 -0.0866
 1024SOL    HW2 4141   1.152   2.136   1.938  0.0354 -0.0575 -0.7113
 1024SOL    HW3 4142   1.103   1.996   1.910  0.0522 -0.1254 -0.4051
 1024SOL    MW4 4143   1.157   2.050   1.951 -0.2173 -0.0005 -0.2110
 1025SOL     OW 4144   1.125   2.325   1.884 -0.3335 -0.1505 -0.2360
 1025SOL    HW2 4145   1.206   2.370   1.911  0.2781 -0.7008 -1.1424
 1025SOL    HW3 4146   1.137   2.309   1.791 -0.5648 -2.1666  0.0718
 1025SOL    MW4 4147   1.137   2.329   1.875 -0.2834 -0.4892 -0.3150
 1026SOL     OW 4148   0.894   2.449   1.973  0.0526  0.4706  0.0549
 1026SOL    HW2 4149   0.974   2.402   1.951 -0.3830 -0.4209  0.3498
 1026SOL    HW3 4150   0.824   2.385   1.960 -0.5418  1.0156  0.5234
 1026SOL    MW4 4151   0.896   2.435   1.968 -0.0833  0.4251  0.1556
 1027SOL     OW 4152   0.852   2.714   1.883  0.4124 -0.0129  0.0856
 1027SOL    HW2 4153   0.860   2.626   1.920 -0.9277  0.1919  0.8735
 1027SOL    HW3 4154   0.776   2.753   1.927 -0.3292  0.7625 -1.8067
 1027SOL    MW4 4155   0.843   2.708   1.893  0.1377  0.1163 -0.0601
 1028SOL     OW 4156   1.108   2.830   1.970 -0.5120 -0.6147  0.3743
 1028SOL    HW2 4157   1.107   2.818   2.065 -0.1837 -0.9228  0.3415
 1028SOL    HW3 4158   1.022   2.798   1.941 -0.7891 -0.0963  0.6137
 1028SOL    MW4 4159   1.096   2.824   1.979 -0.5053 -0.5870  0.4016
 1029SOL     OW 4160   1.136   3.098   1.883  0.8199  0.0491 -0.2269
 1029SOL    HW2 4161   1.059   3.129   1.930  1.0499  0.6752 -0.2587
 1029SOL    HW3 4162   1.151   3.010   1.917 -0.7600 -0.6448 -1.2751
 1029SOL    MW4 4163   1.128   3.090   1.894  0.6418  0.0401 -0.3694
 1030SOL     OW 4164   0.892   3.227   1.979 -0.8986  0.0849  0.1556
 1030SOL    HW2 4165   0.885   3.199   2.070 -0.9066  1.2323  0.5095
 1030SOL    HW3 4166   0.816   3.188   1.935 -0.9991 -0.3004  0.6699
 1030SOL    MW4 4167   0.881   3.218   1.985 -0.9130  0.1853  0.2701
 1031SOL     OW 4168   0.884   3.495   1.927 -0.1201  0.0662 -0.2032
 1031SOL    HW2 4169   0.898   3.403   1.949  1.5538  0.1023 -1.0105
 1031SOL    HW3 4170   0.879   3.497   1.831  1.4786  1.0106 -0.2831
 1031SOL    MW4 4171   0.885   3.483   1.917  0.3117  0.1955 -0.3203
 1032SOL     OW 4172   1.124   3.634   1.998 -0.2585 -0.0061  0.4508
 1032SOL    HW2 4173   1.111   3.622   2.092 -2.2821  0.8569  0.2887
 1032SOL    HW3 4174   1.045   3.599   1.958  0.6251 -0.4285 -0.9611
 1032SOL    MW4 4175   1.112   3.628   2.005 -0.4090  0.0520  0.2432
 1033SOL     OW 4176   1.109   3.895   1.943 -0.0699 -0.3380 -0.1793
 1033SOL    HW2 4177   1.103   3.804   1.970  1.2746 -0.5576 -0.5809
 1033SOL    HW3 4178   1.117   3.891   1.847  2.2905  0.0633 -0.0275
 1033SOL    MW4 4179   1.110   3.883   1.934  0.4190 -0.3140 -0.2123
 1034SOL     OW 4180   0.883   4.044   2.045 -0.0771 -0.3561  0.2930
 1034SOL    HW2 4181   0.886   4.043   2.141  1.1827  1.1020  0.3044
 1034SOL    HW3 4182   0.955   3.987   2.018 -0.5369 -0.8972  0.2214
 1034SOL    MW4 4183   0.893   4.037   2.054  0.0284 -0.2346  0.2849
 1035SOL     OW 4184   0.909   4.261   1.890 -0.3992 -0.0403 -0.2620
 1035SOL    HW2 4185   0.998   4.295   1.897 -1.2510  1.7719  2.1340
 1035SOL    HW3 4186   0.907   4.187   1.951  0.1668 -1.7371 -2.2290
 1035SOL    MW4 4187   0.921   4.255   1.899 -0.4369 -0.0253 -0.2055
 1036SOL     OW 4188   1.126   4.391   1.997 -0.0118 -0.2697 -0.4918
 1036SOL    HW2 4189   1.115   4.370   2.090  0.5078 -0.4655 -0.4716
 1036SOL    HW3 4190   1.215   4.361   1.976  0.3784  1.0194 -0.7176
 1036SOL    MW4 4191   1.137   4.384   2.006  0.1082 -0.1249 -0.5190
 1037SOL     OW 4192   1.602   4.643   1.894 -0.1060  0.1688 -0.2590
 1037SOL    HW2 4193   1.669   4.693   1.941  0.9126 -0.7552 -0.7051
 1037SOL    HW3 4194   1.592   4.563   1.946  2.4991 -1.7925 -2.6738
 1037SOL    MW4 4195   1.609   4.639   1.907  0.3721 -0.2117 -0.6366
 1038SOL     OW 4196   1.357   0.127   2.002  0.6359 -0.0580 -0.0280
 1038SOL    HW2 4197   1.370   0.114   2.096  1.3312  0.4017 -0.0586
 1038SOL    HW3 4198   1.434   0.085   1.962  0.7181  0.3970 -0.3469
 1038SOL    MW4 4199   1.369   0.119   2.009  0.7386  0.0627 -0.0741
 1039SOL     OW 4200   1.387   0.386   1.918  0.3086 -0.4881 -0.0633
 1039SOL    HW2 4201   1.365   0.296   1.940 -0.4681 -0.1907  0.3883
 1039SOL    HW3 4202   1.380   0.391   1.823 -1.4867 -0.4336  0.0477
 1039SOL    MW4 4203   1.383   0.375   1.909 -0.0308 -0.4416  0.0110
 1040SOL     OW 4204   1.607   0.515   2.021 -0.7177 -0.0847 -0.1539
 1040SOL    HW2 4205   1.687   0.493   1.972  0.2579  0.0917  1.3415
 1040SOL    HW3 4206   1.536   0.476   1.969  0.3055  0.0017 -1.6458
 1040SOL    MW4 4207   1.608   0.507   2.008 -0.4539 -0.0501 -0.1535
 1041SOL     OW 4208   1.603   0.763   1.876  0.2170  0.2781  0.1342
 1041SOL    HW2 4209   1.685   0.810   1.893  1.0194 -1.2856  0.7509
 1041SOL    HW3 4210   1.604   0.690   1.939 -1.0806 -0.4395 -0.6524
 1041SOL    MW4 4211   1.614   0.759   1.887  0.1518 -0.0229  0.1118
 1042SOL     OW 4212   1.382   0.890   1.950 -0.4102 -0.4261 -0.6430
 1042SOL    HW2 4213   1.386   0.879   2.045 -1.1898 -1.8018 -0.7424
 1042SOL    HW3 4214   1.462   0.849   1.917 -1.2137 -1.9790 -0.7148
 1042SOL    MW4 4215   1.393   0.883   1.958 -0.6191 -0.8125 -0.6658
 1043SOL     OW 4216   1.367   1.175   1.859 -0.2464  0.1267  0.0342
 1043SOL    HW2 4217   1.372   1.084   1.890 -1.6847 -0.6238 -1.7942
 1043SOL    HW3 4218   1.295   1.213   1.908  0.9413  0.5829  1.4664
 1043SOL    MW4 4219   1.358   1.168   1.869 -0.2794  0.0877 -0.0179
 1044SOL     OW 4220   1.561   1.329   1.983  0.7577  0.4018 -0.2335
 1044SOL    HW2 4221   1.543   1.407   1.930  0.8595 -0.9954 -2.3598
 1044SOL    HW3 4222   1.507   1.261   1.945  0.5628 -0.5611  1.7178
 1044SOL    MW4 4223   1.551   1.331   1.971  0.7455  0.0905 -0.2567
 1045SOL     OW 4224   1.564   1.558   1.825 -0.2897 -0.1026  0.3710
 1045SOL    HW2 4225   1.636   1.584   1.883 -0.2632 -0.9389  0.7206
 1045SOL    HW3 4226   1.486   1.594   1.866 -0.0783  0.7209  0.0459
 1045SOL    MW4 4227   1.564   1.566   1.838 -0.2583 -0.1044  0.3741
 1046SOL     OW 4228   1.352   1.673   2.000 -0.0138  0.0217 -0.5597
 1046SOL    HW2 4229   1.341   1.650   2.092 -0.4099 -2.8443 -1.2879
 1046SOL    HW3 4230   1.269   1.648   1.959  1.0418 -1.0374 -2.1194
 1046SOL    MW4 4231   1.339   1.667   2.007  0.0733 -0.4960 -0.8614
 1047SOL     OW 4232   1.384   1.906   1.860 -0.3880 -0.2485 -0.1405
 1047SOL    HW2 4233   1.372   1.831   1.917 -0.4531  0.7229  1.1298
 1047SOL    HW3 4234   1.324   1.972   1.893  1.3097  1.1821  0.1911
 1047SOL    MW4 4235   1.375   1.905   1.872 -0.1726  0.0685  0.0709
 1048SOL     OW 4236   1.589   2.058   1.992  0.1055  0.1979 -0.0486
 1048SOL    HW2 4237   1.566   2.140   1.947  0.3942 -0.3299 -1.1850
 1048SOL    HW3 4238   1.523   1.996   1.962  0.3519 -0.1882  0.2133
 1048SOL    MW4 4239   1.577   2.061   1.982  0.1760  0.0772 -0.1640
 1049SOL     OW 4240   1.558   2.302   1.866 -0.1099 -0.1527 -0.3011
 1049SOL    HW2 4241   1.631   2.356   1.898 -0.8782  0.3685  0.5908
 1049SOL    HW3 4242   1.561   2.314   1.771  0.0867  1.0172 -0.1665
 1049SOL    MW4 4243   1.568   2.311   1.858 -0.1854  0.0703 -0.1656
 1050SOL     OW 4244   1.365   2.474   1.967  0.1666  0.5562  0.4538
 1050SOL    HW2 4245   1.370   2.558   1.921 -1.6353  0.2707 -0.3013
 1050SOL    HW3 4246   1.424   2.416   1.919  1.6133  1.4386  1.1291
 1050SOL    MW4 4247   1.373   2.478   1.955  0.1198  0.6347  0.4433
 1051SOL     OW 4248   1.353   2.737   1.869 -0.1994  0.1122  0.3244
 1051SOL    HW2 4249   1.275   2.780   1.905 -0.3713 -0.9353  1.2077
 1051SOL    HW3 4250   1.345   2.748   1.774 -2.3572 -1.5645  0.2815
 1051SOL    MW4 4251   1.342   2.744   1.861 -0.5066 -0.2470  0.4354
 1052SOL     OW 4252   1.572   2.887   1.966 -0.1181  0.1045  0.1557
 1052SOL    HW2 4253   1.645   2.827   1.951  1.0196  1.7782 -1.2281
 1052SOL    HW3 4254   1.495   2.839   1.935  0.6413 -0.9745 -0.1047
 1052SOL    MW4 4255   1.571   2.873   1.959  0.1323  0.1829 -0.0612
 1053SOL     OW 4256   1.568   3.149   1.916 -0.3194 -0.5893 -0.6686
 1053SOL    HW2 4257   1.595   3.058   1.932 -0.6001 -0.4864  0.4559
 1053SOL    HW3 4258   1.545   3.151   1.823 -1.2815 -1.9216 -0.4724
 1053SOL    MW4 4259   1.569   3.137   1.906 -0.4834 -0.7515 -0.4944
 1054SOL     OW 4260   1.328   3.267   2.002 -0.3168  0.1910 -0.1833
 1054SOL    HW2 4261   1.406   3.214   1.982 -0.8818 -0.3055 -1.1163
 1054SOL    HW3 4262   1.259   3.229   1.947 -0.6132  2.2260 -1.2562
 1054SOL    MW4 4263   1.330   3.255   1.992 -0.4303  0.3939 -0.4479
 1055SOL     OW 4264   1.365   3.526   1.912  0.0422  0.0628 -0.3933
 1055SOL    HW2 4265   1.359   3.431   1.922 -0.5653  0.1239 -0.1878
 1055SOL    HW3 4266   1.281   3.559   1.941  0.5831  0.7414  0.4307
 1055SOL    MW4 4267   1.353   3.518   1.917  0.0334  0.1605 -0.2574
 1056SOL     OW 4268   1.611   3.642   1.976  0.0789  0.1294 -0.0133
 1056SOL    HW2 4269   1.608   3.668   2.068  0.1376 -1.0613  0.3364
 1056SOL    HW3 4270   1.529   3.596   1.961  0.5230 -0.6040 -0.2616
 1056SOL    MW4 4271   1.600   3.639   1.986  0.1453 -0.1247  0.0000
 1057SOL     OW 4272   1.593   3.890   1.871  0.2290  0.3512  0.4219
 1057SOL    HW2 4273   1.674   3.928   1.904 -0.2729  0.3614  1.6522
 1057SOL    HW3 4274   1.598   3.797   1.895 -0.4488  0.4967  1.1324
 1057SOL    MW4 4275   1.604   3.883   1.878  0.0733  0.3717  0.6779
 1058SOL     OW 4276   1.359   4.002   1.972 -0.2443  0.2822  0.1987
 1058SOL    HW2 4277   1.419   3.945   1.923 -0.4406  0.2109  0.0421
 1058SOL    HW3 4278   1.278   3.952   1.977 -0.3799  0.5015  0.1640
 1058SOL    MW4 4279   1.357   3.988   1.966 -0.2880  0.3016  0.1736
 1059SOL     OW 4280   1.351   4.270   1.911 -0.0889  0.2596  0.2160
 1059SOL    HW2 4281   1.351   4.176   1.927  2.5092 -0.0868 -1.4145
 1059SOL    HW3 4282   1.346   4.277   1.815 -3.0471  1.8787  0.4429
 1059SOL    MW4 4283   1.350   4.258   1.900 -0.1364  0.4277  0.0309
 1060SOL     OW 4284   1.590   4.384   2.005  0.3847  0.4996  0.0559
 1060SOL    HW2 4285   1.578   4.386   2.100 -0.6878  0.8214 -0.0739
 1060SOL    HW3 4286   1.510   4.343   1.972  0.6650  0.5721 -0.7208
 1060SOL    MW4 4287   1.578   4.379   2.014  0.2803  0.5517 -0.0637
 1061SOL     OW 4288   2.032   0.020   1.874  0.1762  0.5102  0.1127
 1061SOL    HW2 4289   2.100   0.066   1.924  0.0146  0.6242  0.2264
 1061SOL    HW3 4290   2.029  -0.068   1.912  0.7467  0.2872 -0.3492
 1061SOL    MW4 4291   2.041   0.015   1.886  0.2298  0.4958  0.0666
 1062SOL     OW 4292   1.806   0.137   1.981  0.3339  0.0246  0.0425
 1062SOL    HW2 4293   1.810   0.144   2.077 -0.2032 -0.4042  0.0961
 1062SOL    HW3 4294   1.882   0.084   1.957 -0.5185 -1.3759  0.3850
 1062SOL    MW4 4295   1.816   0.131   1.991  0.1506 -0.2168  0.0948
 1063SOL     OW 4296   1.853   0.406   1.895 -0.1388  0.2934 -0.3726
 1063SOL    HW2 4297   1.843   0.316   1.925  2.2010 -0.1764 -0.8677
 1063SOL    HW3 4298   1.850   0.400   1.800  0.2222  0.7114 -0.4096
 1063SOL    MW4 4299   1.851   0.393   1.886  0.2176  0.2865 -0.4429
 1064SOL     OW 4300   2.059   0.566   2.031 -0.3351 -0.6571  0.2228
 1064SOL    HW2 4301   2.055   0.649   1.983  0.3657 -0.7660 -0.0198
 1064SOL    HW3 4302   1.984   0.516   1.998 -1.1539  0.1375  0.8500
 1064SOL    MW4 4303   2.049   0.570   2.020 -0.3507 -0.5666  0.2735
 1065SOL     OW 4304   2.050   0.793   1.891 -0.0285 -0.0340  0.2411
 1065SOL    HW2 4305   2.137   0.821   1.920  0.3138 -0.3584 -0.4688
 1065SOL    HW3 4306   2.061   0.772   1.798 -0.4897 -1.6701  0.5424
 1065SOL    MW4 4307   2.063   0.794   1.882 -0.0439 -0.2926  0.1873
 1066SOL     OW 4308   1.812   0.910   1.969  0.1049  0.1947 -0.3915
 1066SOL    HW2 4309   1.814   1.002   1.942  0.3149  0.0654 -0.8149
 1066SOL    HW3 4310   1.901   0.878   1.952 -0.1971 -0.3146 -1.0161
 1066SOL    MW4 4311   1.824   0.918   1.963  0.0927  0.1104 -0.5296
 1067SOL     OW 4312   1.787   1.184   1.904  0.3576 -0.4642 -0.4332
 1067SOL    HW2 4313   1.711   1.234   1.933  1.9054  2.4142 -1.2269
 1067SOL    HW3 4314   1.777   1.180   1.808  1.5420  0.5089 -0.6043
 1067SOL    MW4 4315   1.775   1.190   1.895  0.7181  0.0440 -0.5604
 1068SOL     OW 4316   2.028   1.275   1.995 -0.0170  0.0238  0.1861
 1068SOL    HW2 4317   2.105   1.232   1.959 -0.8000 -1.3152  0.0729
 1068SOL    HW3 4318   1.954   1.234   1.949 -0.7562  2.0365 -0.5021
 1068SOL    MW4 4319   2.028   1.264   1.984 -0.2179  0.1127  0.0803
 1069SOL     OW 4320   1.990   1.521   1.859 -0.0458  0.5707  0.4231
 1069SOL    HW2 4321   2.002   1.434   1.898  0.6546  0.3633 -0.2659
 1069SOL    HW3 4322   1.986   1.505   1.765  1.4164  1.4283  0.2030
 1069SOL    MW4 4323   1.991   1.507   1.852  0.2395  0.6566  0.3030
 1070SOL     OW 4324   1.770   1.644   1.985  0.2897  0.4538 -0.3228
 1070SOL    HW2 4325   1.782   1.736   1.959 -0.1671  0.6033 -0.0109
 1070SOL    HW3 4326   1.847   1.599   1.951  0.9725  1.1207  0.3433
 1070SOL    MW4 4327   1.781   1.650   1.977  0.3197  0.5615 -0.1936
 1071SOL     OW 4328   1.788   1.923   1.878  0.1016 -0.5839  0.2850
 1071SOL    HW2 4329   1.724   1.984   1.916  0.3432 -0.7808  1.0218
 1071SOL    HW3 4330   1.786   1.941   1.784 -1.1122 -0.6649  0.2958
 1071SOL    MW4 4331   1.779   1.934   1.870 -0.0267 -0.6206  0.3837
 1072SOL     OW 4332   2.006   2.069   1.930  0.0014  0.1409 -0.2137
 1072SOL    HW2 4333   2.074   2.013   1.895  0.5973  1.1075 -0.6160
 1072SOL    HW3 4334   1.924   2.024   1.910  0.4824 -0.6319 -0.4267
 1072SOL    MW4 4335   2.004   2.056   1.923  0.1438  0.1669 -0.2948
 1073SOL     OW 4336   2.068   2.320   1.820  0.0105 -0.2128 -0.1807
 1073SOL    HW2 4337   2.134   2.359   1.877 -0.3671 -0.1585  0.2214
 1073SOL    HW3 4338   2.052   2.234   1.857  0.0864 -0.3480 -0.4622
 1073SOL    MW4 4339   2.074   2.314   1.833 -0.0293 -0.2234 -0.1649
 1074SOL     OW 4340   1.823   2.431   1.927 -0.2495  0.0817 -0.1224
 1074SOL    HW2 4341   1.831   2.422   2.022 -1.2390  1.2646  0.0776
 1074SOL    HW3 4342   1.905   2.393   1.893  0.0934 -0.3877  1.1828
 1074SOL    MW4 4343   1.835   2.424   1.935 -0.3349  0.1760  0.0762
 1075SOL     OW 4344   1.783   2.712   1.893 -0.2026 -0.1787 -0.1366
 1075SOL    HW2 4345   1.805   2.619   1.903 -0.2599 -0.1981 -0.1893
 1075SOL    HW3 4346   1.770   2.723   1.799  0.2461 -0.0143 -0.1766
 1075SOL    MW4 4347   1.784   2.701   1.882 -0.1509 -0.1595 -0.1489
 1076SOL     OW 4348   2.049   2.813   1.969  0.1904  0.0936 -0.1634
 1076SOL    HW2 4349   2.053   2.834   2.062  0.3433  1.1972 -0.4157
 1076SOL    HW3 4350   1.959   2.785   1.954  0.2126 -0.2553  0.3444
 1076SOL    MW4 4351   2.038   2.812   1.979  0.2136  0.1931 -0.1297
 1077SOL     OW 4352   2.038   3.082   1.884 -0.0104  0.2011 -0.2470
 1077SOL    HW2 4353   1.971   3.111   1.946 -0.9675 -1.0858 -0.6745
 1077SOL    HW3 4354   2.051   2.989   1.904  1.5101  0.3768 -0.3049
 1077SOL    MW4 4355   2.031   3.074   1.895  0.0639  0.0544 -0.3110
 1078SOL     OW 4356   1.818   3.218   2.009  0.0389 -0.0792  0.3120
 1078SOL    HW2 4357   1.796   3.215   2.102  0.2027  0.6204  0.3743
 1078SOL    HW3 4358   1.736   3.197   1.964 -0.1986  0.2396  0.5969
 1078SOL    MW4 4359   1.804   3.215   2.015  0.0292  0.0551  0.3579
 1079SOL     OW 4360   1.827   3.505   1.897  0.2977 -0.4431 -0.1184
 1079SOL    HW2 4361   1.829   3.416   1.933  1.2964  0.4303  2.0897
 1079SOL    HW3 4362   1.741   3.539   1.922 -0.0779 -0.7744 -0.9487
 1079SOL    MW4 4363   1.816   3.498   1.905  0.3798 -0.3715  0.0634
 1080SOL     OW 4364   2.070   3.616   1.978  0.3856 -0.2113 -0.4006
 1080SOL    HW2 4365   2.083   3.700   1.935 -0.7624  0.7582  1.0941
 1080SOL    HW3 4366   1.984   3.587   1.947  0.8413 -0.9205 -1.0269
 1080SOL    MW4 4367   2.060   3.623   1.968  0.2942 -0.1769 -0.2860
 1081SOL     OW 4368   2.021   3.866   1.859  0.4587 -0.0164 -0.6226
 1081SOL    HW2 4369   2.098   3.919   1.880  0.6806 -0.5125 -0.2000
 1081SOL    HW3 4370   2.026   3.854   1.764  0.3038  0.8817 -0.7526
 1081SOL    MW4 4371   2.031   3.872   1.849  0.4675  0.0365 -0.5840
 1082SOL     OW 4372   1.802   4.019   1.974  0.0100 -0.6085  0.5273
 1082SOL    HW2 4373   1.834   4.108   1.958 -0.9241 -0.3848 -0.0991
 1082SOL    HW3 4374   1.869   3.963   1.935 -0.4316 -0.1386 -0.9529
 1082SOL    MW4 4375   1.815   4.024   1.967 -0.1717 -0.5169  0.2494
 1083SOL     OW 4376   1.824   4.285   1.918  0.2617  0.3208 -0.0955
 1083SOL    HW2 4377   1.736   4.306   1.948 -0.0841 -2.4263  0.9268
 1083SOL    HW3 4378   1.817   4.286   1.822 -0.9338 -0.0422 -0.0195
 1083SOL    MW4 4379   1.811   4.288   1.909  0.0583 -0.0892  0.0496
 1084SOL     OW 4380   2.028   4.445   1.998  0.1512  0.1291 -0.3995
 1084SOL    HW2 4381   2.091   4.387   1.956 -0.1150 -0.3028 -0.2025
 1084SOL    HW3 4382   1.946   4.395   2.000  0.6202 -0.6095  2.3944
 1084SOL    MW4 4383   2.025   4.431   1.993  0.1783 -0.0248 -0.0049
 1085SOL     OW 4384   2.456   4.630   1.864 -0.0280 -0.0174  0.6531
 1085SOL    HW2 4385   2.541   4.663   1.891  0.8075 -1.4290 -0.1737
 1085SOL    HW3 4386   2.458   4.537   1.887 -1.5313  0.0402  1.0703
 1085SOL    MW4 4387   2.467   4.622   1.871 -0.1161 -0.1965  0.5990
 1086SOL     OW 4388   2.245   0.137   1.984  0.0083 -0.2385  0.1316
 1086SOL    HW2 4389   2.240   0.135   2.079 -1.3358 -2.1723  0.0419
 1086SOL    HW3 4390   2.323   0.085   1.963 -0.2040 -0.5467  0.1212
 1086SOL    MW4 4391   2.255   0.130   1.993 -0.1969 -0.5343  0.1185
 1087SOL     OW 4392   2.275   0.415   1.937 -0.2242  0.1556 -0.5371
 1087SOL    HW2 4393   2.247   0.324   1.947 -1.5455  0.6955  0.8616
 1087SOL    HW3 4394   2.197   0.467   1.957  0.0091  1.5858 -3.0534
 1087SOL    MW4 4395   2.261   0.410   1.941 -0.3676  0.4155 -0.6845
 1088SOL     OW 4396   2.524   0.516   1.991  0.0813  0.3048 -0.2509
 1088SOL    HW2 4397   2.592   0.460   1.954  0.5258  0.5581  0.1736
 1088SOL    HW3 4398   2.442   0.473   1.967  0.3950 -0.1046 -0.6030
 1088SOL    MW4 4399   2.522   0.503   1.983  0.1814  0.2842 -0.2413
 1089SOL     OW 4400   2.518   0.765   1.884  0.4414  0.2855 -0.1222
 1089SOL    HW2 4401   2.515   0.672   1.909  0.6234  0.4934  0.7091
 1089SOL    HW3 4402   2.487   0.767   1.794  0.3241 -0.5731 -0.1054
 1089SOL    MW4 4403   2.513   0.753   1.876  0.4499  0.1997 -0.0101
 1090SOL     OW 4404   2.291   0.891   1.966 -0.1680 -0.0186  0.4846
 1090SOL    HW2 4405   2.296   0.897   2.062  0.4501  2.0881  0.3383
 1090SOL    HW3 4406   2.375   0.855   1.940  0.4560  1.3629  0.5888
 1090SOL    MW4 4407   2.302   0.887   1.976 -0.0041  0.4416  0.4790
 1091SOL     OW 4408   2.256   1.155   1.862 -0.2183 -0.2799 -0.4189
 1091SOL    HW2 4409   2.329   1.204   1.901 -0.6028  0.5744 -0.7574
 1091SOL    HW3 4410   2.270   1.065   1.891  1.3136 -0.2448 -0.9803
 1091SOL    MW4 4411   2.268   1.150   1.871 -0.0668 -0.1624 -0.5376
 1092SOL     OW 4412   2.475   1.317   1.954 -0.0795 -0.2819 -0.5295
 1092SOL    HW2 4413   2.486   1.320   2.049  1.5265 -0.2296 -0.7129
 1092SOL    HW3 4414   2.482   1.408   1.926 -0.5015 -0.3041 -0.7185
 1092SOL    MW4 4415   2.477   1.329   1.963  0.0765 -0.2779 -0.5788
 1093SOL     OW 4416   2.508   1.574   1.869  0.1741  0.2782 -0.1564
 1093SOL    HW2 4417   2.418   1.592   1.896  0.1083 -1.7663  1.0988
 1093SOL    HW3 4418   2.502   1.551   1.776 -0.6283  0.0574 -0.0499
 1093SOL    MW4 4419   2.495   1.573   1.860  0.0596 -0.0207  0.0234
 1094SOL     OW 4420   2.254   1.633   1.944  0.1414  0.3250  0.3480
 1094SOL    HW2 4421   2.233   1.622   2.037  0.0655  0.4739  0.3495
 1094SOL    HW3 4422   2.173   1.610   1.898 -0.1722  1.3294  0.3746
 1094SOL    MW4 4423   2.241   1.629   1.950  0.0901  0.4772  0.3517
 1095SOL     OW 4424   2.246   1.911   1.900 -0.0798  0.3524  0.0287
 1095SOL    HW2 4425   2.310   1.962   1.950 -1.7936  1.0902  1.5356
 1095SOL    HW3 4426   2.269   1.820   1.917  2.1262  0.5785 -1.5181
 1095SOL    MW4 4427   2.257   1.906   1.909 -0.0150  0.4797  0.0236
 1096SOL     OW 4428   2.477   2.039   1.978  0.3860 -0.0254 -0.4048
 1096SOL    HW2 4429   2.549   1.994   1.933 -0.7333 -1.1888 -1.0490
 1096SOL    HW3 4430   2.474   2.125   1.937  0.7785 -0.3247 -1.0693
 1096SOL    MW4 4431   2.486   2.044   1.967  0.2902 -0.2182 -0.5774
 1097SOL     OW 4432   2.468   2.302   1.856  0.2160 -0.2957 -0.2146
 1097SOL    HW2 4433   2.557   2.334   1.870 -0.0388  0.1523  0.3621
 1097SOL    HW3 4434   2.413   2.359   1.908 -0.2431 -1.6914  0.8530
 1097SOL    MW4 4435   2.473   2.314   1.865  0.1218 -0.4210  0.0025
 1098SOL     OW 4436   2.269   2.452   1.964 -0.3951 -0.1105 -0.1527
 1098SOL    HW2 4437   2.252   2.451   2.058 -1.5370 -0.4105 -0.3598
 1098SOL    HW3 4438   2.270   2.545   1.940 -0.9849 -0.0600  0.0039
 1098SOL    MW4 4439   2.267   2.464   1.973 -0.6235 -0.1435 -0.1594
 1099SOL     OW 4440   2.269   2.711   1.823  0.3102  0.0228  0.2796
 1099SOL    HW2 4441   2.197   2.754   1.871  1.1332  0.6813  0.9497
 1099SOL    HW3 4442   2.265   2.749   1.735 -0.1151  0.1145  0.3377
 1099SOL    MW4 4443   2.259   2.722   1.818  0.3624  0.1216  0.3757
 1100SOL     OW 4444   2.462   2.801   1.994 -0.0040  0.1120 -0.7240
 1100SOL    HW2 4445   2.454   2.895   1.974 -1.7726  0.4080  1.1347
 1100SOL    HW3 4446   2.394   2.759   1.942 -0.4974  0.1240 -0.1027
 1100SOL    MW4 4447   2.452   2.808   1.985 -0.3023  0.1526 -0.3967
 1101SOL     OW 4448   2.467   3.059   1.914 -0.0029  0.0627 -0.0555
 1101SOL    HW2 4449   2.394   3.112   1.949 -0.4226  0.4348 -1.4570
 1101SOL    HW3 4450   2.461   3.071   1.819  0.9525 -1.1514 -0.2708
 1101SOL    MW4 4451   2.456   3.068   1.906  0.0679 -0.0482 -0.2688
 1102SOL     OW 4452   2.260   3.229   1.995  0.0887 -0.2221 -0.6879
 1102SOL    HW2 4453   2.239   3.239   2.087  1.0445  1.4806 -0.6364
 1102SOL    HW3 4454   2.190   3.175   1.960  0.1643 -1.5896  1.1981
 1102SOL    MW4 4455   2.248   3.223   2.002  0.2248 -0.1781 -0.4320
 1103SOL     OW 4456   2.284   3.483   1.889 -0.3519  0.2763  0.3306
 1103SOL    HW2 4457   2.284   3.396   1.930 -0.4801 -0.0062 -0.2727
 1103SOL    HW3 4458   2.209   3.527   1.930 -0.2788  0.1096  0.6495
 1103SOL    MW4 4459   2.274   3.477   1.900 -0.3593  0.2172  0.2930
 1104SOL     OW 4460   2.507   3.610   1.983 -0.1689  0.0486 -0.1344
 1104SOL    HW2 4461   2.504   3.625   2.077 -1.1216  0.3951 -0.2166
 1104SOL    HW3 4462   2.426   3.563   1.963 -0.9259  1.7294 -1.0769
 1104SOL    MW4 4463   2.496   3.606   1.993 -0.3946  0.3164 -0.2695
 1105SOL     OW 4464   2.471   3.876   1.853  0.3776  0.3208  0.3616
 1105SOL    HW2 4465   2.400   3.922   1.897 -0.7751 -0.5070 -0.5847
 1105SOL    HW3 4466   2.480   3.794   1.902  0.0290  0.0152 -0.0706
 1105SOL    MW4 4467   2.463   3.871   1.865  0.1795  0.1712  0.1798
 1106SOL     OW 4468   2.235   4.020   1.969  0.3322 -0.2631  0.3360
 1106SOL    HW2 4469   2.219   4.003   2.062  1.0130 -0.3150  0.4415
 1106SOL    HW3 4470   2.236   4.115   1.963 -3.7341 -0.1737 -0.2965
 1106SOL    MW4 4471   2.233   4.030   1.981 -0.1147 -0.2580  0.2664
 1107SOL     OW 4472   2.226   4.280   1.907  0.3680  0.4635 -0.0295
 1107SOL    HW2 4473   2.310   4.320   1.930  0.3373  0.9470 -0.7489
 1107SOL    HW3 4474   2.221   4.288   1.812  0.5956 -1.7235 -0.2451
 1107SOL    MW4 4475   2.236   4.287   1.898  0.3941  0.2389 -0.1529
 1108SOL     OW 4476   2.482   4.363   1.973  0.0476  0.1869  0.0846
 1108SOL    HW2 4477   2.491   4.356   2.069 -1.1291  0.4337  0.2171
 1108SOL    HW3 4478   2.564   4.327   1.939 -0.0623 -1.1249  1.1569
 1108SOL    MW4 4479   2.494   4.357   1.981 -0.1225  0.0463  0.2435
 1109SOL     OW 4480   2.968   4.622   1.878  0.0414 -0.0996 -0.1188
 1109SOL    HW2 4481   3.045   4.669   1.909  2.8220 -3.5183 -1.5894
 1109SOL    HW3 4482   2.961   4.547   1.937 -0.7128 -1.1296 -1.5135
 1109SOL    MW4 4483   2.977   4.618   1.890  0.3088 -0.6866 -0.4967
 1110SOL     OW 4484   2.713   0.079   1.950 -0.1157 -0.1961 -0.5554
 1110SOL    HW2 4485   2.705   0.076   2.045 -1.9963 -3.1831 -0.7439
 1110SOL    HW3 4486   2.800   0.043   1.932 -0.6879 -1.8699 -0.0433
 1110SOL    MW4 4487   2.723   0.074   1.960 -0.4394 -0.8110 -0.5127
 1111SOL     OW 4488   2.717   0.361   1.859  0.2289 -0.1307 -0.1982
 1111SOL    HW2 4489   2.804   0.392   1.884  0.6738  0.3496 -2.2817
 1111SOL    HW3 4490   2.715   0.270   1.888  1.2983 -0.0501  0.1678
 1111SOL    MW4 4491   2.728   0.353   1.866  0.4287 -0.0567 -0.4247
 1112SOL     OW 4492   2.968   0.486   1.988  0.0348 -0.0840 -0.2978
 1112SOL    HW2 4493   3.054   0.456   1.959  0.8430  1.4314  0.4849
 1112SOL    HW3 4494   2.960   0.574   1.950  0.4071  1.2683  2.6250
 1112SOL    MW4 4495   2.978   0.494   1.979  0.1905  0.2944  0.1911
 1113SOL     OW 4496   2.954   0.758   1.916  0.4486 -0.4134 -0.6292
 1113SOL    HW2 4497   3.035   0.792   1.954  0.4800 -0.3927 -0.7146
 1113SOL    HW3 4498   2.885   0.805   1.961  0.4620 -0.9130 -0.0759
 1113SOL    MW4 4499   2.956   0.768   1.927  0.4549 -0.4765 -0.5676
 1114SOL     OW 4500   2.742   0.916   1.982  0.1205 -0.1290  0.3114
 1114SOL    HW2 4501   2.733   1.002   1.940 -0.0979  0.3714  1.3715
 1114SOL    HW3 4502   2.680   0.860   1.935 -0.0536  0.3957 -0.0964
 1114SOL    MW4 4503   2.733   0.920   1.970  0.0687  0.0062  0.3976
 1115SOL     OW 4504   2.690   1.159   1.868 -0.3002 -0.1346 -0.1151
 1115SOL    HW2 4505   2.625   1.228   1.877 -0.2264 -0.1211  0.3348
 1115SOL    HW3 4506   2.709   1.156   1.774 -1.7208 -0.8603 -0.3917
 1115SOL    MW4 4507   2.684   1.168   1.857 -0.4778 -0.2285 -0.0921
 1116SOL     OW 4508   2.946   1.253   1.968 -0.4629 -0.0897  0.1827
 1116SOL    HW2 4509   2.952   1.344   1.938  0.9954 -0.4722 -0.7375
 1116SOL    HW3 4510   2.857   1.226   1.943 -0.3596  0.5955 -0.9695
 1116SOL    MW4 4511   2.935   1.262   1.960 -0.2568 -0.0497 -0.0908
 1117SOL     OW 4512   2.945   1.516   1.882 -0.3992 -0.1912  0.8303
 1117SOL    HW2 4513   3.016   1.578   1.898 -1.1817  1.0826 -0.5479
 1117SOL    HW3 4514   2.938   1.511   1.787 -1.0905 -1.5400  0.9439
 1117SOL    MW4 4515   2.954   1.523   1.872 -0.5939 -0.2011  0.6633
 1118SOL     OW 4516   2.734   1.674   1.982  0.1620  0.2548 -0.2663
 1118SOL    HW2 4517   2.805   1.621   1.947 -0.6022 -0.4190 -0.8067
 1118SOL    HW3 4518   2.655   1.642   1.938 -0.4369  1.2094  0.0844
 1118SOL    MW4 4519   2.733   1.663   1.972 -0.0179  0.2918 -0.2913
 1119SOL     OW 4520   2.714   1.934   1.861 -0.0542  0.1936  0.3619
 1119SOL    HW2 4521   2.787   1.979   1.904  0.1485  0.4403 -0.2320
 1119SOL    HW3 4522   2.706   1.851   1.907  1.2048 -0.2282 -0.1689
 1119SOL    MW4 4523   2.722   1.929   1.873  0.1388  0.1705  0.2134
 1120SOL     OW 4524   2.958   2.075   1.943 -0.1430  0.6699  0.2549
 1120SOL    HW2 4525   2.955   2.076   2.039 -1.0719 -3.1478  0.3461
 1120SOL    HW3 4526   3.037   2.025   1.922 -0.8127  0.0815 -0.9225
 1120SOL    MW4 4527   2.968   2.068   1.953 -0.3538  0.0887  0.1117
 1121SOL     OW 4528   2.919   2.322   1.807  0.0551  0.1737 -0.0617
 1121SOL    HW2 4529   2.983   2.375   1.855  0.0263 -1.5056  1.9134
 1121SOL    HW3 4530   2.929   2.234   1.842 -1.0002 -0.8237 -2.1642
 1121SOL    MW4 4531   2.928   2.318   1.818 -0.0880 -0.1793 -0.0784
 1122SOL     OW 4532   2.700   2.420   1.949  0.3511  0.0034  0.1093
 1122SOL    HW2 4533   2.692   2.511   1.921 -0.8807 -0.2936 -0.5263
 1122SOL    HW3 4534   2.773   2.385   1.897  0.6471  0.5459  0.1582
 1122SOL    MW4 4535   2.709   2.427   1.938  0.2275  0.0358  0.0321
 1123SOL     OW 4536   2.687   2.694   1.869 -0.1412  0.5111  0.0555
 1123SOL    HW2 4537   2.613   2.735   1.912 -1.7349 -2.3224  0.1242
 1123SOL    HW3 4538   2.680   2.720   1.777 -1.4096  0.0073  0.0074
 1123SOL    MW4 4539   2.677   2.703   1.862 -0.5188  0.0708  0.0583
 1124SOL     OW 4540   2.899   2.833   1.960 -0.2578 -0.7553 -0.1114
 1124SOL    HW2 4541   2.899   2.917   1.913 -0.4489 -0.0326  1.1351
 1124SOL    HW3 4542   2.826   2.784   1.922 -0.5919 -0.0663 -0.3709
 1124SOL    MW4 4543   2.889   2.838   1.949 -0.3271 -0.5689  0.0188
 1125SOL     OW 4544   2.925   3.099   1.873 -0.0390 -0.1178 -0.1198
 1125SOL    HW2 4545   3.004   3.140   1.908  0.1088  0.6365 -1.3093
 1125SOL    HW3 4546   2.853   3.150   1.909  0.0487 -0.3232  0.3463
 1125SOL    MW4 4547   2.926   3.111   1.882 -0.0081 -0.0455 -0.2152
 1126SOL     OW 4548   2.685   3.210   1.981  0.9244 -0.6124  0.2008
 1126SOL    HW2 4549   2.679   3.288   1.925  1.7249 -1.4596 -1.1000
 1126SOL    HW3 4550   2.603   3.163   1.964  0.3103  0.0808  1.2075
 1126SOL    MW4 4551   2.673   3.214   1.971  0.9489 -0.6323  0.1621
 1127SOL     OW 4552   2.717   3.450   1.850 -0.0466 -0.2771  0.1275
 1127SOL    HW2 4553   2.802   3.480   1.881 -0.0922  0.6443 -0.6095
 1127SOL    HW3 4554   2.654   3.513   1.886 -0.4716 -1.2029  1.0345
 1127SOL    MW4 4555   2.720   3.462   1.859 -0.1087 -0.2773  0.1501
 1128SOL     OW 4556   2.921   3.627   1.977  0.1139  0.0651 -0.5961
 1128SOL    HW2 4557   2.905   3.609   2.070  2.5610 -0.4143 -0.2441
 1128SOL    HW3 4558   2.992   3.567   1.953  1.4149  2.1356 -2.0573
 1128SOL    MW4 4559   2.928   3.617   1.986  0.6084  0.2749 -0.7424
 1129SOL     OW 4560   2.910   3.874   1.879  0.4801 -0.1935  0.1144
 1129SOL    HW2 4561   2.920   3.789   1.922 -0.4356 -0.5226 -0.3039
 1129SOL    HW3 4562   2.927   3.856   1.786 -3.2289 -0.6934 -0.5602
 1129SOL    MW4 4563   2.913   3.860   1.872 -0.1302 -0.3030 -0.0298
 1130SOL     OW 4564   2.669   3.990   1.995 -0.4220 -0.1247  0.2034
 1130SOL    HW2 4565   2.741   3.931   1.973 -0.4958  0.8004 -2.8780
 1130SOL    HW3 4566   2.591   3.949   1.956 -0.9986  0.4428  0.7450
 1130SOL    MW4 4567   2.668   3.977   1.987 -0.5078  0.0722 -0.1318
 1131SOL     OW 4568   2.737   4.261   1.897  0.0160 -0.2785 -0.3458
 1131SOL    HW2 4569   2.714   4.172   1.925 -2.4138  0.3149 -0.3200
 1131SOL    HW3 4570   2.717   4.262   1.804 -0.0239  0.2642 -0.3286
 1131SOL    MW4 4571   2.731   4.249   1.889 -0.3099 -0.1287 -0.3401
 1132SOL     OW 4572   2.936   4.398   2.038  0.9521  0.2144 -0.3220
 1132SOL    HW2 4573   2.918   4.403   2.132  0.4658  1.2526 -0.4592
 1132SOL    HW3 4574   2.856   4.360   2.001  0.4368  1.4203 -0.5012
 1132SOL    MW4 4575   2.923   4.394   2.046  0.8199  0.5102 -0.3641
 1133SOL     OW 4576   3.412   4.661   1.921  0.7321 -0.2855 -0.0818
 1133SOL    HW2 4577   3.394   4.579   1.967  0.4235  0.1295  0.5372
 1133SOL    HW3 4578   3.381   4.645   1.832 -0.3086 -0.4862  0.3097
 1133SOL    MW4 4579   3.405   4.648   1.915  0.5543 -0.2575  0.0514
 1134SOL     OW 4580   3.169   0.110   1.974  0.2272 -0.4505  0.0611
 1134SOL    HW2 4581   3.158   0.094   2.068 -0.1534 -1.6801 -0.1790
 1134SOL    HW3 4582   3.252   0.068   1.952 -0.3769 -1.3968 -0.4253
 1134SOL    MW4 4583   3.178   0.102   1.984  0.0973 -0.7376 -0.0347
 1135SOL     OW 4584   3.205   0.382   1.901  0.3138  0.6231  0.2576
 1135SOL    HW2 4585   3.198   0.290   1.926  1.2398  0.3320 -0.5359
 1135SOL    HW3 4586   3.184   0.383   1.807  0.5155  1.1942  0.2177
 1135SOL    MW4 4587   3.201   0.370   1.892  0.4628  0.6601  0.1477
 1136SOL     OW 4588   3.459   0.495   1.998 -0.4618  0.3107  0.2527
 1136SOL    HW2 4589   3.534   0.448   1.962  0.1402  2.5244 -1.5027
 1136SOL    HW3 4590   3.383   0.455   1.954 -0.0103  0.5347 -0.7496
 1136SOL    MW4 4591   3.459   0.484   1.987 -0.3228  0.6323 -0.1111
 1137SOL     OW 4592   3.444   0.745   1.885 -0.2297  0.2458 -0.1201
 1137SOL    HW2 4593   3.364   0.779   1.925  0.1624 -0.3290  1.1825
 1137SOL    HW3 4594   3.451   0.655   1.918  0.7453  0.1669 -0.5308
 1137SOL    MW4 4595   3.434   0.737   1.894 -0.0491  0.1596 -0.0025
 1138SOL     OW 4596   3.221   0.874   1.994  0.5588  0.1121  0.0669
 1138SOL    HW2 4597   3.208   0.875   2.089 -1.0220 -1.5187 -0.1112
 1138SOL    HW3 4598   3.220   0.967   1.969 -0.7045  0.4738  1.4173
 1138SOL    MW4 4599   3.219   0.887   2.003  0.1833 -0.0554  0.2215
 1139SOL     OW 4600   3.179   1.140   1.870 -0.1264 -0.0626  0.7628
 1139SOL    HW2 4601   3.248   1.185   1.919 -0.0931 -0.1395  0.7860
 1139SOL    HW3 4602   3.098   1.162   1.917 -0.1375  0.1530  0.6473
 1139SOL    MW4 4603   3.178   1.149   1.883 -0.1233 -0.0442  0.7507
 1140SOL     OW 4604   3.360   1.285   2.015  0.4486 -0.3348  0.0270
 1140SOL    HW2 4605   3.350   1.287   2.110 -0.4091  0.1823 -0.0736
 1140SOL    HW3 4606   3.367   1.376   1.989  0.7948 -0.4791 -0.4009
 1140SOL    MW4 4607   3.360   1.297   2.024  0.3810 -0.2855 -0.0429
 1141SOL     OW 4608   3.384   1.541   1.908  0.1714  0.2113  0.3178
 1141SOL    HW2 4609   3.462   1.587   1.939  0.6239  0.8645 -1.7093
 1141SOL    HW3 4610   3.311   1.583   1.952  0.9077  0.0633  1.6946
 1141SOL    MW4 4611   3.385   1.553   1.918  0.3281  0.2780  0.2320
 1142SOL     OW 4612   3.139   1.665   1.988 -0.3293  0.3150  0.1342
 1142SOL    HW2 4613   3.150   1.679   2.082 -2.3791  0.5713  0.3521
 1142SOL    HW3 4614   3.153   1.751   1.949  1.3368  0.0495  0.1066
 1142SOL    MW4 4615   3.143   1.678   1.996 -0.3796  0.3138  0.1594
 1143SOL     OW 4616   3.181   1.925   1.871  0.2717 -0.2315 -0.0605
 1143SOL    HW2 4617   3.258   1.965   1.910  1.1696 -0.7935 -1.2404
 1143SOL    HW3 4618   3.198   1.926   1.777 -0.9903 -0.6926 -0.3055
 1143SOL    MW4 4619   3.193   1.930   1.864  0.2234 -0.3666 -0.2486
 1144SOL     OW 4620   3.380   2.066   1.979  0.1064 -0.0419  0.2076
 1144SOL    HW2 4621   3.455   2.021   1.940  1.0183  0.6020  1.1630
 1144SOL    HW3 4622   3.390   2.157   1.951 -0.0304  0.1429  0.7505
 1144SOL    MW4 4623   3.392   2.072   1.970  0.2086  0.0675  0.4054
 1145SOL     OW 4624   3.372   2.334   1.887 -0.1792  0.0377  0.3959
 1145SOL    HW2 4625   3.294   2.386   1.906 -1.1854 -1.5028  0.5731
 1145SOL    HW3 4626   3.376   2.331   1.791 -0.6458 -0.3222  0.3858
 1145SOL    MW4 4627   3.362   2.341   1.877 -0.3734 -0.2131  0.4179
 1146SOL     OW 4628   3.136   2.470   1.944  0.5264 -0.1295 -0.0662
 1146SOL    HW2 4629   3.159   2.474   2.037  1.0578 -0.0354 -0.1990
 1146SOL    HW3 4630   3.139   2.562   1.915  1.4082 -0.2727 -0.4278
 1146SOL    MW4 4631   3.139   2.483   1.952  0.7129 -0.1359 -0.1315
 1147SOL     OW 4632   3.146   2.741   1.859 -0.2239 -0.0514  0.3305
 1147SOL    HW2 4633   3.057   2.758   1.891 -0.9938 -1.8992 -0.7638
 1147SOL    HW3 4634   3.139   2.742   1.764  1.1956  1.0143  0.2119
 1147SOL    MW4 4635   3.133   2.744   1.851 -0.1380 -0.1547  0.1702
 1148SOL     OW 4636   3.423   2.819   1.954 -0.2086 -0.1563 -0.4426
 1148SOL    HW2 4637   3.428   2.820   2.049  0.7628  2.4534 -0.4591
 1148SOL    HW3 4638   3.329   2.810   1.934 -0.4577 -0.2478  0.7679
 1148SOL    MW4 4639   3.411   2.818   1.964 -0.1135  0.1760 -0.2850
 1149SOL     OW 4640   3.375   3.097   1.897  0.0913 -0.0722  0.5146
 1149SOL    HW2 4641   3.456   3.149   1.898  0.4328 -0.6133  1.8032
 1149SOL    HW3 4642   3.405   3.006   1.895 -0.5088 -0.2323 -1.4853
 1149SOL    MW4 4643   3.390   3.092   1.897  0.0575 -0.1645  0.4207
 1150SOL     OW 4644   3.142   3.234   2.004 -0.1112  0.0387  0.2455
 1150SOL    HW2 4645   3.123   3.304   1.942 -1.1816 -0.5784 -0.1436
 1150SOL    HW3 4646   3.232   3.209   1.985 -0.0888  0.5590 -0.3592
 1150SOL    MW4 4647   3.151   3.240   1.993 -0.2496  0.0260  0.1142
 1151SOL     OW 4648   3.108   3.467   1.861 -0.1428 -0.0900 -0.0467
 1151SOL    HW2 4649   3.192   3.499   1.895 -0.1273 -1.3136  1.0695
 1151SOL    HW3 4650   3.115   3.481   1.766  1.4136 -0.4008  0.0031
 1151SOL    MW4 4651   3.120   3.473   1.853  0.0644 -0.2923  0.1070
 1152SOL     OW 4652   3.364   3.554   1.950  0.2137 -0.3186 -0.2128
 1152SOL    HW2 4653   3.455   3.532   1.928 -0.0966 -0.8103 -1.0408
 1152SOL    HW3 4654   3.357   3.647   1.931  0.5999 -0.2363  0.0402
 1152SOL    MW4 4655   3.375   3.563   1.944  0.2236 -0.3724 -0.2887
 1153SOL     OW 4656   3.364   3.830   1.888  0.0906 -0.4898  0.1882
 1153SOL    HW2 4657   3.295   3.890   1.914  1.3251  0.5672  1.0606
 1153SOL    HW3 4658   3.384   3.853   1.797 -0.7989 -0.9181 -0.1277
 1153SOL    MW4 4659   3.357   3.841   1.879  0.1361 -0.4067  0.2615
 1154SOL     OW 4660   3.156   3.992   1.958 -0.7506  0.2087 -0.2335
 1154SOL    HW2 4661   3.160   3.985   2.054 -1.0997 -0.7910 -0.2888
 1154SOL    HW3 4662   3.070   3.956   1.936 -0.7710  0.6784 -0.9020
 1154SOL    MW4 4663   3.145   3.986   1.968 -0.7994  0.1388 -0.3290
 1155SOL     OW 4664   3.141   4.253   1.886 -0.6687 -0.5589 -0.9234
 1155SOL    HW2 4665   3.154   4.164   1.919  0.8387 -0.0783 -0.1651
 1155SOL    HW3 4666   3.079   4.292   1.948 -0.6106 -0.7803 -0.7248
 1155SOL    MW4 4667   3.134   4.247   1.899 -0.4623 -0.5245 -0.7972
 1156SOL     OW 4668   3.370   4.384   1.998 -0.0944  0.1574  0.2502
 1156SOL    HW2 4669   3.446   4.342   1.957  0.4552  0.9499  0.4499
 1156SOL    HW3 4670   3.294   4.339   1.960  0.3859  1.0580 -1.8528
 1156SOL    MW4 4671   3.370   4.372   1.987  0.0417  0.3810 -0.0010
 1157SOL     OW 4672   3.791   4.607   1.904 -0.0786 -0.0246 -0.1857
 1157SOL    HW2 4673   3.809   4.523   1.946 -0.9187 -0.2930 -0.3543
 1157SOL    HW3 4674   3.722   4.646   1.957  0.4005  0.6306 -0.0263
 1157SOL    MW4 4675   3.784   4.601   1.917 -0.1261  0.0267 -0.1870
 1158SOL     OW 4676   3.619   0.119   2.024 -0.2863  0.1005 -0.1438
 1158SOL    HW2 4677   3.617   0.110   2.119  0.2742  0.6414 -0.0749
 1158SOL    HW3 4678   3.531   0.098   1.996 -0.2168 -0.9364  0.4179
 1158SOL    MW4 4679   3.607   0.115   2.033 -0.2034  0.0351 -0.0608
 1159SOL     OW 4680   3.682   0.380   1.904 -0.4360  0.6386  0.0576
 1159SOL    HW2 4681   3.681   0.288   1.933  3.2990  0.7148  0.5885
 1159SOL    HW3 4682   3.669   0.376   1.810  1.8106 -0.6208 -0.2287
 1159SOL    MW4 4683   3.680   0.367   1.896  0.3531  0.4825  0.0899
 1160SOL     OW 4684   3.884   0.544   2.012  0.3106  0.1685 -0.2390
 1160SOL    HW2 4685   3.883   0.635   1.982  1.0028  0.2896  0.0960
 1160SOL    HW3 4686   3.805   0.505   1.974 -0.6595  1.2434  0.6476
 1160SOL    MW4 4687   3.873   0.551   2.003  0.2739  0.3263 -0.0777
 1161SOL     OW 4688   3.870   0.786   1.885 -0.1242 -0.1345  0.1201
 1161SOL    HW2 4689   3.789   0.827   1.915  0.3479  1.2460 -0.4393
 1161SOL    HW3 4690   3.864   0.786   1.790  0.2911 -0.5262  0.0886
 1161SOL    MW4 4691   3.859   0.792   1.877 -0.0072 -0.0040  0.0421
 1162SOL     OW 4692   3.651   0.901   1.996 -0.1931 -0.3518  0.4837
 1162SOL    HW2 4693   3.628   0.992   1.978  1.0744  0.1270  1.2047
 1162SOL    HW3 4694   3.583   0.850   1.954 -2.3105  0.9914  2.1676
 1162SOL    MW4 4695   3.639   0.906   1.988 -0.3052 -0.1114  0.8011
 1163SOL     OW 4696   3.593   1.157   1.893 -0.3232 -0.0120  0.1308
 1163SOL    HW2 4697   3.523   1.216   1.922 -1.5888 -0.8835 -1.0762
 1163SOL    HW3 4698   3.585   1.154   1.798  1.3964 -0.0968 -0.0271
 1163SOL    MW4 4699   3.582   1.164   1.885 -0.2630 -0.1380 -0.0494
 1164SOL     OW 4700   3.818   1.272   1.987 -0.3078 -0.2737 -0.3195
 1164SOL    HW2 4701   3.803   1.264   2.081 -0.5572  1.2958 -0.1982
 1164SOL    HW3 4702   3.748   1.220   1.947 -0.6286 -0.3675  0.3558
 1164SOL    MW4 4703   3.806   1.264   1.994 -0.3831 -0.0790 -0.2141
 1165SOL     OW 4704   3.835   1.524   1.853  0.2091 -0.3155 -0.0564
 1165SOL    HW2 4705   3.909   1.571   1.892  0.8686  0.0903 -1.7620
 1165SOL    HW3 4706   3.835   1.439   1.897  1.1946 -0.0270  0.5314
 1165SOL    MW4 4707   3.845   1.519   1.864  0.4261 -0.2239 -0.2037
 1166SOL     OW 4708   3.630   1.653   1.981  0.9469 -0.1272  0.2499
 1166SOL    HW2 4709   3.632   1.737   1.934  0.4009  0.2386  0.8788
 1166SOL    HW3 4710   3.701   1.602   1.941  0.0474 -0.0906 -1.4567
 1166SOL    MW4 4711   3.640   1.657   1.969  0.7563 -0.0741  0.1079
 1167SOL     OW 4712   3.609   1.952   1.865  0.0973 -0.1156  0.3602
 1167SOL    HW2 4713   3.690   1.985   1.906  0.7453 -1.4227  0.1677
 1167SOL    HW3 4714   3.624   1.962   1.771 -0.6296  1.1375  0.3706
 1167SOL    MW4 4715   3.622   1.958   1.858  0.0870 -0.1227  0.3361
 1168SOL     OW 4716   3.855   2.070   2.012 -0.1279 -0.4752  0.0183
 1168SOL    HW2 4717   3.925   2.027   1.963  0.7175  1.1604 -0.2109
 1168SOL    HW3 4718   3.849   2.158   1.975 -1.1467 -0.0300  1.1907
 1168SOL    MW4 4719   3.863   2.076   2.001 -0.1509 -0.2007  0.1428
 1169SOL     OW 4720   3.844   2.314   1.855 -0.4266  0.1256 -0.0755
 1169SOL    HW2 4721   3.918   2.354   1.901 -0.3284  0.6622 -0.6772
 1169SOL    HW3 4722   3.766   2.349   1.898 -0.3313 -0.0159  0.2094
 1169SOL    MW4 4723   3.844   2.324   1.867 -0.4010  0.1774 -0.1171
 1170SOL     OW 4724   3.621   2.433   1.970 -0.1464  0.2255  0.1496
 1170SOL    HW2 4725   3.631   2.516   1.923  1.3283 -1.0565 -1.9050
 1170SOL    HW3 4726   3.535   2.401   1.943 -0.1018  0.3903 -0.1885
 1170SOL    MW4 4727   3.611   2.440   1.960  0.0541  0.0782 -0.1661
 1171SOL     OW 4728   3.638   2.679   1.856 -0.0482 -0.3562 -0.0174
 1171SOL    HW2 4729   3.710   2.735   1.883  0.2563  0.2581 -2.0548
 1171SOL    HW3 4730   3.560   2.720   1.894  0.3660  0.4707 -0.0550
 1171SOL    MW4 4731   3.637   2.692   1.864  0.0467 -0.1662 -0.2912
 1172SOL     OW 4732   3.855   2.806   1.977 -0.0799  0.2013 -0.1088
 1172SOL    HW2 4733   3.851   2.812   2.072 -2.2447 -0.3467 -0.1418
 1172SOL    HW3 4734   3.836   2.895   1.946 -0.0831  0.2227 -0.0444
 1172SOL    MW4 4735   3.852   2.818   1.985 -0.3660  0.1321 -0.1047
 1173SOL     OW 4736   3.825   3.074   1.896  0.3221 -0.1986  0.1106
 1173SOL    HW2 4737   3.761   3.136   1.930  0.5533  0.5821 -0.8505
 1173SOL    HW3 4738   3.836   3.099   1.805  0.8495 -1.3021 -0.1404
 1173SOL    MW4 4739   3.818   3.085   1.889  0.4222 -0.2413 -0.0495
 1174SOL     OW 4740   3.603   3.221   1.973  0.0732  0.4164 -0.6468
 1174SOL    HW2 4741   3.596   3.220   2.068  0.0092 -1.6002 -0.6517
 1174SOL    HW3 4742   3.613   3.314   1.950 -0.1334  0.9294  1.2934
 1174SOL    MW4 4743   3.603   3.233   1.982  0.0377  0.2182 -0.3915
 1175SOL     OW 4744   3.632   3.453   1.875 -0.5496  0.4030  0.5467
 1175SOL    HW2 4745   3.714   3.497   1.899  0.8246 -1.5097 -0.4858
 1175SOL    HW3 4746   3.612   3.485   1.788  0.6727 -1.2563 -0.3745
 1175SOL    MW4 4747   3.640   3.463   1.867 -0.2069 -0.0682  0.2891
 1176SOL     OW 4748   3.829   3.616   2.007  0.0119  0.3255  0.0939
 1176SOL    HW2 4749   3.904   3.564   1.977  0.7525  1.2048  0.4021
 1176SOL    HW3 4750   3.833   3.696   1.955  0.0519  0.9412  1.0380
 1176SOL    MW4 4751   3.839   3.620   1.996  0.1152  0.5226  0.2590
 1177SOL     OW 4752   3.850   3.861   1.859  0.1379 -0.2031 -0.0203
 1177SOL    HW2 4753   3.764   3.894   1.887 -0.6741 -1.7287 -0.6392
 1177SOL    HW3 4754   3.851   3.873   1.764  0.2497 -1.0042 -0.1219
 1177SOL    MW4 4755   3.839   3.867   1.850  0.0458 -0.5100 -0.1154
 1178SOL     OW 4756   3.606   3.965   1.983  0.2144 -0.0768  0.2291
 1178SOL    HW2 4757   3.609   3.951   2.078 -0.5283  0.0771  0.2782
 1178SOL    HW3 4758   3.525   3.922   1.956  0.7181 -0.6192 -0.4212
 1178SOL    MW4 4759   3.596   3.957   1.992  0.1831 -0.1278  0.1498
 1179SOL     OW 4760   3.574   4.224   1.883  0.2015 -0.5155  0.1057
 1179SOL    HW2 4761   3.656   4.271   1.899  1.1037 -1.6888 -0.9506
 1179SOL    HW3 4762   3.588   4.137   1.919 -1.4065 -0.0488  1.9161
 1179SOL    MW4 4763   3.587   4.219   1.890  0.1087 -0.6084  0.2053
 1180SOL     OW 4764   3.814   4.358   1.986  0.0710  0.3375  0.0304
 1180SOL    HW2 4765   3.799   4.331   2.077  0.3040 -2.1721 -0.6299
 1180SOL    HW3 4766   3.902   4.325   1.965  0.4676  1.8493 -0.7801
 1180SOL    MW4 4767   3.824   4.350   1.995  0.1540  0.2060 -0.1637
 1181SOL     OW 4768   4.240   0.023   1.915  0.0563 -0.0299 -0.3097
 1181SOL    HW2 4769   4.161   0.061   1.955 -0.0631  0.2744 -0.8385
 1181SOL    HW3 4770   4.312   0.075   1.950 -0.0097 -0.0567 -0.1338
 1181SOL    MW4 4771   4.239   0.035   1.925  0.0324  0.0067 -0.3562
 1182SOL     OW 4772   3.979   0.145   1.973  0.4906  0.6930 -0.2716
 1182SOL    HW2 4773   4.000   0.131   2.066  0.2790  2.1922  0.0153
 1182SOL    HW3 4774   3.907   0.084   1.955  1.3588 -0.4983  0.2081
 1182SOL    MW4 4775   3.972   0.135   1.983  0.5772  0.7337 -0.1704
 1183SOL     OW 4776   4.077   0.381   1.885 -0.4829  0.4932  0.1603
 1183SOL    HW2 4777   4.039   0.298   1.915  0.1677 -0.1090 -0.6608
 1183SOL    HW3 4778   4.022   0.448   1.924 -1.7401 -0.3528 -0.1454
 1183SOL    MW4 4779   4.065   0.379   1.894 -0.5627  0.3022  0.0116
 1184SOL     OW 4780   4.294   0.491   2.003  0.0358  0.0537 -0.4556
 1184SOL    HW2 4781   4.293   0.488   2.099  1.8924  0.0810 -0.4069
 1184SOL    HW3 4782   4.220   0.437   1.976 -0.0074 -0.6374  0.9891
 1184SOL    MW4 4783   4.284   0.484   2.012  0.2751 -0.0339 -0.2584
 1185SOL     OW 4784   4.256   0.752   1.915 -0.4080 -0.3397  0.2596
 1185SOL    HW2 4785   4.253   0.657   1.921 -1.1926 -0.3689 -0.4715
 1185SOL    HW3 4786   4.253   0.770   1.821 -2.3096  0.4543  0.4472
 1185SOL    MW4 4787   4.255   0.742   1.903 -0.7625 -0.2387  0.1880
 1186SOL     OW 4788   4.060   0.921   2.019  0.2886  0.1385  0.4816
 1186SOL    HW2 4789   4.136   0.867   1.994  0.0457  0.4588 -1.0025
 1186SOL    HW3 4790   3.985   0.875   1.981 -0.2125  0.1130  1.4849
 1186SOL    MW4 4791   4.060   0.908   2.011  0.1903  0.1774  0.4179
 1187SOL     OW 4792   4.034   1.149   1.867 -0.1935 -0.1375 -0.2682
 1187SOL    HW2 4793   4.051   1.077   1.928 -1.7790 -0.7104 -0.4999
 1187SOL    HW3 4794   3.965   1.200   1.910 -0.1694  0.3676 -0.8356
 1187SOL    MW4 4795   4.027   1.146   1.881 -0.3996 -0.1464 -0.3735
 1188SOL     OW 4796   4.271   1.271   1.938 -0.2178 -0.4379  0.6549
 1188SOL    HW2 4797   4.266   1.269   2.034 -1.7711 -0.1643  0.5810
 1188SOL    HW3 4798   4.190   1.231   1.908 -0.7899  1.5515 -0.5536
 1188SOL    MW4 4799   4.260   1.265   1.947 -0.4988 -0.1394  0.4857
 1189SOL     OW 4800   4.300   1.540   1.917 -0.0697  0.4297  0.1787
 1189SOL    HW2 4801   4.287   1.446   1.930  1.0140  0.0472 -1.3843
 1189SOL    HW3 4802   4.313   1.549   1.823 -0.6753  2.2191  0.2638
 1189SOL    MW4 4803   4.300   1.528   1.906 -0.0067  0.6154 -0.0162
 1190SOL     OW 4804   4.056   1.675   1.982  0.3751 -0.2772 -0.2765
 1190SOL    HW2 4805   4.074   1.675   2.076 -0.8002 -1.4487 -0.0376
 1190SOL    HW3 4806   4.133   1.634   1.943  0.2254 -1.1688  0.3342
 1190SOL    MW4 4807   4.068   1.669   1.990  0.1998 -0.5493 -0.1645
 1191SOL     OW 4808   4.062   1.931   1.888 -0.0448 -0.0142  0.1238
 1191SOL    HW2 4809   4.064   1.845   1.930  0.7188 -0.1033 -0.0970
 1191SOL    HW3 4810   4.066   1.913   1.794  1.2650  0.3085  0.1172
 1191SOL    MW4 4811   4.063   1.917   1.881  0.2289  0.0166  0.0938
 1192SOL     OW 4812   4.275   2.077   1.957  0.0499  0.3639 -0.0943
 1192SOL    HW2 4813   4.284   2.056   2.049  1.0079 -1.4134 -0.5728
 1192SOL    HW3 4814   4.197   2.028   1.929  0.9922 -0.8075 -0.7028
 1192SOL    MW4 4815   4.266   2.068   1.965  0.3009 -0.0250 -0.2379
 1193SOL     OW 4816   4.277   2.327   1.858 -0.0312 -0.4837 -0.6181
 1193SOL    HW2 4817   4.274   2.236   1.888 -0.3133 -0.4708 -0.6055
 1193SOL    HW3 4818   4.347   2.367   1.910 -0.6556 -0.4075  0.1850
 1193SOL    MW4 4819   4.286   2.321   1.869 -0.1507 -0.4721 -0.5105
 1194SOL     OW 4820   4.043   2.423   2.010  0.0448 -0.2952 -0.1571
 1194SOL    HW2 4821   4.059   2.433   2.104 -1.3025  2.1561 -0.1335
 1194SOL    HW3 4822   4.119   2.375   1.978  1.1470 -0.0563  1.9811
 1194SOL    MW4 4823   4.055   2.418   2.018  0.0124  0.0594  0.1280
 1195SOL     OW 4824   4.112   2.685   1.923 -0.1984  0.5618  0.0659
 1195SOL    HW2 4825   4.109   2.594   1.951  1.5739  0.8204  1.1435
 1195SOL    HW3 4826   4.033   2.724   1.961  0.3994  0.0905  1.8599
 1195SOL    MW4 4827   4.101   2.678   1.932  0.1140  0.5336  0.4448
 1196SOL     OW 4828   4.323   2.852   1.976 -0.1689  0.1109  0.0412
 1196SOL    HW2 4829   4.325   2.865   2.071 -1.9361 -0.5438  0.1891
 1196SOL    HW3 4830   4.259   2.782   1.963  1.7264 -1.3838 -1.4664
 1196SOL    MW4 4831   4.315   2.844   1.987 -0.1516 -0.1724 -0.1383
 1197SOL     OW 4832   4.239   3.095   1.892  0.0149 -0.0385  0.5067
 1197SOL    HW2 4833   4.170   3.126   1.950 -0.5464 -0.3784  0.0267
 1197SOL    HW3 4834   4.252   3.003   1.918  0.2915  0.0300  0.6063
 1197SOL    MW4 4835   4.232   3.087   1.903 -0.0229 -0.0741  0.4566
 1198SOL     OW 4836   4.035   3.220   2.016  0.2425 -0.2936  0.0402
 1198SOL    HW2 4837   4.020   3.252   2.104 -0.0205 -0.3140  0.0023
 1198SOL    HW3 4838   3.955   3.173   1.993  0.1600  0.0439 -0.3587
 1198SOL    MW4 4839   4.023   3.218   2.024  0.1974 -0.2518 -0.0176
 1199SOL     OW 4840   4.048   3.466   1.913  0.1341  0.5147 -0.8281
 1199SOL    HW2 4841   4.113   3.507   1.969 -0.6950 -0.5221  0.9305
 1199SOL    HW3 4842   4.050   3.373   1.937 -2.0228  0.4748 -0.6678
 1199SOL    MW4 4843   4.057   3.459   1.923 -0.2599  0.3726 -0.5749
 1200SOL     OW 4844   4.244   3.630   2.030 -0.3193  0.6607 -0.2000
 1200SOL    HW2 4845   4.245   3.709   1.976 -1.1806  0.8955  0.1076
 1200SOL    HW3 4846   4.307   3.572   1.988 -0.6864  0.9846 -1.2357
 1200SOL    MW4 4847   4.252   3.633   2.017 -0.4816  0.7346 -0.2961
 1201SOL     OW 4848   4.283   3.851   1.892  0.2742 -0.0740 -0.2740
 1201SOL    HW2 4849   4.360   3.897   1.925  0.2008 -0.4058  0.3676
 1201SOL    HW3 4850   4.286   3.864   1.797  1.9137 -1.3067 -0.4075
 1201SOL    MW4 4851   4.293   3.859   1.884  0.4807 -0.2804 -0.2071
 1202SOL     OW 4852   4.078   3.993   1.978  0.0646 -0.2634 -0.1769
 1202SOL    HW2 4853   4.146   3.938   1.939 -0.2012 -1.2264  0.6899
 1202SOL    HW3 4854   3.996   3.949   1.956 -0.0914 -0.7622  1.3637
 1202SOL    MW4 4855   4.076   3.980   1.970  0.0091 -0.4561  0.1408
 1203SOL     OW 4856   4.072   4.270   1.911 -0.1766  0.1250 -0.0051
 1203SOL    HW2 4857   4.156   4.307   1.938  0.2170 -0.3586 -0.5687
 1203SOL    HW3 4858   4.078   4.177   1.933 -0.1910 -0.0993 -0.9477
 1203SOL    MW4 4859   4.083   4.263   1.917 -0.1264  0.0315 -0.2040
 1204SOL     OW 4860   4.310   4.396   1.970 -0.2361  0.5371  0.1097
 1204SOL    HW2 4861   4.291   4.402   2.063  1.5057  1.4625  0.4367
 1204SOL    HW3 4862   4.265   4.471   1.931 -0.6393  0.3742  0.2635
 1204SOL    MW4 4863   4.302   4.407   1.977 -0.0596  0.6380  0.1731
 1205SOL     OW 4864   0.216   4.641   2.380  0.1047 -0.0148 -0.1380
 1205SOL    HW2 4865   0.208   4.647   2.475 -0.0360 -0.5121 -0.1140
 1205SOL    HW3 4866   0.294   4.692   2.359  0.3323 -0.1880  0.2809
 1205SOL    MW4 4867   0.225   4.648   2.390  0.1162 -0.1035 -0.0796
 1206SOL     OW 4868   0.006   0.116   2.280 -0.0642  0.0404  0.1722
 1206SOL    HW2 4869   0.086   0.066   2.297 -0.7283 -1.3499 -0.7436
 1206SOL    HW3 4870  -0.011   0.104   2.187 -0.4259  1.7088  0.0060
 1206SOL    MW4 4871   0.014   0.108   2.270 -0.1995  0.0771  0.0296
 1207SOL     OW 4872   4.483   0.376   2.420  0.5011 -0.1454  0.0103
 1207SOL    HW2 4873   4.558   0.422   2.383  0.7608  0.0007  0.7100
 1207SOL    HW3 4874   4.491   0.286   2.388  0.4623  0.0865 -0.6599
 1207SOL    MW4 4875   4.494   0.370   2.411  0.5302 -0.0955  0.0143
 1208SOL     OW 4876   0.207   0.538   2.324 -0.2866  0.0773 -0.4115
 1208SOL    HW2 4877   0.289   0.495   2.349 -0.7847 -0.8262 -0.3175
 1208SOL    HW3 4878   0.208   0.537   2.228 -0.8543 -1.2506 -0.4206
 1208SOL    MW4 4879   0.218   0.532   2.314 -0.4272 -0.2171 -0.4003
 1209SOL     OW 4880   0.250   0.802   2.361  1.0983  0.1665  0.0884
 1209SOL    HW2 4881   0.224   0.822   2.451 -0.9861  0.0790 -0.4762
 1209SOL    HW3 4882   0.239   0.708   2.353 -0.2751  0.3844 -0.7243
 1209SOL    MW4 4883   0.245   0.793   2.372  0.6421  0.1838 -0.0935
 1210SOL     OW 4884   0.012   0.909   2.283 -0.2101  0.0298 -0.2133
 1210SOL    HW2 4885   0.102   0.889   2.308 -0.2390 -0.6221 -0.6342
 1210SOL    HW3 4886   0.010   0.901   2.188 -1.2429 -2.1998 -0.0442
 1210SOL    MW4 4887   0.023   0.906   2.274 -0.3505 -0.3504 -0.2465
 1211SOL     OW 4888   4.472   1.165   2.350 -0.0553 -0.5999 -0.5251
 1211SOL    HW2 4889   4.470   1.175   2.445 -2.6773 -0.8344 -0.5188
 1211SOL    HW3 4890   4.484   1.071   2.337  1.1323 -0.4621 -0.4326
 1211SOL    MW4 4891   4.473   1.154   2.361 -0.2451 -0.6129 -0.5119
 1212SOL     OW 4892   0.224   1.252   2.253  0.4560  0.0103 -0.3488
 1212SOL    HW2 4893   0.138   1.238   2.294  0.0511  2.3947 -0.3500
 1212SOL    HW3 4894   0.206   1.260   2.160  0.6512  0.7640 -0.3232
 1212SOL    MW4 4895   0.210   1.251   2.246  0.4284  0.4243 -0.3457
 1213SOL     OW 4896   0.239   1.505   2.348  0.3251  0.3945  0.4501
 1213SOL    HW2 4897   0.249   1.509   2.443 -0.2913 -0.6694  0.5620
 1213SOL    HW3 4898   0.238   1.412   2.327 -0.1717  0.6096 -0.5376
 1213SOL    MW4 4899   0.240   1.494   2.358  0.1783  0.2824  0.3345
 1214SOL     OW 4900   0.024   1.653   2.302  0.2273  0.8906 -0.0983
 1214SOL    HW2 4901   0.027   1.745   2.329  0.0237  0.7641  0.3545
 1214SOL    HW3 4902   0.111   1.619   2.322  0.0944  0.8114  0.3516
 1214SOL    MW4 4903   0.036   1.661   2.308  0.1829  0.8636  0.0205
 1215SOL     OW 4904   0.019   1.907   2.422  0.2109 -0.4562 -0.0471
 1215SOL    HW2 4905  -0.040   1.938   2.353 -0.0399  0.9519  0.7814
 1215SOL    HW3 4906   0.103   1.946   2.401  0.6411 -1.6819 -0.6809
 1215SOL    MW4 4907   0.022   1.916   2.410  0.2346 -0.4323 -0.0212
 1216SOL     OW 4908   0.245   2.028   2.297 -0.2872  0.7812  0.0543
 1216SOL    HW2 4909   0.323   1.974   2.308 -1.5715 -0.9835  0.6924
 1216SOL    HW3 4910   0.248   2.057   2.206  0.8480  0.3022 -0.0615
 1216SOL    MW4 4911   0.256   2.025   2.287 -0.3069  0.4852  0.1230
 1217SOL     OW 4912   0.228   2.306   2.396 -0.1646 -0.0491  0.3371
 1217SOL    HW2 4913   0.249   2.304   2.489  1.5648  0.8172 -0.0081
 1217SOL    HW3 4914   0.239   2.215   2.368  3.0694  0.3007  0.2380
 1217SOL    MW4 4915   0.232   2.294   2.404  0.4903  0.1113  0.2785
 1218SOL     OW 4916   0.001   2.434   2.281 -0.2760 -0.1409 -0.0569
 1218SOL    HW2 4917   0.007   2.519   2.325 -1.1339 -0.8915  1.5497
 1218SOL    HW3 4918   0.078   2.386   2.313  1.0157  0.4893 -2.0674
 1218SOL    MW4 4919   0.012   2.439   2.291 -0.2188 -0.1569 -0.1101
 1219SOL     OW 4920   0.009   2.705   2.375 -0.5404  0.1461 -0.1670
 1219SOL    HW2 4921  -0.004   2.701   2.470 -1.6928  0.4196 -0.3042
 1219SOL    HW3 4922   0.096   2.744   2.364 -1.0123  1.4973  0.7669
 1219SOL    MW4 4923   0.019   2.709   2.386 -0.7547  0.3603 -0.0620
 1220SOL     OW 4924   0.251   2.838   2.291 -0.2033 -0.1732  0.8845
 1220SOL    HW2 4925   0.334   2.803   2.325 -0.7739 -1.8654  0.5848
 1220SOL    HW3 4926   0.251   2.810   2.199 -0.4239  1.1124  0.4911
 1220SOL    MW4 4927   0.262   2.829   2.283 -0.3076 -0.2272  0.7930
 1221SOL     OW 4928   0.239   3.110   2.348  0.2543  0.5158  0.7571
 1221SOL    HW2 4929   0.155   3.142   2.317  0.7750  0.8029 -0.4064
 1221SOL    HW3 4930   0.234   3.015   2.337  0.9062  0.7111 -1.4997
 1221SOL    MW4 4931   0.227   3.102   2.342  0.4090  0.5794  0.3059
 1222SOL     OW 4932   4.483   3.206   2.286 -0.0840 -0.0960 -0.1560
 1222SOL    HW2 4933   4.477   3.299   2.309  1.3280 -0.1858  0.6567
 1222SOL    HW3 4934   4.476   3.204   2.191 -0.5346  0.8003 -0.1505
 1222SOL    MW4 4935   4.481   3.218   2.277  0.0428  0.0105 -0.0482
 1223SOL     OW 4936   4.456   3.472   2.368  0.6822  0.2970 -0.0403
 1223SOL    HW2 4937   4.454   3.479   2.464  0.9768 -0.2374  0.0076
 1223SOL    HW3 4938   4.416   3.553   2.337  0.5656  0.4616  0.5382
 1223SOL    MW4 4939   4.451   3.483   2.377  0.7052  0.2482  0.0424
 1224SOL     OW 4940   0.206   3.612   2.303 -0.3886  0.0682  0.7424
 1224SOL    HW2 4941   0.286   3.573   2.340 -0.3487  1.2041  1.8902
 1224SOL    HW3 4942   0.135   3.558   2.337 -0.0388 -1.7973 -1.3994
 1224SOL    MW4 4943   0.207   3.600   2.312 -0.3372 -0.0281  0.6113
 1225SOL     OW 4944   0.208   3.885   2.391  0.0737  0.4540  0.1366
 1225SOL    HW2 4945   0.129   3.914   2.345 -0.0499  0.5473  0.4118
 1225SOL    HW3 4946   0.210   3.790   2.375 -0.9562  0.1968  1.4524
 1225SOL    MW4 4947   0.198   3.876   2.383 -0.0785  0.4325  0.3464
 1226SOL     OW 4948   0.004   4.008   2.241  0.2066 -0.3028 -0.5692
 1226SOL    HW2 4949   0.011   4.097   2.276 -1.2149 -0.1577 -0.6401
 1226SOL    HW3 4950   0.002   4.019   2.146 -0.0314 -0.4016 -0.5765
 1226SOL    MW4 4951   0.005   4.021   2.233 -0.0123 -0.2971 -0.5796
 1227SOL     OW 4952   0.001   4.254   2.372  0.0763 -0.3271 -0.5237
 1227SOL    HW2 4953  -0.003   4.283   2.463  0.5737 -0.4404 -0.4591
 1227SOL    HW3 4954   0.074   4.304   2.335 -0.6729  0.3424 -1.0914
 1227SOL    MW4 4955   0.010   4.264   2.379  0.0429 -0.2532 -0.5903
 1228SOL     OW 4956   0.236   4.366   2.279  0.0670 -0.1880  0.0933
 1228SOL    HW2 4957   0.309   4.311   2.307 -0.9069 -1.0904  0.8868
 1228SOL    HW3 4958   0.238   4.441   2.339  1.4850  0.7516 -1.0837
 1228SOL    MW4 4959   0.246   4.369   2.291  0.1256 -0.1831  0.0424
 1229SOL     OW 4960   0.636   0.010   2.385 -0.1852 -0.2441  0.0358
 1229SOL    HW2 4961   0.646   0.006   2.480  0.8362  0.2906 -0.0387
 1229SOL    HW3 4962   0.723   0.034   2.353 -0.9698  1.4169 -0.9172
 1229SOL    MW4 4963   0.649   0.012   2.393 -0.1540  0.0456 -0.0999
 1230SOL     OW 4964   0.410   0.144   2.313 -0.1562 -0.3090  0.4087
 1230SOL    HW2 4965   0.495   0.111   2.343 -0.2959 -0.3616  0.7513
 1230SOL    HW3 4966   0.411   0.131   2.219 -0.4890 -1.9490  0.6258
 1230SOL    MW4 4967   0.421   0.138   2.305 -0.2185 -0.5324  0.4823
 1231SOL     OW 4968   0.427   0.412   2.392  0.0373  0.2694  0.5916
 1231SOL    HW2 4969   0.429   0.412   2.488 -0.3333  0.1554  0.6014
 1231SOL    HW3 4970   0.398   0.324   2.369  0.2798  0.2486  0.3705
 1231SOL    MW4 4971   0.423   0.400   2.402  0.0204  0.2516  0.5634
 1232SOL     OW 4972   0.665   0.510   2.293  0.0824  0.1994 -0.2973
 1232SOL    HW2 4973   0.673   0.598   2.330  0.8262  0.1874 -0.4130
 1232SOL    HW3 4974   0.582   0.476   2.328  0.0217  0.7688  0.1179
 1232SOL    MW4 4975   0.655   0.517   2.302  0.1726  0.2730 -0.2577
 1233SOL     OW 4976   0.691   0.776   2.412  0.0560 -0.1255  0.2717
 1233SOL    HW2 4977   0.689   0.802   2.504  0.4551 -0.3467  0.3432
 1233SOL    HW3 4978   0.623   0.830   2.370 -1.3052 -1.2139  1.0086
 1233SOL    MW4 4979   0.682   0.786   2.419 -0.0709 -0.2981  0.3786
 1234SOL     OW 4980   0.472   0.904   2.258 -0.2880 -0.2021 -0.3128
 1234SOL    HW2 4981   0.389   0.868   2.291 -0.3308  0.6990  0.5877
 1234SOL    HW3 4982   0.467   0.891   2.164 -1.2552 -0.5882 -0.2197
 1234SOL    MW4 4983   0.460   0.898   2.250 -0.4212 -0.1342 -0.1817
 1235SOL     OW 4984   0.459   1.151   2.373  0.6008 -0.4325  0.4974
 1235SOL    HW2 4985   0.464   1.072   2.319 -1.8617 -0.7564  0.6961
 1235SOL    HW3 4986   0.377   1.192   2.347  1.4373  1.6240  1.0211
 1235SOL    MW4 4987   0.449   1.146   2.362  0.3863 -0.2040  0.5927
 1236SOL     OW 4988   0.694   1.288   2.246  0.3061 -0.0643  0.3422
 1236SOL    HW2 4989   0.697   1.377   2.282  1.8566 -0.5847  1.5242
 1236SOL    HW3 4990   0.614   1.250   2.283  0.6322  0.2119  1.3490
 1236SOL    MW4 4991   0.684   1.295   2.255  0.5537 -0.0963  0.6311
 1237SOL     OW 4992   0.678   1.541   2.390 -0.5038  0.3765 -0.2386
 1237SOL    HW2 4993   0.678   1.548   2.486 -0.7172  0.8224 -0.2706
 1237SOL    HW3 4994   0.758   1.586   2.363  1.5792 -3.0300 -0.0446
 1237SOL    MW4 4995   0.689   1.548   2.399 -0.2571 -0.0141 -0.2172
 1238SOL     OW 4996   0.480   1.656   2.246  0.1822  0.0522 -0.1355
 1238SOL    HW2 4997   0.558   1.618   2.286 -0.0645 -1.2510 -0.8798
 1238SOL    HW3 4998   0.407   1.611   2.288 -0.1645  0.9767  0.2619
 1238SOL    MW4 4999   0.481   1.645   2.257  0.1039  0.0023 -0.1812
 1239SOL     OW 5000   0.480   1.906   2.346 -0.2930 -0.0879 -0.2996
 1239SOL    HW2 5001   0.557   1.946   2.304  0.3737 -0.9050  0.1379
 1239SOL    HW3 5002   0.478   1.816   2.313 -1.2554  0.0261 -0.5648
 1239SOL    MW4 5003   0.490   1.899   2.336 -0.3321 -0.1806 -0.2766
 1240SOL     OW 5004   0.680   2.072   2.242 -0.1465 -0.2306 -0.8176
 1240SOL    HW2 5005   0.760   2.040   2.283 -0.4223 -0.3771 -0.3891
 1240SOL    HW3 5006   0.664   2.157   2.284 -0.1667 -0.1594 -0.9683
 1240SOL    MW4 5007   0.688   2.079   2.253 -0.1855 -0.2401 -0.7811
 1241SOL     OW 5008   0.636   2.320   2.398 -0.0470 -0.3402 -0.0814
 1241SOL    HW2 5009   0.641   2.320   2.494 -0.1792  1.1037 -0.0719
 1241SOL    HW3 5010   0.718   2.359   2.370 -1.3121  2.1360 -0.4703
 1241SOL    MW4 5011   0.647   2.325   2.407 -0.2313  0.1769 -0.1314
 1242SOL     OW 5012   0.425   2.430   2.255  0.6564 -0.1591  0.2577
 1242SOL    HW2 5013   0.492   2.379   2.301 -0.0509 -1.6121 -0.2871
 1242SOL    HW3 5014   0.343   2.404   2.297  0.5068  2.6049  1.8246
 1242SOL    MW4 5015   0.423   2.419   2.267  0.5434  0.0141  0.3924
 1243SOL     OW 5016   0.466   2.676   2.367  0.0516 -0.3481 -0.2883
 1243SOL    HW2 5017   0.453   2.656   2.460  0.4609 -1.5470 -0.4936
 1243SOL    HW3 5018   0.454   2.593   2.322 -0.9142  0.3778 -1.3944
 1243SOL    MW4 5019   0.463   2.663   2.374 -0.0218 -0.4103 -0.4613
 1244SOL     OW 5020   0.694   2.808   2.268 -0.0014 -0.1893  0.1282
 1244SOL    HW2 5021   0.776   2.770   2.300  0.2855 -0.1787 -0.5862
 1244SOL    HW3 5022   0.627   2.772   2.327  0.9262  2.8618  3.1764
 1244SOL    MW4 5023   0.696   2.798   2.280  0.1588  0.2146  0.4361
 1245SOL     OW 5024   0.696   3.074   2.379 -0.2122  0.4660 -0.2549
 1245SOL    HW2 5025   0.629   3.136   2.349 -0.6805 -0.1941 -0.5930
 1245SOL    HW3 5026   0.667   2.989   2.345  0.0805 -0.0428  0.7512
 1245SOL    MW4 5027   0.683   3.071   2.370 -0.2354  0.3119 -0.1669
 1246SOL     OW 5028   0.481   3.234   2.273  0.2044 -0.1710 -0.0202
 1246SOL    HW2 5029   0.401   3.201   2.315 -0.9307  2.1532 -0.2937
 1246SOL    HW3 5030   0.461   3.235   2.180 -0.0276  1.8043  0.0190
 1246SOL    MW4 5031   0.468   3.230   2.266  0.0241  0.3963 -0.0510
 1247SOL     OW 5032   0.440   3.491   2.370  0.1585 -0.1053  0.1434
 1247SOL    HW2 5033   0.515   3.549   2.352 -1.0847  1.0772 -1.4805
 1247SOL    HW3 5034   0.467   3.406   2.336  1.8457 -0.4139  2.1604
 1247SOL    MW4 5035   0.453   3.488   2.363  0.2171  0.0098  0.1953
 1248SOL     OW 5036   0.687   3.634   2.301  0.0558  1.0111 -0.1602
 1248SOL    HW2 5037   0.671   3.726   2.325 -2.1514  0.2723  1.3855
 1248SOL    HW3 5038   0.663   3.629   2.209 -1.0507  1.7184  0.0724
 1248SOL    MW4 5039   0.682   3.646   2.292 -0.3814  1.0071  0.0744
 1249SOL     OW 5040   0.666   3.905   2.370  0.4770  0.7570 -0.2483
 1249SOL    HW2 5041   0.659   3.914   2.465  1.5298 -0.2295 -0.0573
 1249SOL    HW3 5042   0.582   3.935   2.337 -0.4390 -0.2209  1.1042
 1249SOL    MW4 5043   0.654   3.910   2.378  0.4950  0.4981 -0.0446
 1250SOL     OW 5044   0.431   4.002   2.280  0.1143 -0.2809  0.0498
 1250SOL    HW2 5045   0.342   3.983   2.310 -0.4172  0.0539 -1.2919
 1250SOL    HW3 5046   0.425   4.004   2.184  1.8002 -1.4222 -0.1078
 1250SOL    MW4 5047   0.419   4.000   2.271  0.2666 -0.3870 -0.1483
 1251SOL     OW 5048   0.488   4.247   2.418 -0.0634 -0.2593  0.0888
 1251SOL    HW2 5049   0.562   4.299   2.388  0.7097 -0.4996  1.5443
 1251SOL    HW3 5050   0.493   4.166   2.367  0.7670 -0.3360  0.2896
 1251SOL    MW4 5051   0.498   4.243   2.407  0.1482 -0.3014  0.3071
 1252SOL     OW 5052   0.678   4.419   2.319  0.3575 -0.1841  0.1649
 1252SOL    HW2 5053   0.662   4.508   2.349 -0.4777 -0.2840  0.0332
 1252SOL    HW3 5054   0.677   4.425   2.224 -0.0162 -0.3863  0.1546
 1252SOL    MW4 5055   0.675   4.431   2.310  0.1981 -0.2236  0.1462
 1253SOL     OW 5056   1.150   4.624   2.378 -0.2621 -0.3830  0.7579
 1253SOL    HW2 5057   1.148   4.623   2.474  0.3699 -0.2679  0.7701
 1253SOL    HW3 5058   1.063   4.655   2.353 -0.0055  0.8246  1.3180
 1253SOL    MW4 5059   1.138   4.628   2.387 -0.1448 -0.2089  0.8335
 1254SOL     OW 5060   0.901   0.081   2.337  0.3685 -0.1852  0.1239
 1254SOL    HW2 5061   0.901   0.169   2.374  0.7313 -0.3979  0.6399
 1254SOL    HW3 5062   0.904   0.095   2.242  2.0289  0.3484  0.2405
 1254SOL    MW4 5063   0.901   0.094   2.329  0.6355 -0.1428  0.2072
 1255SOL     OW 5064   0.903   0.370   2.378 -0.2771  0.2911  0.0897
 1255SOL    HW2 5065   0.971   0.409   2.324 -0.6369  1.2691  0.3204
 1255SOL    HW3 5066   0.821   0.402   2.340 -0.5543  0.3381  0.7239
 1255SOL    MW4 5067   0.901   0.380   2.366 -0.3610  0.4263  0.2036
 1256SOL     OW 5068   1.132   0.489   2.275 -0.0921  0.3900 -0.0260
 1256SOL    HW2 5069   1.205   0.453   2.325 -1.8160 -1.3150  1.3548
 1256SOL    HW3 5070   1.160   0.483   2.184  1.6528  0.1627  0.5069
 1256SOL    MW4 5071   1.145   0.484   2.270 -0.0893  0.1350  0.2265
 1257SOL     OW 5072   1.154   0.761   2.369  0.2652 -0.2251  0.0105
 1257SOL    HW2 5073   1.071   0.806   2.350 -0.3271 -1.3023  0.0482
 1257SOL    HW3 5074   1.139   0.670   2.342  0.9529 -0.7505  1.3886
 1257SOL    MW4 5075   1.141   0.755   2.363  0.2779 -0.4365  0.1974
 1258SOL     OW 5076   0.904   0.875   2.309  0.1552 -0.3070 -0.9788
 1258SOL    HW2 5077   0.891   0.966   2.335  1.9687 -0.2328 -0.3067
 1258SOL    HW3 5078   0.834   0.827   2.354  0.7378  0.4033  0.7238
 1258SOL    MW4 5079   0.893   0.881   2.318  0.4714 -0.2035 -0.6657
 1259SOL     OW 5080   0.899   1.150   2.376  0.0743 -0.0605  0.1132
 1259SOL    HW2 5081   0.971   1.198   2.337  0.8449 -0.4716  1.0103
 1259SOL    HW3 5082   0.820   1.194   2.344  0.6593 -0.6745 -2.2725
 1259SOL    MW4 5083   0.898   1.162   2.366  0.2531 -0.1957 -0.0832
 1260SOL     OW 5084   1.105   1.282   2.252 -0.1006 -0.0667 -0.2412
 1260SOL    HW2 5085   1.187   1.246   2.285 -0.7691 -0.9030  0.5267
 1260SOL    HW3 5086   1.115   1.284   2.157  1.1381  0.6373 -0.0992
 1260SOL    MW4 5087   1.117   1.278   2.244 -0.0254 -0.0842 -0.1209
 1261SOL     OW 5088   1.063   1.524   2.385  0.1718 -0.1297 -0.3857
 1261SOL    HW2 5089   1.010   1.581   2.330 -0.5396  0.6564  1.0859
 1261SOL    HW3 5090   1.086   1.450   2.329 -0.9802  0.3967 -1.5620
 1261SOL    MW4 5091   1.059   1.522   2.371 -0.0739  0.0435 -0.3469
 1262SOL     OW 5092   0.904   1.707   2.249  0.2538 -0.2254  0.5992
 1262SOL    HW2 5093   0.898   1.801   2.266 -0.3041 -0.1423 -0.0442
 1262SOL    HW3 5094   0.880   1.697   2.157  0.1860 -1.0095  0.6969
 1262SOL    MW4 5095   0.900   1.718   2.239  0.1712 -0.3179  0.5274
 1263SOL     OW 5096   0.926   1.987   2.332 -0.4561  0.3371  0.1602
 1263SOL    HW2 5097   0.928   1.980   2.427 -2.0745  0.8334  0.2566
 1263SOL    HW3 5098   1.016   2.006   2.307 -0.0641  0.4340  1.6110
 1263SOL    MW4 5099   0.938   1.989   2.341 -0.6179  0.4153  0.3648
 1264SOL     OW 5100   1.174   2.067   2.237 -0.4179  0.2062 -0.4809
 1264SOL    HW2 5101   1.224   2.008   2.293  0.2679  2.0174  0.8673
 1264SOL    HW3 5102   1.185   2.032   2.148 -0.0353 -1.6631  0.2903
 1264SOL    MW4 5103   1.182   2.055   2.232 -0.2770  0.1986 -0.2015
 1265SOL     OW 5104   1.109   2.326   2.338  0.0103  0.0359  0.1722
 1265SOL    HW2 5105   1.174   2.386   2.303  0.2596  0.1079  0.7471
 1265SOL    HW3 5106   1.127   2.243   2.295 -1.0046  0.6176 -1.4109
 1265SOL    MW4 5107   1.120   2.323   2.328 -0.0906  0.1221  0.0391
 1266SOL     OW 5108   0.856   2.439   2.283  0.3678 -0.1087  0.1544
 1266SOL    HW2 5109   0.938   2.399   2.311  0.4907  0.0626  0.0384
 1266SOL    HW3 5110   0.861   2.439   2.187  1.4647  2.4387  0.1738
 1266SOL    MW4 5111   0.868   2.434   2.274  0.5288  0.2501  0.1419
 1267SOL     OW 5112   0.932   2.690   2.376  0.5801 -0.2513 -0.0622
 1267SOL    HW2 5113   0.930   2.694   2.471  0.4510  0.1728 -0.0807
 1267SOL    HW3 5114   0.924   2.597   2.355 -0.4037 -0.2614  0.3225
 1267SOL    MW4 5115   0.930   2.678   2.386  0.4333 -0.1967 -0.0138
 1268SOL     OW 5116   1.134   2.825   2.235  0.2905  0.1072  0.1256
 1268SOL    HW2 5117   1.208   2.780   2.276  0.0399 -0.2929  0.1442
 1268SOL    HW3 5118   1.057   2.780   2.269  0.0831 -0.3362 -0.8919
 1268SOL    MW4 5119   1.134   2.813   2.245  0.2301 -0.0041 -0.0060
 1269SOL     OW 5120   1.137   3.065   2.378  0.4716 -0.4418 -0.6549
 1269SOL    HW2 5121   1.065   3.116   2.342  1.1808 -0.0356 -1.5275
 1269SOL    HW3 5122   1.134   2.982   2.331  0.8338 -0.2524 -1.0293
 1269SOL    MW4 5123   1.127   3.061   2.367  0.6130 -0.3631 -0.8194
 1270SOL     OW 5124   0.919   3.199   2.254 -0.3426  0.1157  0.0302
 1270SOL    HW2 5125   0.915   3.287   2.292 -0.7673 -0.2259  0.7844
 1270SOL    HW3 5126   0.838   3.157   2.282  0.5133 -0.9986  0.8828
 1270SOL    MW4 5127   0.908   3.205   2.262 -0.2857 -0.0765  0.2422
 1271SOL     OW 5128   0.915   3.458   2.395 -0.1966 -0.2622 -0.2304
 1271SOL    HW2 5129   0.914   3.462   2.491 -1.1859  0.5008 -0.2728
 1271SOL    HW3 5130   0.837   3.506   2.368 -1.5500 -2.9581 -1.3445
 1271SOL    MW4 5131   0.905   3.465   2.404 -0.5057 -0.5176 -0.3831
 1272SOL     OW 5132   1.113   3.599   2.279  0.1018  0.3880  0.4391
 1272SOL    HW2 5133   1.192   3.549   2.301  0.6615  1.2115  0.3400
 1272SOL    HW3 5134   1.043   3.556   2.327  0.6011 -0.3968  0.4781
 1272SOL    MW4 5135   1.114   3.586   2.288  0.2414  0.3932  0.4313
 1273SOL     OW 5136   1.130   3.870   2.379  0.9915  0.2511  0.1441
 1273SOL    HW2 5137   1.186   3.907   2.311  0.4340 -1.1690 -1.1070
 1273SOL    HW3 5138   1.106   3.784   2.346  1.5678 -0.9031  2.6089
 1273SOL    MW4 5139   1.134   3.864   2.366  0.9940 -0.0887  0.3040
 1274SOL     OW 5140   0.900   4.034   2.319 -0.0777 -0.2355 -0.2413
 1274SOL    HW2 5141   0.974   3.978   2.342 -0.1477 -0.2761 -0.1178
 1274SOL    HW3 5142   0.823   3.979   2.331 -0.1495 -0.0997 -0.0733
 1274SOL    MW4 5143   0.900   4.019   2.323 -0.0964 -0.2227 -0.2027
 1275SOL     OW 5144   0.903   4.304   2.425 -0.5338 -0.1941 -0.6084
 1275SOL    HW2 5145   0.904   4.215   2.391  0.4271 -0.5510  0.3232
 1275SOL    HW3 5146   0.827   4.345   2.383 -2.2186 -2.0498  0.5324
 1275SOL    MW4 5147   0.893   4.298   2.415 -0.6293 -0.4859 -0.3352
 1276SOL     OW 5148   1.134   4.363   2.264 -0.1730  0.3911  0.0827
 1276SOL    HW2 5149   1.065   4.340   2.326  0.6395 -0.6771  0.6060
 1276SOL    HW3 5150   1.166   4.448   2.293 -0.6043  0.4395  0.4160
 1276SOL    MW4 5151   1.129   4.371   2.276 -0.1227  0.2575  0.1960
 1277SOL     OW 5152   1.562   4.655   2.383 -0.1560  0.8489  0.3358
 1277SOL    HW2 5153   1.635   4.700   2.340  0.0738  0.6698  0.5384
 1277SOL    HW3 5154   1.484   4.696   2.346  0.0396  0.5990 -0.3684
 1277SOL    MW4 5155   1.561   4.666   2.372 -0.0999  0.7925  0.2697
 1278SOL     OW 5156   1.340   0.128   2.278 -0.5322  0.4095  0.0251
 1278SOL    HW2 5157   1.341   0.215   2.316 -0.1269  0.8683 -1.0139
 1278SOL    HW3 5158   1.271   0.081   2.326 -1.3365  1.5567  0.0018
 1278SOL    MW4 5159   1.331   0.133   2.289 -0.5848  0.6214 -0.1152
 1279SOL     OW 5160   1.345   0.385   2.416 -0.2737  0.2456 -0.4330
 1279SOL    HW2 5161   1.357   0.361   2.508 -0.0310  1.1187 -0.2347
 1279SOL    HW3 5162   1.434   0.394   2.382 -0.3550 -0.7952 -0.9525
 1279SOL    MW4 5163   1.358   0.383   2.423 -0.2525  0.2235 -0.4756
 1280SOL     OW 5164   1.597   0.441   2.300  0.1763  0.5052 -0.2920
 1280SOL    HW2 5165   1.692   0.433   2.311  0.3146  1.3542 -0.8591
 1280SOL    HW3 5166   1.585   0.457   2.207 -0.4705  1.2783 -0.0725
 1280SOL    MW4 5167   1.608   0.442   2.289  0.1091  0.7192 -0.3378
 1281SOL     OW 5168   1.571   0.719   2.358 -0.0436 -0.2530 -0.0898
 1281SOL    HW2 5169   1.649   0.746   2.310 -0.2421 -0.0536 -0.3029
 1281SOL    HW3 5170   1.572   0.623   2.353  0.2756 -0.2592  0.0538
 1281SOL    MW4 5171   1.581   0.710   2.351 -0.0278 -0.2275 -0.0989
 1282SOL     OW 5172   1.376   0.879   2.241  0.0760  0.0435  0.3428
 1282SOL    HW2 5173   1.432   0.810   2.276 -1.7688 -1.3567  0.6272
 1282SOL    HW3 5174   1.294   0.869   2.290 -0.9498  1.0125 -1.1731
 1282SOL    MW4 5175   1.373   0.868   2.252 -0.3028 -0.0134  0.1802
 1283SOL     OW 5176   1.343   1.158   2.324 -0.1167 -0.4610  0.1493
 1283SOL    HW2 5177   1.341   1.151   2.420 -0.0693 -0.3131  0.1614
 1283SOL    HW3 5178   1.358   1.069   2.294 -3.3474 -1.0636  0.1818
 1283SOL    MW4 5179   1.345   1.146   2.333 -0.5367 -0.5212  0.1550
 1284SOL     OW 5180   1.573   1.289   2.258  0.0390 -0.1686  0.2294
 1284SOL    HW2 5181   1.502   1.225   2.271 -1.0889  0.8980 -0.4872
 1284SOL    HW3 5182   1.572   1.307   2.163 -0.0862  1.3596  0.5006
 1284SOL    MW4 5183   1.563   1.283   2.247 -0.1262  0.1738  0.1707
 1285SOL     OW 5184   1.551   1.534   2.372  0.1076  0.2380 -0.1106
 1285SOL    HW2 5185   1.627   1.579   2.337  0.2732  0.0558  0.0114
 1285SOL    HW3 5186   1.553   1.447   2.331  2.2376 -1.2201  2.9011
 1285SOL    MW4 5187   1.561   1.528   2.362  0.4104  0.0216  0.3028
 1286SOL     OW 5188   1.310   1.627   2.267 -0.6922  0.5786  0.1422
 1286SOL    HW2 5189   1.393   1.606   2.309 -0.6261  0.7772  0.1118
 1286SOL    HW3 5190   1.243   1.590   2.326 -0.6024  0.9035  0.4539
 1286SOL    MW4 5191   1.312   1.620   2.281 -0.6715  0.6475  0.1793
 1287SOL     OW 5192   1.326   1.878   2.373  0.2420  0.3344  0.0028
 1287SOL    HW2 5193   1.390   1.929   2.323  1.3045 -0.5660  0.4454
 1287SOL    HW3 5194   1.322   1.794   2.328 -0.7078  0.4161 -0.0735
 1287SOL    MW4 5195   1.334   1.874   2.360  0.2568  0.2264  0.0513
 1288SOL     OW 5196   1.533   2.037   2.270 -0.2698 -0.0383 -0.3980
 1288SOL    HW2 5197   1.617   1.998   2.295 -0.9970 -1.7831 -0.5917
 1288SOL    HW3 5198   1.538   2.045   2.175  0.2914  1.3790 -0.2691
 1288SOL    MW4 5199   1.545   2.033   2.261 -0.2917 -0.0813 -0.4065
 1289SOL     OW 5200   1.555   2.315   2.311  0.6262 -0.6396  0.3979
 1289SOL    HW2 5201   1.549   2.325   2.406  0.5957 -1.3934  0.4790
 1289SOL    HW3 5202   1.550   2.220   2.297 -2.4867 -0.3803 -0.5721
 1289SOL    MW4 5203   1.553   2.303   2.322  0.2116 -0.7045  0.2804
 1290SOL     OW 5204   1.325   2.472   2.239 -0.4984 -0.0147  0.1161
 1290SOL    HW2 5205   1.394   2.411   2.264 -2.0494 -2.3833 -1.2050
 1290SOL    HW3 5206   1.331   2.478   2.144 -1.8321  0.0925  0.0263
 1290SOL    MW4 5207   1.335   2.465   2.230 -0.8789 -0.3133 -0.0701
 1291SOL     OW 5208   1.350   2.714   2.360  0.1169 -0.2163 -0.3121
 1291SOL    HW2 5209   1.422   2.756   2.312 -0.5421  1.5464  0.1740
 1291SOL    HW3 5210   1.338   2.629   2.317  1.0738  0.3644 -1.7691
 1291SOL    MW4 5211   1.358   2.709   2.348  0.1564  0.0930 -0.4401
 1292SOL     OW 5212   1.577   2.842   2.249  0.4421  0.2671  0.0779
 1292SOL    HW2 5213   1.580   2.926   2.293 -0.0981  0.5805 -0.4605
 1292SOL    HW3 5214   1.571   2.864   2.156  0.2375 -0.3606 -0.0632
 1292SOL    MW4 5215   1.577   2.856   2.242  0.3438  0.2258 -0.0117
 1293SOL     OW 5216   1.601   3.085   2.374  0.0698 -0.0448  0.0927
 1293SOL    HW2 5217   1.612   3.083   2.469  0.1697 -0.5724  0.0740
 1293SOL    HW3 5218   1.517   3.130   2.361  0.6856  1.2044  0.3681
 1293SOL    MW4 5219   1.591   3.090   2.385  0.1642  0.0503  0.1264
 1294SOL     OW 5220   1.349   3.232   2.289 -0.0411  0.4630  0.0355
 1294SOL    HW2 5221   1.269   3.190   2.320  0.3927 -0.0601  0.4644
 1294SOL    HW3 5222   1.336   3.242   2.195 -0.2421 -0.4598 -0.0464
 1294SOL    MW4 5223   1.337   3.228   2.281 -0.0105  0.2723  0.0813
 1295SOL     OW 5224   1.374   3.492   2.377  0.1892  0.3775 -0.1501
 1295SOL    HW2 5225   1.376   3.495   2.473  0.1707  0.9831 -0.1652
 1295SOL    HW3 5226   1.352   3.401   2.356  0.2747  0.2244  0.4200
 1295SOL    MW4 5227   1.371   3.481   2.387  0.1979  0.4373 -0.0765
 1296SOL     OW 5228   1.574   3.630   2.257 -0.0816  0.1321  0.3385
 1296SOL    HW2 5229   1.573   3.713   2.305  1.3687  0.3391  0.0236
 1296SOL    HW3 5230   1.505   3.578   2.298 -1.0453  1.5088  0.5122
 1296SOL    MW4 5231   1.564   3.634   2.269 -0.0174  0.3412  0.3200
 1297SOL     OW 5232   1.560   3.875   2.382  0.3709 -0.0082  0.0922
 1297SOL    HW2 5233   1.563   3.877   2.477  1.7149 -1.4416  0.0959
 1297SOL    HW3 5234   1.639   3.921   2.354 -0.5907  1.3945 -0.3536
 1297SOL    MW4 5235   1.571   3.881   2.391  0.4214 -0.0124  0.0341
 1298SOL     OW 5236   1.351   3.985   2.257 -0.1317  0.4006 -0.1860
 1298SOL    HW2 5237   1.423   3.952   2.309 -0.8681 -0.5270  0.2577
 1298SOL    HW3 5238   1.384   3.988   2.167  0.0267 -1.3068 -0.1953
 1298SOL    MW4 5239   1.365   3.981   2.252 -0.2079  0.0532 -0.1290
 1299SOL     OW 5240   1.336   4.226   2.378 -0.0257  0.4159 -0.0045
 1299SOL    HW2 5241   1.355   4.147   2.326 -0.2865  0.0738  0.4199
 1299SOL    HW3 5242   1.261   4.265   2.335 -0.1448  0.2160  0.0201
 1299SOL    MW4 5243   1.329   4.221   2.365 -0.0758  0.3443  0.0546
 1300SOL     OW 5244   1.533   4.373   2.284 -0.7235 -0.2279  0.2799
 1300SOL    HW2 5245   1.467   4.326   2.334 -1.6021  0.1975 -0.4549
 1300SOL    HW3 5246   1.541   4.458   2.328  0.0813 -0.6634  0.9730
 1300SOL    MW4 5247   1.525   4.378   2.296 -0.7333 -0.2289  0.2744
 1301SOL     OW 5248   2.010   4.664   2.360  0.2486  0.7151  0.0741
 1301SOL    HW2 5249   2.084   4.710   2.321 -0.0429  1.0804 -0.0487
 1301SOL    HW3 5250   2.024   4.572   2.337  0.4564  0.8356 -0.2834
 1301SOL    MW4 5251   2.021   4.658   2.352  0.2375  0.7796  0.0107
 1302SOL     OW 5252   1.789   0.123   2.267 -0.0073  0.5556 -0.5632
 1302SOL    HW2 5253   1.805   0.206   2.312 -1.4546  0.4546  0.1588
 1302SOL    HW3 5254   1.858   0.065   2.298 -0.2041  0.8905  0.5079
 1302SOL    MW4 5255   1.800   0.126   2.277 -0.2244  0.5864 -0.3269
 1303SOL     OW 5256   1.864   0.373   2.363  0.0635 -0.1375  0.2732
 1303SOL    HW2 5257   1.855   0.387   2.458  1.1456 -1.0105  0.5148
 1303SOL    HW3 5258   1.939   0.427   2.338 -0.8455  0.8861 -0.2795
 1303SOL    MW4 5259   1.873   0.382   2.372  0.0864 -0.1177  0.2322
 1304SOL     OW 5260   2.085   0.533   2.313  0.5213  0.0183  0.2666
 1304SOL    HW2 5261   2.066   0.618   2.353  1.3762 -0.0539  0.8463
 1304SOL    HW3 5262   2.094   0.552   2.220  0.2208  0.4830  0.3295
 1304SOL    MW4 5263   2.084   0.547   2.306  0.5946  0.0700  0.3514
 1305SOL     OW 5264   2.051   0.808   2.377  0.5160  0.0684 -0.3484
 1305SOL    HW2 5265   2.126   0.856   2.342  0.4372 -0.2383 -0.9359
 1305SOL    HW3 5266   1.979   0.830   2.318  0.2484  0.0000 -0.0491
 1305SOL    MW4 5267   2.051   0.817   2.365  0.4704  0.0189 -0.3865
 1306SOL     OW 5268   1.804   0.875   2.238  0.1751  0.0973 -0.6197
 1306SOL    HW2 5269   1.779   0.963   2.267  0.2469 -0.2882  0.6318
 1306SOL    HW3 5270   1.804   0.881   2.142 -2.4762  0.7100 -0.6169
 1306SOL    MW4 5271   1.801   0.887   2.229 -0.1652  0.1273 -0.4539
 1307SOL     OW 5272   1.766   1.121   2.377 -0.3066 -0.1734  0.0470
 1307SOL    HW2 5273   1.845   1.155   2.333 -0.2664 -0.7279 -0.3130
 1307SOL    HW3 5274   1.697   1.182   2.350 -0.2666 -0.4544 -0.7234
 1307SOL    MW4 5275   1.767   1.134   2.367 -0.2960 -0.2837 -0.1020
 1308SOL     OW 5276   2.003   1.245   2.273 -0.3059  0.1636  0.0501
 1308SOL    HW2 5277   1.998   1.335   2.305 -0.1508  0.1357  0.1478
 1308SOL    HW3 5278   2.027   1.254   2.181  1.0101  0.1694  0.3853
 1308SOL    MW4 5279   2.005   1.258   2.265 -0.1116  0.1607  0.1073
 1309SOL     OW 5280   2.005   1.523   2.354 -0.7104 -0.2011 -0.2296
 1309SOL    HW2 5281   2.013   1.565   2.440 -0.6655 -0.0008 -0.3307
 1309SOL    HW3 5282   1.921   1.553   2.321  0.9317  2.7922 -1.8914
 1309SOL    MW4 5283   1.995   1.532   2.361 -0.4880  0.2204 -0.4621
 1310SOL     OW 5284   1.774   1.647   2.265  0.7909  0.1526  0.7577
 1310SOL    HW2 5285   1.777   1.740   2.289  0.6144  0.1115  0.9413
 1310SOL    HW3 5286   1.771   1.648   2.169  0.2947  0.3516  0.7735
 1310SOL    MW4 5287   1.774   1.660   2.255  0.7023  0.1732  0.7839
 1311SOL     OW 5288   1.788   1.916   2.329 -0.2552  0.2726  0.4873
 1311SOL    HW2 5289   1.794   1.928   2.424 -0.4745 -1.0881  0.6923
 1311SOL    HW3 5290   1.838   1.988   2.292  0.6062  0.2982  1.6701
 1311SOL    MW4 5291   1.795   1.927   2.337 -0.1704  0.0966  0.6702
 1312SOL     OW 5292   2.018   2.060   2.216 -0.2114  0.3024  0.0893
 1312SOL    HW2 5293   2.094   2.011   2.247 -1.2217 -2.1139 -1.1524
 1312SOL    HW3 5294   2.028   2.063   2.121 -0.5108  1.9739  0.0890
 1312SOL    MW4 5295   2.029   2.054   2.208 -0.3841  0.2041 -0.0749
 1313SOL     OW 5296   2.004   2.316   2.332 -0.3512  0.2585  0.3884
 1313SOL    HW2 5297   2.083   2.367   2.311  0.2505 -0.6537  0.4094
 1313SOL    HW3 5298   2.019   2.231   2.292 -1.2748  0.0331  0.5093
 1313SOL    MW4 5299   2.016   2.311   2.324 -0.3936  0.1085  0.4070
 1314SOL     OW 5300   1.793   2.442   2.215 -0.2563  0.2009  0.9249
 1314SOL    HW2 5301   1.863   2.404   2.267 -0.7653 -0.6439  0.9999
 1314SOL    HW3 5302   1.716   2.390   2.237 -0.3619 -0.5050 -1.0799
 1314SOL    MW4 5303   1.792   2.430   2.225 -0.3375 -0.0036  0.6702
 1315SOL     OW 5304   1.814   2.692   2.323  0.1446  0.1100  0.2925
 1315SOL    HW2 5305   1.790   2.604   2.294 -1.3584  0.6264 -0.0411
 1315SOL    HW3 5306   1.735   2.744   2.311  0.8018  1.3369  1.2182
 1315SOL    MW4 5307   1.801   2.688   2.317  0.0330  0.3402  0.3707
 1316SOL     OW 5308   2.040   2.858   2.247  0.4896 -0.1791 -0.2619
 1316SOL    HW2 5309   2.105   2.810   2.298 -1.4087  0.0093  2.4762
 1316SOL    HW3 5310   1.958   2.811   2.265 -0.7396  1.7944 -0.6164
 1316SOL    MW4 5311   2.037   2.845   2.256  0.0770  0.1059  0.0527
 1317SOL     OW 5312   1.991   3.095   2.381  0.1609  0.1643  0.4217
 1317SOL    HW2 5313   2.072   3.143   2.360  0.8168 -0.3539  1.7253
 1317SOL    HW3 5314   1.990   3.022   2.319  1.4567 -0.6497  1.3261
 1317SOL    MW4 5315   2.002   3.092   2.370  0.4184 -0.0110  0.7129
 1318SOL     OW 5316   1.790   3.254   2.282  0.3371  0.3685 -0.5783
 1318SOL    HW2 5317   1.866   3.206   2.315  1.0241 -0.0765 -2.7493
 1318SOL    HW3 5318   1.715   3.202   2.310  0.7811  1.0037  1.8934
 1318SOL    MW4 5319   1.790   3.241   2.290  0.4863  0.3939 -0.5386
 1319SOL     OW 5320   1.811   3.523   2.369  0.0166  0.1684  0.2459
 1319SOL    HW2 5321   1.811   3.429   2.349 -0.4551 -0.0242  1.1154
 1319SOL    HW3 5322   1.743   3.559   2.312  0.1832 -0.0237 -0.0761
 1319SOL    MW4 5323   1.802   3.515   2.359 -0.0237  0.1173  0.3181
 1320SOL     OW 5324   2.049   3.606   2.266 -0.1012 -0.3991  0.4365
 1320SOL    HW2 5325   1.976   3.553   2.298 -0.8045  1.2094  1.5738
 1320SOL    HW3 5326   2.044   3.599   2.171 -0.9550 -1.3394  0.5444
 1320SOL    MW4 5327   2.039   3.598   2.258 -0.3068 -0.3111  0.6011
 1321SOL     OW 5328   1.985   3.862   2.363  0.4883  0.2496  0.1296
 1321SOL    HW2 5329   1.984   3.849   2.458  1.6977  1.5144  0.3311
 1321SOL    HW3 5330   2.022   3.781   2.328 -1.6836 -0.9830  0.5785
 1321SOL    MW4 5331   1.990   3.849   2.371  0.3614  0.2537  0.2153
 1322SOL     OW 5332   1.777   4.016   2.268  0.0188  0.4261  0.5602
 1322SOL    HW2 5333   1.847   3.955   2.291 -0.4550  0.3235  1.8053
 1322SOL    HW3 5334   1.780   4.022   2.173  1.7078  0.4172  0.6014
 1322SOL    MW4 5335   1.787   4.009   2.258  0.1792  0.4110  0.7298
 1323SOL     OW 5336   1.776   4.264   2.370 -0.2305  0.3849  0.0683
 1323SOL    HW2 5337   1.777   4.170   2.351 -1.2377  0.1445  1.1187
 1323SOL    HW3 5338   1.695   4.296   2.330 -1.3811  0.2337  2.1748
 1323SOL    MW4 5339   1.765   4.256   2.362 -0.5152  0.3333  0.4849
 1324SOL     OW 5340   2.030   4.400   2.275  0.4538 -0.0860  0.1184
 1324SOL    HW2 5341   1.943   4.364   2.286  0.3375  0.2736  0.4066
 1324SOL    HW3 5342   2.037   4.419   2.182 -0.0258  0.5062  0.2003
 1324SOL    MW4 5343   2.020   4.398   2.265  0.3753  0.0401  0.1669
 1325SOL     OW 5344   2.441   4.632   2.325  0.2905  0.3588  0.3728
 1325SOL    HW2 5345   2.527   4.666   2.297  0.5625 -0.5147  0.1237
 1325SOL    HW3 5346   2.451   4.537   2.321  0.1448  0.2274  2.9094
 1325SOL    MW4 5347   2.454   4.624   2.320  0.3071  0.2265  0.6742
 1326SOL     OW 5348   2.232   0.143   2.254 -0.0299 -0.3213 -0.0521
 1326SOL    HW2 5349   2.255   0.221   2.305  0.9007  0.1834 -1.2181
 1326SOL    HW3 5350   2.303   0.081   2.271  0.3798 -0.0864 -0.8368
 1326SOL    MW4 5351   2.245   0.145   2.263  0.1469 -0.2237 -0.3092
 1327SOL     OW 5352   2.295   0.370   2.400  0.5906  0.2938 -0.0712
 1327SOL    HW2 5353   2.364   0.420   2.358  0.2850  0.4641 -0.3773
 1327SOL    HW3 5354   2.215   0.420   2.381  0.1003 -1.0059 -1.5318
 1327SOL    MW4 5355   2.293   0.383   2.392  0.4857  0.1448 -0.3042
 1328SOL     OW 5356   2.523   0.521   2.300 -0.2754  0.4971 -0.2258
 1328SOL    HW2 5357   2.575   0.454   2.345 -0.4086  0.5905  0.0668
 1328SOL    HW3 5358   2.540   0.506   2.207  0.4039  0.6316 -0.1261
 1328SOL    MW4 5359   2.532   0.510   2.294 -0.2031  0.5272 -0.1738
 1329SOL     OW 5360   2.464   0.791   2.391  0.1389 -0.3312 -0.0877
 1329SOL    HW2 5361   2.551   0.815   2.360  0.4838  0.2742  1.3145
 1329SOL    HW3 5362   2.458   0.696   2.374  0.1703  0.0257 -2.2545
 1329SOL    MW4 5363   2.475   0.781   2.385  0.1886 -0.2042 -0.1886
 1330SOL     OW 5364   2.268   0.937   2.249 -0.0806  0.0206 -0.0779
 1330SOL    HW2 5365   2.295   1.025   2.277 -1.2859  0.4241 -0.1255
 1330SOL    HW3 5366   2.325   0.878   2.297 -0.3481  0.7972  1.2265
 1330SOL    MW4 5367   2.279   0.941   2.259 -0.2751  0.1763  0.0880
 1331SOL     OW 5368   2.300   1.192   2.346  0.3568 -0.2153  0.3901
 1331SOL    HW2 5369   2.363   1.248   2.301  0.3915  0.0490  0.7627
 1331SOL    HW3 5370   2.215   1.227   2.320  0.3276 -1.5038 -1.3008
 1331SOL    MW4 5371   2.297   1.204   2.337  0.3576 -0.3504  0.2167
 1332SOL     OW 5372   2.504   1.335   2.231 -0.4658 -0.3808  0.2726
 1332SOL    HW2 5373   2.560   1.272   2.277  1.1855  0.3192 -0.7316
 1332SOL    HW3 5374   2.500   1.411   2.289  1.4971  0.4469 -0.6523
 1332SOL    MW4 5375   2.511   1.337   2.245  0.0112 -0.1791  0.0179
 1333SOL     OW 5376   2.465   1.563   2.371  0.4021  0.5364  0.5696
 1333SOL    HW2 5377   2.495   1.562   2.462  1.2343 -0.4531  0.2996
 1333SOL    HW3 5378   2.530   1.614   2.324 -0.2201  1.3496  0.5919
 1333SOL    MW4 5379   2.477   1.569   2.377  0.4299  0.5132  0.5369
 1334SOL     OW 5380   2.237   1.657   2.232 -0.4232  0.0028  0.0382
 1334SOL    HW2 5381   2.311   1.611   2.272 -0.6080  0.7758  1.2906
 1334SOL    HW3 5382   2.160   1.606   2.258 -0.3944 -0.4910 -0.8134
 1334SOL    MW4 5383   2.237   1.644   2.241 -0.4437  0.0396  0.0911
 1335SOL     OW 5384   2.226   1.925   2.327 -0.0651  0.1163 -0.0916
 1335SOL    HW2 5385   2.304   1.967   2.291 -0.5083  0.7908 -0.2743
 1335SOL    HW3 5386   2.237   1.833   2.306  0.8582  0.1536  0.1999
 1335SOL    MW4 5387   2.238   1.919   2.320 -0.0019  0.2100 -0.0772
 1336SOL     OW 5388   2.460   2.068   2.247 -0.3152 -0.0246 -0.4737
 1336SOL    HW2 5389   2.542   2.031   2.280 -0.6979  0.8441  1.5067
 1336SOL    HW3 5390   2.468   2.061   2.151  1.3605 -1.4254 -0.2608
 1336SOL    MW4 5391   2.472   2.062   2.238 -0.1442 -0.0949 -0.1843
 1337SOL     OW 5392   2.487   2.339   2.325 -0.1806 -0.1339 -0.0265
 1337SOL    HW2 5393   2.569   2.380   2.295 -0.5937 -0.1077 -1.1612
 1337SOL    HW3 5394   2.492   2.249   2.292  0.6264 -0.9674  2.2826
 1337SOL    MW4 5395   2.498   2.333   2.316 -0.1285 -0.2403  0.1285
 1338SOL     OW 5396   2.234   2.450   2.234 -0.4102 -0.1539  0.3722
 1338SOL    HW2 5397   2.223   2.534   2.279  0.4902 -0.0451  0.3906
 1338SOL    HW3 5398   2.318   2.417   2.265  1.7815  1.3922 -3.5796
 1338SOL    MW4 5399   2.243   2.457   2.244 -0.0024  0.0644 -0.1469
 1339SOL     OW 5400   2.239   2.694   2.359  0.4756  0.2549  0.0388
 1339SOL    HW2 5401   2.243   2.713   2.453  0.9848 -0.3867  0.1502
 1339SOL    HW3 5402   2.318   2.735   2.323  0.5493  0.0575 -0.0251
 1339SOL    MW4 5403   2.250   2.702   2.367  0.5524  0.1442  0.0448
 1340SOL     OW 5404   2.453   2.823   2.275 -0.1067  0.5676 -0.0494
 1340SOL    HW2 5405   2.535   2.780   2.303 -0.0376  0.0878 -0.9735
 1340SOL    HW3 5406   2.458   2.824   2.180 -1.6935 -0.4853 -0.1680
 1340SOL    MW4 5407   2.465   2.817   2.266 -0.3071  0.3653 -0.1869
 1341SOL     OW 5408   2.466   3.085   2.356  0.0387  0.1418  0.0709
 1341SOL    HW2 5409   2.552   3.117   2.330  0.6957 -0.0830  1.9080
 1341SOL    HW3 5410   2.468   2.991   2.337 -0.3757  0.4148 -1.3596
 1341SOL    MW4 5411   2.477   3.077   2.350  0.0708  0.1481  0.1245
 1342SOL     OW 5412   2.223   3.221   2.272  0.7232 -0.4834 -0.1772
 1342SOL    HW2 5413   2.217   3.307   2.314 -0.4241 -0.4961 -0.3109
 1342SOL    HW3 5414   2.301   3.181   2.311  1.2645  0.6148 -0.1150
 1342SOL    MW4 5415   2.232   3.227   2.283  0.6430 -0.3400 -0.1867
 1343SOL     OW 5416   2.272   3.484   2.365  0.1240  0.2715  0.2071
 1343SOL    HW2 5417   2.247   3.476   2.457 -1.7327 -0.1882 -0.3072
 1343SOL    HW3 5418   2.204   3.540   2.327  0.9025  0.4865 -0.8731
 1343SOL    MW4 5419   2.260   3.490   2.372 -0.0181  0.2394 -0.0033
 1344SOL     OW 5420   2.472   3.633   2.245  0.0985  0.2485  0.1066
 1344SOL    HW2 5421   2.447   3.723   2.266  0.5238  0.4850 -0.3906
 1344SOL    HW3 5422   2.404   3.579   2.286 -0.8150  0.8554 -0.5825
 1344SOL    MW4 5423   2.459   3.637   2.253  0.0339  0.3600 -0.0498
 1345SOL     OW 5424   2.420   3.882   2.341  0.1185 -0.2228 -0.1993
 1345SOL    HW2 5425   2.411   3.879   2.436 -0.7567  0.4514 -0.2524
 1345SOL    HW3 5426   2.340   3.927   2.311  0.1421 -0.9006 -1.2819
 1345SOL    MW4 5427   2.408   3.888   2.350  0.0062 -0.2234 -0.3493
 1346SOL     OW 5428   2.199   3.994   2.246 -0.0118 -0.4170  0.1890
 1346SOL    HW2 5429   2.213   4.080   2.287 -0.8954 -0.5607  0.8211
 1346SOL    HW3 5430   2.110   3.969   2.274 -0.4483 -0.7310 -1.4444
 1346SOL    MW4 5431   2.189   4.002   2.255 -0.1860 -0.4773  0.0567
 1347SOL     OW 5432   2.236   4.246   2.360 -0.1331 -0.5264  0.5800
 1347SOL    HW2 5433   2.230   4.247   2.455  1.1524  1.3813  0.6777
 1347SOL    HW3 5434   2.161   4.296   2.330  0.6903  0.7840  0.6914
 1347SOL    MW4 5435   2.225   4.252   2.368  0.1452 -0.1020  0.6075
 1348SOL     OW 5436   2.463   4.352   2.256 -0.3496 -0.2501 -0.1483
 1348SOL    HW2 5437   2.535   4.303   2.296 -0.8754 -1.1287 -0.2694
 1348SOL    HW3 5438   2.384   4.310   2.290 -0.8013  0.0216 -0.8640
 1348SOL    MW4 5439   2.462   4.340   2.266 -0.4787 -0.3300 -0.2587
 1349SOL     OW 5440   2.916   4.642   2.371  0.3190  0.5481 -0.4368
 1349SOL    HW2 5441   2.986   4.676   2.316 -0.1098  0.6726 -0.9084
 1349SOL    HW3 5442   2.911   4.549   2.348  0.6742  0.4282 -0.0298
 1349SOL    MW4 5443   2.924   4.634   2.361  0.3095  0.5484 -0.4454
 1350SOL     OW 5444   2.679   0.084   2.257 -0.0885  0.2032 -0.1412
 1350SOL    HW2 5445   2.689   0.165   2.307  0.4157  0.9619 -1.4732
 1350SOL    HW3 5446   2.752   0.029   2.285  1.0813  1.2187 -1.1825
 1350SOL    MW4 5447   2.690   0.087   2.267  0.1323  0.4373 -0.4542
 1351SOL     OW 5448   2.707   0.322   2.380 -0.3815  0.3005  0.1185
 1351SOL    HW2 5449   2.719   0.331   2.475  0.7181  0.1724 -0.0049
 1351SOL    HW3 5450   2.784   0.364   2.342 -1.0097  0.6929 -0.7348
 1351SOL    MW4 5451   2.718   0.329   2.388 -0.3195  0.3353 -0.0103
 1352SOL     OW 5452   2.916   0.488   2.255  0.0018  0.1395 -0.7264
 1352SOL    HW2 5453   2.908   0.576   2.292 -1.8852 -0.0604 -0.5875
 1352SOL    HW3 5454   2.923   0.503   2.160 -0.3989  0.4402 -0.7097
 1352SOL    MW4 5455   2.916   0.502   2.247 -0.2999  0.1528 -0.7060
 1353SOL     OW 5456   2.939   0.741   2.373  0.0052  0.2219 -0.2096
 1353SOL    HW2 5457   2.954   0.724   2.466  0.5131 -1.2857 -0.5486
 1353SOL    HW3 5458   2.852   0.780   2.370  0.0729  0.4797  0.9208
 1353SOL    MW4 5459   2.929   0.744   2.385  0.0811  0.0570 -0.1051
 1354SOL     OW 5460   2.708   0.894   2.280 -0.1013  0.2337 -0.2768
 1354SOL    HW2 5461   2.701   0.984   2.311  3.3281  0.2700  0.7025
 1354SOL    HW3 5462   2.707   0.901   2.185  2.6765  1.6799 -0.2697
 1354SOL    MW4 5463   2.707   0.907   2.272  0.7176  0.4294 -0.1466
 1355SOL     OW 5464   2.678   1.165   2.357 -0.2650  0.1989 -0.3033
 1355SOL    HW2 5465   2.683   1.146   2.451  1.2393 -2.8305 -0.9452
 1355SOL    HW3 5466   2.765   1.200   2.335 -0.9145  1.7848 -0.4159
 1355SOL    MW4 5467   2.690   1.167   2.367 -0.1523  0.0085 -0.4032
 1356SOL     OW 5468   2.949   1.275   2.249 -0.0515 -0.4831 -0.2072
 1356SOL    HW2 5469   3.034   1.241   2.280  0.4773  1.1160  0.1430
 1356SOL    HW3 5470   2.948   1.253   2.156  0.7302 -0.5569 -0.2091
 1356SOL    MW4 5471   2.960   1.268   2.241  0.1214 -0.2817 -0.1612
 1357SOL     OW 5472   2.958   1.536   2.340 -0.1730 -0.0090  0.1457
 1357SOL    HW2 5473   2.952   1.531   2.436 -0.5878  0.0128  0.1200
 1357SOL    HW3 5474   2.963   1.444   2.312  0.6297  0.0043  0.2311
 1357SOL    MW4 5475   2.958   1.523   2.349 -0.1221 -0.0044  0.1535
 1358SOL     OW 5476   2.705   1.680   2.255  0.2684  0.4492 -0.0334
 1358SOL    HW2 5477   2.794   1.653   2.280  0.9868  1.3213 -1.5785
 1358SOL    HW3 5478   2.707   1.682   2.159 -0.5664  3.2771 -0.0259
 1358SOL    MW4 5479   2.717   1.677   2.246  0.2532  0.9375 -0.2363
 1359SOL     OW 5480   2.709   1.937   2.351  0.2083 -0.4577  0.5428
 1359SOL    HW2 5481   2.727   1.932   2.445 -2.4799  0.3733  1.1315
 1359SOL    HW3 5482   2.710   1.846   2.322 -1.8571 -0.9482  1.9659
 1359SOL    MW4 5483   2.712   1.924   2.359 -0.4189 -0.4128  0.8082
 1360SOL     OW 5484   2.921   2.080   2.215 -0.0276  0.3578 -0.5968
 1360SOL    HW2 5485   2.990   2.035   2.263  0.8002  1.2817 -0.9167
 1360SOL    HW3 5486   2.840   2.047   2.253  0.5750 -1.0278 -0.4846
 1360SOL    MW4 5487   2.919   2.070   2.226  0.1609  0.2968 -0.6242
 1361SOL     OW 5488   2.946   2.327   2.326  0.0380  0.8452  0.1055
 1361SOL    HW2 5489   2.911   2.313   2.415 -0.6483  1.7837 -0.0029
 1361SOL    HW3 5490   2.939   2.242   2.284  0.8149  0.2818  1.1142
 1361SOL    MW4 5491   2.940   2.314   2.333  0.0498  0.8948  0.2244
 1362SOL     OW 5492   2.710   2.472   2.227  0.1997  0.8074  0.0215
 1362SOL    HW2 5493   2.792   2.424   2.243 -0.2564  0.1384  0.4090
 1362SOL    HW3 5494   2.695   2.463   2.133 -0.7804 -1.3198  0.3445
 1362SOL    MW4 5495   2.719   2.464   2.217  0.0103  0.4385  0.1152
 1363SOL     OW 5496   2.693   2.716   2.361 -0.0919  0.0635 -0.1844
 1363SOL    HW2 5497   2.772   2.758   2.328  0.2309  0.4131  1.0223
 1363SOL    HW3 5498   2.696   2.628   2.323  0.5437  0.2882 -0.6706
 1363SOL    MW4 5499   2.704   2.710   2.352  0.0343  0.1395 -0.0894
 1364SOL     OW 5500   2.922   2.820   2.253  0.1438  0.2187  0.5012
 1364SOL    HW2 5501   2.931   2.904   2.298 -1.7332  0.3211  0.7070
 1364SOL    HW3 5502   2.896   2.843   2.164 -2.3671 -0.1632  1.0897
 1364SOL    MW4 5503   2.920   2.834   2.247 -0.4354  0.1822  0.6058
 1365SOL     OW 5504   2.930   3.079   2.362 -0.4938  0.4838  0.5466
 1365SOL    HW2 5505   3.002   3.130   2.326 -0.5613  0.2506  0.0883
 1365SOL    HW3 5506   2.852   3.116   2.321 -0.4998 -0.3094 -0.1483
 1365SOL    MW4 5507   2.929   3.091   2.352 -0.5035  0.3483  0.3943
 1366SOL     OW 5508   2.698   3.192   2.246  0.2177 -0.1687  0.2569
 1366SOL    HW2 5509   2.701   3.284   2.272 -0.0875  0.1084 -0.6597
 1366SOL    HW3 5510   2.700   3.195   2.150 -1.2257 -1.0494  0.1840
 1366SOL    MW4 5511   2.699   3.205   2.237 -0.0131 -0.2484  0.1266
 1367SOL     OW 5512   2.683   3.466   2.328 -0.0340 -0.5287 -0.0417
 1367SOL    HW2 5513   2.762   3.505   2.291  0.4147 -1.5431 -0.1540
 1367SOL    HW3 5514   2.614   3.530   2.309  0.5006 -0.2675 -1.1474
 1367SOL    MW4 5515   2.684   3.480   2.321  0.0954 -0.6280 -0.2022
 1368SOL     OW 5516   2.910   3.592   2.262  0.3557 -0.6386 -0.3863
 1368SOL    HW2 5517   2.986   3.547   2.300  0.6764  0.3186  0.1440
 1368SOL    HW3 5518   2.913   3.680   2.301 -1.2162 -0.6954 -0.1172
 1368SOL    MW4 5519   2.921   3.598   2.273  0.1907 -0.5198 -0.2809
 1369SOL     OW 5520   2.912   3.854   2.351  0.0567  0.8788  0.3081
 1369SOL    HW2 5521   2.900   3.859   2.446 -1.8342 -1.8139  0.2623
 1369SOL    HW3 5522   2.830   3.888   2.314 -0.3540 -0.7544 -0.3107
 1369SOL    MW4 5523   2.899   3.859   2.358 -0.2470  0.3080  0.2208
 1370SOL     OW 5524   2.664   3.976   2.270 -0.2833  0.0004  0.4814
 1370SOL    HW2 5525   2.580   3.936   2.293 -0.5010  0.8044  1.0783
 1370SOL    HW3 5526   2.656   3.996   2.176 -0.0824 -1.5694  0.1168
 1370SOL    MW4 5527   2.652   3.973   2.260 -0.2854 -0.1004  0.5124
 1371SOL     OW 5528   2.667   4.230   2.391 -0.2671 -0.0814 -0.0568
 1371SOL    HW2 5529   2.650   4.229   2.485 -0.2683 -1.1679 -0.0581
 1371SOL    HW3 5530   2.680   4.138   2.368 -0.7156  0.1291 -1.1991
 1371SOL    MW4 5531   2.666   4.218   2.400 -0.3264 -0.1974 -0.2074
 1372SOL     OW 5532   2.891   4.370   2.304 -0.5788  0.4667 -0.0089
 1372SOL    HW2 5533   2.958   4.306   2.329 -0.1532  0.3065 -1.5342
 1372SOL    HW3 5534   2.808   4.326   2.326 -0.2699 -0.3735 -0.5008
 1372SOL    MW4 5535   2.889   4.355   2.311 -0.4821  0.3347 -0.2751
 1373SOL     OW 5536   3.316   4.590   2.378 -0.2717  0.0514 -0.3199
 1373SOL    HW2 5537   3.322   4.603   2.473  0.5237 -0.0391 -0.3513
 1373SOL    HW3 5538   3.398   4.627   2.344 -0.5696  0.1112 -0.9703
 1373SOL    MW4 5539   3.328   4.597   2.386 -0.2060  0.0477 -0.4101
 1374SOL     OW 5540   3.127   0.089   2.254  0.2092  0.2185  0.0950
 1374SOL    HW2 5541   3.126   0.182   2.277 -0.4947 -0.0374  1.1376
 1374SOL    HW3 5542   3.195   0.052   2.309  0.0216  0.0012  0.1815
 1374SOL    MW4 5543   3.136   0.097   2.264  0.0916  0.1561  0.2439
 1375SOL     OW 5544   3.140   0.369   2.353 -0.0278 -0.1241 -0.1239
 1375SOL    HW2 5545   3.213   0.423   2.323 -0.1697 -0.3983 -0.9668
 1375SOL    HW3 5546   3.064   0.404   2.306 -0.1891 -0.7919 -0.3595
 1375SOL    MW4 5547   3.139   0.381   2.343 -0.0679 -0.2484 -0.2663
 1376SOL     OW 5548   3.383   0.488   2.277 -0.0475  0.1586 -0.4032
 1376SOL    HW2 5549   3.458   0.441   2.314 -0.5666 -0.5076 -0.1750
 1376SOL    HW3 5550   3.404   0.497   2.184  0.4136  0.1733 -0.3003
 1376SOL    MW4 5551   3.396   0.483   2.270 -0.0551  0.0727 -0.3595
 1377SOL     OW 5552   3.394   0.757   2.348  0.1080 -0.2508  0.1383
 1377SOL    HW2 5553   3.460   0.809   2.303  0.7596 -1.1710  0.0123
 1377SOL    HW3 5554   3.400   0.670   2.307 -1.2175 -0.3293  0.0773
 1377SOL    MW4 5555   3.403   0.752   2.336  0.0191 -0.3826  0.1135
 1378SOL     OW 5556   3.151   0.881   2.256 -0.7263  0.1373  0.3947
 1378SOL    HW2 5557   3.228   0.856   2.308  0.0452  0.6299 -0.5055
 1378SOL    HW3 5558   3.081   0.824   2.289  0.2618 -1.0271  0.5192
 1378SOL    MW4 5559   3.152   0.870   2.267 -0.4945  0.0486  0.2923
 1379SOL     OW 5560   3.169   1.129   2.398  0.6603 -0.0595  0.2643
 1379SOL    HW2 5561   3.239   1.178   2.356  0.4141 -0.7846 -1.0231
 1379SOL    HW3 5562   3.161   1.049   2.345 -1.2767  0.1263  0.2493
 1379SOL    MW4 5563   3.177   1.125   2.385  0.3724 -0.1307  0.0925
 1380SOL     OW 5564   3.354   1.317   2.301 -0.2467  0.5054 -0.3808
 1380SOL    HW2 5565   3.412   1.253   2.342  0.5040  0.1614 -1.9175
 1380SOL    HW3 5566   3.366   1.397   2.352 -0.0756 -0.1759  0.6535
 1380SOL    MW4 5567   3.364   1.319   2.313 -0.1249  0.3701 -0.4473
 1381SOL     OW 5568   3.409   1.573   2.400  0.1126  0.2953  0.3233
 1381SOL    HW2 5569   3.385   1.575   2.493  0.3103 -0.2402  0.3878
 1381SOL    HW3 5570   3.337   1.618   2.356  0.4873  1.4040  0.8340
 1381SOL    MW4 5571   3.396   1.579   2.407  0.1879  0.3710  0.3989
 1382SOL     OW 5572   3.193   1.673   2.249 -0.0072  0.4233 -0.4627
 1382SOL    HW2 5573   3.182   1.762   2.284  0.4438 -0.1487  1.1564
 1382SOL    HW3 5574   3.118   1.624   2.284  0.7907 -0.3150  0.2172
 1382SOL    MW4 5575   3.182   1.678   2.258  0.1574  0.2505 -0.1593
 1383SOL     OW 5576   3.142   1.942   2.332  0.3322 -0.0440  0.3181
 1383SOL    HW2 5577   3.155   1.933   2.426 -1.4306  1.1100  0.6913
 1383SOL    HW3 5578   3.213   2.000   2.303  0.3038  0.3701  1.0820
 1383SOL    MW4 5579   3.153   1.948   2.341  0.0961  0.1630  0.4680
 1384SOL     OW 5580   3.399   2.046   2.247  0.4596 -0.5337  0.0315
 1384SOL    HW2 5581   3.477   2.000   2.279  0.2240 -1.6636 -1.0016
 1384SOL    HW3 5582   3.417   2.065   2.155 -0.2947 -0.3935 -0.0964
 1384SOL    MW4 5583   3.411   2.042   2.239  0.3288 -0.6642 -0.1216
 1385SOL     OW 5584   3.429   2.305   2.348 -0.0625 -0.0188  0.0265
 1385SOL    HW2 5585   3.357   2.356   2.309 -0.4700 -0.6756 -0.0837
 1385SOL    HW3 5586   3.414   2.216   2.317  0.2245 -0.3463  0.8262
 1385SOL    MW4 5587   3.417   2.300   2.339 -0.0784 -0.1488  0.1173
 1386SOL     OW 5588   3.198   2.412   2.231  0.5129 -0.1711  0.3828
 1386SOL    HW2 5589   3.204   2.506   2.245  1.9146 -0.1709 -0.1839
 1386SOL    HW3 5590   3.117   2.386   2.276  0.8642  1.0689  1.7413
 1386SOL    MW4 5591   3.188   2.421   2.239  0.7441 -0.0074  0.4876
 1387SOL     OW 5592   3.174   2.707   2.302 -0.1812 -0.1111 -0.4366
 1387SOL    HW2 5593   3.169   2.691   2.396 -1.4554 -3.6999 -1.0280
 1387SOL    HW3 5594   3.090   2.748   2.280  0.7246  2.1425  0.1807
 1387SOL    MW4 5595   3.162   2.710   2.311 -0.2298 -0.2871 -0.4332
 1388SOL     OW 5596   3.417   2.815   2.230 -0.6549  0.1442 -0.3644
 1388SOL    HW2 5597   3.416   2.903   2.267 -0.7661  0.1069 -0.2810
 1388SOL    HW3 5598   3.338   2.773   2.263 -0.9909  0.2661 -1.0061
 1388SOL    MW4 5599   3.407   2.821   2.239 -0.7138  0.1554 -0.4380
 1389SOL     OW 5600   3.375   3.050   2.350  0.3223  0.1919 -0.2723
 1389SOL    HW2 5601   3.452   3.104   2.330 -0.3855  1.4932  0.4319
 1389SOL    HW3 5602   3.301   3.105   2.325 -0.4576  0.2922  2.1844
 1389SOL    MW4 5603   3.375   3.064   2.344  0.1261  0.3767  0.1452
 1390SOL     OW 5604   3.148   3.186   2.270  0.4109 -0.5211 -0.1020
 1390SOL    HW2 5605   3.137   3.276   2.299  0.8456 -0.8330  1.0760
 1390SOL    HW3 5606   3.150   3.191   2.174 -2.0123  0.4154 -0.1247
 1390SOL    MW4 5607   3.147   3.199   2.261  0.1483 -0.4387  0.0503
 1391SOL     OW 5608   3.134   3.467   2.336  0.1431  0.0122  0.2238
 1391SOL    HW2 5609   3.157   3.470   2.429  1.3074  2.3599 -0.1135
 1391SOL    HW3 5610   3.205   3.512   2.292 -1.7876  1.4258 -1.5348
 1391SOL    MW4 5611   3.146   3.473   2.342  0.0420  0.5083 -0.0527
 1392SOL     OW 5612   3.361   3.610   2.247  0.2079  0.0836  0.3712
 1392SOL    HW2 5613   3.438   3.562   2.276  0.0622  0.5483  1.5438
 1392SOL    HW3 5614   3.356   3.592   2.153  0.8102 -1.2508  0.5829
 1392SOL    MW4 5615   3.371   3.602   2.239  0.2685 -0.0310  0.5538
 1393SOL     OW 5616   3.376   3.853   2.376 -0.1053 -0.4531 -0.0059
 1393SOL    HW2 5617   3.460   3.881   2.339  0.6146 -2.3566  0.1079
 1393SOL    HW3 5618   3.366   3.762   2.346 -1.3628 -0.7615  1.2922
 1393SOL    MW4 5619   3.386   3.844   2.367 -0.1760 -0.7451  0.1802
 1394SOL     OW 5620   3.156   3.974   2.257  0.0610 -0.7826 -0.3313
 1394SOL    HW2 5621   3.237   3.946   2.298 -0.5387  0.5293  1.8246
 1394SOL    HW3 5622   3.089   3.916   2.294 -0.2467 -0.7067 -0.7605
 1394SOL    MW4 5623   3.158   3.963   2.267 -0.0589 -0.5994 -0.1035
 1395SOL     OW 5624   3.110   4.232   2.371  0.1864 -0.3053 -0.0698
 1395SOL    HW2 5625   3.188   4.276   2.338  0.1829 -0.3064 -0.0797
 1395SOL    HW3 5626   3.124   4.140   2.348  0.8700 -0.5398  1.2530
 1395SOL    MW4 5627   3.122   4.225   2.364  0.2761 -0.3366  0.1032
 1396SOL     OW 5628   3.343   4.352   2.270 -0.2584 -0.3892 -0.0528
 1396SOL    HW2 5629   3.337   4.439   2.311  0.4936 -0.4543  0.1999
 1396SOL    HW3 5630   3.386   4.368   2.186 -2.4503 -0.1453 -1.1893
 1396SOL    MW4 5631   3.348   4.366   2.264 -0.4482 -0.3657 -0.1695
 1397SOL     OW 5632   3.778   4.630   2.357  0.2128 -0.3810 -0.6707
 1397SOL    HW2 5633   3.781   4.632   2.453 -0.7658 -0.7311 -0.6335
 1397SOL    HW3 5634   3.854   4.682   2.330 -0.0280  0.4883  0.2903
 1397SOL    MW4 5635   3.789   4.637   2.366  0.0520 -0.3128 -0.5391
 1398SOL     OW 5636   3.533   0.062   2.283 -0.4220 -0.1643  0.0539
 1398SOL    HW2 5637   3.536   0.157   2.287 -0.2019 -0.1616 -0.1543
 1398SOL    HW3 5638   3.615   0.034   2.324 -0.0350 -0.2390 -0.7620
 1398SOL    MW4 5639   3.544   0.071   2.289 -0.3419 -0.1738 -0.0813
 1399SOL     OW 5640   3.592   0.322   2.352 -0.6456  0.4231  0.3893
 1399SOL    HW2 5641   3.617   0.311   2.444 -0.5354  0.0396  0.3131
 1399SOL    HW3 5642   3.657   0.383   2.317 -0.6853  0.5666  0.5638
 1399SOL    MW4 5643   3.604   0.329   2.360 -0.6363  0.3914  0.4022
 1400SOL     OW 5644   3.818   0.516   2.269  0.0439  0.2095  0.1688
 1400SOL    HW2 5645   3.821   0.602   2.310  0.8189  0.3003 -0.0734
 1400SOL    HW3 5646   3.851   0.530   2.180 -0.5235 -0.2035 -0.1164
 1400SOL    MW4 5647   3.822   0.529   2.263  0.0713  0.1670  0.0994
 1401SOL     OW 5648   3.842   0.759   2.378  0.2507  0.1370  0.1072
 1401SOL    HW2 5649   3.834   0.747   2.473  0.6409  1.1313  0.2719
 1401SOL    HW3 5650   3.921   0.812   2.367  0.2607 -0.0508 -0.7829
 1401SOL    MW4 5651   3.851   0.765   2.389  0.3033  0.2434  0.0114
 1402SOL     OW 5652   3.620   0.905   2.272  0.1727  0.1303  0.4312
 1402SOL    HW2 5653   3.696   0.853   2.302 -0.5978 -1.1539  0.1852
 1402SOL    HW3 5654   3.634   0.915   2.178  1.2166  1.8797  0.7552
 1402SOL    MW4 5655   3.632   0.900   2.264  0.2086  0.1918  0.4416
 1403SOL     OW 5656   3.558   1.135   2.394 -0.0055 -0.1498 -0.5827
 1403SOL    HW2 5657   3.562   1.128   2.489  0.1954 -1.7877 -0.6973
 1403SOL    HW3 5658   3.586   1.049   2.362  0.6442  0.6057 -2.1357
 1403SOL    MW4 5659   3.562   1.123   2.402  0.1068 -0.2662 -0.8023
 1404SOL     OW 5660   3.791   1.276   2.259 -0.2749 -0.2141 -0.1750
 1404SOL    HW2 5661   3.802   1.367   2.287 -1.0331 -0.4103  0.7640
 1404SOL    HW3 5662   3.706   1.250   2.293 -1.1346 -0.5303 -2.4733
 1404SOL    MW4 5663   3.782   1.285   2.267 -0.4885 -0.2817 -0.3545
 1405SOL     OW 5664   3.853   1.532   2.364 -0.1686  0.0664  0.5536
 1405SOL    HW2 5665   3.852   1.533   2.460 -1.3071 -0.4099  0.5572
 1405SOL    HW3 5666   3.781   1.590   2.339  1.0805  1.3947 -0.0404
 1405SOL    MW4 5667   3.844   1.540   2.373 -0.1540  0.1787  0.4756
 1406SOL     OW 5668   3.633   1.650   2.273  0.1553 -0.0074  0.1274
 1406SOL    HW2 5669   3.549   1.630   2.313  0.3909  0.6455  0.9648
 1406SOL    HW3 5670   3.621   1.629   2.180 -0.0103 -2.6871  0.7220
 1406SOL    MW4 5671   3.621   1.645   2.266  0.1645 -0.2748  0.3164
 1407SOL     OW 5672   3.613   1.920   2.364 -0.4344  0.0994 -0.0626
 1407SOL    HW2 5673   3.689   1.973   2.342 -0.7165 -0.1354 -1.6680
 1407SOL    HW3 5674   3.627   1.836   2.320 -1.0998 -0.3375  0.5277
 1407SOL    MW4 5675   3.625   1.916   2.355 -0.5596  0.0110 -0.1965
 1408SOL     OW 5676   3.859   2.035   2.299 -0.0844  0.1084  0.3380
 1408SOL    HW2 5677   3.947   1.997   2.303  0.5506  1.4750 -0.3180
 1408SOL    HW3 5678   3.845   2.051   2.205 -1.5384 -1.2583  0.3068
 1408SOL    MW4 5679   3.869   2.032   2.287 -0.1924  0.1082  0.2475
 1409SOL     OW 5680   3.832   2.291   2.405 -0.1120  0.1254  0.0628
 1409SOL    HW2 5681   3.776   2.347   2.352  1.0820  2.1884  0.9499
 1409SOL    HW3 5682   3.848   2.214   2.350 -0.2395  1.4809 -1.8849
 1409SOL    MW4 5683   3.827   2.288   2.391  0.0286  0.5765 -0.0768
 1410SOL     OW 5684   3.634   2.445   2.251 -0.1873  0.3699 -0.5583
 1410SOL    HW2 5685   3.557   2.404   2.289 -1.6626  1.0531 -2.6980
 1410SOL    HW3 5686   3.609   2.463   2.160  2.4668  0.6816 -1.2583
 1410SOL    MW4 5687   3.620   2.442   2.244 -0.0315  0.5012 -0.9329
 1411SOL     OW 5688   3.646   2.711   2.365  0.6224  0.7745  0.0337
 1411SOL    HW2 5689   3.663   2.628   2.320  0.1533  0.9879 -0.5483
 1411SOL    HW3 5690   3.558   2.735   2.338  0.2526  0.8116  1.2360
 1411SOL    MW4 5691   3.637   2.703   2.356  0.5116  0.8078  0.1154
 1412SOL     OW 5692   3.847   2.843   2.250  0.4027  0.0659 -0.0263
 1412SOL    HW2 5693   3.826   2.935   2.265 -1.7463 -0.6602  1.8015
 1412SOL    HW3 5694   3.773   2.795   2.290  2.1615 -2.4670  0.3056
 1412SOL    MW4 5695   3.834   2.849   2.257  0.3512 -0.3643  0.2587
 1413SOL     OW 5696   3.808   3.088   2.354 -0.0921 -0.6009  0.3395
 1413SOL    HW2 5697   3.806   3.095   2.450 -1.6602  2.1460  0.1685
 1413SOL    HW3 5698   3.873   3.154   2.327 -0.4496 -0.6014 -0.5351
 1413SOL    MW4 5699   3.817   3.098   2.363 -0.3462 -0.2384  0.2015
 1414SOL     OW 5700   3.579   3.216   2.252  0.0676  0.0684 -0.1659
 1414SOL    HW2 5701   3.568   3.299   2.299 -1.2074 -0.8322  1.1946
 1414SOL    HW3 5702   3.656   3.177   2.292  0.2618  0.2906 -0.3233
 1414SOL    MW4 5703   3.587   3.222   2.264 -0.0751 -0.0212 -0.0074
 1415SOL     OW 5704   3.567   3.475   2.354 -0.2612 -0.4339  0.3781
 1415SOL    HW2 5705   3.547   3.478   2.448 -1.7864  0.4426  0.0311
 1415SOL    HW3 5706   3.652   3.518   2.346 -0.8774  0.9344  1.1499
 1415SOL    MW4 5707   3.576   3.481   2.365 -0.5438 -0.1378  0.4344
 1416SOL     OW 5708   3.815   3.596   2.287 -0.1693 -0.1163 -0.0590
 1416SOL    HW2 5709   3.832   3.690   2.295  1.9629 -0.5445  0.7364
 1416SOL    HW3 5710   3.816   3.580   2.193  0.1483  0.5364 -0.1734
 1416SOL    MW4 5711   3.817   3.606   2.275  0.1538 -0.0868  0.0308
 1417SOL     OW 5712   3.856   3.863   2.341 -0.2795  0.0009  0.0335
 1417SOL    HW2 5713   3.870   3.874   2.435 -1.4227  1.5387  0.0481
 1417SOL    HW3 5714   3.918   3.923   2.300 -0.2926 -0.1148 -0.1556
 1417SOL    MW4 5715   3.866   3.872   2.348 -0.4323  0.1886  0.0105
 1418SOL     OW 5716   3.600   3.962   2.260  0.5610 -0.3615 -0.1431
 1418SOL    HW2 5717   3.602   4.054   2.287 -0.0483 -0.3623 -0.0910
 1418SOL    HW3 5718   3.682   3.926   2.294  1.6644  0.5903 -1.7130
 1418SOL    MW4 5719   3.611   3.970   2.268  0.6258 -0.2360 -0.3433
 1419SOL     OW 5720   3.586   4.220   2.369 -0.1967 -0.3858 -0.2153
 1419SOL    HW2 5721   3.651   4.287   2.350  0.2400 -0.9958 -0.8956
 1419SOL    HW3 5722   3.505   4.253   2.330 -0.6944  1.1320  2.0264
 1419SOL    MW4 5723   3.584   4.233   2.361 -0.2048 -0.2661 -0.0095
 1420SOL     OW 5724   3.796   4.371   2.260 -0.1032  0.3272 -0.5009
 1420SOL    HW2 5725   3.876   4.334   2.297 -0.3170 -0.7767 -1.1493
 1420SOL    HW3 5726   3.799   4.464   2.285  1.5333  0.3601 -0.8199
 1420SOL    MW4 5727   3.807   4.379   2.268  0.0844  0.1860 -0.6285
 1421SOL     OW 5728   4.261   4.660   2.360 -0.3626 -0.7179  0.0082
 1421SOL    HW2 5729   4.269   4.671   2.455 -0.3227  1.1418 -0.1750
 1421SOL    HW3 5730   4.342   4.700   2.326  0.2930 -2.6482 -0.7461
 1421SOL    MW4 5731   4.273   4.667   2.368 -0.2704 -0.7272 -0.1156
 1422SOL     OW 5732   4.031   0.100   2.274 -0.0906 -0.3471 -0.6395
 1422SOL    HW2 5733   4.025   0.182   2.323 -1.3613 -1.1294  0.5588
 1422SOL    HW3 5734   4.114   0.062   2.301 -0.0635 -0.0308 -0.2762
 1422SOL    MW4 5735   4.041   0.106   2.284 -0.2551 -0.4086 -0.4334
 1423SOL     OW 5736   4.029   0.365   2.370 -0.3067  0.3782  0.2824
 1423SOL    HW2 5737   4.102   0.420   2.343 -0.5646  0.6925  0.2253
 1423SOL    HW3 5738   3.951   0.415   2.348 -0.5303  0.4927  1.2930
 1423SOL    MW4 5739   4.028   0.379   2.364 -0.3700  0.4348  0.4084
 1424SOL     OW 5740   4.269   0.482   2.282 -0.3369 -0.2678  0.6291
 1424SOL    HW2 5741   4.281   0.576   2.296 -0.6977 -0.1726  0.2974
 1424SOL    HW3 5742   4.339   0.441   2.334  0.6601  0.2379 -0.2783
 1424SOL    MW4 5743   4.280   0.489   2.291 -0.2527 -0.1886  0.4656
 1425SOL     OW 5744   4.292   0.739   2.355 -0.1304 -0.4857 -0.3242
 1425SOL    HW2 5745   4.215   0.788   2.328  0.0499 -1.2805 -2.4054
 1425SOL    HW3 5746   4.365   0.799   2.341 -0.1812 -0.3771 -0.1312
 1425SOL    MW4 5747   4.292   0.753   2.350 -0.1130 -0.5763 -0.5734
 1426SOL     OW 5748   4.068   0.908   2.304 -0.4892  0.1398 -0.4364
 1426SOL    HW2 5749   4.060   0.992   2.350  1.4100  0.0100  0.1650
 1426SOL    HW3 5750   4.054   0.930   2.212  1.5537  1.4149 -0.4765
 1426SOL    MW4 5751   4.065   0.922   2.298  0.0310  0.2909 -0.3626
 1427SOL     OW 5752   4.025   1.185   2.356  0.0533  0.1455  0.0635
 1427SOL    HW2 5753   4.029   1.195   2.451  0.7719  0.3732  0.0151
 1427SOL    HW3 5754   3.937   1.214   2.332 -1.1263 -2.4611  0.9637
 1427SOL    MW4 5755   4.014   1.190   2.365 -0.0072 -0.1684  0.1757
 1428SOL     OW 5756   4.269   1.280   2.224  0.3167 -0.1726 -0.2395
 1428SOL    HW2 5757   4.188   1.249   2.264  0.3542 -0.3549 -0.3025
 1428SOL    HW3 5758   4.338   1.232   2.270  0.3999  0.1287 -0.0500
 1428SOL    MW4 5759   4.267   1.269   2.236  0.3328 -0.1569 -0.2224
 1429SOL     OW 5760   4.298   1.502   2.381  0.0133 -0.1938 -0.2660
 1429SOL    HW2 5761   4.294   1.423   2.327 -0.7179 -1.3103  1.3843
 1429SOL    HW3 5762   4.383   1.540   2.360  0.8891 -2.0605 -0.2003
 1429SOL    MW4 5763   4.309   1.497   2.371  0.0319 -0.5875 -0.0396
 1430SOL     OW 5764   4.091   1.642   2.280 -0.3158  0.5196 -0.5297
 1430SOL    HW2 5765   4.152   1.580   2.321  1.1016  0.6049 -2.4573
 1430SOL    HW3 5766   4.004   1.605   2.298  0.3511 -0.3248  1.0719
 1430SOL    MW4 5767   4.088   1.629   2.288 -0.0410  0.4195 -0.5727
 1431SOL     OW 5768   4.128   1.924   2.359  0.3050 -0.3683 -0.4663
 1431SOL    HW2 5769   4.111   1.928   2.454 -0.0350 -0.5981 -0.5169
 1431SOL    HW3 5770   4.112   1.833   2.336  0.3090 -0.2931 -0.7611
 1431SOL    MW4 5771   4.124   1.913   2.369  0.2613 -0.3887 -0.5121
 1432SOL     OW 5772   4.332   2.053   2.224  0.4067 -0.0221 -0.3077
 1432SOL    HW2 5773   4.345   2.139   2.263  1.2667 -0.8478  1.2632
 1432SOL    HW3 5774   4.262   2.014   2.276  2.1992 -1.4924  1.0638
 1432SOL    MW4 5775   4.324   2.059   2.236  0.7567 -0.3250  0.0806
 1433SOL     OW 5776   4.302   2.275   2.394 -0.2140 -0.2375  0.2670
 1433SOL    HW2 5777   4.224   2.317   2.358  0.2587 -0.6101 -1.2259
 1433SOL    HW3 5778   4.374   2.332   2.369 -0.0315  0.3538  2.0436
 1433SOL    MW4 5779   4.301   2.288   2.386 -0.1278 -0.2086  0.3042
 1434SOL     OW 5780   4.087   2.425   2.285  0.0734  0.0204 -0.1599
 1434SOL    HW2 5781   4.074   2.518   2.304  1.0614  0.4338 -1.4473
 1434SOL    HW3 5782   4.006   2.384   2.314  0.1223  1.0988  1.5767
 1434SOL    MW4 5783   4.074   2.432   2.291  0.2103  0.2172 -0.1006
 1435SOL     OW 5784   4.091   2.706   2.354 -0.1019  0.0071 -0.2337
 1435SOL    HW2 5785   4.073   2.681   2.444 -1.6892 -0.4992 -0.6650
 1435SOL    HW3 5786   4.015   2.759   2.328  0.3361  0.1460 -1.2629
 1435SOL    MW4 5787   4.078   2.710   2.362 -0.2537 -0.0415 -0.4263
 1436SOL     OW 5788   4.307   2.858   2.253 -0.2711 -0.6546  0.2838
 1436SOL    HW2 5789   4.233   2.813   2.292  0.0195 -0.2405  1.3207
 1436SOL    HW3 5790   4.384   2.810   2.284 -0.0298 -0.1973  0.3961
 1436SOL    MW4 5791   4.308   2.846   2.262 -0.2012 -0.5395  0.4356
 1437SOL     OW 5792   4.224   3.110   2.333  0.2376 -0.1716 -0.0900
 1437SOL    HW2 5793   4.236   3.020   2.303  0.7074  0.0153 -0.4458
 1437SOL    HW3 5794   4.307   3.153   2.317 -0.5811  0.8574 -1.7304
 1437SOL    MW4 5795   4.236   3.104   2.327  0.1922 -0.0112 -0.3533
 1438SOL     OW 5796   4.001   3.266   2.279 -0.2884  0.2022 -0.1323
 1438SOL    HW2 5797   4.020   3.353   2.313 -1.0667 -0.1991  1.3758
 1438SOL    HW3 5798   4.075   3.212   2.307 -0.4252  0.0973  0.0263
 1438SOL    MW4 5799   4.013   3.270   2.287 -0.4096  0.1354  0.0873
 1439SOL     OW 5800   4.069   3.525   2.372 -0.0626 -0.3322 -0.1543
 1439SOL    HW2 5801   4.143   3.573   2.335  0.8166 -2.6844 -1.5485
 1439SOL    HW3 5802   3.992   3.574   2.344  0.8502  0.8382 -0.6476
 1439SOL    MW4 5803   4.069   3.538   2.363  0.1731 -0.4880 -0.4034
 1440SOL     OW 5804   4.286   3.683   2.295 -0.3034 -0.0125 -0.5465
 1440SOL    HW2 5805   4.253   3.767   2.327  0.5834  0.4213 -0.7506
 1440SOL    HW3 5806   4.264   3.682   2.202 -1.5184 -0.6026 -0.2584
 1440SOL    MW4 5807   4.279   3.694   2.287 -0.3471 -0.0331 -0.5355
 1441SOL     OW 5808   4.236   3.944   2.365 -0.6592  0.3306  0.3389
 1441SOL    HW2 5809   4.240   3.923   2.459  0.0476  1.9779  0.7070
 1441SOL    HW3 5810   4.328   3.952   2.339 -0.8517 -0.4180 -0.5663
 1441SOL    MW4 5811   4.249   3.943   2.374 -0.5918  0.4492  0.2677
 1442SOL     OW 5812   4.023   4.049   2.239 -0.2320 -0.5704  0.5954
 1442SOL    HW2 5813   4.102   4.014   2.280  0.4535  0.4425  0.1352
 1442SOL    HW3 5814   4.037   4.038   2.145  0.2897  1.5247  0.3966
 1442SOL    MW4 5815   4.035   4.043   2.232 -0.0730 -0.1607  0.5085
 1443SOL     OW 5816   4.036   4.281   2.375 -0.3015 -0.3145  0.1831
 1443SOL    HW2 5817   4.118   4.326   2.355 -0.4057  0.3480  1.1760
 1443SOL    HW3 5818   4.039   4.201   2.323  0.7660 -0.0787 -0.1375
 1443SOL    MW4 5819   4.047   4.277   2.365 -0.1745 -0.1960  0.2716
 1444SOL     OW 5820   4.266   4.394   2.265  0.3237  0.2495  0.3471
 1444SOL    HW2 5821   4.274   4.481   2.305  1.3352  0.2720  0.1247
 1444SOL    HW3 5822   4.333   4.341   2.309  1.3072  0.2148 -1.1486
 1444SOL    MW4 5823   4.276   4.398   2.276  0.5875  0.2480  0.1204
 1445SOL     OW 5824   0.229   4.656   2.687 -0.1664 -0.5320  0.1987
 1445SOL    HW2 5825   0.227   4.573   2.734 -0.6331  0.0938  1.3256
 1445SOL    HW3 5826   0.149   4.701   2.716 -0.5418 -0.1957 -1.3333
 1445SOL    MW4 5827   0.218   4.651   2.697 -0.2775 -0.4051  0.1450
 1446SOL     OW 5828   4.470   0.099   2.751 -0.1869 -0.2088 -0.9328
 1446SOL    HW2 5829   4.452   0.094   2.845  0.6272  0.2372 -0.7460
 1446SOL    HW3 5830   4.473   0.193   2.733  0.2120 -0.2914 -1.2913
 1446SOL    MW4 5831   4.468   0.111   2.761 -0.0269 -0.1609 -0.9553
 1447SOL     OW 5832   4.464   0.374   2.698  0.7601  0.5862  0.1835
 1447SOL    HW2 5833   4.547   0.403   2.736  0.9072 -0.0857  0.3821
 1447SOL    HW3 5834   4.478   0.376   2.603  1.2100 -0.1177  0.2323
 1447SOL    MW4 5835   4.477   0.378   2.690  0.8388  0.4046  0.2160
 1448SOL     OW 5836   0.212   0.514   2.729  0.3093 -0.3707  0.1700
 1448SOL    HW2 5837   0.213   0.507   2.824  0.0925 -0.4539  0.1649
 1448SOL    HW3 5838   0.300   0.486   2.702  0.7801  0.8290  0.4268
 1448SOL    MW4 5839   0.224   0.509   2.738  0.3428 -0.2234  0.2034
 1449SOL     OW 5840   0.175   0.803   2.628 -0.0704 -0.3592 -0.0430
 1449SOL    HW2 5841   0.265   0.824   2.654 -0.7354 -0.5201  2.5686
 1449SOL    HW3 5842   0.165   0.710   2.648 -0.5181 -0.5888 -1.2835
 1449SOL    MW4 5843   0.186   0.794   2.634 -0.2172 -0.4107  0.1378
 1450SOL     OW 5844   4.465   0.925   2.746  0.3021  0.0864  0.2596
 1450SOL    HW2 5845   4.387   0.878   2.719 -0.0273 -0.7548  2.5927
 1450SOL    HW3 5846   4.537   0.880   2.701 -0.5252  0.9771 -2.0362
 1450SOL    MW4 5847   4.464   0.913   2.736  0.1497  0.0929  0.2644
 1451SOL     OW 5848   4.485   1.168   2.631 -0.2694 -0.1109 -0.2181
 1451SOL    HW2 5849   4.568   1.195   2.670 -0.3392  0.5048 -0.5027
 1451SOL    HW3 5850   4.474   1.077   2.659 -0.0832  0.1748  0.8129
 1451SOL    MW4 5851   4.494   1.159   2.640 -0.2541  0.0080 -0.1199
 1452SOL     OW 5852   0.236   1.245   2.752 -0.4878 -0.2315  0.1659
 1452SOL    HW2 5853   0.311   1.199   2.715 -1.0838 -0.3469 -0.9527
 1452SOL    HW3 5854   0.233   1.328   2.704 -1.0986 -0.2545  0.1579
 1452SOL    MW4 5855   0.245   1.250   2.741 -0.6470 -0.2497  0.0172
 1453SOL     OW 5856   0.249   1.502   2.629 -0.0204 -0.0092 -0.4586
 1453SOL    HW2 5857   0.319   1.548   2.677  0.0592  0.0701 -0.6483
 1453SOL    HW3 5858   0.168   1.538   2.665  0.0146 -0.8962  0.5467
 1453SOL    MW4 5859   0.248   1.513   2.640 -0.0053 -0.1158 -0.3510
 1454SOL     OW 5860   0.032   1.645   2.724  0.2096 -0.0937 -0.2182
 1454SOL    HW2 5861   0.007   1.632   2.816  0.4521 -0.8437 -0.2594
 1454SOL    HW3 5862   0.026   1.740   2.711 -2.3494 -0.2043 -0.1396
 1454SOL    MW4 5863   0.028   1.656   2.734 -0.0960 -0.2073 -0.2131
 1455SOL     OW 5864   0.001   1.912   2.702  0.1420  0.6951  0.0306
 1455SOL    HW2 5865   0.088   1.948   2.720 -0.5824  2.0284  0.9621
 1455SOL    HW3 5866  -0.002   1.905   2.606  1.8357 -0.8593  0.0498
 1455SOL    MW4 5867   0.012   1.916   2.691  0.2699  0.6659  0.1557
 1456SOL     OW 5868   0.246   2.030   2.754 -0.3228 -0.6239 -0.0670
 1456SOL    HW2 5869   0.316   1.986   2.705 -0.2110  0.7528 -1.1971
 1456SOL    HW3 5870   0.248   2.120   2.722 -0.6153  0.1871  2.1198
 1456SOL    MW4 5871   0.255   2.036   2.743 -0.3467 -0.3355  0.0722
 1457SOL     OW 5872   0.226   2.283   2.672  0.1174 -0.2814  0.1728
 1457SOL    HW2 5873   0.303   2.304   2.724 -0.2537  0.6435  0.3643
 1457SOL    HW3 5874   0.158   2.341   2.706 -0.7060 -1.2137  0.1280
 1457SOL    MW4 5875   0.227   2.294   2.683 -0.0402 -0.2823  0.1919
 1458SOL     OW 5876   0.024   2.444   2.776  0.1101 -0.0031 -0.1023
 1458SOL    HW2 5877   0.012   2.437   2.870 -0.8519 -0.9849 -0.2866
 1458SOL    HW3 5878  -0.055   2.405   2.738  0.0899  1.1626 -1.3134
 1458SOL    MW4 5879   0.012   2.438   2.783 -0.0200  0.0212 -0.2863
 1459SOL     OW 5880   4.486   2.693   2.661 -0.7286  0.5188  0.4706
 1459SOL    HW2 5881   4.402   2.734   2.683 -2.0660 -2.1592  0.6590
 1459SOL    HW3 5882   4.490   2.616   2.718  0.7821 -0.6439 -1.1553
 1459SOL    MW4 5883   4.475   2.688   2.671 -0.7057  0.0122  0.2809
 1460SOL     OW 5884   0.248   2.809   2.750 -0.1492 -0.2565  0.1461
 1460SOL    HW2 5885   0.266   2.894   2.710  1.0450  0.1409  1.4478
 1460SOL    HW3 5886   0.165   2.782   2.713 -0.8603  1.7739  0.1832
 1460SOL    MW4 5887   0.240   2.817   2.740 -0.0855  0.0634  0.3226
 1461SOL     OW 5888   0.244   3.085   2.646 -0.1730  0.2367 -0.5224
 1461SOL    HW2 5889   0.324   3.133   2.666  0.2864 -0.0761 -1.5926
 1461SOL    HW3 5890   0.241   3.080   2.551 -1.9814  1.0839 -0.5328
 1461SOL    MW4 5891   0.254   3.090   2.636 -0.3510  0.3073 -0.6654
 1462SOL     OW 5892   0.032   3.240   2.742 -0.0027 -0.1881  0.3324
 1462SOL    HW2 5893  -0.044   3.193   2.709 -0.2445  0.2492  0.2673
 1462SOL    HW3 5894   0.106   3.181   2.725 -0.2963 -0.5091  0.1815
 1462SOL    MW4 5895   0.032   3.226   2.735 -0.0733 -0.1729  0.3040
 1463SOL     OW 5896   4.477   3.491   2.628  0.4893  0.0781 -0.3628
 1463SOL    HW2 5897   4.555   3.534   2.662  0.4534  0.3551 -0.6317
 1463SOL    HW3 5898   4.485   3.400   2.658  0.3320  0.3795  0.5848
 1463SOL    MW4 5899   4.488   3.485   2.636  0.4640  0.1545 -0.2730
 1464SOL     OW 5900   0.204   3.610   2.727  0.1684  0.2217  0.0636
 1464SOL    HW2 5901   0.221   3.603   2.821  0.4685 -1.0444 -0.0756
 1464SOL    HW3 5902   0.274   3.560   2.686 -0.5021 -0.0346 -0.7838
 1464SOL    MW4 5903   0.215   3.603   2.734  0.1195  0.0210 -0.0665
 1465SOL     OW 5904   0.200   3.880   2.677  0.4333  0.0322  0.0252
 1465SOL    HW2 5905   0.215   3.786   2.687 -0.4987 -0.2448 -1.1050
 1465SOL    HW3 5906   0.218   3.897   2.584 -1.4506  0.5643 -0.2684
 1465SOL    MW4 5907   0.204   3.870   2.666  0.0618  0.0658 -0.1626
 1466SOL     OW 5908   4.462   4.041   2.758  0.2089 -0.0287  0.0990
 1466SOL    HW2 5909   4.463   4.128   2.717 -2.0425 -0.7570 -1.5572
 1466SOL    HW3 5910   4.548   4.004   2.737  0.0396  0.6198 -1.7862
 1466SOL    MW4 5911   4.474   4.048   2.750 -0.1106 -0.0401 -0.3684
 1467SOL     OW 5912   4.486   4.318   2.632  0.3270  0.3431 -0.3828
 1467SOL    HW2 5913   4.411   4.347   2.683 -0.2395 -0.1986 -0.9022
 1467SOL    HW3 5914   4.562   4.341   2.686 -0.2693 -0.4896  0.8520
 1467SOL    MW4 5915   4.486   4.325   2.646  0.1740  0.1616 -0.2882
 1468SOL     OW 5916   0.246   4.379   2.747  0.7149 -0.2528 -0.6929
 1468SOL    HW2 5917   0.236   4.371   2.842 -1.6212 -0.2674 -0.8995
 1468SOL    HW3 5918   0.323   4.327   2.726  0.5823 -1.1852  1.0551
 1468SOL    MW4 5919   0.254   4.371   2.757  0.3892 -0.3777 -0.4895
 1469SOL     OW 5920   0.668   4.645   2.654 -0.2428 -0.2895 -0.1006
 1469SOL    HW2 5921   0.750   4.685   2.685 -0.1556 -0.2957 -0.3218
 1469SOL    HW3 5922   0.599   4.697   2.696 -0.1596  1.3326 -1.8774
 1469SOL    MW4 5923   0.670   4.657   2.663 -0.2203 -0.0768 -0.3641
 1470SOL     OW 5924   0.459   0.132   2.760 -0.0789 -0.0626 -0.4088
 1470SOL    HW2 5925   0.442   0.144   2.854 -0.4397  0.8158 -0.5828
 1470SOL    HW3 5926   0.384   0.082   2.728 -0.1938  0.0508 -0.3180
 1470SOL    MW4 5927   0.447   0.127   2.768 -0.1417  0.0682 -0.4199
 1471SOL     OW 5928   0.457   0.388   2.668  0.1232  0.0373  0.2219
 1471SOL    HW2 5929   0.536   0.429   2.703 -0.5071  0.2892  1.3613
 1471SOL    HW3 5930   0.459   0.299   2.701 -0.0550  0.0285  0.2069
 1471SOL    MW4 5931   0.468   0.382   2.677  0.0165  0.0694  0.3700
 1472SOL     OW 5932   0.696   0.490   2.762 -0.0931 -0.1964  0.6071
 1472SOL    HW2 5933   0.702   0.503   2.856  0.7337 -1.0530  0.6776
 1472SOL    HW3 5934   0.776   0.443   2.739  0.4518  1.3284 -0.7630
 1472SOL    MW4 5935   0.707   0.486   2.771  0.0879 -0.1083  0.4358
 1473SOL     OW 5936   0.691   0.750   2.691 -0.0668 -0.3801 -0.3382
 1473SOL    HW2 5937   0.768   0.804   2.707  0.6913 -0.9764 -1.8875
 1473SOL    HW3 5938   0.718   0.661   2.716 -0.4007 -0.5139 -0.4414
 1473SOL    MW4 5939   0.705   0.745   2.696 -0.0108 -0.4764 -0.5562
 1474SOL     OW 5940   0.437   0.859   2.742  0.0952  0.5074  0.2564
 1474SOL    HW2 5941   0.440   0.953   2.726  1.7172  0.7244  1.6739
 1474SOL    HW3 5942   0.525   0.828   2.719 -0.1435 -0.5116  0.6822
 1474SOL    MW4 5943   0.449   0.867   2.737  0.2777  0.4017  0.4997
 1475SOL     OW 5944   0.450   1.109   2.646 -0.1952  0.0414  0.0600
 1475SOL    HW2 5945   0.516   1.168   2.682 -0.3473 -0.2981  0.9016
 1475SOL    HW3 5946   0.457   1.120   2.551  0.1404  1.0211  0.1920
 1475SOL    MW4 5947   0.460   1.118   2.638 -0.1710  0.1259  0.1884
 1476SOL     OW 5948   0.648   1.288   2.739  0.9267  0.4874  0.4513
 1476SOL    HW2 5949   0.664   1.271   2.832 -0.5896 -1.1392  0.4433
 1476SOL    HW3 5950   0.727   1.256   2.695  0.9086 -0.3714  1.0351
 1476SOL    MW4 5951   0.661   1.282   2.745  0.7243  0.1596  0.5271
 1477SOL     OW 5952   0.682   1.541   2.651  0.9317  0.6536 -0.0147
 1477SOL    HW2 5953   0.608   1.596   2.678 -0.0590 -0.1477 -1.0324
 1477SOL    HW3 5954   0.663   1.455   2.688  1.4912  0.5104 -0.0586
 1477SOL    MW4 5955   0.670   1.537   2.659  0.8749  0.5289 -0.1550
 1478SOL     OW 5956   0.451   1.680   2.749  0.0026 -0.3618  0.0066
 1478SOL    HW2 5957   0.453   1.673   2.845 -1.1067 -0.6674  0.0100
 1478SOL    HW3 5958   0.461   1.774   2.733 -0.5757 -0.2150  0.4571
 1478SOL    MW4 5959   0.452   1.692   2.760 -0.2201 -0.3828  0.0665
 1479SOL     OW 5960   0.465   1.942   2.630 -0.0389 -0.0117  0.2943
 1479SOL    HW2 5961   0.545   1.971   2.673  0.6145 -0.8628 -0.3035
 1479SOL    HW3 5962   0.492   1.924   2.540 -0.7864 -0.7915  0.2154
 1479SOL    MW4 5963   0.479   1.943   2.624 -0.0513 -0.2267  0.2053
 1480SOL     OW 5964   0.695   2.018   2.752 -0.2333  0.0953  0.1942
 1480SOL    HW2 5965   0.689   2.031   2.847 -0.3962  2.2745 -0.0796
 1480SOL    HW3 5966   0.780   1.977   2.739 -0.8482 -1.6102  1.4047
 1480SOL    MW4 5967   0.705   2.015   2.763 -0.3359  0.1578  0.3173
 1481SOL     OW 5968   0.671   2.304   2.671 -0.0234 -0.2253  0.4149
 1481SOL    HW2 5969   0.752   2.344   2.702  0.1436 -0.6051  0.4697
 1481SOL    HW3 5970   0.687   2.210   2.677 -0.1651 -0.3062 -0.3647
 1481SOL    MW4 5971   0.684   2.297   2.676 -0.0201 -0.2861  0.3190
 1482SOL     OW 5972   0.442   2.406   2.782  0.3338  0.1430 -0.1597
 1482SOL    HW2 5973   0.439   2.489   2.733 -0.3351 -0.7168 -1.6140
 1482SOL    HW3 5974   0.525   2.366   2.756  0.8152  0.5183  0.8085
 1482SOL    MW4 5975   0.452   2.412   2.772  0.3091  0.0789 -0.2236
 1483SOL     OW 5976   0.441   2.641   2.646  0.0247 -0.2084 -0.4905
 1483SOL    HW2 5977   0.524   2.684   2.669 -0.0318 -0.9470  1.1051
 1483SOL    HW3 5978   0.374   2.704   2.673  0.0267 -0.0641 -0.8165
 1483SOL    MW4 5979   0.443   2.655   2.653  0.0175 -0.2868 -0.3231
 1484SOL     OW 5980   0.671   2.784   2.743 -0.0175 -0.5845  0.1529
 1484SOL    HW2 5981   0.664   2.795   2.838 -2.6529  0.7939 -0.1618
 1484SOL    HW3 5982   0.678   2.873   2.709  0.0635 -1.0239 -1.0117
 1484SOL    MW4 5983   0.671   2.797   2.751 -0.3545 -0.4604 -0.0424
 1485SOL     OW 5984   0.699   3.061   2.659  0.2559 -0.4486  0.2919
 1485SOL    HW2 5985   0.776   3.095   2.705  0.7635 -0.2225 -0.7148
 1485SOL    HW3 5986   0.716   3.081   2.567 -1.5538  0.7037  0.1837
 1485SOL    MW4 5987   0.711   3.068   2.653  0.0842 -0.2666  0.1447
 1486SOL     OW 5988   0.460   3.222   2.714 -0.0478  0.2664  0.3806
 1486SOL    HW2 5989   0.447   3.223   2.809 -2.5752  1.2397  0.0554
 1486SOL    HW3 5990   0.545   3.180   2.702 -0.5406 -1.5842  2.9626
 1486SOL    MW4 5991   0.470   3.217   2.725 -0.4463  0.1504  0.6783
 1487SOL     OW 5992   0.450   3.476   2.644  0.4945 -0.2326  0.1892
 1487SOL    HW2 5993   0.455   3.382   2.659 -0.5839 -0.5180 -1.1510
 1487SOL    HW3 5994   0.451   3.486   2.549  2.9033  1.2624  0.3401
 1487SOL    MW4 5995   0.451   3.465   2.633  0.6700 -0.0730  0.0324
 1488SOL     OW 5996   0.679   3.625   2.708  0.1722 -0.1657  0.2547
 1488SOL    HW2 5997   0.697   3.624   2.802 -0.9200  1.1317  0.4984
 1488SOL    HW3 5998   0.597   3.576   2.698  0.3630 -0.4257 -0.0313
 1488SOL    MW4 5999   0.670   3.619   2.719  0.0532 -0.0286  0.2494
 1489SOL     OW 6000   0.666   3.892   2.652  0.4527  0.3505 -0.1586
 1489SOL    HW2 6001   0.602   3.928   2.713  1.8926  0.3712  1.3871
 1489SOL    HW3 6002   0.661   3.797   2.665  0.2976  0.3105 -0.4988
 1489SOL    MW4 6003   0.657   3.884   2.661  0.6222  0.3481  0.0007
 1490SOL     OW 6004   0.451   3.986   2.795  0.0487  0.1002  0.0275
 1490SOL    HW2 6005   0.475   4.071   2.757  0.9801  0.3880  1.2507
 1490SOL    HW3 6006   0.371   3.961   2.747 -0.0995  1.5355 -0.5203
 1490SOL    MW4 6007   0.443   3.994   2.784  0.1521  0.3273  0.1166
 1491SOL     OW 6008   0.481   4.239   2.684  0.5760 -0.0019  0.0058
 1491SOL    HW2 6009   0.552   4.294   2.717  2.4513 -1.5922 -1.2747
 1491SOL    HW3 6010   0.484   4.249   2.589 -1.5500  0.6668 -0.0076
 1491SOL    MW4 6011   0.491   4.247   2.676  0.5429 -0.1235 -0.1650
 1492SOL     OW 6012   0.674   4.401   2.802 -0.2832  0.0584 -0.1430
 1492SOL    HW2 6013   0.744   4.356   2.756 -0.1353  0.2213 -0.0770
 1492SOL    HW3 6014   0.665   4.484   2.756 -0.3612  0.0818 -0.0847
 1492SOL    MW4 6015   0.682   4.406   2.790 -0.2739  0.0834 -0.1266
 1493SOL     OW 6016   1.118   4.599   2.647  0.0154 -0.0386  0.5223
 1493SOL    HW2 6017   1.202   4.632   2.678  0.4709 -0.6609 -0.0199
 1493SOL    HW3 6018   1.107   4.514   2.691 -1.1400  0.7906  1.8977
 1493SOL    MW4 6019   1.127   4.592   2.657 -0.0769 -0.0110  0.6323
 1494SOL     OW 6020   0.904   0.083   2.741 -0.1767  0.2818 -0.3868
 1494SOL    HW2 6021   0.930   0.091   2.832 -0.0013 -3.3608 -0.0376
 1494SOL    HW3 6022   0.972   0.029   2.701 -1.6392 -0.4085 -2.0316
 1494SOL    MW4 6023   0.916   0.077   2.748 -0.3466 -0.2899 -0.5577
 1495SOL     OW 6024   0.937   0.375   2.643  0.1110 -0.1886  0.1348
 1495SOL    HW2 6025   0.931   0.280   2.654  1.9395 -0.2994  0.4037
 1495SOL    HW3 6026   0.943   0.388   2.549 -0.5821 -0.3078  0.0729
 1495SOL    MW4 6027   0.937   0.364   2.632  0.2609 -0.2189  0.1619
 1496SOL     OW 6028   1.155   0.491   2.735  0.2303 -0.0310 -0.1062
 1496SOL    HW2 6029   1.144   0.583   2.711 -0.4004 -0.5547 -1.8467
 1496SOL    HW3 6030   1.073   0.449   2.709  0.1478 -0.9366  1.5148
 1496SOL    MW4 6031   1.143   0.498   2.729  0.1363 -0.2196 -0.1223
 1497SOL     OW 6032   1.139   0.749   2.637  0.2827 -0.1634 -0.4124
 1497SOL    HW2 6033   1.221   0.795   2.651  0.0944  0.0094  0.1462
 1497SOL    HW3 6034   1.129   0.745   2.542  0.8076  0.0404 -0.4756
 1497SOL    MW4 6035   1.148   0.754   2.626  0.3270 -0.1137 -0.3471
 1498SOL     OW 6036   0.923   0.916   2.731 -0.6457 -0.3027  0.2867
 1498SOL    HW2 6037   0.909   0.918   2.826 -0.0322 -0.7289  0.3922
 1498SOL    HW3 6038   0.995   0.854   2.719 -0.2586  0.2716 -0.4025
 1498SOL    MW4 6039   0.930   0.908   2.742 -0.5137 -0.2831  0.2096
 1499SOL     OW 6040   0.892   1.171   2.651  0.1880 -0.4810  0.0567
 1499SOL    HW2 6041   0.881   1.080   2.677 -1.5849 -0.4827 -0.6269
 1499SOL    HW3 6042   0.904   1.167   2.556 -0.4761  0.0149 -0.0566
 1499SOL    MW4 6043   0.892   1.158   2.642 -0.1335 -0.4157 -0.0484
 1500SOL     OW 6044   1.125   1.273   2.779  0.1725 -0.0231 -0.2195
 1500SOL    HW2 6045   1.128   1.365   2.752  2.2352 -0.0816 -0.2617
 1500SOL    HW3 6046   1.038   1.244   2.753 -0.7383  2.0795  0.3162
 1500SOL    MW4 6047   1.114   1.282   2.772  0.3244  0.2466 -0.1545
 1501SOL     OW 6048   1.110   1.528   2.655  0.4528  0.2312 -0.0184
 1501SOL    HW2 6049   1.034   1.566   2.699  0.1715 -0.0534 -0.2522
 1501SOL    HW3 6050   1.084   1.520   2.564  0.5357 -0.4319  0.0100
 1501SOL    MW4 6051   1.096   1.532   2.649  0.4267  0.1061 -0.0455
 1502SOL     OW 6052   0.899   1.672   2.733  0.2146 -0.2358  0.2184
 1502SOL    HW2 6053   0.886   1.659   2.827 -0.0925  1.5144  0.4259
 1502SOL    HW3 6054   0.823   1.632   2.693 -0.5179  0.5225  0.8254
 1502SOL    MW4 6055   0.887   1.665   2.740  0.0774  0.0950  0.3257
 1503SOL     OW 6056   0.921   1.924   2.613  0.0345 -0.7193  0.3975
 1503SOL    HW2 6057   0.999   1.962   2.654  0.7591 -1.3010 -0.4417
 1503SOL    HW3 6058   0.922   1.832   2.640 -0.9275 -0.4887  1.2355
 1503SOL    MW4 6059   0.932   1.917   2.622  0.0032 -0.7657  0.3974
 1504SOL     OW 6060   1.140   2.038   2.779 -0.3407 -0.0657  0.0709
 1504SOL    HW2 6061   1.221   2.006   2.740 -0.4819 -0.9469  0.4976
 1504SOL    HW3 6062   1.128   2.125   2.740  0.2911 -0.3257 -0.7299
 1504SOL    MW4 6063   1.149   2.045   2.769 -0.2759 -0.2162  0.0217
 1505SOL     OW 6064   1.121   2.281   2.647 -0.2106  0.1035  0.3280
 1505SOL    HW2 6065   1.181   2.353   2.666 -0.3506  0.0303  1.0563
 1505SOL    HW3 6066   1.121   2.275   2.552 -0.4658  1.2971  0.2381
 1505SOL    MW4 6067   1.129   2.290   2.637 -0.2629  0.2515  0.4122
 1506SOL     OW 6068   0.902   2.425   2.755 -0.1960  0.2842 -0.0541
 1506SOL    HW2 6069   0.906   2.504   2.702 -1.1320 -1.8593 -3.4683
 1506SOL    HW3 6070   0.979   2.374   2.727 -0.1307 -0.4483  1.4130
 1506SOL    MW4 6071   0.913   2.428   2.744 -0.3109 -0.0951 -0.3109
 1507SOL     OW 6072   0.916   2.675   2.649  0.3258  0.3142 -0.6167
 1507SOL    HW2 6073   0.981   2.742   2.673 -0.7364  1.1075  0.0495
 1507SOL    HW3 6074   0.832   2.712   2.675 -0.3253 -1.0849 -0.6753
 1507SOL    MW4 6075   0.914   2.689   2.656  0.0997  0.2341 -0.5364
 1508SOL     OW 6076   1.117   2.834   2.747  0.1402 -0.1415 -0.0811
 1508SOL    HW2 6077   1.109   2.815   2.840  0.7150  0.6353  0.1325
 1508SOL    HW3 6078   1.198   2.790   2.720  1.2849  1.6421  0.3380
 1508SOL    MW4 6079   1.127   2.826   2.755  0.3670  0.1962  0.0024
 1509SOL     OW 6080   1.148   3.096   2.648  0.0000  0.0000 -0.0810
 1509SOL    HW2 6081   1.122   3.007   2.671  0.0000  0.0000 -0.0818
 1509SOL    HW3 6082   1.136   3.101   2.553  0.0000  0.0000 -0.0808
 1509SOL    MW4 6083   1.143   3.085   2.639  0.0000  0.0000 -0.0811
 1510SOL     OW 6084   0.919   3.208   2.747  0.0000  0.0000  0.0583
 1510SOL    HW2 6085   0.903   3.287   2.695  0.0000  0.0000  0.0399
 1510SOL    HW3 6086   1.006   3.179   2.718  0.0000  0.0000  0.0853
 1510SOL    MW4 6087   0.928   3.215   2.736  0.0000  0.0000  0.0596
 1511SOL     OW 6088   0.887   3.462   2.661  0.0000  0.0000 -0.2619
 1511SOL    HW2 6089   0.960   3.508   2.703  0.0000  0.0000 -0.3297
 1511SOL    HW3 6090   0.810   3.512   2.686  0.0000  0.0000 -0.1262
 1511SOL    MW4 6091   0.887   3.475   2.670  0.0000  0.0000 -0.2530
 1512SOL     OW 6092   1.102   3.599   2.788  0.0000  0.0000  0.2321
 1512SOL    HW2 6093   1.101   3.626   2.880  0.0000  0.0000  0.2328
 1512SOL    HW3 6094   1.100   3.681   2.739  0.0000  0.0000  0.2337
 1512SOL    MW4 6095   1.102   3.613   2.794  0.0000  0.0000  0.2325
 1513SOL     OW 6096   1.098   3.851   2.651  0.0000  0.0000  0.0417
 1513SOL    HW2 6097   1.178   3.889   2.689  0.0000  0.0000  0.0356
 1513SOL    HW3 6098   1.110   3.859   2.557  0.0000  0.0000  0.0407
 1513SOL    MW4 6099   1.110   3.857   2.644  0.0000  0.0000  0.0410
 1514SOL     OW 6100   0.893   4.008   2.753  0.0000  0.0000 -0.2323
 1514SOL    HW2 6101   0.957   3.963   2.699  0.0000  0.0000 -0.2246
 1514SOL    HW3 6102   0.809   3.969   2.727  0.0000  0.0000 -0.2583
 1514SOL    MW4 6103   0.890   3.997   2.743  0.0000  0.0000 -0.2346
 1515SOL     OW 6104   0.888   4.266   2.690  0.0000  0.0000  0.8563
 1515SOL    HW2 6105   0.892   4.174   2.715  0.0000  0.0000  0.8532
 1515SOL    HW3 6106   0.884   4.265   2.594  0.0000  0.0000  0.8563
 1515SOL    MW4 6107   0.888   4.254   2.680  0.0000  0.0000  0.8562
 1516SOL     OW 6108   1.144   4.351   2.779  0.0000  0.0000 -0.2217
 1516SOL    HW2 6109   1.137   4.378   2.871  0.0000  0.0000 -0.2221
 1516SOL    HW3 6110   1.055   4.327   2.754  0.0000  0.0000 -0.2280
 1516SOL    MW4 6111   1.131   4.351   2.788  0.0000  0.0000 -0.2229
 1517SOL     OW 6112   1.593   4.643   2.662  0.0000  0.0000  0.0300
 1517SOL    HW2 6113   1.588   4.549   2.679  0.0000  0.0000  0.0301
 1517SOL    HW3 6114   1.581   4.652   2.568  0.0000  0.0000  0.0300
 1517SOL    MW4 6115   1.591   4.632   2.652  0.0000  0.0000  0.0300
 1518SOL     OW 6116   1.336   0.055   2.766  0.3795  0.3187  0.7711
 1518SOL    HW2 6117   1.317   0.135   2.717 -1.1397 -1.2848 -1.3758
 1518SOL    HW3 6118   1.423   0.029   2.735 -0.8655 -1.0773 -1.7480
 1518SOL    MW4 6119   1.345   0.062   2.755  0.0148 -0.0770  0.1554
 1519SOL     OW 6120   1.371   0.319   2.691 -0.1853  0.2745 -0.3389
 1519SOL    HW2 6121   1.447   0.375   2.706  0.3521  0.2591 -2.6795
 1519SOL    HW3 6122   1.296   0.375   2.709  0.3631  1.4691 -1.6228
 1519SOL    MW4 6123   1.372   0.334   2.695 -0.0421  0.4300 -0.8171
 1520SOL     OW 6124   1.573   0.511   2.716  0.2724  0.0096  0.1550
 1520SOL    HW2 6125   1.656   0.470   2.694  0.0442 -0.0790 -0.5336
 1520SOL    HW3 6126   1.582   0.602   2.687 -0.2942 -0.2900 -0.9778
 1520SOL    MW4 6127   1.585   0.518   2.710  0.1675 -0.0416 -0.0851
 1521SOL     OW 6128   1.584   0.775   2.627  0.2534 -0.0583 -0.5569
 1521SOL    HW2 6129   1.508   0.830   2.644 -1.1949 -1.9555 -0.7932
 1521SOL    HW3 6130   1.580   0.757   2.533  0.4908 -0.8957 -0.4123
 1521SOL    MW4 6131   1.574   0.780   2.617  0.0937 -0.4191 -0.5691
 1522SOL     OW 6132   1.361   0.913   2.675 -0.5919 -0.5465 -0.3385
 1522SOL    HW2 6133   1.369   0.923   2.770 -1.8035 -3.3328  0.1067
 1522SOL    HW3 6134   1.350   1.002   2.642 -1.1044  0.3762  2.2256
 1522SOL    MW4 6135   1.361   0.926   2.683 -0.8193 -0.7924  0.0584
 1523SOL     OW 6136   1.337   1.174   2.602  0.1084 -0.3867 -0.2941
 1523SOL    HW2 6137   1.414   1.203   2.650 -0.3589 -1.5939  1.2204
 1523SOL    HW3 6138   1.263   1.201   2.655 -0.4599 -0.7556 -0.8896
 1523SOL    MW4 6139   1.337   1.181   2.615 -0.0284 -0.5947 -0.1729
 1524SOL     OW 6140   1.547   1.266   2.746  0.3606 -0.4417  0.3165
 1524SOL    HW2 6141   1.559   1.279   2.840  1.6204 -2.8408  0.5011
 1524SOL    HW3 6142   1.633   1.238   2.714 -0.0660  0.2993 -1.5540
 1524SOL    MW4 6143   1.560   1.264   2.754  0.4705 -0.6605  0.0942
 1525SOL     OW 6144   1.571   1.529   2.643  0.4767  0.2090  0.2852
 1525SOL    HW2 6145   1.544   1.444   2.680  2.0260  0.3160  1.7383
 1525SOL    HW3 6146   1.552   1.522   2.550  1.5760 -2.1550  0.2030
 1525SOL    MW4 6147   1.565   1.517   2.636  0.8261 -0.0888  0.4661
 1526SOL     OW 6148   1.329   1.665   2.739 -0.1795  0.1430 -0.2116
 1526SOL    HW2 6149   1.410   1.638   2.695 -0.0398  0.5348 -0.1904
 1526SOL    HW3 6150   1.260   1.618   2.692  0.1155 -0.6653  0.1553
 1526SOL    MW4 6151   1.330   1.655   2.727 -0.1223  0.0881 -0.1605
 1527SOL     OW 6152   1.346   1.919   2.651  0.3786  0.1502 -0.3089
 1527SOL    HW2 6153   1.356   1.826   2.674  1.5968  0.1911 -0.6327
 1527SOL    HW3 6154   1.312   1.917   2.561  0.0264  0.0182 -0.1748
 1527SOL    MW4 6155   1.343   1.906   2.642  0.4928  0.1382 -0.3338
 1528SOL     OW 6156   1.552   2.064   2.739 -0.0818 -0.3862  0.8192
 1528SOL    HW2 6157   1.634   2.027   2.704  0.3507 -1.3256  2.7453
 1528SOL    HW3 6158   1.484   2.005   2.707  0.4146 -1.8116  2.3457
 1528SOL    MW4 6159   1.554   2.051   2.730  0.0409 -0.6981  1.2751
 1529SOL     OW 6160   1.542   2.313   2.596 -0.1558 -0.6633 -0.0797
 1529SOL    HW2 6161   1.622   2.337   2.643 -0.1354  0.1624 -0.5154
 1529SOL    HW3 6162   1.529   2.220   2.616 -0.1584 -0.3293  1.5415
 1529SOL    MW4 6163   1.551   2.304   2.605 -0.1534 -0.5105  0.0768
 1530SOL     OW 6164   1.314   2.445   2.720  0.4305 -0.0788 -0.1680
 1530SOL    HW2 6165   1.310   2.537   2.693 -0.6818 -0.4153 -1.1898
 1530SOL    HW3 6166   1.392   2.411   2.676  0.0651  0.0262 -0.9050
 1530SOL    MW4 6167   1.324   2.453   2.710  0.2356 -0.1094 -0.4001
 1531SOL     OW 6168   1.341   2.713   2.647  0.4436 -0.0148 -0.0734
 1531SOL    HW2 6169   1.426   2.746   2.677  0.7030 -0.4062 -0.3630
 1531SOL    HW3 6170   1.345   2.720   2.551  0.3345 -0.4768 -0.1146
 1531SOL    MW4 6171   1.353   2.718   2.638  0.4634 -0.1273 -0.1173
 1532SOL     OW 6172   1.577   2.821   2.720  0.1211 -0.0189  0.3693
 1532SOL    HW2 6173   1.573   2.797   2.813  0.7948 -0.8637  0.1849
 1532SOL    HW3 6174   1.658   2.781   2.689 -1.1316 -1.4579 -1.0879
 1532SOL    MW4 6175   1.587   2.813   2.728  0.0448 -0.3202  0.1528
 1533SOL     OW 6176   1.599   3.111   2.652  0.1384  0.3024 -0.1174
 1533SOL    HW2 6177   1.672   3.149   2.701  1.1044 -2.5069  0.7227
 1533SOL    HW3 6178   1.603   3.017   2.672 -1.8733 -0.3345 -2.4665
 1533SOL    MW4 6179   1.609   3.103   2.661  0.0006 -0.1526 -0.3164
 1534SOL     OW 6180   1.380   3.237   2.766 -0.0455 -0.0333 -0.1336
 1534SOL    HW2 6181   1.459   3.211   2.720 -0.6190  0.3219 -1.3553
 1534SOL    HW3 6182   1.310   3.184   2.727 -0.3573 -0.5952  1.1724
 1534SOL    MW4 6183   1.381   3.227   2.755 -0.1624 -0.0606 -0.1225
 1535SOL     OW 6184   1.318   3.484   2.651  0.1181  0.3125  0.2634
 1535SOL    HW2 6185   1.323   3.395   2.685 -0.2266 -0.1380 -0.8428
 1535SOL    HW3 6186   1.238   3.520   2.691  0.5984  0.3571  1.2118
 1535SOL    MW4 6187   1.308   3.477   2.661  0.1360  0.2589  0.2427
 1536SOL     OW 6188   1.513   3.623   2.766  0.2722 -0.0394  0.1718
 1536SOL    HW2 6189   1.591   3.573   2.744  0.2658  0.5576 -1.2660
 1536SOL    HW3 6190   1.441   3.576   2.725  0.0722  0.2528  0.1844
 1536SOL    MW4 6191   1.514   3.610   2.758  0.2451  0.0780 -0.0162
 1537SOL     OW 6192   1.567   3.878   2.662  0.4092 -0.0522  0.1005
 1537SOL    HW2 6193   1.486   3.915   2.698  0.0397 -1.2814  0.5685
 1537SOL    HW3 6194   1.566   3.787   2.691  2.0503 -0.0340  0.2296
 1537SOL    MW4 6195   1.556   3.871   2.670  0.5770 -0.2122  0.1795
 1538SOL     OW 6196   1.320   3.980   2.762 -0.0197  0.4098 -0.3888
 1538SOL    HW2 6197   1.336   3.984   2.856 -1.8141  0.7637 -0.0854
 1538SOL    HW3 6198   1.322   4.072   2.733 -0.1463  0.3539 -0.5773
 1538SOL    MW4 6199   1.323   3.993   2.771 -0.2731  0.4492 -0.3736
 1539SOL     OW 6200   1.364   4.248   2.669  0.1340  0.1220 -0.0535
 1539SOL    HW2 6201   1.282   4.281   2.706  0.0647 -0.4844  0.3463
 1539SOL    HW3 6202   1.347   4.242   2.575 -0.3395 -0.1687  0.0503
 1539SOL    MW4 6203   1.351   4.252   2.662  0.0622  0.0033  0.0131
 1540SOL     OW 6204   1.583   4.381   2.761 -0.0980 -0.3075 -0.0494
 1540SOL    HW2 6205   1.580   4.381   2.857  0.2620  1.3891 -0.0257
 1540SOL    HW3 6206   1.505   4.333   2.735 -0.4561 -0.3595  1.0821
 1540SOL    MW4 6207   1.573   4.375   2.770 -0.0978 -0.0906  0.1030
 1541SOL     OW 6208   2.001   4.663   2.628  0.2394 -0.0084  0.4088
 1541SOL    HW2 6209   2.082   4.705   2.657 -0.2763  1.3696 -0.1184
 1541SOL    HW3 6210   2.010   4.656   2.533 -0.0308 -0.3423  0.4064
 1541SOL    MW4 6211   2.013   4.667   2.619  0.1357  0.1293  0.3388
 1542SOL     OW 6212   1.802   0.154   2.734  0.0985 -0.6553 -0.3138
 1542SOL    HW2 6213   1.869   0.097   2.696 -0.4625 -0.3558 -1.7857
 1542SOL    HW3 6214   1.721   0.104   2.728  0.0754 -0.7894  0.9392
 1542SOL    MW4 6215   1.800   0.140   2.728  0.0215 -0.6334 -0.3426
 1543SOL     OW 6216   1.822   0.415   2.648  0.2530 -0.2035  0.1829
 1543SOL    HW2 6217   1.892   0.457   2.698 -0.2620 -0.2004  0.9149
 1543SOL    HW3 6218   1.827   0.323   2.673  1.2366 -0.5515 -1.2470
 1543SOL    MW4 6219   1.831   0.409   2.658  0.3148 -0.2490  0.0908
 1544SOL     OW 6220   2.042   0.518   2.778  0.4223 -0.2345 -0.2278
 1544SOL    HW2 6221   2.129   0.490   2.751  0.3497  0.0471 -0.7563
 1544SOL    HW3 6222   2.030   0.603   2.738  0.3314  0.2279  0.7547
 1544SOL    MW4 6223   2.052   0.525   2.769  0.4005 -0.1363 -0.1681
 1545SOL     OW 6224   2.021   0.760   2.659  0.1653  0.2226 -0.2880
 1545SOL    HW2 6225   1.945   0.814   2.682  0.7786  0.8442  0.2844
 1545SOL    HW3 6226   2.034   0.775   2.565 -0.8478 -0.4328 -0.5407
 1545SOL    MW4 6227   2.012   0.769   2.649  0.1123  0.2181 -0.2460
 1546SOL     OW 6228   1.811   0.906   2.715 -0.2269 -0.2957 -0.2530
 1546SOL    HW2 6229   1.798   0.996   2.685  1.3048 -0.9714 -3.0376
 1546SOL    HW3 6230   1.730   0.861   2.693  0.1264 -0.3000 -1.5601
 1546SOL    MW4 6231   1.799   0.912   2.708  0.0218 -0.3855 -0.7927
 1547SOL     OW 6232   1.788   1.193   2.647 -0.0919 -0.0354  0.0238
 1547SOL    HW2 6233   1.862   1.253   2.641  0.2822 -0.5284 -0.3934
 1547SOL    HW3 6234   1.782   1.153   2.560 -0.2934 -0.6381  0.3102
 1547SOL    MW4 6235   1.797   1.195   2.635 -0.0691 -0.1800  0.0067
 1548SOL     OW 6236   2.036   1.294   2.692 -0.1555  0.9683 -0.5794
 1548SOL    HW2 6237   2.032   1.286   2.787 -1.4414 -0.3496 -0.7354
 1548SOL    HW3 6238   2.112   1.243   2.666 -1.6292 -1.3088 -0.5215
 1548SOL    MW4 6239   2.046   1.287   2.701 -0.5198  0.4939 -0.5922
 1549SOL     OW 6240   2.032   1.558   2.625 -0.0208 -0.4356  0.3918
 1549SOL    HW2 6241   1.947   1.597   2.645  0.0836  0.0704 -0.1678
 1549SOL    HW3 6242   2.019   1.464   2.638 -0.8271 -0.4165 -0.2752
 1549SOL    MW4 6243   2.019   1.551   2.629 -0.1132 -0.3664  0.2298
 1550SOL     OW 6244   1.775   1.694   2.702  0.1290  0.4946  0.2080
 1550SOL    HW2 6245   1.771   1.709   2.797 -0.3699 -0.9288  0.4178
 1550SOL    HW3 6246   1.709   1.627   2.686  0.1845  0.7691 -1.1599
 1550SOL    MW4 6247   1.766   1.687   2.713  0.0705  0.3430  0.0553
 1551SOL     OW 6248   1.768   1.961   2.600 -0.1470  0.4415 -0.4973
 1551SOL    HW2 6249   1.854   1.993   2.628 -0.6179  0.9694  0.3506
 1551SOL    HW3 6250   1.769   1.868   2.621  0.2092  0.4499 -0.4711
 1551SOL    MW4 6251   1.780   1.953   2.607 -0.1622  0.5124 -0.3817
 1552SOL     OW 6252   2.018   2.083   2.692  0.7670  0.3983 -0.0917
 1552SOL    HW2 6253   2.008   2.096   2.787 -0.5703  0.4356 -0.2206
 1552SOL    HW3 6254   2.013   2.171   2.655 -0.1953  0.2702 -0.3006
 1552SOL    MW4 6255   2.016   2.096   2.700  0.4637  0.3862 -0.1364
 1553SOL     OW 6256   2.007   2.338   2.609 -0.1958  0.2052 -0.4361
 1553SOL    HW2 6257   2.093   2.365   2.643 -0.5436 -0.6081  1.0888
 1553SOL    HW3 6258   2.021   2.330   2.514  2.1881 -2.8095  0.1192
 1553SOL    MW4 6259   2.021   2.341   2.601  0.0732 -0.2997 -0.1616
 1554SOL     OW 6260   1.763   2.439   2.696 -0.3142  0.1860 -0.3244
 1554SOL    HW2 6261   1.771   2.448   2.791 -0.9143  2.1283 -0.4432
 1554SOL    HW3 6262   1.852   2.418   2.667 -0.1892 -0.7139  0.6853
 1554SOL    MW4 6263   1.776   2.437   2.704 -0.3768  0.3238 -0.2069
 1555SOL     OW 6264   1.800   2.705   2.611  0.1629 -0.1539 -0.5327
 1555SOL    HW2 6265   1.784   2.616   2.642 -1.3419  0.5817  0.8832
 1555SOL    HW3 6266   1.805   2.697   2.516 -1.4551 -1.5467 -0.5183
 1555SOL    MW4 6267   1.798   2.692   2.602 -0.2489 -0.2403 -0.3440
 1556SOL     OW 6268   2.003   2.834   2.760 -0.0116 -0.1505 -0.3119
 1556SOL    HW2 6269   2.079   2.783   2.731 -0.2370 -0.0212 -1.1344
 1556SOL    HW3 6270   1.928   2.791   2.719 -0.1559  1.1555 -1.4515
 1556SOL    MW4 6271   2.003   2.821   2.751 -0.0606  0.0389 -0.5710
 1557SOL     OW 6272   1.995   3.095   2.664 -0.3497  0.3666 -0.3936
 1557SOL    HW2 6273   1.994   3.006   2.700  0.3912  0.0359 -1.1860
 1557SOL    HW3 6274   1.985   3.084   2.570  0.4235  1.0775 -0.5735
 1557SOL    MW4 6275   1.994   3.082   2.657 -0.1500  0.4170 -0.5219
 1558SOL     OW 6276   1.795   3.250   2.786  0.3574 -0.1635  0.4712
 1558SOL    HW2 6277   1.771   3.333   2.746 -1.1960 -0.7111  0.2591
 1558SOL    HW3 6278   1.849   3.206   2.720 -1.4772 -0.6905 -0.7093
 1558SOL    MW4 6279   1.799   3.255   2.772 -0.0896 -0.3054  0.2873
 1559SOL     OW 6280   1.754   3.501   2.666  0.0854  0.3585 -0.3745
 1559SOL    HW2 6281   1.843   3.532   2.686 -0.3884  1.0899  0.6941
 1559SOL    HW3 6282   1.754   3.489   2.571  2.0335 -1.9412 -0.1485
 1559SOL    MW4 6283   1.766   3.504   2.656  0.2798  0.1516 -0.2038
 1560SOL     OW 6284   1.996   3.595   2.751  0.5872  0.3451  0.0847
 1560SOL    HW2 6285   1.999   3.611   2.845 -2.0100 -2.6875  0.7844
 1560SOL    HW3 6286   2.080   3.555   2.730  1.4351  1.6384  0.9788
 1560SOL    MW4 6287   2.007   3.592   2.760  0.3564  0.1154  0.2952
 1561SOL     OW 6288   2.023   3.859   2.641 -0.2336 -0.4049 -0.2553
 1561SOL    HW2 6289   1.950   3.906   2.680 -0.3762 -1.0111  0.2058
 1561SOL    HW3 6290   2.026   3.775   2.687  0.2838 -0.6839 -0.7826
 1561SOL    MW4 6291   2.014   3.854   2.652 -0.1841 -0.5217 -0.2642
 1562SOL     OW 6292   1.801   3.985   2.747 -0.4310  0.3641 -0.2062
 1562SOL    HW2 6293   1.815   4.070   2.706 -0.6598  0.1364 -0.7615
 1562SOL    HW3 6294   1.719   3.953   2.708 -0.9472  0.3954  0.8340
 1562SOL    MW4 6295   1.792   3.992   2.736 -0.5294  0.3381 -0.1423
 1563SOL     OW 6296   1.803   4.251   2.654 -0.2137 -0.3443 -0.8530
 1563SOL    HW2 6297   1.720   4.280   2.694 -1.4174 -3.5135 -0.9248
 1563SOL    HW3 6298   1.792   4.270   2.561 -0.8733 -0.7455 -0.8622
 1563SOL    MW4 6299   1.790   4.258   2.647 -0.4596 -0.8154 -0.8638
 1564SOL     OW 6300   1.993   4.413   2.747  0.1737 -0.0260  0.1197
 1564SOL    HW2 6301   1.917   4.359   2.725  0.0018 -0.0326  0.7113
 1564SOL    HW3 6302   1.978   4.496   2.702 -0.1362 -0.0643  0.1527
 1564SOL    MW4 6303   1.981   4.417   2.738  0.1101 -0.0319  0.2019
 1565SOL     OW 6304   2.459   4.656   2.603  0.6540  0.0430 -0.2474
 1565SOL    HW2 6305   2.537   4.702   2.633  0.0868  1.1315 -0.4348
 1565SOL    HW3 6306   2.464   4.658   2.508  0.2213  0.4299 -0.2653
 1565SOL    MW4 6307   2.470   4.662   2.595  0.5221  0.2375 -0.2747
 1566SOL     OW 6308   2.256   0.121   2.713 -0.1939  0.0082  0.0436
 1566SOL    HW2 6309   2.262   0.098   2.806  0.7269  1.1221  0.2726
 1566SOL    HW3 6310   2.320   0.065   2.670 -0.0964  0.0155  0.1784
 1566SOL    MW4 6311   2.265   0.111   2.720 -0.0596  0.1561  0.0916
 1567SOL     OW 6312   2.255   0.389   2.669 -0.0155 -0.1033 -0.6061
 1567SOL    HW2 6313   2.246   0.300   2.703  3.0017 -0.0205  0.6041
 1567SOL    HW3 6314   2.282   0.378   2.577 -0.0255 -0.4398 -0.5658
 1567SOL    MW4 6315   2.258   0.376   2.661  0.3815 -0.1368 -0.4411
 1568SOL     OW 6316   2.481   0.501   2.751 -0.0421  0.3879  0.5760
 1568SOL    HW2 6317   2.475   0.588   2.713  0.6197  0.6791  1.1267
 1568SOL    HW3 6318   2.393   0.465   2.743 -0.9014  1.9960  2.4640
 1568SOL    MW4 6319   2.469   0.507   2.745 -0.0682  0.6385  0.8976
 1569SOL     OW 6320   2.460   0.780   2.661  0.2103  0.4960 -0.0209
 1569SOL    HW2 6321   2.381   0.828   2.687 -0.1814  0.1781 -0.6195
 1569SOL    HW3 6322   2.467   0.794   2.567  0.5437  0.0446 -0.0633
 1569SOL    MW4 6323   2.451   0.788   2.652  0.2027  0.3945 -0.1056
 1570SOL     OW 6324   2.244   0.930   2.728 -0.3962  0.2971  0.1278
 1570SOL    HW2 6325   2.248   0.930   2.823 -1.7181 -0.2645  0.1844
 1570SOL    HW3 6326   2.169   0.874   2.706 -0.5277  0.9772 -1.2210
 1570SOL    MW4 6327   2.235   0.922   2.737 -0.5879  0.3127 -0.0429
 1571SOL     OW 6328   2.283   1.183   2.633 -0.0770  0.1154  0.4731
 1571SOL    HW2 6329   2.280   1.087   2.638 -0.5643  0.0999 -0.0412
 1571SOL    HW3 6330   2.306   1.201   2.542  2.3044  0.4598  1.1274
 1571SOL    MW4 6331   2.285   1.173   2.622  0.1731  0.1587  0.4919
 1572SOL     OW 6332   2.508   1.281   2.755  0.1321  0.7021  0.7786
 1572SOL    HW2 6333   2.575   1.224   2.718  1.0349  0.8340  2.1888
 1572SOL    HW3 6334   2.425   1.245   2.722  0.8649  0.3585 -0.7272
 1572SOL    MW4 6335   2.506   1.269   2.746  0.3481  0.6742  0.7656
 1573SOL     OW 6336   2.501   1.530   2.646 -0.0056  0.2047 -0.0960
 1573SOL    HW2 6337   2.425   1.571   2.687 -0.0629 -0.1938  0.2028
 1573SOL    HW3 6338   2.497   1.439   2.675  0.3025  0.0654 -0.4886
 1573SOL    MW4 6339   2.490   1.523   2.655  0.0274  0.1338 -0.1082
 1574SOL     OW 6340   2.270   1.654   2.739  0.0506  0.0084  0.0409
 1574SOL    HW2 6341   2.268   1.739   2.695  2.2875  0.3590  0.5762
 1574SOL    HW3 6342   2.194   1.607   2.703  0.5927  1.0699 -2.5783
 1574SOL    MW4 6343   2.259   1.659   2.729  0.4172  0.1945 -0.2341
 1575SOL     OW 6344   2.232   1.910   2.613 -0.1263 -0.8497  0.2524
 1575SOL    HW2 6345   2.157   1.965   2.636 -0.3469 -0.4364 -1.4324
 1575SOL    HW3 6346   2.248   1.928   2.520  1.5744 -1.5115  0.3940
 1575SOL    MW4 6347   2.224   1.920   2.604  0.0689 -0.8825  0.0486
 1576SOL     OW 6348   2.451   2.039   2.713 -0.6898 -0.1685 -0.0631
 1576SOL    HW2 6349   2.431   2.130   2.689 -0.8328  0.0632  0.8810
 1576SOL    HW3 6350   2.384   1.987   2.669 -1.2343  0.2851  0.2292
 1576SOL    MW4 6351   2.439   2.044   2.704 -0.7803 -0.0780  0.1001
 1577SOL     OW 6352   2.449   2.310   2.613 -0.5264  0.3123  0.1846
 1577SOL    HW2 6353   2.518   2.373   2.634 -1.8324  0.9805  2.7284
 1577SOL    HW3 6354   2.455   2.299   2.518  1.4525  2.2348  0.0265
 1577SOL    MW4 6355   2.459   2.317   2.603 -0.4375  0.6542  0.4995
 1578SOL     OW 6356   2.232   2.458   2.726 -0.2711  0.3943 -0.2866
 1578SOL    HW2 6357   2.250   2.453   2.820 -1.8754 -0.2692  0.0023
 1578SOL    HW3 6358   2.300   2.406   2.685 -1.6440 -2.3626  0.7917
 1578SOL    MW4 6359   2.243   2.451   2.733 -0.6638 -0.0570 -0.1063
 1579SOL     OW 6360   2.249   2.719   2.653  0.2977 -0.1943  0.0044
 1579SOL    HW2 6361   2.324   2.764   2.692  0.3398 -0.4692  0.2423
 1579SOL    HW3 6362   2.249   2.632   2.694  0.8326 -0.7774 -1.2049
 1579SOL    MW4 6363   2.259   2.713   2.663  0.3738 -0.3076 -0.1242
 1580SOL     OW 6364   2.476   2.843   2.750  0.2966 -0.3307 -0.4940
 1580SOL    HW2 6365   2.554   2.806   2.710  0.9064 -0.3486  0.6960
 1580SOL    HW3 6366   2.476   2.935   2.722  1.3460 -0.0525  0.3779
 1580SOL    MW4 6367   2.486   2.850   2.741  0.5155 -0.2964 -0.2220
 1581SOL     OW 6368   2.464   3.100   2.642  0.1454 -0.2482  0.0953
 1581SOL    HW2 6369   2.387   3.153   2.660  1.2165  0.9515  1.2465
 1581SOL    HW3 6370   2.466   3.093   2.546  1.3128  3.9028 -0.2907
 1581SOL    MW4 6371   2.454   3.106   2.632  0.4406  0.4580  0.1962
 1582SOL     OW 6372   2.234   3.221   2.708  0.2393  0.6432  0.4298
 1582SOL    HW2 6373   2.227   3.223   2.803 -1.0011  0.3650  0.3545
 1582SOL    HW3 6374   2.154   3.177   2.679  0.7022  0.5506 -0.7291
 1582SOL    MW4 6375   2.222   3.216   2.716  0.1366  0.5941  0.2668
 1583SOL     OW 6376   2.212   3.499   2.628 -0.0023 -0.2234 -0.9087
 1583SOL    HW2 6377   2.287   3.541   2.670 -1.7695 -0.2556  2.4377
 1583SOL    HW3 6378   2.216   3.407   2.657 -2.0406  0.0722  0.4082
 1583SOL    MW4 6379   2.223   3.492   2.637 -0.5045 -0.1886 -0.2935
 1584SOL     OW 6380   2.452   3.618   2.714  0.3607 -0.3690 -0.1764
 1584SOL    HW2 6381   2.459   3.611   2.809 -1.3171  0.6175  0.0348
 1584SOL    HW3 6382   2.436   3.711   2.697  0.8345 -0.5055 -1.4325
 1584SOL    MW4 6383   2.451   3.629   2.724  0.2017 -0.2570 -0.3142
 1585SOL     OW 6384   2.447   3.881   2.619  0.3132 -0.0811  0.3198
 1585SOL    HW2 6385   2.532   3.902   2.657  0.1766  0.9215  0.0845
 1585SOL    HW3 6386   2.385   3.936   2.666  0.1252  1.0739 -1.2277
 1585SOL    MW4 6387   2.450   3.891   2.630  0.2701  0.2036  0.0846
 1586SOL     OW 6388   2.237   4.027   2.716 -0.0266 -0.0735 -0.5869
 1586SOL    HW2 6389   2.246   4.003   2.808  0.3577  0.8645 -0.3742
 1586SOL    HW3 6390   2.172   3.965   2.681 -0.7928  0.1043  0.5108
 1586SOL    MW4 6391   2.230   4.015   2.724 -0.0770  0.0734 -0.4139
 1587SOL     OW 6392   2.224   4.288   2.643  0.3110  0.2557 -0.0741
 1587SOL    HW2 6393   2.233   4.199   2.677 -1.3165  0.2648  0.3881
 1587SOL    HW3 6394   2.137   4.316   2.670 -0.1901  1.0748 -2.3548
 1587SOL    MW4 6395   2.214   4.280   2.651  0.0300  0.3653 -0.3138
 1588SOL     OW 6396   2.436   4.429   2.764  0.0086  0.2015 -0.0554
 1588SOL    HW2 6397   2.358   4.384   2.733  0.0523 -0.2302  0.4617
 1588SOL    HW3 6398   2.443   4.506   2.707  0.7018 -1.1436 -1.8482
 1588SOL    MW4 6399   2.427   4.433   2.752  0.1056 -0.0324 -0.2236
 1589SOL     OW 6400   2.917   4.624   2.662  0.4228 -0.0707 -0.4697
 1589SOL    HW2 6401   2.989   4.678   2.692 -0.6451  1.7126 -1.0456
 1589SOL    HW3 6402   2.924   4.625   2.567 -0.1158 -0.2041 -0.5164
 1589SOL    MW4 6403   2.927   4.631   2.653  0.2110  0.1469 -0.5517
 1590SOL     OW 6404   2.681   0.076   2.740  0.1030 -0.2013 -0.2117
 1590SOL    HW2 6405   2.696   0.099   2.832 -1.1910 -0.9965  0.2143
 1590SOL    HW3 6406   2.759   0.028   2.714 -0.3397 -1.6469  1.0496
 1590SOL    MW4 6407   2.693   0.073   2.749 -0.1259 -0.4970  0.0110
 1591SOL     OW 6408   2.722   0.337   2.666  0.0036 -0.5504  0.0968
 1591SOL    HW2 6409   2.701   0.249   2.695 -1.3691 -0.3063 -0.1501
 1591SOL    HW3 6410   2.660   0.394   2.711  1.5309  0.4152  1.0454
 1591SOL    MW4 6411   2.711   0.333   2.676  0.0241 -0.3908  0.1895
 1592SOL     OW 6412   2.964   0.473   2.754  0.1855 -0.0498 -0.0174
 1592SOL    HW2 6413   2.940   0.552   2.705 -0.5266 -0.5957 -0.5571
 1592SOL    HW3 6414   2.889   0.414   2.742  0.4392 -0.5638  0.9067
 1592SOL    MW4 6415   2.951   0.476   2.746  0.1249 -0.1897  0.0336
 1593SOL     OW 6416   2.924   0.728   2.651 -0.2333 -0.6231 -0.2569
 1593SOL    HW2 6417   2.992   0.769   2.704  0.2347 -2.5057  0.6324
 1593SOL    HW3 6418   2.843   0.772   2.677  0.6288  1.7723 -1.4741
 1593SOL    MW4 6419   2.922   0.739   2.661 -0.0577 -0.5554 -0.2999
 1594SOL     OW 6420   2.714   0.879   2.739 -0.4734  0.0623  0.0881
 1594SOL    HW2 6421   2.736   0.896   2.831 -0.8828  1.1699 -0.0171
 1594SOL    HW3 6422   2.622   0.850   2.742  0.0825 -1.7598  0.2190
 1594SOL    MW4 6423   2.705   0.877   2.752 -0.4542 -0.0320  0.0916
 1595SOL     OW 6424   2.708   1.127   2.629 -0.1283 -0.1147  0.4498
 1595SOL    HW2 6425   2.782   1.167   2.675 -0.2419 -0.2887  0.7878
 1595SOL    HW3 6426   2.699   1.040   2.668 -0.9564  0.1638  0.9127
 1595SOL    MW4 6427   2.716   1.121   2.641 -0.2527 -0.1009  0.5555
 1596SOL     OW 6428   2.903   1.265   2.754 -0.0164  1.0020  0.3637
 1596SOL    HW2 6429   2.905   1.283   2.848  0.3303  0.1411  0.5201
 1596SOL    HW3 6430   2.984   1.218   2.737 -0.3458  0.6684 -0.2694
 1596SOL    MW4 6431   2.914   1.261   2.764 -0.0141  0.8442  0.3004
 1597SOL     OW 6432   2.929   1.528   2.630  0.3492 -0.3581 -0.0185
 1597SOL    HW2 6433   2.852   1.566   2.673 -0.8819 -1.2919 -1.3089
 1597SOL    HW3 6434   2.932   1.438   2.661  0.3766 -0.5824 -0.6545
 1597SOL    MW4 6435   2.919   1.521   2.639  0.1903 -0.5109 -0.2728
 1598SOL     OW 6436   2.715   1.679   2.742 -0.1992  0.6809  0.1816
 1598SOL    HW2 6437   2.708   1.679   2.838  0.1352 -0.0251  0.2053
 1598SOL    HW3 6438   2.639   1.628   2.713 -0.6595  1.4334  0.0370
 1598SOL    MW4 6439   2.704   1.673   2.751 -0.2158  0.6871  0.1655
 1599SOL     OW 6440   2.716   1.933   2.627 -0.5490 -0.0380  0.0931
 1599SOL    HW2 6441   2.724   1.847   2.669  0.0891  1.0192  2.2498
 1599SOL    HW3 6442   2.632   1.967   2.657  0.3591  1.1451  1.3571
 1599SOL    MW4 6443   2.706   1.926   2.637 -0.3448  0.2575  0.5445
 1600SOL     OW 6444   2.896   2.095   2.767  0.1376 -0.0874 -0.2977
 1600SOL    HW2 6445   2.883   2.175   2.716  0.8059 -0.5934 -1.2816
 1600SOL    HW3 6446   2.833   2.033   2.730  1.3859 -0.7980 -1.2866
 1600SOL    MW4 6447   2.886   2.098   2.755  0.3905 -0.2480 -0.5579
 1601SOL     OW 6448   2.874   2.319   2.602  0.2495  0.0732  0.5168
 1601SOL    HW2 6449   2.949   2.373   2.628 -0.1980  1.5645 -1.1864
 1601SOL    HW3 6450   2.798   2.365   2.637  0.0273 -0.8654  1.3031
 1601SOL    MW4 6451   2.874   2.332   2.610  0.1612  0.1464  0.3958
 1602SOL     OW 6452   2.667   2.477   2.699  0.1190 -0.2926 -0.0815
 1602SOL    HW2 6453   2.681   2.481   2.794  2.1862 -0.5787 -0.3541
 1602SOL    HW3 6454   2.667   2.568   2.671 -2.0170 -0.1212  0.3721
 1602SOL    MW4 6455   2.669   2.490   2.708  0.1099 -0.3076 -0.0577
 1603SOL     OW 6456   2.707   2.733   2.631  0.4772  0.3140  0.0437
 1603SOL    HW2 6457   2.794   2.765   2.653  0.7644 -0.0384 -0.5522
 1603SOL    HW3 6458   2.705   2.735   2.535  0.6701 -1.8421 -0.0378
 1603SOL    MW4 6459   2.718   2.737   2.621  0.5403 -0.0169 -0.0458
 1604SOL     OW 6460   2.944   2.843   2.720 -0.5862  0.6681 -0.0808
 1604SOL    HW2 6461   2.940   2.817   2.812 -1.6212 -0.4400 -0.4306
 1604SOL    HW3 6462   2.953   2.939   2.723  1.5793  0.4680  1.1958
 1604SOL    MW4 6463   2.945   2.852   2.733 -0.4370  0.4957  0.0415
 1605SOL     OW 6464   2.922   3.103   2.650 -0.4687 -0.1847  0.1862
 1605SOL    HW2 6465   2.838   3.141   2.677 -0.4178  0.3270 -0.3639
 1605SOL    HW3 6466   2.917   3.100   2.554 -0.2220 -1.0052  0.1953
 1605SOL    MW4 6467   2.910   3.107   2.641 -0.4296 -0.2253  0.1149
 1606SOL     OW 6468   2.696   3.233   2.720  0.0935  0.0113 -0.0231
 1606SOL    HW2 6469   2.689   3.318   2.677  1.1914 -0.5678 -1.3693
 1606SOL    HW3 6470   2.612   3.190   2.700 -0.8870  1.1348  1.5197
 1606SOL    MW4 6471   2.684   3.238   2.712  0.1090  0.0827  0.0026
 1607SOL     OW 6472   2.665   3.488   2.607  0.2841  0.0517 -0.2153
 1607SOL    HW2 6473   2.584   3.537   2.624  0.4068 -0.1476  0.9779
 1607SOL    HW3 6474   2.666   3.477   2.512 -1.3010 -0.3140 -0.2108
 1607SOL    MW4 6475   2.654   3.493   2.597  0.0913 -0.0226 -0.0572
 1608SOL     OW 6476   2.908   3.609   2.696  0.2123  0.5751  0.3432
 1608SOL    HW2 6477   2.906   3.601   2.791 -0.1860 -0.4012  0.2568
 1608SOL    HW3 6478   2.835   3.555   2.665  0.3177  0.9045 -0.5130
 1608SOL    MW4 6479   2.898   3.601   2.704  0.1736  0.4897  0.2186
 1609SOL     OW 6480   2.887   3.874   2.615  0.0080  0.0414 -0.0807
 1609SOL    HW2 6481   2.964   3.921   2.646  0.3396 -0.7991  0.3608
 1609SOL    HW3 6482   2.896   3.785   2.650 -0.5733 -0.3829 -0.9909
 1609SOL    MW4 6483   2.898   3.869   2.624 -0.0250 -0.1254 -0.1423
 1610SOL     OW 6484   2.662   3.970   2.748  0.1437  0.0977  0.5554
 1610SOL    HW2 6485   2.637   4.055   2.713 -0.7669 -0.3570  0.1012
 1610SOL    HW3 6486   2.746   3.951   2.706  0.0983  0.5246  0.2605
 1610SOL    MW4 6487   2.670   3.979   2.738  0.0176  0.0942  0.4568
 1611SOL     OW 6488   2.641   4.235   2.666  0.1811  0.0098  0.3500
 1611SOL    HW2 6489   2.722   4.279   2.692  0.7458 -0.5198 -0.4607
 1611SOL    HW3 6490   2.571   4.293   2.696  0.8547  0.4120  1.1699
 1611SOL    MW4 6491   2.643   4.249   2.673  0.3443 -0.0072  0.3510
 1612SOL     OW 6492   2.887   4.359   2.724 -0.0048 -0.4235 -0.5207
 1612SOL    HW2 6493   2.912   4.359   2.816  0.0453  0.4608 -0.5300
 1612SOL    HW3 6494   2.881   4.451   2.700  1.4214 -0.6355 -1.7940
 1612SOL    MW4 6495   2.890   4.371   2.733  0.1900 -0.3347 -0.6902
 1613SOL     OW 6496   3.357   4.635   2.640 -0.4328  0.4149 -0.4341
 1613SOL    HW2 6497   3.348   4.545   2.673 -0.3252  0.8872  0.9034
 1613SOL    HW3 6498   3.282   4.682   2.676  0.7725  1.4229  0.8425
 1613SOL    MW4 6499   3.346   4.629   2.649 -0.2594  0.6104 -0.0892
 1614SOL     OW 6500   3.137   0.106   2.728  0.1617  0.0340 -0.0662
 1614SOL    HW2 6501   3.115   0.117   2.821 -0.5523 -0.6726 -0.1534
 1614SOL    HW3 6502   3.145   0.196   2.695  0.1369  0.2878  0.6079
 1614SOL    MW4 6503   3.135   0.120   2.736  0.0644 -0.0258  0.0114
 1615SOL     OW 6504   3.181   0.354   2.632 -0.2971  0.7010 -0.1244
 1615SOL    HW2 6505   3.098   0.389   2.664 -1.1377 -0.1460 -1.3651
 1615SOL    HW3 6506   3.180   0.371   2.538  0.8346  0.4949 -0.1807
 1615SOL    MW4 6507   3.170   0.361   2.624 -0.2587  0.5620 -0.2956
 1616SOL     OW 6508   3.393   0.479   2.760  0.3775  0.2531  0.1227
 1616SOL    HW2 6509   3.401   0.568   2.725 -1.4835  1.9985  3.8167
 1616SOL    HW3 6510   3.310   0.447   2.726  0.1710  0.6399  0.2659
 1616SOL    MW4 6511   3.383   0.487   2.751  0.1047  0.5344  0.6292
 1617SOL     OW 6512   3.392   0.725   2.646  0.2540  0.3285  0.6613
 1617SOL    HW2 6513   3.457   0.787   2.680  0.9953 -0.1566  0.1458
 1617SOL    HW3 6514   3.396   0.736   2.551 -0.9351  0.8029  0.6637
 1617SOL    MW4 6515   3.401   0.734   2.638  0.1953  0.3271  0.5939
 1618SOL     OW 6516   3.151   0.852   2.751 -0.3085 -0.1453  0.3007
 1618SOL    HW2 6517   3.174   0.871   2.842 -0.8700  0.5680  0.3097
 1618SOL    HW3 6518   3.231   0.819   2.712  0.3554  1.0076  0.6612
 1618SOL    MW4 6519   3.164   0.850   2.758 -0.2949  0.1010  0.3493
 1619SOL     OW 6520   3.158   1.139   2.703 -0.2889  0.0311  0.0354
 1619SOL    HW2 6521   3.134   1.048   2.720  0.2240 -0.1279 -0.0874
 1619SOL    HW3 6522   3.157   1.146   2.607 -0.5213  0.2057  0.0506
 1619SOL    MW4 6523   3.155   1.128   2.692 -0.2518  0.0330  0.0212
 1620SOL     OW 6524   3.372   1.301   2.783 -0.1142  0.1290  0.2092
 1620SOL    HW2 6525   3.367   1.301   2.878 -1.5174  0.7662  0.1443
 1620SOL    HW3 6526   3.293   1.254   2.755 -0.1624  0.7236 -0.6615
 1620SOL    MW4 6527   3.361   1.295   2.792 -0.3059  0.2916  0.0858
 1621SOL     OW 6528   3.398   1.550   2.670 -0.4922  0.1496 -0.3527
 1621SOL    HW2 6529   3.321   1.597   2.701  0.1166 -0.2488  1.8381
 1621SOL    HW3 6530   3.396   1.466   2.717  1.1715  0.0712 -0.3805
 1621SOL    MW4 6531   3.388   1.545   2.680 -0.1924  0.0867 -0.0672
 1622SOL     OW 6532   3.142   1.690   2.715  0.0842  0.1789 -0.4090
 1622SOL    HW2 6533   3.128   1.778   2.679  0.6682  0.5125  0.1550
 1622SOL    HW3 6534   3.065   1.641   2.689 -0.6136  1.0819 -0.0878
 1622SOL    MW4 6535   3.130   1.695   2.707  0.0691  0.3421 -0.2921
 1623SOL     OW 6536   3.107   1.957   2.607 -0.0871 -0.1589  0.1169
 1623SOL    HW2 6537   3.184   1.975   2.660  0.0895 -0.0840 -0.1671
 1623SOL    HW3 6538   3.038   2.011   2.647  0.0276 -0.1566  0.3130
 1623SOL    MW4 6539   3.108   1.967   2.619 -0.0486 -0.1487  0.1054
 1624SOL     OW 6540   3.360   2.031   2.748 -0.2769 -0.4811 -0.3857
 1624SOL    HW2 6541   3.367   2.049   2.842 -0.5493 -1.6141 -0.1340
 1624SOL    HW3 6542   3.366   2.117   2.706 -2.1853  0.2696  0.7810
 1624SOL    MW4 6543   3.361   2.045   2.755 -0.5646 -0.5317 -0.1988
 1625SOL     OW 6544   3.347   2.303   2.618 -0.2084  0.3436  0.0761
 1625SOL    HW2 6545   3.415   2.347   2.669 -0.3043  2.1292 -1.2921
 1625SOL    HW3 6546   3.382   2.301   2.529 -0.6913 -1.3915 -0.0910
 1625SOL    MW4 6547   3.361   2.308   2.613 -0.2847  0.3505 -0.1264
 1626SOL     OW 6548   3.104   2.448   2.684 -0.3528  0.1426 -0.2816
 1626SOL    HW2 6549   3.110   2.533   2.640  0.8321 -0.0174 -0.4585
 1626SOL    HW3 6550   3.176   2.397   2.647 -0.6947 -0.7399  0.2536
 1626SOL    MW4 6551   3.114   2.452   2.674 -0.2418  0.0052 -0.2344
 1627SOL     OW 6552   3.144   2.700   2.578 -0.3196 -0.4151 -0.0097
 1627SOL    HW2 6553   3.228   2.735   2.608 -0.9206  0.3101  0.8673
 1627SOL    HW3 6554   3.079   2.761   2.613 -1.2269 -1.0991 -0.4799
 1627SOL    MW4 6555   3.146   2.713   2.587 -0.5188 -0.4096  0.0439
 1628SOL     OW 6556   3.369   2.832   2.718  0.2905 -0.1907 -0.0986
 1628SOL    HW2 6557   3.353   2.823   2.812  1.8071  0.4095  0.2373
 1628SOL    HW3 6558   3.439   2.770   2.700  0.2579 -0.0328 -0.7649
 1628SOL    MW4 6559   3.376   2.823   2.728  0.4864 -0.0906 -0.1419
 1629SOL     OW 6560   3.379   3.086   2.631 -0.1831 -0.0007  0.4332
 1629SOL    HW2 6561   3.395   2.996   2.659  1.5647  0.4884  1.0625
 1629SOL    HW3 6562   3.362   3.079   2.537  0.1682 -0.9616  0.4343
 1629SOL    MW4 6563   3.379   3.074   2.623  0.0942 -0.0629  0.5167
 1630SOL     OW 6564   3.160   3.210   2.742 -0.1144 -0.1550 -0.3109
 1630SOL    HW2 6565   3.225   3.152   2.704 -0.4192 -1.0245  0.4984
 1630SOL    HW3 6566   3.076   3.177   2.709 -0.0699  1.9265 -2.6604
 1630SOL    MW4 6567   3.157   3.198   2.732 -0.1488  0.0048 -0.5143
 1631SOL     OW 6568   3.135   3.460   2.628 -0.5343 -0.1664  0.0303
 1631SOL    HW2 6569   3.149   3.383   2.682  0.6319 -0.7471 -1.0726
 1631SOL    HW3 6570   3.056   3.501   2.664 -1.4846 -2.1674  0.2936
 1631SOL    MW4 6571   3.126   3.455   2.640 -0.5059 -0.5074 -0.0808
 1632SOL     OW 6572   3.355   3.594   2.743 -0.0560 -0.2622 -0.1589
 1632SOL    HW2 6573   3.337   3.587   2.837 -0.0872  0.4251 -0.1113
 1632SOL    HW3 6574   3.276   3.558   2.701 -0.2306 -0.1511  0.0747
 1632SOL    MW4 6575   3.342   3.588   2.750 -0.0830 -0.1569 -0.1216
 1633SOL     OW 6576   3.347   3.858   2.651  0.0145 -0.3241 -0.5426
 1633SOL    HW2 6577   3.344   3.767   2.680 -0.0217 -0.1132  0.1154
 1633SOL    HW3 6578   3.357   3.853   2.556  0.8548 -1.0193 -0.4191
 1633SOL    MW4 6579   3.348   3.846   2.642  0.1206 -0.3877 -0.4396
 1634SOL     OW 6580   3.103   3.985   2.755 -0.0724  0.3648 -0.0536
 1634SOL    HW2 6581   3.089   4.075   2.724  0.6396  0.4104 -0.2514
 1634SOL    HW3 6582   3.192   3.963   2.726 -0.3097 -0.4681 -0.1545
 1634SOL    MW4 6583   3.113   3.994   2.747 -0.0095  0.2608 -0.0930
 1635SOL     OW 6584   3.130   4.243   2.650  0.2680 -0.0940  0.2301
 1635SOL    HW2 6585   3.045   4.284   2.667  0.4912 -0.0979  1.3533
 1635SOL    HW3 6586   3.136   4.240   2.554 -0.3565  1.2139  0.1434
 1635SOL    MW4 6587   3.120   4.248   2.639  0.2148  0.0777  0.3669
 1636SOL     OW 6588   3.337   4.383   2.760 -0.7817  0.0415  0.1263
 1636SOL    HW2 6589   3.332   4.396   2.854 -0.6275  1.2145 -0.0122
 1636SOL    HW3 6590   3.252   4.347   2.736 -0.8503 -0.1782  0.6952
 1636SOL    MW4 6591   3.325   4.380   2.769 -0.7703  0.1674  0.1831
 1637SOL     OW 6592   3.783   0.010   2.659  0.0182 -0.0212 -0.4127
 1637SOL    HW2 6593   3.780  -0.081   2.688  0.0987 -0.3196 -1.3257
 1637SOL    HW3 6594   3.709   0.052   2.702  0.3691 -0.3626  0.5317
 1637SOL    MW4 6595   3.773   0.004   2.668  0.0749 -0.1059 -0.4086
 1638SOL     OW 6596   3.569   0.118   2.781 -0.0733 -0.0318  0.0929
 1638SOL    HW2 6597   3.577   0.203   2.737  0.5370 -0.1976 -0.1150
 1638SOL    HW3 6598   3.493   0.077   2.739 -0.7773  0.6802  0.6470
 1638SOL    MW4 6599   3.560   0.124   2.770 -0.0858  0.0403  0.1383
 1639SOL     OW 6600   3.595   0.363   2.635 -0.1083  0.0979 -0.3965
 1639SOL    HW2 6601   3.676   0.396   2.674  0.5096 -0.3078 -1.3339
 1639SOL    HW3 6602   3.526   0.412   2.680  0.6048 -0.1465  1.0085
 1639SOL    MW4 6603   3.597   0.374   2.646  0.0675  0.0121 -0.3350
 1640SOL     OW 6604   3.808   0.464   2.778  0.5283  0.1404  0.2698
 1640SOL    HW2 6605   3.828   0.480   2.870  0.5626 -0.5104  0.3810
 1640SOL    HW3 6606   3.893   0.448   2.737  0.3340 -1.8603  0.5914
 1640SOL    MW4 6607   3.822   0.464   2.785  0.5074 -0.2095  0.3271
 1641SOL     OW 6608   3.820   0.730   2.668 -0.1523  0.1590  1.1533
 1641SOL    HW2 6609   3.737   0.776   2.682 -1.4826 -0.9941 -2.3987
 1641SOL    HW3 6610   3.803   0.641   2.699 -0.3234 -0.1435  0.1897
 1641SOL    MW4 6611   3.807   0.724   2.674 -0.3505 -0.0330  0.5577
 1642SOL     OW 6612   3.576   0.886   2.760  0.3775  0.1962 -0.0634
 1642SOL    HW2 6613   3.564   0.879   2.855 -1.4586 -0.0883 -0.2922
 1642SOL    HW3 6614   3.568   0.980   2.742  1.8241  0.3775  0.1827
 1642SOL    MW4 6615   3.573   0.898   2.770  0.3262  0.1826 -0.0613
 1643SOL     OW 6616   3.574   1.153   2.670  0.2080 -0.1392 -0.5537
 1643SOL    HW2 6617   3.650   1.201   2.703 -0.5668  1.4740 -1.0181
 1643SOL    HW3 6618   3.499   1.206   2.698 -0.6829 -1.0938 -1.0953
 1643SOL    MW4 6619   3.574   1.166   2.678 -0.0117 -0.0522 -0.6864
 1644SOL     OW 6620   3.798   1.286   2.757 -0.1900  0.4451 -0.3197
 1644SOL    HW2 6621   3.880   1.252   2.722 -0.2581  0.3444 -0.3845
 1644SOL    HW3 6622   3.785   1.369   2.711  0.9825  1.5330  1.3035
 1644SOL    MW4 6623   3.807   1.292   2.746 -0.0443  0.5754 -0.1140
 1645SOL     OW 6624   3.819   1.555   2.637 -0.0982  0.0915 -0.4505
 1645SOL    HW2 6625   3.897   1.597   2.672 -0.7859  0.9498  0.0570
 1645SOL    HW3 6626   3.746   1.607   2.670 -0.9319 -1.1475 -0.2889
 1645SOL    MW4 6627   3.820   1.567   2.646 -0.2990  0.0412 -0.3626
 1646SOL     OW 6628   3.615   1.698   2.751  0.1041  0.4570  0.1454
 1646SOL    HW2 6629   3.613   1.788   2.717 -0.0149  0.9173  1.3248
 1646SOL    HW3 6630   3.535   1.658   2.718  0.9834  0.2457 -1.7852
 1646SOL    MW4 6631   3.604   1.705   2.742  0.2048  0.4897  0.0463
 1647SOL     OW 6632   3.603   1.947   2.632  0.3890 -0.2905 -0.3369
 1647SOL    HW2 6633   3.518   1.955   2.676  0.4882 -0.0905 -0.1814
 1647SOL    HW3 6634   3.581   1.925   2.541  0.2156 -2.4716  0.1999
 1647SOL    MW4 6635   3.589   1.945   2.626  0.3791 -0.5519 -0.2456
 1648SOL     OW 6636   3.827   2.065   2.741  0.1254 -0.3903  0.1994
 1648SOL    HW2 6637   3.891   2.011   2.694  0.4110 -0.1198  0.2802
 1648SOL    HW3 6638   3.743   2.039   2.704  0.4062  0.3198 -0.9787
 1648SOL    MW4 6639   3.824   2.054   2.730  0.2000 -0.2611  0.0548
 1649SOL     OW 6640   3.811   2.335   2.669  0.0637 -0.3431 -0.0096
 1649SOL    HW2 6641   3.828   2.246   2.703  0.0477 -0.2152  0.3381
 1649SOL    HW3 6642   3.824   2.328   2.575  1.0401 -0.4837  0.1386
 1649SOL    MW4 6643   3.815   2.322   2.661  0.1905 -0.3448  0.0556
 1650SOL     OW 6644   3.573   2.443   2.723  0.6752  0.1487  0.1686
 1650SOL    HW2 6645   3.575   2.430   2.818 -0.3617  0.1655  0.1964
 1650SOL    HW3 6646   3.654   2.403   2.692  0.5433 -0.7469  0.9527
 1650SOL    MW4 6647   3.584   2.436   2.732  0.5207  0.0327  0.2756
 1651SOL     OW 6648   3.603   2.703   2.648 -0.2678  0.1318  0.4434
 1651SOL    HW2 6649   3.603   2.614   2.682 -2.7527  0.3110  1.0375
 1651SOL    HW3 6650   3.614   2.693   2.553 -1.8180 -0.8952  0.3639
 1651SOL    MW4 6651   3.604   2.690   2.640 -0.8001  0.0200  0.5112
 1652SOL     OW 6652   3.810   2.837   2.745  0.0681 -0.0884 -0.1509
 1652SOL    HW2 6653   3.885   2.803   2.697  0.0961  1.8969 -1.5946
 1652SOL    HW3 6654   3.734   2.796   2.704  0.1995  0.2438 -0.7314
 1652SOL    MW4 6655   3.810   2.827   2.733  0.0889  0.2174 -0.4182
 1653SOL     OW 6656   3.832   3.092   2.635  0.0803  0.0904 -0.2139
 1653SOL    HW2 6657   3.763   3.146   2.674  1.1376  0.6705  0.9038
 1653SOL    HW3 6658   3.829   3.010   2.684 -1.6528 -0.9825 -2.0402
 1653SOL    MW4 6659   3.823   3.088   2.646 -0.0091  0.0255 -0.3071
 1654SOL     OW 6660   3.610   3.221   2.743 -0.1070 -0.2269  0.1602
 1654SOL    HW2 6661   3.603   3.311   2.711  0.3130 -0.4325 -0.5197
 1654SOL    HW3 6662   3.530   3.178   2.712 -0.4653 -0.0054  0.7667
 1654SOL    MW4 6663   3.599   3.227   2.735 -0.0987 -0.2248  0.1504
 1655SOL     OW 6664   3.562   3.463   2.629  0.9064  0.0537 -0.2757
 1655SOL    HW2 6665   3.636   3.518   2.654  0.2318  0.5886  0.5868
 1655SOL    HW3 6666   3.487   3.503   2.673  0.2379 -0.9518 -0.4896
 1655SOL    MW4 6667   3.562   3.476   2.638  0.7291 -0.0083 -0.1903
 1656SOL     OW 6668   3.788   3.591   2.701  0.1979  0.1347  0.3154
 1656SOL    HW2 6669   3.880   3.566   2.699  0.2283  0.3111 -1.4572
 1656SOL    HW3 6670   3.788   3.684   2.680 -0.3742  0.1923  0.5565
 1656SOL    MW4 6671   3.800   3.600   2.698  0.1264  0.1655  0.1135
 1657SOL     OW 6672   3.799   3.853   2.631 -0.3648 -0.5363  0.1782
 1657SOL    HW2 6673   3.871   3.912   2.656 -0.4517 -0.1387 -0.4873
 1657SOL    HW3 6674   3.722   3.910   2.627 -0.0410 -0.2310 -2.6563
 1657SOL    MW4 6675   3.798   3.869   2.634 -0.3338 -0.4437 -0.2835
 1658SOL     OW 6676   3.579   4.001   2.717  0.4652 -0.0157  0.0708
 1658SOL    HW2 6677   3.566   4.093   2.695 -0.3385 -0.0854  0.2319
 1658SOL    HW3 6678   3.495   3.960   2.698  0.4350 -0.4869  1.1499
 1658SOL    MW4 6679   3.566   4.008   2.712  0.3550 -0.0868  0.2346
 1659SOL     OW 6680   3.560   4.275   2.643  0.1969  0.0747  0.1373
 1659SOL    HW2 6681   3.471   4.305   2.663  0.3222 -0.4671  1.5301
 1659SOL    HW3 6682   3.556   4.250   2.551 -0.5529  2.0127 -0.3908
 1659SOL    MW4 6683   3.548   4.276   2.633  0.1147  0.2584  0.2511
 1660SOL     OW 6684   3.817   4.386   2.737 -0.3925  0.0189 -0.0706
 1660SOL    HW2 6685   3.894   4.346   2.696 -0.6102 -0.1450 -0.3241
 1660SOL    HW3 6686   3.742   4.345   2.693 -0.6171  1.1245 -0.7531
 1660SOL    MW4 6687   3.817   4.376   2.726 -0.4511  0.1431 -0.1941
 1661SOL     OW 6688   4.247   4.641   2.633  0.2282 -0.4283 -0.1116
 1661SOL    HW2 6689   4.176   4.693   2.669 -0.2710 -0.2777 -1.2850
 1661SOL    HW3 6690   4.327   4.684   2.664 -0.1715 -0.7947  1.4880
 1661SOL    MW4 6691   4.248   4.654   2.642  0.1097 -0.4568 -0.0556
 1662SOL     OW 6692   4.041   0.123   2.759  0.1287  0.2031  0.4590
 1662SOL    HW2 6693   4.029   0.117   2.854 -0.6093  1.8587  0.4920
 1662SOL    HW3 6694   3.958   0.093   2.722  0.2288  0.0676  0.3426
 1662SOL    MW4 6695   4.029   0.118   2.767  0.0443  0.4037  0.4480
 1663SOL     OW 6696   4.042   0.411   2.670 -0.1904  0.2444  0.4960
 1663SOL    HW2 6697   4.078   0.330   2.706 -0.8716  0.7803  2.4187
 1663SOL    HW3 6698   4.042   0.396   2.575  1.0728 -1.4185  0.7265
 1663SOL    MW4 6699   4.047   0.398   2.662 -0.1140  0.0957  0.7803
 1664SOL     OW 6700   4.268   0.542   2.790  0.3556 -0.6827  0.4910
 1664SOL    HW2 6701   4.190   0.515   2.742  1.0991  0.1610 -1.2165
 1664SOL    HW3 6702   4.338   0.485   2.759  0.8272 -0.1806  0.6071
 1664SOL    MW4 6703   4.267   0.531   2.780  0.5155 -0.5051  0.2811
 1665SOL     OW 6704   4.260   0.783   2.643 -0.3233 -0.4730 -0.3153
 1665SOL    HW2 6705   4.272   0.713   2.707 -1.0998 -0.0665  0.2776
 1665SOL    HW3 6706   4.270   0.740   2.558 -0.4492 -1.2301  0.0517
 1665SOL    MW4 6707   4.263   0.768   2.640 -0.4425 -0.5193 -0.1886
 1666SOL     OW 6708   4.019   0.910   2.719  0.1063 -0.0831  0.5268
 1666SOL    HW2 6709   4.104   0.871   2.699 -0.0994 -0.0798 -0.3585
 1666SOL    HW3 6710   3.960   0.835   2.728 -0.1119 -0.0193 -0.3447
 1666SOL    MW4 6711   4.023   0.895   2.718  0.0505 -0.0743  0.2949
 1667SOL     OW 6712   4.030   1.175   2.646  0.2944  0.1048 -0.6373
 1667SOL    HW2 6713   4.104   1.219   2.689  0.5818 -0.5832 -0.4170
 1667SOL    HW3 6714   4.033   1.086   2.680  0.0932 -0.2536 -1.5565
 1667SOL    MW4 6715   4.040   1.169   2.656  0.3057 -0.0334 -0.7296
 1668SOL     OW 6716   4.267   1.292   2.772  0.1702 -0.0987  0.1936
 1668SOL    HW2 6717   4.273   1.374   2.722 -1.8103 -0.3141 -0.4169
 1668SOL    HW3 6718   4.337   1.237   2.736  0.6151  0.8091 -0.3508
 1668SOL    MW4 6719   4.277   1.296   2.761 -0.0324 -0.0074  0.0415
 1669SOL     OW 6720   4.277   1.536   2.651 -0.0835 -0.1392 -0.1794
 1669SOL    HW2 6721   4.358   1.581   2.678 -0.9760  0.8976  0.8529
 1669SOL    HW3 6722   4.291   1.514   2.559  1.2653  0.2803 -0.0853
 1669SOL    MW4 6723   4.290   1.539   2.643 -0.0229  0.0530 -0.0310
 1670SOL     OW 6724   4.047   1.666   2.738  0.4544  0.2531 -0.2750
 1670SOL    HW2 6725   4.052   1.678   2.833 -0.6452 -0.2536 -0.1412
 1670SOL    HW3 6726   4.126   1.617   2.716  0.9045  0.7096  0.3247
 1670SOL    MW4 6727   4.058   1.661   2.747  0.3686  0.2465 -0.1783
 1671SOL     OW 6728   4.046   1.940   2.630  0.0833  0.5576  0.2225
 1671SOL    HW2 6729   4.111   1.976   2.690 -0.3751  1.8972 -0.0625
 1671SOL    HW3 6730   4.049   1.846   2.646 -1.4982  1.0230  3.8649
 1671SOL    MW4 6731   4.055   1.932   2.640 -0.1860  0.7958  0.6652
 1672SOL     OW 6732   4.266   2.038   2.768  0.0680  0.2156  0.4959
 1672SOL    HW2 6733   4.278   2.132   2.762  0.8155  0.0872 -0.1396
 1672SOL    HW3 6734   4.353   2.002   2.749 -0.5195 -0.6438 -0.6063
 1672SOL    MW4 6735   4.279   2.045   2.765  0.0892  0.0851  0.2668
 1673SOL     OW 6736   4.292   2.314   2.686 -0.2385 -0.1480 -0.0108
 1673SOL    HW2 6737   4.210   2.362   2.696 -0.4572 -0.4497 -0.3376
 1673SOL    HW3 6738   4.300   2.300   2.592 -0.3191 -1.0067  0.1087
 1673SOL    MW4 6739   4.282   2.319   2.675 -0.2780 -0.3011 -0.0381
 1674SOL     OW 6740   4.037   2.472   2.749  0.3449 -0.0394  0.4407
 1674SOL    HW2 6741   4.048   2.442   2.839 -1.3099 -0.7972  0.4076
 1674SOL    HW3 6742   3.959   2.427   2.718 -0.1770  1.6419 -0.7708
 1674SOL    MW4 6743   4.028   2.462   2.757  0.0577  0.0823  0.2768
 1675SOL     OW 6744   4.014   2.734   2.620 -0.2697  0.0072 -0.5799
 1675SOL    HW2 6745   4.081   2.788   2.662  0.4680  0.6573 -2.5433
 1675SOL    HW3 6746   4.031   2.646   2.651  0.3324  0.4578  0.3833
 1675SOL    MW4 6747   4.025   2.730   2.630 -0.0930  0.1523 -0.7122
 1676SOL     OW 6748   4.259   2.847   2.711 -0.1189 -0.1348 -0.3894
 1676SOL    HW2 6749   4.255   2.834   2.806  0.0974 -1.7111 -0.5833
 1676SOL    HW3 6750   4.285   2.938   2.700  0.8418 -0.2190  1.0708
 1676SOL    MW4 6751   4.262   2.857   2.722  0.0362 -0.3538 -0.2224
 1677SOL     OW 6752   4.278   3.112   2.625  0.0003  0.6099  0.2368
 1677SOL    HW2 6753   4.202   3.151   2.668 -0.3555  0.1791  0.0026
 1677SOL    HW3 6754   4.253   3.109   2.532  0.1744  0.1649  0.2062
 1677SOL    MW4 6755   4.265   3.117   2.618 -0.0234  0.4945  0.2017
 1678SOL     OW 6756   4.064   3.224   2.753 -0.3181 -0.2418 -0.5436
 1678SOL    HW2 6757   4.057   3.314   2.724 -0.9950  0.0510  0.5116
 1678SOL    HW3 6758   3.993   3.178   2.708 -0.3858 -0.1137 -0.5664
 1678SOL    MW4 6759   4.054   3.230   2.743 -0.4168 -0.1862 -0.4072
 1679SOL     OW 6760   4.067   3.500   2.662  0.4680  0.2181 -0.4067
 1679SOL    HW2 6761   4.146   3.540   2.700  0.8791 -1.2242  0.2982
 1679SOL    HW3 6762   4.080   3.508   2.568  0.7550  1.3381 -0.2783
 1679SOL    MW4 6763   4.079   3.506   2.655  0.5603  0.1757 -0.2968
 1680SOL     OW 6764   4.292   3.638   2.757  0.2048 -0.3024 -0.5474
 1680SOL    HW2 6765   4.288   3.610   2.848  0.0358  1.3788 -0.0124
 1680SOL    HW3 6766   4.368   3.593   2.720  0.3478 -0.8811  0.4585
 1680SOL    MW4 6767   4.301   3.629   2.764  0.2012 -0.1574 -0.3440
 1681SOL     OW 6768   4.250   3.892   2.632  0.5664 -0.8730  0.1532
 1681SOL    HW2 6769   4.262   3.806   2.672  1.0330 -0.2420  1.4175
 1681SOL    HW3 6770   4.322   3.945   2.667  0.0465  0.1378 -0.2748
 1681SOL    MW4 6771   4.261   3.888   2.642  0.5598 -0.6564  0.2635
 1682SOL     OW 6772   4.013   4.015   2.711 -0.1994  0.2303  0.6720
 1682SOL    HW2 6773   4.020   4.014   2.806 -1.4134 -1.3401  0.7505
 1682SOL    HW3 6774   4.094   3.972   2.681 -0.4475 -0.4853  1.0282
 1682SOL    MW4 6775   4.025   4.009   2.719 -0.3924 -0.0715  0.7296
 1683SOL     OW 6776   4.063   4.278   2.646  0.3986  0.4087 -0.4302
 1683SOL    HW2 6777   4.051   4.189   2.677 -1.0606  0.7653  0.0615
 1683SOL    HW3 6778   4.074   4.269   2.551 -0.6904 -0.2209 -0.5062
 1683SOL    MW4 6779   4.063   4.265   2.637  0.0629  0.3729 -0.3755
 1684SOL     OW 6780   4.269   4.402   2.774 -0.0073 -0.3701 -0.1171
 1684SOL    HW2 6781   4.191   4.357   2.740 -0.7367  0.1641  0.8401
 1684SOL    HW3 6782   4.274   4.483   2.723 -1.2434  0.5478  1.1866
 1684SOL    MW4 6783   4.259   4.407   2.762 -0.2666 -0.1783  0.1810
 1685SOL     OW 6784   0.223   4.641   3.135 -0.3046  0.2821 -0.5224
 1685SOL    HW2 6785   0.222   4.643   3.231 -0.9758  0.5572 -0.5287
 1685SOL    HW3 6786   0.137   4.676   3.110 -0.5814 -0.8348 -1.1992
 1685SOL    MW4 6787   0.211   4.646   3.145 -0.4297  0.1707 -0.6127
 1686SOL     OW 6788   4.477   0.072   3.039 -0.0175  0.4389  0.2311
 1686SOL    HW2 6789   4.393   0.035   3.066 -0.5136  0.9703 -0.5648
 1686SOL    HW3 6790   4.477   0.161   3.073  0.1396  0.5096  0.0473
 1686SOL    MW4 6791   4.466   0.079   3.047 -0.0615  0.5183  0.1018
 1687SOL     OW 6792   4.479   0.318   3.130  0.6926  0.0244 -0.3373
 1687SOL    HW2 6793   4.486   0.335   3.224  1.8449  0.1617 -0.4403
 1687SOL    HW3 6794   4.400   0.365   3.103  0.7540  0.5749  0.4282
 1687SOL    MW4 6795   4.470   0.326   3.138  0.8521  0.1152 -0.2501
 1688SOL     OW 6796   0.171   0.502   3.021 -0.1648  0.5272  0.3030
 1688SOL    HW2 6797   0.244   0.469   3.074 -1.0308 -2.7524 -0.4857
 1688SOL    HW3 6798   0.094   0.455   3.053 -1.9509  3.7468  0.9393
 1688SOL    MW4 6799   0.171   0.492   3.032 -0.5147  0.5193  0.2828
 1689SOL     OW 6800   0.171   0.775   3.132 -0.3794 -0.1600  0.5575
 1689SOL    HW2 6801   0.188   0.753   3.224  1.5245 -0.3248  0.1850
 1689SOL    HW3 6802   0.176   0.691   3.086 -1.7974 -0.1478  0.3445
 1689SOL    MW4 6803   0.174   0.761   3.138 -0.3153 -0.1801  0.4802
 1690SOL     OW 6804   4.461   0.913   3.026  0.2952  0.0111 -0.4612
 1690SOL    HW2 6805   4.530   0.853   3.054  0.7743  0.2672 -1.0866
 1690SOL    HW3 6806   4.455   0.900   2.931  0.4930  1.0460 -0.6193
 1690SOL    MW4 6807   4.469   0.903   3.017  0.3843  0.1814 -0.5648
 1691SOL     OW 6808   4.487   1.158   3.163 -0.4605 -0.4373 -0.2227
 1691SOL    HW2 6809   4.406   1.196   3.128  0.2500 -0.3058 -1.7994
 1691SOL    HW3 6810   4.491   1.071   3.125  0.9079  0.1282 -1.4239
 1691SOL    MW4 6811   4.477   1.152   3.153 -0.1863 -0.3455 -0.5889
 1692SOL     OW 6812   0.251   1.245   3.025  0.2675 -0.0554  0.2155
 1692SOL    HW2 6813   0.168   1.217   3.064  0.2750 -0.9722 -0.4066
 1692SOL    HW3 6814   0.237   1.236   2.930  1.0050 -0.0157  0.1015
 1692SOL    MW4 6815   0.238   1.240   3.017  0.3658 -0.1712  0.1183
 1693SOL     OW 6816   0.245   1.515   3.100  0.2601  0.3839  0.2954
 1693SOL    HW2 6817   0.162   1.547   3.066 -0.8370 -1.4645  1.1065
 1693SOL    HW3 6818   0.254   1.427   3.064  1.2180  0.0570  1.2689
 1693SOL    MW4 6819   0.236   1.507   3.091  0.2418  0.0969  0.5310
 1694SOL     OW 6820   0.014   1.633   3.021 -0.1946 -0.3263  0.2727
 1694SOL    HW2 6821  -0.059   1.590   3.065 -0.9109  1.0320  0.4289
 1694SOL    HW3 6822   0.009   1.724   3.049  0.3592  0.1994 -1.2601
 1694SOL    MW4 6823   0.003   1.640   3.030 -0.2160 -0.0778  0.0908
 1695SOL     OW 6824   0.029   1.909   3.106  0.0705  0.4422 -0.4448
 1695SOL    HW2 6825  -0.051   1.955   3.080 -0.3686 -0.7942 -1.3270
 1695SOL    HW3 6826   0.100   1.961   3.067 -0.2793  1.6187  0.4531
 1695SOL    MW4 6827   0.028   1.922   3.097 -0.0336  0.4342 -0.4427
 1696SOL     OW 6828   0.255   2.057   3.031 -0.0261 -0.1018 -0.3283
 1696SOL    HW2 6829   0.250   2.151   3.045 -3.2640 -0.3364  0.5130
 1696SOL    HW3 6830   0.261   2.047   2.935 -1.7631  0.9329 -0.5685
 1696SOL    MW4 6831   0.255   2.068   3.020 -0.6824  0.0041 -0.2489
 1697SOL     OW 6832   0.249   2.321   3.106  0.0455  0.0334  0.1309
 1697SOL    HW2 6833   0.237   2.312   3.200  1.6712 -0.6062  0.3029
 1697SOL    HW3 6834   0.322   2.383   3.097  0.9855 -1.1742 -0.6630
 1697SOL    MW4 6835   0.257   2.328   3.117  0.3841 -0.2105  0.0489
 1698SOL     OW 6836   4.484   2.437   3.039 -0.3635 -0.2748  0.1159
 1698SOL    HW2 6837   4.465   2.520   3.083 -0.5889 -0.4600  0.3719
 1698SOL    HW3 6838   4.572   2.414   3.069 -0.0471  0.1800 -0.4422
 1698SOL    MW4 6839   4.493   2.445   3.049 -0.3514 -0.2391  0.0758
 1699SOL     OW 6840   4.472   2.709   3.126  0.2128  0.5418  0.6287
 1699SOL    HW2 6841   4.496   2.725   3.217 -0.4624  1.4837  0.6488
 1699SOL    HW3 6842   4.545   2.746   3.076  0.5836  0.0235  0.7786
 1699SOL    MW4 6843   4.485   2.716   3.131  0.1726  0.5977  0.6509
 1700SOL     OW 6844   0.209   2.797   3.019 -0.2015 -0.0007  0.1266
 1700SOL    HW2 6845   0.298   2.799   3.053 -0.1815  0.6669  0.0286
 1700SOL    HW3 6846   0.219   2.797   2.924 -0.3178  0.4900  0.1149
 1700SOL    MW4 6847   0.222   2.797   3.011 -0.2142  0.1521  0.1121
 1701SOL     OW 6848   0.254   3.074   3.118 -0.0342 -0.3625  0.1506
 1701SOL    HW2 6849   0.187   3.136   3.092 -1.0586 -1.1562  0.8400
 1701SOL    HW3 6850   0.231   2.993   3.071 -0.2791 -0.9876  1.3211
 1701SOL    MW4 6851   0.242   3.071   3.108 -0.2017 -0.5496  0.3960
 1702SOL     OW 6852   0.040   3.240   3.025  0.3599  0.0499 -0.1317
 1702SOL    HW2 6853  -0.033   3.183   3.050 -0.5141  1.6109  0.9383
 1702SOL    HW3 6854   0.031   3.250   2.930 -0.6551  0.0026 -0.0432
 1702SOL    MW4 6855   0.029   3.234   3.015  0.1106  0.2496  0.0215
 1703SOL     OW 6856   0.010   3.490   3.143  0.6706  0.1945  0.0526
 1703SOL    HW2 6857  -0.069   3.533   3.109  1.0915  0.7094 -0.2794
 1703SOL    HW3 6858   0.010   3.404   3.102  0.2142  0.1422  0.1520
 1703SOL    MW4 6859  -0.001   3.485   3.133  0.6659  0.2556  0.0219
 1704SOL     OW 6860   0.223   3.613   3.017 -0.0648  0.1145 -0.3822
 1704SOL    HW2 6861   0.211   3.703   3.047  0.3896 -0.3571  1.2401
 1704SOL    HW3 6862   0.153   3.564   3.061 -0.9613 -0.1595 -2.0704
 1704SOL    MW4 6863   0.212   3.619   3.027 -0.1231  0.0162 -0.3910
 1705SOL     OW 6864   0.201   3.865   3.102  0.1592  0.2967  0.3615
 1705SOL    HW2 6865   0.198   3.851   3.197  0.9329 -0.6147  0.2730
 1705SOL    HW3 6866   0.281   3.916   3.088  1.6478 -2.0312 -0.0340
 1705SOL    MW4 6867   0.211   3.870   3.113  0.4577 -0.1309  0.2975
 1706SOL     OW 6868   4.455   3.994   3.040  0.0452  0.5448 -0.3125
 1706SOL    HW2 6869   4.538   3.948   3.057 -0.2622  0.0471 -0.1359
 1706SOL    HW3 6870   4.458   4.014   2.946 -0.7422 -1.7102 -0.8447
 1706SOL    MW4 6871   4.467   3.991   3.030 -0.0992  0.1814 -0.3598
 1707SOL     OW 6872   4.457   4.259   3.114 -0.0535  0.2213 -0.3385
 1707SOL    HW2 6873   4.497   4.269   3.200  0.5364  0.0769 -0.5920
 1707SOL    HW3 6874   4.452   4.165   3.100 -3.0850  0.1352  0.8786
 1707SOL    MW4 6875   4.461   4.248   3.123 -0.3757  0.1907 -0.2115
 1708SOL     OW 6876   0.211   4.391   3.027 -0.0880  0.1638  0.3202
 1708SOL    HW2 6877   0.127   4.347   3.044  0.1275  0.4438  2.1922
 1708SOL    HW3 6878   0.196   4.481   3.055  0.4476  0.5301 -0.5674
 1708SOL    MW4 6879   0.198   4.397   3.033  0.0111  0.2494  0.4501
 1709SOL     OW 6880   0.677   0.009   3.121 -0.1023  0.3080  0.5717
 1709SOL    HW2 6881   0.651  -0.083   3.128  0.1486  0.1276 -0.7175
 1709SOL    HW3 6882   0.602   0.052   3.080  0.3761  0.3882 -0.2285
 1709SOL    MW4 6883   0.664   0.002   3.117 -0.0061  0.2952  0.2961
 1710SOL     OW 6884   0.416   0.136   3.033  0.1933  0.7418  0.7319
 1710SOL    HW2 6885   0.423   0.225   3.068  1.1626  0.3851  1.4574
 1710SOL    HW3 6886   0.344   0.096   3.082  0.2641  0.8780  0.9475
 1710SOL    MW4 6887   0.408   0.142   3.044  0.3305  0.7127  0.8559
 1711SOL     OW 6888   0.441   0.385   3.147  0.3482  0.1069 -0.5226
 1711SOL    HW2 6889   0.453   0.367   3.240  0.0212  2.4052 -0.0029
 1711SOL    HW3 6890   0.520   0.432   3.121  1.1577 -1.9051 -1.8156
 1711SOL    MW4 6891   0.453   0.388   3.156  0.4118  0.1447 -0.6244
 1712SOL     OW 6892   0.672   0.519   3.049 -0.0464  0.4601  0.0619
 1712SOL    HW2 6893   0.758   0.479   3.065  0.0832  0.9468  0.5926
 1712SOL    HW3 6894   0.683   0.610   3.078 -0.8803  0.3993  0.5672
 1712SOL    MW4 6895   0.685   0.526   3.055 -0.1393  0.5164  0.1984
 1713SOL     OW 6896   0.689   0.774   3.097 -0.0653  0.0530 -0.8158
 1713SOL    HW2 6897   0.682   0.793   3.191  0.5386  0.3591 -0.8317
 1713SOL    HW3 6898   0.601   0.790   3.063 -0.6251 -1.3041 -0.0729
 1713SOL    MW4 6899   0.677   0.778   3.105 -0.0595 -0.0857 -0.7198
 1714SOL     OW 6900   0.427   0.860   3.020  0.3221 -0.9698 -0.2686
 1714SOL    HW2 6901   0.339   0.852   3.058  0.1983  1.6392  0.0974
 1714SOL    HW3 6902   0.411   0.867   2.926 -0.0121  1.1861 -0.0716
 1714SOL    MW4 6903   0.413   0.860   3.012  0.2617 -0.3411 -0.1945
 1715SOL     OW 6904   0.471   1.111   3.124  0.1995  0.2752 -0.6414
 1715SOL    HW2 6905   0.461   1.021   3.094 -0.1236  0.4050 -0.9286
 1715SOL    HW3 6906   0.397   1.158   3.085 -0.7438  0.2676  1.1288
 1715SOL    MW4 6907   0.460   1.106   3.115  0.0324  0.2912 -0.4454
 1716SOL     OW 6908   0.665   1.283   3.024 -0.5780  0.0496 -0.0394
 1716SOL    HW2 6909   0.753   1.247   3.031 -1.0397 -1.6584 -2.3592
 1716SOL    HW3 6910   0.610   1.220   3.072 -0.6029  0.9878  1.2018
 1716SOL    MW4 6911   0.669   1.270   3.032 -0.6422 -0.0520 -0.1817
 1717SOL     OW 6912   0.692   1.537   3.118  0.2595  0.5347  0.1764
 1717SOL    HW2 6913   0.684   1.521   3.212  0.5964  0.6575  0.2286
 1717SOL    HW3 6914   0.685   1.451   3.078  0.1218  0.4816  0.3156
 1717SOL    MW4 6915   0.690   1.524   3.125  0.2857  0.5441  0.2015
 1718SOL     OW 6916   0.473   1.663   3.028 -0.2224 -0.4034 -0.5778
 1718SOL    HW2 6917   0.549   1.616   3.062 -0.5216 -0.9198 -0.6093
 1718SOL    HW3 6918   0.398   1.612   3.059 -0.5182 -0.5318 -1.4860
 1718SOL    MW4 6919   0.473   1.650   3.036 -0.3009 -0.4884 -0.7017
 1719SOL     OW 6920   0.491   1.919   3.127  0.0475  0.1977 -0.0156
 1719SOL    HW2 6921   0.482   1.835   3.083  0.2519  0.1108  0.1070
 1719SOL    HW3 6922   0.408   1.963   3.112 -0.2244 -0.2086  0.3087
 1719SOL    MW4 6923   0.479   1.914   3.119  0.0386  0.1327  0.0434
 1720SOL     OW 6924   0.703   2.082   3.016 -0.3410  0.4141 -0.2183
 1720SOL    HW2 6925   0.776   2.032   3.054 -0.7298 -0.0444 -0.0588
 1720SOL    HW3 6926   0.625   2.033   3.043 -0.8635  2.0827  1.4589
 1720SOL    MW4 6927   0.702   2.069   3.025 -0.4613  0.5736  0.0241
 1721SOL     OW 6928   0.671   2.353   3.109  0.1843  0.6101  0.6189
 1721SOL    HW2 6929   0.662   2.330   3.201  0.5741 -0.4948  0.3968
 1721SOL    HW3 6930   0.700   2.272   3.067  0.3820  1.2020 -0.4126
 1721SOL    MW4 6931   0.673   2.339   3.116  0.2618  0.5426  0.4532
 1722SOL     OW 6932   0.444   2.490   3.056 -0.0660  0.0201  0.5972
 1722SOL    HW2 6933   0.531   2.455   3.074  0.0742 -0.2202 -0.5061
 1722SOL    HW3 6934   0.428   2.467   2.964 -0.7026  1.2971  0.3850
 1722SOL    MW4 6935   0.453   2.482   3.046 -0.1315  0.1569  0.4234
 1723SOL     OW 6936   0.472   2.752   3.133 -0.3131  0.2739  0.4441
 1723SOL    HW2 6937   0.555   2.781   3.094 -0.1144  1.1046  1.4458
 1723SOL    HW3 6938   0.465   2.660   3.109 -0.0081  0.6556 -1.2022
 1723SOL    MW4 6939   0.482   2.744   3.124 -0.2466  0.4339  0.3591
 1724SOL     OW 6940   0.693   2.843   3.019  0.4218  0.0298  0.0038
 1724SOL    HW2 6941   0.771   2.801   3.056  0.2258 -0.7941 -0.5145
 1724SOL    HW3 6942   0.708   2.936   3.032  1.7716 -0.0894 -0.6299
 1724SOL    MW4 6943   0.705   2.850   3.026  0.5741 -0.0944 -0.1483
 1725SOL     OW 6944   0.701   3.124   3.084 -0.3530  0.3516  0.0247
 1725SOL    HW2 6945   0.681   3.118   3.177 -0.7186  0.5747 -0.0373
 1725SOL    HW3 6946   0.618   3.151   3.043 -0.2937 -0.0954 -0.4035
 1725SOL    MW4 6947   0.687   3.127   3.091 -0.3934  0.3219 -0.0398
 1726SOL     OW 6948   0.463   3.225   3.003  0.0817 -0.5734  0.0907
 1726SOL    HW2 6949   0.460   3.311   3.046  0.4745 -0.6094  0.1896
 1726SOL    HW3 6950   0.413   3.168   3.061 -1.5804 -0.0519 -0.7955
 1726SOL    MW4 6951   0.456   3.229   3.017 -0.0858 -0.5095 -0.0131
 1727SOL     OW 6952   0.459   3.495   3.120 -0.2462 -0.0982  0.5073
 1727SOL    HW2 6953   0.453   3.480   3.214  0.8530 -0.4446  0.5231
 1727SOL    HW3 6954   0.381   3.547   3.099 -1.4736 -1.5744  1.2956
 1727SOL    MW4 6955   0.448   3.500   3.130 -0.2631 -0.3386  0.6132
 1728SOL     OW 6956   0.679   3.600   2.985 -0.2810 -0.5500  0.0300
 1728SOL    HW2 6957   0.756   3.569   3.034 -0.5394  1.1969  1.6095
 1728SOL    HW3 6958   0.606   3.554   3.025 -0.2001 -1.2129 -0.5827
 1728SOL    MW4 6959   0.680   3.590   2.997 -0.3045 -0.4070  0.1576
 1729SOL     OW 6960   0.656   3.862   3.147 -0.1966 -0.3075 -0.3476
 1729SOL    HW2 6961   0.668   3.850   3.241 -1.1797 -0.2023 -0.2025
 1729SOL    HW3 6962   0.664   3.774   3.110  0.0755 -0.3641 -0.1594
 1729SOL    MW4 6963   0.659   3.849   3.154 -0.2904 -0.3011 -0.3037
 1730SOL     OW 6964   0.430   4.021   3.068 -0.0648 -0.1910  0.0973
 1730SOL    HW2 6965   0.500   3.966   3.104  0.0048 -0.6953 -0.7796
 1730SOL    HW3 6966   0.431   4.001   2.974 -2.0299 -0.9238  0.2147
 1730SOL    MW4 6967   0.440   4.011   3.060 -0.3149 -0.3543 -0.0031
 1731SOL     OW 6968   0.442   4.288   3.168 -0.0865  0.0297 -0.0318
 1731SOL    HW2 6969   0.433   4.196   3.144 -0.1878 -0.0135  0.1787
 1731SOL    HW3 6970   0.372   4.332   3.120 -0.3415 -0.0698  0.2523
 1731SOL    MW4 6971   0.432   4.282   3.158 -0.1335  0.0105  0.0336
 1732SOL     OW 6972   0.661   4.412   3.085 -0.4769  0.5367  0.1277
 1732SOL    HW2 6973   0.586   4.364   3.118  0.7354 -1.4016  0.1181
 1732SOL    HW3 6974   0.657   4.401   2.990  0.0318  0.1367  0.1555
 1732SOL    MW4 6975   0.651   4.404   3.076 -0.2498  0.2279  0.1304
 1733SOL     OW 6976   1.108   4.667   3.146  0.0377  0.2302 -0.2135
 1733SOL    HW2 6977   1.184   4.708   3.104  0.5008 -0.4706 -0.0747
 1733SOL    HW3 6978   1.033   4.697   3.095  0.4298  0.7545 -0.4871
 1733SOL    MW4 6979   1.108   4.676   3.133  0.1506  0.2069 -0.2313
 1734SOL     OW 6980   0.904   0.109   3.002  0.3837  0.4811 -0.5042
 1734SOL    HW2 6981   0.911   0.200   3.031 -3.0227  0.1804  1.5999
 1734SOL    HW3 6982   0.821   0.079   3.040  0.5819 -2.9675 -2.6469
 1734SOL    MW4 6983   0.894   0.117   3.011 -0.0396 -0.0136 -0.5095
 1735SOL     OW 6984   0.918   0.387   3.079 -0.1744  0.2172 -0.6724
 1735SOL    HW2 6985   0.927   0.393   3.174 -1.3557  0.6569 -0.5828
 1735SOL    HW3 6986   0.987   0.444   3.044  0.9054 -0.7249 -0.1023
 1735SOL    MW4 6987   0.928   0.395   3.087 -0.1878  0.1509 -0.5853
 1736SOL     OW 6988   1.140   0.530   3.005 -0.1144  0.0054 -0.0866
 1736SOL    HW2 6989   1.221   0.485   3.029  0.9865  2.2297  0.5540
 1736SOL    HW3 6990   1.134   0.520   2.910  2.0484  1.5498 -0.4256
 1736SOL    MW4 6991   1.150   0.523   2.996  0.3163  0.5026 -0.0470
 1737SOL     OW 6992   1.144   0.788   3.105  0.2219 -0.1168 -0.2122
 1737SOL    HW2 6993   1.136   0.778   3.200  1.2453  1.1978  0.0393
 1737SOL    HW3 6994   1.147   0.699   3.071 -0.8584 -0.6015  0.9265
 1737SOL    MW4 6995   1.143   0.775   3.113  0.2143 -0.0073 -0.0286
 1738SOL     OW 6996   0.917   0.913   3.006 -0.2781  0.0527  0.0790
 1738SOL    HW2 6997   0.994   0.873   3.046 -0.6203 -0.5761  0.1129
 1738SOL    HW3 6998   0.843   0.870   3.047 -0.6438  0.1870 -0.4302
 1738SOL    MW4 6999   0.918   0.902   3.017 -0.3716 -0.0125  0.0162
 1739SOL     OW 7000   0.916   1.198   3.071 -0.0496 -0.5654 -0.3851
 1739SOL    HW2 7001   1.009   1.217   3.063 -0.0330 -0.7416 -0.6235
 1739SOL    HW3 7002   0.908   1.106   3.045 -0.4919 -0.1388 -1.8150
 1739SOL    MW4 7003   0.927   1.189   3.066 -0.1057 -0.5322 -0.6051
 1740SOL     OW 7004   1.181   1.256   3.054 -0.0074 -0.7383 -0.2850
 1740SOL    HW2 7005   1.255   1.208   3.092 -0.8053 -1.1055  0.8103
 1740SOL    HW3 7006   1.190   1.243   2.960  2.3329  0.6669 -0.3134
 1740SOL    MW4 7007   1.192   1.248   3.047  0.1961 -0.6013 -0.1442
 1741SOL     OW 7008   1.124   1.521   3.153  0.2475  0.2995 -0.3075
 1741SOL    HW2 7009   1.197   1.559   3.104 -0.0651 -0.7550 -1.6424
 1741SOL    HW3 7010   1.125   1.428   3.129  0.0262 -0.2291  1.6451
 1741SOL    MW4 7011   1.134   1.514   3.143  0.1771  0.0906 -0.2263
 1742SOL     OW 7012   0.934   1.642   3.010  0.3740  0.4516 -0.0661
 1742SOL    HW2 7013   1.002   1.601   3.062 -0.8013 -0.5367  0.7192
 1742SOL    HW3 7014   0.852   1.603   3.041 -0.6478  2.2513 -0.3561
 1742SOL    MW4 7015   0.932   1.632   3.021  0.0841  0.5587 -0.0010
 1743SOL     OW 7016   0.904   1.936   3.105 -0.1733 -0.0699 -0.3936
 1743SOL    HW2 7017   0.898   1.939   3.201  1.7126 -0.9196 -0.2160
 1743SOL    HW3 7018   0.915   1.844   3.085  0.9935  0.2527 -1.3016
 1743SOL    MW4 7019   0.905   1.924   3.115  0.2294 -0.1395 -0.4900
 1744SOL     OW 7020   1.161   2.082   3.056 -0.1010 -0.2626  0.0862
 1744SOL    HW2 7021   1.083   2.031   3.074  0.2772 -1.2261 -0.8773
 1744SOL    HW3 7022   1.170   2.079   2.960  1.3351 -0.5349  0.2107
 1744SOL    MW4 7023   1.152   2.075   3.046  0.1384 -0.4256 -0.0246
 1745SOL     OW 7024   1.155   2.333   3.138 -0.0331  0.0929  0.2177
 1745SOL    HW2 7025   1.074   2.373   3.106 -0.0209  0.6206  0.8468
 1745SOL    HW3 7026   1.159   2.248   3.093 -0.5761  0.3618 -0.3427
 1745SOL    MW4 7027   1.145   2.327   3.127 -0.1030  0.1979  0.2267
 1746SOL     OW 7028   0.921   2.464   3.037  0.5404  0.2894  0.1325
 1746SOL    HW2 7029   0.835   2.427   3.060  1.6137 -2.5119 -0.1417
 1746SOL    HW3 7030   0.925   2.458   2.942  0.5780  1.5172  0.0521
 1746SOL    MW4 7031   0.910   2.458   3.028  0.6869  0.0820  0.0858
 1747SOL     OW 7032   0.910   2.714   3.159 -0.1010  0.3451 -0.4170
 1747SOL    HW2 7033   0.890   2.704   3.253  0.3342  0.0002 -0.3578
 1747SOL    HW3 7034   0.919   2.624   3.128  0.0333  0.4673 -0.7283
 1747SOL    MW4 7035   0.909   2.701   3.167 -0.0259  0.3157 -0.4501
 1748SOL     OW 7036   1.137   2.805   3.041  0.0144  0.2267  0.3713
 1748SOL    HW2 7037   1.141   2.899   3.060 -0.7071  0.5029 -0.7733
 1748SOL    HW3 7038   1.059   2.774   3.086 -0.4031  0.4169 -0.2157
 1748SOL    MW4 7039   1.127   2.813   3.049 -0.1358  0.2887  0.1433
 1749SOL     OW 7040   1.167   3.082   3.097  0.5834  0.3625 -0.0261
 1749SOL    HW2 7041   1.237   3.147   3.089 -0.5508  1.7067  0.8089
 1749SOL    HW3 7042   1.087   3.132   3.085 -0.2920 -0.9731  0.2211
 1749SOL    MW4 7043   1.166   3.097   3.094  0.3183  0.3636  0.1166
 1750SOL     OW 7044   0.948   3.212   3.028  0.2923 -0.6873 -0.4215
 1750SOL    HW2 7045   0.864   3.171   3.048  0.4810 -0.9515 -0.1457
 1750SOL    HW3 7046   0.950   3.219   2.933 -1.0757  1.5510 -0.3057
 1750SOL    MW4 7047   0.937   3.207   3.018  0.1367 -0.4268 -0.3698
 1751SOL     OW 7048   0.904   3.475   3.118 -0.1849  0.5792  0.5771
 1751SOL    HW2 7049   0.986   3.523   3.104 -0.1645  0.4122  0.1017
 1751SOL    HW3 7050   0.924   3.385   3.095 -0.2905  0.3835  1.2403
 1751SOL    MW4 7051   0.917   3.470   3.113 -0.1962  0.5312  0.6020
 1752SOL     OW 7052   1.123   3.629   3.067  0.0412  0.0034  0.0118
 1752SOL    HW2 7053   1.198   3.582   3.104 -0.2307 -0.4632 -0.0231
 1752SOL    HW3 7054   1.140   3.721   3.087 -0.3215 -0.2799  1.6930
 1752SOL    MW4 7055   1.135   3.635   3.074 -0.0427 -0.0956  0.2289
 1753SOL     OW 7056   1.124   3.898   3.143 -0.1103 -0.1018  0.4966
 1753SOL    HW2 7057   1.124   3.876   3.237 -2.2275 -0.8159  0.3599
 1753SOL    HW3 7058   1.038   3.938   3.129 -0.1579 -0.8307 -1.3336
 1753SOL    MW4 7059   1.113   3.901   3.154 -0.3959 -0.2925  0.2372
 1754SOL     OW 7060   0.883   4.009   3.054 -0.1092  0.0750  0.2434
 1754SOL    HW2 7061   0.801   3.962   3.071 -0.2756 -0.1035 -0.9797
 1754SOL    HW3 7062   0.890   4.011   2.959  0.9746  0.6846  0.3246
 1754SOL    MW4 7063   0.873   4.003   3.044  0.0119  0.1321  0.0927
 1755SOL     OW 7064   0.903   4.274   3.129  0.1326 -0.1648 -0.1259
 1755SOL    HW2 7065   0.884   4.189   3.091  0.0965  0.1897 -0.8954
 1755SOL    HW3 7066   0.820   4.322   3.125  0.4502  0.3324 -0.7925
 1755SOL    MW4 7067   0.889   4.269   3.124  0.1697 -0.0520 -0.3154
 1756SOL     OW 7068   1.117   4.408   3.046  0.2413  0.4446  0.3197
 1756SOL    HW2 7069   1.042   4.359   3.079 -0.1961  0.8201 -0.1216
 1756SOL    HW3 7070   1.113   4.492   3.091 -0.8107  1.2608 -1.2592
 1756SOL    MW4 7071   1.107   4.412   3.056  0.0447  0.6018  0.0532
 1757SOL     OW 7072   1.594   4.630   3.141 -0.5077  0.1698 -0.1632
 1757SOL    HW2 7073   1.608   4.635   3.236 -0.1428 -0.5377 -0.1819
 1757SOL    HW3 7074   1.503   4.656   3.130 -0.8453 -0.7235  0.4738
 1757SOL    MW4 7075   1.584   4.634   3.152 -0.5041 -0.0415 -0.0818
 1758SOL     OW 7076   1.360   0.093   3.050 -0.0279 -0.0576 -0.4174
 1758SOL    HW2 7077   1.359   0.185   3.076  1.8203  0.1653 -1.0346
 1758SOL    HW3 7078   1.361   0.096   2.954 -0.5572 -0.7286 -0.4444
 1758SOL    MW4 7079   1.360   0.105   3.041  0.1460 -0.1167 -0.5023
 1759SOL     OW 7080   1.353   0.360   3.113 -0.0588 -0.3804 -0.7109
 1759SOL    HW2 7081   1.353   0.365   3.209 -1.7302  0.1588 -0.7236
 1759SOL    HW3 7082   1.437   0.399   3.087  1.0092 -1.7456  0.5750
 1759SOL    MW4 7083   1.364   0.366   3.122 -0.1384 -0.4894 -0.5429
 1760SOL     OW 7084   1.586   0.486   3.009 -0.5021 -0.6570 -0.4243
 1760SOL    HW2 7085   1.580   0.579   3.032  1.4136 -0.4054 -0.8655
 1760SOL    HW3 7086   1.566   0.484   2.915  0.5114 -0.5567 -0.6418
 1760SOL    MW4 7087   1.582   0.498   2.999 -0.1156 -0.6106 -0.5112
 1761SOL     OW 7088   1.571   0.757   3.073  0.5680 -0.8651  0.0319
 1761SOL    HW2 7089   1.569   0.789   3.164  0.5626 -0.3092 -0.1610
 1761SOL    HW3 7090   1.496   0.800   3.032 -0.1185 -2.0129  0.0575
 1761SOL    MW4 7091   1.561   0.767   3.080  0.4766 -0.9431  0.0100
 1762SOL     OW 7092   1.366   0.907   2.963 -0.1435 -0.0789  0.1027
 1762SOL    HW2 7093   1.381   0.987   3.014  0.8854 -0.3140  0.1872
 1762SOL    HW3 7094   1.285   0.871   2.999 -0.0412  0.3611  0.8027
 1762SOL    MW4 7095   1.358   0.913   2.975  0.0058 -0.0519  0.2062
 1763SOL     OW 7096   1.425   1.127   3.127  0.1699 -0.0657  0.4897
 1763SOL    HW2 7097   1.403   1.146   3.219  0.6389  1.5878  0.2820
 1763SOL    HW3 7098   1.484   1.199   3.102  0.9937 -1.1606 -0.7509
 1763SOL    MW4 7099   1.430   1.139   3.136  0.3403  0.0080  0.2987
 1764SOL     OW 7100   1.610   1.301   3.016 -0.1855 -0.4161 -0.1305
 1764SOL    HW2 7101   1.687   1.255   3.049 -0.1779 -1.3760 -1.4611
 1764SOL    HW3 7102   1.617   1.389   3.053  1.2370 -0.6625  0.2139
 1764SOL    MW4 7103   1.621   1.307   3.025  0.0032 -0.5753 -0.2604
 1765SOL     OW 7104   1.594   1.558   3.116  0.1904  0.0762 -0.0784
 1765SOL    HW2 7105   1.658   1.609   3.068 -0.2830  0.5460 -0.2125
 1765SOL    HW3 7106   1.509   1.590   3.086 -0.1165  0.4792  1.1583
 1765SOL    MW4 7107   1.591   1.569   3.106  0.0875  0.1913  0.0670
 1766SOL     OW 7108   1.338   1.640   3.027 -0.0495  0.0429  0.0867
 1766SOL    HW2 7109   1.335   1.730   3.059 -2.5988  0.4869 -1.2751
 1766SOL    HW3 7110   1.337   1.648   2.931  1.2039 -1.4035 -0.0689
 1766SOL    MW4 7111   1.337   1.653   3.018 -0.2205 -0.0894 -0.1132
 1767SOL     OW 7112   1.341   1.895   3.124  0.2018 -0.4872 -0.0301
 1767SOL    HW2 7113   1.391   1.916   3.203  0.4593 -0.6625 -0.1433
 1767SOL    HW3 7114   1.266   1.953   3.126 -0.9389 -1.9801  1.4713
 1767SOL    MW4 7115   1.338   1.905   3.135  0.0852 -0.7073  0.1526
 1768SOL     OW 7116   1.563   2.025   3.012 -0.2257  0.1567  0.1764
 1768SOL    HW2 7117   1.480   1.984   3.036  0.2533 -0.7470  0.2903
 1768SOL    HW3 7118   1.559   2.036   2.917  0.2247 -1.4293 -0.0322
 1768SOL    MW4 7119   1.551   2.021   3.003 -0.1031 -0.1719  0.1640
 1769SOL     OW 7120   1.626   2.305   3.083 -0.2831 -0.2585 -0.2685
 1769SOL    HW2 7121   1.544   2.352   3.068 -0.6247 -0.1388  1.8286
 1769SOL    HW3 7122   1.602   2.213   3.072 -0.1048 -0.1070 -2.1704
 1769SOL    MW4 7123   1.612   2.299   3.080 -0.3046 -0.2229 -0.2429
 1770SOL     OW 7124   1.390   2.423   3.016  0.2733 -0.4940 -0.3101
 1770SOL    HW2 7125   1.312   2.399   3.066 -0.7680  0.5704 -1.3968
 1770SOL    HW3 7126   1.363   2.418   2.924  1.6432 -0.6422 -0.7296
 1770SOL    MW4 7127   1.376   2.419   3.010  0.3167 -0.3734 -0.5085
 1771SOL     OW 7128   1.384   2.688   3.113 -0.2473 -0.3035 -0.7634
 1771SOL    HW2 7129   1.388   2.601   3.073 -1.4318 -0.8593  0.2884
 1771SOL    HW3 7130   1.294   2.717   3.097 -0.0930  0.3806 -0.3835
 1771SOL    MW4 7131   1.373   2.680   3.106 -0.3831 -0.2866 -0.5746
 1772SOL     OW 7132   1.591   2.828   3.008  0.0991  0.4409 -0.1131
 1772SOL    HW2 7133   1.671   2.788   3.041  0.6572  1.6469  0.0203
 1772SOL    HW3 7134   1.521   2.781   3.053  0.7493 -0.2410  0.2022
 1772SOL    MW4 7135   1.592   2.817   3.018  0.2586  0.5100 -0.0541
 1773SOL     OW 7136   1.568   3.083   3.107  0.0569 -0.2081  0.3916
 1773SOL    HW2 7137   1.596   3.050   3.192 -0.6192 -2.0410 -0.0634
 1773SOL    HW3 7138   1.559   3.005   3.053  0.6232  0.9449 -1.4156
 1773SOL    MW4 7139   1.570   3.069   3.111  0.0424 -0.2978  0.0932
 1774SOL     OW 7140   1.371   3.257   3.043  0.0358 -0.0466 -0.2796
 1774SOL    HW2 7141   1.443   3.197   3.066  0.2738 -0.0672 -1.0749
 1774SOL    HW3 7142   1.370   3.257   2.948 -0.4222  0.6821 -0.2720
 1774SOL    MW4 7143   1.381   3.249   3.034  0.0068  0.0470 -0.3834
 1775SOL     OW 7144   1.335   3.504   3.166 -0.0757 -0.4391 -0.6101
 1775SOL    HW2 7145   1.348   3.485   3.259  1.6398  0.5961 -0.6166
 1775SOL    HW3 7146   1.363   3.424   3.121  0.9627 -0.2404 -0.3256
 1775SOL    MW4 7147   1.341   3.491   3.172  0.2877 -0.2763 -0.5734
 1776SOL     OW 7148   1.540   3.609   3.045 -0.1771  0.1568 -0.0663
 1776SOL    HW2 7149   1.458   3.571   3.076  0.2162 -1.5294 -0.9996
 1776SOL    HW3 7150   1.528   3.615   2.950  0.6879  0.1214 -0.1772
 1776SOL    MW4 7151   1.527   3.605   3.036 -0.0111 -0.0706 -0.2038
 1777SOL     OW 7152   1.518   3.863   3.142  0.1112 -0.0780  0.2762
 1777SOL    HW2 7153   1.606   3.894   3.125 -0.1645  1.7054  1.9596
 1777SOL    HW3 7154   1.521   3.769   3.123  2.2567  0.0477 -0.0282
 1777SOL    MW4 7155   1.530   3.855   3.137  0.3577  0.1738  0.4582
 1778SOL     OW 7156   1.347   4.035   3.032  0.2188  0.2973 -0.2934
 1778SOL    HW2 7157   1.414   3.976   3.066  0.8211  1.2727  0.2385
 1778SOL    HW3 7158   1.264   3.995   3.057  0.5835 -1.3079 -1.6208
 1778SOL    MW4 7159   1.345   4.022   3.039  0.3464  0.2146 -0.3984
 1779SOL     OW 7160   1.358   4.295   3.145  0.4413 -0.3241  0.0988
 1779SOL    HW2 7161   1.334   4.208   3.113  1.3946  0.0275 -1.6084
 1779SOL    HW3 7162   1.290   4.352   3.111  0.5415 -0.1969  0.1137
 1779SOL    MW4 7163   1.346   4.291   3.136  0.5803 -0.2613 -0.1247
 1780SOL     OW 7164   1.595   4.364   3.046 -0.2848  0.0369 -0.1127
 1780SOL    HW2 7165   1.512   4.325   3.074 -0.0756  0.3525  0.9732
 1780SOL    HW3 7166   1.595   4.452   3.085  1.0343 -0.3494  0.8118
 1780SOL    MW4 7167   1.584   4.370   3.055 -0.0832  0.0277  0.1521
 1781SOL     OW 7168   2.052   0.006   3.103  0.1514  0.3420 -0.0122
 1781SOL    HW2 7169   2.037   0.009   3.198 -0.3232 -1.5753 -0.0061
 1781SOL    HW3 7170   1.972   0.043   3.065  0.6045  1.7039  0.3430
 1781SOL    MW4 7171   2.040   0.012   3.111  0.1483  0.2688  0.0355
 1782SOL     OW 7172   1.796   0.122   3.023  0.2753  0.0554  0.2764
 1782SOL    HW2 7173   1.713   0.085   3.054 -0.3350  1.0934 -0.0935
 1782SOL    HW3 7174   1.787   0.121   2.927  1.2224 -1.0326  0.1896
 1782SOL    MW4 7175   1.784   0.117   3.014  0.3197  0.0488  0.2160
 1783SOL     OW 7176   1.804   0.385   3.130  0.2374 -0.3781  0.0715
 1783SOL    HW2 7177   1.802   0.296   3.094 -1.0590 -0.6641  0.8057
 1783SOL    HW3 7178   1.735   0.431   3.082 -0.8921 -0.5133  1.5201
 1783SOL    MW4 7179   1.794   0.379   3.119 -0.0826 -0.4337  0.3593
 1784SOL     OW 7180   2.032   0.512   3.060 -0.1571 -0.3457  0.1152
 1784SOL    HW2 7181   1.949   0.479   3.096 -0.9165  1.3044 -0.0628
 1784SOL    HW3 7182   2.027   0.493   2.967  0.5620 -2.0631  0.4154
 1784SOL    MW4 7183   2.020   0.505   3.053 -0.1621 -0.3545  0.1314
 1785SOL     OW 7184   2.034   0.768   3.119 -0.3562  0.5007 -0.0932
 1785SOL    HW2 7185   1.956   0.809   3.083  0.1218  0.6953 -0.9200
 1785SOL    HW3 7186   2.026   0.676   3.096 -0.7165  0.3812  0.4975
 1785SOL    MW4 7187   2.023   0.761   3.112 -0.3405  0.5106 -0.1245
 1786SOL     OW 7188   1.804   0.892   2.992 -0.2056 -0.2478 -0.5906
 1786SOL    HW2 7189   1.722   0.844   2.996  0.4208 -1.2224  1.0048
 1786SOL    HW3 7190   1.829   0.889   2.900 -1.5241 -0.6668 -0.9451
 1786SOL    MW4 7191   1.797   0.886   2.981 -0.2970 -0.4317 -0.4268
 1787SOL     OW 7192   1.824   1.152   3.119  0.0097 -0.5407 -0.1915
 1787SOL    HW2 7193   1.822   1.152   3.215  0.7183 -0.3100 -0.1754
 1787SOL    HW3 7194   1.820   1.059   3.095 -2.2893 -0.5132  0.0069
 1787SOL    MW4 7195   1.823   1.139   3.128 -0.2002 -0.5068 -0.1633
 1788SOL     OW 7196   2.036   1.289   2.979 -0.0692  0.1481  0.2887
 1788SOL    HW2 7197   2.115   1.241   3.004  0.2597 -0.3445 -1.6370
 1788SOL    HW3 7198   1.965   1.241   3.022  0.3115 -1.7970 -1.1675
 1788SOL    MW4 7199   2.037   1.276   2.988  0.0246 -0.1734 -0.1576
 1789SOL     OW 7200   2.006   1.532   3.078  0.2135  0.3529  0.2373
 1789SOL    HW2 7201   1.982   1.519   3.169  1.0573  0.0506  0.4152
 1789SOL    HW3 7202   2.018   1.444   3.043  1.1711  0.5021  0.1762
 1789SOL    MW4 7203   2.004   1.519   3.085  0.4511  0.3328  0.2527
 1790SOL     OW 7204   1.790   1.704   2.985 -0.4092 -0.1892  0.4536
 1790SOL    HW2 7205   1.820   1.786   3.023 -0.3506 -0.7155  1.5640
 1790SOL    HW3 7206   1.860   1.642   3.002 -0.9699 -0.7653  0.6964
 1790SOL    MW4 7207   1.803   1.706   2.992 -0.4755 -0.3346  0.6318
 1791SOL     OW 7208   1.820   1.955   3.098  0.1452 -0.3805 -0.0877
 1791SOL    HW2 7209   1.886   2.011   3.055  0.3017 -0.4551  0.0545
 1791SOL    HW3 7210   1.736   1.992   3.071  0.2462  0.5660  0.8392
 1791SOL    MW4 7211   1.818   1.967   3.089  0.1792 -0.2654  0.0534
 1792SOL     OW 7212   2.009   2.110   2.976  0.4573  0.1266  0.2716
 1792SOL    HW2 7213   2.083   2.061   3.012  0.3069  0.4569  1.0429
 1792SOL    HW3 7214   2.002   2.187   3.032  0.6805  1.0209 -0.9358
 1792SOL    MW4 7215   2.018   2.113   2.988  0.4673  0.2880  0.2141
 1793SOL     OW 7216   2.020   2.344   3.132 -0.3759 -0.0346 -0.4350
 1793SOL    HW2 7217   2.095   2.397   3.106 -0.1838  0.1689  0.5062
 1793SOL    HW3 7218   1.951   2.367   3.070 -0.6089  2.0696  0.5732
 1793SOL    MW4 7219   2.021   2.354   3.121 -0.3812  0.2697 -0.1779
 1794SOL     OW 7220   1.827   2.449   2.968 -0.2077  0.2652 -0.2371
 1794SOL    HW2 7221   1.825   2.529   3.020 -0.1414  0.6833 -0.8690
 1794SOL    HW3 7222   1.762   2.392   3.009  1.7363 -0.4556  1.9464
 1794SOL    MW4 7223   1.818   2.452   2.980  0.0575  0.2253 -0.0322
 1795SOL     OW 7224   1.806   2.699   3.111 -0.6097 -0.2516  0.5210
 1795SOL    HW2 7225   1.829   2.673   3.200  0.2177  0.5242  0.5337
 1795SOL    HW3 7226   1.878   2.755   3.082 -1.0535 -0.1926 -0.4998
 1795SOL    MW4 7227   1.819   2.703   3.119 -0.5590 -0.1414  0.3879
 1796SOL     OW 7228   2.035   2.847   3.037 -0.0105  0.1692 -0.0415
 1796SOL    HW2 7229   2.027   2.939   3.062  0.5931 -0.3157  2.0623
 1796SOL    HW3 7230   2.047   2.849   2.942  0.6659  2.3095  0.0566
 1796SOL    MW4 7231   2.036   2.859   3.027  0.1585  0.3874  0.2491
 1797SOL     OW 7232   2.025   3.102   3.134  0.5766  0.0295  0.0315
 1797SOL    HW2 7233   2.048   3.106   3.227  0.9630  1.2073 -0.1080
 1797SOL    HW3 7234   1.963   3.174   3.122  1.5448  0.7173 -0.9060
 1797SOL    MW4 7235   2.019   3.112   3.144  0.7555  0.2754 -0.1106
 1798SOL     OW 7236   1.802   3.256   3.056 -0.3686 -0.1059  0.1541
 1798SOL    HW2 7237   1.736   3.188   3.074  0.8925 -1.5479 -0.5357
 1798SOL    HW3 7238   1.799   3.268   2.962 -0.6675  0.8964  0.2894
 1798SOL    MW4 7239   1.793   3.248   3.046 -0.2416 -0.1640  0.0811
 1799SOL     OW 7240   1.785   3.503   3.140 -0.1202 -0.3652 -0.1497
 1799SOL    HW2 7241   1.786   3.414   3.106 -1.4508 -1.1469  1.7622
 1799SOL    HW3 7242   1.700   3.538   3.112  0.0387  0.0193 -0.1597
 1799SOL    MW4 7243   1.774   3.496   3.132 -0.2749 -0.4175  0.1009
 1800SOL     OW 7244   2.027   3.625   3.038  0.0264 -0.3404 -0.0396
 1800SOL    HW2 7245   2.035   3.718   3.061  0.1716 -0.4758  0.4705
 1800SOL    HW3 7246   1.940   3.600   3.070  0.2191 -0.5235  0.3453
 1800SOL    MW4 7247   2.016   3.634   3.046  0.0710 -0.3824  0.0784
 1801SOL     OW 7248   2.040   3.885   3.115 -0.3051  0.2753 -0.5355
 1801SOL    HW2 7249   2.056   3.887   3.210 -0.8157 -3.0465 -0.3046
 1801SOL    HW3 7250   1.946   3.904   3.107 -0.4788 -0.4427 -0.2729
 1801SOL    MW4 7251   2.030   3.888   3.127 -0.3955 -0.2575 -0.4706
 1802SOL     OW 7252   1.769   3.962   3.036  0.1034 -0.1021  0.1251
 1802SOL    HW2 7253   1.782   4.045   3.083 -0.5414  0.3899 -0.5660
 1802SOL    HW3 7254   1.761   3.987   2.944 -1.5974 -0.7776  0.0764
 1802SOL    MW4 7255   1.770   3.977   3.030 -0.2061 -0.1261  0.0277
 1803SOL     OW 7256   1.809   4.233   3.113 -0.0581 -0.4870 -0.2788
 1803SOL    HW2 7257   1.882   4.293   3.098 -0.7756  0.0297 -1.8411
 1803SOL    HW3 7258   1.732   4.280   3.079 -0.7905 -1.8460 -0.5418
 1803SOL    MW4 7259   1.808   4.247   3.107 -0.2494 -0.5980 -0.5198
 1804SOL     OW 7260   2.014   4.399   3.053  0.0313 -0.3929  0.1205
 1804SOL    HW2 7261   2.033   4.488   3.083 -0.4063  0.0201 -0.8059
 1804SOL    HW3 7262   1.988   4.410   2.961  0.2733 -1.5069 -0.0865
 1804SOL    MW4 7263   2.013   4.413   3.045  0.0055 -0.4849 -0.0291
 1805SOL     OW 7264   2.497   4.652   3.126  0.5234 -0.2753 -0.0929
 1805SOL    HW2 7265   2.478   4.560   3.109  1.0941 -0.5088  0.5314
 1805SOL    HW3 7266   2.426   4.699   3.081  0.9417 -0.9529 -1.5113
 1805SOL    MW4 7267   2.485   4.646   3.118  0.6542 -0.3953 -0.1976
 1806SOL     OW 7268   2.273   0.134   3.017 -0.4695  0.0644 -0.1775
 1806SOL    HW2 7269   2.274   0.227   3.043 -1.3028  0.4668 -1.5290
 1806SOL    HW3 7270   2.194   0.099   3.060  0.0577 -0.1286  0.6541
 1806SOL    MW4 7271   2.262   0.142   3.026 -0.5102  0.0920 -0.2463
 1807SOL     OW 7272   2.292   0.402   3.103  0.0488  0.0080  0.0689
 1807SOL    HW2 7273   2.288   0.378   3.196  0.3688  1.3808  0.4436
 1807SOL    HW3 7274   2.202   0.421   3.079 -0.3015 -2.1230 -0.3946
 1807SOL    MW4 7275   2.280   0.401   3.112  0.0448 -0.0921  0.0570
 1808SOL     OW 7276   2.537   0.507   3.035  0.0886 -0.7367  0.2052
 1808SOL    HW2 7277   2.455   0.469   3.067  0.5078 -1.1569  0.7789
 1808SOL    HW3 7278   2.527   0.508   2.940 -0.5630 -0.8346  0.2702
 1808SOL    MW4 7279   2.525   0.503   3.027  0.0579 -0.8051  0.2892
 1809SOL     OW 7280   2.499   0.780   3.129 -0.0246  0.2532 -0.3955
 1809SOL    HW2 7281   2.582   0.817   3.099  0.2312 -0.7388 -0.9191
 1809SOL    HW3 7282   2.508   0.686   3.116 -0.7808  0.0274  0.6698
 1809SOL    MW4 7283   2.511   0.772   3.123 -0.0906  0.0926 -0.3242
 1810SOL     OW 7284   2.253   0.895   3.009 -0.4023  0.5022 -0.0357
 1810SOL    HW2 7285   2.318   0.852   3.066 -1.1151 -0.0453  0.3799
 1810SOL    HW3 7286   2.169   0.865   3.043 -0.8939  1.6723 -0.2045
 1810SOL    MW4 7287   2.251   0.885   3.021 -0.5612  0.5843 -0.0029
 1811SOL     OW 7288   2.262   1.147   3.100  0.3015 -0.0408 -0.2617
 1811SOL    HW2 7289   2.252   1.147   3.195  0.1106  1.7371 -0.2654
 1811SOL    HW3 7290   2.259   1.054   3.075 -2.6575 -0.3826  1.1393
 1811SOL    MW4 7291   2.260   1.135   3.109 -0.1137  0.1487 -0.0775
 1812SOL     OW 7292   2.501   1.281   3.018  0.1947  0.4922 -0.1387
 1812SOL    HW2 7293   2.419   1.237   3.040  0.0442  0.6069 -0.4632
 1812SOL    HW3 7294   2.496   1.296   2.923  0.0536  1.5844  0.0380
 1812SOL    MW4 7295   2.490   1.277   3.008  0.1562  0.6515 -0.1583
 1813SOL     OW 7296   2.450   1.546   3.104 -0.2556  0.5692 -0.1255
 1813SOL    HW2 7297   2.363   1.574   3.074 -0.6303  0.7823  1.1434
 1813SOL    HW3 7298   2.459   1.457   3.069 -0.7803  0.7340 -0.6913
 1813SOL    MW4 7299   2.439   1.538   3.095 -0.3746  0.6191 -0.0324
 1814SOL     OW 7300   2.206   1.691   3.002  0.1089  0.5409  0.4031
 1814SOL    HW2 7301   2.137   1.628   3.023 -0.3192  1.0254  0.4289
 1814SOL    HW3 7302   2.231   1.670   2.912 -1.4818  1.6902 -0.3188
 1814SOL    MW4 7303   2.200   1.680   2.993 -0.1574  0.7564  0.3111
 1815SOL     OW 7304   2.208   1.941   3.086  0.0748 -0.1766  0.1150
 1815SOL    HW2 7305   2.281   1.984   3.043 -0.1218 -0.1101 -0.1541
 1815SOL    HW3 7306   2.215   1.849   3.062  0.1356 -0.1907  0.1849
 1815SOL    MW4 7307   2.218   1.935   3.077  0.0570 -0.1696  0.0887
 1816SOL     OW 7308   2.435   2.070   2.990 -0.4385  0.1311  0.4505
 1816SOL    HW2 7309   2.497   2.006   3.024 -0.2982 -0.1135 -0.2644
 1816SOL    HW3 7310   2.447   2.067   2.895  0.5776  2.2097  0.4825
 1816SOL    MW4 7311   2.445   2.061   2.982 -0.2859  0.3726  0.3603
 1817SOL     OW 7312   2.481   2.329   3.085 -0.2871  0.0420 -0.2529
 1817SOL    HW2 7313   2.492   2.312   3.178  2.3301 -0.6562 -0.6747
 1817SOL    HW3 7314   2.454   2.245   3.048 -0.1845  0.0439 -0.3290
 1817SOL    MW4 7315   2.479   2.316   3.092  0.0718 -0.0498 -0.3183
 1818SOL     OW 7316   2.252   2.467   3.002 -0.1632 -0.4124 -0.2034
 1818SOL    HW2 7317   2.242   2.549   3.052 -2.3323 -1.6668  1.5082
 1818SOL    HW3 7318   2.333   2.429   3.035  1.0723  1.2036 -1.2862
 1818SOL    MW4 7319   2.261   2.473   3.013 -0.2863 -0.3648 -0.1204
 1819SOL     OW 7320   2.239   2.702   3.141  0.1212  0.1689 -0.6013
 1819SOL    HW2 7321   2.312   2.737   3.089 -0.7190  1.1031 -1.1589
 1819SOL    HW3 7322   2.161   2.739   3.101 -0.7481 -1.7227 -0.6871
 1819SOL    MW4 7323   2.239   2.712   3.129 -0.1042  0.0429 -0.6859
 1820SOL     OW 7324   2.494   2.822   3.031 -0.3192  0.2739 -0.4302
 1820SOL    HW2 7325   2.492   2.915   3.052 -3.1764  0.0427  0.5631
 1820SOL    HW3 7326   2.506   2.818   2.936  0.2799  1.6222 -0.4177
 1820SOL    MW4 7327   2.495   2.834   3.021 -0.6173  0.4213 -0.2973
 1821SOL     OW 7328   2.441   3.096   3.089 -0.0864 -0.5014 -0.0269
 1821SOL    HW2 7329   2.521   3.140   3.059 -0.5511  2.0294  2.2612
 1821SOL    HW3 7330   2.370   3.141   3.043 -0.5129  0.7880  1.8084
 1821SOL    MW4 7331   2.442   3.108   3.079 -0.2038  0.0029  0.5169
 1822SOL     OW 7332   2.216   3.228   2.985 -0.0883  0.0166 -0.4028
 1822SOL    HW2 7333   2.219   3.308   3.036  1.7231 -1.0536  1.2353
 1822SOL    HW3 7334   2.152   3.173   3.029  0.8158 -0.5565  0.2221
 1822SOL    MW4 7335   2.208   3.231   2.997  0.2699 -0.2003 -0.1044
 1823SOL     OW 7336   2.238   3.473   3.112  0.1981 -0.1120  0.0238
 1823SOL    HW2 7337   2.310   3.513   3.064  0.8320  0.3834  1.3684
 1823SOL    HW3 7338   2.161   3.525   3.089  0.2404 -0.6697 -1.4465
 1823SOL    MW4 7339   2.237   3.485   3.103  0.2871 -0.1204  0.0072
 1824SOL     OW 7340   2.463   3.585   2.995  0.3905 -0.0215  0.4358
 1824SOL    HW2 7341   2.536   3.532   3.027  0.4852  0.7864  1.5940
 1824SOL    HW3 7342   2.475   3.670   3.038 -0.9050  0.3075  0.1603
 1824SOL    MW4 7343   2.474   3.589   3.005  0.2317  0.1287  0.5522
 1825SOL     OW 7344   2.460   3.838   3.113  0.1819 -0.1232  0.6287
 1825SOL    HW2 7345   2.461   3.860   3.206 -0.3330 -1.2565  0.9042
 1825SOL    HW3 7346   2.534   3.886   3.076  1.6098 -1.2533  1.9935
 1825SOL    MW4 7347   2.470   3.848   3.120  0.3023 -0.4218  0.8450
 1826SOL     OW 7348   2.259   3.981   2.994 -0.4011 -0.1868 -0.0506
 1826SOL    HW2 7349   2.321   3.930   3.045  0.1465  0.1441 -0.3886
 1826SOL    HW3 7350   2.173   3.947   3.020  0.0184 -2.6961 -1.8136
 1826SOL    MW4 7351   2.256   3.970   3.005 -0.2735 -0.4742 -0.3278
 1827SOL     OW 7352   2.242   4.250   3.116  0.1655 -0.1452 -0.2566
 1827SOL    HW2 7353   2.249   4.171   3.063  0.4601  0.2200 -0.7698
 1827SOL    HW3 7354   2.154   4.284   3.098  0.5828  0.4636 -1.2164
 1827SOL    MW4 7355   2.231   4.244   3.107  0.2594 -0.0162 -0.4508
 1828SOL     OW 7356   2.470   4.394   3.039  0.6385 -0.2157 -0.2081
 1828SOL    HW2 7357   2.393   4.341   3.062  0.5322 -0.4198 -1.0306
 1828SOL    HW3 7358   2.464   4.405   2.945  1.3178  0.2502 -0.1955
 1828SOL    MW4 7359   2.459   4.388   3.030  0.7143 -0.1812 -0.3150
 1829SOL     OW 7360   2.920   4.626   3.125 -0.4846  0.0169  0.6074
 1829SOL    HW2 7361   2.985   4.673   3.073  0.5651 -1.8805  0.1465
 1829SOL    HW3 7362   2.903   4.546   3.075 -1.8610 -0.3485  1.6117
 1829SOL    MW4 7363   2.926   4.622   3.111 -0.5276 -0.2818  0.6790
 1830SOL     OW 7364   2.705   0.127   3.015 -0.6676  0.0903 -0.6352
 1830SOL    HW2 7365   2.775   0.078   3.058  0.4620  0.1432 -2.3590
 1830SOL    HW3 7366   2.625   0.081   3.041  0.0121 -0.1682  1.1021
 1830SOL    MW4 7367   2.704   0.114   3.024 -0.4289  0.0632 -0.6337
 1831SOL     OW 7368   2.755   0.384   3.129  0.3672 -0.0001 -0.1182
 1831SOL    HW2 7369   2.756   0.297   3.089  0.7649 -0.8244  1.6364
 1831SOL    HW3 7370   2.679   0.427   3.090 -0.8267 -1.7273  0.2360
 1831SOL    MW4 7371   2.745   0.378   3.118  0.2623 -0.3367  0.1600
 1832SOL     OW 7372   2.970   0.530   3.028 -0.1671  0.5093 -0.3130
 1832SOL    HW2 7373   2.892   0.483   3.058  0.0719  0.3546  0.0612
 1832SOL    HW3 7374   2.961   0.530   2.932 -1.1099  1.3304 -0.2310
 1832SOL    MW4 7375   2.958   0.524   3.019 -0.2599  0.5972 -0.2530
 1833SOL     OW 7376   2.948   0.767   3.170  0.1106  0.5059  0.0985
 1833SOL    HW2 7377   2.947   0.750   3.264 -2.4609  0.5282  0.1314
 1833SOL    HW3 7378   2.975   0.684   3.131 -0.6142 -0.0663  0.7871
 1833SOL    MW4 7379   2.951   0.754   3.177 -0.3242  0.4333  0.1936
 1834SOL     OW 7380   2.749   0.909   3.036 -0.3960  0.0196 -0.7575
 1834SOL    HW2 7381   2.725   0.990   3.082 -1.3526 -0.8830  0.3753
 1834SOL    HW3 7382   2.824   0.876   3.085 -0.3246 -0.0332 -0.9040
 1834SOL    MW4 7383   2.756   0.915   3.049 -0.5131 -0.1065 -0.6275
 1835SOL     OW 7384   2.721   1.154   3.150  0.0750  0.0710  0.4324
 1835SOL    HW2 7385   2.799   1.195   3.114  0.0019 -0.1360  0.0386
 1835SOL    HW3 7386   2.648   1.204   3.112 -0.0260 -0.6880 -0.3710
 1835SOL    MW4 7387   2.722   1.166   3.140  0.0517 -0.0564  0.2747
 1836SOL     OW 7388   2.929   1.280   3.033 -0.0886  0.5189  0.1402
 1836SOL    HW2 7389   3.005   1.243   3.079 -1.3398 -0.2255  1.6405
 1836SOL    HW3 7390   2.931   1.373   3.054 -0.8550  0.1333  2.0639
 1836SOL    MW4 7391   2.939   1.287   3.042 -0.3545  0.3699  0.5920
 1837SOL     OW 7392   2.932   1.557   3.088 -0.3227  0.0559 -0.1118
 1837SOL    HW2 7393   2.936   1.559   3.183 -0.3615  0.2355 -0.1134
 1837SOL    HW3 7394   3.014   1.596   3.059 -0.1797 -0.2771 -0.1527
 1837SOL    MW4 7395   2.943   1.562   3.097 -0.3088  0.0356 -0.1175
 1838SOL     OW 7396   2.688   1.657   3.016 -0.0095  0.3067  0.0943
 1838SOL    HW2 7397   2.764   1.607   3.045 -0.7326 -1.6590 -1.3330
 1838SOL    HW3 7398   2.614   1.617   3.061 -0.5976  0.0691 -1.0788
 1838SOL    MW4 7399   2.688   1.645   3.026 -0.1824  0.0159 -0.2487
 1839SOL     OW 7400   2.662   1.926   3.083 -0.0166  0.1165 -0.1123
 1839SOL    HW2 7401   2.741   1.980   3.081 -0.3618  0.6290 -0.1290
 1839SOL    HW3 7402   2.689   1.841   3.049  0.7878 -0.0535  0.9331
 1839SOL    MW4 7403   2.676   1.922   3.079  0.0439  0.1616  0.0234
 1840SOL     OW 7404   2.896   2.076   3.057 -0.5898 -0.4366  0.3960
 1840SOL    HW2 7405   2.872   2.157   3.102  0.7519 -0.0977  0.5181
 1840SOL    HW3 7406   2.890   2.098   2.964  0.3362 -0.0253  0.4315
 1840SOL    MW4 7407   2.892   2.090   3.051 -0.2909 -0.3374  0.4168
 1841SOL     OW 7408   2.892   2.332   3.127 -0.0687  0.3856  0.6267
 1841SOL    HW2 7409   2.963   2.357   3.068 -0.4943 -0.1257 -0.1157
 1841SOL    HW3 7410   2.813   2.365   3.084 -0.6124 -2.0248 -0.2516
 1841SOL    MW4 7411   2.891   2.340   3.114 -0.1967  0.0002  0.4127
 1842SOL     OW 7412   2.698   2.450   2.980  0.0913  0.0308  0.0766
 1842SOL    HW2 7413   2.718   2.525   3.036  0.1751 -0.1859  0.3365
 1842SOL    HW3 7414   2.615   2.417   3.012  0.4944 -0.5357  0.5417
 1842SOL    MW4 7415   2.690   2.456   2.991  0.1554 -0.0722  0.1721
 1843SOL     OW 7416   2.730   2.715   3.104 -0.2398 -0.1002 -0.1219
 1843SOL    HW2 7417   2.730   2.734   3.197 -0.1921 -1.3289  0.1452
 1843SOL    HW3 7418   2.650   2.755   3.071 -0.1977  0.4338  0.4193
 1843SOL    MW4 7419   2.720   2.723   3.112 -0.2279 -0.1917 -0.0153
 1844SOL     OW 7420   2.954   2.818   2.981  0.2375  0.8046 -0.3307
 1844SOL    HW2 7421   3.022   2.770   3.028  1.7377  0.9718 -2.2517
 1844SOL    HW3 7422   2.871   2.782   3.015  1.3035 -1.6878 -0.2558
 1844SOL    MW4 7423   2.952   2.807   2.992  0.5760  0.4978 -0.5741
 1845SOL     OW 7424   2.927   3.071   3.091  0.0938 -0.3718 -0.2052
 1845SOL    HW2 7425   2.846   3.100   3.050 -0.9741 -1.9656  0.7166
 1845SOL    HW3 7426   2.946   2.987   3.050 -0.2781 -1.3626  1.5705
 1845SOL    MW4 7427   2.919   3.063   3.080 -0.0963 -0.7126  0.1512
 1846SOL     OW 7428   2.686   3.180   2.992  0.5350  0.2848  0.1653
 1846SOL    HW2 7429   2.686   3.269   3.028  1.0037 -0.4676  2.1100
 1846SOL    HW3 7430   2.696   3.192   2.898 -0.3075  2.3235  0.3055
 1846SOL    MW4 7431   2.687   3.193   2.984  0.4859  0.4544  0.4404
 1847SOL     OW 7432   2.684   3.438   3.073  0.2676  0.2218 -0.8656
 1847SOL    HW2 7433   2.686   3.448   3.168  0.0940  1.6423 -1.0056
 1847SOL    HW3 7434   2.756   3.493   3.042  0.1390 -0.0121 -1.5901
 1847SOL    MW4 7435   2.694   3.446   3.081  0.2279  0.3784 -0.9794
 1848SOL     OW 7436   2.901   3.605   2.974  0.1204  0.5718 -0.3131
 1848SOL    HW2 7437   2.974   3.566   3.022  0.0465 -0.5952 -1.1276
 1848SOL    HW3 7438   2.905   3.698   2.996  0.9957  0.2945  0.7580
 1848SOL    MW4 7439   2.911   3.612   2.983  0.2260  0.3812 -0.2792
 1849SOL     OW 7440   2.915   3.866   3.088  0.6086  0.2460  0.2123
 1849SOL    HW2 7441   2.910   3.858   3.183 -0.4561 -0.8258  0.0723
 1849SOL    HW3 7442   2.842   3.922   3.065  0.7620  0.3603 -0.0001
 1849SOL    MW4 7443   2.905   3.873   3.097  0.4883  0.1197  0.1657
 1850SOL     OW 7444   2.680   3.978   3.020 -0.3043 -0.0748  0.0021
 1850SOL    HW2 7445   2.695   4.070   3.045  0.6434 -0.4283  0.7625
 1850SOL    HW3 7446   2.683   3.979   2.924 -0.7190  0.7595 -0.0074
 1850SOL    MW4 7447   2.683   3.990   3.011 -0.2339 -0.0114  0.1009
 1851SOL     OW 7448   2.695   4.255   3.105 -0.3392  0.0937  0.0412
 1851SOL    HW2 7449   2.686   4.250   3.200 -0.0652 -0.9098  0.0146
 1851SOL    HW3 7450   2.618   4.304   3.077 -0.6439  0.0199  0.7358
 1851SOL    MW4 7451   2.684   4.261   3.114 -0.3428 -0.0486  0.1295
 1852SOL     OW 7452   2.925   4.381   3.002 -0.0144  0.1796  0.2486
 1852SOL    HW2 7453   2.982   4.317   3.045  0.5121 -0.0003 -0.7251
 1852SOL    HW3 7454   2.836   4.354   3.027  0.1655 -1.3521 -0.7348
 1852SOL    MW4 7455   2.921   4.369   3.011  0.0789 -0.0467 -0.0095
 1853SOL     OW 7456   3.301   4.662   3.112  0.2751 -0.2262  0.4584
 1853SOL    HW2 7457   3.389   4.699   3.102  0.4339 -0.8767 -0.7515
 1853SOL    HW3 7458   3.310   4.571   3.084 -0.7545 -0.3340  0.4477
 1853SOL    MW4 7459   3.314   4.655   3.107  0.1600 -0.3262  0.2973
 1854SOL     OW 7460   3.089   0.117   2.999  0.5081  0.1234  0.0528
 1854SOL    HW2 7461   3.092   0.190   3.061 -1.0662 -0.0987  0.4074
 1854SOL    HW3 7462   3.166   0.065   3.020  1.4429  1.4723  0.0553
 1854SOL    MW4 7463   3.100   0.120   3.010  0.4239  0.2721  0.0999
 1855SOL     OW 7464   3.147   0.357   3.150 -0.0743 -0.2507  0.4300
 1855SOL    HW2 7465   3.235   0.380   3.121 -0.7792  0.1116 -1.5370
 1855SOL    HW3 7466   3.089   0.413   3.098 -1.5323 -1.6826  0.4556
 1855SOL    MW4 7467   3.151   0.367   3.139 -0.3600 -0.3918  0.1738
 1856SOL     OW 7468   3.382   0.457   3.045  0.1562  0.1747 -0.0984
 1856SOL    HW2 7469   3.472   0.434   3.068  0.8470  2.8056  0.0736
 1856SOL    HW3 7470   3.383   0.471   2.951  0.2217  1.2613  0.0481
 1856SOL    MW4 7471   3.394   0.456   3.036  0.2561  0.6652 -0.0565
 1857SOL     OW 7472   3.369   0.717   3.163 -0.6392  0.2765 -0.0536
 1857SOL    HW2 7473   3.362   0.704   3.257  1.6301 -0.3476  0.0529
 1857SOL    HW3 7474   3.358   0.630   3.126 -0.7055  0.3945 -0.3133
 1857SOL    MW4 7475   3.367   0.704   3.170 -0.3486  0.2097 -0.0739
 1858SOL     OW 7476   3.179   0.880   3.061 -0.5170 -0.3087  0.1056
 1858SOL    HW2 7477   3.242   0.821   3.101 -0.2481 -0.5042 -0.5922
 1858SOL    HW3 7478   3.093   0.846   3.086 -0.3392  0.8515  2.3499
 1858SOL    MW4 7479   3.176   0.868   3.069 -0.4582 -0.1814  0.3095
 1859SOL     OW 7480   3.151   1.136   3.173 -0.0124 -0.1239 -0.0688
 1859SOL    HW2 7481   3.231   1.183   3.148 -0.2859  0.0636 -0.6129
 1859SOL    HW3 7482   3.157   1.052   3.128  0.0191 -0.2280  0.1293
 1859SOL    MW4 7483   3.162   1.131   3.164 -0.0446 -0.1129 -0.1147
 1860SOL     OW 7484   3.350   1.280   3.058  0.4133  0.0675 -0.2030
 1860SOL    HW2 7485   3.435   1.244   3.084  1.2003  1.3771 -0.8884
 1860SOL    HW3 7486   3.361   1.375   3.067 -1.2877  0.1980  0.6055
 1860SOL    MW4 7487   3.363   1.288   3.062  0.2925  0.2576 -0.1867
 1861SOL     OW 7488   3.369   1.557   3.108  0.0215 -0.2441  0.1645
 1861SOL    HW2 7489   3.364   1.568   3.203  0.3083 -0.9881  0.2679
 1861SOL    HW3 7490   3.450   1.599   3.082  0.8613 -1.6179  0.4929
 1861SOL    MW4 7491   3.379   1.564   3.117  0.1700 -0.5234  0.2213
 1862SOL     OW 7492   3.176   1.706   3.009 -0.3230 -0.3838 -0.2423
 1862SOL    HW2 7493   3.241   1.654   3.056 -0.5386 -0.1267  0.3431
 1862SOL    HW3 7494   3.182   1.676   2.918  0.8692 -0.0967 -0.2623
 1862SOL    MW4 7495   3.185   1.695   3.003 -0.1938 -0.3121 -0.1676
 1863SOL     OW 7496   3.144   1.949   3.119 -0.7202  0.3029 -0.1872
 1863SOL    HW2 7497   3.149   1.863   3.076  0.1353  0.0438  0.4265
 1863SOL    HW3 7498   3.059   1.984   3.090 -1.5641 -1.1932  0.3804
 1863SOL    MW4 7499   3.133   1.942   3.109 -0.7188  0.0713 -0.0315
 1864SOL     OW 7500   3.389   2.074   3.023 -0.3352  0.1107  0.0433
 1864SOL    HW2 7501   3.459   2.021   3.063  0.0526 -0.8688 -1.8764
 1864SOL    HW3 7502   3.310   2.049   3.070  0.1842 -0.7159  0.4882
 1864SOL    MW4 7503   3.388   2.063   3.034 -0.2153 -0.1273 -0.1514
 1865SOL     OW 7504   3.347   2.336   3.087 -0.2718  0.1501  0.1280
 1865SOL    HW2 7505   3.338   2.326   3.182  0.8602  1.6398  0.4117
 1865SOL    HW3 7506   3.359   2.247   3.054  1.8071 -0.1750  1.6550
 1865SOL    MW4 7507   3.347   2.323   3.095  0.1519  0.3035  0.3669
 1866SOL     OW 7508   3.102   2.438   2.975  0.0862 -0.2759 -0.1644
 1866SOL    HW2 7509   3.186   2.395   2.990  0.7883  1.3513  0.6901
 1866SOL    HW3 7510   3.089   2.431   2.880  1.5744  0.1181 -0.4195
 1866SOL    MW4 7511   3.111   2.432   2.964  0.3750 -0.0091 -0.0851
 1867SOL     OW 7512   3.153   2.679   3.128 -0.0305 -0.0247 -0.6240
 1867SOL    HW2 7513   3.164   2.657   3.220 -1.6961  2.3485  0.1687
 1867SOL    HW3 7514   3.136   2.595   3.085  1.6644 -1.2702  1.0497
 1867SOL    MW4 7515   3.152   2.665   3.134 -0.0265  0.1240 -0.2987
 1868SOL     OW 7516   3.360   2.819   3.016 -0.3772 -0.4312  0.0508
 1868SOL    HW2 7517   3.372   2.904   3.059 -1.1272  0.2259 -0.9913
 1868SOL    HW3 7518   3.284   2.781   3.060 -1.5082  0.4998 -1.0627
 1868SOL    MW4 7519   3.351   2.825   3.027 -0.6254 -0.2217 -0.2337
 1869SOL     OW 7520   3.399   3.079   3.123 -0.2454  0.0654 -0.1982
 1869SOL    HW2 7521   3.390   3.087   3.218  1.1974  1.3321 -0.1560
 1869SOL    HW3 7522   3.317   3.114   3.088  0.2036  1.8532  0.5121
 1869SOL    MW4 7523   3.387   3.084   3.131  0.0041  0.4685 -0.0989
 1870SOL     OW 7524   3.161   3.200   3.022 -0.0762  0.1410  0.0777
 1870SOL    HW2 7525   3.081   3.149   3.037  0.6154 -1.1029 -0.4023
 1870SOL    HW3 7526   3.162   3.216   2.928  0.4457 -0.1940  0.0241
 1870SOL    MW4 7527   3.150   3.195   3.012  0.0837 -0.0672  0.0072
 1871SOL     OW 7528   3.111   3.467   3.104 -0.1424  0.1246 -0.0489
 1871SOL    HW2 7529   3.192   3.513   3.081  1.3160 -2.5687 -0.5254
 1871SOL    HW3 7530   3.127   3.376   3.078 -3.5827 -0.3559 -0.7614
 1871SOL    MW4 7531   3.124   3.461   3.097 -0.4039 -0.2940 -0.2058
 1872SOL     OW 7532   3.343   3.601   3.029 -0.1124  0.6365 -0.3372
 1872SOL    HW2 7533   3.420   3.552   3.057  0.1515  1.2275 -0.0237
 1872SOL    HW3 7534   3.358   3.690   3.061 -0.5985  0.9196 -0.8847
 1872SOL    MW4 7535   3.355   3.606   3.037 -0.1416  0.7517 -0.3681
 1873SOL     OW 7536   3.398   3.838   3.140 -0.6297 -0.5692 -0.0799
 1873SOL    HW2 7537   3.393   3.846   3.235 -0.4322  0.2807 -0.1405
 1873SOL    HW3 7538   3.314   3.869   3.108 -0.6013 -0.6088 -0.1932
 1873SOL    MW4 7539   3.386   3.843   3.148 -0.5999 -0.4621 -0.1030
 1874SOL     OW 7540   3.170   3.953   3.030 -0.6541  0.4527  0.1807
 1874SOL    HW2 7541   3.092   3.906   3.060 -0.3739  0.2784  0.6330
 1874SOL    HW3 7542   3.156   3.965   2.936 -0.5403 -0.8807 -0.0071
 1874SOL    MW4 7543   3.158   3.949   3.022 -0.6020  0.2537  0.2155
 1875SOL     OW 7544   3.123   4.229   3.116  0.1994  0.2618  0.0826
 1875SOL    HW2 7545   3.120   4.229   3.212 -1.0375 -0.2653  0.0606
 1875SOL    HW3 7546   3.140   4.138   3.093  0.7651  0.4389 -0.1938
 1875SOL    MW4 7547   3.124   4.217   3.126  0.1109  0.2151  0.0434
 1876SOL     OW 7548   3.326   4.396   3.047 -0.2226  0.1401 -0.3399
 1876SOL    HW2 7549   3.404   4.353   3.084 -0.3969 -0.5868 -0.8209
 1876SOL    HW3 7550   3.254   4.335   3.064 -0.6268  0.6394 -0.2427
 1876SOL    MW4 7551   3.327   4.382   3.054 -0.2992  0.1101 -0.3905
 1877SOL     OW 7552   3.821   4.659   3.153 -0.3147 -0.3260  0.5895
 1877SOL    HW2 7553   3.844   4.579   3.106  0.2918  0.3919 -0.3602
 1877SOL    HW3 7554   3.730   4.676   3.128  0.2858  0.5675 -1.1275
 1877SOL    MW4 7555   3.812   4.650   3.143 -0.1557 -0.1130  0.2379
 1878SOL     OW 7556   3.551   0.100   3.052 -0.0073 -0.5541 -0.2881
 1878SOL    HW2 7557   3.559   0.179   3.104 -0.2036 -0.9457  0.3436
 1878SOL    HW3 7558   3.579   0.126   2.964  1.1426 -0.1014  0.2030
 1878SOL    MW4 7559   3.556   0.114   3.047  0.1183 -0.5460 -0.1400
 1879SOL     OW 7560   3.648   0.350   3.129  0.1028  0.2619  0.7467
 1879SOL    HW2 7561   3.643   0.359   3.224 -0.4352 -0.3892  0.7851
 1879SOL    HW3 7562   3.724   0.403   3.104 -0.6998  1.7307  1.3618
 1879SOL    MW4 7563   3.658   0.359   3.138 -0.0741  0.3698  0.8328
 1880SOL     OW 7564   3.876   0.493   3.046 -0.3578  0.6679 -0.3029
 1880SOL    HW2 7565   3.945   0.440   3.086  0.3261  0.9281 -1.1214
 1880SOL    HW3 7566   3.887   0.580   3.086  0.2180  0.8844 -0.9293
 1880SOL    MW4 7567   3.887   0.498   3.057 -0.1915  0.7308 -0.4935
 1881SOL     OW 7568   3.864   0.754   3.144  0.1589 -0.3413  0.3571
 1881SOL    HW2 7569   3.856   0.788   3.233  1.5743 -0.1013  0.4050
 1881SOL    HW3 7570   3.909   0.823   3.096 -1.0129 -0.2822 -0.6664
 1881SOL    MW4 7571   3.869   0.768   3.150  0.1910 -0.3018  0.2282
 1882SOL     OW 7572   3.578   0.889   3.048 -0.2983  0.1811  0.1304
 1882SOL    HW2 7573   3.641   0.818   3.056  1.3454  1.7191  1.1144
 1882SOL    HW3 7574   3.502   0.859   3.097 -0.2602 -1.5867 -0.8650
 1882SOL    MW4 7575   3.576   0.876   3.056 -0.0763  0.1508  0.1287
 1883SOL     OW 7576   3.574   1.156   3.145  0.0316 -0.0595  0.1169
 1883SOL    HW2 7577   3.653   1.198   3.111  0.4466 -1.0448 -0.1481
 1883SOL    HW3 7578   3.579   1.066   3.113  0.3544 -0.9876  2.6461
 1883SOL    MW4 7579   3.585   1.149   3.136  0.1287 -0.3120  0.4153
 1884SOL     OW 7580   3.835   1.272   3.065 -0.4791  0.0277  0.1831
 1884SOL    HW2 7581   3.838   1.361   3.100 -1.0848 -0.0002  0.3234
 1884SOL    HW3 7582   3.820   1.283   2.971 -1.3933  0.0660  0.3273
 1884SOL    MW4 7583   3.833   1.285   3.057 -0.6795  0.0290  0.2208
 1885SOL     OW 7584   3.859   1.541   3.123 -0.3676 -0.1713 -0.2077
 1885SOL    HW2 7585   3.844   1.544   3.218 -0.4327  0.0255 -0.2239
 1885SOL    HW3 7586   3.782   1.584   3.085 -0.2623 -0.1005 -0.3419
 1885SOL    MW4 7587   3.846   1.547   3.131 -0.3624 -0.1360 -0.2275
 1886SOL     OW 7588   3.593   1.682   3.028 -0.0607 -0.1109  0.6559
 1886SOL    HW2 7589   3.592   1.775   3.050  4.7197  0.1880  0.2082
 1886SOL    HW3 7590   3.593   1.679   2.933 -0.8540 -0.6108  0.6665
 1886SOL    MW4 7591   3.593   1.694   3.019  0.4652 -0.1373  0.5984
 1887SOL     OW 7592   3.595   1.927   3.115 -0.2946 -0.0003 -0.0115
 1887SOL    HW2 7593   3.607   1.912   3.209 -0.8157  0.5399  0.1457
 1887SOL    HW3 7594   3.679   1.963   3.086 -0.4316  0.6776  0.4254
 1887SOL    MW4 7595   3.608   1.930   3.124 -0.3812  0.1605  0.0670
 1888SOL     OW 7596   3.821   2.048   3.017 -0.4137  0.0123  0.0507
 1888SOL    HW2 7597   3.830   2.125   3.072  0.0899 -0.0441  0.0484
 1888SOL    HW3 7598   3.839   2.080   2.928 -0.2634 -0.0935  0.0428
 1888SOL    MW4 7599   3.824   2.062   3.012 -0.3273 -0.0093  0.0496
 1889SOL     OW 7600   3.812   2.296   3.120 -0.0595 -0.6981 -0.0425
 1889SOL    HW2 7601   3.812   2.305   3.215  1.4100 -1.7710  0.0863
 1889SOL    HW3 7602   3.724   2.324   3.093 -0.4530 -0.2761  1.6117
 1889SOL    MW4 7603   3.800   2.301   3.129  0.0825 -0.7842  0.1926
 1890SOL     OW 7604   3.590   2.438   3.000  0.4367  0.4681  0.4995
 1890SOL    HW2 7605   3.583   2.526   3.036 -0.2707  1.6336 -2.3611
 1890SOL    HW3 7606   3.504   2.399   3.015 -0.9598  2.1082 -2.6763
 1890SOL    MW4 7607   3.578   2.444   3.007  0.1593  0.8380 -0.2971
 1891SOL     OW 7608   3.586   2.694   3.112 -0.3088  0.3600 -0.1965
 1891SOL    HW2 7609   3.661   2.740   3.075 -1.1918  1.5267 -0.5670
 1891SOL    HW3 7610   3.509   2.737   3.073 -1.1759 -0.8204  0.1543
 1891SOL    MW4 7611   3.585   2.706   3.102 -0.5400  0.3583 -0.1991
 1892SOL     OW 7612   3.817   2.804   3.012  0.1042  0.0517 -0.2506
 1892SOL    HW2 7613   3.807   2.895   3.041  0.9604  0.2414 -0.5299
 1892SOL    HW3 7614   3.817   2.809   2.917 -0.2241 -0.2840 -0.2688
 1892SOL    MW4 7615   3.816   2.817   3.003  0.1738  0.0322 -0.2899
 1893SOL     OW 7616   3.831   3.077   3.122  0.4473 -0.2634  0.0288
 1893SOL    HW2 7617   3.907   3.118   3.081  0.2756 -0.6046 -0.6482
 1893SOL    HW3 7618   3.758   3.134   3.099  0.6539  0.6336  1.5686
 1893SOL    MW4 7619   3.832   3.090   3.113  0.4520 -0.1903  0.1426
 1894SOL     OW 7620   3.615   3.217   3.021 -0.0016 -0.0161  0.0151
 1894SOL    HW2 7621   3.550   3.153   3.048  0.1190  0.0132  0.3784
 1894SOL    HW3 7622   3.613   3.215   2.925  0.3452 -0.9205  0.0167
 1894SOL    MW4 7623   3.606   3.208   3.012  0.0603 -0.1316  0.0634
 1895SOL     OW 7624   3.553   3.445   3.136 -0.4751  0.0038  0.1175
 1895SOL    HW2 7625   3.626   3.501   3.108  0.4734 -0.5817  1.3928
 1895SOL    HW3 7626   3.565   3.364   3.088 -0.0845 -0.2193  0.5915
 1895SOL    MW4 7627   3.564   3.442   3.126 -0.2983 -0.1028  0.3483
 1896SOL     OW 7628   3.806   3.569   3.012 -0.0459  0.1339 -0.0426
 1896SOL    HW2 7629   3.786   3.657   3.045 -0.9450  0.2657 -0.9030
 1896SOL    HW3 7630   3.788   3.575   2.918 -0.7405 -1.1500  0.0068
 1896SOL    MW4 7631   3.801   3.582   3.004 -0.2558 -0.0181 -0.1497
 1897SOL     OW 7632   3.788   3.834   3.082 -0.3481 -0.6498  0.0304
 1897SOL    HW2 7633   3.796   3.840   3.177 -1.2749 -1.0362  0.1384
 1897SOL    HW3 7634   3.722   3.899   3.059 -0.2440 -0.6694 -0.3350
 1897SOL    MW4 7635   3.781   3.843   3.091 -0.4566 -0.7033 -0.0036
 1898SOL     OW 7636   3.553   4.030   3.015  0.0512  0.4337  0.2524
 1898SOL    HW2 7637   3.493   3.966   3.053 -0.1415  0.8400  0.6345
 1898SOL    HW3 7638   3.563   4.001   2.924  1.6697 -1.3795  0.9668
 1898SOL    MW4 7639   3.547   4.018   3.008  0.2394  0.2475  0.3972
 1899SOL     OW 7640   3.572   4.283   3.132  0.0210 -0.0680  0.0879
 1899SOL    HW2 7641   3.641   4.332   3.087  1.1744  0.0506  1.9275
 1899SOL    HW3 7642   3.568   4.200   3.085  2.1014 -0.4429  0.4988
 1899SOL    MW4 7643   3.581   4.278   3.120  0.4478 -0.1016  0.3850
 1900SOL     OW 7644   3.794   4.411   3.037 -0.1255  0.3945 -0.1454
 1900SOL    HW2 7645   3.850   4.340   3.070  1.8206  1.3313 -1.3520
 1900SOL    HW3 7646   3.798   4.402   2.942 -0.7301  1.4662 -0.2779
 1900SOL    MW4 7647   3.802   4.400   3.029  0.0515  0.6599 -0.3221
 1901SOL     OW 7648   4.237   4.628   3.121  0.1754  0.2843 -0.0599
 1901SOL    HW2 7649   4.246   4.628   3.216  0.8686  1.3740 -0.1152
 1901SOL    HW3 7650   4.230   4.536   3.097  2.2312 -0.1311  0.8491
 1901SOL    MW4 7651   4.237   4.616   3.130  0.5383  0.3738  0.0527
 1902SOL     OW 7652   4.043   0.128   3.038  0.2028  0.0564 -0.2821
 1902SOL    HW2 7653   4.115   0.070   3.063 -0.2192 -0.7797 -0.9933
 1902SOL    HW3 7654   3.967   0.092   3.084  0.2986  1.1776  0.7942
 1902SOL    MW4 7655   4.042   0.116   3.047  0.1597  0.0940 -0.2341
 1903SOL     OW 7656   4.064   0.359   3.213 -0.2044 -0.3524  0.5664
 1903SOL    HW2 7657   4.137   0.400   3.167 -0.0893 -0.3515  0.7496
 1903SOL    HW3 7658   4.047   0.278   3.164 -0.8789  0.2469 -0.2098
 1903SOL    MW4 7659   4.072   0.353   3.200 -0.2780 -0.2731  0.4883
 1904SOL     OW 7660   4.281   0.505   3.070  0.5033  0.0125 -0.1025
 1904SOL    HW2 7661   4.283   0.592   3.110 -0.5481 -0.3978  0.8820
 1904SOL    HW3 7662   4.276   0.522   2.976  0.1338  1.0274  0.0915
 1904SOL    MW4 7663   4.281   0.519   3.063  0.3157  0.0923  0.0527
 1905SOL     OW 7664   4.245   0.777   3.154 -0.4798 -0.3561  0.0532
 1905SOL    HW2 7665   4.172   0.801   3.097 -0.1697  0.5811  0.0472
 1905SOL    HW3 7666   4.315   0.838   3.131  0.5652 -1.7137 -0.4489
 1905SOL    MW4 7667   4.244   0.788   3.144 -0.3009 -0.4115 -0.0138
 1906SOL     OW 7668   4.055   0.900   2.994  0.3157 -0.0204  0.1530
 1906SOL    HW2 7669   4.051   0.977   3.051  0.7543 -0.6014  0.9861
 1906SOL    HW3 7670   4.040   0.934   2.906 -0.6010  0.8670  0.6378
 1906SOL    MW4 7671   4.052   0.914   2.990  0.2522  0.0200  0.3271
 1907SOL     OW 7672   4.050   1.113   3.155 -0.1020  0.3730 -0.2096
 1907SOL    HW2 7673   4.051   1.130   3.249 -1.5014 -0.6034  0.0034
 1907SOL    HW3 7674   3.983   1.172   3.121  0.0831  0.3986 -0.5336
 1907SOL    MW4 7675   4.041   1.123   3.163 -0.2623  0.2475 -0.2244
 1908SOL     OW 7676   4.265   1.272   3.056 -0.2817  0.1610  0.2887
 1908SOL    HW2 7677   4.197   1.211   3.083 -0.4738 -0.2660 -1.1107
 1908SOL    HW3 7678   4.263   1.269   2.960  0.9075  1.0284  0.2259
 1908SOL    MW4 7679   4.256   1.264   3.047 -0.1502  0.2191  0.0958
 1909SOL     OW 7680   4.285   1.532   3.147 -0.6796  0.0568 -0.4180
 1909SOL    HW2 7681   4.219   1.576   3.092  0.0338  0.6391 -0.8188
 1909SOL    HW3 7682   4.268   1.439   3.134 -0.5746  0.1887 -1.5743
 1909SOL    MW4 7683   4.274   1.525   3.138 -0.5717  0.1510 -0.6232
 1910SOL     OW 7684   4.083   1.654   3.016  0.3811  0.2522 -0.2564
 1910SOL    HW2 7685   4.059   1.745   3.036  2.0929  0.6273  0.1894
 1910SOL    HW3 7686   4.009   1.602   3.046 -0.1626  1.4197  0.4592
 1910SOL    MW4 7687   4.070   1.659   3.022  0.5355  0.4557 -0.1032
 1911SOL     OW 7688   4.043   1.903   3.106  0.3858  0.2291 -0.2569
 1911SOL    HW2 7689   4.125   1.948   3.084  0.0263  2.2899  2.4166
 1911SOL    HW3 7690   3.974   1.960   3.070  0.0409 -0.2480 -0.3591
 1911SOL    MW4 7691   4.045   1.917   3.098  0.2923  0.4380  0.0823
 1912SOL     OW 7692   4.271   2.017   3.037 -0.3357  0.0427 -0.3693
 1912SOL    HW2 7693   4.272   2.108   3.067 -0.7460  0.0503 -0.3767
 1912SOL    HW3 7694   4.260   2.022   2.943 -1.1575 -0.0288 -0.2839
 1912SOL    MW4 7695   4.269   2.030   3.029 -0.4988  0.0341 -0.3591
 1913SOL     OW 7696   4.267   2.279   3.128  0.1586 -0.1544  0.1141
 1913SOL    HW2 7697   4.193   2.324   3.087  0.3564 -0.0312 -0.1100
 1913SOL    HW3 7698   4.344   2.331   3.102  0.3090 -0.2097  0.4481
 1913SOL    MW4 7699   4.268   2.292   3.119  0.2041 -0.1454  0.1285
 1914SOL     OW 7700   4.047   2.410   3.019  0.0698 -0.1937 -0.0748
 1914SOL    HW2 7701   4.041   2.500   3.050 -0.4699  0.2478 -1.4567
 1914SOL    HW3 7702   3.968   2.368   3.053  0.6965 -0.3565  1.2122
 1914SOL    MW4 7703   4.036   2.416   3.028  0.0815 -0.1566 -0.0873
 1915SOL     OW 7704   4.045   2.678   3.127 -0.0304 -0.0698  0.1462
 1915SOL    HW2 7705   4.041   2.704   3.219 -1.3701 -0.3350  0.1732
 1915SOL    HW3 7706   3.969   2.721   3.087  1.3950  1.3093 -1.1653
 1915SOL    MW4 7707   4.035   2.687   3.134 -0.0186  0.0772 -0.0231
 1916SOL     OW 7708   4.261   2.816   2.999  0.4046  0.3998 -0.0621
 1916SOL    HW2 7709   4.184   2.777   3.040 -0.0763  0.7846 -0.5843
 1916SOL    HW3 7710   4.335   2.772   3.040 -0.1087 -0.5647 -0.1495
 1916SOL    MW4 7711   4.260   2.805   3.010  0.2728  0.3233 -0.1423
 1917SOL     OW 7712   4.319   3.081   3.117 -0.6001 -0.3674 -0.4588
 1917SOL    HW2 7713   4.234   3.121   3.098 -0.6423 -0.6826 -0.9487
 1917SOL    HW3 7714   4.313   2.994   3.078 -0.1109 -0.4495 -0.3442
 1917SOL    MW4 7715   4.307   3.075   3.109 -0.5412 -0.4196 -0.5083
 1918SOL     OW 7716   4.075   3.196   3.027  0.8796  0.1620  0.2390
 1918SOL    HW2 7717   4.059   3.287   3.055 -2.9294 -0.2096 -0.3922
 1918SOL    HW3 7718   4.076   3.200   2.932 -0.1378 -0.5486  0.1905
 1918SOL    MW4 7719   4.073   3.209   3.018  0.2432  0.0193  0.1493
 1919SOL     OW 7720   4.031   3.468   3.103 -0.1281 -0.1223 -0.2017
 1919SOL    HW2 7721   4.021   3.461   3.198  1.5584  1.0377  0.0967
 1919SOL    HW3 7722   3.948   3.504   3.072 -1.0317 -1.3848  0.7105
 1919SOL    MW4 7723   4.019   3.472   3.111 -0.0248 -0.1357 -0.0420
 1920SOL     OW 7724   4.269   3.600   3.023 -0.4328  0.2081 -0.3258
 1920SOL    HW2 7725   4.255   3.693   3.044  0.9957  0.5836 -0.9571
 1920SOL    HW3 7726   4.189   3.557   3.051 -0.8376  1.5385  0.6333
 1920SOL    MW4 7727   4.257   3.607   3.030 -0.2980  0.4334 -0.2825
 1921SOL     OW 7728   4.229   3.855   3.114 -0.2153 -0.2286  0.0438
 1921SOL    HW2 7729   4.151   3.900   3.083 -0.6571 -0.5094  0.7365
 1921SOL    HW3 7730   4.302   3.911   3.086 -0.6013 -0.3973 -1.3541
 1921SOL    MW4 7731   4.229   3.868   3.106 -0.3252 -0.2878 -0.0494
 1922SOL     OW 7732   4.020   3.974   2.995 -0.0930  0.3791 -0.2480
 1922SOL    HW2 7733   3.991   4.058   3.031 -0.5881  0.9725 -2.0142
 1922SOL    HW3 7734   3.942   3.918   3.000 -0.0469  0.3310 -0.0438
 1922SOL    MW4 7735   4.006   3.978   3.001 -0.1526  0.4516 -0.4544
 1923SOL     OW 7736   3.968   4.217   3.095  0.5450  0.2372  0.0751
 1923SOL    HW2 7737   3.981   4.208   3.189  1.7117  0.6296 -0.0406
 1923SOL    HW3 7738   4.048   4.260   3.063 -0.2126  0.9062 -0.9613
 1923SOL    MW4 7739   3.981   4.221   3.103  0.5989  0.3767 -0.0768
 1924SOL     OW 7740   4.216   4.354   3.039  0.1855 -0.4722  0.4701
 1924SOL    HW2 7741   4.301   4.331   3.076  0.7363  0.1193 -0.4018
 1924SOL    HW3 7742   4.236   4.377   2.948 -0.7924  0.4601  0.4914
 1924SOL    MW4 7743   4.230   4.354   3.032  0.1292 -0.2713  0.3576
 1925SOL     OW 7744   0.202   4.644   3.414  0.1896  0.0478 -0.4960
 1925SOL    HW2 7745   0.274   4.693   3.452  0.6648 -0.5430 -0.6326
 1925SOL    HW3 7746   0.209   4.557   3.453 -0.7299  0.1230 -0.1429
 1925SOL    MW4 7747   0.212   4.639   3.424  0.1309 -0.0200 -0.4675
 1926SOL     OW 7748   4.465   0.098   3.520 -0.0711 -0.3766  0.1539
 1926SOL    HW2 7749   4.471   0.194   3.523 -0.3812 -0.3148 -1.1245
 1926SOL    HW3 7750   4.548   0.070   3.480  0.3435 -0.6977  1.2101
 1926SOL    MW4 7751   4.477   0.107   3.515 -0.0572 -0.4108  0.1245
 1927SOL     OW 7752   4.466   0.383   3.409  0.4022 -0.0675 -0.2734
 1927SOL    HW2 7753   4.405   0.444   3.451 -0.4978 -0.7015 -0.6590
 1927SOL    HW3 7754   4.553   0.420   3.427 -0.0309  0.2549  1.2114
 1927SOL    MW4 7755   4.469   0.396   3.417  0.2260 -0.1086 -0.1283
 1928SOL     OW 7756   0.238   0.486   3.501 -0.1015 -0.2020  0.2540
 1928SOL    HW2 7757   0.318   0.451   3.461  0.6302  0.6763  0.9331
 1928SOL    HW3 7758   0.237   0.578   3.477 -1.4743 -0.4368 -0.6318
 1928SOL    MW4 7759   0.249   0.493   3.492 -0.1861 -0.1171  0.2267
 1929SOL     OW 7760   0.189   0.754   3.434 -0.1585 -0.1946  0.5406
 1929SOL    HW2 7761   0.261   0.808   3.468 -0.4764 -0.8736  2.3338
 1929SOL    HW3 7762   0.110   0.799   3.464 -0.4578 -0.2621 -0.1520
 1929SOL    MW4 7763   0.188   0.767   3.443 -0.2399 -0.2931  0.6857
 1930SOL     OW 7764   4.474   0.908   3.514  0.0955 -0.0223  0.0109
 1930SOL    HW2 7765   4.488   0.894   3.608 -1.2309 -1.1952  0.0459
 1930SOL    HW3 7766   4.456   1.002   3.507 -0.3547 -0.0236  1.0077
 1930SOL    MW4 7767   4.474   0.919   3.526 -0.1383 -0.1773  0.1469
 1931SOL     OW 7768   4.464   1.175   3.443 -0.3772 -0.2455  0.3283
 1931SOL    HW2 7769   4.547   1.199   3.483 -0.2291 -1.4499  0.7640
 1931SOL    HW3 7770   4.481   1.177   3.348  0.1508 -0.5145  0.4163
 1931SOL    MW4 7771   4.477   1.179   3.435 -0.2880 -0.4398  0.3974
 1932SOL     OW 7772   0.216   1.287   3.528 -0.1054 -0.2272  0.1137
 1932SOL    HW2 7773   0.288   1.232   3.498  0.2988 -0.7761  1.9948
 1932SOL    HW3 7774   0.214   1.360   3.466  1.1830 -0.9100 -0.7550
 1932SOL    MW4 7775   0.225   1.290   3.516  0.1179 -0.3896  0.2472
 1933SOL     OW 7776   0.220   1.543   3.415  0.1421  0.3545 -0.1880
 1933SOL    HW2 7777   0.303   1.584   3.438  0.5314 -0.0024 -0.9101
 1933SOL    HW3 7778   0.222   1.537   3.319 -0.7547  0.4228 -0.2195
 1933SOL    MW4 7779   0.231   1.548   3.405  0.0752  0.3164 -0.2875
 1934SOL     OW 7780   4.486   1.670   3.520 -0.0659 -0.1898  0.4730
 1934SOL    HW2 7781   4.411   1.623   3.482 -0.3422  0.7394 -0.1546
 1934SOL    HW3 7782   4.563   1.631   3.478 -0.2388 -0.7150  0.6437
 1934SOL    MW4 7783   4.486   1.658   3.509 -0.1252 -0.1365  0.4127
 1935SOL     OW 7784   4.482   1.913   3.390 -0.3430  0.8586 -0.2521
 1935SOL    HW2 7785   4.486   1.823   3.423 -1.4304  1.2597  1.0346
 1935SOL    HW3 7786   4.498   1.905   3.296 -0.3058 -0.6656 -0.1235
 1935SOL    MW4 7787   4.484   1.900   3.382 -0.4816  0.7104 -0.0653
 1936SOL     OW 7788   0.224   2.038   3.487 -0.1965  0.0069 -0.2084
 1936SOL    HW2 7789   0.224   2.044   3.583  0.5199 -2.5886 -0.0034
 1936SOL    HW3 7790   0.136   2.007   3.465  0.1333 -0.8927 -0.2671
 1936SOL    MW4 7791   0.213   2.035   3.497 -0.0584 -0.4542 -0.1893
 1937SOL     OW 7792   0.239   2.312   3.382  0.0677  0.3796  0.3361
 1937SOL    HW2 7793   0.163   2.353   3.422 -0.3268  0.3565 -0.3711
 1937SOL    HW3 7794   0.238   2.223   3.416  0.1841  0.5861  0.8779
 1937SOL    MW4 7795   0.229   2.306   3.392  0.0310  0.4039  0.3145
 1938SOL     OW 7796   0.029   2.455   3.467  0.4078  0.1153  0.2672
 1938SOL    HW2 7797   0.024   2.460   3.562 -0.0500  0.7156  0.2206
 1938SOL    HW3 7798  -0.058   2.426   3.440 -0.1141  1.8965 -0.0690
 1938SOL    MW4 7799   0.017   2.452   3.476  0.2785  0.4292  0.2170
 1939SOL     OW 7800   0.053   2.728   3.401 -0.0646 -0.0018  0.0167
 1939SOL    HW2 7801   0.120   2.770   3.455  0.0442 -0.5602  0.3230
 1939SOL    HW3 7802   0.064   2.634   3.418 -0.8789 -0.1021  0.0257
 1939SOL    MW4 7803   0.063   2.721   3.410 -0.1577 -0.0887  0.0582
 1940SOL     OW 7804   0.271   2.859   3.534 -0.0759  0.0881 -0.5329
 1940SOL    HW2 7805   0.341   2.812   3.490 -0.0808  0.0711 -0.5229
 1940SOL    HW3 7806   0.256   2.937   3.480  0.6836  0.6499  0.0518
 1940SOL    MW4 7807   0.278   2.863   3.521  0.0236  0.1600 -0.4544
 1941SOL     OW 7808   0.260   3.097   3.394  0.2004 -0.4655  0.3969
 1941SOL    HW2 7809   0.177   3.134   3.422  0.1966 -0.5115  0.4450
 1941SOL    HW3 7810   0.253   3.091   3.298  0.4769  0.3480  0.3170
 1941SOL    MW4 7811   0.248   3.101   3.385  0.2364 -0.3643  0.3929
 1942SOL     OW 7812   0.007   3.192   3.498 -0.1657 -0.1147 -0.1994
 1942SOL    HW2 7813  -0.074   3.148   3.470 -0.7093  0.7682 -0.0399
 1942SOL    HW3 7814  -0.009   3.285   3.480  0.0328  0.3031  1.6956
 1942SOL    MW4 7815  -0.006   3.198   3.492 -0.2113  0.0565  0.0718
 1943SOL     OW 7816   4.450   3.455   3.417  0.4573 -0.1941  0.1266
 1943SOL    HW2 7817   4.379   3.512   3.446 -0.8697 -1.8568  0.2525
 1943SOL    HW3 7818   4.453   3.466   3.322 -0.9324 -1.1636 -0.0446
 1943SOL    MW4 7819   4.441   3.464   3.408  0.0987 -0.5417  0.1206
 1944SOL     OW 7820   0.182   3.607   3.491 -0.1888 -0.3323  0.0040
 1944SOL    HW2 7821   0.189   3.580   3.583  0.8736 -0.1424 -0.0206
 1944SOL    HW3 7822   0.104   3.562   3.459 -0.4903 -0.5096  0.9591
 1944SOL    MW4 7823   0.172   3.598   3.499 -0.0884 -0.3307  0.1264
 1945SOL     OW 7824   0.252   3.875   3.375 -0.3268  0.3421  0.2113
 1945SOL    HW2 7825   0.165   3.910   3.395 -1.2271 -1.3874 -0.4840
 1945SOL    HW3 7826   0.255   3.792   3.422 -0.0164 -0.7672 -1.6881
 1945SOL    MW4 7827   0.241   3.868   3.384 -0.4047 -0.0324 -0.1309
 1946SOL     OW 7828   0.001   3.970   3.438 -0.3847  0.6932  0.1113
 1946SOL    HW2 7829  -0.019   3.965   3.532  1.4243  0.4831  0.5132
 1946SOL    HW3 7830   0.007   4.064   3.421 -1.1613  0.7438  0.1012
 1946SOL    MW4 7831  -0.001   3.982   3.448 -0.2485  0.6721  0.1633
 1947SOL     OW 7832   0.029   4.240   3.384 -0.1635 -0.0116 -0.1748
 1947SOL    HW2 7833  -0.046   4.281   3.427 -0.1641  0.0011 -0.1880
 1947SOL    HW3 7834   0.105   4.273   3.432 -0.1632  0.0160 -0.1946
 1947SOL    MW4 7835   0.029   4.250   3.396 -0.1635 -0.0057 -0.1791
 1948SOL     OW 7836   0.219   4.391   3.516  0.5942 -0.3126  0.1645
 1948SOL    HW2 7837   0.224   4.384   3.611 -1.0118 -1.4363  0.1844
 1948SOL    HW3 7838   0.306   4.364   3.485  1.2737  0.5187  1.3149
 1948SOL    MW4 7839   0.231   4.387   3.524  0.4720 -0.3510  0.3188
 1949SOL     OW 7840   0.651   0.011   3.420 -0.1818  0.2691 -0.0235
 1949SOL    HW2 7841   0.713   0.078   3.449 -1.2625  1.6156 -0.7298
 1949SOL    HW3 7842   0.674  -0.005   3.329 -1.2384  1.2313 -0.4748
 1949SOL    MW4 7843   0.662   0.018   3.412 -0.4638  0.5736 -0.1762
 1950SOL     OW 7844   0.424   0.111   3.517  0.5665  0.0124  0.1463
 1950SOL    HW2 7845   0.445   0.103   3.610  0.1652  1.4450  0.3666
 1950SOL    HW3 7846   0.501   0.074   3.472  1.0384 -0.1018  1.0437
 1950SOL    MW4 7847   0.437   0.105   3.523  0.5758  0.1863  0.2940
 1951SOL     OW 7848   0.482   0.370   3.418  0.3776  0.1467  0.1015
 1951SOL    HW2 7849   0.557   0.417   3.455  2.0325 -0.9188 -1.8013
 1951SOL    HW3 7850   0.481   0.286   3.464  1.2052 -0.3857 -0.8482
 1951SOL    MW4 7851   0.492   0.365   3.429  0.7052 -0.0641 -0.2751
 1952SOL     OW 7852   0.680   0.549   3.497 -0.2590  0.3476 -0.0515
 1952SOL    HW2 7853   0.687   0.527   3.590 -1.5085 -3.6381 -0.7970
 1952SOL    HW3 7854   0.754   0.503   3.456 -0.9822  0.2998 -1.3172
 1952SOL    MW4 7855   0.691   0.540   3.504 -0.5193 -0.1845 -0.3169
 1953SOL     OW 7856   0.657   0.807   3.397  0.2245  0.0325  0.0557
 1953SOL    HW2 7857   0.582   0.836   3.450 -1.7987 -0.7672 -2.2430
 1953SOL    HW3 7858   0.662   0.713   3.414  1.4544  0.2814  1.0866
 1953SOL    MW4 7859   0.647   0.798   3.406  0.1198 -0.0402 -0.1116
 1954SOL     OW 7860   0.428   0.887   3.524 -0.7478  0.1293  0.0830
 1954SOL    HW2 7861   0.439   0.895   3.618  0.3659  1.0735 -0.1231
 1954SOL    HW3 7862   0.421   0.977   3.492  0.1011 -0.1409 -0.8773
 1954SOL    MW4 7863   0.428   0.900   3.532 -0.4888  0.2183 -0.0710
 1955SOL     OW 7864   0.416   1.147   3.409 -0.1028 -0.1058  0.3063
 1955SOL    HW2 7865   0.486   1.192   3.457 -0.0641  0.6068 -0.4254
 1955SOL    HW3 7866   0.453   1.129   3.323 -0.3586 -0.9271  0.3635
 1955SOL    MW4 7867   0.430   1.150   3.404 -0.1314 -0.1203  0.2172
 1956SOL     OW 7868   0.660   1.260   3.484  0.3551  0.2899 -0.6686
 1956SOL    HW2 7869   0.735   1.221   3.438  1.5080  2.4558 -0.7121
 1956SOL    HW3 7870   0.662   1.352   3.457 -1.5855  0.6313  0.3270
 1956SOL    MW4 7871   0.670   1.267   3.474  0.2512  0.6207 -0.5429
 1957SOL     OW 7872   0.652   1.509   3.397  0.4623  0.0215  0.1374
 1957SOL    HW2 7873   0.730   1.563   3.411 -0.5212  1.2705  0.9340
 1957SOL    HW3 7874   0.579   1.570   3.402 -0.5285 -0.9890 -1.5240
 1957SOL    MW4 7875   0.653   1.524   3.400  0.2018  0.0530  0.0234
 1958SOL     OW 7876   0.450   1.682   3.466 -0.2062  0.7598 -0.1999
 1958SOL    HW2 7877   0.441   1.663   3.560 -1.7672  0.2914 -0.4348
 1958SOL    HW3 7878   0.467   1.777   3.464  1.7718  0.4570  0.6395
 1958SOL    MW4 7879   0.451   1.692   3.478 -0.1512  0.6580 -0.1199
 1959SOL     OW 7880   0.505   1.932   3.434  0.1962  0.2327 -0.1285
 1959SOL    HW2 7881   0.418   1.970   3.446  0.8789  1.7396  0.3066
 1959SOL    HW3 7882   0.513   1.919   3.340 -0.2036  0.8268 -0.2476
 1959SOL    MW4 7883   0.495   1.936   3.423  0.2335  0.5097 -0.0868
 1960SOL     OW 7884   0.720   2.071   3.540 -0.0145  0.0674 -0.1907
 1960SOL    HW2 7885   0.714   2.054   3.634  1.0048 -0.5822 -0.2369
 1960SOL    HW3 7886   0.643   2.026   3.503 -0.0266 -0.2847  0.2538
 1960SOL    MW4 7887   0.709   2.063   3.547  0.1184 -0.0646 -0.1380
 1961SOL     OW 7888   0.662   2.313   3.394 -0.0195  0.2135  0.4656
 1961SOL    HW2 7889   0.733   2.370   3.424  0.6422 -0.9197  1.0960
 1961SOL    HW3 7890   0.674   2.232   3.443 -2.2561  0.2909  1.2077
 1961SOL    MW4 7891   0.673   2.310   3.405 -0.2273  0.0741  0.6468
 1962SOL     OW 7892   0.460   2.441   3.511 -0.3477 -0.0347 -0.0969
 1962SOL    HW2 7893   0.536   2.397   3.473 -1.1020  0.0392 -1.7315
 1962SOL    HW3 7894   0.385   2.405   3.465 -1.1394  1.4241  0.0042
 1962SOL    MW4 7895   0.460   2.431   3.500 -0.5516  0.1678 -0.2995
 1963SOL     OW 7896   0.476   2.712   3.415 -0.0365 -0.0665 -0.1028
 1963SOL    HW2 7897   0.471   2.618   3.433 -2.1271 -0.1678 -1.0568
 1963SOL    HW3 7898   0.468   2.719   3.320 -0.7750  1.1193  0.0356
 1963SOL    MW4 7899   0.474   2.700   3.405 -0.4098  0.0765 -0.2105
 1964SOL     OW 7900   0.673   2.881   3.511 -0.2212  0.1910  0.3098
 1964SOL    HW2 7901   0.747   2.833   3.474 -1.1469 -0.4749 -0.7189
 1964SOL    HW3 7902   0.596   2.833   3.481 -1.1158  1.6115  0.2948
 1964SOL    MW4 7903   0.673   2.869   3.502 -0.4614  0.2904  0.1721
 1965SOL     OW 7904   0.661   3.118   3.370  0.1592 -0.4022 -0.1624
 1965SOL    HW2 7905   0.608   3.176   3.425  1.3021 -0.5797  1.1825
 1965SOL    HW3 7906   0.668   3.037   3.420  0.5679 -0.8528 -0.9335
 1965SOL    MW4 7907   0.655   3.115   3.384  0.3638 -0.4849 -0.0865
 1966SOL     OW 7908   0.465   3.244   3.533 -0.3362 -0.5089 -0.2509
 1966SOL    HW2 7909   0.450   3.238   3.627 -0.1893 -0.3454 -0.2175
 1966SOL    HW3 7910   0.404   3.180   3.495 -1.4826  0.4967 -0.1427
 1966SOL    MW4 7911   0.455   3.235   3.540 -0.4681 -0.3550 -0.2322
 1967SOL     OW 7912   0.415   3.486   3.394  0.0107 -0.1358  0.1904
 1967SOL    HW2 7913   0.410   3.406   3.446  1.9619  0.7750  1.8630
 1967SOL    HW3 7914   0.331   3.530   3.409 -0.2110 -0.8327  1.0251
 1967SOL    MW4 7915   0.403   3.482   3.403  0.2388 -0.1075  0.5212
 1968SOL     OW 7916   0.663   3.594   3.510  0.4053 -0.1400 -0.0816
 1968SOL    HW2 7917   0.733   3.553   3.459  1.2513  0.3248  0.6919
 1968SOL    HW3 7918   0.582   3.556   3.474  1.0682 -1.0407 -0.6624
 1968SOL    MW4 7919   0.662   3.583   3.498  0.6044 -0.1976 -0.0563
 1969SOL     OW 7920   0.693   3.847   3.417  0.1227 -0.2059 -0.1226
 1969SOL    HW2 7921   0.617   3.895   3.451 -1.6774 -1.5713 -2.0825
 1969SOL    HW3 7922   0.680   3.757   3.448 -0.1037 -0.8589 -2.0317
 1969SOL    MW4 7923   0.681   3.841   3.426 -0.1447 -0.4721 -0.6332
 1970SOL     OW 7924   0.470   4.007   3.492 -0.4532 -0.5835 -0.0973
 1970SOL    HW2 7925   0.474   4.103   3.488  0.7315 -0.5851  0.9148
 1970SOL    HW3 7926   0.386   3.985   3.451 -1.4002  0.9677  0.9635
 1970SOL    MW4 7927   0.459   4.017   3.486 -0.4218 -0.3791  0.1762
 1971SOL     OW 7928   0.442   4.264   3.428  0.1616 -0.3972  0.0893
 1971SOL    HW2 7929   0.521   4.306   3.462 -0.2967  0.7512 -0.2393
 1971SOL    HW3 7930   0.451   4.271   3.332  0.4028 -1.6525  0.0209
 1971SOL    MW4 7931   0.454   4.271   3.420  0.1330 -0.4115  0.0370
 1972SOL     OW 7932   0.672   4.391   3.515 -0.1588 -0.2707 -0.4237
 1972SOL    HW2 7933   0.752   4.352   3.481  1.3482  0.0254  2.6189
 1972SOL    HW3 7934   0.676   4.483   3.487  0.5140 -0.2924 -0.4136
 1972SOL    MW4 7935   0.683   4.398   3.507  0.1287 -0.2346 -0.0207
 1973SOL     OW 7936   1.093   4.662   3.419 -0.4446  0.2631 -0.3512
 1973SOL    HW2 7937   1.170   4.715   3.439 -0.3906 -0.2480  0.8327
 1973SOL    HW3 7938   1.093   4.654   3.324  0.0767  1.5908 -0.4722
 1973SOL    MW4 7939   1.103   4.668   3.409 -0.3687  0.3709 -0.2110
 1974SOL     OW 7940   0.875   0.154   3.473  0.4382 -0.3060 -0.0340
 1974SOL    HW2 7941   0.868   0.139   3.567 -2.0564 -1.6513 -0.4028
 1974SOL    HW3 7942   0.949   0.099   3.446  0.4418 -0.8112  0.9631
 1974SOL    MW4 7943   0.884   0.145   3.482  0.1096 -0.5501  0.0484
 1975SOL     OW 7944   0.893   0.400   3.361 -0.4284 -0.4201 -0.0655
 1975SOL    HW2 7945   0.974   0.438   3.394 -0.1752  0.0926 -1.2861
 1975SOL    HW3 7946   0.884   0.318   3.409  1.4530 -1.0947 -0.8225
 1975SOL    MW4 7947   0.902   0.394   3.372 -0.1469 -0.4414 -0.3264
 1976SOL     OW 7948   1.112   0.513   3.473 -0.2155  0.1907 -0.3289
 1976SOL    HW2 7949   1.101   0.507   3.568  0.9235 -1.5310 -0.2749
 1976SOL    HW3 7950   1.114   0.607   3.455 -1.4561  0.5363  1.2165
 1976SOL    MW4 7951   1.111   0.524   3.483 -0.2290  0.0091 -0.1178
 1977SOL     OW 7952   1.092   0.768   3.381  0.2188 -0.4816  0.0878
 1977SOL    HW2 7953   1.170   0.820   3.400  1.4988 -2.1608 -0.4435
 1977SOL    HW3 7954   1.023   0.809   3.434  1.5328  0.7864  0.8746
 1977SOL    MW4 7955   1.094   0.780   3.390  0.5611 -0.5359  0.1216
 1978SOL     OW 7956   0.891   0.912   3.510  0.1715 -0.0697 -0.0818
 1978SOL    HW2 7957   0.905   0.999   3.474  0.8074 -0.1387 -0.0014
 1978SOL    HW3 7958   0.814   0.879   3.463 -0.1982  0.6154  0.0431
 1978SOL    MW4 7959   0.883   0.919   3.499  0.2066  0.0116 -0.0548
 1979SOL     OW 7960   0.894   1.148   3.367  0.0262 -0.0491 -0.1278
 1979SOL    HW2 7961   0.967   1.196   3.406  0.5805  0.5165 -1.8035
 1979SOL    HW3 7962   0.901   1.166   3.273 -2.3370  0.1129 -0.3173
 1979SOL    MW4 7963   0.904   1.157   3.360 -0.2124  0.0470 -0.3743
 1980SOL     OW 7964   1.107   1.282   3.499 -0.0583  0.1139 -0.4798
 1980SOL    HW2 7965   1.120   1.267   3.592  3.6577 -0.9281 -1.0722
 1980SOL    HW3 7966   1.117   1.377   3.488  0.4039  0.1221  0.0387
 1980SOL    MW4 7967   1.110   1.293   3.510  0.4930 -0.0225 -0.4897
 1981SOL     OW 7968   1.160   1.553   3.435 -0.1879  0.5500  0.2388
 1981SOL    HW2 7969   1.222   1.619   3.466  1.2269 -0.9305  0.6356
 1981SOL    HW3 7970   1.159   1.565   3.340 -0.1275  1.3125  0.3324
 1981SOL    MW4 7971   1.168   1.563   3.427  0.0067  0.4553  0.3037
 1982SOL     OW 7972   0.873   1.663   3.463  0.2353  0.1743  0.0278
 1982SOL    HW2 7973   0.884   1.745   3.415  0.2504  0.6038  0.7608
 1982SOL    HW3 7974   0.962   1.629   3.475  0.1297 -0.7741 -1.6795
 1982SOL    MW4 7975   0.886   1.669   3.458  0.2233  0.1059 -0.1006
 1983SOL     OW 7976   0.891   1.919   3.371  0.1329  0.3387  1.0263
 1983SOL    HW2 7977   0.977   1.931   3.412 -0.0862  0.8649  1.3425
 1983SOL    HW3 7978   0.836   1.986   3.412  0.0364  1.2133 -0.5082
 1983SOL    MW4 7979   0.896   1.929   3.382  0.0913  0.5234  0.8657
 1984SOL     OW 7980   1.143   2.021   3.466  0.3149 -0.0494  0.4452
 1984SOL    HW2 7981   1.234   1.999   3.447  0.2451 -0.4034  0.5131
 1984SOL    HW3 7982   1.137   2.116   3.451  0.4187 -0.2135 -0.6614
 1984SOL    MW4 7983   1.154   2.031   3.461  0.3195 -0.1175  0.3080
 1985SOL     OW 7984   1.148   2.295   3.412 -0.2275 -0.2671 -0.0247
 1985SOL    HW2 7985   1.232   2.327   3.447  0.0824 -0.2744 -0.7547
 1985SOL    HW3 7986   1.155   2.309   3.318 -1.7946  1.4623  0.1074
 1985SOL    MW4 7987   1.160   2.301   3.404 -0.3934 -0.0398 -0.1035
 1986SOL     OW 7988   0.903   2.429   3.502  0.5186 -0.0535 -0.1523
 1986SOL    HW2 7989   0.904   2.417   3.597  0.6424 -1.1274 -0.2842
 1986SOL    HW3 7990   0.978   2.378   3.471  0.3244  0.0873 -0.8519
 1986SOL    MW4 7991   0.913   2.421   3.510  0.5094 -0.1764 -0.2620
 1987SOL     OW 7992   0.880   2.724   3.436 -0.1533 -0.2944  0.1474
 1987SOL    HW2 7993   0.962   2.762   3.467 -1.5245  0.5318  2.9125
 1987SOL    HW3 7994   0.884   2.633   3.465 -0.4018 -0.1308  0.7086
 1987SOL    MW4 7995   0.892   2.717   3.444 -0.3670 -0.1638  0.5863
 1988SOL     OW 7996   1.172   2.812   3.499 -0.1655 -0.1159  0.6049
 1988SOL    HW2 7997   1.178   2.801   3.594  1.3992  1.5813  0.7360
 1988SOL    HW3 7998   1.241   2.756   3.464  0.7874  1.0065  0.6372
 1988SOL    MW4 7999   1.182   2.803   3.507  0.1668  0.2561  0.6268
 1989SOL     OW 8000   1.153   3.093   3.391 -0.0975 -0.5448  0.1079
 1989SOL    HW2 8001   1.189   3.010   3.423 -0.1565 -0.6830 -0.1840
 1989SOL    HW3 8002   1.167   3.091   3.296  1.0619  0.3480  0.2518
 1989SOL    MW4 8003   1.159   3.082   3.383  0.0477 -0.4454  0.0885
 1990SOL     OW 8004   0.909   3.206   3.505 -0.0344 -0.2091 -0.4147
 1990SOL    HW2 8005   0.990   3.176   3.465 -0.3668 -1.2832 -0.2835
 1990SOL    HW3 8006   0.839   3.169   3.451 -0.4471  0.2152 -0.1790
 1990SOL    MW4 8007   0.910   3.197   3.493 -0.1327 -0.2949 -0.3664
 1991SOL     OW 8008   0.921   3.488   3.406 -0.2094  0.0882 -0.3152
 1991SOL    HW2 8009   0.924   3.399   3.443  0.2468  0.2879  0.1342
 1991SOL    HW3 8010   0.913   3.475   3.312 -0.5999 -0.4330 -0.2115
 1991SOL    MW4 8011   0.920   3.475   3.399 -0.2007  0.0458 -0.2425
 1992SOL     OW 8012   1.156   3.588   3.533 -0.0341 -0.2856 -0.0496
 1992SOL    HW2 8013   1.149   3.577   3.628 -0.7399 -0.9439 -0.1696
 1992SOL    HW3 8014   1.073   3.553   3.499 -0.8105  2.1164 -0.7397
 1992SOL    MW4 8015   1.144   3.582   3.541 -0.2297 -0.0556 -0.1566
 1993SOL     OW 8016   1.119   3.846   3.411  0.0747  0.0327  0.2724
 1993SOL    HW2 8017   1.193   3.889   3.453  0.3016  0.1868 -0.2876
 1993SOL    HW3 8018   1.124   3.755   3.439  1.3124 -0.2757 -0.9285
 1993SOL    MW4 8019   1.129   3.840   3.420  0.2680  0.0122  0.0401
 1994SOL     OW 8020   0.915   4.004   3.498  0.1131  0.3344  0.2591
 1994SOL    HW2 8021   0.995   3.955   3.475  0.5862  0.8127  0.8668
 1994SOL    HW3 8022   0.844   3.945   3.474  0.6337  0.2308 -1.0475
 1994SOL    MW4 8023   0.916   3.989   3.492  0.2443  0.3836  0.1669
 1995SOL     OW 8024   0.893   4.274   3.418  0.5446  0.0972  0.6621
 1995SOL    HW2 8025   0.885   4.182   3.442 -0.4661 -0.1602 -0.6355
 1995SOL    HW3 8026   0.908   4.273   3.323 -1.1717  1.3381  0.3685
 1995SOL    MW4 8027   0.894   4.262   3.408  0.1847  0.2270  0.4523
 1996SOL     OW 8028   1.129   4.394   3.487 -0.5456 -0.0468 -0.1041
 1996SOL    HW2 8029   1.049   4.346   3.466 -0.6770 -0.1988  0.7465
 1996SOL    HW3 8030   1.105   4.486   3.478 -0.4415 -0.1182 -1.1960
 1996SOL    MW4 8031   1.115   4.400   3.483 -0.5491 -0.0758 -0.1359
 1997SOL     OW 8032   1.593   4.649   3.427 -0.0815  0.6997  0.4049
 1997SOL    HW2 8033   1.584   4.557   3.449  1.3419  0.5633  0.4879
 1997SOL    HW3 8034   1.505   4.685   3.435 -1.0279 -1.0794 -1.6359
 1997SOL    MW4 8035   1.580   4.642   3.431 -0.0187  0.4468  0.1464
 1998SOL     OW 8036   1.333   0.116   3.461 -0.2626 -0.2580 -0.3286
 1998SOL    HW2 8037   1.328   0.130   3.555  0.5398  0.2546 -0.3594
 1998SOL    HW3 8038   1.348   0.203   3.425  0.1893 -0.5604 -0.8748
 1998SOL    MW4 8039   1.334   0.129   3.468 -0.0970 -0.2303 -0.4046
 1999SOL     OW 8040   1.346   0.375   3.385  0.3655  0.5830 -0.0597
 1999SOL    HW2 8041   1.409   0.437   3.422  1.0913 -0.9283  1.3271
 1999SOL    HW3 8042   1.260   0.413   3.404  0.8099  1.7024 -0.2428
 1999SOL    MW4 8043   1.343   0.388   3.392  0.5200  0.5313  0.0989
 2000SOL     OW 8044   1.549   0.536   3.482  0.3718 -0.3208 -0.1564
 2000SOL    HW2 8045   1.540   0.527   3.576  1.3802  0.4175  0.0149
 2000SOL    HW3 8046   1.616   0.472   3.457  1.5461  0.8568 -0.0831
 2000SOL    MW4 8047   1.557   0.526   3.491  0.6599 -0.0680 -0.1242
 2001SOL     OW 8048   1.580   0.775   3.365 -0.0892 -0.2755  0.4460
 2001SOL    HW2 8049   1.515   0.834   3.403  0.2492  0.4158 -0.0422
 2001SOL    HW3 8050   1.568   0.692   3.412 -1.9554 -0.4372 -0.2619
 2001SOL    MW4 8051   1.570   0.772   3.376 -0.2909 -0.2056  0.2878
 2002SOL     OW 8052   1.356   0.897   3.478  0.6811 -0.2396  0.4427
 2002SOL    HW2 8053   1.343   0.907   3.572 -1.9997  0.5530  0.0385
 2002SOL    HW3 8054   1.352   0.987   3.444  1.5194 -0.5293 -0.4502
 2002SOL    MW4 8055   1.354   0.910   3.486  0.4380 -0.1732  0.2716
 2003SOL     OW 8056   1.342   1.175   3.381  0.1827 -0.2254  0.0797
 2003SOL    HW2 8057   1.413   1.223   3.423 -0.4789  0.3026  0.5997
 2003SOL    HW3 8058   1.262   1.219   3.409 -0.4693 -1.8990  0.9316
 2003SOL    MW4 8059   1.341   1.187   3.390  0.0094 -0.3765  0.2608
 2004SOL     OW 8060   1.573   1.279   3.463 -0.1263 -0.2885 -0.7772
 2004SOL    HW2 8061   1.571   1.241   3.551  0.0981 -0.2150 -0.7403
 2004SOL    HW3 8062   1.653   1.243   3.424  0.4803  0.7353 -0.4832
 2004SOL    MW4 8063   1.583   1.269   3.469 -0.0165 -0.1436 -0.7334
 2005SOL     OW 8064   1.522   1.528   3.381 -0.1580 -0.6222 -0.1184
 2005SOL    HW2 8065   1.540   1.438   3.407  0.1295 -0.2765  0.9000
 2005SOL    HW3 8066   1.540   1.530   3.287 -1.9787 -2.0778 -0.5118
 2005SOL    MW4 8067   1.527   1.517   3.372 -0.3605 -0.7687 -0.0358
 2006SOL     OW 8068   1.357   1.706   3.525  0.5747  0.1995  0.1006
 2006SOL    HW2 8069   1.355   1.689   3.619 -1.8025  0.2835  0.1158
 2006SOL    HW3 8070   1.411   1.635   3.489  1.2868  0.0150  1.4905
 2006SOL    MW4 8071   1.364   1.694   3.533  0.3549  0.1862  0.2861
 2007SOL     OW 8072   1.399   1.943   3.402  0.0242  0.1117  0.2024
 2007SOL    HW2 8073   1.467   1.998   3.441  0.5108  0.1265 -0.6430
 2007SOL    HW3 8074   1.395   1.866   3.459  1.2105 -0.1794 -0.0934
 2007SOL    MW4 8075   1.408   1.940   3.414  0.2449  0.0752  0.0520
 2008SOL     OW 8076   1.597   2.103   3.496 -0.0380 -0.3859  0.1448
 2008SOL    HW2 8077   1.664   2.046   3.458  0.1074  0.6015 -1.0864
 2008SOL    HW3 8078   1.625   2.192   3.474 -1.2515  0.0764  0.4353
 2008SOL    MW4 8079   1.610   2.107   3.488 -0.1788 -0.1945  0.0210
 2009SOL     OW 8080   1.627   2.342   3.368  0.5188 -0.2211  0.0915
 2009SOL    HW2 8081   1.543   2.382   3.391 -0.2935 -1.4111 -0.7649
 2009SOL    HW3 8082   1.623   2.327   3.274  2.3561  1.1968 -0.2389
 2009SOL    MW4 8083   1.616   2.345   3.359  0.6540 -0.1910 -0.0651
 2010SOL     OW 8084   1.394   2.421   3.491 -0.3920 -0.1069  0.1595
 2010SOL    HW2 8085   1.410   2.416   3.585  0.1956  1.2698  0.1484
 2010SOL    HW3 8086   1.403   2.514   3.470 -2.8756 -0.0554 -0.8515
 2010SOL    MW4 8087   1.397   2.433   3.501 -0.6421  0.0815  0.0246
 2011SOL     OW 8088   1.399   2.680   3.400 -0.1076  0.8296  0.3420
 2011SOL    HW2 8089   1.475   2.731   3.430  0.5498 -0.7009  1.3866
 2011SOL    HW3 8090   1.396   2.694   3.306  0.5053  2.2016  0.5159
 2011SOL    MW4 8091   1.409   2.689   3.392  0.0600  0.8087  0.5026
 2012SOL     OW 8092   1.617   2.814   3.492 -0.1052 -0.0019  0.2869
 2012SOL    HW2 8093   1.696   2.774   3.456 -0.7201 -0.0723 -1.0399
 2012SOL    HW3 8094   1.616   2.902   3.455  0.3481  0.6707  1.8385
 2012SOL    MW4 8095   1.627   2.820   3.482 -0.1266  0.0777  0.3166
 2013SOL     OW 8096   1.628   3.087   3.409 -0.1694  0.0748  0.7824
 2013SOL    HW2 8097   1.696   3.141   3.449 -0.2256 -0.0305  1.0178
 2013SOL    HW3 8098   1.547   3.135   3.426 -0.2524 -0.2190  1.2307
 2013SOL    MW4 8099   1.626   3.101   3.416 -0.1878  0.0222  0.8726
 2014SOL     OW 8100   1.387   3.210   3.499 -0.1558 -0.4316 -0.4622
 2014SOL    HW2 8101   1.383   3.201   3.594  0.2202  0.9825 -0.3006
 2014SOL    HW3 8102   1.301   3.179   3.468 -0.9755  0.8610  0.4921
 2014SOL    MW4 8103   1.375   3.205   3.507 -0.2142 -0.0746 -0.3150
 2015SOL     OW 8104   1.386   3.466   3.434  0.3295 -0.3453 -0.0456
 2015SOL    HW2 8105   1.384   3.379   3.473 -2.0846 -0.9594 -1.4444
 2015SOL    HW3 8106   1.311   3.512   3.472 -0.5542 -0.1146 -1.9964
 2015SOL    MW4 8107   1.376   3.461   3.444 -0.1056 -0.3958 -0.4876
 2016SOL     OW 8108   1.596   3.626   3.502  0.0965  0.1821  0.1931
 2016SOL    HW2 8109   1.585   3.624   3.597  1.5264 -0.8039  0.3645
 2016SOL    HW3 8110   1.535   3.561   3.469  0.6536 -0.5451  0.5736
 2016SOL    MW4 8111   1.587   3.617   3.510  0.3587 -0.0441  0.2661
 2017SOL     OW 8112   1.589   3.890   3.421  0.3358  0.6402 -0.1340
 2017SOL    HW2 8113   1.584   3.798   3.446 -1.6229  0.4985 -1.0119
 2017SOL    HW3 8114   1.567   3.892   3.328  0.3752  1.9943 -0.1323
 2017SOL    MW4 8115   1.586   3.878   3.412  0.0826  0.8001 -0.2496
 2018SOL     OW 8116   1.352   3.975   3.516  0.2624 -0.0330  0.5339
 2018SOL    HW2 8117   1.344   4.063   3.479  0.3359  0.0750  0.7747
 2018SOL    HW3 8118   1.441   3.949   3.495 -0.1793 -0.6025 -0.7472
 2018SOL    MW4 8119   1.362   3.983   3.508  0.2139 -0.0937  0.3965
 2019SOL     OW 8120   1.342   4.232   3.415 -0.0490 -0.0080 -0.5880
 2019SOL    HW2 8121   1.269   4.282   3.450 -0.9805 -1.4996 -0.3512
 2019SOL    HW3 8122   1.345   4.255   3.322 -0.6722  0.2132 -0.5521
 2019SOL    MW4 8123   1.333   4.242   3.407 -0.2540 -0.1755 -0.5519
 2020SOL     OW 8124   1.563   4.381   3.517 -0.0262  0.0524  0.3213
 2020SOL    HW2 8125   1.630   4.343   3.460  0.0067  0.3177  0.1791
 2020SOL    HW3 8126   1.481   4.339   3.490  0.0417 -0.0739  0.3109
 2020SOL    MW4 8127   1.561   4.371   3.505 -0.0129  0.0706  0.3009
 2021SOL     OW 8128   2.004   4.661   3.377  0.3481 -0.1870  0.2201
 2021SOL    HW2 8129   2.085   4.703   3.405  0.1822 -1.3530  2.5849
 2021SOL    HW3 8130   1.936   4.705   3.428 -0.7629  1.8879 -2.8969
 2021SOL    MW4 8131   2.006   4.673   3.387  0.1795 -0.0668  0.1209
 2022SOL     OW 8132   1.805   0.126   3.515  0.4106  0.0479  0.1127
 2022SOL    HW2 8133   1.795   0.140   3.609 -1.8651  1.7802 -0.3543
 2022SOL    HW3 8134   1.733   0.068   3.492  0.9443 -0.3428 -0.6006
 2022SOL    MW4 8135   1.794   0.120   3.524  0.1808  0.2249 -0.0432
 2023SOL     OW 8136   1.744   0.366   3.393 -0.1945 -0.4226  0.4134
 2023SOL    HW2 8137   1.761   0.274   3.413  0.6401 -0.1773  0.8698
 2023SOL    HW3 8138   1.763   0.375   3.299  1.0312 -0.4347  0.6472
 2023SOL    MW4 8139   1.749   0.355   3.383  0.0772 -0.3918  0.5045
 2024SOL     OW 8140   1.993   0.460   3.493 -0.1752  0.2279  0.1916
 2024SOL    HW2 8141   1.972   0.549   3.466 -0.0960  0.6699  1.5101
 2024SOL    HW3 8142   1.918   0.408   3.466 -0.5267  0.8266  0.0171
 2024SOL    MW4 8143   1.980   0.465   3.486 -0.2111  0.3653  0.3426
 2025SOL     OW 8144   2.011   0.718   3.387 -0.2831 -0.0084 -0.4308
 2025SOL    HW2 8145   2.080   0.780   3.413  1.3651 -1.7184 -0.6778
 2025SOL    HW3 8146   2.015   0.717   3.291  0.0247 -0.8596 -0.4111
 2025SOL    MW4 8147   2.021   0.726   3.377 -0.0253 -0.3463 -0.4609
 2026SOL     OW 8148   1.809   0.880   3.473  0.7560 -0.1169 -0.4138
 2026SOL    HW2 8149   1.873   0.817   3.438  0.1247 -1.0790  0.1489
 2026SOL    HW3 8150   1.725   0.850   3.439  0.1526 -0.9434  1.7428
 2026SOL    MW4 8151   1.807   0.868   3.464  0.5932 -0.3527 -0.0551
 2027SOL     OW 8152   1.817   1.140   3.388 -0.0407  0.0201 -0.0255
 2027SOL    HW2 8153   1.887   1.197   3.420  0.0053 -0.9003  1.5587
 2027SOL    HW3 8154   1.834   1.056   3.429 -0.7759 -0.8400 -1.4403
 2027SOL    MW4 8155   1.829   1.137   3.398 -0.1317 -0.2148 -0.0031
 2028SOL     OW 8156   2.021   1.302   3.497  0.0299 -0.2887 -0.2090
 2028SOL    HW2 8157   2.026   1.311   3.592  1.4533  1.2740 -0.4127
 2028SOL    HW3 8158   1.986   1.385   3.466  0.4668 -0.4351 -1.1239
 2028SOL    MW4 8159   2.017   1.314   3.505  0.2754 -0.1018 -0.3564
 2029SOL     OW 8160   1.950   1.532   3.352 -0.0715 -0.3589 -0.1377
 2029SOL    HW2 8161   2.032   1.576   3.376 -0.1001  0.1563 -0.9937
 2029SOL    HW3 8162   1.883   1.580   3.400 -0.2019  1.1010 -1.7679
 2029SOL    MW4 8163   1.952   1.544   3.362 -0.0925 -0.0985 -0.4656
 2030SOL     OW 8164   1.751   1.664   3.476 -0.0435 -0.4344 -0.1487
 2030SOL    HW2 8165   1.762   1.757   3.456 -1.8638 -0.1838 -0.0191
 2030SOL    HW3 8166   1.663   1.643   3.447 -0.6137 -1.4863  2.2188
 2030SOL    MW4 8167   1.741   1.674   3.469 -0.3589 -0.5400  0.1810
 2031SOL     OW 8168   1.771   1.923   3.383  0.4205 -0.2362 -0.0970
 2031SOL    HW2 8169   1.849   1.946   3.435  0.8532 -2.0456  0.0862
 2031SOL    HW3 8170   1.803   1.922   3.293  0.3664  0.0386 -0.1190
 2031SOL    MW4 8171   1.786   1.926   3.378  0.4704 -0.4387 -0.0756
 2032SOL     OW 8172   1.968   2.046   3.518 -0.6349  0.3880 -0.6036
 2032SOL    HW2 8173   2.038   1.990   3.484 -1.0553 -0.0796 -0.7097
 2032SOL    HW3 8174   1.989   2.134   3.486 -0.2524  0.1950 -0.8781
 2032SOL    MW4 8175   1.980   2.050   3.509 -0.6399  0.3006 -0.6537
 2033SOL     OW 8176   2.063   2.291   3.414 -0.0352 -0.1374  0.0732
 2033SOL    HW2 8177   2.144   2.322   3.455 -0.2450  0.0666  0.3285
 2033SOL    HW3 8178   2.070   2.320   3.323 -1.1624  2.4387  0.7698
 2033SOL    MW4 8179   2.075   2.299   3.407 -0.2117  0.2291  0.1986
 2034SOL     OW 8180   1.838   2.453   3.529  0.2646  0.3962 -0.1726
 2034SOL    HW2 8181   1.917   2.413   3.493 -0.1220  1.2522 -2.0131
 2034SOL    HW3 8182   1.766   2.410   3.482 -0.3076  0.5369  0.5662
 2034SOL    MW4 8183   1.839   2.442   3.518  0.1382  0.5276 -0.3181
 2035SOL     OW 8184   1.854   2.684   3.382  0.7649  0.0188 -0.0273
 2035SOL    HW2 8185   1.911   2.745   3.428  0.3145 -0.4221  1.1368
 2035SOL    HW3 8186   1.841   2.612   3.444 -0.1208 -0.4240 -0.7147
 2035SOL    MW4 8187   1.860   2.683   3.396  0.5887 -0.0978  0.0358
 2036SOL     OW 8188   2.039   2.807   3.542  0.3070  0.1985 -0.0065
 2036SOL    HW2 8189   2.031   2.811   3.638  2.3614  1.3168  0.1599
 2036SOL    HW3 8190   2.027   2.897   3.513 -0.8436 -0.2278 -0.8634
 2036SOL    MW4 8191   2.037   2.819   3.551  0.4261  0.2897 -0.0975
 2037SOL     OW 8192   2.021   3.054   3.422 -0.0240  0.2046 -0.5540
 2037SOL    HW2 8193   2.097   3.111   3.438  0.1116 -0.0602 -0.2500
 2037SOL    HW3 8194   1.949   3.098   3.467  0.0147  0.2993 -0.5844
 2037SOL    MW4 8195   2.022   3.067   3.430 -0.0010  0.1819 -0.5178
 2038SOL     OW 8196   1.836   3.217   3.536  0.5126  0.1655  0.0231
 2038SOL    HW2 8197   1.827   3.214   3.631  0.3744 -0.7175 -0.0067
 2038SOL    HW3 8198   1.828   3.309   3.514  2.0099  0.5348  0.9990
 2038SOL    MW4 8199   1.834   3.229   3.546  0.6919  0.0975  0.1481
 2039SOL     OW 8200   1.799   3.463   3.432 -0.6515  0.1662  0.2074
 2039SOL    HW2 8201   1.741   3.530   3.470 -2.8574 -1.1926 -0.6555
 2039SOL    HW3 8202   1.797   3.480   3.338 -2.0640 -1.6941 -0.1381
 2039SOL    MW4 8203   1.791   3.474   3.425 -1.1289 -0.2584  0.0479
 2040SOL     OW 8204   2.054   3.614   3.456 -0.2068 -0.3933 -0.3486
 2040SOL    HW2 8205   2.123   3.551   3.437  0.9383  1.0054 -0.9585
 2040SOL    HW3 8206   1.972   3.567   3.439  0.6225 -1.7377 -0.6608
 2040SOL    MW4 8207   2.052   3.599   3.451  0.0536 -0.3860 -0.4702
 2041SOL     OW 8208   2.060   3.905   3.382 -0.1482 -0.3406 -0.0865
 2041SOL    HW2 8209   1.982   3.951   3.412 -0.6935 -1.0759 -0.3400
 2041SOL    HW3 8210   2.053   3.818   3.423  0.5505 -0.3987 -0.0869
 2041SOL    MW4 8211   2.048   3.899   3.391 -0.1278 -0.4454 -0.1199
 2042SOL     OW 8212   1.836   4.018   3.479 -0.8037 -0.2770  0.2628
 2042SOL    HW2 8213   1.840   4.037   3.572  0.3379 -1.8482  0.5555
 2042SOL    HW3 8214   1.749   3.979   3.466 -0.2162 -1.8830  1.0484
 2042SOL    MW4 8215   1.825   4.015   3.489 -0.5755 -0.6962  0.4048
 2043SOL     OW 8216   1.752   4.255   3.381  0.0733  0.0346 -0.1403
 2043SOL    HW2 8217   1.778   4.177   3.430 -0.4691 -0.1895 -0.2052
 2043SOL    HW3 8218   1.764   4.230   3.289 -0.0969  0.0327 -0.1610
 2043SOL    MW4 8219   1.757   4.241   3.375 -0.0206  0.0048 -0.1519
 2044SOL     OW 8220   2.000   4.394   3.439  0.2211  0.0949 -0.2882
 2044SOL    HW2 8221   1.927   4.355   3.390 -0.5496  0.8962  0.2030
 2044SOL    HW3 8222   2.003   4.485   3.410  0.2461  0.3819  0.5778
 2044SOL    MW4 8223   1.991   4.401   3.429  0.1229  0.2384 -0.1090
 2045SOL     OW 8224   2.488   0.002   3.405  0.0916  0.0351  0.2271
 2045SOL    HW2 8225   2.496  -0.087   3.439  0.0308  0.2390  0.7710
 2045SOL    HW3 8226   2.497  -0.008   3.310  1.7359 -0.3539  0.4161
 2045SOL    MW4 8227   2.490  -0.011   3.397  0.3006  0.0110  0.3238
 2046SOL     OW 8228   2.249   0.094   3.464  0.2948  0.2027 -0.1365
 2046SOL    HW2 8229   2.252   0.187   3.440 -1.5449  0.5187  0.7670
 2046SOL    HW3 8230   2.335   0.060   3.440  1.1634  2.2563 -0.0191
 2046SOL    MW4 8231   2.260   0.102   3.458  0.1667  0.5153 -0.0017
 2047SOL     OW 8232   2.210   0.354   3.363 -0.4846 -0.0454  0.2219
 2047SOL    HW2 8233   2.260   0.425   3.403 -0.4554 -0.3048  0.6568
 2047SOL    HW3 8234   2.118   0.375   3.383 -0.4781 -0.1136  0.3243
 2047SOL    MW4 8235   2.204   0.366   3.371 -0.4799 -0.0886  0.2933
 2048SOL     OW 8236   2.418   0.500   3.479 -0.2315  0.0905 -0.0554
 2048SOL    HW2 8237   2.489   0.462   3.428  0.3444  0.6076  0.3634
 2048SOL    HW3 8238   2.423   0.594   3.463 -0.3482  0.2050  0.5706
 2048SOL    MW4 8239   2.428   0.507   3.470 -0.1712  0.1738  0.0827
 2049SOL     OW 8240   2.441   0.777   3.396 -0.1298  0.0167 -0.5315
 2049SOL    HW2 8241   2.520   0.804   3.444 -0.4848  0.0728  0.0267
 2049SOL    HW3 8242   2.465   0.787   3.304 -0.3430  2.5259 -0.3523
 2049SOL    MW4 8243   2.455   0.782   3.390 -0.2048  0.3551 -0.4342
 2050SOL     OW 8244   2.186   0.897   3.484  0.2156 -0.3241  0.1989
 2050SOL    HW2 8245   2.193   0.992   3.476  0.9378 -0.2749  1.3161
 2050SOL    HW3 8246   2.263   0.862   3.439 -0.4366 -0.4234 -0.8635
 2050SOL    MW4 8247   2.197   0.905   3.477  0.2248 -0.3307  0.2062
 2051SOL     OW 8248   2.227   1.163   3.392 -0.1021  0.0982 -0.0164
 2051SOL    HW2 8249   2.313   1.189   3.427 -0.0879 -1.6783  1.3356
 2051SOL    HW3 8250   2.164   1.217   3.439  0.2108  0.6568 -0.2418
 2051SOL    MW4 8251   2.230   1.173   3.403 -0.0589 -0.0625  0.1323
 2052SOL     OW 8252   2.459   1.271   3.468 -0.0708  0.0483 -0.0620
 2052SOL    HW2 8253   2.454   1.281   3.563 -2.1759 -1.9779  0.0981
 2052SOL    HW3 8254   2.544   1.230   3.453  0.0657 -0.0883  1.0245
 2052SOL    MW4 8255   2.469   1.267   3.478 -0.3307 -0.2370  0.1025
 2053SOL     OW 8256   2.428   1.543   3.378  0.4248 -0.2661 -0.0456
 2053SOL    HW2 8257   2.417   1.449   3.392 -2.1522 -0.0085 -0.0892
 2053SOL    HW3 8258   2.435   1.552   3.283  1.4630 -0.4521 -0.0018
 2053SOL    MW4 8259   2.428   1.532   3.367  0.2220 -0.2567 -0.0455
 2054SOL     OW 8260   2.201   1.670   3.442 -0.2608  0.1265  0.0089
 2054SOL    HW2 8261   2.192   1.668   3.537  0.1831  0.3317  0.0573
 2054SOL    HW3 8262   2.287   1.630   3.425  0.1557  1.1150 -0.2307
 2054SOL    MW4 8263   2.211   1.664   3.452 -0.1471  0.2840 -0.0162
 2055SOL     OW 8264   2.182   1.953   3.372 -0.4983 -0.0184  0.7980
 2055SOL    HW2 8265   2.198   1.863   3.399  0.8611  0.1029  0.4106
 2055SOL    HW3 8266   2.184   1.951   3.277  1.7420  0.7789  0.7853
 2055SOL    MW4 8267   2.184   1.941   3.363 -0.0234  0.1028  0.7451
 2056SOL     OW 8268   2.429   2.073   3.467  0.2569  0.2145 -0.0694
 2056SOL    HW2 8269   2.415   2.085   3.561 -0.8922  0.6905 -0.2877
 2056SOL    HW3 8270   2.343   2.046   3.434  1.5551 -3.7832 -0.3944
 2056SOL    MW4 8271   2.416   2.071   3.475  0.2766 -0.2503 -0.1411
 2057SOL     OW 8272   2.499   2.329   3.360 -0.7049 -0.0394  0.4871
 2057SOL    HW2 8273   2.575   2.356   3.411  1.3901 -0.3432 -2.3466
 2057SOL    HW3 8274   2.488   2.236   3.380  1.6341 -0.7728 -1.3732
 2057SOL    MW4 8275   2.507   2.320   3.369 -0.1199 -0.1760 -0.1323
 2058SOL     OW 8276   2.301   2.437   3.513  0.0816  0.1211  0.1637
 2058SOL    HW2 8277   2.289   2.520   3.468 -0.8687 -0.9886 -1.6851
 2058SOL    HW3 8278   2.369   2.392   3.462  0.1901 -0.4606  0.8123
 2058SOL    MW4 8279   2.309   2.442   3.500 -0.0296 -0.1020  0.0055
 2059SOL     OW 8280   2.261   2.692   3.419  0.0858  0.3056  0.1143
 2059SOL    HW2 8281   2.178   2.729   3.450  0.3080  0.7090  0.2321
 2059SOL    HW3 8282   2.254   2.695   3.323 -1.4043 -2.7303  0.0768
 2059SOL    MW4 8283   2.249   2.697   3.410 -0.0818 -0.0417  0.1247
 2060SOL     OW 8284   2.490   2.828   3.489 -0.4612  0.3808 -0.2091
 2060SOL    HW2 8285   2.483   2.912   3.444 -0.0193  0.6370  0.1920
 2060SOL    HW3 8286   2.410   2.781   3.465 -1.8145  1.8078  1.4066
 2060SOL    MW4 8287   2.479   2.833   3.480 -0.5813  0.6030  0.0572
 2061SOL     OW 8288   2.458   3.084   3.376  0.0652  0.5408 -0.3885
 2061SOL    HW2 8289   2.542   3.122   3.402  0.4019 -1.3319  1.3154
 2061SOL    HW3 8290   2.455   3.096   3.281  3.6460 -2.0824 -0.9361
 2061SOL    MW4 8291   2.469   3.091   3.367  0.5817 -0.0525 -0.2360
 2062SOL     OW 8292   2.247   3.210   3.487  0.1468  0.6743  0.5006
 2062SOL    HW2 8293   2.252   3.198   3.582 -0.7307 -4.1010  0.0199
 2062SOL    HW3 8294   2.325   3.167   3.453 -1.5426 -1.1215 -1.1965
 2062SOL    MW4 8295   2.258   3.203   3.495 -0.1917 -0.1926  0.2131
 2063SOL     OW 8296   2.272   3.469   3.384  0.2689 -0.0791 -0.4672
 2063SOL    HW2 8297   2.266   3.383   3.426  3.0903 -0.3756 -0.5149
 2063SOL    HW3 8298   2.254   3.452   3.292  0.1454 -0.5109 -0.3648
 2063SOL    MW4 8299   2.269   3.455   3.378  0.6249 -0.1752 -0.4604
 2064SOL     OW 8300   2.494   3.611   3.475 -0.0910  0.2590 -0.6383
 2064SOL    HW2 8301   2.487   3.699   3.438 -0.8105  1.2800  1.8129
 2064SOL    HW3 8302   2.415   3.566   3.446 -0.0211  0.6114 -1.3879
 2064SOL    MW4 8303   2.483   3.617   3.466 -0.1767  0.4401 -0.4137
 2065SOL     OW 8304   2.484   3.873   3.383 -0.1414 -0.5924 -0.1322
 2065SOL    HW2 8305   2.567   3.919   3.399  0.2230 -0.7178 -1.5427
 2065SOL    HW3 8306   2.419   3.924   3.431  0.3880  0.9253 -0.9758
 2065SOL    MW4 8307   2.487   3.886   3.391 -0.0231 -0.4084 -0.4296
 2066SOL     OW 8308   2.264   4.023   3.509  0.2511  0.3322  0.2846
 2066SOL    HW2 8309   2.271   4.111   3.473  0.4497 -0.0991 -0.7336
 2066SOL    HW3 8310   2.185   3.986   3.469  0.0649  0.1102  0.8469
 2066SOL    MW4 8311   2.255   4.030   3.499  0.2527  0.2465  0.2244
 2067SOL     OW 8312   2.249   4.279   3.389 -0.3132  0.2335 -0.1586
 2067SOL    HW2 8313   2.163   4.319   3.400 -0.9880 -1.3844  0.6893
 2067SOL    HW3 8314   2.252   4.253   3.297 -1.3049 -0.9596  0.1346
 2067SOL    MW4 8315   2.238   4.281   3.379 -0.5331 -0.1373 -0.0081
 2068SOL     OW 8316   2.480   4.404   3.475 -0.2283  0.6108  0.5638
 2068SOL    HW2 8317   2.476   4.382   3.568  0.3766  1.3976  0.7861
 2068SOL    HW3 8318   2.398   4.370   3.439 -0.5411  0.4386  1.4158
 2068SOL    MW4 8319   2.469   4.397   3.483 -0.1898  0.6914  0.7055
 2069SOL     OW 8320   2.937   4.618   3.386 -0.1511 -0.2441 -0.4441
 2069SOL    HW2 8321   2.862   4.672   3.411 -0.4779 -0.4356 -1.0132
 2069SOL    HW3 8322   2.927   4.605   3.292  0.7776  0.0146 -0.5876
 2069SOL    MW4 8323   2.926   4.624   3.377 -0.0715 -0.2356 -0.5381
 2070SOL     OW 8324   2.715   0.122   3.526 -0.1467 -0.1658  0.7084
 2070SOL    HW2 8325   2.712   0.208   3.483 -0.3095  0.1557  1.3517
 2070SOL    HW3 8326   2.630   0.083   3.507  0.2447 -0.5546 -0.3149
 2070SOL    MW4 8327   2.703   0.128   3.518 -0.1166 -0.1747  0.6580
 2071SOL     OW 8328   2.694   0.372   3.424  0.0586 -0.3298  0.0456
 2071SOL    HW2 8329   2.754   0.430   3.471 -0.1247 -0.1358  0.0402
 2071SOL    HW3 8330   2.719   0.381   3.332 -0.6792  0.5804 -0.0793
 2071SOL    MW4 8331   2.705   0.381   3.418 -0.0629 -0.1841  0.0284
 2072SOL     OW 8332   2.889   0.512   3.542 -0.2820 -0.4222  0.0210
 2072SOL    HW2 8333   2.906   0.510   3.636 -1.2698  1.4114  0.2474
 2072SOL    HW3 8334   2.884   0.605   3.520  0.9712 -0.8113 -2.0403
 2072SOL    MW4 8335   2.891   0.524   3.551 -0.2470 -0.2317 -0.2210
 2073SOL     OW 8336   2.916   0.764   3.450 -0.4964  0.0616 -0.3055
 2073SOL    HW2 8337   2.991   0.799   3.498  1.4073 -2.3603 -1.3818
 2073SOL    HW3 8338   2.841   0.813   3.483  1.3386  1.4610  1.9368
 2073SOL    MW4 8339   2.916   0.775   3.461 -0.0031 -0.0733 -0.1516
 2074SOL     OW 8340   2.673   0.888   3.525 -0.2470 -0.6404  0.0980
 2074SOL    HW2 8341   2.668   0.886   3.621  1.7867 -0.4447  0.2459
 2074SOL    HW3 8342   2.676   0.981   3.503  0.1108 -0.6907 -0.0797
 2074SOL    MW4 8343   2.673   0.900   3.535  0.0684 -0.6213  0.0939
 2075SOL     OW 8344   2.690   1.150   3.419  0.3043  0.0595 -0.0384
 2075SOL    HW2 8345   2.760   1.209   3.448 -0.3597  0.1209  1.5199
 2075SOL    HW3 8346   2.692   1.155   3.324  1.4845  1.1613  0.0262
 2075SOL    MW4 8347   2.699   1.159   3.411  0.3724  0.2130  0.1757
 2076SOL     OW 8348   2.892   1.306   3.509 -0.2448  0.3507  0.1810
 2076SOL    HW2 8349   2.880   1.299   3.603 -1.0537  2.0402  0.2132
 2076SOL    HW3 8350   2.969   1.252   3.491  0.2189  0.4139  1.8720
 2076SOL    MW4 8351   2.901   1.298   3.519 -0.2906  0.5819  0.4084
 2077SOL     OW 8352   2.917   1.562   3.384  0.3544 -0.2856  0.2452
 2077SOL    HW2 8353   2.834   1.603   3.407  0.1075 -0.6329 -0.0241
 2077SOL    HW3 8354   2.912   1.475   3.423  0.2295 -0.6204 -0.4990
 2077SOL    MW4 8355   2.905   1.556   3.392  0.3054 -0.3757  0.1113
 2078SOL     OW 8356   2.653   1.676   3.466 -0.3187  0.3307  0.1373
 2078SOL    HW2 8357   2.638   1.759   3.422 -0.4975 -0.1685 -0.7509
 2078SOL    HW3 8358   2.584   1.618   3.433  0.4625 -0.4921 -0.0848
 2078SOL    MW4 8359   2.642   1.679   3.456 -0.2394  0.1563 -0.0093
 2079SOL     OW 8360   2.635   1.919   3.360  0.3006  0.1501  0.1475
 2079SOL    HW2 8361   2.556   1.962   3.393  0.0964 -0.2480  0.1702
 2079SOL    HW3 8362   2.640   1.945   3.268 -1.0314 -1.5775 -0.4168
 2079SOL    MW4 8363   2.625   1.928   3.352  0.0978 -0.1304  0.0756
 2080SOL     OW 8364   2.843   2.077   3.459  0.0510  0.4727 -0.6807
 2080SOL    HW2 8365   2.839   2.084   3.554  0.6329  0.7026 -0.6729
 2080SOL    HW3 8366   2.760   2.036   3.434 -0.3790  0.9912 -0.1233
 2080SOL    MW4 8367   2.831   2.073   3.468  0.0710  0.5713 -0.6061
 2081SOL     OW 8368   2.938   2.322   3.394  0.2057 -0.5368  0.3845
 2081SOL    HW2 8369   2.926   2.229   3.413  2.2611 -0.8926  0.0598
 2081SOL    HW3 8370   2.923   2.329   3.299  0.5609 -0.6464  0.3173
 2081SOL    MW4 8371   2.935   2.311   3.384  0.5236 -0.5982  0.3328
 2082SOL     OW 8372   2.714   2.423   3.516  0.5283  0.1717  0.2882
 2082SOL    HW2 8373   2.734   2.449   3.606  0.3988 -0.3399  0.4713
 2082SOL    HW3 8374   2.795   2.384   3.484  0.9233  1.3961 -0.2097
 2082SOL    MW4 8375   2.727   2.421   3.523  0.5634  0.2658  0.2465
 2083SOL     OW 8376   2.694   2.673   3.391 -0.0060  0.1931  0.3512
 2083SOL    HW2 8377   2.700   2.583   3.424 -0.2027  0.0500 -0.0112
 2083SOL    HW3 8378   2.625   2.713   3.444  0.8610  0.4647  1.2961
 2083SOL    MW4 8379   2.686   2.666   3.402  0.0823  0.2103  0.4282
 2084SOL     OW 8380   2.926   2.769   3.473  0.6334 -0.2391  0.5545
 2084SOL    HW2 8381   2.927   2.792   3.566 -0.0145  1.0210  0.2678
 2084SOL    HW3 8382   2.840   2.730   3.459  0.6744 -0.2928  0.4513
 2084SOL    MW4 8383   2.915   2.767   3.484  0.5529 -0.0799  0.5031
 2085SOL     OW 8384   2.881   3.021   3.387  0.1993  0.3592 -0.1793
 2085SOL    HW2 8385   2.898   2.929   3.409  1.5582  0.3496 -1.2043
 2085SOL    HW3 8386   2.883   3.024   3.292  0.0356  1.4387 -0.1574
 2085SOL    MW4 8387   2.883   3.009   3.378  0.3569  0.5004 -0.3114
 2086SOL     OW 8388   2.692   3.194   3.477  0.2200  0.0295 -0.3454
 2086SOL    HW2 8389   2.696   3.198   3.573 -0.1794  1.5785 -0.3804
 2086SOL    HW3 8390   2.749   3.120   3.454  0.8508  0.0649  1.0405
 2086SOL    MW4 8391   2.700   3.184   3.487  0.2503  0.2384 -0.1671
 2087SOL     OW 8392   2.687   3.437   3.358 -0.0918 -0.1019 -0.4709
 2087SOL    HW2 8393   2.678   3.351   3.400  0.2438 -0.2888 -0.7776
 2087SOL    HW3 8394   2.620   3.491   3.399 -0.2249 -0.4786 -0.1898
 2087SOL    MW4 8395   2.677   3.433   3.369 -0.0651 -0.1762 -0.4740
 2088SOL     OW 8396   2.898   3.565   3.503  0.1728 -0.0954  0.0493
 2088SOL    HW2 8397   2.888   3.651   3.463  0.5920  0.2291  0.6279
 2088SOL    HW3 8398   2.825   3.513   3.468 -0.3991  0.6523  0.1208
 2088SOL    MW4 8399   2.887   3.570   3.493  0.1528  0.0460  0.1352
 2089SOL     OW 8400   2.920   3.814   3.373  0.0953 -0.0354 -0.1286
 2089SOL    HW2 8401   3.000   3.849   3.413  0.3600 -1.0069  0.2133
 2089SOL    HW3 8402   2.850   3.866   3.411  0.4255 -0.3192  0.9003
 2089SOL    MW4 8403   2.921   3.826   3.384  0.1738 -0.2007  0.0520
 2090SOL     OW 8404   2.715   3.986   3.492 -0.3868  0.9178  0.1806
 2090SOL    HW2 8405   2.684   3.991   3.583 -0.3603  0.7693  0.1978
 2090SOL    HW3 8406   2.714   4.077   3.461  0.6438  1.1056  0.6745
 2090SOL    MW4 8407   2.711   3.999   3.500 -0.2475  0.9229  0.2484
 2091SOL     OW 8408   2.688   4.234   3.393  0.6019 -0.2486 -0.1665
 2091SOL    HW2 8409   2.769   4.274   3.425  1.1105 -1.0355 -0.4578
 2091SOL    HW3 8410   2.618   4.291   3.426  1.2959  0.6873 -0.3027
 2091SOL    MW4 8411   2.689   4.247   3.402  0.7608 -0.2294 -0.2229
 2092SOL     OW 8412   2.899   4.357   3.506  0.3825 -0.2202 -0.1419
 2092SOL    HW2 8413   2.901   4.369   3.601 -0.9538  1.5144 -0.3067
 2092SOL    HW3 8414   2.910   4.445   3.470  2.7206 -1.0590 -1.6544
 2092SOL    MW4 8415   2.901   4.370   3.514  0.5147 -0.1020 -0.3633
 2093SOL     OW 8416   3.348   4.659   3.397  0.2823  0.6173  0.2981
 2093SOL    HW2 8417   3.269   4.698   3.435  0.2722  0.1032  0.8094
 2093SOL    HW3 8418   3.330   4.658   3.303 -0.9411 -0.7913  0.5197
 2093SOL    MW4 8419   3.335   4.664   3.389  0.1194  0.3638  0.3948
 2094SOL     OW 8420   3.116   0.104   3.538 -0.3015  0.5667 -0.3105
 2094SOL    HW2 8421   3.099   0.193   3.509 -1.5375  0.0403 -1.2903
 2094SOL    HW3 8422   3.052   0.051   3.490  1.8459 -1.1268 -1.4095
 2094SOL    MW4 8423   3.105   0.109   3.528 -0.1814  0.2738 -0.5846
 2095SOL     OW 8424   3.109   0.356   3.438  0.5946 -0.2317 -0.3054
 2095SOL    HW2 8425   3.031   0.403   3.467  1.7525  0.8453  1.1221
 2095SOL    HW3 8426   3.104   0.359   3.342 -0.2163  1.3633 -0.2353
 2095SOL    MW4 8427   3.098   0.363   3.429  0.6402  0.1208 -0.1075
 2096SOL     OW 8428   3.351   0.479   3.544  0.2719 -0.3116 -0.2709
 2096SOL    HW2 8429   3.359   0.456   3.636  1.4538  1.5917  0.1371
 2096SOL    HW3 8430   3.260   0.462   3.522 -0.3172  0.3686  1.5840
 2096SOL    MW4 8431   3.340   0.474   3.553  0.3502  0.0293  0.0274
 2097SOL     OW 8432   3.349   0.739   3.436  0.0478  0.3572 -0.2470
 2097SOL    HW2 8433   3.429   0.784   3.463  0.5745 -0.5009 -0.3395
 2097SOL    HW3 8434   3.358   0.651   3.473 -1.3362  0.5578  0.6407
 2097SOL    MW4 8435   3.361   0.733   3.445 -0.0653  0.2704 -0.1423
 2098SOL     OW 8436   3.138   0.883   3.579  0.1095  0.1385 -0.0013
 2098SOL    HW2 8437   3.128   0.966   3.532  1.1811  1.0465  1.3183
 2098SOL    HW3 8438   3.209   0.838   3.532 -0.3150  0.0636 -0.5779
 2098SOL    MW4 8439   3.146   0.888   3.566  0.1950  0.2484  0.0968
 2099SOL     OW 8440   3.100   1.138   3.444  0.2918 -0.0137 -0.1300
 2099SOL    HW2 8441   3.184   1.172   3.475 -0.1985  0.5179  0.6494
 2099SOL    HW3 8442   3.108   1.137   3.349  0.9319  0.6608 -0.0872
 2099SOL    MW4 8443   3.112   1.142   3.436  0.3114  0.1454 -0.0215
 2100SOL     OW 8444   3.346   1.293   3.513  0.3396 -0.4470  0.7443
 2100SOL    HW2 8445   3.430   1.253   3.493 -0.0443 -0.9313  0.0938
 2100SOL    HW3 8446   3.344   1.374   3.462  0.5552 -0.2619  1.0288
 2100SOL    MW4 8447   3.357   1.298   3.504  0.3176 -0.4865  0.6962
 2101SOL     OW 8448   3.330   1.559   3.403 -0.3923 -0.0973 -0.3776
 2101SOL    HW2 8449   3.408   1.591   3.448 -0.2892  0.2958 -0.8359
 2101SOL    HW3 8450   3.258   1.609   3.441 -0.4885 -0.8406  0.4286
 2101SOL    MW4 8451   3.331   1.570   3.414 -0.3915 -0.1434 -0.3314
 2102SOL     OW 8452   3.122   1.692   3.495 -0.1209  0.3782 -0.0202
 2102SOL    HW2 8453   3.108   1.785   3.475 -0.5191 -0.1032 -2.0713
 2102SOL    HW3 8454   3.041   1.650   3.470  0.2117 -0.5982  0.5243
 2102SOL    MW4 8455   3.110   1.699   3.489 -0.1295  0.1858 -0.2189
 2103SOL     OW 8456   3.096   1.955   3.410 -0.5288  0.2544  0.4676
 2103SOL    HW2 8457   3.009   1.986   3.433 -0.7914 -0.3416  0.2895
 2103SOL    HW3 8458   3.095   1.950   3.314 -0.1494  0.6695  0.4365
 2103SOL    MW4 8459   3.085   1.959   3.400 -0.5136  0.2306  0.4399
 2104SOL     OW 8460   3.354   2.025   3.471  0.0455 -0.2591  0.0764
 2104SOL    HW2 8461   3.354   2.110   3.425  0.2034  0.6894  1.7801
 2104SOL    HW3 8462   3.269   1.986   3.450  0.0376  0.2384 -0.8595
 2104SOL    MW4 8463   3.343   2.031   3.462  0.0653 -0.0682  0.1779
 2105SOL     OW 8464   3.353   2.286   3.377 -0.6172 -0.0912 -0.0022
 2105SOL    HW2 8465   3.428   2.328   3.418 -0.3368  0.3569 -0.9704
 2105SOL    HW3 8466   3.277   2.320   3.425 -0.2492 -0.1203  0.6091
 2105SOL    MW4 8467   3.353   2.296   3.389 -0.5317 -0.0360 -0.0491
 2106SOL     OW 8468   3.154   2.424   3.521 -0.2763 -0.1889 -0.0665
 2106SOL    HW2 8469   3.168   2.510   3.480 -1.3737  1.2311  2.3798
 2106SOL    HW3 8470   3.071   2.393   3.484 -1.3473  1.1542  1.1575
 2106SOL    MW4 8471   3.145   2.431   3.511 -0.5620  0.1757  0.4179
 2107SOL     OW 8472   3.164   2.662   3.393 -0.0736  0.0556  0.1694
 2107SOL    HW2 8473   3.230   2.710   3.443  0.6079 -0.2563 -0.4445
 2107SOL    HW3 8474   3.082   2.709   3.411  0.2679  0.2953  1.1150
 2107SOL    MW4 8475   3.162   2.674   3.402  0.0613  0.0463  0.2129
 2108SOL     OW 8476   3.362   2.830   3.516  0.2896  0.2813 -0.4823
 2108SOL    HW2 8477   3.428   2.770   3.482 -0.4898 -0.6640 -0.3450
 2108SOL    HW3 8478   3.371   2.908   3.462  1.8935  0.3750 -0.0992
 2108SOL    MW4 8479   3.372   2.832   3.505  0.3979  0.1688 -0.4137
 2109SOL     OW 8480   3.369   3.076   3.392  0.1157 -0.2412  0.0032
 2109SOL    HW2 8481   3.445   3.112   3.436  1.0432 -2.1693  0.0490
 2109SOL    HW3 8482   3.294   3.117   3.436  1.1087  1.0801  0.4805
 2109SOL    MW4 8483   3.369   3.086   3.404  0.3688 -0.3214  0.0722
 2110SOL     OW 8484   3.115   3.155   3.481  0.4314  0.0825 -0.2127
 2110SOL    HW2 8485   3.103   3.244   3.447  0.6611  0.1582 -0.0928
 2110SOL    HW3 8486   3.046   3.104   3.438  0.7333  0.1754 -0.8123
 2110SOL    MW4 8487   3.104   3.160   3.471  0.5019  0.1049 -0.2761
 2111SOL     OW 8488   3.124   3.421   3.395 -0.0766  0.0172 -0.4875
 2111SOL    HW2 8489   3.045   3.462   3.431 -0.9660 -1.4689 -0.6838
 2111SOL    HW3 8490   3.119   3.439   3.301  0.1569  0.4815 -0.4108
 2111SOL    MW4 8491   3.113   3.429   3.387 -0.1631 -0.1180 -0.5033
 2112SOL     OW 8492   3.345   3.567   3.523 -0.1007  0.2357 -0.4881
 2112SOL    HW2 8493   3.340   3.659   3.497 -0.2716 -0.1138 -1.7156
 2112SOL    HW3 8494   3.278   3.524   3.471 -0.3864 -0.4965  0.4824
 2112SOL    MW4 8495   3.336   3.573   3.513 -0.1609  0.0930 -0.5219
 2113SOL     OW 8496   3.350   3.836   3.451  0.0684  0.1448  0.1588
 2113SOL    HW2 8497   3.420   3.901   3.454  0.1132  0.1225 -0.3743
 2113SOL    HW3 8498   3.273   3.882   3.485  0.0099  0.5964 -0.5609
 2113SOL    MW4 8499   3.349   3.850   3.456  0.0668  0.2015 -0.0064
 2114SOL     OW 8500   3.127   3.988   3.512 -0.0419  0.3437 -0.1562
 2114SOL    HW2 8501   3.115   4.005   3.606  1.5979 -0.1333  0.1560
 2114SOL    HW3 8502   3.122   4.075   3.471  1.5597  0.8348  0.6498
 2114SOL    MW4 8503   3.124   4.002   3.519  0.3858  0.3462 -0.0086
 2115SOL     OW 8504   3.113   4.227   3.390  0.0676 -0.4079  0.0323
 2115SOL    HW2 8505   3.180   4.292   3.409  0.2209 -0.4801 -0.2650
 2115SOL    HW3 8506   3.033   4.263   3.429  0.0532  0.1734 -0.5108
 2115SOL    MW4 8507   3.111   4.241   3.397  0.0858 -0.3409 -0.0787
 2116SOL     OW 8508   3.322   4.399   3.492  0.1525  0.3252 -0.0939
 2116SOL    HW2 8509   3.340   4.399   3.586  0.9362 -0.4179 -0.2409
 2116SOL    HW3 8510   3.337   4.490   3.465  0.2811  0.4623  0.4287
 2116SOL    MW4 8511   3.326   4.411   3.501  0.2728  0.2451 -0.0441
 2117SOL     OW 8512   3.811   4.647   3.425 -0.1208 -0.5685 -0.1515
 2117SOL    HW2 8513   3.742   4.712   3.436  1.0125  0.7418 -0.5177
 2117SOL    HW3 8514   3.820   4.638   3.330  0.5478 -0.3365 -0.1160
 2117SOL    MW4 8515   3.803   4.654   3.414  0.1171 -0.3650 -0.1950
 2118SOL     OW 8516   3.563   0.139   3.503  0.0301  0.0687  0.0167
 2118SOL    HW2 8517   3.558   0.220   3.453  0.7998 -0.5663 -1.1141
 2118SOL    HW3 8518   3.482   0.093   3.480  1.3923 -1.2034 -2.4183
 2118SOL    MW4 8519   3.551   0.143   3.494  0.3116 -0.1830 -0.4535
 2119SOL     OW 8520   3.592   0.388   3.405 -0.1038 -0.1477  0.0174
 2119SOL    HW2 8521   3.665   0.424   3.456  0.4637 -0.9951 -0.1849
 2119SOL    HW3 8522   3.513   0.416   3.453  0.3440  0.8603  0.1773
 2119SOL    MW4 8523   3.591   0.397   3.418  0.0300 -0.1265  0.0114
 2120SOL     OW 8524   3.781   0.550   3.529  0.1099  0.0678 -0.0829
 2120SOL    HW2 8525   3.772   0.549   3.625 -0.3108  0.2817 -0.1206
 2120SOL    HW3 8526   3.861   0.500   3.513  0.1277 -0.0617  0.3753
 2120SOL    MW4 8527   3.791   0.543   3.540  0.0570  0.0789 -0.0277
 2121SOL     OW 8528   3.812   0.797   3.433 -0.2495  0.1214  0.2598
 2121SOL    HW2 8529   3.882   0.832   3.488  1.5596 -1.5401 -0.9038
 2121SOL    HW3 8530   3.801   0.707   3.464 -1.4344  0.1729  0.0076
 2121SOL    MW4 8531   3.820   0.790   3.444 -0.1671 -0.0910  0.0727
 2122SOL     OW 8532   3.563   0.891   3.488  0.5346  0.1657  0.1892
 2122SOL    HW2 8533   3.568   0.896   3.584  1.5766  1.1999  0.0917
 2122SOL    HW3 8534   3.644   0.849   3.462 -0.1111 -0.8587 -0.2044
 2122SOL    MW4 8535   3.574   0.886   3.498  0.5865  0.1670  0.1245
 2123SOL     OW 8536   3.570   1.163   3.436 -0.3271 -0.0282  0.0209
 2123SOL    HW2 8537   3.567   1.072   3.465 -1.2876  0.4393  1.4690
 2123SOL    HW3 8538   3.570   1.158   3.341 -0.2414 -1.5531  0.0907
 2123SOL    MW4 8539   3.569   1.151   3.427 -0.4427 -0.1678  0.2213
 2124SOL     OW 8540   3.802   1.294   3.543  0.4662  0.2384  0.4384
 2124SOL    HW2 8541   3.817   1.287   3.638  0.9424 -0.7361  0.3031
 2124SOL    HW3 8542   3.725   1.239   3.527  0.5377  0.2003  0.2291
 2124SOL    MW4 8543   3.794   1.286   3.553  0.5383  0.1047  0.3932
 2125SOL     OW 8544   3.798   1.527   3.400 -0.0248 -0.5322  0.1465
 2125SOL    HW2 8545   3.871   1.583   3.429  0.4385 -0.3185 -1.3509
 2125SOL    HW3 8546   3.810   1.445   3.448  0.4160 -0.0213  0.9251
 2125SOL    MW4 8547   3.809   1.524   3.410  0.0947 -0.4365  0.0517
 2126SOL     OW 8548   3.570   1.659   3.525 -0.1421  0.3336 -0.2954
 2126SOL    HW2 8549   3.588   1.742   3.482  2.2131  0.6065  1.1344
 2126SOL    HW3 8550   3.635   1.599   3.488 -0.9277 -0.5311 -0.2871
 2126SOL    MW4 8551   3.581   1.662   3.514  0.0653  0.2555 -0.1056
 2127SOL     OW 8552   3.591   1.895   3.390 -0.0737  0.3409  0.2841
 2127SOL    HW2 8553   3.669   1.939   3.424  0.0074  0.5969 -0.2229
 2127SOL    HW3 8554   3.517   1.947   3.423  0.0767  1.8125 -1.6382
 2127SOL    MW4 8555   3.591   1.908   3.399 -0.0432  0.5689 -0.0362
 2128SOL     OW 8556   3.814   2.049   3.439  0.0149 -0.4546 -0.4081
 2128SOL    HW2 8557   3.805   2.039   3.534 -1.8721 -1.0807 -0.6256
 2128SOL    HW3 8558   3.898   2.008   3.417  1.1855  1.0476  1.1783
 2128SOL    MW4 8559   3.824   2.042   3.448 -0.0799 -0.3390 -0.2272
 2129SOL     OW 8560   3.828   2.316   3.392 -0.2118 -0.4738 -0.4466
 2129SOL    HW2 8561   3.914   2.347   3.420 -0.5405  1.1326 -1.1604
 2129SOL    HW3 8562   3.828   2.223   3.414  1.3379 -0.2834  0.4438
 2129SOL    MW4 8563   3.840   2.307   3.398 -0.0508 -0.2370 -0.4234
 2130SOL     OW 8564   3.578   2.410   3.479 -0.0128  0.0364  0.4318
 2130SOL    HW2 8565   3.569   2.493   3.433 -1.8386 -1.0537 -1.2554
 2130SOL    HW3 8566   3.662   2.375   3.449 -1.0197 -0.4925 -1.8069
 2130SOL    MW4 8567   3.588   2.416   3.469 -0.3862 -0.1771 -0.0861
 2131SOL     OW 8568   3.568   2.684   3.386  0.2510  0.1159  0.0196
 2131SOL    HW2 8569   3.658   2.706   3.412  0.0355 -0.5043  1.3255
 2131SOL    HW3 8570   3.570   2.686   3.290  0.8557  3.2661  0.0373
 2131SOL    MW4 8571   3.580   2.687   3.377  0.3026  0.4497  0.1943
 2132SOL     OW 8572   3.803   2.811   3.463 -0.5853  0.0793 -0.2606
 2132SOL    HW2 8573   3.794   2.803   3.558 -0.6431 -0.9616 -0.3460
 2132SOL    HW3 8574   3.806   2.905   3.447  0.6509  0.2499  0.8778
 2132SOL    MW4 8575   3.802   2.822   3.473 -0.4299 -0.0358 -0.1216
 2133SOL     OW 8576   3.819   3.083   3.408 -0.2758  0.2235  0.1391
 2133SOL    HW2 8577   3.899   3.126   3.438 -0.4838 -0.2075  1.3402
 2133SOL    HW3 8578   3.829   3.076   3.313  0.6572  1.0813  0.1709
 2133SOL    MW4 8579   3.831   3.088   3.400 -0.1802  0.2797  0.3018
 2134SOL     OW 8580   3.570   3.209   3.532 -0.4359 -0.1066  0.5048
 2134SOL    HW2 8581   3.571   3.303   3.517 -1.7740 -0.2312 -0.6014
 2134SOL    HW3 8582   3.656   3.178   3.503 -0.1331  0.7226  0.5207
 2134SOL    MW4 8583   3.581   3.217   3.526 -0.5724 -0.0138  0.3612
 2135SOL     OW 8584   3.576   3.480   3.408 -0.2832  0.4199 -0.0480
 2135SOL    HW2 8585   3.496   3.525   3.437 -0.7513 -0.8859  0.7492
 2135SOL    HW3 8586   3.554   3.446   3.321 -0.7055 -0.1542  0.2724
 2135SOL    MW4 8587   3.562   3.481   3.400 -0.4005  0.1717  0.0994
 2136SOL     OW 8588   3.824   3.615   3.464  0.3902  0.1235 -0.2580
 2136SOL    HW2 8589   3.815   3.625   3.559  1.1073 -0.0620 -0.1639
 2136SOL    HW3 8590   3.745   3.569   3.437  0.3821 -0.2022  0.3155
 2136SOL    MW4 8591   3.812   3.610   3.473  0.4838  0.0560 -0.1700
 2137SOL     OW 8592   3.830   3.872   3.359  0.2910 -0.2830  0.4726
 2137SOL    HW2 8593   3.745   3.900   3.392 -1.2426 -1.0009 -2.6564
 2137SOL    HW3 8594   3.838   3.781   3.388 -1.5590 -1.2735 -1.9273
 2137SOL    MW4 8595   3.820   3.863   3.367 -0.1552 -0.5083 -0.2570
 2138SOL     OW 8596   3.589   3.994   3.480 -0.0778  0.0611 -0.5794
 2138SOL    HW2 8597   3.591   4.001   3.576  2.5565  0.6254 -0.6307
 2138SOL    HW3 8598   3.584   4.084   3.449 -0.0078 -0.0666 -0.9702
 2138SOL    MW4 8599   3.589   4.007   3.489  0.2789  0.1183 -0.6380
 2139SOL     OW 8600   3.581   4.278   3.425  0.0964 -0.1353 -0.1944
 2139SOL    HW2 8601   3.507   4.330   3.459  0.9542  1.1456 -0.2349
 2139SOL    HW3 8602   3.565   4.274   3.330 -0.5051 -0.8095 -0.0678
 2139SOL    MW4 8603   3.569   4.285   3.417  0.1302 -0.0553 -0.1833
 2140SOL     OW 8604   3.841   4.382   3.491 -0.1502 -0.6465  0.3039
 2140SOL    HW2 8605   3.748   4.360   3.490 -0.3426  0.1789  0.2264
 2140SOL    HW3 8606   3.845   4.475   3.469  0.7385 -0.8304 -0.3809
 2140SOL    MW4 8607   3.829   4.391   3.488 -0.0584 -0.5617  0.2034
 2141SOL     OW 8608   4.260   4.629   3.397 -0.0677 -0.0052 -0.1364
 2141SOL    HW2 8609   4.264   4.536   3.418  0.2286  0.1005  0.2784
 2141SOL    HW3 8610   4.334   4.667   3.443 -0.9607  0.6461  0.7774
 2141SOL    MW4 8611   4.270   4.622   3.405 -0.1464  0.0949  0.0389
 2142SOL     OW 8612   4.029   0.100   3.545  0.1352 -0.7746  0.1109
 2142SOL    HW2 8613   4.105   0.060   3.503 -0.7229 -2.0856 -0.2239
 2142SOL    HW3 8614   3.954   0.054   3.507 -0.8055  0.2599  0.7010
 2142SOL    MW4 8615   4.029   0.089   3.534 -0.1025 -0.8111  0.1447
 2143SOL     OW 8616   3.991   0.368   3.479 -0.0682  0.4463  0.4114
 2143SOL    HW2 8617   3.986   0.276   3.504  1.4591 -0.2535 -1.7035
 2143SOL    HW3 8618   4.003   0.367   3.384  0.7144  2.8101  0.4434
 2143SOL    MW4 8619   3.992   0.356   3.470  0.2365  0.6658  0.1364
 2144SOL     OW 8620   4.249   0.506   3.518 -0.2784 -0.1186 -0.1194
 2144SOL    HW2 8621   4.238   0.597   3.490  0.8854 -0.0428 -0.3304
 2144SOL    HW3 8622   4.169   0.463   3.487 -0.8757  0.8364  0.0437
 2144SOL    MW4 8623   4.237   0.513   3.510 -0.2036  0.0173 -0.1259
 2145SOL     OW 8624   4.226   0.803   3.444 -0.2560  0.6377  0.0900
 2145SOL    HW2 8625   4.314   0.836   3.457  0.0408 -0.0478 -0.1349
 2145SOL    HW3 8626   4.215   0.800   3.349  0.2125 -1.1596  0.0769
 2145SOL    MW4 8627   4.236   0.807   3.433 -0.1545  0.3101  0.0584
 2146SOL     OW 8628   4.025   0.916   3.595  0.2320  0.0144  0.1165
 2146SOL    HW2 8629   4.011   0.998   3.548  0.2100 -0.0546  0.0007
 2146SOL    HW3 8630   4.097   0.874   3.549  0.5719  0.1968  0.4840
 2146SOL    MW4 8631   4.033   0.921   3.583  0.2732  0.0294  0.1497
 2147SOL     OW 8632   4.032   1.146   3.445  0.0762 -0.3881 -0.7863
 2147SOL    HW2 8633   4.102   1.205   3.474 -0.2766 -1.6092  2.8230
 2147SOL    HW3 8634   3.951   1.190   3.471 -0.2307 -1.8545  0.8475
 2147SOL    MW4 8635   4.030   1.160   3.452 -0.0114 -0.7427 -0.0947
 2148SOL     OW 8636   4.246   1.283   3.569  0.1000 -0.4419 -0.4377
 2148SOL    HW2 8637   4.247   1.369   3.528  1.0263 -0.0749  0.3150
 2148SOL    HW3 8638   4.316   1.235   3.524 -1.2904 -1.2620 -1.7739
 2148SOL    MW4 8639   4.256   1.288   3.558  0.0386 -0.5015 -0.5147
 2149SOL     OW 8640   4.266   1.525   3.439  0.3372 -0.0338  0.3035
 2149SOL    HW2 8641   4.183   1.572   3.447  0.1450 -0.6270  1.9164
 2149SOL    HW3 8642   4.281   1.518   3.345 -0.5269  1.6890  0.0233
 2149SOL    MW4 8643   4.257   1.530   3.428  0.1979  0.1153  0.4795
 2150SOL     OW 8644   4.035   1.657   3.482 -0.6110 -0.2531 -0.0146
 2150SOL    HW2 8645   4.025   1.656   3.578 -1.4123  1.8291 -0.0482
 2150SOL    HW3 8646   4.044   1.750   3.460 -0.5718 -0.7056 -1.9848
 2150SOL    MW4 8647   4.035   1.669   3.492 -0.7119 -0.0383 -0.2792
 2151SOL     OW 8648   4.054   1.917   3.389  0.3873  0.0168 -0.1461
 2151SOL    HW2 8649   4.129   1.975   3.402  0.9102 -0.9221  1.0651
 2151SOL    HW3 8650   4.053   1.900   3.295 -0.1041  2.4333 -0.6105
 2151SOL    MW4 8651   4.064   1.923   3.378  0.3920  0.2118 -0.0474
 2152SOL     OW 8652   4.276   2.074   3.490  0.7965  0.2576  0.2416
 2152SOL    HW2 8653   4.291   2.157   3.444  0.9708  0.3217  0.4093
 2152SOL    HW3 8654   4.342   2.015   3.455 -0.3534 -0.2897 -1.0391
 2152SOL    MW4 8655   4.287   2.077   3.479  0.6680  0.1938  0.0949
 2153SOL     OW 8656   4.296   2.344   3.380  0.0207 -0.4840 -0.4303
 2153SOL    HW2 8657   4.209   2.369   3.410  0.3616  1.1008 -0.7263
 2153SOL    HW3 8658   4.285   2.327   3.287 -0.0726 -0.8133 -0.3613
 2153SOL    MW4 8659   4.283   2.345   3.372  0.0539 -0.3185 -0.4601
 2154SOL     OW 8660   4.065   2.428   3.506  0.0897 -0.1294  0.1156
 2154SOL    HW2 8661   4.072   2.426   3.601  0.7037  0.7147  0.0952
 2154SOL    HW3 8662   4.091   2.517   3.482 -0.2280 -0.2862 -0.8283
 2154SOL    MW4 8663   4.069   2.440   3.515  0.1287 -0.0386 -0.0117
 2155SOL     OW 8664   4.077   2.698   3.406 -0.1143  0.4273  0.0445
 2155SOL    HW2 8665   4.144   2.738   3.461 -0.1117 -2.0583  1.9042
 2155SOL    HW3 8666   3.997   2.745   3.428 -0.1571 -0.6913  2.3895
 2155SOL    MW4 8667   4.075   2.710   3.416 -0.1192 -0.0482  0.5991
 2156SOL     OW 8668   4.293   2.822   3.519 -0.1785  0.4447 -0.5280
 2156SOL    HW2 8669   4.304   2.821   3.614  0.7634 -0.2597 -0.6398
 2156SOL    HW3 8670   4.380   2.801   3.484 -0.6667  0.0688 -1.5367
 2156SOL    MW4 8671   4.306   2.819   3.527 -0.1183  0.3021 -0.6759
 2157SOL     OW 8672   4.270   3.087   3.408 -0.3357  0.0611  0.0177
 2157SOL    HW2 8673   4.275   2.996   3.436 -2.5065  0.3960  1.6223
 2157SOL    HW3 8674   4.282   3.084   3.313  0.4116 -1.8037  0.1584
 2157SOL    MW4 8675   4.272   3.074   3.399 -0.5236 -0.1407  0.2480
 2158SOL     OW 8676   4.039   3.204   3.507 -0.2928 -0.2748 -0.6640
 2158SOL    HW2 8677   4.038   3.290   3.465 -0.7453  0.0497  0.0114
 2158SOL    HW3 8678   4.116   3.160   3.469  0.8876  1.0124  0.1761
 2158SOL    MW4 8679   4.049   3.210   3.496 -0.1965 -0.0622 -0.4642
 2159SOL     OW 8680   4.038   3.448   3.384 -0.8132 -0.4395  0.6648
 2159SOL    HW2 8681   4.107   3.503   3.421 -1.5865  0.5661  0.6243
 2159SOL    HW3 8682   3.956   3.485   3.417 -1.4246 -0.5705 -0.6559
 2159SOL    MW4 8683   4.036   3.460   3.393 -0.9961 -0.3238  0.4849
 2160SOL     OW 8684   4.236   3.601   3.496 -0.1973  0.7503  0.0436
 2160SOL    HW2 8685   4.228   3.612   3.590 -3.5498  0.0768 -0.0956
 2160SOL    HW3 8686   4.232   3.690   3.461 -0.6921  0.8875  0.4424
 2160SOL    MW4 8687   4.234   3.614   3.504 -0.7043  0.6797  0.0777
 2161SOL     OW 8688   4.233   3.851   3.377 -0.0185  0.2081 -0.1894
 2161SOL    HW2 8689   4.320   3.887   3.391  0.3122 -0.8352  0.4574
 2161SOL    HW3 8690   4.216   3.863   3.283  0.2546  1.6473 -0.0676
 2161SOL    MW4 8691   4.242   3.857   3.366  0.0610  0.2606 -0.0877
 2162SOL     OW 8692   4.035   4.006   3.492 -0.1448  0.0826 -0.1137
 2162SOL    HW2 8693   4.111   3.954   3.468  0.9214  1.6600 -0.2818
 2162SOL    HW3 8694   3.961   3.961   3.451  0.8152 -0.9654 -0.7260
 2162SOL    MW4 8695   4.035   3.994   3.483  0.1230  0.1523 -0.2167
 2163SOL     OW 8696   4.047   4.249   3.360 -0.2311  0.3688 -0.5529
 2163SOL    HW2 8697   4.050   4.158   3.391 -0.5021  0.1572 -1.1242
 2163SOL    HW3 8698   3.975   4.289   3.409  0.9688  0.7636  0.9429
 2163SOL    MW4 8699   4.038   4.242   3.370 -0.1082  0.3924 -0.4311
 2164SOL     OW 8700   4.286   4.350   3.467 -0.4024 -0.0722 -0.1816
 2164SOL    HW2 8701   4.267   4.375   3.557 -1.5275 -0.2090 -0.3807
 2164SOL    HW3 8702   4.207   4.307   3.436 -0.4840  1.0679 -1.6369
 2164SOL    MW4 8703   4.273   4.348   3.475 -0.5617  0.0606 -0.4001
 2165SOL     OW 8704   0.237   4.643   3.910  0.1497  0.0091  0.1084
 2165SOL    HW2 8705   0.216   4.643   4.003  1.4199 -1.3424  0.4126
 2165SOL    HW3 8706   0.158   4.676   3.867 -0.6171  0.1658  1.6251
 2165SOL    MW4 8707   0.224   4.647   3.916  0.2161 -0.1483  0.3488
 2166SOL     OW 8708   4.485   0.061   3.795  0.0861 -0.6824  0.7046
 2166SOL    HW2 8709   4.476   0.149   3.830 -2.2620 -0.7648  0.3747
 2166SOL    HW3 8710   4.466   0.070   3.702  0.4709 -1.4262  0.5485
 2166SOL    MW4 8711   4.481   0.074   3.787 -0.1731 -0.7914  0.6406
 2167SOL     OW 8712   4.465   0.319   3.896  0.3452 -0.1676  0.2992
 2167SOL    HW2 8713   4.391   0.368   3.859  0.3185 -1.1706 -1.0247
 2167SOL    HW3 8714   4.542   0.369   3.870  0.3339 -0.9371 -1.2537
 2167SOL    MW4 8715   4.466   0.332   3.888  0.3395 -0.4014 -0.0806
 2168SOL     OW 8716   0.207   0.497   3.777  0.0283  0.1769  0.1554
 2168SOL    HW2 8717   0.216   0.589   3.801 -1.1628  0.6819 -1.2583
 2168SOL    HW3 8718   0.215   0.497   3.681 -1.3801 -0.9957  0.0194
 2168SOL    MW4 8719   0.209   0.509   3.767 -0.3147  0.0888 -0.0489
 2169SOL     OW 8720   0.231   0.769   3.868 -0.3611  0.5101  0.2931
 2169SOL    HW2 8721   0.237   0.756   3.963 -1.3381 -0.4582  0.2257
 2169SOL    HW3 8722   0.149   0.818   3.855  0.0399  1.1118 -0.0124
 2169SOL    MW4 8723   0.221   0.774   3.879 -0.4371  0.4617  0.2439
 2170SOL     OW 8724   0.002   0.921   3.798 -0.0884  0.0145  0.0503
 2170SOL    HW2 8725  -0.073   0.887   3.847 -0.0784 -0.2367 -0.1048
 2170SOL    HW3 8726   0.004   1.014   3.818 -1.0447  0.2045 -0.7185
 2170SOL    MW4 8727  -0.008   0.929   3.807 -0.2132  0.0064 -0.0718
 2171SOL     OW 8728   4.480   1.187   3.885  0.0589  0.0832 -0.0749
 2171SOL    HW2 8729   4.409   1.228   3.836 -0.1931 -0.3682 -0.0884
 2171SOL    HW3 8730   4.559   1.234   3.856  0.0789 -0.9974 -1.8178
 2171SOL    MW4 8731   4.481   1.199   3.875  0.0281 -0.1189 -0.3068
 2172SOL     OW 8732   0.222   1.294   3.804 -0.3907 -0.2630 -0.2951
 2172SOL    HW2 8733   0.227   1.383   3.837 -1.5704 -0.3775  0.2130
 2172SOL    HW3 8734   0.206   1.304   3.710 -0.8921  0.0544 -0.1738
 2172SOL    MW4 8735   0.221   1.307   3.796 -0.6125 -0.2363 -0.2122
 2173SOL     OW 8736   0.232   1.555   3.907 -0.0624 -0.2310 -0.0442
 2173SOL    HW2 8737   0.213   1.538   3.999  1.0141  0.6218  0.3325
 2173SOL    HW3 8738   0.149   1.587   3.871  0.2408  2.1408  1.2832
 2173SOL    MW4 8739   0.218   1.557   3.914  0.1196  0.1944  0.1805
 2174SOL     OW 8740   4.463   1.639   3.796 -0.0357 -0.0304 -0.2472
 2174SOL    HW2 8741   4.469   1.730   3.826  1.1840 -0.1342 -0.1441
 2174SOL    HW3 8742   4.478   1.644   3.702  0.0290 -0.1307 -0.2416
 2174SOL    MW4 8743   4.466   1.651   3.787  0.1340 -0.0573 -0.2329
 2175SOL     OW 8744   4.472   1.907   3.874  0.2436  0.0346  0.1907
 2175SOL    HW2 8745   4.457   1.908   3.969 -1.7404  1.9002 -0.1216
 2175SOL    HW3 8746   4.392   1.943   3.836 -0.0162 -3.0196 -2.3759
 2175SOL    MW4 8747   4.460   1.912   3.882 -0.0525 -0.1222 -0.1893
 2176SOL     OW 8748   0.213   2.049   3.772  1.1734 -0.2659  0.2466
 2176SOL    HW2 8749   0.223   2.134   3.815  2.1924 -0.5970  0.6634
 2176SOL    HW3 8750   0.137   2.010   3.815 -1.5191  1.8647 -2.3118
 2176SOL    MW4 8751   0.204   2.055   3.783  0.9526 -0.0286 -0.0360
 2177SOL     OW 8752   0.236   2.327   3.889  0.1441  0.2643  0.1802
 2177SOL    HW2 8753   0.232   2.335   3.984  1.5332  1.1078  0.1910
 2177SOL    HW3 8754   0.159   2.373   3.857  0.4919  1.3333  0.8458
 2177SOL    MW4 8755   0.226   2.334   3.897  0.3733  0.5169  0.2692
 2178SOL     OW 8756   0.001   2.444   3.750  0.3555 -0.3987 -0.0134
 2178SOL    HW2 8757  -0.076   2.392   3.775 -1.2556  1.9518  0.0729
 2178SOL    HW3 8758  -0.005   2.522   3.804  2.8745 -0.2137  0.0167
 2178SOL    MW4 8759  -0.010   2.447   3.761  0.4753 -0.0641  0.0019
 2179SOL     OW 8760   4.490   2.654   3.926  0.1841 -0.7479  0.1472
 2179SOL    HW2 8761   4.563   2.706   3.893  0.9586 -1.6464  0.4121
 2179SOL    HW3 8762   4.478   2.683   4.016 -0.0841 -0.2846 -0.0360
 2179SOL    MW4 8763   4.498   2.664   3.933  0.2508 -0.8059  0.1578
 2180SOL     OW 8764   0.217   2.786   3.818 -0.0613 -0.2222 -0.3385
 2180SOL    HW2 8765   0.297   2.746   3.851  0.5431  2.3267  1.4035
 2180SOL    HW3 8766   0.240   2.816   3.730  0.7243 -0.0206 -0.0667
 2180SOL    MW4 8767   0.230   2.784   3.811  0.1221  0.1407 -0.0727
 2181SOL     OW 8768   0.210   3.045   3.868 -0.5607 -0.1687 -0.3793
 2181SOL    HW2 8769   0.207   3.070   3.960  0.1921 -0.2463 -0.3293
 2181SOL    HW3 8770   0.210   2.949   3.868 -0.9282 -0.1689 -0.4735
 2181SOL    MW4 8771   0.210   3.036   3.880 -0.5099 -0.1788 -0.3853
 2182SOL     OW 8772   4.488   3.152   3.759 -0.4844  0.1837 -0.2704
 2182SOL    HW2 8773   4.577   3.125   3.777 -0.7859 -0.6543 -0.0361
 2182SOL    HW3 8774   4.485   3.167   3.665 -0.1352  0.0982 -0.2922
 2182SOL    MW4 8775   4.499   3.151   3.749 -0.4781  0.0618 -0.2420
 2183SOL     OW 8776   4.464   3.407   3.885 -0.3730 -0.1131  0.1181
 2183SOL    HW2 8777   4.540   3.458   3.856  0.7638 -0.9728  1.4848
 2183SOL    HW3 8778   4.462   3.332   3.826  0.6537 -0.7704  0.9005
 2183SOL    MW4 8779   4.474   3.404   3.874 -0.0877 -0.3130  0.4017
 2184SOL     OW 8780   0.214   3.536   3.764 -0.4769 -0.1782 -0.3684
 2184SOL    HW2 8781   0.293   3.502   3.806  0.2999 -0.7513 -2.2589
 2184SOL    HW3 8782   0.210   3.628   3.792  0.9841 -0.0796 -0.4467
 2184SOL    MW4 8783   0.224   3.544   3.774 -0.1817 -0.2408 -0.6280
 2185SOL     OW 8784   0.197   3.803   3.835 -0.1271  0.3591  0.7631
 2185SOL    HW2 8785   0.185   3.775   3.926  0.4878 -1.0431  0.4246
 2185SOL    HW3 8786   0.285   3.840   3.833 -0.3486  0.8942  0.8582
 2185SOL    MW4 8787   0.207   3.804   3.847 -0.0752  0.2446  0.7308
 2186SOL     OW 8788   0.003   3.973   3.721  0.0882  0.0338 -0.2943
 2186SOL    HW2 8789  -0.064   3.929   3.775  0.2413  0.8517  0.5728
 2186SOL    HW3 8790   0.083   3.923   3.737 -0.3264 -1.0206 -1.4246
 2186SOL    MW4 8791   0.005   3.961   3.730  0.0534  0.0026 -0.3288
 2187SOL     OW 8792   4.474   4.220   3.856 -0.3931 -0.3027 -0.1177
 2187SOL    HW2 8793   4.551   4.272   3.833  0.5618 -0.4441  2.6162
 2187SOL    HW3 8794   4.473   4.148   3.793  0.3001  1.0576 -1.7023
 2187SOL    MW4 8795   4.484   4.217   3.845 -0.1750 -0.1416  0.0339
 2188SOL     OW 8796   0.205   4.378   3.801 -0.0402 -0.1551 -0.1929
 2188SOL    HW2 8797   0.274   4.320   3.835  0.4281 -0.9139 -2.3931
 2188SOL    HW3 8798   0.213   4.457   3.854 -0.6510 -2.0467  2.8413
 2188SOL    MW4 8799   0.215   4.381   3.813 -0.0590 -0.5050 -0.0827
 2189SOL     OW 8800   0.672   4.631   3.913  0.2016  0.1131 -0.2031
 2189SOL    HW2 8801   0.677   4.550   3.862  0.1837 -0.4024  0.6041
 2189SOL    HW3 8802   0.594   4.675   3.881 -0.8171 -1.0539  0.5925
 2189SOL    MW4 8803   0.663   4.626   3.902  0.0648 -0.1087  0.0086
 2190SOL     OW 8804   0.472   0.088   3.789  0.3691 -0.2138  0.2704
 2190SOL    HW2 8805   0.466   0.179   3.818 -2.2733  0.2680 -1.6089
 2190SOL    HW3 8806   0.393   0.046   3.822  0.8972 -1.4988 -0.0318
 2190SOL    MW4 8807   0.461   0.094   3.797  0.0901 -0.3197 -0.0174
 2191SOL     OW 8808   0.434   0.353   3.847 -0.0904 -0.0254 -0.2295
 2191SOL    HW2 8809   0.512   0.391   3.808 -0.4289 -0.0029 -0.9021
 2191SOL    HW3 8810   0.363   0.412   3.821 -0.1750  0.6006  1.3582
 2191SOL    MW4 8811   0.435   0.366   3.838 -0.1462  0.0601 -0.1087
 2192SOL     OW 8812   0.660   0.505   3.776  0.3198  0.5573  0.3620
 2192SOL    HW2 8813   0.731   0.452   3.813 -0.0715  0.3187  0.7794
 2192SOL    HW3 8814   0.665   0.587   3.825  0.9720  0.9355 -0.3343
 2192SOL    MW4 8815   0.670   0.509   3.788  0.3542  0.5757  0.3252
 2193SOL     OW 8816   0.666   0.758   3.888 -0.1528  0.5180  0.2570
 2193SOL    HW2 8817   0.751   0.799   3.876  0.2119 -0.7798 -1.9255
 2193SOL    HW3 8818   0.603   0.823   3.857  0.1839  0.8004  0.1645
 2193SOL    MW4 8819   0.669   0.772   3.882 -0.0603  0.3840 -0.0432
 2194SOL     OW 8820   0.456   0.921   3.792  0.0736 -0.0005  0.2470
 2194SOL    HW2 8821   0.463   1.010   3.828  1.4013 -0.6780  1.6965
 2194SOL    HW3 8822   0.378   0.885   3.834  0.1860  0.0952  0.5463
 2194SOL    MW4 8823   0.447   0.928   3.803  0.2636 -0.0772  0.4778
 2195SOL     OW 8824   0.455   1.162   3.917 -0.3933 -0.1355  0.2926
 2195SOL    HW2 8825   0.509   1.228   3.874 -0.3446  1.9121  3.3722
 2195SOL    HW3 8826   0.365   1.183   3.890 -0.5311  2.1634  2.4541
 2195SOL    MW4 8827   0.450   1.173   3.908 -0.4050  0.4381  0.9842
 2196SOL     OW 8828   0.655   1.330   3.789 -0.0427  0.1233 -0.1318
 2196SOL    HW2 8829   0.735   1.287   3.819  0.5310  0.5936 -0.9502
 2196SOL    HW3 8830   0.650   1.308   3.696  0.5423  2.2248 -0.6935
 2196SOL    MW4 8831   0.665   1.322   3.781  0.1101  0.4625 -0.3140
 2197SOL     OW 8832   0.674   1.593   3.874  0.1358 -0.3325  0.1150
 2197SOL    HW2 8833   0.738   1.641   3.821  0.5127 -0.6469  0.2810
 2197SOL    HW3 8834   0.683   1.502   3.845 -0.2187 -0.3816  0.1590
 2197SOL    MW4 8835   0.683   1.587   3.863  0.1388 -0.3805  0.1423
 2198SOL     OW 8836   0.434   1.672   3.762 -0.0147 -0.2730 -0.3896
 2198SOL    HW2 8837   0.512   1.634   3.801 -0.0724  0.5323  0.5199
 2198SOL    HW3 8838   0.362   1.620   3.798  0.0854 -0.9170 -1.1097
 2198SOL    MW4 8839   0.434   1.660   3.772 -0.0092 -0.2518 -0.3645
 2199SOL     OW 8840   0.436   1.910   3.898  0.0067  0.3598  0.0539
 2199SOL    HW2 8841   0.435   1.825   3.854 -1.6656 -0.0962  0.9330
 2199SOL    HW3 8842   0.356   1.953   3.869  0.5436  1.4028  0.0895
 2199SOL    MW4 8843   0.426   1.905   3.888 -0.1431  0.4373  0.1745
 2200SOL     OW 8844   0.682   2.032   3.801 -0.2364 -0.2104 -0.1920
 2200SOL    HW2 8845   0.684   2.122   3.835 -0.9062  0.5738 -2.1050
 2200SOL    HW3 8846   0.595   1.999   3.825  0.5458 -0.8856  1.7783
 2200SOL    MW4 8847   0.671   2.040   3.808 -0.2216 -0.1962 -0.1845
 2201SOL     OW 8848   0.718   2.288   3.882  0.5404 -0.1453 -0.2097
 2201SOL    HW2 8849   0.789   2.348   3.859  0.7966  0.1168  1.2199
 2201SOL    HW3 8850   0.638   2.334   3.857  0.7460  0.7176  0.6969
 2201SOL    MW4 8851   0.717   2.302   3.875  0.6014  0.0033  0.0985
 2202SOL     OW 8852   0.481   2.417   3.803  0.1259 -0.0420 -0.0858
 2202SOL    HW2 8853   0.397   2.375   3.817 -0.6363  1.1771 -0.9038
 2202SOL    HW3 8854   0.487   2.428   3.709  1.1126  0.0545 -0.0157
 2202SOL    MW4 8855   0.471   2.413   3.793  0.1555  0.1316 -0.1845
 2203SOL     OW 8856   0.460   2.672   3.871  0.5092  0.1024  0.1658
 2203SOL    HW2 8857   0.541   2.705   3.833 -0.7016  1.3254 -1.4394
 2203SOL    HW3 8858   0.461   2.578   3.854  0.8343  0.3680 -1.2848
 2203SOL    MW4 8859   0.471   2.664   3.864  0.3924  0.2990 -0.2372
 2204SOL     OW 8860   0.677   2.823   3.774  0.4041 -0.0731 -0.3083
 2204SOL    HW2 8861   0.767   2.793   3.792  0.3112 -0.4195 -0.4178
 2204SOL    HW3 8862   0.684   2.871   3.691  0.4836 -0.1233 -0.3312
 2204SOL    MW4 8863   0.690   2.826   3.765  0.4023 -0.1254 -0.3262
 2205SOL     OW 8864   0.671   3.085   3.865  0.3392 -0.0008 -0.2411
 2205SOL    HW2 8865   0.689   3.066   3.957  0.7942  0.7181 -0.1860
 2205SOL    HW3 8866   0.673   2.999   3.822  3.0311 -0.0238 -0.1021
 2205SOL    MW4 8867   0.673   3.071   3.872  0.7544  0.0908 -0.2158
 2206SOL     OW 8868   0.431   3.221   3.841  0.3133  0.4700  0.0785
 2206SOL    HW2 8869   0.515   3.175   3.844 -0.4202 -0.8832  0.2062
 2206SOL    HW3 8870   0.367   3.156   3.869 -0.6375  1.8415  1.1384
 2206SOL    MW4 8871   0.434   3.206   3.845  0.0911  0.4723  0.2351
 2207SOL     OW 8872   0.433   3.481   3.902  0.3940  0.3400 -0.0017
 2207SOL    HW2 8873   0.517   3.511   3.866  0.4225  1.0718  0.6574
 2207SOL    HW3 8874   0.430   3.388   3.881  0.8776  0.5434 -0.9866
 2207SOL    MW4 8875   0.444   3.472   3.895  0.4616  0.4635 -0.0446
 2208SOL     OW 8876   0.685   3.576   3.793 -0.4468 -0.3310  0.2196
 2208SOL    HW2 8877   0.692   3.670   3.806 -1.3612  0.1165 -2.1744
 2208SOL    HW3 8878   0.678   3.565   3.698  3.3997 -3.0724  0.0912
 2208SOL    MW4 8879   0.685   3.587   3.782 -0.0600 -0.6337 -0.1132
 2209SOL     OW 8880   0.692   3.857   3.855  0.5004 -0.3440  0.0469
 2209SOL    HW2 8881   0.697   3.852   3.951  1.6033 -0.9030 -0.0329
 2209SOL    HW3 8882   0.761   3.918   3.830 -1.0985  1.4072 -0.2780
 2209SOL    MW4 8883   0.701   3.864   3.864  0.4350 -0.1869 -0.0064
 2210SOL     OW 8884   0.434   3.978   3.784 -0.6412 -0.0382 -0.0634
 2210SOL    HW2 8885   0.512   3.940   3.824 -0.0456  1.6937  0.4596
 2210SOL    HW3 8886   0.457   3.988   3.691 -0.4316 -0.0228 -0.0105
 2210SOL    MW4 8887   0.447   3.975   3.777 -0.5350  0.1924  0.0122
 2211SOL     OW 8888   0.431   4.229   3.890  0.3768 -0.7126  0.0937
 2211SOL    HW2 8889   0.517   4.266   3.872  0.0934 -0.9299 -1.8403
 2211SOL    HW3 8890   0.434   4.141   3.853 -0.4488 -0.9549  0.5955
 2211SOL    MW4 8891   0.442   4.222   3.882  0.2305 -0.7730 -0.0951
 2212SOL     OW 8892   0.663   4.370   3.817  0.2646  0.1843  0.2245
 2212SOL    HW2 8893   0.752   4.345   3.844  0.3236  1.8334  1.6472
 2212SOL    HW3 8894   0.666   4.371   3.722  1.7165 -0.0023  0.2492
 2212SOL    MW4 8895   0.675   4.366   3.808  0.4640  0.3777  0.4156
 2213SOL     OW 8896   1.134   0.015   3.860  0.5759 -0.0117  0.2284
 2213SOL    HW2 8897   1.206   0.052   3.809  1.5469 -0.2916  1.3738
 2213SOL    HW3 8898   1.135  -0.079   3.840 -0.3646  0.2017 -0.8330
 2213SOL    MW4 8899   1.143   0.007   3.851  0.5797 -0.0205  0.2394
 2214SOL     OW 8900   0.884   0.098   3.750  1.2081 -0.1508 -0.1835
 2214SOL    HW2 8901   0.967   0.062   3.781  1.3364 -0.8712 -1.3352
 2214SOL    HW3 8902   0.818   0.050   3.800  1.4828  0.8087  1.1339
 2214SOL    MW4 8903   0.886   0.087   3.761  1.2612 -0.1193 -0.1616
 2215SOL     OW 8904   0.879   0.340   3.884  0.1713 -0.2697 -0.0005
 2215SOL    HW2 8905   0.896   0.327   3.977 -2.1678 -1.3088  0.3218
 2215SOL    HW3 8906   0.875   0.252   3.847 -1.2332  0.0469 -0.6303
 2215SOL    MW4 8907   0.881   0.327   3.892 -0.3226 -0.3650 -0.0410
 2216SOL     OW 8908   1.063   0.509   3.759 -0.0150  0.6193 -0.2069
 2216SOL    HW2 8909   1.147   0.469   3.779 -0.0974  0.1335 -0.8153
 2216SOL    HW3 8910   1.001   0.463   3.816  0.1827  1.2250  0.5007
 2216SOL    MW4 8911   1.066   0.498   3.769  0.0001  0.6351 -0.1938
 2217SOL     OW 8912   1.095   0.732   4.147 -0.2302 -0.3262  0.0563
 2217SOL    HW2 8913   1.103   0.642   4.179 -0.1603 -0.2889  0.1438
 2217SOL    HW3 8914   1.170   0.778   4.185  0.8215 -0.6854 -1.5226
 2217SOL    MW4 8915   1.106   0.726   4.156 -0.0824 -0.3687 -0.1402
 2218SOL     OW 8916   0.883   0.915   3.793  0.2858 -0.2389  0.1512
 2218SOL    HW2 8917   0.961   0.860   3.795 -0.5774 -1.5042 -0.1702
 2218SOL    HW3 8918   0.865   0.927   3.700  1.1584  1.6127  0.2025
 2218SOL    MW4 8919   0.891   0.909   3.781  0.2871 -0.1615  0.1154
 2219SOL     OW 8920   0.886   1.194   3.869  0.0288  0.3004 -0.3230
 2219SOL    HW2 8921   0.859   1.190   3.961 -0.4690  0.4122 -0.4604
 2219SOL    HW3 8922   0.904   1.103   3.846 -0.2788  0.2137 -0.2344
 2219SOL    MW4 8923   0.885   1.181   3.878 -0.0775  0.3036 -0.3295
 2220SOL     OW 8924   1.127   1.283   3.790  0.0714  0.0140 -0.1328
 2220SOL    HW2 8925   1.122   1.370   3.830  1.5755 -0.9817  2.3073
 2220SOL    HW3 8926   1.049   1.237   3.822  1.3353 -0.8216  1.8422
 2220SOL    MW4 8927   1.116   1.288   3.799  0.4367 -0.2276  0.4499
 2221SOL     OW 8928   1.097   1.559   3.844 -0.0049 -0.1859  0.0927
 2221SOL    HW2 8929   1.086   1.571   3.938 -0.3321  0.1568  0.0135
 2221SOL    HW3 8930   1.177   1.606   3.822  1.3564 -2.2435  0.5893
 2221SOL    MW4 8931   1.106   1.567   3.853  0.1315 -0.4122  0.1478
 2222SOL     OW 8932   0.890   1.708   3.737  0.0256  0.1491  0.2260
 2222SOL    HW2 8933   0.955   1.642   3.762  1.3307  1.3711  0.1909
 2222SOL    HW3 8934   0.873   1.691   3.645 -0.3590 -0.7283  0.4603
 2222SOL    MW4 8935   0.897   1.697   3.728  0.1470  0.1944  0.2522
 2223SOL     OW 8936   0.917   1.941   3.893  0.2682 -0.3709  0.1787
 2223SOL    HW2 8937   0.914   1.862   3.839  0.2113 -0.5387  0.4241
 2223SOL    HW3 8938   0.835   1.986   3.875  0.0937 -0.6039  0.3904
 2223SOL    MW4 8939   0.906   1.936   3.884  0.2376 -0.4238  0.2391
 2224SOL     OW 8940   1.128   2.060   3.762 -0.0124  0.1835  0.0884
 2224SOL    HW2 8941   1.047   2.020   3.795  1.2848 -1.7814  1.0123
 2224SOL    HW3 8942   1.141   2.018   3.677  0.3445  0.0476  0.2093
 2224SOL    MW4 8943   1.119   2.049   3.755  0.2058 -0.0937  0.2263
 2225SOL     OW 8944   1.182   2.327   3.853  0.2169  0.0942 -0.3874
 2225SOL    HW2 8945   1.197   2.314   3.946 -0.3452  0.4947 -0.2347
 2225SOL    HW3 8946   1.151   2.242   3.821 -2.2643  0.6666  0.3558
 2225SOL    MW4 8947   1.180   2.314   3.861 -0.1847  0.2227 -0.2692
 2226SOL     OW 8948   0.944   2.454   3.796  0.3291 -0.6787  0.4437
 2226SOL    HW2 8949   0.945   2.549   3.811  0.1743 -0.4334 -0.9639
 2226SOL    HW3 8950   1.033   2.426   3.816 -0.0136 -0.4716  2.2623
 2226SOL    MW4 8951   0.956   2.463   3.800  0.2635 -0.6192  0.4983
 2227SOL     OW 8952   0.928   2.723   3.843  0.6228 -0.3820  0.2628
 2227SOL    HW2 8953   0.935   2.731   3.938  1.1197  0.4849  0.1592
 2227SOL    HW3 8954   1.013   2.754   3.810  0.0349  0.4293 -0.5128
 2227SOL    MW4 8955   0.940   2.728   3.851  0.6108 -0.1605  0.1466
 2228SOL     OW 8956   1.196   2.807   3.788 -0.2295  0.3558 -0.1261
 2228SOL    HW2 8957   1.280   2.774   3.818 -1.2735 -0.3897  2.0566
 2228SOL    HW3 8958   1.186   2.892   3.832 -0.4183  0.6667 -0.7559
 2228SOL    MW4 8959   1.206   2.814   3.798 -0.3921  0.2983  0.0787
 2229SOL     OW 8960   1.161   3.072   3.889  0.3146  0.3006  0.5193
 2229SOL    HW2 8961   1.230   3.113   3.838 -0.5922  1.9279  0.5583
 2229SOL    HW3 8962   1.080   3.103   3.849 -0.4040 -0.7714  1.1014
 2229SOL    MW4 8963   1.159   3.082   3.877  0.1000  0.3738  0.6015
 2230SOL     OW 8964   0.922   3.177   3.787 -0.1538  0.2342 -0.2324
 2230SOL    HW2 8965   0.838   3.148   3.822  0.5232 -1.6957 -0.1541
 2230SOL    HW3 8966   0.915   3.162   3.692  1.4281 -3.5491  0.1660
 2230SOL    MW4 8967   0.910   3.171   3.779  0.1443 -0.5198 -0.1698
 2231SOL     OW 8968   0.916   3.429   3.917  0.0853  0.1847  1.0411
 2231SOL    HW2 8969   0.935   3.349   3.868  1.1612 -0.2109  2.0925
 2231SOL    HW3 8970   0.835   3.462   3.877 -0.9258 -1.9444  1.2254
 2231SOL    MW4 8971   0.908   3.423   3.905  0.0939 -0.1483  1.2043
 2232SOL     OW 8972   1.120   3.598   3.828  0.2574 -0.1557  0.0982
 2232SOL    HW2 8973   1.111   3.689   3.857 -0.5411  0.0012 -0.6273
 2232SOL    HW3 8974   1.049   3.552   3.872  0.8257 -0.4842  0.6753
 2232SOL    MW4 8975   1.110   3.604   3.837  0.2270 -0.1783  0.0787
 2233SOL     OW 8976   1.109   3.884   3.859 -0.0475 -0.1794 -0.3514
 2233SOL    HW2 8977   1.109   3.879   3.955  1.1977  0.4821 -0.3071
 2233SOL    HW3 8978   1.195   3.918   3.837  0.7426 -3.0076 -1.8823
 2233SOL    MW4 8979   1.120   3.888   3.869  0.2210 -0.4654 -0.5476
 2234SOL     OW 8980   0.884   4.034   3.782  0.1358  0.0960 -0.3915
 2234SOL    HW2 8981   0.963   3.986   3.807 -0.3937 -1.0897 -0.9216
 2234SOL    HW3 8982   0.884   4.030   3.686 -0.8584 -0.4184 -0.3779
 2234SOL    MW4 8983   0.895   4.027   3.773 -0.0653 -0.1283 -0.4597
 2235SOL     OW 8984   0.916   4.297   3.866 -0.3908  0.5119 -0.5275
 2235SOL    HW2 8985   0.917   4.281   3.961 -1.1873  2.6076 -0.1445
 2235SOL    HW3 8986   0.919   4.209   3.828 -0.2462 -0.3775  1.4421
 2235SOL    MW4 8987   0.916   4.283   3.874 -0.4768  0.6709 -0.2170
 2236SOL     OW 8988   1.147   4.417   3.762  0.0423 -0.2547 -0.0467
 2236SOL    HW2 8989   1.069   4.374   3.798 -0.7372  0.6361 -0.6559
 2236SOL    HW3 8990   1.138   4.409   3.667  1.2092 -1.0351 -0.1078
 2236SOL    MW4 8991   1.136   4.411   3.754  0.0935 -0.2403 -0.1352
 2237SOL     OW 8992   1.530   0.010   3.876 -0.0028 -0.1478  0.7986
 2237SOL    HW2 8993   1.527   0.006   3.972  2.3610  0.7193  0.9548
 2237SOL    HW3 8994   1.554  -0.079   3.850  1.1614  0.0561  1.1405
 2237SOL    MW4 8995   1.533  -0.003   3.885  0.4627 -0.0065  0.8643
 2238SOL     OW 8996   1.332   0.148   3.718 -0.2058 -0.0773 -0.8281
 2238SOL    HW2 8997   1.325   0.232   3.763  1.0889 -0.2717 -0.2348
 2238SOL    HW3 8998   1.405   0.103   3.762 -0.5016 -1.2644 -1.5215
 2238SOL    MW4 8999   1.341   0.153   3.730 -0.0739 -0.2596 -0.8414
 2239SOL     OW 9000   1.297   0.379   3.854 -0.1926 -0.5716 -0.1972
 2239SOL    HW2 9001   1.290   0.357   3.947 -0.9269  2.9958  0.6674
 2239SOL    HW3 9002   1.375   0.434   3.848 -0.1207 -0.8112 -1.6991
 2239SOL    MW4 9003   1.306   0.383   3.865 -0.2799 -0.1325 -0.2811
 2240SOL     OW 9004   1.512   0.534   3.754  0.8118  0.5770  0.1411
 2240SOL    HW2 9005   1.597   0.514   3.794  0.6714 -0.0390  0.1476
 2240SOL    HW3 9006   1.498   0.627   3.772  1.0239  0.4445  1.0185
 2240SOL    MW4 9007   1.521   0.543   3.762  0.8214  0.4782  0.2577
 2241SOL     OW 9008   1.326   0.926   3.756  0.0202 -0.0738  0.2890
 2241SOL    HW2 9009   1.347   0.998   3.816  0.3235  0.3035 -0.2629
 2241SOL    HW3 9010   1.249   0.885   3.795  0.4774 -0.1125  1.1712
 2241SOL    MW4 9011   1.319   0.930   3.769  0.1206 -0.0291  0.3326
 2242SOL     OW 9012   1.116   0.755   3.854 -0.2037 -0.5163  0.0291
 2242SOL    HW2 9013   1.116   0.734   3.947 -1.4893 -0.1866  0.1212
 2242SOL    HW3 9014   1.083   0.676   3.811 -2.3727  0.3052  0.1276
 2242SOL    MW4 9015   1.111   0.742   3.861 -0.6595 -0.3644  0.0544
 2243SOL     OW 9016   1.356   1.167   3.905 -0.0115  0.0569 -0.2581
 2243SOL    HW2 9017   1.429   1.203   3.855  0.1575  1.0241  0.6650
 2243SOL    HW3 9018   1.278   1.199   3.859  0.1398  0.5373 -0.1792
 2243SOL    MW4 9019   1.355   1.176   3.892  0.0309  0.2480 -0.1259
 2244SOL     OW 9020   1.558   1.236   3.722  0.4053  0.2528 -0.0622
 2244SOL    HW2 9021   1.637   1.214   3.771  0.9333  1.8946 -0.1666
 2244SOL    HW3 9022   1.536   1.325   3.749 -1.6149 -0.2981  0.2282
 2244SOL    MW4 9023   1.566   1.244   3.732  0.2085  0.3967 -0.0379
 2245SOL     OW 9024   1.516   1.474   3.872  0.0789 -0.1401  0.2440
 2245SOL    HW2 9025   1.517   1.463   3.967 -0.6947 -0.8185  0.1800
 2245SOL    HW3 9026   1.589   1.533   3.854 -0.1329  0.4606  1.3158
 2245SOL    MW4 9027   1.526   1.481   3.882 -0.0513 -0.1503  0.3769
 2246SOL     OW 9028   1.329   1.671   3.798  0.0228  0.0863  0.4891
 2246SOL    HW2 9029   1.350   1.757   3.835 -0.4741  0.9167 -1.1334
 2246SOL    HW3 9030   1.388   1.611   3.844  0.1667  1.2362  1.8573
 2246SOL    MW4 9031   1.340   1.674   3.809 -0.0237  0.3475  0.4554
 2247SOL     OW 9032   1.356   1.963   3.878 -0.0728 -0.3467  0.0905
 2247SOL    HW2 9033   1.325   1.962   3.968 -1.8942 -1.3254 -0.5312
 2247SOL    HW3 9034   1.285   2.004   3.828  0.1836 -1.3877 -1.1604
 2247SOL    MW4 9035   1.343   1.968   3.883 -0.2793 -0.6132 -0.1569
 2248SOL     OW 9036   1.590   2.055   3.756 -0.0087  0.1074 -0.1490
 2248SOL    HW2 9037   1.504   2.040   3.796  0.6465  0.5226  1.4610
 2248SOL    HW3 9038   1.570   2.093   3.671 -1.4199  0.3166  0.2546
 2248SOL    MW4 9039   1.576   2.058   3.750 -0.1085  0.1900  0.1168
 2249SOL     OW 9040   1.630   2.265   3.921 -0.2849 -0.4597  0.3249
 2249SOL    HW2 9041   1.694   2.320   3.876 -0.0759 -0.3422  0.7633
 2249SOL    HW3 9042   1.636   2.180   3.876  0.6788 -0.6582  0.8132
 2249SOL    MW4 9043   1.639   2.261   3.909 -0.1301 -0.4704  0.4475
 2250SOL     OW 9044   1.420   2.413   3.780 -0.0890 -0.2146 -0.0135
 2250SOL    HW2 9045   1.482   2.380   3.844 -0.5337  0.6240  0.8571
 2250SOL    HW3 9046   1.335   2.378   3.808  0.0176 -1.6566 -1.3973
 2250SOL    MW4 9047   1.417   2.404   3.792 -0.1336 -0.2942 -0.0811
 2251SOL     OW 9048   1.431   2.666   3.875  0.2817 -0.1864 -0.4014
 2251SOL    HW2 9049   1.451   2.654   3.968  3.6884  0.6235 -0.9682
 2251SOL    HW3 9050   1.416   2.577   3.842 -1.3101 -0.4486  0.9423
 2251SOL    MW4 9051   1.431   2.653   3.883  0.5212 -0.1144 -0.2987
 2252SOL     OW 9052   1.640   2.819   3.775  0.4114 -0.0650 -0.1239
 2252SOL    HW2 9053   1.555   2.780   3.794  1.3501 -1.7041  0.8402
 2252SOL    HW3 9054   1.644   2.824   3.680 -1.8636  2.5766 -0.1452
 2252SOL    MW4 9055   1.629   2.814   3.765  0.2350  0.0672  0.0007
 2253SOL     OW 9056   1.636   3.076   3.864 -0.1230  0.3025 -0.1590
 2253SOL    HW2 9057   1.619   3.077   3.959  0.2894  0.8086 -0.0876
 2253SOL    HW3 9058   1.644   2.983   3.843 -2.1612  0.0857 -0.0579
 2253SOL    MW4 9059   1.635   3.064   3.874 -0.3375  0.3409 -0.1361
 2254SOL     OW 9060   1.385   3.185   3.762  0.1936 -0.0316 -0.2945
 2254SOL    HW2 9061   1.389   3.272   3.803  1.3659 -0.4358  0.4805
 2254SOL    HW3 9062   1.463   3.140   3.795  1.1910 -0.3549 -2.9905
 2254SOL    MW4 9063   1.396   3.191   3.772  0.4798 -0.1276 -0.5476
 2255SOL     OW 9064   1.372   3.452   3.828 -0.0295  0.0634 -0.1066
 2255SOL    HW2 9065   1.454   3.496   3.807 -0.2753 -0.3404 -1.9759
 2255SOL    HW3 9066   1.304   3.515   3.804 -0.2928  0.2055  0.9780
 2255SOL    MW4 9067   1.374   3.466   3.822 -0.0966  0.0286 -0.2103
 2256SOL     OW 9068   1.608   3.604   3.767 -0.2278  0.0100 -0.7684
 2256SOL    HW2 9069   1.687   3.574   3.811 -1.1096 -1.8033 -0.4009
 2256SOL    HW3 9070   1.600   3.696   3.793  1.1516 -0.0839  0.0537
 2256SOL    MW4 9071   1.618   3.612   3.776 -0.1620 -0.2413 -0.6115
 2257SOL     OW 9072   1.600   3.871   3.853  0.0559  0.2334 -0.1634
 2257SOL    HW2 9073   1.613   3.853   3.946  0.3681 -0.4028 -0.3218
 2257SOL    HW3 9074   1.512   3.908   3.847 -0.5596 -1.1233  0.2231
 2257SOL    MW4 9075   1.590   3.873   3.864  0.0159 -0.0291 -0.1335
 2258SOL     OW 9076   1.349   3.987   3.789  0.0846 -0.5514 -0.1849
 2258SOL    HW2 9077   1.349   4.073   3.831 -0.4207 -0.8351  0.3998
 2258SOL    HW3 9078   1.352   4.006   3.696  0.0944  0.0992 -0.0537
 2258SOL    MW4 9079   1.350   4.000   3.782  0.0192 -0.5031 -0.0906
 2259SOL     OW 9080   1.362   4.266   3.835 -0.0101 -0.0931 -0.2282
 2259SOL    HW2 9081   1.442   4.316   3.818  0.3018 -1.1986 -2.2346
 2259SOL    HW3 9082   1.291   4.324   3.806  0.1054  0.6042  0.8735
 2259SOL    MW4 9083   1.363   4.280   3.829  0.0463 -0.1469 -0.3471
 2260SOL     OW 9084   1.581   4.416   3.782 -0.3441 -0.4482  0.1757
 2260SOL    HW2 9085   1.654   4.360   3.807 -0.2729 -0.2065  0.5014
 2260SOL    HW3 9086   1.580   4.412   3.686 -0.5346 -1.2571  0.2072
 2260SOL    MW4 9087   1.590   4.408   3.772 -0.3599 -0.5226  0.2229
 2261SOL     OW 9088   1.976   4.623   3.856 -0.6626 -0.0334  0.2021
 2261SOL    HW2 9089   2.058   4.659   3.824 -0.5647  0.5121  1.0407
 2261SOL    HW3 9090   1.972   4.535   3.819 -0.5921  0.5975 -1.3424
 2261SOL    MW4 9091   1.986   4.616   3.847 -0.6404  0.1211  0.1090
 2262SOL     OW 9092   1.771   0.145   3.793 -0.3680  0.1664 -0.1616
 2262SOL    HW2 9093   1.842   0.084   3.811  0.2261 -0.0578 -3.1159
 2262SOL    HW3 9094   1.693   0.100   3.828  0.3412 -1.4169 -0.5437
 2262SOL    MW4 9095   1.770   0.131   3.800 -0.1961 -0.0721 -0.6015
 2263SOL     OW 9096   1.748   0.414   3.856  0.1271 -0.2275  0.0326
 2263SOL    HW2 9097   1.754   0.420   3.951  1.3036  1.2467 -0.1240
 2263SOL    HW3 9098   1.747   0.319   3.838 -0.2437 -0.5105  1.4975
 2263SOL    MW4 9099   1.748   0.402   3.866  0.2334 -0.0703  0.2050
 2264SOL     OW 9100   2.002   0.447   3.781 -0.0567  0.2324 -0.2929
 2264SOL    HW2 9101   1.912   0.418   3.800  0.0083 -0.1831 -0.6126
 2264SOL    HW3 9102   2.007   0.449   3.686 -0.2539  1.9299 -0.2821
 2264SOL    MW4 9103   1.990   0.443   3.771 -0.0741  0.4015 -0.3338
 2265SOL     OW 9104   1.994   0.707   3.861  0.0919 -0.3667  0.3696
 2265SOL    HW2 9105   2.014   0.731   3.952 -0.1450 -1.6647  0.7768
 2265SOL    HW3 9106   2.000   0.612   3.860 -0.5029 -0.3957 -0.8444
 2265SOL    MW4 9107   1.998   0.698   3.873 -0.0179 -0.5418  0.2630
 2266SOL     OW 9108   1.782   0.874   3.745 -0.2506 -0.6005 -0.3029
 2266SOL    HW2 9109   1.850   0.815   3.776  0.8361  0.3626 -0.8090
 2266SOL    HW3 9110   1.790   0.872   3.650 -0.5396 -0.0340 -0.3413
 2266SOL    MW4 9111   1.792   0.866   3.737 -0.1454 -0.3987 -0.3748
 2267SOL     OW 9112   1.793   1.138   3.833 -0.0641 -0.0257 -0.4397
 2267SOL    HW2 9113   1.785   1.128   3.928  0.4453  0.3633 -0.3548
 2267SOL    HW3 9114   1.806   1.048   3.801 -0.7213 -0.2110 -0.1912
 2267SOL    MW4 9115   1.794   1.125   3.842 -0.0837  0.0012 -0.3960
 2268SOL     OW 9116   2.040   1.270   3.772  0.0525 -0.2652  0.1459
 2268SOL    HW2 9117   2.114   1.223   3.811 -0.2841 -0.0652  1.0463
 2268SOL    HW3 9118   1.965   1.213   3.790  0.1965 -1.2015 -2.0922
 2268SOL    MW4 9119   2.040   1.256   3.780  0.0272 -0.3624 -0.0308
 2269SOL     OW 9120   1.977   1.525   3.858  0.4611 -0.1325 -0.6371
 2269SOL    HW2 9121   1.887   1.537   3.827  0.2224  0.3537  0.2151
 2269SOL    HW3 9122   1.999   1.435   3.833 -0.3730 -0.3627 -0.5779
 2269SOL    MW4 9123   1.968   1.515   3.850  0.3196 -0.0986 -0.5169
 2270SOL     OW 9124   1.732   1.625   3.757  0.0395 -0.1304  0.1280
 2270SOL    HW2 9125   1.762   1.708   3.793 -0.7985  0.1880  0.1154
 2270SOL    HW3 9126   1.736   1.638   3.662 -0.6154  0.0973  0.1271
 2270SOL    MW4 9127   1.736   1.638   3.749 -0.1574 -0.0584  0.1261
 2271SOL     OW 9128   1.792   1.879   3.866 -0.3008  0.1828 -0.2702
 2271SOL    HW2 9129   1.775   1.899   3.958 -1.4440 -0.8488 -0.2497
 2271SOL    HW3 9130   1.719   1.919   3.818 -0.5395 -0.6142 -0.5771
 2271SOL    MW4 9131   1.780   1.887   3.872 -0.4832 -0.0584 -0.3078
 2272SOL     OW 9132   1.975   2.060   3.802  0.6107 -0.2635  0.0669
 2272SOL    HW2 9133   1.921   1.990   3.838  0.5905 -0.2615  0.0405
 2272SOL    HW3 9134   1.968   2.049   3.707  0.1655  0.1015  0.0526
 2272SOL    MW4 9135   1.967   2.050   3.794  0.5493 -0.2148  0.0618
 2273SOL     OW 9136   2.036   2.334   3.866  0.6587  0.2120  0.1327
 2273SOL    HW2 9137   2.010   2.245   3.842  0.2277 -0.0985  1.6908
 2273SOL    HW3 9138   1.960   2.387   3.843  0.4946  0.0074  0.1886
 2273SOL    MW4 9139   2.022   2.329   3.860  0.5801  0.1438  0.3455
 2274SOL     OW 9140   1.793   2.442   3.789 -0.3158  0.0028 -0.3615
 2274SOL    HW2 9141   1.770   2.530   3.818 -0.2311  0.2989 -1.1721
 2274SOL    HW3 9142   1.824   2.454   3.700  1.6396 -0.5768  0.2225
 2274SOL    MW4 9143   1.794   2.455   3.781 -0.0467 -0.0346 -0.3912
 2275SOL     OW 9144   1.818   2.684   3.935  0.1738 -0.1399 -0.2694
 2275SOL    HW2 9145   1.795   2.717   4.022 -0.8876  1.0850 -0.9937
 2275SOL    HW3 9146   1.755   2.726   3.876 -0.1383 -2.1860 -1.4492
 2275SOL    MW4 9147   1.806   2.694   3.939 -0.0073 -0.2482 -0.5207
 2276SOL     OW 9148   2.015   2.831   3.812 -0.0913  0.2889 -0.0000
 2276SOL    HW2 9149   2.094   2.781   3.830  0.0750  0.3663 -0.5220
 2276SOL    HW3 9150   1.946   2.785   3.862  0.1508 -0.1713 -0.0885
 2276SOL    MW4 9151   2.016   2.818   3.821 -0.0372  0.2382 -0.0806
 2277SOL     OW 9152   2.034   3.069   3.930  0.0834 -0.1597 -0.1759
 2277SOL    HW2 9153   2.109   3.105   3.882  0.1874 -0.2077 -0.0494
 2277SOL    HW3 9154   2.022   2.982   3.892 -0.0779 -0.0473 -0.3832
 2277SOL    MW4 9155   2.042   3.062   3.918  0.0761 -0.1512 -0.1867
 2278SOL     OW 9156   1.845   3.235   3.826 -0.3392 -0.1029  0.2465
 2278SOL    HW2 9157   1.925   3.192   3.857 -0.1255 -0.9540 -1.4497
 2278SOL    HW3 9158   1.777   3.169   3.838 -0.4064 -0.1318 -0.2940
 2278SOL    MW4 9159   1.847   3.221   3.832 -0.3198 -0.2189 -0.0484
 2279SOL     OW 9160   1.848   3.501   3.884 -0.0380 -0.1000 -0.6237
 2279SOL    HW2 9161   1.922   3.541   3.839  1.5877 -0.0257  2.0337
 2279SOL    HW3 9162   1.852   3.409   3.860  0.8028 -0.0651 -0.6096
 2279SOL    MW4 9163   1.858   3.494   3.875  0.2874 -0.0858 -0.2713
 2280SOL     OW 9164   2.067   3.606   3.740 -0.2496 -0.1397  0.1284
 2280SOL    HW2 9165   2.139   3.547   3.763 -1.7809 -2.0698  0.0861
 2280SOL    HW3 9166   2.061   3.600   3.645 -0.5556 -0.0859  0.1444
 2280SOL    MW4 9167   2.076   3.598   3.730 -0.4923 -0.3874  0.1249
 2281SOL     OW 9168   2.038   3.876   3.843  0.2080 -0.0125  0.0410
 2281SOL    HW2 9169   2.122   3.918   3.824  0.2505  0.2069  0.6714
 2281SOL    HW3 9170   2.047   3.787   3.808  1.3801 -0.5781  1.6474
 2281SOL    MW4 9171   2.051   3.870   3.836  0.3684 -0.0582  0.3359
 2282SOL     OW 9172   1.817   3.994   3.757 -0.0523 -0.1782 -0.4948
 2282SOL    HW2 9173   1.890   3.955   3.806  0.4421  3.2636  1.6612
 2282SOL    HW3 9174   1.740   3.945   3.787  0.8187 -0.9355  0.5538
 2282SOL    MW4 9175   1.816   3.982   3.768  0.1278  0.1764 -0.0720
 2283SOL     OW 9176   1.781   4.249   3.871 -0.0052  0.2117  0.2291
 2283SOL    HW2 9177   1.868   4.282   3.851 -0.2290  0.1433 -0.9072
 2283SOL    HW3 9178   1.777   4.164   3.827 -0.5530  0.1006  0.4846
 2283SOL    MW4 9179   1.792   4.242   3.863 -0.1070  0.1879  0.1130
 2284SOL     OW 9180   1.992   4.376   3.732  0.1650  0.5819  0.4166
 2284SOL    HW2 9181   2.081   4.347   3.752 -0.2860  0.0296  1.6776
 2284SOL    HW3 9182   1.993   4.393   3.638  1.7031  0.9459  0.4871
 2284SOL    MW4 9183   2.004   4.374   3.722  0.3083  0.5565  0.5922
 2285SOL     OW 9184   2.443   4.643   3.854 -0.0108  0.7114  0.0292
 2285SOL    HW2 9185   2.445   4.634   3.949  0.3554 -0.4089 -0.0730
 2285SOL    HW3 9186   2.512   4.705   3.834  1.9107 -1.2881  0.2827
 2285SOL    MW4 9187   2.452   4.650   3.863  0.2909  0.2995  0.0491
 2286SOL     OW 9188   2.214   0.091   3.754  0.4315 -0.0025 -0.6599
 2286SOL    HW2 9189   2.293   0.056   3.794 -0.1905  0.2741  0.8494
 2286SOL    HW3 9190   2.233   0.093   3.660  2.6822  1.2336 -0.2175
 2286SOL    MW4 9191   2.227   0.087   3.747  0.6461  0.1971 -0.4022
 2287SOL     OW 9192   2.224   0.334   3.886  0.4097 -0.2561  0.4541
 2287SOL    HW2 9193   2.214   0.243   3.858 -0.4666 -0.3220  0.9544
 2287SOL    HW3 9194   2.141   0.375   3.861  0.7599  0.3853  0.3310
 2287SOL    MW4 9195   2.212   0.327   3.879  0.3405 -0.1802  0.5040
 2288SOL     OW 9196   2.427   0.498   3.759 -0.4338  0.2154 -0.5487
 2288SOL    HW2 9197   2.365   0.430   3.786 -1.5222  1.4498  0.1336
 2288SOL    HW3 9198   2.435   0.487   3.664  0.6954 -1.9049 -0.2375
 2288SOL    MW4 9199   2.420   0.487   3.750 -0.4284  0.0985 -0.4175
 2289SOL     OW 9200   2.449   0.759   3.855  0.2808 -0.3708 -0.0448
 2289SOL    HW2 9201   2.365   0.800   3.835 -0.3216 -1.1711  0.8214
 2289SOL    HW3 9202   2.441   0.670   3.819  0.6048 -0.5880  0.4211
 2289SOL    MW4 9203   2.437   0.753   3.847  0.2439 -0.5050  0.1311
 2290SOL     OW 9204   2.206   0.840   3.754  0.0591  0.0345  0.1205
 2290SOL    HW2 9205   2.129   0.793   3.784 -1.7442  2.5178 -0.4202
 2290SOL    HW3 9206   2.201   0.838   3.658  1.0771 -0.4260  0.0657
 2290SOL    MW4 9207   2.195   0.834   3.745 -0.0446  0.3014  0.0420
 2291SOL     OW 9208   2.266   1.102   3.833 -0.0826  0.4644 -0.3478
 2291SOL    HW2 9209   2.254   1.095   3.928  1.6601  1.7049 -0.0129
 2291SOL    HW3 9210   2.230   1.020   3.798  0.3453 -0.5362  1.4876
 2291SOL    MW4 9211   2.259   1.090   3.841  0.2038  0.4959 -0.0615
 2292SOL     OW 9212   2.457   1.269   3.744  0.1729 -0.1966  0.0779
 2292SOL    HW2 9213   2.457   1.350   3.796 -0.0442 -0.7778  0.9876
 2292SOL    HW3 9214   2.394   1.212   3.787 -1.2714 -0.0774 -1.7893
 2292SOL    MW4 9215   2.449   1.272   3.756 -0.0463 -0.2576 -0.0484
 2293SOL     OW 9216   2.420   1.552   3.833  0.1785  0.3469  0.1675
 2293SOL    HW2 9217   2.490   1.600   3.789 -0.9419  2.2074  0.3610
 2293SOL    HW3 9218   2.340   1.579   3.789 -0.5225 -1.1674  0.4575
 2293SOL    MW4 9219   2.419   1.562   3.821 -0.0620  0.3927  0.2315
 2294SOL     OW 9220   2.192   1.692   3.731  0.2080  0.3524 -0.1505
 2294SOL    HW2 9221   2.190   1.775   3.779 -0.8340  0.7420 -0.8448
 2294SOL    HW3 9222   2.123   1.640   3.770  0.7004 -0.1021  0.1198
 2294SOL    MW4 9223   2.183   1.696   3.742  0.1357  0.3437 -0.2062
 2295SOL     OW 9224   2.221   1.967   3.841 -0.9819  0.4279 -0.4065
 2295SOL    HW2 9225   2.234   1.969   3.936  0.5423  2.8077 -0.6456
 2295SOL    HW3 9226   2.136   2.009   3.828 -1.2196  0.0470 -0.0999
 2295SOL    MW4 9227   2.211   1.972   3.852 -0.8121  0.6915 -0.3974
 2296SOL     OW 9228   2.453   2.107   3.738  0.5775 -0.0502  0.0137
 2296SOL    HW2 9229   2.461   2.189   3.786  2.4329 -1.7512  2.7187
 2296SOL    HW3 9230   2.375   2.065   3.776  0.9518 -0.5609  0.2110
 2296SOL    MW4 9231   2.443   2.112   3.749  0.8719 -0.3421  0.3965
 2297SOL     OW 9232   2.495   2.333   3.886 -0.6507 -0.1551 -0.1156
 2297SOL    HW2 9233   2.550   2.398   3.842  0.0339 -1.3635 -1.0828
 2297SOL    HW3 9234   2.405   2.366   3.874 -0.4304 -0.1283 -1.8814
 2297SOL    MW4 9235   2.490   2.346   3.878 -0.5314 -0.3109 -0.4761
 2298SOL     OW 9236   2.281   2.450   3.792 -0.6986  0.0705  0.1106
 2298SOL    HW2 9237   2.198   2.404   3.807 -1.2252  0.8552 -0.3595
 2298SOL    HW3 9238   2.290   2.452   3.696 -1.6935  2.6814  0.0227
 2298SOL    MW4 9239   2.271   2.444   3.781 -0.8998  0.5186  0.0372
 2299SOL     OW 9240   2.271   2.730   3.867 -0.2139 -0.0766 -0.1792
 2299SOL    HW2 9241   2.282   2.724   3.962 -0.6495 -1.3939 -0.2010
 2299SOL    HW3 9242   2.273   2.639   3.837  0.9822  0.3842 -1.5611
 2299SOL    MW4 9243   2.273   2.717   3.876 -0.1135 -0.1898 -0.3641
 2300SOL     OW 9244   2.503   2.814   3.782  0.2382 -0.0085  0.1394
 2300SOL    HW2 9245   2.417   2.780   3.806 -0.0617  1.3931  1.1446
 2300SOL    HW3 9246   2.502   2.819   3.687 -0.5196 -0.6814  0.1133
 2300SOL    MW4 9247   2.492   2.811   3.773  0.0987  0.0877  0.2689
 2301SOL     OW 9248   2.495   3.104   3.861 -0.2712 -0.2520  0.5617
 2301SOL    HW2 9249   2.490   3.120   3.956  0.5105 -0.1500  0.5876
 2301SOL    HW3 9250   2.513   3.010   3.854 -0.4726 -0.2865  0.5114
 2301SOL    MW4 9251   2.497   3.094   3.873 -0.1948 -0.2429  0.5584
 2302SOL     OW 9252   2.245   3.177   3.778  0.5286  0.2082 -0.2679
 2302SOL    HW2 9253   2.234   3.269   3.804  0.8740 -0.2571  1.6352
 2302SOL    HW3 9254   2.333   3.154   3.809 -0.1768 -1.2068  0.7646
 2302SOL    MW4 9255   2.255   3.186   3.786  0.4811 -0.0398  0.1194
 2303SOL     OW 9256   2.260   3.456   3.826  0.0654 -0.5001 -0.1273
 2303SOL    HW2 9257   2.280   3.450   3.919 -0.9534  1.0528  0.1973
 2303SOL    HW3 9258   2.334   3.504   3.789 -0.0861 -0.1049  0.0777
 2303SOL    MW4 9259   2.273   3.461   3.833 -0.0889 -0.2429 -0.0575
 2304SOL     OW 9260   2.494   3.608   3.756  0.3374  0.0816 -0.3948
 2304SOL    HW2 9261   2.581   3.571   3.769 -0.0551 -0.8580 -0.4088
 2304SOL    HW3 9262   2.488   3.625   3.662  0.9254  1.2209 -0.2346
 2304SOL    MW4 9263   2.504   3.606   3.745  0.3633  0.1080 -0.3755
 2305SOL     OW 9264   2.435   3.848   3.884  0.4196 -0.5837  0.1375
 2305SOL    HW2 9265   2.512   3.892   3.849  0.4877 -0.7425  0.0883
 2305SOL    HW3 9266   2.441   3.758   3.851 -0.6150 -0.1837 -1.1617
 2305SOL    MW4 9267   2.446   3.842   3.875  0.2921 -0.5519 -0.0405
 2306SOL     OW 9268   2.257   4.030   3.770  0.2142 -0.0811  0.4134
 2306SOL    HW2 9269   2.325   3.964   3.786  0.6552  0.3852  0.4655
 2306SOL    HW3 9270   2.251   4.035   3.675 -2.4035 -2.8467  0.3585
 2306SOL    MW4 9271   2.265   4.022   3.760 -0.0730 -0.3843  0.4132
 2307SOL     OW 9272   2.210   4.282   3.850  0.0982 -0.0397 -0.3719
 2307SOL    HW2 9273   2.206   4.296   3.945  1.4875 -0.9148 -0.1768
 2307SOL    HW3 9274   2.210   4.187   3.839  0.5129  0.0558 -1.2303
 2307SOL    MW4 9275   2.209   4.271   3.861  0.3364 -0.1426 -0.4592
 2308SOL     OW 9276   2.470   4.358   3.760 -0.2389 -0.1232  0.0433
 2308SOL    HW2 9277   2.398   4.312   3.804  0.7918 -0.1330  1.7579
 2308SOL    HW3 9278   2.458   4.449   3.785 -1.2017  0.3037 -1.8632
 2308SOL    MW4 9279   2.459   4.364   3.769 -0.2298 -0.0672  0.0181
 2309SOL     OW 9280   2.893   4.632   3.867  0.7179  0.4041 -0.5663
 2309SOL    HW2 9281   2.899   4.610   3.960  0.1444 -0.6464 -0.7691
 2309SOL    HW3 9282   2.975   4.677   3.848  0.9333  0.4332  0.3967
 2309SOL    MW4 9283   2.905   4.635   3.877  0.6704  0.2689 -0.4661
 2310SOL     OW 9284   2.678   0.111   3.793 -0.0435  0.1373 -0.1987
 2310SOL    HW2 9285   2.750   0.064   3.834 -0.6128  0.1770  0.8490
 2310SOL    HW3 9286   2.709   0.128   3.704  1.5725  0.8780  0.4848
 2310SOL    MW4 9287   2.692   0.107   3.786  0.0947  0.2403  0.0296
 2311SOL     OW 9288   2.672   0.401   3.851 -1.0365  0.1718 -0.0854
 2311SOL    HW2 9289   2.676   0.307   3.832 -1.2569 -0.1248  1.3245
 2311SOL    HW3 9290   2.589   0.430   3.813 -0.6442 -0.0665 -1.1286
 2311SOL    MW4 9291   2.662   0.392   3.843 -1.0135  0.1013 -0.0370
 2312SOL     OW 9292   2.928   0.503   3.810 -0.2573  0.3406 -0.3455
 2312SOL    HW2 9293   2.999   0.450   3.846 -0.1032  0.6296 -0.2150
 2312SOL    HW3 9294   2.848   0.456   3.833 -0.1844  0.7323  0.7495
 2312SOL    MW4 9295   2.927   0.490   3.818 -0.2277  0.4304 -0.1838
 2313SOL     OW 9296   2.924   0.763   3.937  0.4866  0.1806  0.1080
 2313SOL    HW2 9297   3.000   0.810   3.906  1.3401 -0.9648  0.4181
 2313SOL    HW3 9298   2.925   0.680   3.889 -0.7319  0.2799 -0.1123
 2313SOL    MW4 9299   2.934   0.758   3.927  0.4385  0.0426  0.1197
 2314SOL     OW 9300   2.685   0.867   3.812 -0.1381  0.0719  0.4779
 2314SOL    HW2 9301   2.757   0.825   3.858 -0.2736 -0.7713 -0.0622
 2314SOL    HW3 9302   2.609   0.812   3.832 -0.0193 -0.8787 -1.5154
 2314SOL    MW4 9303   2.684   0.854   3.821 -0.1404 -0.1648  0.1438
 2315SOL     OW 9304   2.671   1.138   3.870 -0.2929  0.8785  0.0868
 2315SOL    HW2 9305   2.667   1.043   3.853  0.3743  0.7886  0.4444
 2315SOL    HW3 9306   2.602   1.174   3.814 -1.0292  0.1114  0.4640
 2315SOL    MW4 9307   2.661   1.130   3.860 -0.3018  0.7654  0.1833
 2316SOL     OW 9308   2.910   1.307   3.792 -0.3524  0.2066  0.1598
 2316SOL    HW2 9309   2.889   1.394   3.826 -0.5289  0.3601 -0.3219
 2316SOL    HW3 9310   2.836   1.253   3.818 -0.2582  0.2124  0.4338
 2316SOL    MW4 9311   2.897   1.312   3.800 -0.3633  0.2277  0.1323
 2317SOL     OW 9312   2.882   1.578   3.854 -0.4444 -0.0850  0.1378
 2317SOL    HW2 9313   2.882   1.593   3.949 -0.6152  1.6062 -0.0977
 2317SOL    HW3 9314   2.967   1.611   3.825 -0.5793 -0.1701 -0.3559
 2317SOL    MW4 9315   2.894   1.585   3.863 -0.4847  0.1271  0.0417
 2318SOL     OW 9316   2.650   1.685   3.743 -0.1814 -0.0171  0.0747
 2318SOL    HW2 9317   2.729   1.656   3.788  0.8812  1.0687 -1.0329
 2318SOL    HW3 9318   2.665   1.662   3.651 -0.6621  1.1868 -0.3161
 2318SOL    MW4 9319   2.662   1.678   3.737 -0.1047  0.2850 -0.1228
 2319SOL     OW 9320   2.627   1.925   3.858  0.2163 -0.1217  0.0448
 2319SOL    HW2 9321   2.647   1.844   3.810  0.1154 -0.9284  1.3221
 2319SOL    HW3 9322   2.573   1.976   3.797  0.1835 -1.0686 -0.7417
 2319SOL    MW4 9323   2.622   1.921   3.844  0.1986 -0.3531  0.1097
 2320SOL     OW 9324   2.850   2.061   3.732  0.1217 -0.2304 -0.4675
 2320SOL    HW2 9325   2.882   2.131   3.789  0.9692 -1.0579  0.1039
 2320SOL    HW3 9326   2.777   2.022   3.781 -2.1485  1.9783 -1.9924
 2320SOL    MW4 9327   2.845   2.065   3.746 -0.0660 -0.0484 -0.5934
 2321SOL     OW 9328   2.881   2.288   3.908  0.0018  0.5373  0.0564
 2321SOL    HW2 9329   2.867   2.318   3.997 -0.6187  0.0421  0.1285
 2321SOL    HW3 9330   2.964   2.328   3.882  0.4303  0.2704  1.0220
 2321SOL    MW4 9331   2.890   2.298   3.916 -0.0236  0.4368  0.1934
 2322SOL     OW 9332   2.723   2.497   3.776 -0.2019  0.2157  0.1563
 2322SOL    HW2 9333   2.746   2.580   3.817 -0.2739 -0.2083  1.0772
 2322SOL    HW3 9334   2.773   2.431   3.825 -0.6364 -0.3474 -0.1445
 2322SOL    MW4 9335   2.733   2.499   3.788 -0.2689  0.0856  0.2382
 2323SOL     OW 9336   2.752   2.750   3.902  0.0576  0.5667  0.0083
 2323SOL    HW2 9337   2.730   2.699   3.980  0.8788  0.1522 -0.0305
 2323SOL    HW3 9338   2.667   2.778   3.868 -0.2890  1.0791  1.2589
 2323SOL    MW4 9339   2.737   2.747   3.908  0.1202  0.5798  0.1683
 2324SOL     OW 9340   2.961   2.844   3.762 -0.3559  0.4696  0.2848
 2324SOL    HW2 9341   2.979   2.931   3.797 -1.4161  1.0882 -0.6736
 2324SOL    HW3 9342   2.893   2.808   3.819 -0.9299  0.8382 -0.1614
 2324SOL    MW4 9343   2.954   2.851   3.774 -0.5713  0.6001  0.0997
 2325SOL     OW 9344   2.920   3.109   3.899 -0.0956  0.1425  0.2049
 2325SOL    HW2 9345   3.000   3.146   3.862 -0.6358  1.2840  0.1538
 2325SOL    HW3 9346   2.849   3.159   3.858 -0.8636 -1.2340 -0.1709
 2325SOL    MW4 9347   2.921   3.121   3.889 -0.2682  0.1113  0.1485
 2326SOL     OW 9348   2.723   3.237   3.751  0.2316 -0.5940  0.0540
 2326SOL    HW2 9349   2.713   3.328   3.778 -0.3061 -0.8659  0.8149
 2326SOL    HW3 9350   2.642   3.194   3.781 -0.0881 -1.0524 -1.4234
 2326SOL    MW4 9351   2.711   3.243   3.759  0.1185 -0.6905 -0.0405
 2327SOL     OW 9352   2.726   3.486   3.854 -0.2610  0.4432 -0.4333
 2327SOL    HW2 9353   2.739   3.499   3.949  0.2280 -2.4852 -0.0645
 2327SOL    HW3 9354   2.804   3.525   3.814  0.0651  0.7087  0.4430
 2327SOL    MW4 9355   2.738   3.493   3.862 -0.1533  0.0916 -0.2689
 2328SOL     OW 9356   2.943   3.626   3.776 -0.2492  0.0246 -0.5543
 2328SOL    HW2 9357   3.001   3.555   3.804  0.4365  0.4656 -0.8605
 2328SOL    HW3 9358   2.944   3.621   3.680 -0.1625  0.4862 -0.5752
 2328SOL    MW4 9359   2.951   3.616   3.767 -0.1476  0.1435 -0.5977
 2329SOL     OW 9360   2.886   3.884   3.864 -0.1638  0.1582 -0.0321
 2329SOL    HW2 9361   2.890   3.883   3.960  1.5768  0.1547 -0.0801
 2329SOL    HW3 9362   2.895   3.792   3.839 -1.6124  0.0450 -0.1880
 2329SOL    MW4 9363   2.888   3.872   3.874 -0.1252  0.1428 -0.0589
 2330SOL     OW 9364   2.644   3.991   3.760  0.3886  0.4527 -0.2780
 2330SOL    HW2 9365   2.650   4.078   3.800 -0.4843  0.2761  0.2347
 2330SOL    HW3 9366   2.729   3.950   3.779 -0.0417  0.3511  1.4442
 2330SOL    MW4 9367   2.656   3.997   3.768  0.2170  0.4158  0.0169
 2331SOL     OW 9368   2.684   4.229   3.896  0.4379 -0.7652 -0.0979
 2331SOL    HW2 9369   2.762   4.272   3.863  0.2201  0.3132  0.7585
 2331SOL    HW3 9370   2.613   4.263   3.842 -0.0006  1.4587  1.8354
 2331SOL    MW4 9371   2.685   4.239   3.885  0.3514 -0.3290  0.2701
 2332SOL     OW 9372   2.892   4.368   3.778  0.1923  0.3193  0.4248
 2332SOL    HW2 9373   2.980   4.331   3.786 -0.1890 -0.4893  0.9272
 2332SOL    HW3 9374   2.900   4.457   3.812  0.7630  0.1732  0.6820
 2332SOL    MW4 9375   2.905   4.375   3.783  0.2170  0.1931  0.5252
 2333SOL     OW 9376   3.388   4.654   3.864 -0.0065  0.1453 -0.0344
 2333SOL    HW2 9377   3.386   4.652   3.959 -1.3448  1.9468  0.0029
 2333SOL    HW3 9378   3.452   4.722   3.842  0.5740 -0.5210 -0.4304
 2333SOL    MW4 9379   3.396   4.663   3.873 -0.1068  0.2942 -0.0820
 2334SOL     OW 9380   3.132   0.104   3.823 -0.2340 -0.1584 -0.6426
 2334SOL    HW2 9381   3.219   0.069   3.844 -0.2002 -0.4063 -1.2083
 2334SOL    HW3 9382   3.128   0.103   3.728 -0.9293 -0.3153 -0.6106
 2334SOL    MW4 9383   3.143   0.099   3.813 -0.3209 -0.2118 -0.7133
 2335SOL     OW 9384   3.144   0.374   3.923 -0.8303 -0.1173  0.1692
 2335SOL    HW2 9385   3.167   0.359   4.014  0.0948 -0.1732 -0.0654
 2335SOL    HW3 9386   3.138   0.286   3.885  1.0038 -0.0495 -0.3446
 2335SOL    MW4 9387   3.146   0.360   3.930 -0.4663 -0.1158  0.0706
 2336SOL     OW 9388   3.378   0.495   3.820 -0.2610  0.4812 -0.0035
 2336SOL    HW2 9389   3.460   0.478   3.867  0.2659  0.9066 -0.7531
 2336SOL    HW3 9390   3.311   0.448   3.870  0.9584 -2.9174 -1.3840
 2336SOL    MW4 9391   3.380   0.486   3.833 -0.0305  0.0889 -0.2847
 2337SOL     OW 9392   3.357   0.760   3.906 -0.0529  0.1342  0.5543
 2337SOL    HW2 9393   3.347   0.750   4.001 -2.7733 -0.1261  0.2923
 2337SOL    HW3 9394   3.348   0.672   3.872 -0.7979  0.4471 -0.0684
 2337SOL    MW4 9395   3.354   0.747   3.914 -0.5102  0.1411  0.4375
 2338SOL     OW 9396   3.133   0.925   3.863 -0.0788  0.0635  0.4202
 2338SOL    HW2 9397   3.206   0.876   3.898 -1.4453 -1.2773  1.4500
 2338SOL    HW3 9398   3.134   0.906   3.769  0.1135 -0.9839  0.6288
 2338SOL    MW4 9399   3.142   0.916   3.855 -0.2337 -0.2517  0.5836
 2339SOL     OW 9400   3.143   1.193   3.928  0.1972 -0.2601  0.3650
 2339SOL    HW2 9401   3.159   1.102   3.904  1.0912  0.1831 -0.8346
 2339SOL    HW3 9402   3.067   1.219   3.875  1.0228  0.1760 -0.6471
 2339SOL    MW4 9403   3.135   1.185   3.918  0.4241 -0.1441  0.0734
 2340SOL     OW 9404   3.369   1.304   3.786 -0.2147 -0.3176  0.5062
 2340SOL    HW2 9405   3.294   1.268   3.834  0.2523 -1.1099  0.6507
 2340SOL    HW3 9406   3.344   1.296   3.694 -0.5297 -0.0772  0.5684
 2340SOL    MW4 9407   3.356   1.298   3.780 -0.1943 -0.3903  0.5333
 2341SOL     OW 9408   3.347   1.566   3.908  0.2258  0.0211 -0.5001
 2341SOL    HW2 9409   3.271   1.606   3.864 -1.2652 -0.8351  1.2031
 2341SOL    HW3 9410   3.356   1.480   3.866  0.1969  0.0892 -0.6467
 2341SOL    MW4 9411   3.338   1.559   3.896  0.0253 -0.0829 -0.2947
 2342SOL     OW 9412   3.131   1.681   3.778 -0.1901 -0.2608 -0.0170
 2342SOL    HW2 9413   3.126   1.772   3.807 -1.1228 -0.5638  0.7988
 2342SOL    HW3 9414   3.132   1.687   3.682 -2.2877  0.5324 -0.0145
 2342SOL    MW4 9415   3.131   1.694   3.769 -0.5901 -0.1961  0.0911
 2343SOL     OW 9416   3.101   1.941   3.836 -0.3868 -0.2169 -0.0791
 2343SOL    HW2 9417   3.080   1.941   3.930 -0.2529  0.3604 -0.0444
 2343SOL    HW3 9418   3.023   1.978   3.795 -0.6988 -1.0709 -0.2570
 2343SOL    MW4 9419   3.088   1.946   3.843 -0.4101 -0.2534 -0.0978
 2344SOL     OW 9420   3.356   2.065   3.761  0.3124 -0.0940  0.0779
 2344SOL    HW2 9421   3.268   2.045   3.794  0.2096 -0.3463 -0.3412
 2344SOL    HW3 9422   3.351   2.045   3.668  0.6645  0.3995 -0.0483
 2344SOL    MW4 9423   3.344   2.060   3.753  0.3452 -0.0620  0.0057
 2345SOL     OW 9424   3.363   2.343   3.859  0.4008 -0.0552 -0.4210
 2345SOL    HW2 9425   3.273   2.376   3.860  0.9821  1.5965 -1.1726
 2345SOL    HW3 9426   3.354   2.249   3.844 -1.2281 -0.0194  0.2490
 2345SOL    MW4 9427   3.350   2.335   3.857  0.2627  0.1676 -0.4315
 2346SOL     OW 9428   3.102   2.414   3.802  0.3627  0.0898  0.2525
 2346SOL    HW2 9429   3.102   2.504   3.833  0.2461  0.0875  0.2603
 2346SOL    HW3 9430   3.127   2.420   3.710 -1.0127  0.2660 -0.1225
 2346SOL    MW4 9431   3.105   2.427   3.794  0.1655  0.1125  0.2038
 2347SOL     OW 9432   3.142   2.667   3.886  0.2914  0.1170  0.0460
 2347SOL    HW2 9433   3.139   2.682   3.980  1.1471  1.2481 -0.1078
 2347SOL    HW3 9434   3.085   2.733   3.849  0.5435  0.1492 -0.2895
 2347SOL    MW4 9435   3.134   2.677   3.894  0.4377  0.2704 -0.0186
 2348SOL     OW 9436   3.362   2.801   3.815 -0.0082 -0.2260 -0.3109
 2348SOL    HW2 9437   3.293   2.739   3.838 -1.4094  1.1212 -0.8281
 2348SOL    HW3 9438   3.360   2.805   3.719  0.1426  0.5480 -0.2851
 2348SOL    MW4 9439   3.353   2.793   3.805 -0.1726  0.0536 -0.3757
 2349SOL     OW 9440   3.343   3.076   3.864  0.1611  0.4361 -0.1305
 2349SOL    HW2 9441   3.428   3.102   3.830  0.5109 -1.3507 -0.7095
 2349SOL    HW3 9442   3.337   2.982   3.843 -2.0856  0.6107 -0.4003
 2349SOL    MW4 9443   3.353   3.067   3.857 -0.0892  0.2234 -0.2425
 2350SOL     OW 9444   3.143   3.219   3.763  0.2914 -0.1837 -0.2184
 2350SOL    HW2 9445   3.218   3.165   3.788  1.1304  0.6038 -1.0111
 2350SOL    HW3 9446   3.140   3.213   3.667 -0.6052 -0.1342 -0.1976
 2350SOL    MW4 9447   3.152   3.211   3.753  0.2837 -0.0730 -0.3204
 2351SOL     OW 9448   3.130   3.459   3.914  0.2479  0.0104  0.5403
 2351SOL    HW2 9449   3.212   3.496   3.884  0.7710 -0.5566  1.2592
 2351SOL    HW3 9450   3.129   3.370   3.877  0.0834 -0.0750  0.7497
 2351SOL    MW4 9451   3.140   3.452   3.905  0.2954 -0.0756  0.6626
 2352SOL     OW 9452   3.369   3.607   3.820 -0.7022  0.0392 -0.0820
 2352SOL    HW2 9453   3.362   3.702   3.828  0.5870  0.0755  0.6741
 2352SOL    HW3 9454   3.373   3.591   3.726  0.4895  0.8318 -0.1704
 2352SOL    MW4 9455   3.369   3.618   3.809 -0.3748  0.1485  0.0062
 2353SOL     OW 9456   3.389   3.885   3.854 -0.7126  0.0265 -0.6203
 2353SOL    HW2 9457   3.462   3.935   3.819 -0.5557  1.1532  1.2424
 2353SOL    HW3 9458   3.311   3.921   3.811 -0.5913  1.8570  0.6692
 2353SOL    MW4 9459   3.388   3.896   3.844 -0.6757  0.4165 -0.2043
 2354SOL     OW 9460   3.120   4.013   3.790  0.2404  0.4395 -0.1918
 2354SOL    HW2 9461   3.117   4.102   3.825 -0.6839  1.4510 -2.6614
 2354SOL    HW3 9462   3.039   3.972   3.820 -0.9782  1.5878 -1.8138
 2354SOL    MW4 9463   3.109   4.019   3.798 -0.0420  0.7243 -0.7319
 2355SOL     OW 9464   3.138   4.275   3.867 -0.3060 -0.3738 -0.0654
 2355SOL    HW2 9465   3.139   4.270   3.963  0.4518 -0.0025 -0.0447
 2355SOL    HW3 9466   3.224   4.311   3.845 -1.0971  1.1387 -0.7810
 2355SOL    MW4 9467   3.149   4.279   3.877 -0.3107 -0.1259 -0.1574
 2356SOL     OW 9468   3.387   4.393   3.765  0.4773  0.1045  0.2717
 2356SOL    HW2 9469   3.473   4.366   3.795  0.2900 -1.0188 -0.1913
 2356SOL    HW3 9470   3.372   4.477   3.808  2.0459  0.5918 -0.1001
 2356SOL    MW4 9471   3.396   4.401   3.774  0.6595  0.0205  0.1614
 2357SOL     OW 9472   3.810   4.648   3.829  0.0190  0.3394 -0.1096
 2357SOL    HW2 9473   3.884   4.693   3.788 -0.2520  0.8790  0.0001
 2357SOL    HW3 9474   3.821   4.557   3.801  0.5446  0.4712 -0.3576
 2357SOL    MW4 9475   3.822   4.642   3.820  0.0527  0.4277 -0.1276
 2358SOL     OW 9476   3.586   0.149   3.777  0.1073  0.5944 -0.0240
 2358SOL    HW2 9477   3.659   0.089   3.782 -1.0301 -0.7277  0.9425
 2358SOL    HW3 9478   3.567   0.156   3.683  0.3711 -0.4003 -0.1522
 2358SOL    MW4 9479   3.593   0.142   3.765 -0.0081  0.2887  0.0863
 2359SOL     OW 9480   3.590   0.381   3.958  0.0555  0.0665 -0.7997
 2359SOL    HW2 9481   3.655   0.428   3.906 -1.8000 -0.2207 -3.4404
 2359SOL    HW3 9482   3.583   0.295   3.917 -0.7218 -0.5238  0.5289
 2359SOL    MW4 9483   3.598   0.376   3.946 -0.2918 -0.0493 -0.9725
 2360SOL     OW 9484   3.782   0.518   3.818  0.1568  0.2663 -0.0953
 2360SOL    HW2 9485   3.863   0.480   3.851 -0.9033 -1.1641  0.9150
 2360SOL    HW3 9486   3.786   0.610   3.843  1.2792  0.1094  0.3079
 2360SOL    MW4 9487   3.793   0.525   3.826  0.1652  0.0569  0.0911
 2361SOL     OW 9488   3.814   0.783   3.909  0.2116 -0.2754 -0.2157
 2361SOL    HW2 9489   3.894   0.834   3.891  0.7785 -1.1874 -0.3003
 2361SOL    HW3 9490   3.744   0.834   3.869  0.5933  1.1379  0.8757
 2361SOL    MW4 9491   3.816   0.797   3.901  0.3369 -0.2093 -0.0830
 2362SOL     OW 9492   3.571   0.884   3.780  0.0242  0.3339  0.2064
 2362SOL    HW2 9493   3.585   0.970   3.821 -0.9530  0.4386  0.3446
 2362SOL    HW3 9494   3.507   0.841   3.837 -0.3524 -0.0352 -0.4987
 2362SOL    MW4 9495   3.564   0.890   3.793 -0.1545  0.2990  0.1316
 2363SOL     OW 9496   3.584   1.129   3.913  0.1141 -0.1255  0.0179
 2363SOL    HW2 9497   3.660   1.177   3.881  0.2159  0.2272  0.7939
 2363SOL    HW3 9498   3.510   1.168   3.866  0.3461 -0.1028 -0.3333
 2363SOL    MW4 9499   3.584   1.140   3.902  0.1581 -0.0761  0.0741
 2364SOL     OW 9500   3.800   1.284   3.810  0.4803 -0.2477 -0.3739
 2364SOL    HW2 9501   3.876   1.248   3.856  0.6667 -0.9814 -1.2499
 2364SOL    HW3 9502   3.789   1.371   3.848  0.9764 -0.6174  0.6678
 2364SOL    MW4 9503   3.809   1.291   3.821  0.5703 -0.3934 -0.3521
 2365SOL     OW 9504   3.784   1.556   3.895 -0.3852  0.8530 -0.0916
 2365SOL    HW2 9505   3.794   1.539   3.989 -0.9708  1.3724  0.0644
 2365SOL    HW3 9506   3.699   1.599   3.887 -1.0805 -0.6177 -1.0350
 2365SOL    MW4 9507   3.774   1.559   3.907 -0.5541  0.7275 -0.1957
 2366SOL     OW 9508   3.561   1.687   3.801  0.4494 -0.2693  0.1458
 2366SOL    HW2 9509   3.495   1.629   3.840 -1.9289  1.4564 -1.2265
 2366SOL    HW3 9510   3.547   1.679   3.707  1.5538  0.8700 -0.1238
 2366SOL    MW4 9511   3.551   1.678   3.794  0.2813  0.1086 -0.0706
 2367SOL     OW 9512   3.572   1.962   3.855  0.0208 -0.1212 -0.1587
 2367SOL    HW2 9513   3.576   1.869   3.832 -0.6014 -0.1510 -0.1535
 2367SOL    HW3 9514   3.490   1.992   3.817  0.3643  0.4976 -0.4130
 2367SOL    MW4 9515   3.562   1.954   3.847 -0.0160 -0.0435 -0.1915
 2368SOL     OW 9516   3.799   2.067   3.717  0.2801 -0.4891 -0.4495
 2368SOL    HW2 9517   3.879   2.025   3.747  0.6970  0.0036 -0.8812
 2368SOL    HW3 9518   3.730   2.024   3.768  0.9340 -0.0033  0.8738
 2368SOL    MW4 9519   3.800   2.056   3.728  0.4213 -0.3600 -0.3319
 2369SOL     OW 9520   3.824   2.316   3.865 -0.3039  0.2848 -0.3407
 2369SOL    HW2 9521   3.753   2.368   3.828 -0.3812  0.6174  0.2683
 2369SOL    HW3 9522   3.819   2.233   3.818 -1.0320  0.3410 -0.3758
 2369SOL    MW4 9523   3.814   2.312   3.854 -0.4101  0.3362 -0.2649
 2370SOL     OW 9524   3.614   2.474   3.765  0.3718 -0.3264 -0.4863
 2370SOL    HW2 9525   3.532   2.429   3.784  0.7264 -0.9653 -0.4544
 2370SOL    HW3 9526   3.631   2.454   3.673  1.0377 -1.0909 -0.2082
 2370SOL    MW4 9527   3.605   2.465   3.755  0.5066 -0.5114 -0.4454
 2371SOL     OW 9528   3.610   2.707   3.914 -0.1690  0.0228 -0.1108
 2371SOL    HW2 9529   3.610   2.622   3.872  0.3169 -0.7687  1.4398
 2371SOL    HW3 9530   3.524   2.744   3.896 -0.8139 -1.3135  0.2344
 2371SOL    MW4 9531   3.599   2.701   3.906 -0.1898 -0.2582  0.1392
 2372SOL     OW 9532   3.804   2.834   3.750 -0.2530  0.0455  0.2361
 2372SOL    HW2 9533   3.884   2.788   3.774  0.7801  2.0636  0.7755
 2372SOL    HW3 9534   3.735   2.794   3.803  0.8103 -0.1945  1.4444
 2372SOL    MW4 9535   3.805   2.823   3.760  0.0231  0.2804  0.4668
 2373SOL     OW 9536   3.816   3.056   3.906 -0.4021 -0.5722 -0.2417
 2373SOL    HW2 9537   3.738   3.095   3.867  0.9355  1.0799 -1.2982
 2373SOL    HW3 9538   3.830   2.975   3.855 -1.8327 -1.2687  0.4436
 2373SOL    MW4 9539   3.808   3.050   3.894 -0.4144 -0.4461 -0.2904
 2374SOL     OW 9540   3.592   3.187   3.808 -0.5160 -0.0180  0.0775
 2374SOL    HW2 9541   3.595   3.278   3.840 -0.2316  0.1391 -0.3924
 2374SOL    HW3 9542   3.591   3.196   3.713 -1.4432 -0.4833  0.0354
 2374SOL    MW4 9543   3.592   3.200   3.800 -0.6008 -0.0587  0.0100
 2375SOL     OW 9544   3.584   3.448   3.880 -0.1206  0.1784  0.4632
 2375SOL    HW2 9545   3.600   3.459   3.974 -1.3032  0.9649  0.5765
 2375SOL    HW3 9546   3.498   3.488   3.865  0.1727  0.2925 -0.9948
 2375SOL    MW4 9547   3.575   3.455   3.891 -0.2382  0.2975  0.2859
 2376SOL     OW 9548   3.813   3.575   3.743  0.1608 -0.1651 -0.3550
 2376SOL    HW2 9549   3.808   3.665   3.775 -0.3966  0.3963 -1.9679
 2376SOL    HW3 9550   3.742   3.530   3.788 -0.2440  0.4698 -0.3410
 2376SOL    MW4 9551   3.803   3.581   3.753  0.0336 -0.0072 -0.5660
 2377SOL     OW 9552   3.802   3.840   3.843  0.2371 -0.2462 -0.4811
 2377SOL    HW2 9553   3.793   3.859   3.936  0.5205  0.1557 -0.5330
 2377SOL    HW3 9554   3.882   3.886   3.817  0.5185 -0.8901 -0.7795
 2377SOL    MW4 9555   3.812   3.848   3.852  0.3114 -0.2780 -0.5274
 2378SOL     OW 9556   3.609   4.014   3.761 -0.3036  0.1259  0.0105
 2378SOL    HW2 9557   3.620   4.098   3.806  0.5182  0.9766 -1.7350
 2378SOL    HW3 9558   3.683   3.961   3.792  0.7351  0.9897 -0.9549
 2378SOL    MW4 9559   3.620   4.018   3.771 -0.0582  0.3519 -0.3471
 2379SOL     OW 9560   3.621   4.279   3.845  0.0880 -0.1207  0.2400
 2379SOL    HW2 9561   3.620   4.282   3.940 -1.5787  2.4487  0.2044
 2379SOL    HW3 9562   3.711   4.300   3.820  0.1758  0.6501  1.2223
 2379SOL    MW4 9563   3.632   4.282   3.854 -0.1204  0.3195  0.3648
 2380SOL     OW 9564   3.866   4.395   3.773  0.0204  0.2652  0.0975
 2380SOL    HW2 9565   3.938   4.339   3.802 -0.4277 -0.6896 -0.6216
 2380SOL    HW3 9566   3.867   4.387   3.677 -0.5117  0.9085  0.0369
 2380SOL    MW4 9567   3.876   4.387   3.764 -0.1090  0.2241 -0.0055
 2381SOL     OW 9568   4.227   4.633   3.885 -0.1290  0.6126 -0.3677
 2381SOL    HW2 9569   4.220   4.625   3.980  0.6140 -0.4616 -0.3944
 2381SOL    HW3 9570   4.312   4.674   3.871  0.2883 -0.2996 -0.5945
 2381SOL    MW4 9571   4.238   4.637   3.896  0.0248  0.3505 -0.4013
 2382SOL     OW 9572   4.034   0.154   3.806 -1.1300  0.1216  0.5615
 2382SOL    HW2 9573   4.091   0.085   3.840 -1.9204 -0.8088  0.0123
 2382SOL    HW3 9574   4.044   0.149   3.711  1.6916  3.2418  0.6045
 2382SOL    MW4 9575   4.043   0.144   3.798 -0.8616  0.4105  0.4947
 2383SOL     OW 9576   4.018   0.398   3.908 -0.1378 -0.0426 -0.0394
 2383SOL    HW2 9577   4.020   0.386   4.003 -1.1878 -0.3644 -0.0604
 2383SOL    HW3 9578   4.007   0.310   3.873  0.3001  0.0690 -0.4650
 2383SOL    MW4 9579   4.017   0.385   3.916 -0.2189 -0.0703 -0.0982
 2384SOL     OW 9580   4.261   0.506   3.812  0.1591 -0.3998 -0.0551
 2384SOL    HW2 9581   4.177   0.478   3.847 -0.0706  1.1105  0.6525
 2384SOL    HW3 9582   4.256   0.487   3.719 -0.4505 -1.5377  0.2039
 2384SOL    MW4 9583   4.249   0.500   3.804  0.0482 -0.3506  0.0725
 2385SOL     OW 9584   4.287   0.770   3.920 -0.1754 -0.0251  0.3069
 2385SOL    HW2 9585   4.207   0.817   3.895 -0.0566  0.8640  1.5055
 2385SOL    HW3 9586   4.275   0.682   3.886 -0.9141  0.5676 -1.0173
 2385SOL    MW4 9587   4.275   0.765   3.912 -0.2570  0.1704  0.2904
 2386SOL     OW 9588   4.061   0.908   3.872 -0.2337 -0.1553 -0.3414
 2386SOL    HW2 9589   4.048   0.998   3.902  2.1864 -0.0212  0.4236
 2386SOL    HW3 9590   4.058   0.914   3.777 -2.6644  0.2965 -0.2625
 2386SOL    MW4 9591   4.059   0.921   3.864 -0.2346 -0.0780 -0.2298
 2387SOL     OW 9592   4.012   1.173   3.951 -0.3528 -0.0321  0.3985
 2387SOL    HW2 9593   4.018   1.166   4.046  1.2877 -0.2084  0.2941
 2387SOL    HW3 9594   4.096   1.210   3.924 -0.9017  0.2651 -0.9644
 2387SOL    MW4 9595   4.024   1.177   3.960 -0.2089 -0.0162  0.2048
 2388SOL     OW 9596   4.228   1.303   3.844  0.5320  0.1203 -0.6122
 2388SOL    HW2 9597   4.220   1.394   3.874  0.5778  0.1272 -0.6210
 2388SOL    HW3 9598   4.224   1.308   3.749 -0.2399  0.0380 -0.5854
 2388SOL    MW4 9599   4.227   1.316   3.836  0.4363  0.1104 -0.6099
 2389SOL     OW 9600   4.219   1.570   3.918 -0.2017  0.0356 -0.0683
 2389SOL    HW2 9601   4.141   1.602   3.873  0.3802  2.0196  0.2927
 2389SOL    HW3 9602   4.292   1.600   3.864  0.4057  0.2890  0.8803
 2389SOL    MW4 9603   4.219   1.578   3.905 -0.0453  0.3308  0.1044
 2390SOL     OW 9604   3.997   1.662   3.752  0.3697  0.4218  0.2088
 2390SOL    HW2 9605   3.993   1.754   3.778  0.4771  0.3604  0.4371
 2390SOL    HW3 9606   3.925   1.620   3.798  0.7865  0.2416  0.7020
 2390SOL    MW4 9607   3.987   1.669   3.761  0.4387  0.3901  0.3037
 2391SOL     OW 9608   4.001   1.920   3.825  0.0661  0.1840 -0.5673
 2391SOL    HW2 9609   3.979   1.915   3.917  0.1021 -0.8295 -0.6113
 2391SOL    HW3 9610   4.080   1.976   3.822  0.0402  0.2481  0.0025
 2391SOL    MW4 9611   4.009   1.927   3.837  0.0677  0.0588 -0.4983
 2392SOL     OW 9612   4.236   2.032   3.771 -0.0278 -0.1527 -0.1109
 2392SOL    HW2 9613   4.276   2.113   3.804 -0.5834 -0.3771  1.1719
 2392SOL    HW3 9614   4.246   2.036   3.676 -0.6830  1.7660 -0.1113
 2392SOL    MW4 9615   4.243   2.043   3.763 -0.1869  0.0710  0.0584
 2393SOL     OW 9616   4.288   2.295   3.859 -0.5456 -0.0637  0.4132
 2393SOL    HW2 9617   4.282   2.302   3.954 -1.8838  0.9696  0.2815
 2393SOL    HW3 9618   4.210   2.341   3.827  0.0247 -0.1657 -1.1876
 2393SOL    MW4 9619   4.277   2.302   3.867 -0.6475  0.0591  0.1845
 2394SOL     OW 9620   4.053   2.449   3.781  0.7123  0.1279 -0.6145
 2394SOL    HW2 9621   4.038   2.541   3.800  2.2121  0.2607  0.0116
 2394SOL    HW3 9622   3.969   2.406   3.798 -0.2647  1.5135 -1.8691
 2394SOL    MW4 9623   4.040   2.455   3.786  0.7820  0.3281 -0.6976
 2395SOL     OW 9624   4.034   2.718   3.847  0.5743  0.3395 -0.2943
 2395SOL    HW2 9625   4.016   2.726   3.941 -0.3365  0.9831 -0.5219
 2395SOL    HW3 9626   4.120   2.759   3.835 -0.1778  2.0131 -0.0510
 2395SOL    MW4 9627   4.043   2.724   3.858  0.3548  0.6452 -0.2923
 2396SOL     OW 9628   4.294   2.806   3.793  0.2615  0.8557 -0.1098
 2396SOL    HW2 9629   4.282   2.888   3.841 -0.3589  0.0522  1.1400
 2396SOL    HW3 9630   4.359   2.758   3.844 -1.0523 -0.3822  0.4485
 2396SOL    MW4 9631   4.301   2.811   3.806  0.0067  0.5865  0.1287
 2397SOL     OW 9632   4.261   3.074   3.912 -0.2721 -0.1716 -0.2054
 2397SOL    HW2 9633   4.189   3.125   3.874  0.6257  1.5394  0.3161
 2397SOL    HW3 9634   4.338   3.098   3.861  0.2009 -0.9034  0.1520
 2397SOL    MW4 9635   4.262   3.084   3.900 -0.0916 -0.0427 -0.0892
 2398SOL     OW 9636   4.044   3.207   3.800  0.2436 -0.4167  0.4900
 2398SOL    HW2 9637   3.967   3.155   3.822 -0.4636  0.8507  1.0834
 2398SOL    HW3 9638   4.034   3.226   3.706  0.9645 -2.0794  0.0676
 2398SOL    MW4 9639   4.032   3.203   3.790  0.2451 -0.4690  0.5124
 2399SOL     OW 9640   4.017   3.463   3.884 -0.3766 -0.1696  0.0104
 2399SOL    HW2 9641   4.027   3.375   3.848  0.0598 -0.0378 -0.1901
 2399SOL    HW3 9642   3.944   3.501   3.834 -1.5197 -0.9133  1.0622
 2399SOL    MW4 9643   4.008   3.457   3.873 -0.4697 -0.2506  0.1230
 2400SOL     OW 9644   4.236   3.595   3.787 -0.2399  0.2681  0.5993
 2400SOL    HW2 9645   4.158   3.560   3.829 -0.4788 -0.6121 -0.5598
 2400SOL    HW3 9646   4.308   3.547   3.828 -0.3288  0.8008  1.3866
 2400SOL    MW4 9647   4.236   3.584   3.798 -0.2832  0.2222  0.5505
 2401SOL     OW 9648   4.274   3.855   3.862  0.4212  0.3275  0.2633
 2401SOL    HW2 9649   4.196   3.904   3.834 -0.3821 -1.1159 -0.0913
 2401SOL    HW3 9650   4.254   3.764   3.840  1.8300 -0.1853  1.0421
 2401SOL    MW4 9651   4.261   3.849   3.855  0.5007  0.0694  0.3192
 2402SOL     OW 9652   4.036   3.968   3.752 -0.1013 -0.1545 -0.1512
 2402SOL    HW2 9653   4.044   4.060   3.777  0.2382 -0.0336 -0.6998
 2402SOL    HW3 9654   4.038   3.969   3.657 -0.9694 -0.6520 -0.1733
 2402SOL    MW4 9655   4.038   3.981   3.743 -0.1707 -0.2043 -0.2265
 2403SOL     OW 9656   4.067   4.224   3.847  0.1667  0.1424 -0.2645
 2403SOL    HW2 9657   4.078   4.242   3.941  0.4557  0.0098 -0.2705
 2403SOL    HW3 9658   4.133   4.278   3.804  1.0946 -0.9677 -0.2745
 2403SOL    MW4 9659   4.077   4.233   3.854  0.3276 -0.0219 -0.2666
 2404SOL     OW 9660   4.261   4.386   3.755  0.1806  0.0166  0.0794
 2404SOL    HW2 9661   4.239   4.464   3.807 -0.4726 -0.7904  1.0334
 2404SOL    HW3 9662   4.334   4.346   3.802  1.0067  0.4497 -0.8223
 2404SOL    MW4 9663   4.268   4.391   3.768  0.2041 -0.0329  0.0863
 2405SOL     OW 9664   0.188   4.625   4.180  0.4748  0.2952 -0.1773
 2405SOL    HW2 9665   0.200   4.539   4.220  0.8582  0.6963  0.5817
 2405SOL    HW3 9666   0.245   4.683   4.230  1.8466  0.5944 -2.0621
 2405SOL    MW4 9667   0.197   4.622   4.192  0.7063  0.3872 -0.3257
 2406SOL     OW 9668   4.456   0.319   4.195  0.0595 -0.0288 -0.3205
 2406SOL    HW2 9669   4.437   0.319   4.101  0.1207 -0.0961 -0.3328
 2406SOL    HW3 9670   4.465   0.227   4.218 -0.5078 -0.0388 -0.1361
 2406SOL    MW4 9671   4.455   0.307   4.186 -0.0072 -0.0390 -0.2975
 2407SOL     OW 9672   1.644   1.597   4.508  0.7079  0.1537  0.2299
 2407SOL    HW2 9673   1.604   1.684   4.508 -0.2479 -0.2849  0.0551
 2407SOL    HW3 9674   1.717   1.605   4.570 -0.1701  0.7279  1.2203
 2407SOL    MW4 9675   1.648   1.610   4.516  0.4660  0.1715  0.3376
 2408SOL     OW 9676   0.197   0.489   4.247 -0.0643 -0.0810 -0.0278
 2408SOL    HW2 9677   0.186   0.500   4.342 -0.3938  0.1410 -0.0922
 2408SOL    HW3 9678   0.126   0.430   4.222 -0.5871  0.6485 -0.2946
 2408SOL    MW4 9679   0.186   0.483   4.257 -0.1768  0.0446 -0.0720
 2409SOL     OW 9680   0.236   0.753   4.140 -0.1980  0.6087  0.2741
 2409SOL    HW2 9681   0.223   0.669   4.185 -0.1231  0.6001  0.2801
 2409SOL    HW3 9682   0.319   0.786   4.176  0.0582  0.4233 -0.1374
 2409SOL    MW4 9683   0.246   0.746   4.151 -0.1543  0.5832  0.2198
 2410SOL     OW 9684   2.280   1.763   4.523  0.2981  0.4295 -0.4893
 2410SOL    HW2 9685   2.280   1.745   4.429  2.7583  0.1883 -0.4660
 2410SOL    HW3 9686   2.196   1.806   4.539 -0.6534 -0.5726 -2.5881
 2410SOL    MW4 9687   2.269   1.766   4.513  0.4971  0.2654 -0.7629
 2411SOL     OW 9688   0.016   1.168   4.175  0.1388  0.2267  0.5977
 2411SOL    HW2 9689   0.006   1.170   4.080  0.2941  1.0759  0.5988
 2411SOL    HW3 9690   0.001   1.076   4.199  0.9655 -0.1516 -0.3352
 2411SOL    MW4 9691   0.013   1.156   4.166  0.2683  0.2888  0.4745
 2412SOL     OW 9692   0.578   0.910   4.609  0.4626 -0.4740 -0.2661
 2412SOL    HW2 9693   0.570   1.000   4.639 -1.3260 -1.4849  2.4367
 2412SOL    HW3 9694   0.494   0.891   4.568  0.7406 -1.0035 -0.5965
 2412SOL    MW4 9695   0.566   0.919   4.608  0.2633 -0.6773  0.0467
 2413SOL     OW 9696   4.193   4.238   4.525  0.1579 -0.0962  0.2424
 2413SOL    HW2 9697   4.173   4.306   4.588 -1.7105 -0.5091  0.1050
 2413SOL    HW3 9698   4.254   4.179   4.571 -0.9699 -0.2452  1.5553
 2413SOL    MW4 9699   4.199   4.239   4.539 -0.2379 -0.1702  0.3972
 2414SOL     OW 9700   0.248   2.550   4.525 -0.1496  0.8932  0.3562
 2414SOL    HW2 9701   0.161   2.510   4.526  0.3806 -0.2725  0.4981
 2414SOL    HW3 9702   0.309   2.476   4.524  0.8614  1.6992  1.1971
 2414SOL    MW4 9703   0.245   2.535   4.525  0.0537  0.8457  0.4859
 2415SOL     OW 9704   2.119   2.861   4.566  0.5188 -0.1250  0.0254
 2415SOL    HW2 9705   2.137   2.766   4.566 -1.6425 -0.5804 -2.0329
 2415SOL    HW3 9706   2.205   2.901   4.553  1.4357 -1.8235  0.6513
 2415SOL    MW4 9707   2.133   2.853   4.564  0.3543 -0.4091 -0.1636
 2416SOL     OW 9708   0.670   0.405   4.557  0.0054 -0.4448  0.1582
 2416SOL    HW2 9709   0.601   0.420   4.621  1.1685 -0.7031  1.4951
 2416SOL    HW3 9710   0.735   0.473   4.575 -1.2804  1.7678 -3.1236
 2416SOL    MW4 9711   0.670   0.416   4.568 -0.0108 -0.1870 -0.0982
 2417SOL     OW 9712   0.222   3.041   4.639  0.5516  0.4919 -0.2477
 2417SOL    HW2 9713   0.221   3.026   4.733  1.4014  1.0245 -0.1492
 2417SOL    HW3 9714   0.143   3.092   4.622  1.1394  1.6487  0.4010
 2417SOL    MW4 9715   0.211   3.045   4.649  0.7413  0.7148 -0.1488
 2418SOL     OW 9716   1.617   2.416   4.853 -0.0409  0.3856  0.2350
 2418SOL    HW2 9717   1.563   2.427   4.931  0.1216  0.5376  0.3271
 2418SOL    HW3 9718   1.562   2.448   4.781 -0.5740 -0.7114  0.1527
 2418SOL    MW4 9719   1.603   2.422   4.854 -0.0899  0.2606  0.2360
 2419SOL     OW 9720   4.067   3.225   4.541 -0.2111  0.0398  0.0644
 2419SOL    HW2 9721   4.063   3.316   4.570  0.4509 -0.4488  1.7520
 2419SOL    HW3 9722   4.000   3.181   4.593  0.2998 -0.6691  0.1234
 2419SOL    MW4 9723   4.057   3.231   4.552 -0.0567 -0.1183  0.2952
 2420SOL     OW 9724   0.218   1.509   4.181 -0.2377 -0.0567 -0.3733
 2420SOL    HW2 9725   0.219   1.429   4.234  0.6162 -0.8079 -1.5023
 2420SOL    HW3 9726   0.286   1.565   4.219 -0.7235  0.0729  0.3137
 2420SOL    MW4 9727   0.227   1.506   4.193 -0.1891 -0.1386 -0.4315
 2421SOL     OW 9728   0.238   3.084   4.152  0.3133 -0.8806 -0.1573
 2421SOL    HW2 9729   0.160   3.106   4.203 -1.6261 -1.3094 -2.8163
 2421SOL    HW3 9730   0.311   3.124   4.200 -1.7473  1.0953  1.4159
 2421SOL    MW4 9731   0.237   3.092   4.165 -0.2144 -0.6762 -0.3009
 2422SOL     OW 9732   0.008   3.147   4.278 -0.0763  0.0882  0.2132
 2422SOL    HW2 9733   0.004   3.236   4.243  0.8413  0.1102  0.1586
 2422SOL    HW3 9734  -0.070   3.104   4.243 -0.1386  0.6566 -0.3567
 2422SOL    MW4 9735  -0.003   3.153   4.269  0.0367  0.1659  0.1311
 2423SOL     OW 9736   4.481   3.407   4.160 -0.2250 -0.3164 -0.3700
 2423SOL    HW2 9737   4.405   3.454   4.194  0.8331  1.9916 -1.1395
 2423SOL    HW3 9738   4.473   3.412   4.065  1.8737  1.6613 -0.4908
 2423SOL    MW4 9739   4.470   3.414   4.152  0.1917  0.2491 -0.4873
 2424SOL     OW 9740   4.471   3.959   4.223  0.3297 -0.2153 -0.0092
 2424SOL    HW2 9741   4.543   3.901   4.199 -0.4542 -1.5411  0.7699
 2424SOL    HW3 9742   4.457   3.942   4.316 -0.3683  0.7199  0.0617
 2424SOL    MW4 9743   4.479   3.949   4.232  0.1340 -0.2666  0.1030
 2425SOL     OW 9744   4.266   1.286   4.269  0.3051 -0.5513 -0.0900
 2425SOL    HW2 9745   4.261   1.377   4.239  0.4764 -0.7610 -0.7724
 2425SOL    HW3 9746   4.349   1.253   4.235 -0.8019 -1.6464 -1.8548
 2425SOL    MW4 9747   4.276   1.293   4.260  0.1812 -0.7235 -0.4125
 2426SOL     OW 9748   2.118   0.694   4.743  0.0911  0.2703  0.6532
 2426SOL    HW2 9749   2.213   0.704   4.750  0.2872 -0.2452 -1.0272
 2426SOL    HW3 9750   2.087   0.778   4.709  0.1213 -0.0582 -0.1964
 2426SOL    MW4 9751   2.126   0.706   4.739  0.1209  0.1589  0.3195
 2427SOL     OW 9752   4.092   0.723   4.551  0.9727 -0.0224 -0.3611
 2427SOL    HW2 9753   4.107   0.770   4.470  2.0611  0.7731  0.2897
 2427SOL    HW3 9754   4.175   0.681   4.571  0.2165 -1.6592 -0.5598
 2427SOL    MW4 9755   4.105   0.724   4.543  1.0166 -0.1334 -0.3014
 2428SOL     OW 9756   0.187   3.775   4.130 -0.0024 -0.5444 -0.2449
 2428SOL    HW2 9757   0.178   3.710   4.201 -1.5131  0.1280  0.2035
 2428SOL    HW3 9758   0.269   3.821   4.150 -0.4785 -0.2812  1.1446
 2428SOL    MW4 9759   0.197   3.772   4.142 -0.2646 -0.4210 -0.0033
 2429SOL     OW 9760   3.825   4.435   4.421  0.5935  0.2473 -0.3215
 2429SOL    HW2 9761   3.836   4.399   4.333 -0.9101  0.5542 -0.6418
 2429SOL    HW3 9762   3.811   4.359   4.477  1.5195  0.0531 -0.3375
 2429SOL    MW4 9763   3.825   4.421   4.417  0.5169  0.2623 -0.3657
 2430SOL     OW 9764   0.651   4.560   4.206 -0.0747 -0.1518  0.0550
 2430SOL    HW2 9765   0.657   4.465   4.215  0.0031 -0.0479  1.1625
 2430SOL    HW3 9766   0.660   4.576   4.112 -0.2305 -1.2480 -0.1486
 2430SOL    MW4 9767   0.653   4.550   4.195 -0.0850 -0.2823  0.1740
 2431SOL     OW 9768   0.938   1.561   4.531 -0.5386  0.0666  0.2385
 2431SOL    HW2 9769   1.032   1.555   4.515 -0.7698  0.2981 -1.2667
 2431SOL    HW3 9770   0.916   1.480   4.576  0.1109 -0.7005 -0.8125
 2431SOL    MW4 9771   0.948   1.550   4.535 -0.4834 -0.0042 -0.0987
 2432SOL     OW 9772   1.304   1.653   4.280 -0.2116 -0.1174 -0.0294
 2432SOL    HW2 9773   1.235   1.613   4.226 -0.3174 -0.0581  0.0625
 2432SOL    HW3 9774   1.283   1.627   4.369  0.4215 -0.8807 -0.1039
 2432SOL    MW4 9775   1.292   1.645   4.284 -0.1420 -0.2102 -0.0267
 2433SOL     OW 9776   0.444   0.860   4.295  0.1632  0.2838 -0.8070
 2433SOL    HW2 9777   0.524   0.814   4.272  0.2680  0.0484  0.0018
 2433SOL    HW3 9778   0.457   0.949   4.264  0.8633  0.3229 -0.3986
 2433SOL    MW4 9779   0.456   0.866   4.288  0.2694  0.2578 -0.6466
 2434SOL     OW 9780   0.864   2.670   4.601  0.1177 -0.5458  0.3586
 2434SOL    HW2 9781   0.920   2.721   4.660 -1.8964 -0.1210  1.9797
 2434SOL    HW3 9782   0.795   2.731   4.575 -0.3543 -1.4466 -0.5237
 2434SOL    MW4 9783   0.862   2.685   4.606 -0.2102 -0.6087  0.4563
 2435SOL     OW 9784   2.579   4.493   4.682  0.3452  0.2893 -0.2136
 2435SOL    HW2 9785   2.535   4.577   4.668 -1.3284  0.2813  4.0736
 2435SOL    HW3 9786   2.519   4.428   4.647  0.1156  0.7048 -0.5874
 2435SOL    MW4 9787   2.565   4.496   4.676  0.0939  0.3433  0.3033
 2436SOL     OW 9788   0.245   1.266   4.300 -0.1130  0.0635 -0.0621
 2436SOL    HW2 9789   0.303   1.213   4.245 -1.0061 -1.2966  0.2702
 2436SOL    HW3 9790   0.157   1.237   4.276 -0.6082  1.3069  0.2351
 2436SOL    MW4 9791   0.241   1.255   4.290 -0.2962  0.0483  0.0215
 2437SOL     OW 9792   0.646   1.569   4.147 -0.1112  0.0105 -0.0450
 2437SOL    HW2 9793   0.567   1.611   4.179 -0.1504 -0.1033  0.0087
 2437SOL    HW3 9794   0.643   1.581   4.052 -0.8140 -1.0603 -0.1704
 2437SOL    MW4 9795   0.635   1.576   4.139 -0.2091 -0.1458 -0.0544
 2438SOL     OW 9796   0.399   1.410   4.800  0.0990 -0.1146 -0.2865
 2438SOL    HW2 9797   0.326   1.421   4.738  0.1464 -1.4226 -0.5884
 2438SOL    HW3 9798   0.359   1.419   4.886 -0.3216 -0.2460 -0.4664
 2438SOL    MW4 9799   0.384   1.413   4.803  0.0498 -0.3045 -0.3495
 2439SOL     OW 9800   0.407   1.677   4.264 -0.2542  0.1806  0.1070
 2439SOL    HW2 9801   0.432   1.682   4.356  2.1576 -0.0653 -0.4881
 2439SOL    HW3 9802   0.406   1.768   4.234 -0.5963  0.2282  0.2629
 2439SOL    MW4 9803   0.410   1.690   4.272  0.0188  0.1544  0.0491
 2440SOL     OW 9804   0.888   1.655   4.263  0.3073 -0.2021  0.3606
 2440SOL    HW2 9805   0.807   1.615   4.232  0.0526 -0.3094  1.1634
 2440SOL    HW3 9806   0.904   1.616   4.349  0.9931  0.1169  0.3876
 2440SOL    MW4 9807   0.880   1.645   4.270  0.3642 -0.1740  0.4702
 2441SOL     OW 9808   0.712   2.318   4.172  0.2258 -0.0039 -0.2134
 2441SOL    HW2 9809   0.710   2.229   4.207 -0.2038  0.1596  0.1742
 2441SOL    HW3 9810   0.723   2.305   4.077  0.6367 -0.4571 -0.1039
 2441SOL    MW4 9811   0.713   2.304   4.164  0.2233 -0.0422 -0.1483
 2442SOL     OW 9812   0.231   2.331   4.164  0.2149  0.1857 -0.2199
 2442SOL    HW2 9813   0.224   2.240   4.192  0.6999 -0.2838 -1.5978
 2442SOL    HW3 9814   0.312   2.363   4.203  0.3734 -0.1582 -0.2723
 2442SOL    MW4 9815   0.240   2.323   4.173  0.2998  0.0784 -0.4086
 2443SOL     OW 9816   0.504   2.703   4.135 -0.3234 -0.1094  0.1353
 2443SOL    HW2 9817   0.475   2.688   4.045 -0.5631  0.7916  0.0618
 2443SOL    HW3 9818   0.432   2.751   4.175  0.5135  0.9757  0.3284
 2443SOL    MW4 9819   0.491   2.707   4.128 -0.2446  0.1528  0.1512
 2444SOL     OW 9820   0.726   2.815   4.255 -0.7059 -0.0406 -0.1491
 2444SOL    HW2 9821   0.806   2.781   4.215 -0.2740 -0.2060  0.8391
 2444SOL    HW3 9822   0.656   2.770   4.208 -0.1762 -1.1948  0.1359
 2444SOL    MW4 9823   0.728   2.805   4.243 -0.5791 -0.2148  0.0186
 2445SOL     OW 9824   1.813   2.221   4.818 -0.2163 -0.5037  0.8262
 2445SOL    HW2 9825   1.731   2.264   4.842  0.3302  0.0556  1.7173
 2445SOL    HW3 9826   1.821   2.237   4.724 -0.5997  0.3540  0.9285
 2445SOL    MW4 9827   1.803   2.229   4.809 -0.1947 -0.3166  0.9575
 2446SOL     OW 9828   1.523   2.869   4.292  0.2317  0.0773  0.3054
 2446SOL    HW2 9829   1.603   2.821   4.271 -0.3892 -1.0792  0.5381
 2446SOL    HW3 9830   1.527   2.948   4.239  1.4840 -0.0194  0.2502
 2446SOL    MW4 9831   1.534   2.873   4.282  0.3151 -0.0880  0.3295
 2447SOL     OW 9832   0.451   3.441   4.175  0.2079 -0.5672 -0.0478
 2447SOL    HW2 9833   0.376   3.481   4.219  1.0368 -0.0205  0.8909
 2447SOL    HW3 9834   0.427   3.442   4.082 -0.6656  0.2023  0.1715
 2447SOL    MW4 9835   0.438   3.447   4.168  0.2020 -0.3936  0.1049
 2448SOL     OW 9836   0.401   3.903   4.230  0.2123  0.1878 -0.0089
 2448SOL    HW2 9837   0.401   3.993   4.197 -0.6463  0.7441  1.4343
 2448SOL    HW3 9838   0.396   3.913   4.325 -3.2217 -1.3848  0.0535
 2448SOL    MW4 9839   0.400   3.916   4.238 -0.3541  0.0536  0.1898
 2449SOL     OW 9840   0.896   3.230   4.277 -0.0471 -0.3448 -0.5261
 2449SOL    HW2 9841   0.983   3.198   4.255  0.3708 -0.1921  0.8615
 2449SOL    HW3 9842   0.898   3.243   4.372 -1.7946 -0.9924 -0.3717
 2449SOL    MW4 9843   0.908   3.228   4.287 -0.2225 -0.4101 -0.3228
 2450SOL     OW 9844   2.480   1.423   4.663  0.1820  0.0972 -0.2878
 2450SOL    HW2 9845   2.390   1.442   4.689  0.4723  0.0077  0.8086
 2450SOL    HW3 9846   2.530   1.499   4.695  0.7589 -0.6780  0.6699
 2450SOL    MW4 9847   2.475   1.436   4.671  0.2966 -0.0169 -0.0167
 2451SOL     OW 9848   1.192   4.164   4.558  0.0907 -0.1244  0.8428
 2451SOL    HW2 9849   1.253   4.097   4.530 -1.3607 -1.6313  1.1946
 2451SOL    HW3 9850   1.107   4.119   4.564 -0.9738  1.7879  0.7943
 2451SOL    MW4 9851   1.189   4.149   4.555 -0.2412 -0.0710  0.8836
 2452SOL     OW 9852   0.661   4.270   4.283  0.1794  0.0775  0.1499
 2452SOL    HW2 9853   0.574   4.234   4.263 -0.7941  1.7020  1.3569
 2452SOL    HW3 9854   0.663   4.277   4.378  1.8588 -0.4532  0.1695
 2452SOL    MW4 9855   0.650   4.266   4.293  0.2726  0.2222  0.3114
 2453SOL     OW 9856   1.139   4.656   4.177 -0.2126  0.1948  0.0313
 2453SOL    HW2 9857   1.134   4.690   4.088  0.8820 -1.3789 -0.6381
 2453SOL    HW3 9858   1.210   4.705   4.218 -1.1188  1.3544  0.2562
 2453SOL    MW4 9859   1.148   4.667   4.171 -0.1878  0.1401 -0.0277
 2454SOL     OW 9860   0.894   0.060   4.302 -0.3207 -0.2933  0.3220
 2454SOL    HW2 9861   0.822   0.006   4.268 -0.5861  1.2473 -1.6513
 2454SOL    HW3 9862   0.971   0.028   4.256 -0.0728 -0.6663  1.0077
 2454SOL    MW4 9863   0.894   0.049   4.291 -0.3230 -0.1393  0.1526
 2455SOL     OW 9864   0.904   0.305   4.179  0.2304 -0.1182  0.1492
 2455SOL    HW2 9865   0.822   0.347   4.206  0.2920 -0.0713  0.2624
 2455SOL    HW3 9866   0.905   0.223   4.227  1.2117  0.7687  1.6748
 2455SOL    MW4 9867   0.893   0.300   4.189  0.3681  0.0050  0.3657
 2456SOL     OW 9868   0.891   4.473   4.668 -0.0140  0.1362 -0.7051
 2456SOL    HW2 9869   0.870   4.566   4.658  0.3046  0.4337  1.1649
 2456SOL    HW3 9870   0.977   4.464   4.627  0.2410  0.8168 -0.3431
 2456SOL    MW4 9871   0.900   4.484   4.661  0.0616  0.2656 -0.4110
 2457SOL     OW 9872   4.009   0.255   4.596  0.3135  0.1668 -0.2531
 2457SOL    HW2 9873   4.097   0.291   4.585  0.8160 -0.3951  1.7759
 2457SOL    HW3 9874   4.015   0.165   4.563 -0.2288  0.9565 -2.6551
 2457SOL    MW4 9875   4.021   0.248   4.590  0.3080  0.1969 -0.3018
 2458SOL     OW 9876   4.088   0.881   4.320  0.1014  0.1466  0.6675
 2458SOL    HW2 9877   4.011   0.837   4.284 -0.3835  1.5820 -0.1175
 2458SOL    HW3 9878   4.161   0.850   4.267 -0.3410  0.8093 -0.3545
 2458SOL    MW4 9879   4.087   0.871   4.308 -0.0205  0.4234  0.4287
 2459SOL     OW 9880   0.844   1.158   4.145 -0.3382 -0.2594 -0.3839
 2459SOL    HW2 9881   0.856   1.064   4.154 -0.8198 -0.3384 -0.5307
 2459SOL    HW3 9882   0.773   1.179   4.206  0.5694  0.1981  0.5189
 2459SOL    MW4 9883   0.836   1.148   4.154 -0.2819 -0.2097 -0.2842
 2460SOL     OW 9884   1.073   1.284   4.240  0.6249 -1.0612  0.1173
 2460SOL    HW2 9885   1.069   1.293   4.335  2.0469 -1.4732  0.2299
 2460SOL    HW3 9886   0.990   1.241   4.217  0.3181 -1.0636  1.1761
 2460SOL    MW4 9887   1.061   1.279   4.250  0.7719 -1.1159  0.2718
 2461SOL     OW 9888   1.103   1.529   4.132 -0.0514  0.4026  0.3176
 2461SOL    HW2 9889   1.025   1.577   4.159  0.0134  0.2441  0.7792
 2461SOL    HW3 9890   1.084   1.438   4.155 -0.0519  0.2431 -0.2903
 2461SOL    MW4 9891   1.090   1.523   4.139 -0.0429  0.3607  0.2980
 2462SOL     OW 9892   0.894   1.918   4.178 -0.3284 -0.0428  0.1416
 2462SOL    HW2 9893   0.918   1.909   4.086  1.7071  0.4176  0.6060
 2462SOL    HW3 9894   0.886   1.828   4.210  0.4747 -0.2047 -0.1127
 2462SOL    MW4 9895   0.896   1.905   4.170  0.0462 -0.0033  0.1693
 2463SOL     OW 9896   0.714   2.069   4.303 -0.0148 -0.1728  0.1183
 2463SOL    HW2 9897   0.787   2.015   4.274  0.1732  1.0184 -1.6491
 2463SOL    HW3 9898   0.740   2.099   4.391  1.2596 -0.3861 -0.1735
 2463SOL    MW4 9899   0.727   2.065   4.311  0.1782 -0.0436 -0.1531
 2464SOL     OW 9900   1.191   2.311   4.131 -0.0774 -0.4904 -0.2309
 2464SOL    HW2 9901   1.257   2.345   4.192 -0.1792 -0.0402 -0.3711
 2464SOL    HW3 9902   1.170   2.223   4.165  0.6601 -0.6748 -0.2380
 2464SOL    MW4 9903   1.197   2.304   4.143  0.0064 -0.4554 -0.2503
 2465SOL     OW 9904   1.397   2.411   4.272 -0.3441 -0.1961  0.0836
 2465SOL    HW2 9905   1.469   2.359   4.236 -0.8341 -0.9376  0.1551
 2465SOL    HW3 9906   1.419   2.501   4.249  1.0530 -0.3199  0.8658
 2465SOL    MW4 9907   1.410   2.416   4.264 -0.2245 -0.3104  0.1969
 2466SOL     OW 9908   3.115   0.895   4.278 -0.0010  0.2198 -0.1023
 2466SOL    HW2 9909   3.107   0.901   4.374 -0.8603  1.1788 -0.2261
 2466SOL    HW3 9910   3.111   0.986   4.248 -2.5419 -0.2251 -1.2513
 2466SOL    MW4 9911   3.113   0.908   4.287 -0.4499  0.2876 -0.2708
 2467SOL     OW 9912   0.927   2.703   4.110  0.1274 -0.0544 -0.0111
 2467SOL    HW2 9913   0.936   2.616   4.149 -1.1527  0.3219  1.1536
 2467SOL    HW3 9914   1.008   2.748   4.133 -0.0212 -0.3075  1.0122
 2467SOL    MW4 9915   0.939   2.697   4.118 -0.0612 -0.0381  0.2775
 2468SOL     OW 9916   1.622   3.701   4.508  0.0666 -0.2300  0.4760
 2468SOL    HW2 9917   1.717   3.710   4.508 -0.0497  1.0572 -0.1798
 2468SOL    HW3 9918   1.602   3.648   4.431  0.1275  1.0227 -0.4170
 2468SOL    MW4 9919   1.632   3.695   4.498  0.0592  0.1051  0.2718
 2469SOL     OW 9920   1.159   3.093   4.159 -0.0752 -0.2934 -0.0387
 2469SOL    HW2 9921   1.225   3.152   4.197 -0.3871  0.9576 -1.3995
 2469SOL    HW3 9922   1.161   3.112   4.065 -2.5393 -0.0535 -0.0700
 2469SOL    MW4 9923   1.168   3.103   4.152 -0.4414 -0.0966 -0.2222
 2470SOL     OW 9924   0.728   3.063   4.133 -0.1115  0.0752 -0.4491
 2470SOL    HW2 9925   0.785   3.119   4.185  1.5761  0.2858 -2.4532
 2470SOL    HW3 9926   0.740   2.975   4.170  0.9853  0.2384 -0.4067
 2470SOL    MW4 9927   0.737   3.058   4.145  0.2559  0.1245 -0.7086
 2471SOL     OW 9928   0.880   3.481   4.178  0.0488  0.2878 -0.3795
 2471SOL    HW2 9929   0.883   3.396   4.220  1.6990  0.6480  0.2803
 2471SOL    HW3 9930   0.881   3.462   4.084 -0.1445 -0.4146 -0.2378
 2471SOL    MW4 9931   0.880   3.467   4.171  0.2410  0.2427 -0.2732
 2472SOL     OW 9932   1.127   3.577   4.238  0.0617  0.0833  0.2192
 2472SOL    HW2 9933   1.037   3.550   4.219  0.3907 -0.5540 -0.4967
 2472SOL    HW3 9934   1.129   3.591   4.333 -0.6241 -0.5530  0.3343
 2472SOL    MW4 9935   1.115   3.575   4.248  0.0145 -0.0846  0.1402
 2473SOL     OW 9936   1.109   3.840   4.124  0.4018  0.4574  0.4484
 2473SOL    HW2 9937   1.052   3.892   4.180 -1.2011 -0.8260  0.0556
 2473SOL    HW3 9938   1.099   3.751   4.156  1.7770  0.1400  0.0146
 2473SOL    MW4 9939   1.100   3.835   4.135  0.3718  0.2463  0.3395
 2474SOL     OW 9940   1.750   0.172   4.514 -0.7068  0.2913 -0.1401
 2474SOL    HW2 9941   1.836   0.177   4.554  0.0153 -1.2158 -1.4548
 2474SOL    HW3 9942   1.718   0.263   4.515  0.8789  0.8664  0.3685
 2474SOL    MW4 9943   1.757   0.185   4.519 -0.4023  0.1683 -0.2460
 2475SOL     OW 9944   1.088   4.389   4.221 -0.2060 -0.0441  0.0593
 2475SOL    HW2 9945   1.173   4.353   4.194 -0.7180 -0.2781 -1.3013
 2475SOL    HW3 9946   1.089   4.479   4.188 -0.4906 -0.0549  0.0193
 2475SOL    MW4 9947   1.099   4.396   4.213 -0.3111 -0.0763 -0.1249
 2476SOL     OW 9948   0.907   4.206   4.149 -0.7471  0.0872 -0.1408
 2476SOL    HW2 9949   0.824   4.239   4.183 -0.6252 -0.3928  0.6264
 2476SOL    HW3 9950   0.974   4.262   4.189 -0.7446  1.0055 -1.4025
 2476SOL    MW4 9951   0.905   4.218   4.158 -0.7306  0.1445 -0.2060
 2477SOL     OW 9952   2.793   3.432   4.430 -0.3354  0.3441  0.0468
 2477SOL    HW2 9953   2.857   3.501   4.412  0.2264 -0.1151  0.2963
 2477SOL    HW3 9954   2.714   3.480   4.458  0.3876  0.8621  1.2703
 2477SOL    MW4 9955   2.791   3.448   4.432 -0.1657  0.3519  0.2408
 2478SOL     OW 9956   1.089   2.100   4.262  0.7049  0.0811  0.0451
 2478SOL    HW2 9957   1.018   2.039   4.241  0.7096  0.2362 -0.4362
 2478SOL    HW3 9958   1.092   2.101   4.357 -0.0647  0.2230  0.0690
 2478SOL    MW4 9959   1.080   2.092   4.272  0.6038  0.1202 -0.0153
 2479SOL     OW 9960   2.898   3.604   4.713 -0.4206 -0.1348  0.0407
 2479SOL    HW2 9961   2.904   3.509   4.716  0.3975 -0.1493 -1.6621
 2479SOL    HW3 9962   2.977   3.632   4.668 -1.9446  1.1757 -1.9101
 2479SOL    MW4 9963   2.909   3.596   4.707 -0.5140  0.0362 -0.4411
 2480SOL     OW 9964   3.571   3.185   4.541 -0.3045 -0.0735  0.3473
 2480SOL    HW2 9965   3.577   3.208   4.448  0.6133  0.3772  0.5112
 2480SOL    HW3 9966   3.529   3.100   4.542 -0.4594 -0.0077 -0.4823
 2480SOL    MW4 9967   3.566   3.177   4.529 -0.2038 -0.0052  0.2594
 2481SOL     OW 9968   1.540   0.785   3.850  0.1285 -0.2388  0.2330
 2481SOL    HW2 9969   1.618   0.824   3.813  0.8181 -1.9513 -0.1657
 2481SOL    HW3 9970   1.467   0.828   3.806  0.8748  0.3102 -0.4610
 2481SOL    MW4 9971   1.540   0.796   3.840  0.3181 -0.3923  0.0887
 2482SOL     OW 9972   1.114   4.413   4.503  0.1680  0.3249 -0.1582
 2482SOL    HW2 9973   1.081   4.419   4.414 -0.1544  0.9386 -0.0019
 2482SOL    HW3 9974   1.134   4.320   4.515 -1.4661 -0.0597 -0.2672
 2482SOL    MW4 9975   1.112   4.402   4.493 -0.0900  0.3552 -0.1521
 2483SOL     OW 9976   1.543   0.758   4.128 -0.0632 -0.3265 -0.1773
 2483SOL    HW2 9977   1.629   0.792   4.155  0.2205 -0.8141 -0.4542
 2483SOL    HW3 9978   1.545   0.763   4.033 -0.9251  1.0554 -0.1344
 2483SOL    MW4 9979   1.555   0.763   4.119 -0.1395 -0.2085 -0.2084
 2484SOL     OW 9980   1.544   1.218   4.219 -0.2306  0.0803  0.0009
 2484SOL    HW2 9981   1.534   1.252   4.308 -0.7233 -1.3601  0.5071
 2484SOL    HW3 9982   1.456   1.194   4.191 -0.0293  0.1769 -0.7403
 2484SOL    MW4 9983   1.531   1.219   4.227 -0.2691 -0.0970 -0.0300
 2485SOL     OW 9984   1.039   1.259   4.504  0.2136 -0.1607  0.2310
 2485SOL    HW2 9985   1.040   1.166   4.527  1.7943  0.4502  2.7505
 2485SOL    HW3 9986   0.951   1.288   4.528  0.2514 -0.6451  0.9727
 2485SOL    MW4 9987   1.027   1.250   4.510  0.4271 -0.1441  0.6614
 2486SOL     OW 9988   1.743   1.656   4.251 -0.4723 -0.1265 -0.2790
 2486SOL    HW2 9989   1.726   1.636   4.344  0.0254 -1.0969 -0.3897
 2486SOL    HW3 9990   1.669   1.618   4.205  0.4604 -1.7134 -0.4877
 2486SOL    MW4 9991   1.731   1.648   4.257 -0.2837 -0.4640 -0.3209
 2487SOL     OW 9992   1.279   1.925   4.135 -0.4065  0.1094  0.2504
 2487SOL    HW2 9993   1.219   1.978   4.189  0.3523  1.1615  0.0708
 2487SOL    HW3 9994   1.283   1.841   4.180  0.8873  1.2425  2.3480
 2487SOL    MW4 9995   1.271   1.921   4.148 -0.1357  0.3977  0.5035
 2488SOL     OW 9996   2.149   3.651   4.494 -0.0835 -0.2154  0.0667
 2488SOL    HW2 9997   2.156   3.570   4.543  1.9698 -0.5686 -0.7804
 2488SOL    HW3 9998   2.214   3.709   4.533 -0.3378  0.4332 -0.4609
 2488SOL    MW4 9999   2.158   3.648   4.506  0.1538 -0.1762 -0.1149
 2489SOL     OW10000   1.788   2.473   4.281 -0.1983 -0.3299  0.1283
 2489SOL    HW210001   1.715   2.413   4.270  0.0473 -0.5227 -0.5193
 2489SOL    HW310002   1.793   2.489   4.375 -0.4887 -1.0435  0.2656
 2489SOL    MW410003   1.779   2.467   4.292 -0.2042 -0.4494  0.0610
 2490SOL     OW10004   1.636   2.246   4.206  0.3022 -0.3264 -0.1061
 2490SOL    HW210005   1.648   2.242   4.111 -0.9185  0.6572 -0.3183
 2490SOL    HW310006   1.576   2.173   4.225 -0.8534  0.5348 -0.3513
 2490SOL    MW410007   1.630   2.236   4.196 -0.0114 -0.0832 -0.1664
 2491SOL     OW10008   1.179   2.803   4.184  0.6501  0.4039  0.3178
 2491SOL    HW210009   1.198   2.892   4.155 -0.4420  1.1673  1.8845
 2491SOL    HW310010   1.164   2.811   4.278 -0.3831 -1.2863  0.3124
 2491SOL    MW410011   1.180   2.815   4.192  0.3698  0.2820  0.5240
 2492SOL     OW10012   1.763   2.729   4.199 -0.1225  0.3448  0.3667
 2492SOL    HW210013   1.838   2.777   4.234  0.6351 -0.6454  0.1058
 2492SOL    HW310014   1.775   2.639   4.229 -0.2363 -0.2104 -1.1796
 2492SOL    MW410015   1.774   2.723   4.207 -0.0374  0.1409  0.1283
 2493SOL     OW10016   1.571   3.093   4.145 -0.4948  0.4865 -0.0240
 2493SOL    HW210017   1.654   3.120   4.185 -0.9041  0.7487  0.6739
 2493SOL    HW310018   1.506   3.152   4.185 -1.1602 -0.4300  0.2534
 2493SOL    MW410019   1.574   3.104   4.156 -0.6366  0.4001  0.1044
 2494SOL     OW10020   1.374   3.245   4.273 -0.6136 -0.1674 -0.0137
 2494SOL    HW210021   1.356   3.334   4.243 -3.0751 -0.6812 -0.1867
 2494SOL    HW310022   1.363   3.250   4.368  0.2260 -0.0837  0.0827
 2494SOL    MW410023   1.370   3.258   4.282 -0.8277 -0.2244 -0.0238
 2495SOL     OW10024   1.597   3.854   4.160 -0.2591 -0.7086  0.0506
 2495SOL    HW210025   1.510   3.876   4.193  0.5604  0.6191  1.3969
 2495SOL    HW310026   1.605   3.760   4.173 -0.6863 -0.4972  1.8852
 2495SOL    MW410027   1.586   3.844   4.166 -0.2074 -0.5059  0.4711
 2496SOL     OW10028   0.591   0.641   4.712 -0.1401 -0.2244  0.9675
 2496SOL    HW210029   0.684   0.629   4.729  0.3143 -2.1436 -2.4278
 2496SOL    HW310030   0.582   0.735   4.695  1.7650 -0.4755 -1.7088
 2496SOL    MW410031   0.602   0.652   4.712  0.1712 -0.5108  0.1664
 2497SOL     OW10032   1.329   3.990   4.226 -0.1816  0.2267 -0.3397
 2497SOL    HW210033   1.328   4.078   4.187  1.4557 -0.1035 -1.1848
 2497SOL    HW310034   1.257   3.944   4.184 -1.2363  1.2471  0.3204
 2497SOL    MW410035   1.319   3.996   4.216 -0.1047  0.3178 -0.3638
 2498SOL     OW10036   2.249   0.001   4.543  0.1494  0.0200  0.0394
 2498SOL    HW210037   2.226   0.032   4.456  1.0840  1.9910  0.4748
 2498SOL    HW310038   2.338   0.032   4.557 -0.4140  0.7835  2.1474
 2498SOL    MW410039   2.257   0.009   4.533  0.1986  0.3805  0.3753
 2499SOL     OW10040   1.298   4.262   4.120  1.0304  0.0435 -0.1084
 2499SOL    HW210041   1.322   4.260   4.027 -0.1152  1.1144 -0.4363
 2499SOL    HW310042   1.374   4.301   4.164  0.4473  2.1937 -0.9711
 2499SOL    MW410043   1.311   4.267   4.114  0.8022  0.4692 -0.2656
 2500SOL     OW10044   1.529   4.651   4.152 -0.4119 -0.5484  0.3438
 2500SOL    HW210045   1.596   4.708   4.189  3.1516 -2.2642 -3.0587
 2500SOL    HW310046   1.542   4.567   4.198 -0.6459 -0.7100  0.1135
 2500SOL    MW410047   1.540   4.647   4.163  0.0273 -0.7958 -0.1354
 2501SOL     OW10048   2.008   0.010   4.123  0.6868  0.2853 -0.1892
 2501SOL    HW210049   1.995   0.006   4.028 -0.8057  1.7403 -0.0598
 2501SOL    HW310050   1.923   0.033   4.158  1.4900  0.8428  1.4322
 2501SOL    MW410051   1.995   0.012   4.115  0.5959  0.5507  0.0420
 2502SOL     OW10052   3.420   3.410   4.623 -0.4879  0.2141  0.0615
 2502SOL    HW210053   3.493   3.357   4.593 -1.1263 -0.1851 -0.7961
 2502SOL    HW310054   3.419   3.399   4.718 -0.6799 -1.3869 -0.1210
 2502SOL    MW410055   3.429   3.402   4.632 -0.5975 -0.0498 -0.0763
 2503SOL     OW10056   1.513   4.377   4.249 -0.1177 -0.1780 -0.0484
 2503SOL    HW210057   1.462   4.408   4.323  0.6260  1.1817 -0.0738
 2503SOL    HW310058   1.591   4.338   4.287  1.1124  2.1040 -0.1257
 2503SOL    MW410059   1.516   4.376   4.264  0.1427  0.3028 -0.0615
 2504SOL     OW10060   1.780   0.378   4.126 -0.4411  0.2835 -0.0018
 2504SOL    HW210061   1.697   0.419   4.150 -0.1444  0.1599  1.3216
 2504SOL    HW310062   1.846   0.431   4.172  0.1636  0.0237 -0.5637
 2504SOL    MW410063   1.778   0.391   4.136 -0.3221  0.2329  0.0987
 2505SOL     OW10064   2.030   0.712   4.133 -0.3194 -0.4342 -0.0031
 2505SOL    HW210065   2.107   0.759   4.167 -0.0738 -0.4163 -0.5737
 2505SOL    HW310066   2.025   0.633   4.187  0.2453 -0.5524 -0.1165
 2505SOL    MW410067   2.040   0.708   4.145 -0.2124 -0.4475 -0.0930
 2506SOL     OW10068   1.796   0.876   4.185 -0.2642 -0.1273 -0.3645
 2506SOL    HW210069   1.876   0.829   4.159  0.2652  0.9545 -0.7097
 2506SOL    HW310070   1.802   0.882   4.280 -1.4547 -2.7417 -0.0653
 2506SOL    MW410071   1.808   0.871   4.194 -0.3515 -0.3296 -0.3705
 2507SOL     OW10072   1.785   1.143   4.107  0.7750 -0.1236 -0.3450
 2507SOL    HW210073   1.700   1.174   4.136  0.9495  0.9797 -0.9833
 2507SOL    HW310074   1.790   1.053   4.139 -1.1445 -0.6183 -1.3910
 2507SOL    MW410075   1.775   1.135   4.115  0.5448 -0.0434 -0.5679
 2508SOL     OW10076   0.464   4.182   4.623  0.5648  0.7067 -0.0266
 2508SOL    HW210077   0.447   4.093   4.591 -0.6196  0.7631  0.3923
 2508SOL    HW310078   0.559   4.192   4.618  0.7083 -0.5777 -0.0898
 2508SOL    MW410079   0.474   4.171   4.618  0.4275  0.5450  0.0205
 2509SOL     OW10080   2.014   1.543   4.132  0.2569 -0.6824 -0.3023
 2509SOL    HW210081   1.924   1.560   4.161  0.4104 -0.6762  0.1724
 2509SOL    HW310082   2.005   1.516   4.041 -0.2264 -0.6461 -0.2670
 2509SOL    MW410083   2.001   1.542   4.124  0.2131 -0.6769 -0.2356
 2510SOL     OW10084   3.457   4.388   4.561 -0.2910 -0.1924  0.2667
 2510SOL    HW210085   3.505   4.460   4.520 -2.3760  0.4015 -1.1964
 2510SOL    HW310086   3.381   4.430   4.601 -0.3338 -1.3056  1.3670
 2510SOL    MW410087   3.453   4.403   4.561 -0.5720 -0.2613  0.2184
 2511SOL     OW10088   0.835   2.176   4.544 -0.0150 -0.0384 -0.3699
 2511SOL    HW210089   0.808   2.265   4.568 -0.3977 -0.0610 -0.7198
 2511SOL    HW310090   0.928   2.173   4.566 -0.2098  0.1447  0.5381
 2511SOL    MW410091   0.844   2.187   4.550 -0.0912 -0.0174 -0.2966
 2512SOL     OW10092   0.711   3.110   4.653  0.0413  0.4134  0.3147
 2512SOL    HW210093   0.625   3.150   4.639  0.4099  0.5091 -1.9536
 2512SOL    HW310094   0.697   3.017   4.635  0.1703  0.2366  1.1130
 2512SOL    MW410095   0.698   3.103   4.648  0.1070  0.4025  0.1206
 2513SOL     OW10096   2.623   0.927   4.564 -0.1758 -0.1077 -0.1915
 2513SOL    HW210097   2.634   0.938   4.470  0.1308 -1.7060 -0.3652
 2513SOL    HW310098   2.619   1.016   4.599  1.7034  0.5084 -1.4884
 2513SOL    MW410099   2.624   0.940   4.557  0.1128 -0.2373 -0.3858
 2514SOL     OW10100   2.698   0.387   4.129  0.0792 -0.3644  0.1123
 2514SOL    HW210101   2.616   0.412   4.170  0.4369 -0.3520  0.8310
 2514SOL    HW310102   2.682   0.394   4.035  0.0378  2.1113  0.2835
 2514SOL    MW410103   2.685   0.391   4.122  0.1209 -0.0361  0.2303
 2515SOL     OW10104   1.415   2.662   4.143 -0.1942  0.1932 -0.4882
 2515SOL    HW210105   1.329   2.700   4.130 -0.1979 -0.1965 -1.7510
 2515SOL    HW310106   1.464   2.727   4.193 -1.4033  0.1508  0.7459
 2515SOL    MW410107   1.410   2.676   4.148 -0.3543  0.1364 -0.4921
 2516SOL     OW10108   2.440   2.080   4.244 -0.3582 -0.4288 -0.2514
 2516SOL    HW210109   2.440   2.173   4.225  1.3160 -0.6129 -1.2415
 2516SOL    HW310110   2.433   2.075   4.339 -0.1936  0.7165 -0.1726
 2516SOL    MW410111   2.439   2.091   4.254 -0.1154 -0.3021 -0.3719
 2517SOL     OW10112   2.027   3.085   4.243  0.0344  0.0669 -0.2804
 2517SOL    HW210113   2.103   3.140   4.261  0.8309 -0.8725 -0.7478
 2517SOL    HW310114   2.029   3.071   4.148  0.2316 -1.3227 -0.0853
 2517SOL    MW410115   2.037   3.090   4.233  0.1652 -0.2403 -0.3166
 2518SOL     OW10116   1.804   3.258   4.254 -0.3354 -0.3666  0.0057
 2518SOL    HW210117   1.822   3.332   4.196 -0.4766  0.0283  0.4610
 2518SOL    HW310118   1.882   3.202   4.246 -0.1612 -0.0932 -0.2281
 2518SOL    MW410119   1.817   3.261   4.245 -0.3310 -0.2780  0.0343
 2519SOL     OW10120   1.813   3.501   4.144 -0.1255  0.2964 -0.1334
 2519SOL    HW210121   1.890   3.544   4.182  0.0301 -0.6242  0.6115
 2519SOL    HW310122   1.828   3.506   4.049  0.0302  1.6156 -0.0530
 2519SOL    MW410123   1.825   3.507   4.136 -0.0845  0.3488 -0.0243
 2520SOL     OW10124   1.294   1.135   4.171  0.1050 -0.4175 -0.5827
 2520SOL    HW210125   1.214   1.179   4.198  0.8195  0.0235  0.8614
 2520SOL    HW310126   1.293   1.140   4.075 -0.5848  1.3826 -0.5029
 2520SOL    MW410127   1.284   1.142   4.162  0.1082 -0.1220 -0.3810
 2521SOL     OW10128   2.068   3.621   4.228 -0.2713  0.2258 -0.5656
 2521SOL    HW210129   2.082   3.706   4.186  0.9062  0.7085  0.7699
 2521SOL    HW310130   2.102   3.632   4.317 -0.5172 -1.5078 -0.2347
 2521SOL    MW410131   2.074   3.633   4.234 -0.1483  0.0608 -0.3462
 2522SOL     OW10132   1.837   4.007   4.236  0.4379 -0.2784 -0.4419
 2522SOL    HW210133   1.850   4.014   4.331 -0.1905  0.2559 -0.3954
 2522SOL    HW310134   1.759   3.953   4.226  0.4275 -0.2256 -0.6528
 2522SOL    MW410135   1.829   4.000   4.247  0.3535 -0.2012 -0.4640
 2523SOL     OW10136   1.925   1.190   4.650  0.0809  0.0045  0.0776
 2523SOL    HW210137   1.958   1.247   4.719  0.5878  0.5469 -0.5993
 2523SOL    HW310138   1.970   1.219   4.571  0.4005 -1.3757 -0.2713
 2523SOL    MW410139   1.935   1.201   4.649  0.1901 -0.1061 -0.0572
 2524SOL     OW10140   2.365   3.302   4.478 -0.6218  0.1273  0.2947
 2524SOL    HW210141   2.421   3.380   4.477 -0.9453  0.3552  0.0768
 2524SOL    HW310142   2.284   3.331   4.520 -1.0222  0.1020 -0.4442
 2524SOL    MW410143   2.362   3.316   4.483 -0.7174  0.1538  0.1683
 2525SOL     OW10144   4.456   1.595   4.526 -0.3413  0.0614  0.2748
 2525SOL    HW210145   4.397   1.521   4.538  1.3295 -1.4333 -0.5631
 2525SOL    HW310146   4.439   1.626   4.437 -0.6166  0.3200  0.4156
 2525SOL    MW410147   4.446   1.589   4.516 -0.1569 -0.1017  0.1826
 2526SOL     OW10148   1.459   0.108   4.541  0.5035 -0.1181  0.7396
 2526SOL    HW210149   1.426   0.116   4.452 -0.3391  2.0182  1.2026
 2526SOL    HW310150   1.553   0.128   4.534  0.7533 -1.4329  0.1374
 2526SOL    MW410151   1.467   0.112   4.529  0.4252 -0.0097  0.7215
 2527SOL     OW10152   2.227   0.367   4.170 -0.0182  0.0637 -0.2569
 2527SOL    HW210153   2.233   0.278   4.205  1.0599  0.2750  0.1298
 2527SOL    HW310154   2.218   0.354   4.075  0.5288 -0.4612 -0.2452
 2527SOL    MW410155   2.227   0.354   4.162  0.1965  0.0224 -0.2041
 2528SOL     OW10156   2.240   0.878   4.226  0.2636  0.5590  0.3047
 2528SOL    HW210157   2.259   0.889   4.319  0.3913  0.5091  0.2861
 2528SOL    HW310158   2.230   0.967   4.192  0.8139  0.6013  0.2466
 2528SOL    MW410159   2.242   0.891   4.234  0.3531  0.5580  0.2947
 2529SOL     OW10160   2.474   0.735   4.147 -0.1478  0.5779  0.0734
 2529SOL    HW210161   2.475   0.717   4.053 -0.1702 -1.2592  0.3922
 2529SOL    HW310162   2.390   0.779   4.162  0.1058  1.3964 -0.8418
 2529SOL    MW410163   2.463   0.738   4.137 -0.1173  0.4435 -0.0052
 2530SOL     OW10164   2.926   0.493   4.259 -0.3748 -0.2271  0.2286
 2530SOL    HW210165   2.858   0.463   4.199  0.1726 -0.5793 -0.2235
 2530SOL    HW310166   2.923   0.589   4.251 -1.0964 -0.2199  0.5287
 2530SOL    MW410167   2.916   0.502   4.250 -0.3977 -0.2726  0.2084
 2531SOL     OW10168   2.364   3.800   4.575  0.3900 -0.9905  0.0057
 2531SOL    HW210169   2.444   3.776   4.621 -0.0677 -1.7954  0.3908
 2531SOL    HW310170   2.371   3.895   4.563  0.5403 -0.7766  1.6597
 2531SOL    MW410171   2.376   3.809   4.579  0.3490 -1.0684  0.2747
 2532SOL     OW10172   2.227   1.137   4.110 -0.1034 -0.1088 -0.6089
 2532SOL    HW210173   2.149   1.186   4.135  0.7228  0.2288  1.4253
 2532SOL    HW310174   2.300   1.188   4.145  0.9821 -0.8959 -1.6754
 2532SOL    MW410175   2.227   1.150   4.118  0.1488 -0.1681 -0.4811
 2533SOL     OW10176   2.223   1.982   4.128 -0.1665  0.6121  0.2387
 2533SOL    HW210177   2.226   1.889   4.153  0.0475  0.6241  0.2536
 2533SOL    HW310178   2.299   2.021   4.171 -0.7059  0.9532  0.8914
 2533SOL    MW410179   2.233   1.975   4.137 -0.2093  0.6586  0.3266
 2534SOL     OW10180   2.439   1.571   4.134  0.0781 -0.2845  0.4463
 2534SOL    HW210181   2.440   1.585   4.039  1.2800 -0.9628  0.3581
 2534SOL    HW310182   2.524   1.602   4.164 -0.1266 -0.4946  1.2455
 2534SOL    MW410183   2.450   1.577   4.125  0.2096 -0.4016  0.5398
 2535SOL     OW10184   2.533   2.073   4.752 -0.1560 -0.3003 -0.0146
 2535SOL    HW210185   2.513   2.149   4.807 -1.2544  0.2351 -1.1423
 2535SOL    HW310186   2.609   2.033   4.793 -0.8803  0.1676  1.8390
 2535SOL    MW410187   2.540   2.078   4.765 -0.3965 -0.1678  0.0806
 2536SOL     OW10188   1.532   3.008   4.744 -0.6617 -0.0861  0.5160
 2536SOL    HW210189   1.446   3.043   4.764 -0.5678  0.9475 -0.7808
 2536SOL    HW310190   1.591   3.083   4.749  0.0121 -0.6058  0.5045
 2536SOL    MW410191   1.529   3.022   4.747 -0.5603 -0.0181  0.3433
 2537SOL     OW10192   2.235   2.452   4.187  0.0400 -0.0741  0.0545
 2537SOL    HW210193   2.208   2.541   4.164  0.3556 -0.7397 -3.1545
 2537SOL    HW310194   2.153   2.403   4.196 -0.1048  0.3092  0.8183
 2537SOL    MW410195   2.220   2.457   4.185  0.0625 -0.1113 -0.2680
 2538SOL     OW10196   2.902   0.511   4.541  0.0327 -0.7936  0.7748
 2538SOL    HW210197   2.996   0.520   4.557  0.2499  0.1280 -0.8704
 2538SOL    HW310198   2.896   0.498   4.446 -1.4231 -1.9658  1.0191
 2538SOL    MW410199   2.914   0.510   4.530 -0.1307 -0.8267  0.5903
 2539SOL     OW10200   1.044   2.833   4.738  0.1670 -0.3548 -0.1152
 2539SOL    HW210201   1.090   2.826   4.654  0.7772 -0.6716  0.2368
 2539SOL    HW310202   1.061   2.922   4.768  0.7242 -0.5276  0.1013
 2539SOL    MW410203   1.053   2.843   4.731  0.3210 -0.4194 -0.0401
 2540SOL     OW10204   0.445   2.314   4.514  0.0476  0.2523  0.4321
 2540SOL    HW210205   0.524   2.333   4.563  1.1335  0.3580 -1.3137
 2540SOL    HW310206   0.454   2.365   4.433 -1.0868 -0.9273 -0.4566
 2540SOL    MW410207   0.456   2.324   4.509  0.0412  0.1106  0.0844
 2541SOL     OW10208   2.272   3.227   4.232 -0.0611  0.1341  0.3563
 2541SOL    HW210209   2.287   3.306   4.180  0.1684  0.1209  0.4006
 2541SOL    HW310210   2.306   3.248   4.318 -1.3071  0.4854  0.7665
 2541SOL    MW410211   2.278   3.240   4.236 -0.1953  0.1791  0.4168
 2542SOL     OW10212   1.922   3.061   4.626  0.0495 -0.1618  0.4741
 2542SOL    HW210213   1.979   3.094   4.695  0.4063 -0.5175  0.3546
 2542SOL    HW310214   1.981   3.012   4.568 -0.1372  0.6683 -0.4365
 2542SOL    MW410215   1.938   3.059   4.627  0.0720 -0.0992  0.3381
 2543SOL     OW10216   2.284   3.474   4.103 -0.1953 -0.0453  0.2761
 2543SOL    HW210217   2.359   3.525   4.133 -0.4161  0.8746 -0.6990
 2543SOL    HW310218   2.208   3.517   4.143 -0.2312 -0.7491  0.9661
 2543SOL    MW410219   2.284   3.487   4.112 -0.2289 -0.0167  0.2384
 2544SOL     OW10220   1.075   2.532   4.450  0.2772  0.2109  0.2640
 2544SOL    HW210221   1.000   2.568   4.497  0.1699 -0.7695  0.8712
 2544SOL    HW310222   1.037   2.493   4.372  0.1190 -0.4586  0.6685
 2544SOL    MW410223   1.060   2.531   4.446  0.2421 -0.0069  0.3972
 2545SOL     OW10224   2.460   3.898   4.146  0.0430  0.0788  0.1847
 2545SOL    HW210225   2.381   3.944   4.173 -0.4026 -0.5654 -0.0158
 2545SOL    HW310226   2.444   3.873   4.055  0.5935  0.2039  0.0508
 2545SOL    MW410227   2.448   3.901   4.137  0.0567  0.0105  0.1402
 2546SOL     OW10228   4.008   4.057   4.434 -0.0913  0.0018 -0.4294
 2546SOL    HW210229   4.053   4.141   4.442 -0.5832  0.1733  0.7341
 2546SOL    HW310230   4.021   4.030   4.343  1.0389  0.7893 -0.5049
 2546SOL    MW410231   4.016   4.064   4.423 -0.0076  0.1283 -0.2856
 2547SOL     OW10232   2.253   4.052   4.233 -0.1185 -0.2079  0.4231
 2547SOL    HW210233   2.179   3.995   4.213 -0.5865  0.8384 -0.9749
 2547SOL    HW310234   2.229   4.136   4.194  0.9741  0.6759  1.6163
 2547SOL    MW410235   2.240   4.056   4.225 -0.0360  0.0467  0.3963
 2548SOL     OW10236   2.225   4.317   4.136  0.2843 -0.2253  0.9024
 2548SOL    HW210237   2.300   4.346   4.187  0.7031  0.3038  0.0064
 2548SOL    HW310238   2.149   4.342   4.188  0.7496 -1.5241  2.2051
 2548SOL    MW410239   2.225   4.324   4.149  0.4010 -0.3266  0.9556
 2549SOL     OW10240   1.513   2.011   4.247 -0.1325  0.3996 -0.3406
 2549SOL    HW210241   1.439   1.967   4.207  0.0539 -0.6122  0.4079
 2549SOL    HW310242   1.590   1.977   4.201  0.1700 -1.5432  1.4884
 2549SOL    MW410243   1.514   2.001   4.236 -0.0679  0.0095 -0.0005
 2550SOL     OW10244   2.845   0.135   4.503 -0.2036 -0.0719  0.2945
 2550SOL    HW210245   2.808   0.211   4.548 -0.3929 -0.8045  1.4006
 2550SOL    HW310246   2.940   0.148   4.507 -0.2548  0.5402 -0.3113
 2550SOL    MW410247   2.852   0.147   4.509 -0.2356 -0.0878  0.3600
 2551SOL     OW10248   2.481   0.460   4.264 -0.2603 -0.3182 -0.1739
 2551SOL    HW210249   2.395   0.424   4.245 -0.1093 -0.7247 -0.1012
 2551SOL    HW310250   2.478   0.550   4.230  0.3465 -1.3332 -3.0634
 2551SOL    MW410251   2.470   0.467   4.257 -0.1602 -0.5057 -0.5460
 2552SOL     OW10252   2.038   1.843   4.640 -0.5089  0.4970 -0.4118
 2552SOL    HW210253   1.965   1.882   4.593 -0.4008  0.4937 -0.5845
 2552SOL    HW310254   2.045   1.893   4.721 -1.7658 -0.5801  0.3695
 2552SOL    MW410255   2.029   1.855   4.644 -0.6607  0.3543 -0.3319
 2553SOL     OW10256   2.883   0.765   4.223  0.3180  0.0215 -0.1544
 2553SOL    HW210257   2.891   0.749   4.129 -1.1563 -1.3354 -0.0641
 2553SOL    HW310258   2.970   0.797   4.249  1.2469 -1.1807 -1.6594
 2553SOL    MW410259   2.896   0.767   4.214  0.2463 -0.3162 -0.3409
 2554SOL     OW10260   2.654   0.927   4.247 -0.0513  0.3734 -0.0957
 2554SOL    HW210261   2.741   0.887   4.246  0.2522  1.0356 -0.5855
 2554SOL    HW310262   2.597   0.861   4.208  0.2858  0.0479 -0.0350
 2554SOL    MW410263   2.658   0.913   4.241  0.0334  0.4179 -0.1526
 2555SOL     OW10264   2.679   1.184   4.144  0.6742 -0.1433  0.0205
 2555SOL    HW210265   2.676   1.155   4.053 -1.7680  0.4436 -0.1390
 2555SOL    HW310266   2.675   1.103   4.195 -1.8150 -0.3378 -0.4214
 2555SOL    MW410267   2.678   1.169   4.139  0.0238 -0.0916 -0.0587
 2556SOL     OW10268   2.676   0.345   4.577  0.0183  0.4385  0.0360
 2556SOL    HW210269   2.596   0.395   4.561 -0.0947  0.5148  0.8476
 2556SOL    HW310270   2.745   0.412   4.579 -0.3096  0.7568  2.5596
 2556SOL    MW410271   2.675   0.361   4.575 -0.0401  0.4905  0.4759
 2557SOL     OW10272   2.937   1.593   4.124 -0.0783  0.2430  0.6287
 2557SOL    HW210273   2.853   1.635   4.144 -0.7106 -0.1216 -1.1682
 2557SOL    HW310274   2.921   1.500   4.140 -0.7687 -0.1269 -2.0063
 2557SOL    MW410275   2.924   1.586   4.129 -0.2530  0.1462  0.0434
 2558SOL     OW10276   3.661   2.622   4.633  0.2573  0.4459 -0.5503
 2558SOL    HW210277   3.592   2.653   4.692  0.8949 -0.7391  0.8492
 2558SOL    HW310278   3.620   2.550   4.585  0.4399 -0.1411  0.1546
 2558SOL    MW410279   3.646   2.616   4.635  0.3655  0.2122 -0.2728
 2559SOL     OW10280   3.137   1.700   4.274 -0.2321 -0.0934  0.0019
 2559SOL    HW210281   3.151   1.786   4.233  0.2224 -0.3437 -0.3679
 2559SOL    HW310282   3.071   1.658   4.220  0.3539 -0.4162 -0.4677
 2559SOL    MW410283   3.130   1.706   4.262 -0.0949 -0.1690 -0.1087
 2560SOL     OW10284   1.341   3.872   4.465  0.0333  0.3131 -0.2179
 2560SOL    HW210285   1.350   3.902   4.375  0.9917 -0.1930 -0.2925
 2560SOL    HW310286   1.428   3.880   4.502 -0.0943 -0.6162  0.3071
 2560SOL    MW410287   1.353   3.877   4.458  0.1429  0.1237 -0.1588
 2561SOL     OW10288   1.282   1.099   4.781 -0.8120 -0.0021  0.1144
 2561SOL    HW210289   1.212   1.053   4.734  0.5112 -1.4082 -0.5143
 2561SOL    HW310290   1.355   1.037   4.781  0.5452  1.5799  0.4827
 2561SOL    MW410291   1.282   1.085   4.775 -0.4585  0.0210  0.0801
 2562SOL     OW10292   3.560   1.929   4.151  0.1537 -0.1395 -0.3541
 2562SOL    HW210293   3.552   1.841   4.188 -2.0107 -0.4110 -1.4023
 2562SOL    HW310294   3.563   1.915   4.056 -0.0204  0.9030 -0.5207
 2562SOL    MW410295   3.559   1.915   4.144 -0.1547 -0.0379 -0.5145
 2563SOL     OW10296   2.676   2.562   4.109  0.0569  0.3769  0.4703
 2563SOL    HW210297   2.602   2.502   4.117  0.7367 -0.6000 -0.4455
 2563SOL    HW310298   2.750   2.514   4.145  0.3416  1.2129  1.0385
 2563SOL    MW410299   2.676   2.548   4.115  0.1845  0.3581  0.4239
 2564SOL     OW10300   2.434   2.878   4.287 -0.1130  0.0183 -0.4164
 2564SOL    HW210301   2.463   2.957   4.242 -0.0201 -0.1351 -0.6270
 2564SOL    HW310302   2.516   2.836   4.315 -0.2105  0.9268  1.3053
 2564SOL    MW410303   2.449   2.883   4.285 -0.1137  0.1180 -0.2170
 2565SOL     OW10304   2.933   2.839   4.290  0.0988 -0.2752  0.2429
 2565SOL    HW210305   2.845   2.805   4.304 -0.3400  0.8368  0.3027
 2565SOL    HW310306   2.977   2.827   4.374 -0.0703 -0.6455  0.2765
 2565SOL    MW410307   2.927   2.833   4.303  0.0184 -0.1774  0.2551
 2566SOL     OW10308   2.944   3.112   4.181  0.3965  0.2097 -0.4784
 2566SOL    HW210309   2.915   3.026   4.213  0.7312 -0.0756 -0.9235
 2566SOL    HW310310   2.928   3.108   4.086 -0.8551  1.1454 -0.3226
 2566SOL    MW410311   2.938   3.100   4.173  0.2756  0.2959 -0.5169
 2567SOL     OW10312   2.141   4.096   4.470 -0.4007 -0.0759 -0.4812
 2567SOL    HW210313   2.189   4.076   4.389 -0.0131 -0.1529 -0.2326
 2567SOL    HW310314   2.154   4.190   4.483  0.6383 -0.3171  0.2078
 2567SOL    MW410315   2.149   4.106   4.461 -0.2127 -0.1178 -0.3576
 2568SOL     OW10316   1.853   3.312   4.508 -0.6774 -0.2243  0.1520
 2568SOL    HW210317   1.822   3.296   4.419 -2.3609  1.1499  0.4431
 2568SOL    HW310318   1.863   3.225   4.546  0.0281 -0.8197 -1.3637
 2568SOL    MW410319   1.850   3.299   4.501 -0.8066 -0.1214 -0.0095
 2569SOL     OW10320   2.944   3.654   4.333 -0.3555  0.1228  0.2999
 2569SOL    HW210321   2.970   3.685   4.420 -0.6926 -2.0218  1.1902
 2569SOL    HW310322   3.025   3.620   4.295 -0.2634  0.8169 -0.1306
 2569SOL    MW410323   2.958   3.654   4.340 -0.3879 -0.0684  0.3600
 2570SOL     OW10324   3.102   3.752   4.581  0.0764  0.4445  0.1238
 2570SOL    HW210325   3.192   3.729   4.556  0.3029  1.0078  0.4255
 2570SOL    HW310326   3.097   3.847   4.568 -1.1896  0.0961 -2.2022
 2570SOL    MW410327   3.113   3.762   4.576 -0.0608  0.4728 -0.1435
 2571SOL     OW10328   2.983   4.318   4.518  0.1447 -0.2016 -0.1954
 2571SOL    HW210329   2.894   4.353   4.524  0.5910  0.9501 -0.3354
 2571SOL    HW310330   3.038   4.384   4.558  0.7626 -1.6884  1.4334
 2571SOL    MW410331   2.978   4.331   4.524  0.2851 -0.2456  0.0005
 2572SOL     OW10332   0.517   1.696   4.511 -0.4372  0.1605 -0.2656
 2572SOL    HW210333   0.470   1.756   4.568 -1.9853 -0.7506 -0.5657
 2572SOL    HW310334   0.588   1.749   4.474 -1.1557  1.5131  0.2694
 2572SOL    MW410335   0.520   1.711   4.514 -0.7363  0.2187 -0.2341
 2573SOL     OW10336   2.707   3.276   4.237  0.1996 -0.1043  0.2373
 2573SOL    HW210337   2.789   3.233   4.212 -0.2676 -0.6082 -0.4376
 2573SOL    HW310338   2.731   3.333   4.310  1.5941  1.4320 -1.3756
 2573SOL    MW410339   2.721   3.278   4.243  0.3221  0.0322 -0.0644
 2574SOL     OW10340   1.380   3.235   4.550  0.4881 -0.0642  0.2656
 2574SOL    HW210341   1.469   3.258   4.578  0.8512  2.0973 -2.4051
 2574SOL    HW310342   1.325   3.306   4.585  0.4806  0.8881 -1.5989
 2574SOL    MW410343   1.384   3.248   4.559  0.5351  0.3464 -0.3328
 2575SOL     OW10344   1.514   3.565   4.714  0.1852 -0.0182  0.0164
 2575SOL    HW210345   1.533   3.622   4.788  1.9201 -0.0012 -0.4133
 2575SOL    HW310346   1.552   3.609   4.639  0.6728 -1.2567 -0.4801
 2575SOL    MW410347   1.521   3.578   4.714  0.4784 -0.1793 -0.1059
 2576SOL     OW10348   3.830   3.657   4.287  0.0726  0.2012  0.0131
 2576SOL    HW210349   3.913   3.609   4.278  0.3579  0.8475 -0.9431
 2576SOL    HW310350   3.832   3.691   4.376  0.1245 -1.0855  0.5132
 2576SOL    MW410351   3.841   3.655   4.297  0.1173  0.1166 -0.0472
 2577SOL     OW10352   0.724   4.242   4.563 -0.4903 -0.6229  0.3539
 2577SOL    HW210353   0.790   4.173   4.567 -0.4798 -0.5929  0.6940
 2577SOL    HW310354   0.772   4.323   4.581 -0.4551 -0.4918 -0.2946
 2577SOL    MW410355   0.739   4.243   4.566 -0.4843 -0.6013  0.3128
 2578SOL     OW10356   2.636   1.667   4.718 -0.1959 -0.5312  0.1820
 2578SOL    HW210357   2.717   1.634   4.680  0.7428  1.4411  0.3828
 2578SOL    HW310358   2.665   1.736   4.777 -2.1747  1.6402 -1.3270
 2578SOL    MW410359   2.651   1.672   4.721 -0.3331  0.0154  0.0091
 2579SOL     OW10360   3.131   1.165   4.206 -0.0440  0.2825 -0.3004
 2579SOL    HW210361   3.218   1.181   4.242 -0.4273 -0.8327  1.1895
 2579SOL    HW310362   3.143   1.167   4.111  1.6249 -0.0163 -0.1130
 2579SOL    MW410363   3.144   1.168   4.199  0.1256  0.0960 -0.0792
 2580SOL     OW10364   3.384   1.253   4.280 -0.1196 -0.2740 -0.1359
 2580SOL    HW210365   3.378   1.284   4.370 -0.6661  0.0733 -0.2864
 2580SOL    HW310366   3.366   1.331   4.227 -2.2239 -0.9766 -0.5124
 2580SOL    MW410367   3.381   1.268   4.285 -0.4694 -0.3208 -0.2055
 2581SOL     OW10368   3.319   1.512   4.178  0.2557  0.1261  0.4716
 2581SOL    HW210369   3.349   1.541   4.091  2.7600 -0.3593  1.1375
 2581SOL    HW310370   3.253   1.577   4.203  2.1908  2.4347 -0.2115
 2581SOL    MW410371   3.314   1.524   4.170  0.8414  0.3668  0.4692
 2582SOL     OW10372   3.335   1.378   4.527 -0.4813  0.2248  0.1675
 2582SOL    HW210373   3.274   1.321   4.573 -0.8814  0.0429 -0.5890
 2582SOL    HW310374   3.294   1.465   4.530 -1.3065 -0.0974 -1.2741
 2582SOL    MW410375   3.322   1.382   4.533 -0.6428  0.1584 -0.1225
 2583SOL     OW10376   4.257   3.039   4.614  0.5590 -0.3145 -0.1480
 2583SOL    HW210377   4.208   2.957   4.602 -0.0872 -0.0799  0.8079
 2583SOL    HW310378   4.191   3.108   4.601  0.6666  0.0104  0.9999
 2583SOL    MW410379   4.242   3.037   4.611  0.4878 -0.2408  0.1297
 2584SOL     OW10380   3.252   2.599   4.634  0.2388  0.1233 -0.2578
 2584SOL    HW210381   3.200   2.587   4.714 -0.2480  2.6902 -0.1401
 2584SOL    HW310382   3.195   2.650   4.577  0.7999 -1.2274 -2.0568
 2584SOL    MW410383   3.237   2.604   4.637  0.2487  0.2837 -0.4797
 2585SOL     OW10384   2.869   2.364   4.184 -0.3652 -0.5792  0.0688
 2585SOL    HW210385   2.871   2.271   4.209 -1.4090 -0.1280  1.9507
 2585SOL    HW310386   2.951   2.399   4.220 -0.1129 -0.7058 -0.3810
 2585SOL    MW410387   2.880   2.356   4.192 -0.4699 -0.5364  0.2580
 2586SOL     OW10388   3.130   2.690   4.167 -0.0031 -0.1663  0.6402
 2586SOL    HW210389   3.126   2.610   4.219 -2.0935 -0.0992  0.6338
 2586SOL    HW310390   3.063   2.747   4.206  1.4386  1.5678  0.6185
 2586SOL    MW410391   3.121   2.687   4.179 -0.0889  0.0715  0.6361
 2587SOL     OW10392   2.323   3.022   4.513 -0.2129  0.3348 -0.2077
 2587SOL    HW210393   2.356   2.970   4.440  1.2808 -1.0206  1.3815
 2587SOL    HW310394   2.372   3.104   4.508  0.5624 -0.1249 -0.1917
 2587SOL    MW410395   2.334   3.026   4.503  0.0863  0.0954  0.0043
 2588SOL     OW10396   0.007   3.186   4.552 -0.6002 -0.0740 -0.3911
 2588SOL    HW210397  -0.072   3.147   4.591 -1.4854  0.6849 -1.3700
 2588SOL    HW310398  -0.008   3.178   4.458 -0.1652  1.3873 -0.5875
 2588SOL    MW410399  -0.006   3.180   4.545 -0.6595  0.2191 -0.5460
 2589SOL     OW10400   3.363   3.090   4.145  0.0814 -0.3680  0.6151
 2589SOL    HW210401   3.362   3.096   4.050  0.2598  1.2268  0.6931
 2589SOL    HW310402   3.381   2.998   4.164  0.3984 -0.6183 -0.8833
 2589SOL    MW410403   3.365   3.079   4.135  0.1469 -0.1903  0.4277
 2590SOL     OW10404   3.172   3.256   4.264 -0.3239  0.2301 -0.0415
 2590SOL    HW210405   3.236   3.205   4.215 -0.0482 -0.5396  1.0998
 2590SOL    HW310406   3.089   3.213   4.247 -0.1531 -0.3514  0.5719
 2590SOL    MW410407   3.170   3.244   4.255 -0.2649  0.0520  0.1893
 2591SOL     OW10408   3.173   3.511   4.174 -0.3036  0.0268 -0.0615
 2591SOL    HW210409   3.178   3.421   4.206  0.2440  0.3699  0.8403
 2591SOL    HW310410   3.152   3.503   4.081  0.1069 -1.0376 -0.0615
 2591SOL    MW410411   3.171   3.498   4.166 -0.1771 -0.0684  0.0582
 2592SOL     OW10412   2.754   3.558   4.124  0.0246 -0.2493 -0.3831
 2592SOL    HW210413   2.822   3.597   4.180 -0.6667 -0.1666  0.4151
 2592SOL    HW310414   2.741   3.470   4.159  0.6755 -0.7501 -1.3836
 2592SOL    MW410415   2.761   3.552   4.136  0.0193 -0.3045 -0.4096
 2593SOL     OW10416   3.374   3.913   4.135 -0.3690  0.4325  0.0163
 2593SOL    HW210417   3.388   3.828   4.178 -2.4427 -0.0330 -0.1577
 2593SOL    HW310418   3.408   3.901   4.047  1.9088  0.6976  0.8184
 2593SOL    MW410419   3.380   3.900   4.129 -0.3421  0.4063  0.0992
 2594SOL     OW10420   0.197   4.351   4.259 -0.0987  0.1933  0.2729
 2594SOL    HW210421   0.182   4.330   4.351  0.3069 -0.0722  0.2800
 2594SOL    HW310422   0.124   4.310   4.213  0.1978 -0.4579  0.3818
 2594SOL    MW410423   0.185   4.343   4.265 -0.0060  0.0720  0.2885
 2595SOL     OW10424   2.451   4.411   4.264  0.0519 -0.1015 -0.0040
 2595SOL    HW210425   2.439   4.374   4.352  1.3087  0.5660  0.4707
 2595SOL    HW310426   2.522   4.359   4.227  0.1108  0.1878 -0.2935
 2595SOL    MW410427   2.459   4.399   4.271  0.2255  0.0243  0.0200
 2596SOL     OW10428   3.143   4.017   4.232 -0.5925 -0.0341 -0.0387
 2596SOL    HW210429   3.223   3.977   4.198 -1.1763 -0.9329 -0.3742
 2596SOL    HW310430   3.072   3.968   4.190 -1.3278 -0.7681  1.9969
 2596SOL    MW410431   3.145   4.005   4.222 -0.7668 -0.2494  0.1855
 2597SOL     OW10432   3.864   0.005   4.105 -0.2208 -0.3316  0.3819
 2597SOL    HW210433   3.780   0.030   4.142 -0.0946  0.4112  0.1676
 2597SOL    HW310434   3.847  -0.005   4.011 -0.3118 -1.2349  0.4877
 2597SOL    MW410435   3.851   0.007   4.097 -0.2162 -0.3528  0.3676
 2598SOL     OW10436   3.380   4.611   4.144 -0.2234 -0.1541  0.3992
 2598SOL    HW210437   3.458   4.656   4.175 -0.0761 -1.0077  1.2970
 2598SOL    HW310438   3.370   4.537   4.203 -1.4670 -0.3011  0.0254
 2598SOL    MW410439   3.389   4.607   4.156 -0.3681 -0.2861  0.4687
 2599SOL     OW10440   3.590   0.344   4.246  0.1983 -0.2313  0.1702
 2599SOL    HW210441   3.580   0.354   4.152 -1.0863  1.0300  0.4125
 2599SOL    HW310442   3.660   0.405   4.269 -0.4759  0.5467  0.2077
 2599SOL    MW410443   3.598   0.354   4.237 -0.0601  0.0378  0.2069
 2600SOL     OW10444   0.336   1.855   4.642  0.3224  0.2351 -0.3991
 2600SOL    HW210445   0.311   1.946   4.624 -0.2146  0.0800 -0.4399
 2600SOL    HW310446   0.253   1.809   4.654  0.5865 -0.2937 -0.5770
 2600SOL    MW410447   0.322   1.861   4.641  0.2864  0.1450 -0.4277
 2601SOL     OW10448   3.581   0.884   4.301 -0.0571 -0.0442  0.2999
 2601SOL    HW210449   3.507   0.838   4.262  1.5876 -0.7075 -2.1433
 2601SOL    HW310450   3.568   0.976   4.278 -0.5606 -0.0247  0.6460
 2601SOL    MW410451   3.569   0.890   4.293  0.0937 -0.1292  0.0229
 2602SOL     OW10452   2.904   0.805   4.572 -0.3499 -0.3347 -0.1420
 2602SOL    HW210453   2.896   0.710   4.579  1.9702 -0.3561  3.0456
 2602SOL    HW310454   2.816   0.838   4.589 -1.1346 -1.8587 -1.1020
 2602SOL    MW410455   2.891   0.797   4.575 -0.1473 -0.5386  0.1521
 2603SOL     OW10456   3.612   1.150   4.196 -0.4749  0.2133  0.1822
 2603SOL    HW210457   3.534   1.191   4.234 -0.0041  0.8994  0.4271
 2603SOL    HW310458   3.594   1.145   4.102 -0.4919  1.1015  0.1357
 2603SOL    MW410459   3.600   1.155   4.188 -0.4151  0.4209  0.2084
 2604SOL     OW10460   4.032   1.709   4.557 -0.0268 -1.3867 -0.1571
 2604SOL    HW210461   4.025   1.701   4.462  1.0935  1.2817 -0.5056
 2604SOL    HW310462   3.948   1.746   4.584  0.3569 -0.3247 -0.3737
 2604SOL    MW410463   4.020   1.713   4.548  0.1712 -0.8944 -0.2317
 2605SOL     OW10464   0.471   3.250   4.559  0.5330 -0.5899  0.4830
 2605SOL    HW210465   0.388   3.228   4.601 -0.0319  0.7387  0.0948
 2605SOL    HW310466   0.459   3.224   4.468  0.0432  0.7658  0.1341
 2605SOL    MW410467   0.458   3.244   4.552  0.3938 -0.2358  0.3858
 2606SOL     OW10468   0.875   0.876   4.231 -0.2844  0.1015  0.0749
 2606SOL    HW210469   0.801   0.818   4.214 -0.3150  0.1577  0.0147
 2606SOL    HW310470   0.952   0.827   4.202 -0.0114 -1.0153  2.5408
 2606SOL    MW410471   0.876   0.862   4.225 -0.2524 -0.0384  0.3920
 2607SOL     OW10472   4.062   1.458   4.643 -0.0290  0.6931 -0.3755
 2607SOL    HW210473   4.058   1.550   4.616  0.5766  0.7620 -0.2531
 2607SOL    HW310474   3.973   1.424   4.629 -0.4021  1.4551  0.1423
 2607SOL    MW410475   4.050   1.466   4.637  0.0019  0.8026 -0.2913
 2608SOL     OW10476   1.211   1.601   4.543 -0.0814 -0.0588 -0.3115
 2608SOL    HW210477   1.264   1.529   4.577  0.8912  1.0525  0.5897
 2608SOL    HW310478   1.219   1.670   4.610  0.5972  1.5949 -2.0648
 2608SOL    MW410479   1.219   1.600   4.557  0.1365  0.3060 -0.4234
 2609SOL     OW10480   3.844   2.293   4.144  0.3086 -0.2116  0.1874
 2609SOL    HW210481   3.837   2.306   4.049  0.2728  0.8206  0.3195
 2609SOL    HW310482   3.919   2.346   4.169  0.9295 -1.2813  0.5934
 2609SOL    MW410483   3.853   2.302   4.135  0.3855 -0.2165  0.2580
 2610SOL     OW10484   4.271   3.564   4.280 -0.4333  0.6593  0.0695
 2610SOL    HW210485   4.192   3.516   4.253  0.0229  0.2797 -0.6256
 2610SOL    HW310486   4.270   3.644   4.227 -0.7101  0.9791  0.5570
 2610SOL    MW410487   4.261   3.568   4.269 -0.4096  0.6516  0.0424
 2611SOL     OW10488   3.560   2.664   4.175  0.0458 -0.0551 -0.4466
 2611SOL    HW210489   3.593   2.577   4.195 -1.3990 -0.5254 -0.0726
 2611SOL    HW310490   3.568   2.672   4.080  0.3847 -0.4930 -0.4562
 2611SOL    MW410491   3.566   2.654   4.165 -0.1001 -0.1748 -0.3982
 2612SOL     OW10492   3.552   0.767   4.568  0.3438  0.2140 -0.3300
 2612SOL    HW210493   3.457   0.753   4.573  0.1756  1.6860  0.8814
 2612SOL    HW310494   3.566   0.805   4.481 -0.1811  0.0628 -0.4811
 2612SOL    MW410495   3.541   0.770   4.557  0.2525  0.3883 -0.1903
 2613SOL     OW10496   3.776   3.081   4.182 -0.6439 -0.8220 -0.0448
 2613SOL    HW210497   3.786   2.990   4.211  0.9588 -0.7024 -0.1624
 2613SOL    HW310498   3.795   3.079   4.089  0.0219 -0.2796  0.0707
 2613SOL    MW410499   3.780   3.069   4.174 -0.3445 -0.7346 -0.0448
 2614SOL     OW10500   3.573   3.240   4.274 -0.3743 -0.0784  0.2337
 2614SOL    HW210501   3.493   3.205   4.235 -0.4399 -0.0483  0.3415
 2614SOL    HW310502   3.641   3.176   4.250 -0.1902  0.5389 -0.9198
 2614SOL    MW410503   3.572   3.227   4.266 -0.3588  0.0067  0.0954
 2615SOL     OW10504   2.911   3.879   4.159  0.3990 -0.1084  0.0722
 2615SOL    HW210505   2.909   3.801   4.215 -1.4819  1.3197  2.0569
 2615SOL    HW310506   2.836   3.931   4.187  2.6475  3.2913  0.0176
 2615SOL    MW410507   2.901   3.875   4.170  0.4478  0.5283  0.3271
 2616SOL     OW10508   3.604   4.594   4.481 -0.1115  0.3472 -0.2845
 2616SOL    HW210509   3.679   4.542   4.452 -0.6578 -1.3741  1.2817
 2616SOL    HW310510   3.634   4.634   4.563 -1.6385 -2.2754  1.6428
 2616SOL    MW410511   3.618   4.593   4.488 -0.3848 -0.2265  0.1764
 2617SOL     OW10512   3.003   4.019   4.514  0.1137  0.3006  0.3816
 2617SOL    HW210513   3.005   4.112   4.539  0.9679  0.2744  0.4369
 2617SOL    HW310514   3.041   4.018   4.426 -1.5449  0.2148 -0.3629
 2617SOL    MW410515   3.008   4.031   4.505  0.0076  0.2861  0.2904
 2618SOL     OW10516   4.065   3.992   4.166 -0.4969 -0.6274  0.2779
 2618SOL    HW210517   4.121   3.915   4.164 -0.5684 -0.7073  1.3464
 2618SOL    HW310518   3.978   3.959   4.142 -0.2685 -0.6593 -0.4997
 2618SOL    MW410519   4.061   3.977   4.163 -0.4754 -0.6423  0.3157
 2619SOL     OW10520   3.837   4.217   4.593  0.1777  0.0310  0.1080
 2619SOL    HW210521   3.898   4.154   4.554  0.1973  0.0852  0.0511
 2619SOL    HW310522   3.893   4.276   4.644  0.2310  0.3892 -0.3590
 2619SOL    MW410523   3.852   4.217   4.594  0.1876  0.0854  0.0391
 2620SOL     OW10524   3.830   4.401   4.155 -0.0917  0.6315  0.2726
 2620SOL    HW210525   3.918   4.362   4.158 -0.0261  0.8290  1.1951
 2620SOL    HW310526   3.843   4.487   4.115  0.4018  1.3220  1.8745
 2620SOL    MW410527   3.844   4.407   4.150 -0.0179  0.7486  0.6056
 2621SOL     OW10528   1.291   1.897   4.645 -0.0478 -0.9532  0.0144
 2621SOL    HW210529   1.370   1.903   4.591  0.0979  0.0990  0.3390
 2621SOL    HW310530   1.322   1.916   4.734 -0.9883  1.4130 -0.1298
 2621SOL    MW410531   1.306   1.900   4.650 -0.1526 -0.5021  0.0377
 2622SOL     OW10532   4.015   0.383   4.198  0.3935  0.3561  0.2774
 2622SOL    HW210533   4.084   0.436   4.237  0.7043 -0.3779  0.7205
 2622SOL    HW310534   3.935   0.435   4.213  0.8853  1.3628 -0.5474
 2622SOL    MW410535   4.013   0.397   4.205  0.4997  0.3920  0.2270
 2623SOL     OW10536   4.433   0.165   4.553  0.1010  0.2521  0.2417
 2623SOL    HW210537   4.525   0.176   4.579  0.5090 -2.9438  0.2956
 2623SOL    HW310538   4.436   0.113   4.473 -1.6672  0.7797 -0.1996
 2623SOL    MW410539   4.446   0.160   4.546 -0.0787 -0.0999  0.1907
 2624SOL     OW10540   4.340   1.119   4.641 -0.2962 -0.5190 -0.1379
 2624SOL    HW210541   4.329   1.205   4.600  0.6141 -0.7573 -0.8826
 2624SOL    HW310542   4.300   1.129   4.727 -0.0842  0.6954 -0.1673
 2624SOL    MW410543   4.333   1.132   4.647 -0.1478 -0.3902 -0.2398
 2625SOL     OW10544   4.299   0.771   4.199 -0.1845 -0.2847 -0.1148
 2625SOL    HW210545   4.286   0.681   4.227  1.5954 -0.3195  0.6524
 2625SOL    HW310546   4.290   0.767   4.103 -0.9347 -1.1063 -0.0239
 2625SOL    MW410547   4.296   0.759   4.190 -0.0491 -0.3977 -0.0019
 2626SOL     OW10548   0.237   4.599   4.733 -0.1884  0.0660 -0.1181
 2626SOL    HW210549   0.304   4.547   4.688 -0.6215 -0.1427 -0.5205
 2626SOL    HW310550   0.244   4.686   4.692  1.0639  0.5611  1.0882
 2626SOL    MW410551   0.247   4.604   4.722 -0.0803  0.1040 -0.0114
 2627SOL     OW10552   4.035   1.134   4.231  0.5748  0.0101  0.0598
 2627SOL    HW210553   4.050   1.052   4.278  0.2821  0.1991  0.4885
 2627SOL    HW310554   4.117   1.182   4.241  0.0054  0.6969  1.7059
 2627SOL    MW410555   4.048   1.129   4.239  0.4611  0.1256  0.3328
 2628SOL     OW10556   4.210   1.549   4.185 -0.5884 -0.1366 -0.0571
 2628SOL    HW210557   4.207   1.545   4.089  0.9873 -0.6192 -0.0979
 2628SOL    HW310558   4.294   1.591   4.204 -1.7073  1.6275  1.0861
 2628SOL    MW410559   4.221   1.554   4.175 -0.5279  0.0324  0.0887
 2629SOL     OW10560   4.458   1.657   4.264 -0.2098  0.3533  0.1904
 2629SOL    HW210561   4.452   1.745   4.228  1.4917  0.5652  0.3919
 2629SOL    HW310562   4.542   1.624   4.233 -0.6106 -1.0362  0.5055
 2629SOL    MW410563   4.468   1.664   4.255 -0.0381  0.1979  0.2589
 2630SOL     OW10564   0.315   0.804   4.528 -0.1540 -0.3970  0.4212
 2630SOL    HW210565   0.287   0.895   4.542  0.9584 -0.2690  2.0078
 2630SOL    HW310566   0.366   0.807   4.447  0.1315  0.4619  0.6250
 2630SOL    MW410567   0.318   0.817   4.519  0.0305 -0.2668  0.6576
 2631SOL     OW10568   3.513   1.779   4.560  0.5908 -0.0604 -0.1270
 2631SOL    HW210569   3.517   1.689   4.593 -0.7436  0.5109  1.7194
 2631SOL    HW310570   3.454   1.823   4.621 -0.8216  1.4366 -2.5374
 2631SOL    MW410571   3.506   1.773   4.573  0.2282  0.2126 -0.2017
 2632SOL     OW10572   4.242   2.052   4.206 -0.1305  0.1078  0.1868
 2632SOL    HW210573   4.205   2.061   4.294 -0.4215 -1.0254  0.1835
 2632SOL    HW310574   4.173   2.009   4.156  0.4676 -0.2652 -0.3138
 2632SOL    MW410575   4.228   2.048   4.211 -0.0901 -0.0911  0.1202
 2633SOL     OW10576   4.299   2.309   4.140 -0.2872 -0.2778  0.4049
 2633SOL    HW210577   4.271   2.223   4.172 -1.3335  0.4200  1.4251
 2633SOL    HW310578   4.241   2.370   4.185  0.6883  0.9834 -0.0486
 2633SOL    MW410579   4.288   2.305   4.150 -0.2971 -0.0193  0.4797
 2634SOL     OW10580   0.459   1.130   4.189 -0.4140  0.7979 -0.1024
 2634SOL    HW210581   0.445   1.139   4.095 -0.0089 -1.4685 -0.3875
 2634SOL    HW310582   0.517   1.203   4.211  1.0936  0.1958 -1.9646
 2634SOL    MW410583   0.464   1.141   4.180 -0.1616  0.4195 -0.3858
 2635SOL     OW10584   4.014   2.705   4.143 -0.0103 -0.7082  0.1645
 2635SOL    HW210585   4.086   2.743   4.192 -0.4031  0.8897 -0.4655
 2635SOL    HW310586   3.935   2.734   4.191 -0.3667  0.4114 -1.0642
 2635SOL    MW410587   4.013   2.714   4.156 -0.1087 -0.3498 -0.0806
 2636SOL     OW10588   2.377   1.214   4.463 -0.1794 -0.0558 -0.3816
 2636SOL    HW210589   2.398   1.252   4.377 -1.0582  0.3523 -0.4231
 2636SOL    HW310590   2.432   1.263   4.524 -0.4117  0.4642 -0.5800
 2636SOL    MW410591   2.387   1.226   4.459 -0.3262  0.0668 -0.4129
 2637SOL     OW10592   4.224   2.808   4.295  0.1358  0.6254  0.1716
 2637SOL    HW210593   4.312   2.782   4.268 -0.5166 -0.2730 -1.1370
 2637SOL    HW310594   4.221   2.902   4.281  0.1537  0.3318 -1.9284
 2637SOL    MW410595   4.235   2.817   4.290  0.0520  0.4683 -0.2775
 2638SOL     OW10596   4.243   3.064   4.191  0.1679  0.0575 -0.2962
 2638SOL    HW210597   4.250   3.084   4.097 -0.5071 -0.9982 -0.5871
 2638SOL    HW310598   4.173   3.121   4.222  0.3397  0.3553 -0.4557
 2638SOL    MW410599   4.234   3.074   4.183  0.1011 -0.0427 -0.3567
 2639SOL     OW10600   4.024   3.209   4.272  0.4262  0.1841 -0.0492
 2639SOL    HW210601   4.045   3.227   4.364  0.2680  1.0596 -0.1816
 2639SOL    HW310602   3.936   3.171   4.275  0.1614  0.8030  0.1111
 2639SOL    MW410603   4.015   3.206   4.285  0.3705  0.3810 -0.0458
 2640SOL     OW10604   4.015   3.465   4.178 -0.4540 -0.3270  0.0493
 2640SOL    HW210605   4.006   3.375   4.210 -0.1038 -0.7588 -1.0460
 2640SOL    HW310606   4.018   3.456   4.083  2.9028  0.5052 -0.0018
 2640SOL    MW410607   4.015   3.452   4.170  0.0353 -0.2739 -0.1020
 2641SOL     OW10608   3.797   0.529   4.306  0.2184 -0.8628  0.1566
 2641SOL    HW210609   3.817   0.620   4.287  0.7515 -0.7967  1.0066
 2641SOL    HW310610   3.830   0.515   4.395  0.2863 -1.9215 -0.0240
 2641SOL    MW410611   3.804   0.539   4.315  0.2978 -0.9938  0.2451
 2642SOL     OW10612   0.218   0.187   4.618 -0.0180  0.4660  0.1217
 2642SOL    HW210613   0.244   0.199   4.527 -0.8023  0.7907 -0.0685
 2642SOL    HW310614   0.281   0.240   4.668  0.1381  0.6461 -0.2644
 2642SOL    MW410615   0.230   0.196   4.613 -0.1009  0.5326  0.0458
 2643SOL     OW10616   2.861   1.569   4.569 -0.3558  0.0222 -0.1570
 2643SOL    HW210617   2.866   1.478   4.539  0.6849  0.3729 -1.0824
 2643SOL    HW310618   2.950   1.589   4.598 -0.4531  0.9026 -0.4470
 2643SOL    MW410619   2.873   1.559   4.569 -0.2313  0.1847 -0.3176
 2644SOL     OW10620   0.419   0.349   4.155 -0.2321 -0.4497 -0.0783
 2644SOL    HW210621   0.427   0.355   4.060  1.1610 -1.5976 -0.0548
 2644SOL    HW310622   0.354   0.416   4.178 -0.1011  0.2860 -1.7574
 2644SOL    MW410623   0.411   0.359   4.145 -0.0310 -0.5041 -0.2971
 2645SOL     OW10624   2.676   4.279   4.193  0.2995  0.0303  0.6101
 2645SOL    HW210625   2.695   4.284   4.099  0.0506 -1.4245  0.4803
 2645SOL    HW310626   2.754   4.314   4.235  0.5898  0.2802 -0.1220
 2645SOL    MW410627   2.689   4.284   4.186  0.3049 -0.1287  0.4964
 2646SOL     OW10628   4.259   3.796   4.132 -0.2581 -0.0961 -0.0852
 2646SOL    HW210629   4.258   3.807   4.037 -2.0092  1.7187  0.1299
 2646SOL    HW310630   4.336   3.846   4.161  0.4333 -0.8707 -0.5407
 2646SOL    MW410631   4.269   3.804   4.123 -0.3982  0.0408 -0.1173
 2647SOL     OW10632   1.900   3.767   4.472 -0.1584 -0.1933  0.2382
 2647SOL    HW210633   1.912   3.737   4.382  1.7111  0.7208  0.1510
 2647SOL    HW310634   1.986   3.758   4.512 -0.9987 -0.6978  1.9873
 2647SOL    MW410635   1.913   3.762   4.466 -0.0225 -0.1390  0.4573
 2648SOL     OW10636   2.013   1.418   4.813 -0.0299 -0.0857 -0.1854
 2648SOL    HW210637   2.081   1.475   4.777  0.6157 -0.2741  0.7080
 2648SOL    HW310638   2.003   1.447   4.904 -0.7781 -0.3993 -0.1670
 2648SOL    MW410639   2.021   1.429   4.820 -0.0434 -0.1519 -0.0653
 2649SOL     OW10640   1.255   3.466   4.686 -0.0227  0.7569 -0.5915
 2649SOL    HW210641   1.222   3.529   4.622 -0.9145 -0.5287 -1.4491
 2649SOL    HW310642   1.340   3.500   4.713  0.1518  1.5830 -2.1270
 2649SOL    MW410643   1.262   3.479   4.681 -0.1174  0.6959 -0.9069
 2650SOL     OW10644   1.162   0.517   4.545 -0.4212 -0.4040  0.0246
 2650SOL    HW210645   1.208   0.600   4.532 -0.5334 -0.6477 -2.1616
 2650SOL    HW310646   1.229   0.455   4.573  0.3689 -0.4733 -1.9964
 2650SOL    MW410647   1.177   0.520   4.547 -0.3318 -0.4452 -0.5307
 2651SOL     OW10648   4.408   0.856   4.517 -0.7900 -0.3942  0.1291
 2651SOL    HW210649   4.359   0.934   4.546  0.4256  0.4413 -0.0312
 2651SOL    HW310650   4.464   0.888   4.446 -0.8671 -1.5956 -0.4823
 2651SOL    MW410651   4.409   0.871   4.511 -0.6394 -0.4424  0.0272
 2652SOL     OW10652   3.782   1.819   4.638  0.5948 -0.4005  0.7829
 2652SOL    HW210653   3.755   1.811   4.730  0.0111 -0.2615  0.6236
 2652SOL    HW310654   3.701   1.811   4.589  0.7480  0.7774  0.3280
 2652SOL    MW410655   3.768   1.817   4.644  0.5381 -0.2267  0.7014
 2653SOL     OW10656   1.973   2.061   4.230  0.1105 -0.3402  0.1932
 2653SOL    HW210657   2.055   2.019   4.204  0.3589 -0.0287  0.4722
 2653SOL    HW310658   1.974   2.146   4.187 -0.7669 -0.9228 -1.0290
 2653SOL    MW410659   1.984   2.067   4.221  0.0277 -0.3760  0.0687
 2654SOL     OW10660   4.486   1.913   4.157 -0.0849  0.0903 -0.4225
 2654SOL    HW210661   4.418   1.978   4.175  0.9581  0.9449  0.5451
 2654SOL    HW310662   4.568   1.957   4.181  0.8526 -0.7619 -2.0168
 2654SOL    MW410663   4.488   1.927   4.163  0.1764  0.0906 -0.5045
 2655SOL     OW10664   1.274   0.787   4.526 -0.2017  0.6201 -0.3824
 2655SOL    HW210665   1.343   0.820   4.583  1.1463 -2.0477 -0.4201
 2655SOL    HW310666   1.294   0.824   4.440  1.4714 -0.5516 -0.5012
 2655SOL    MW410667   1.286   0.796   4.522  0.1969  0.1135 -0.4029
 2656SOL     OW10668   0.279   1.081   4.542 -0.0728  0.3910  0.2959
 2656SOL    HW210669   0.241   1.133   4.471  0.3680 -0.2094 -0.3778
 2656SOL    HW310670   0.227   1.106   4.619 -0.9567  0.5806 -0.3456
 2656SOL    MW410671   0.267   1.091   4.543 -0.1312  0.3368  0.1225
 2657SOL     OW10672   3.682   0.563   4.690  0.0898 -0.0868 -0.0345
 2657SOL    HW210673   3.651   0.644   4.649 -0.2328  0.2954  0.9484
 2657SOL    HW310674   3.766   0.545   4.647 -0.6019 -0.1092 -1.3759
 2657SOL    MW410675   3.689   0.572   4.679 -0.0439 -0.0393 -0.0815
 2658SOL     OW10676   1.882   0.561   4.764 -0.3020  0.2526 -0.4480
 2658SOL    HW210677   1.972   0.593   4.767 -0.2598  0.2083 -1.0486
 2658SOL    HW310678   1.889   0.467   4.777 -0.1585  0.1035 -1.5328
 2658SOL    MW410679   1.895   0.553   4.766 -0.2776  0.2271 -0.6704
 2659SOL     OW10680   0.666   0.429   4.265 -0.0476  0.2597 -0.0843
 2659SOL    HW210681   0.584   0.401   4.224  0.1865 -0.1794 -0.2479
 2659SOL    HW310682   0.650   0.418   4.359 -0.5012  1.0473 -0.0599
 2659SOL    MW410683   0.653   0.424   4.272 -0.0766  0.3057 -0.1030
 2660SOL     OW10684   3.228   0.449   4.574  0.3577  0.3003 -0.0821
 2660SOL    HW210685   3.283   0.450   4.495  1.0041  0.1691  0.3645
 2660SOL    HW310686   3.289   0.430   4.645 -0.2766  0.1184  0.4129
 2660SOL    MW410687   3.243   0.446   4.573  0.3595  0.2590  0.0420
 2661SOL     OW10688   3.778   1.535   4.182  0.0861  0.0238 -0.2238
 2661SOL    HW210689   3.763   1.449   4.219 -0.5452  0.4481  0.5194
 2661SOL    HW310690   3.711   1.591   4.222 -0.6476  0.4841 -2.0171
 2661SOL    MW410691   3.767   1.531   4.192 -0.0937  0.1405 -0.3619
 2662SOL     OW10692   4.478   2.448   4.278 -0.3167  0.0927 -0.3069
 2662SOL    HW210693   4.567   2.422   4.255  0.2334  0.0479  1.7801
 2662SOL    HW310694   4.422   2.399   4.217  1.0361 -0.7869 -0.8506
 2662SOL    MW410695   4.482   2.438   4.267 -0.0655 -0.0291 -0.1030
 2663SOL     OW10696   2.122   0.458   4.558 -0.2684  0.2056 -0.1490
 2663SOL    HW210697   2.067   0.410   4.621 -0.0903  0.3387  0.1083
 2663SOL    HW310698   2.136   0.543   4.599  0.6261 -0.0403  0.0601
 2663SOL    MW410699   2.116   0.463   4.572 -0.1266  0.1907 -0.0873
 2664SOL     OW10700   3.302   1.909   4.663  0.2583  0.3484  0.4469
 2664SOL    HW210701   3.341   1.978   4.610  1.2352 -0.2947  0.3043
 2664SOL    HW310702   3.211   1.936   4.676  0.6929  1.7787  0.6084
 2664SOL    MW410703   3.295   1.922   4.658  0.4447  0.4523  0.4492
 2665SOL     OW10704   1.483   2.559   4.627  0.5175 -0.5250 -0.0622
 2665SOL    HW210705   1.464   2.648   4.597  1.5532 -0.5901 -0.9356
 2665SOL    HW310706   1.409   2.507   4.596  0.9770 -0.3653 -1.4498
 2665SOL    MW410707   1.470   2.564   4.619  0.7149 -0.5124 -0.3605
 2666SOL     OW10708   2.663   1.831   4.475  0.1083 -0.1425  0.0327
 2666SOL    HW210709   2.661   1.774   4.551  0.1843 -0.5886 -0.2926
 2666SOL    HW310710   2.593   1.894   4.489  0.8002  0.4189  0.9657
 2666SOL    MW410711   2.654   1.832   4.487  0.2093 -0.1272  0.1130
 2667SOL     OW10712   2.214   1.720   4.235  0.5287 -0.2767 -0.0326
 2667SOL    HW210713   2.289   1.671   4.203  0.5091 -0.4948  0.2581
 2667SOL    HW310714   2.138   1.669   4.209  0.4018  0.7950 -1.8243
 2667SOL    MW410715   2.214   1.707   4.228  0.5093 -0.1642 -0.2308
 2668SOL     OW10716   4.281   2.295   4.626  0.1863 -0.0312 -0.2638
 2668SOL    HW210717   4.249   2.223   4.572  1.2701 -0.4770 -0.3307
 2668SOL    HW310718   4.223   2.368   4.606 -1.0358 -0.9332 -0.0664
 2668SOL    MW410719   4.269   2.295   4.616  0.1678 -0.2091 -0.2470
 2669SOL     OW10720   1.433   4.297   4.652 -0.2681 -0.2679 -0.2793
 2669SOL    HW210721   1.415   4.367   4.589 -1.4005 -0.3686 -0.0861
 2669SOL    HW310722   1.350   4.249   4.658 -0.1599 -0.2869  1.2487
 2669SOL    MW410723   1.420   4.300   4.644 -0.4032 -0.2837 -0.0520
 2670SOL     OW10724   3.594   4.300   4.124  0.2287 -0.1414 -0.1600
 2670SOL    HW210725   3.678   4.344   4.134  0.7258 -1.0026 -0.4960
 2670SOL    HW310726   3.601   4.222   4.179 -0.6075  0.1307  0.3484
 2670SOL    MW410727   3.606   4.296   4.133  0.1841 -0.2189 -0.1369
 2671SOL     OW10728   2.469   4.664   4.154  0.2032 -0.1739  0.6148
 2671SOL    HW210729   2.561   4.692   4.163  0.8621 -1.4436 -1.8771
 2671SOL    HW310730   2.464   4.583   4.205  0.8598 -0.8908 -0.4350
 2671SOL    MW410731   2.481   4.657   4.162  0.3765 -0.4360  0.1478
 2672SOL     OW10732   2.648   1.182   4.640  0.4076 -0.3774  0.0507
 2672SOL    HW210733   2.721   1.222   4.592  0.0593 -0.2563 -0.3751
 2672SOL    HW310734   2.598   1.257   4.674  0.4150 -0.4620  0.2516
 2672SOL    MW410735   2.651   1.197   4.638  0.3624 -0.3725  0.0210
 2673SOL     OW10736   2.733   3.982   4.510  0.4989  0.0202 -0.3502
 2673SOL    HW210737   2.702   3.993   4.420  0.8420  0.5891 -0.4072
 2673SOL    HW310738   2.822   4.020   4.509 -0.0146  1.2937  0.5443
 2673SOL    MW410739   2.741   3.989   4.498  0.4766  0.2635 -0.2394
 2674SOL     OW10740   4.069   2.453   4.248  0.5991  0.4430  0.2589
 2674SOL    HW210741   4.073   2.458   4.343 -0.1719 -0.6889  0.3567
 2674SOL    HW310742   4.053   2.543   4.220 -1.8901  0.3702  1.3587
 2674SOL    MW410743   4.067   2.465   4.257  0.1688  0.2842  0.4177
 2675SOL     OW10744   1.691   0.710   4.636  0.0192  0.1228 -0.2164
 2675SOL    HW210745   1.755   0.663   4.689  0.0173  0.9200  0.5052
 2675SOL    HW310746   1.744   0.767   4.581 -0.0037 -0.3116 -0.6892
 2675SOL    MW410747   1.706   0.711   4.636  0.0157  0.1707 -0.1836
 2676SOL     OW10748   2.025   0.935   4.638 -0.1204 -0.0268 -0.0388
 2676SOL    HW210749   1.990   1.018   4.668 -2.1722 -1.4230  1.6215
 2676SOL    HW310750   2.109   0.957   4.598  0.4174  2.5464  2.3406
 2676SOL    MW410751   2.031   0.949   4.637 -0.3202  0.1285  0.4945
 2677SOL     OW10752   0.658   3.596   4.284 -0.7686 -0.2712  0.0299
 2677SOL    HW210753   0.743   3.568   4.251 -0.1427 -0.6806  1.9365
 2677SOL    HW310754   0.594   3.550   4.229  0.2427 -1.3029 -0.2823
 2677SOL    MW410755   0.661   3.586   4.273 -0.5527 -0.4613  0.2398
 2678SOL     OW10756   4.286   1.848   4.516 -0.1787 -0.4774  0.5479
 2678SOL    HW210757   4.200   1.806   4.512 -0.1138 -0.5151 -0.6663
 2678SOL    HW310758   4.347   1.778   4.538 -0.1885 -0.8597 -0.6165
 2678SOL    MW410759   4.283   1.833   4.518 -0.1712 -0.5330  0.2341
 2679SOL     OW10760   0.802   1.319   4.625  0.1654 -0.1068 -0.1499
 2679SOL    HW210761   0.776   1.249   4.686 -1.8619  1.2594  0.6091
 2679SOL    HW310762   0.719   1.356   4.595  1.2205  1.6817 -0.9097
 2679SOL    MW410763   0.787   1.315   4.629  0.0371  0.3093 -0.1497
 2680SOL     OW10764   1.755   2.607   4.548  0.1905 -0.7792 -0.0623
 2680SOL    HW210765   1.663   2.592   4.571  0.6923 -1.4828  1.5535
 2680SOL    HW310766   1.785   2.671   4.612  0.7647 -0.3407 -0.7617
 2680SOL    MW410767   1.747   2.614   4.559  0.3325 -0.8142  0.0587
 2681SOL     OW10768   3.833   3.109   4.670  0.3088 -0.2490 -0.0335
 2681SOL    HW210769   3.744   3.133   4.647  0.5212 -0.0032 -0.6290
 2681SOL    HW310770   3.835   3.109   4.766  0.1919  1.7828 -0.0034
 2681SOL    MW410771   3.822   3.112   4.680  0.3216  0.0515 -0.1082
 2682SOL     OW10772   1.565   1.909   4.504  0.5121  0.1569  0.3193
 2682SOL    HW210773   1.548   1.944   4.416  0.0950 -0.0076  0.3340
 2682SOL    HW310774   1.651   1.944   4.527  0.7353 -0.0127 -0.2638
 2682SOL    MW410775   1.574   1.919   4.495  0.4865  0.1128  0.2437
 2683SOL     OW10776   3.421   2.962   4.542  0.7004  0.0039 -0.0409
 2683SOL    HW210777   3.387   2.916   4.465  0.9239 -1.6911  0.8439
 2683SOL    HW310778   3.343   2.994   4.587  0.3970 -1.8049  0.7279
 2683SOL    MW410779   3.406   2.960   4.538  0.6897 -0.4585  0.1779
 2684SOL     OW10780   2.985   2.944   4.826 -0.0329 -0.1659  0.1146
 2684SOL    HW210781   3.068   2.917   4.866 -0.0760 -0.8722 -0.2772
 2684SOL    HW310782   2.945   2.863   4.795 -0.6463  0.2273 -0.1347
 2684SOL    MW410783   2.991   2.930   4.827 -0.1197 -0.2072  0.0300
 2685SOL     OW10784   4.470   4.219   4.143 -0.3590  0.1738  0.1327
 2685SOL    HW210785   4.470   4.208   4.048 -0.7832  1.1153  0.0274
 2685SOL    HW310786   4.479   4.130   4.177 -1.8309 -0.3358 -0.7689
 2685SOL    MW410787   4.472   4.206   4.135 -0.6094  0.2308  0.0005
 2686SOL     OW10788   1.992   2.313   4.146  0.4759 -0.1686 -0.2051
 2686SOL    HW210789   1.990   2.339   4.054 -0.7477  0.3731 -0.0325
 2686SOL    HW310790   1.924   2.365   4.188  1.0015 -0.4274  1.0103
 2686SOL    MW410791   1.983   2.323   4.140  0.3837 -0.1314 -0.0219
 2687SOL     OW10792   4.096   2.762   4.564  0.0150 -0.2409  0.0262
 2687SOL    HW210793   4.131   2.801   4.484  1.1588 -2.3078 -0.5208
 2687SOL    HW310794   4.001   2.769   4.556  0.1800  1.3513 -0.5912
 2687SOL    MW410795   4.088   2.768   4.553  0.1884 -0.3035 -0.1273
 2688SOL     OW10796   0.667   3.840   4.128 -0.1938  0.6547 -0.1808
 2688SOL    HW210797   0.669   3.754   4.171 -0.7413  0.6489 -0.1730
 2688SOL    HW310798   0.581   3.876   4.149  0.5197  1.7655  0.9200
 2688SOL    MW410799   0.656   3.834   4.137 -0.1719  0.8006 -0.0348
 2689SOL     OW10800   0.097   4.017   4.843  0.4670  0.3854 -0.7500
 2689SOL    HW210801   0.170   4.077   4.831  1.2916 -0.2714  0.9035
 2689SOL    HW310802   0.068   4.032   4.933  0.4262 -1.3942 -0.4460
 2689SOL    MW410803   0.103   4.027   4.853  0.5704  0.0639 -0.4921
 2690SOL     OW10804   4.446   0.052   4.305 -0.0844 -0.2001 -0.1329
 2690SOL    HW210805   4.376   0.014   4.253  0.7479  1.0374 -2.2192
 2690SOL    HW310806   4.525   0.008   4.275  0.1468 -1.1778  1.7951
 2690SOL    MW410807   4.448   0.041   4.294  0.0558 -0.1659 -0.1535
 2691SOL     OW10808   3.123   2.593   4.879 -0.0831  0.2968  0.0285
 2691SOL    HW210809   3.044   2.624   4.835 -0.2831  0.0917  0.2432
 2691SOL    HW310810   3.101   2.505   4.909  0.8150 -0.4630 -1.4489
 2691SOL    MW410811   3.110   2.586   4.877  0.0093  0.1695 -0.1388
 2692SOL     OW10812   0.053   3.465   4.526 -0.2631  0.5895 -0.1208
 2692SOL    HW210813   0.032   3.373   4.543 -2.1088  1.2314  1.1886
 2692SOL    HW310814   0.128   3.484   4.582 -0.2594  0.0539  0.0534
 2692SOL    MW410815   0.060   3.455   4.535 -0.5062  0.6034  0.0749
 2693SOL     OW10816   1.283   2.369   4.539 -0.1137 -0.6361  0.4156
 2693SOL    HW210817   1.325   2.391   4.455 -0.2670  0.4400  0.6168
 2693SOL    HW310818   1.196   2.407   4.533 -0.5042 -1.4669  0.6557
 2693SOL    MW410819   1.277   2.377   4.527 -0.1855 -0.6037  0.4740
 2694SOL     OW10820   1.362   3.480   4.104  0.0255  0.0798  0.0922
 2694SOL    HW210821   1.342   3.469   4.011 -0.7289 -0.6794  0.3386
 2694SOL    HW310822   1.286   3.528   4.139  0.3605  0.4648  0.2905
 2694SOL    MW410823   1.349   3.485   4.096 -0.0298  0.0305  0.1512
 2695SOL     OW10824   2.510   0.090   4.577 -0.4133  0.0046 -0.1323
 2695SOL    HW210825   2.534   0.161   4.636 -1.6600 -0.0557  0.4465
 2695SOL    HW310826   2.564   0.105   4.499  2.0493 -0.5412  1.4197
 2695SOL    MW410827   2.521   0.101   4.574 -0.2530 -0.0754  0.1493
 2696SOL     OW10828   1.882   1.618   4.672  0.2499 -0.6845  0.5741
 2696SOL    HW210829   1.924   1.541   4.711  0.7022 -0.1086  1.2332
 2696SOL    HW310830   1.951   1.684   4.669  0.4754 -0.9874 -2.0444
 2696SOL    MW410831   1.897   1.617   4.677  0.3394 -0.6485  0.3157
 2697SOL     OW10832   1.789   4.271   4.142 -0.2724 -0.4448  0.2679
 2697SOL    HW210833   1.775   4.255   4.049  0.2128 -0.0864  0.1303
 2697SOL    HW310834   1.802   4.184   4.179 -0.1396 -0.5633 -0.0547
 2697SOL    MW410835   1.789   4.257   4.135 -0.1909 -0.4134  0.2074
 2698SOL     OW10836   3.857   2.323   4.607  0.1292 -0.0166  0.3279
 2698SOL    HW210837   3.910   2.323   4.687  1.8094 -2.3729 -0.7172
 2698SOL    HW310838   3.856   2.232   4.579 -1.2071  0.6330 -1.8567
 2698SOL    MW410839   3.864   2.311   4.614  0.1745 -0.2418 -0.0982
 2699SOL     OW10840   1.133   2.135   4.539 -0.1378  0.2077  0.2448
 2699SOL    HW210841   1.191   2.210   4.533 -0.4446  0.4639  0.4429
 2699SOL    HW310842   1.185   2.067   4.582  0.0705  0.3746  0.2562
 2699SOL    MW410843   1.147   2.136   4.544 -0.1508  0.2635  0.2723
 2700SOL     OW10844   1.993   4.417   4.242  0.0220  0.1786 -0.0025
 2700SOL    HW210845   1.920   4.367   4.206  1.1768 -1.0501 -0.6646
 2700SOL    HW310846   1.993   4.499   4.192 -0.2963 -0.2153 -0.6465
 2700SOL    MW410847   1.983   4.421   4.231  0.1323 -0.0353 -0.1750
 2701SOL     OW10848   0.473   1.927   4.183  0.0679 -0.0421 -0.0476
 2701SOL    HW210849   0.551   1.970   4.218 -0.8814  1.5805  0.1190
 2701SOL    HW310850   0.480   1.938   4.089  0.2688 -0.3085 -0.0654
 2701SOL    MW410851   0.484   1.934   4.175 -0.0309  0.1369 -0.0281
 2702SOL     OW10852   3.891   3.751   4.549 -0.4727 -0.6285 -0.1356
 2702SOL    HW210853   3.938   3.832   4.528 -0.9811 -0.5520 -0.9942
 2702SOL    HW310854   3.800   3.778   4.562 -0.2889 -0.7613  1.6258
 2702SOL    MW410855   3.885   3.765   4.548 -0.5155 -0.6361 -0.0162
 2703SOL     OW10856   3.605   3.871   4.518  0.1501 -0.2649  0.3411
 2703SOL    HW210857   3.529   3.816   4.536 -0.8814  1.4454  1.2551
 2703SOL    HW310858   3.598   3.944   4.579  1.4987  0.9013 -0.8472
 2703SOL    MW410859   3.594   3.873   4.528  0.1919  0.1147  0.3052
 2704SOL     OW10860   1.496   0.904   4.697  0.4105 -0.3822  0.2382
 2704SOL    HW210861   1.542   0.986   4.679 -0.6397  0.0471 -0.6025
 2704SOL    HW310862   1.561   0.836   4.681  0.8383  0.2250 -0.6485
 2704SOL    MW410863   1.511   0.906   4.692  0.3283 -0.2455  0.0105
 2705SOL     OW10864   3.181   0.381   4.194 -0.1907  0.1110  0.0304
 2705SOL    HW210865   3.160   0.288   4.199 -0.1565  0.1484  0.9611
 2705SOL    HW310866   3.098   0.425   4.208 -0.0294  0.2334  0.5844
 2705SOL    MW410867   3.168   0.375   4.196 -0.1647  0.1321  0.2265
 2706SOL     OW10868   2.764   1.899   4.869 -0.5057 -0.2404 -0.2090
 2706SOL    HW210869   2.793   1.927   4.956 -0.0889  0.5608 -0.6058
 2706SOL    HW310870   2.835   1.923   4.811 -0.9128 -0.5054 -0.8206
 2706SOL    MW410871   2.777   1.906   4.873 -0.5045 -0.1696 -0.3424
 2707SOL     OW10872   3.987   1.935   4.110 -0.1043  0.4106  0.1598
 2707SOL    HW210873   3.905   1.980   4.134 -0.8956 -0.6818 -0.4441
 2707SOL    HW310874   3.985   1.854   4.162  0.5122  0.3045  0.0122
 2707SOL    MW410875   3.976   1.930   4.120 -0.1276  0.2524  0.0606
 2708SOL     OW10876   4.082   3.493   4.594  0.2349 -0.0262 -0.1294
 2708SOL    HW210877   4.014   3.559   4.612  0.4952  0.3368 -0.4694
 2708SOL    HW310878   4.163   3.544   4.584  0.8904 -0.5768  1.9817
 2708SOL    MW410879   4.084   3.509   4.595  0.3557 -0.0508  0.1040
 2709SOL     OW10880   1.774   2.827   4.724 -0.5098  0.3710  0.3244
 2709SOL    HW210881   1.831   2.890   4.680  0.8241  0.0845  1.5680
 2709SOL    HW310882   1.698   2.878   4.751 -0.0091  1.1822  0.2278
 2709SOL    MW410883   1.771   2.842   4.722 -0.2679  0.4404  0.4754
 2710SOL     OW10884   4.434   4.125   4.626 -0.2236  0.6181  0.4304
 2710SOL    HW210885   4.493   4.101   4.698  0.2197 -2.3861 -0.8683
 2710SOL    HW310886   4.473   4.204   4.589  0.8558  0.8527  1.9939
 2710SOL    MW410887   4.447   4.132   4.631 -0.0229  0.2527  0.4654
 2711SOL     OW10888   1.167   2.803   4.457  0.0276 -0.2345  0.3791
 2711SOL    HW210889   1.132   2.714   4.457 -1.1779  0.2312  0.8074
 2711SOL    HW310890   1.258   2.792   4.484  0.0662 -1.3966 -0.1647
 2711SOL    MW410891   1.174   2.790   4.461 -0.1264 -0.3264  0.3638
 2712SOL     OW10892   1.852   1.994   4.487  0.3692 -0.2837 -0.3028
 2712SOL    HW210893   1.865   2.080   4.528 -1.2917  0.9372 -2.2614
 2712SOL    HW310894   1.870   2.009   4.394  0.6541 -2.2093 -0.5699
 2712SOL    MW410895   1.856   2.008   4.480  0.1876 -0.3769 -0.5965
 2713SOL     OW10896   3.451   0.457   4.787 -0.0987 -0.4578 -0.5051
 2713SOL    HW210897   3.528   0.495   4.744  0.9296 -1.2411  0.6282
 2713SOL    HW310898   3.459   0.482   4.879 -0.4602 -1.7054 -0.1195
 2713SOL    MW410899   3.462   0.465   4.793 -0.0107 -0.7258 -0.3047
 2714SOL     OW10900   3.137   1.192   4.614  0.1171 -0.0323 -0.6766
 2714SOL    HW210901   3.157   1.102   4.590 -1.1808 -0.7544  0.8382
 2714SOL    HW310902   3.147   1.195   4.709 -0.0660  1.3680 -0.6806
 2714SOL    MW410903   3.141   1.181   4.624 -0.0780  0.0571 -0.4773
 2715SOL     OW10904   4.403   0.605   4.643 -0.5427  0.2811  0.2009
 2715SOL    HW210905   4.413   0.692   4.606  1.1141  0.2824  0.6000
 2715SOL    HW310906   4.411   0.618   4.737  0.2071 -0.3633  0.2300
 2715SOL    MW410907   4.405   0.618   4.651 -0.2251  0.1963  0.2575
 2716SOL     OW10908   1.656   1.120   4.591  0.3245  0.3439 -0.2614
 2716SOL    HW210909   1.624   1.193   4.538 -0.7690 -0.2861 -0.4798
 2716SOL    HW310910   1.741   1.151   4.625 -0.6271  2.1440  0.5500
 2716SOL    MW410911   1.663   1.134   4.589  0.0546  0.4984 -0.1836
 2717SOL     OW10912   2.219   1.519   4.663  0.3956  0.0393  0.2603
 2717SOL    HW210913   2.262   1.597   4.628 -0.6622  0.3202 -0.4551
 2717SOL    HW310914   2.204   1.463   4.588  0.9254 -0.7490  0.7398
 2717SOL    MW410915   2.222   1.522   4.649  0.3257 -0.0275  0.2294
 2718SOL     OW10916   1.100   0.474   4.261 -0.1339 -0.1432 -0.1955
 2718SOL    HW210917   1.092   0.469   4.357  0.4050 -2.0841 -0.2371
 2718SOL    HW310918   1.025   0.424   4.229  0.4157 -0.5943 -0.7742
 2718SOL    MW410919   1.089   0.467   4.270  0.0099 -0.4587 -0.2766
 2719SOL     OW10920   2.794   3.122   4.893  0.6178 -0.5195  0.8005
 2719SOL    HW210921   2.812   3.193   4.831  1.0382 -0.3440  1.1192
 2719SOL    HW310922   2.866   3.060   4.879  0.5642 -0.6093  0.9257
 2719SOL    MW410923   2.806   3.123   4.883  0.6659 -0.5081  0.8588
 2720SOL     OW10924   1.620   3.310   4.664 -0.1617 -0.4295  0.0856
 2720SOL    HW210925   1.708   3.318   4.627 -0.9833  0.2663 -1.7748
 2720SOL    HW310926   1.595   3.400   4.686 -1.3817 -0.2708 -1.7861
 2720SOL    MW410927   1.628   3.323   4.662 -0.4312 -0.3169 -0.4067
 2721SOL     OW10928   1.337   0.370   4.143  0.4442  0.3541 -0.2669
 2721SOL    HW210929   1.258   0.415   4.173  0.1202 -0.1375 -0.3810
 2721SOL    HW310930   1.408   0.432   4.160  0.1018  0.5849  0.3346
 2721SOL    MW410931   1.336   0.384   4.149  0.3562  0.3197 -0.2027
 2722SOL     OW10932   2.894   2.078   4.248 -0.3365 -0.2659  0.2294
 2722SOL    HW210933   2.911   2.040   4.334 -0.1410  1.5630  1.0058
 2722SOL    HW310934   2.814   2.035   4.219 -1.5801  0.6495  2.2479
 2722SOL    MW410935   2.886   2.067   4.256 -0.4747  0.0963  0.5975
 2723SOL     OW10936   0.739   0.123   4.549 -0.1683 -0.5781 -0.0372
 2723SOL    HW210937   0.810   0.125   4.485  0.9342  0.5437  1.1961
 2723SOL    HW310938   0.697   0.209   4.541  1.0234  0.1993  1.8910
 2723SOL    MW410939   0.743   0.134   4.540  0.1344 -0.3275  0.3796
 2724SOL     OW10940   2.413   0.734   4.650  0.1085  0.1962  0.5041
 2724SOL    HW210941   2.496   0.780   4.642  0.6636 -0.7533  0.8186
 2724SOL    HW310942   2.430   0.645   4.620 -1.3356  0.5774 -1.5528
 2724SOL    MW410943   2.426   0.728   4.645 -0.0086  0.1212  0.2742
 2725SOL     OW10944   2.432   1.306   4.187 -0.3359  0.3369  0.1216
 2725SOL    HW210945   2.523   1.277   4.188 -0.2419  0.6552  1.4021
 2725SOL    HW310946   2.436   1.399   4.166 -0.2727  0.6113  1.2846
 2725SOL    MW410947   2.444   1.314   4.185 -0.3152  0.4152  0.4444
 2726SOL     OW10948   3.348   2.822   4.276  0.0623  0.0969  0.4680
 2726SOL    HW210949   3.414   2.753   4.264  0.2597  0.2374  0.7365
 2726SOL    HW310950   3.270   2.788   4.234 -0.3669 -1.0863  2.1607
 2726SOL    MW410951   3.347   2.808   4.269  0.0319 -0.0408  0.7272
 2727SOL     OW10952   0.917   3.729   4.594 -0.2641  0.2905  0.2051
 2727SOL    HW210953   0.935   3.648   4.642 -0.3546 -1.3286 -2.3921
 2727SOL    HW310954   0.824   3.725   4.575  0.0058  0.2580 -1.1897
 2727SOL    MW410955   0.907   3.717   4.598 -0.2404  0.0725 -0.3209
 2728SOL     OW10956   4.269   0.386   4.526 -0.2496  0.4155  0.1364
 2728SOL    HW210957   4.312   0.301   4.517  0.0424  0.6604 -0.7985
 2728SOL    HW310958   4.335   0.443   4.565 -0.6889  0.0254  1.4797
 2728SOL    MW410959   4.283   0.383   4.530 -0.2694  0.3963  0.1907
 2729SOL     OW10960   0.570   1.418   4.515  0.3087 -0.1749  0.0845
 2729SOL    HW210961   0.569   1.509   4.544  0.8958 -0.0166 -0.3776
 2729SOL    HW310962   0.517   1.371   4.579 -0.8268  0.6620 -0.2210
 2729SOL    MW410963   0.563   1.424   4.527  0.2363 -0.0435 -0.0162
 2730SOL     OW10964   3.001   2.247   4.689 -0.0761 -0.5972 -0.4425
 2730SOL    HW210965   2.907   2.246   4.671 -0.7283  2.0948  2.2055
 2730SOL    HW310966   3.007   2.285   4.777  3.4350 -1.9276 -0.0362
 2730SOL    MW410967   2.989   2.252   4.698  0.3009 -0.4177 -0.0391
 2731SOL     OW10968   4.455   3.872   4.493  0.0817 -0.0304 -0.2133
 2731SOL    HW210969   4.396   3.802   4.520 -0.2644 -0.2204 -1.4304
 2731SOL    HW310970   4.428   3.948   4.545  0.7046 -0.8917  1.3820
 2731SOL    MW410971   4.444   3.873   4.503  0.1183 -0.1690 -0.1636
 2732SOL     OW10972   2.019   2.818   4.296  0.0351  0.0360  0.1647
 2732SOL    HW210973   2.022   2.914   4.305  1.3960 -0.0037  0.2524
 2732SOL    HW310974   2.037   2.786   4.384  1.2892 -0.3073 -0.2128
 2732SOL    MW410975   2.022   2.827   4.309  0.3803 -0.0145  0.1273
 2733SOL     OW10976   0.494   2.443   4.261 -0.1694  0.8628  0.0743
 2733SOL    HW210977   0.492   2.529   4.219 -0.6750  0.2237 -1.2374
 2733SOL    HW310978   0.578   2.406   4.236  0.0261  0.9557  0.5954
 2733SOL    MW410979   0.505   2.449   4.252 -0.2103  0.7908 -0.0300
 2734SOL     OW10980   1.567   0.503   4.230 -0.1087 -0.3974 -0.1257
 2734SOL    HW210981   1.579   0.509   4.325  0.5510 -1.4810 -0.1304
 2734SOL    HW310982   1.561   0.594   4.200  0.0025 -0.0485  0.9137
 2734SOL    MW410983   1.568   0.515   4.238 -0.0069 -0.4944  0.0110
 2735SOL     OW10984   3.896   4.435   4.762  0.2119  0.0798 -0.7102
 2735SOL    HW210985   3.991   4.446   4.756  0.4592 -2.2187 -1.7145
 2735SOL    HW310986   3.881   4.409   4.853  0.6181 -0.0994 -0.6924
 2735SOL    MW410987   3.906   4.433   4.773  0.2983 -0.2470 -0.8397
 2736SOL     OW10988   4.306   3.647   4.537  0.2267  0.2001  0.1799
 2736SOL    HW210989   4.292   3.623   4.446 -0.5697  1.7902 -0.1294
 2736SOL    HW310990   4.381   3.594   4.565  0.2067 -0.6010 -1.2689
 2736SOL    MW410991   4.314   3.637   4.529  0.1187  0.3042 -0.0525
 2737SOL     OW10992   2.502   3.095   4.143  0.0987 -0.0638  0.6158
 2737SOL    HW210993   2.569   3.147   4.186  0.9654 -1.4950  1.0055
 2737SOL    HW310994   2.419   3.133   4.172  0.7217  0.8220  1.2272
 2737SOL    MW410995   2.500   3.107   4.152  0.2952 -0.1359  0.7482
 2738SOL     OW10996   3.368   2.343   4.131  0.3297 -0.3899 -0.1067
 2738SOL    HW210997   3.377   2.334   4.036 -0.3360 -0.5632 -0.1549
 2738SOL    HW310998   3.457   2.361   4.162  1.1282 -3.4828 -0.4055
 2738SOL    MW410999   3.381   2.344   4.123  0.3471 -0.8209 -0.1531
 2739SOL     OW11000   4.049   2.323   4.819  0.0691  0.4796  0.2143
 2739SOL    HW211001   4.127   2.293   4.771  0.0077 -1.3002  1.1966
 2739SOL    HW311002   4.083   2.389   4.880  0.6839  0.3055  0.0707
 2739SOL    MW411003   4.064   2.328   4.821  0.1421  0.2220  0.3247
 2740SOL     OW11004   0.190   0.558   4.515  0.0527  0.7018  0.8180
 2740SOL    HW211005   0.108   0.568   4.564  0.1103  1.5981  0.7410
 2740SOL    HW311006   0.232   0.644   4.522  0.1172  0.8014 -0.7094
 2740SOL    MW411007   0.185   0.571   4.523  0.0688  0.8332  0.6065
 2741SOL     OW11008   0.931   4.027   4.531  0.0430  0.2113  0.3842
 2741SOL    HW211009   0.941   3.939   4.568 -3.0174  0.2876  1.5680
 2741SOL    HW311010   0.911   4.013   4.439 -0.9205 -0.3755  0.6762
 2741SOL    MW411011   0.929   4.014   4.524 -0.4879  0.1440  0.5784
 2742SOL     OW11012   0.953   2.453   4.219 -0.0995  0.0242 -0.8785
 2742SOL    HW211013   1.020   2.399   4.178 -1.0579 -0.4545 -1.8199
 2742SOL    HW311014   0.872   2.403   4.211 -0.9465  1.4593 -1.5127
 2742SOL    MW411015   0.952   2.439   4.213 -0.3378  0.1502 -1.0858
 2743SOL     OW11016   2.063   3.886   4.131 -0.0231  0.1232  0.6321
 2743SOL    HW211017   1.989   3.937   4.163 -0.5245 -1.1928  1.6102
 2743SOL    HW311018   2.053   3.886   4.036 -1.4926 -0.3466  0.7775
 2743SOL    MW411019   2.052   3.893   4.122 -0.2832 -0.1123  0.7806
 2744SOL     OW11020   0.875   3.953   4.263  0.4466  0.0806  0.4386
 2744SOL    HW211021   0.884   4.040   4.224 -1.3565  0.3095  0.4823
 2744SOL    HW311022   0.801   3.914   4.217  1.4161 -1.5613  0.2302
 2744SOL    MW411023   0.867   3.959   4.252  0.3366 -0.1059  0.4168
 2745SOL     OW11024   2.010   0.475   4.302  0.0404  0.0900 -0.0127
 2745SOL    HW211025   2.071   0.421   4.253 -0.5745 -1.1676  0.5870
 2745SOL    HW311026   2.040   0.471   4.392 -0.2330  0.4410  0.0979
 2745SOL    MW411027   2.022   0.467   4.307 -0.0765 -0.0296  0.0806
 2746SOL     OW11028   2.223   0.096   4.283  0.6155 -0.4099  0.7581
 2746SOL    HW211029   2.311   0.066   4.260  0.6455 -0.4816  0.9623
 2746SOL    HW311030   2.167   0.061   4.214  0.7524 -0.3358  0.6095
 2746SOL    MW411031   2.227   0.087   4.271  0.6378 -0.4096  0.7653
 2747SOL     OW11032   2.418   4.307   4.524 -1.2150 -0.1564  0.1628
 2747SOL    HW211033   2.326   4.311   4.549 -0.9970  0.7218  0.8462
 2747SOL    HW311034   2.447   4.220   4.552 -0.9944  0.7673  2.9492
 2747SOL    MW411035   2.410   4.296   4.531 -1.1570  0.0815  0.6204
 2748SOL     OW11036   3.167   0.922   4.545  0.0712 -0.5052  0.1640
 2748SOL    HW211037   3.218   0.846   4.574  1.0113  0.4747  1.1206
 2748SOL    HW311038   3.077   0.901   4.570  0.3657 -1.1904  0.6766
 2748SOL    MW411039   3.162   0.909   4.552  0.2341 -0.4663  0.3581
 2749SOL     OW11040   0.477   3.179   4.265  0.0354 -0.4651  0.2864
 2749SOL    HW211041   0.553   3.141   4.221  0.5035 -0.0163  0.6941
 2749SOL    HW311042   0.470   3.267   4.230  2.3494  1.0323  3.3894
 2749SOL    MW411043   0.486   3.185   4.255  0.4025 -0.2086  0.7496
 2750SOL     OW11044   2.036   2.029   4.862 -0.6781 -0.3093  0.0978
 2750SOL    HW211045   2.110   2.082   4.893 -0.4619  0.7263 -2.0340
 2750SOL    HW311046   1.959   2.083   4.879 -0.8257 -0.8546  1.1828
 2750SOL    MW411047   2.036   2.043   4.868 -0.6692 -0.2446 -0.0401
 2751SOL     OW11048   2.902   1.320   4.222  0.1262  0.1246  0.4765
 2751SOL    HW211049   2.985   1.273   4.208  1.0253  0.9901  2.5951
 2751SOL    HW311050   2.836   1.266   4.179  1.5358 -1.5593  0.3604
 2751SOL    MW411051   2.905   1.307   4.214  0.4306  0.0167  0.7405
 2752SOL     OW11052   1.091   0.984   4.601  0.6177 -0.0404  0.0896
 2752SOL    HW211053   1.160   0.924   4.573 -0.1585 -0.0117 -1.9567
 2752SOL    HW311054   1.010   0.933   4.597  0.3833  0.1716  1.6532
 2752SOL    MW411055   1.089   0.970   4.597  0.4843 -0.0086  0.0257
 2753SOL     OW11056   0.414   4.197   4.182 -0.4655  0.1771 -0.1092
 2753SOL    HW211057   0.426   4.223   4.091  0.8165  1.3373  0.3693
 2753SOL    HW311058   0.353   4.262   4.219  0.0868  0.5230  0.2069
 2753SOL    MW411059   0.408   4.209   4.175 -0.2235  0.3757 -0.0043
 2754SOL     OW11060   2.241   2.724   4.138  0.4859 -0.3396  0.0577
 2754SOL    HW211061   2.156   2.757   4.169  0.2307 -0.0549 -0.9264
 2754SOL    HW311062   2.304   2.756   4.203  0.2326  2.0436 -0.8240
 2754SOL    MW411063   2.238   2.733   4.151  0.4187  0.0124 -0.1879
 2755SOL     OW11064   2.800   2.141   5.047 -0.4834 -0.3342 -0.1997
 2755SOL    HW211065   2.769   2.147   5.138  0.4020  1.5828  0.0042
 2755SOL    HW311066   2.731   2.185   4.996 -0.2961 -0.1334 -0.2807
 2755SOL    MW411067   2.787   2.148   5.052 -0.3419 -0.0548 -0.1836
 2756SOL     OW11068   1.388   4.481   4.464  0.3529  0.0808 -0.1456
 2756SOL    HW211069   1.293   4.481   4.479  0.2540 -1.6761 -0.6073
 2756SOL    HW311070   1.418   4.564   4.501 -1.0248 -0.4293  2.2241
 2756SOL    MW411071   1.379   4.492   4.471  0.1581 -0.2184  0.1059
 2757SOL     OW11072   0.981   3.480   4.716  0.2325  0.0843 -0.0767
 2757SOL    HW211073   1.076   3.477   4.729  0.4028  1.6773 -0.8353
 2757SOL    HW311074   0.963   3.409   4.655  1.0324  0.2179 -0.4770
 2757SOL    MW411075   0.991   3.470   4.710  0.3605  0.3121 -0.2294
 2758SOL     OW11076   1.910   4.478   4.485 -0.2393 -0.6164  0.0328
 2758SOL    HW211077   1.823   4.438   4.491 -0.6253  0.1160 -0.5471
 2758SOL    HW311078   1.938   4.460   4.395 -0.5149  0.5889 -0.3087
 2758SOL    MW411079   1.902   4.470   4.474 -0.3266 -0.3610 -0.0887
 2759SOL     OW11080   4.042   0.121   4.264 -0.4441 -0.2281 -0.1078
 2759SOL    HW211081   3.969   0.084   4.214  0.3692 -0.7782 -0.9085
 2759SOL    HW311082   4.037   0.215   4.246 -1.2408 -0.2018  0.2287
 2759SOL    MW411083   4.031   0.129   4.255 -0.4420 -0.2972 -0.1698
 2760SOL     OW11084   0.058   4.365   4.542 -0.5518 -0.2313  0.5223
 2760SOL    HW211085   0.143   4.409   4.544 -0.4157 -0.5237  1.0172
 2760SOL    HW311086  -0.004   4.429   4.577 -0.2538 -0.6521  1.8471
 2760SOL    MW411087   0.061   4.379   4.547 -0.4945 -0.3252  0.7625
 2761SOL     OW11088   4.286   1.383   4.526 -0.1601  0.3860 -0.2481
 2761SOL    HW211089   4.198   1.395   4.561 -0.2404 -2.4267  0.6142
 2761SOL    HW311090   4.272   1.343   4.440  0.2704 -1.0207  0.3189
 2761SOL    MW411091   4.272   1.380   4.519 -0.1140 -0.1706 -0.0601
 2762SOL     OW11092   0.393   0.447   4.680  0.6383  0.0302 -0.2175
 2762SOL    HW211093   0.318   0.485   4.634  0.2336 -0.2487  0.2150
 2762SOL    HW311094   0.443   0.523   4.712 -0.3313  0.2037  0.9135
 2762SOL    MW411095   0.390   0.462   4.678  0.4570  0.0163 -0.0110
 2763SOL     OW11096   2.294   0.937   4.485  0.3854 -0.3316 -0.4083
 2763SOL    HW211097   2.338   1.022   4.486 -1.4874  0.6513  1.0029
 2763SOL    HW311098   2.350   0.880   4.537  0.7709  0.4960  0.0899
 2763SOL    MW411099   2.307   0.941   4.492  0.1893 -0.0928 -0.1569
 2764SOL     OW11100   0.145   1.235   4.719 -0.2421  0.2531 -0.3362
 2764SOL    HW211101   0.054   1.208   4.710 -0.1898 -0.3513  0.7915
 2764SOL    HW311102   0.158   1.301   4.651 -1.3784 -0.0188 -0.8206
 2764SOL    MW411103   0.135   1.240   4.709 -0.3852  0.1374 -0.2513
 2765SOL     OW11104   4.085   4.264   4.107  0.2708  0.3064 -0.5576
 2765SOL    HW211105   4.173   4.287   4.137  1.2316 -1.3622 -1.9623
 2765SOL    HW311106   4.079   4.169   4.120 -0.2594 -0.0383 -3.0533
 2765SOL    MW411107   4.096   4.255   4.113  0.3276  0.0405 -1.0724
 2766SOL     OW11108   2.881   1.304   4.503  0.4357  0.0187 -0.2771
 2766SOL    HW211109   2.968   1.274   4.530 -0.4127 -2.1901  0.0829
 2766SOL    HW311110   2.887   1.313   4.408  0.8560 -0.7832 -0.3242
 2766SOL    MW411111   2.893   1.302   4.494  0.3793 -0.3785 -0.2356
 2767SOL     OW11112   0.520   4.639   4.446  0.1314 -0.6023  0.4071
 2767SOL    HW211113   0.598   4.669   4.493 -0.2226 -0.8898  1.1920
 2767SOL    HW311114   0.555   4.596   4.368  0.6679  1.0492 -0.2732
 2767SOL    MW411115   0.535   4.637   4.442  0.1556 -0.4220  0.4210
 2768SOL     OW11116   2.601   2.313   4.907  0.0240 -0.1532 -0.3988
 2768SOL    HW211117   2.533   2.353   4.962 -0.3542 -0.4694 -0.6361
 2768SOL    HW311118   2.653   2.386   4.876  0.0220  0.0613  0.0919
 2768SOL    MW411119   2.599   2.328   4.910 -0.0262 -0.1667 -0.3653
 2769SOL     OW11120   1.745   1.922   4.140 -0.0725 -0.4162 -0.1811
 2769SOL    HW211121   1.822   1.975   4.162 -0.7214  0.5659 -0.2431
 2769SOL    HW311122   1.765   1.835   4.176  0.6168  0.1055  0.7328
 2769SOL    MW411123   1.757   1.918   4.148 -0.0672 -0.2178 -0.0687
 2770SOL     OW11124   2.974   2.344   4.943  0.5027 -0.3702 -0.0557
 2770SOL    HW211125   2.922   2.276   4.985 -0.9233 -0.3549 -1.7489
 2770SOL    HW311126   2.910   2.404   4.906  1.7200  2.4506  2.1935
 2770SOL    MW411127   2.959   2.343   4.944  0.4754  0.0038  0.0181
 2771SOL     OW11128   2.667   1.966   4.120  0.0306 -0.3377 -0.3153
 2771SOL    HW211129   2.650   1.955   4.027  0.1190  1.9018 -0.6199
 2771SOL    HW311130   2.586   2.003   4.155  1.0634  1.8303 -0.1173
 2771SOL    MW411131   2.654   1.970   4.113  0.1786  0.2439 -0.3295
 2772SOL     OW11132   1.699   4.274   4.468 -0.2910 -0.2835  0.2200
 2772SOL    HW211133   1.631   4.268   4.535  0.4282  2.0282  1.2130
 2772SOL    HW311134   1.765   4.211   4.497 -0.8616 -0.6868  0.6534
 2772SOL    MW411135   1.699   4.265   4.481 -0.2713 -0.0319  0.4086
 2773SOL     OW11136   0.260   2.116   4.547 -0.0632  0.4815 -0.1736
 2773SOL    HW211137   0.337   2.173   4.540 -0.8651  1.4866 -1.0281
 2773SOL    HW311138   0.186   2.176   4.549 -0.8720 -0.5041 -0.1921
 2773SOL    MW411139   0.261   2.131   4.546 -0.2757  0.4845 -0.2890
 2774SOL     OW11140   0.253   3.539   4.694 -0.2263 -0.5873  0.0162
 2774SOL    HW211141   0.347   3.536   4.711 -0.5869 -0.9198  1.9561
 2774SOL    HW311142   0.234   3.632   4.682  0.4342 -0.5679 -0.9746
 2774SOL    MW411143   0.263   3.551   4.694 -0.1867 -0.6285  0.1416
 2775SOL     OW11144   3.188   1.629   4.554 -0.4810  0.2927 -0.1478
 2775SOL    HW211145   3.182   1.648   4.461  1.6693 -0.3636 -0.4539
 2775SOL    HW311146   3.246   1.697   4.589  1.3841 -1.3602  0.0723
 2775SOL    MW411147   3.195   1.640   4.546  0.0489 -0.0120 -0.1593
 2776SOL     OW11148   4.082   2.468   4.528 -0.1808  0.1832 -0.4392
 2776SOL    HW211149   3.994   2.438   4.549  0.0246  0.0434  0.2596
 2776SOL    HW311150   4.083   2.560   4.554  0.0593  0.0245  0.1208
 2776SOL    MW411151   4.071   2.476   4.535 -0.1221  0.1440 -0.2728
 2777SOL     OW11152   1.568   3.593   4.248 -0.7485 -0.3056  0.4936
 2777SOL    HW211153   1.490   3.557   4.204  0.1772 -2.0101  0.2322
 2777SOL    HW311154   1.641   3.546   4.209  0.3562  0.6409  1.4132
 2777SOL    MW411155   1.567   3.582   4.237 -0.4805 -0.4055  0.5803
 2778SOL     OW11156   3.191   2.343   4.529 -0.3338 -0.1944 -0.6601
 2778SOL    HW211157   3.220   2.422   4.573 -0.2805 -0.5487 -0.0517
 2778SOL    HW311158   3.121   2.308   4.585 -0.9073 -0.1444 -1.3412
 2778SOL    MW411159   3.186   2.349   4.542 -0.4022 -0.2346 -0.6700
 2779SOL     OW11160   0.285   2.823   4.254  0.0013 -0.3589 -0.1371
 2779SOL    HW211161   0.327   2.837   4.339  0.4375 -1.4382 -0.1713
 2779SOL    HW311162   0.287   2.909   4.212  0.0515  0.1141  0.8245
 2779SOL    MW411163   0.291   2.836   4.259  0.0655 -0.4389 -0.0148
 2780SOL     OW11164   3.010   1.988   4.719 -0.2529 -0.2618  0.1449
 2780SOL    HW211165   3.030   2.082   4.715 -1.7276  0.1058  1.1843
 2780SOL    HW311166   2.978   1.967   4.631  0.1440  0.1925 -0.1091
 2780SOL    MW411167   3.009   1.998   4.707 -0.3951 -0.1534  0.2489
 2781SOL     OW11168   0.202   3.811   4.661 -0.0162 -0.3941  0.1189
 2781SOL    HW211169   0.191   3.858   4.743 -0.8706  0.2619 -0.3605
 2781SOL    HW311170   0.123   3.832   4.611  0.8008 -0.2566 -1.1295
 2781SOL    MW411171   0.190   3.820   4.665 -0.0211 -0.2894 -0.1092
 2782SOL     OW11172   3.824   2.807   4.535  0.1136 -0.0162  0.1140
 2782SOL    HW211173   3.804   2.883   4.589 -0.9411 -0.0921 -0.1589
 2782SOL    HW311174   3.758   2.742   4.560  0.1173 -0.3312 -0.6832
 2782SOL    MW411175   3.812   2.808   4.546 -0.0250 -0.0679 -0.0277
 2783SOL     OW11176   2.667   4.011   4.250  0.3648 -0.1842 -0.2677
 2783SOL    HW211177   2.587   3.976   4.210  0.3197 -0.8708  0.4196
 2783SOL    HW311178   2.665   4.105   4.229 -0.1957 -0.3510 -0.9679
 2783SOL    MW411179   2.656   4.019   4.242  0.2849 -0.2966 -0.2689
 2784SOL     OW11180   1.419   2.830   4.549 -0.0713 -0.1608  0.0357
 2784SOL    HW211181   1.462   2.852   4.466  1.3685 -2.4694  0.1257
 2784SOL    HW311182   1.466   2.881   4.615  0.3164 -0.1135 -0.2762
 2784SOL    MW411183   1.431   2.840   4.547  0.1699 -0.4590  0.0062
 2785SOL     OW11184   3.122   0.172   4.508  0.2278 -0.0143 -0.3665
 2785SOL    HW211185   3.160   0.256   4.531  1.1540 -0.4880 -0.1476
 2785SOL    HW311186   3.159   0.151   4.423 -1.3596  0.6141 -1.2226
 2785SOL    MW411187   3.132   0.180   4.500  0.1404  0.0061 -0.4501
 2786SOL     OW11188   2.784   4.506   4.509  0.3190  0.1245 -0.6151
 2786SOL    HW211189   2.805   4.599   4.505 -0.6442  0.3351 -1.0984
 2786SOL    HW311190   2.712   4.500   4.572  1.2690 -0.4733  0.4347
 2786SOL    MW411191   2.777   4.517   4.517  0.3171  0.0739 -0.5403
 2787SOL     OW11192   2.418   0.478   4.550  0.0687 -0.1292 -0.5629
 2787SOL    HW211193   2.326   0.453   4.555  0.2650 -0.7547  0.2456
 2787SOL    HW311194   2.438   0.481   4.457 -0.2869 -1.8727 -0.7077
 2787SOL    MW411195   2.409   0.475   4.539  0.0474 -0.4417 -0.4754
 2788SOL     OW11196   0.229   1.478   4.574  0.1987 -0.2326 -0.4773
 2788SOL    HW211197   0.147   1.512   4.538 -0.2871 -0.9585 -0.0880
 2788SOL    HW311198   0.291   1.480   4.500 -0.5024 -0.7664 -1.0934
 2788SOL    MW411199   0.226   1.483   4.559  0.0421 -0.3989 -0.5069
 2789SOL     OW11200   0.385   2.807   4.537  0.4066 -0.2343 -0.1705
 2789SOL    HW211201   0.326   2.878   4.562  0.8844  0.3576 -0.7045
 2789SOL    HW311202   0.335   2.727   4.554 -0.5075  0.2586 -0.4988
 2789SOL    MW411203   0.371   2.805   4.542  0.3490 -0.0911 -0.2842
 2790SOL     OW11204   0.664   2.844   4.539  0.4343  0.1164  0.1961
 2790SOL    HW211205   0.670   2.851   4.444  0.8696  0.6604  0.2562
 2790SOL    HW311206   0.571   2.836   4.557  0.4626 -1.4649 -0.3622
 2790SOL    MW411207   0.653   2.844   4.529  0.4956 -0.0205  0.1307
 2791SOL     OW11208   3.137   1.925   4.112 -0.3927  0.3230  0.4113
 2791SOL    HW211209   3.053   1.961   4.140  0.2285  2.3280 -0.2218
 2791SOL    HW311210   3.203   1.982   4.152  0.6451 -0.4954 -0.0910
 2791SOL    MW411211   3.135   1.937   4.121 -0.1736  0.4795  0.2618
 2792SOL     OW11212   0.694   2.423   4.646  0.0254  0.1452 -0.4258
 2792SOL    HW211213   0.648   2.433   4.729  1.7238 -0.9586  0.6717
 2792SOL    HW311214   0.746   2.503   4.638  0.1597  0.0777 -0.2324
 2792SOL    MW411215   0.695   2.435   4.656  0.2671 -0.0093 -0.2556
 2793SOL     OW11216   3.795   1.376   4.593  0.5058  0.8105 -0.3455
 2793SOL    HW211217   3.810   1.352   4.501 -1.8411  0.0145 -0.5515
 2793SOL    HW311218   3.774   1.294   4.636  0.0790  1.4038  0.5918
 2793SOL    MW411219   3.794   1.362   4.587  0.1397  0.7838 -0.2494
 2794SOL     OW11220   3.350   0.768   4.200  0.1284 -0.0946  0.0521
 2794SOL    HW211221   3.268   0.805   4.233  1.0539  0.9452  1.2131
 2794SOL    HW311222   3.354   0.681   4.239 -1.1610 -0.7462 -1.2263
 2794SOL    MW411223   3.340   0.761   4.209  0.0803 -0.0433  0.0362
 2795SOL     OW11224   3.611   0.064   4.234  0.6399  0.1337  0.2942
 2795SOL    HW211225   3.607   0.035   4.325  0.4834  1.1914  0.6302
 2795SOL    HW311226   3.610   0.160   4.239  1.1717  0.2047 -0.7979
 2795SOL    MW411227   3.610   0.073   4.246  0.6893  0.2826  0.1941
 2796SOL     OW11228   0.509   1.190   4.667 -0.2614 -0.5919  0.2646
 2796SOL    HW211229   0.478   1.252   4.733 -0.6586 -1.4062  0.8418
 2796SOL    HW311230   0.432   1.175   4.611  0.1960  0.4467 -0.6611
 2796SOL    MW411231   0.494   1.196   4.668 -0.2534 -0.5623  0.2193
 2797SOL     OW11232   3.773   2.810   4.270  0.1786 -0.1057  0.0622
 2797SOL    HW211233   3.686   2.772   4.254 -0.2397 -0.0842  2.2121
 2797SOL    HW311234   3.788   2.799   4.364  2.7374 -0.5734 -0.3593
 2797SOL    MW411235   3.764   2.804   4.280  0.4611 -0.1645  0.2899
 2798SOL     OW11236   1.316   0.869   4.265  0.2420 -0.2436 -0.0990
 2798SOL    HW211237   1.393   0.835   4.219  0.9556  0.2208  0.7292
 2798SOL    HW311238   1.317   0.963   4.246 -0.2475 -0.2706 -0.2649
 2798SOL    MW411239   1.326   0.877   4.256  0.2716 -0.1859 -0.0114
 2799SOL     OW11240   3.609   2.406   4.250  0.2046 -0.0662 -0.0933
 2799SOL    HW211241   3.697   2.371   4.231 -0.0226 -0.6814 -0.0152
 2799SOL    HW311242   3.599   2.395   4.344  0.3964  0.8304  0.0381
 2799SOL    MW411243   3.620   2.400   4.260  0.1998 -0.0293 -0.0653
 2800SOL     OW11244   1.413   0.358   4.652 -0.1028  0.6962  0.4459
 2800SOL    HW211245   1.432   0.358   4.745 -0.7458 -1.3504  0.6087
 2800SOL    HW311246   1.418   0.266   4.626 -1.1974  1.0837 -1.2686
 2800SOL    MW411247   1.416   0.346   4.661 -0.3319  0.4773  0.2418
 2801SOL     OW11248   3.911   0.514   4.559 -0.1252 -0.1637  0.0505
 2801SOL    HW211249   3.980   0.581   4.565 -0.5672  0.5385 -2.1041
 2801SOL    HW311250   3.949   0.437   4.599  1.3421  0.6828  0.3233
 2801SOL    MW411251   3.925   0.513   4.565  0.0100  0.0407 -0.1974
 2802SOL     OW11252   3.386   3.681   4.527 -0.2602 -0.3108 -0.1947
 2802SOL    HW211253   3.412   3.601   4.573  0.3262  0.8932  1.6373
 2802SOL    HW311254   3.406   3.664   4.435  0.3635 -2.0566  0.2466
 2802SOL    MW411255   3.392   3.668   4.521 -0.1004 -0.3824  0.1054
 2803SOL     OW11256   2.913   3.326   4.679 -0.3664  0.5576  0.1018
 2803SOL    HW211257   3.003   3.337   4.649 -0.3620  0.5206  0.1014
 2803SOL    HW311258   2.859   3.356   4.606 -0.3681 -0.2547 -0.2330
 2803SOL    MW411259   2.918   3.331   4.665 -0.3660  0.4456  0.0577
 2804SOL     OW11260   0.532   3.491   4.673  0.4167 -0.0941  0.0980
 2804SOL    HW211261   0.498   3.422   4.616 -0.4802  0.0748  0.4168
 2804SOL    HW311262   0.585   3.445   4.738 -0.0147 -0.4765  0.1851
 2804SOL    MW411263   0.534   3.476   4.674  0.2414 -0.1218  0.1521
 2805SOL     OW11264   4.233   4.621   4.156 -0.3717 -0.6479 -0.2902
 2805SOL    HW211265   4.162   4.675   4.191 -0.6170  0.2034 -2.0722
 2805SOL    HW311266   4.233   4.543   4.212 -2.0020 -0.1756  0.4012
 2805SOL    MW411267   4.223   4.618   4.168 -0.6189 -0.4735 -0.4339
 2806SOL     OW11268   3.772   2.065   4.269 -0.0598 -0.3431  0.0202
 2806SOL    HW211269   3.695   2.022   4.232  0.5002 -1.1799 -0.1799
 2806SOL    HW311270   3.784   2.143   4.215 -2.4371  1.3147  1.7997
 2806SOL    MW411271   3.763   2.069   4.257 -0.2997 -0.2351  0.2284
 2807SOL     OW11272   0.648   1.313   4.270 -0.6242  0.2127 -0.0288
 2807SOL    HW211273   0.633   1.345   4.359  1.4262  1.2228 -0.0034
 2807SOL    HW311274   0.641   1.391   4.216 -0.3472 -0.1278 -0.5549
 2807SOL    MW411275   0.645   1.327   4.275 -0.3172  0.3010 -0.0949
 2808SOL     OW11276   1.348   0.127   4.286 -0.2729  0.0274 -0.2649
 2808SOL    HW211277   1.407   0.065   4.243  0.0469 -1.3627  2.0762
 2808SOL    HW311278   1.358   0.208   4.237  1.2472 -1.0658 -1.8116
 2808SOL    MW411279   1.357   0.130   4.274 -0.0302 -0.3002 -0.1607
 2809SOL     OW11280   0.426   3.911   4.523  1.0702  0.1721 -0.1948
 2809SOL    HW211281   0.354   3.870   4.570  1.2763  1.0982  0.9586
 2809SOL    HW311282   0.501   3.853   4.538  0.4255 -1.1519 -1.9657
 2809SOL    MW411283   0.426   3.898   4.531  1.0123  0.1197 -0.2766
 2810SOL     OW11284   2.672   2.744   4.328  0.1819  0.3582 -0.1093
 2810SOL    HW211285   2.648   2.701   4.410 -1.4791  1.5495  0.0626
 2810SOL    HW311286   2.663   2.677   4.261  0.0276 -0.2082  0.4793
 2810SOL    MW411287   2.668   2.730   4.330 -0.0579  0.4408 -0.0086
 2811SOL     OW11288   2.505   4.058   4.628 -0.2499 -0.0159 -0.1080
 2811SOL    HW211289   2.590   4.036   4.590  0.9696  2.9993  0.7150
 2811SOL    HW311290   2.522   4.069   4.721 -1.8485 -0.7459  0.2894
 2811SOL    MW411291   2.518   4.057   4.635 -0.2999  0.2861  0.0534
 2812SOL     OW11292   3.178   0.100   4.237  0.3422  0.1355 -0.6915
 2812SOL    HW211293   3.249   0.054   4.192 -0.7735 -0.5341 -1.8068
 2812SOL    HW311294   3.099   0.051   4.214 -0.4244  0.5461  0.9754
 2812SOL    MW411295   3.177   0.087   4.228  0.0937  0.1013 -0.6189
 2813SOL     OW11296   1.527   1.335   4.465 -0.0638 -0.1835 -1.0239
 2813SOL    HW211297   1.568   1.419   4.487  1.4850 -0.9911 -0.8030
 2813SOL    HW311298   1.438   1.342   4.499  0.5303  0.7880  0.3621
 2813SOL    MW411299   1.521   1.347   4.472  0.2190 -0.1619 -0.8116
 2814SOL     OW11300   1.283   1.339   4.617  0.3611  0.4359  0.1537
 2814SOL    HW211301   1.272   1.284   4.695 -1.4354  1.1998  0.4710
 2814SOL    HW311302   1.197   1.337   4.574  1.6614 -0.9472 -2.4808
 2814SOL    MW411303   1.270   1.332   4.622  0.2956  0.3542 -0.1521
 2815SOL     OW11304   3.213   4.491   4.644 -0.2609 -0.0956  0.3804
 2815SOL    HW211305   3.219   4.578   4.606  0.9037 -0.2637  0.1666
 2815SOL    HW311306   3.217   4.505   4.739  1.6769 -0.0351  0.3079
 2815SOL    MW411307   3.214   4.504   4.652  0.1483 -0.1097  0.3424
 2816SOL     OW11308   1.988   0.295   4.770  0.1571 -0.0767 -0.5172
 2816SOL    HW211309   2.004   0.285   4.863  1.9780  0.5212 -0.7543
 2816SOL    HW311310   2.013   0.211   4.732  0.2668 -0.0191 -0.5725
 2816SOL    MW411311   1.993   0.283   4.777  0.4117  0.0098 -0.5560
 2817SOL     OW11312   4.433   4.559   4.699  0.4326  0.5491  0.3210
 2817SOL    HW211313   4.423   4.643   4.654  0.0398  1.7571  2.5585
 2817SOL    HW311314   4.518   4.565   4.743  0.3881 -0.2112  0.5271
 2817SOL    MW411315   4.443   4.571   4.699  0.3748  0.6084  0.6437
 2818SOL     OW11316   0.208   3.541   4.285  0.1625  0.4139  0.1550
 2818SOL    HW211317   0.149   3.479   4.243  1.1449 -0.0212 -0.6105
 2818SOL    HW311318   0.182   3.541   4.377  0.2614 -1.2677  0.1992
 2818SOL    MW411319   0.197   3.533   4.292  0.3051  0.1347  0.0596
 2819SOL     OW11320   3.557   1.521   4.620 -0.0412 -0.1250  0.0293
 2819SOL    HW211321   3.636   1.467   4.622 -0.4536 -0.7286  0.5343
 2819SOL    HW311322   3.487   1.460   4.598 -0.7032 -0.0535  1.8379
 2819SOL    MW411323   3.558   1.506   4.618 -0.1829 -0.1951  0.3352
 2820SOL     OW11324   1.765   0.111   4.228 -0.0402  0.1285 -0.0048
 2820SOL    HW211325   1.774   0.200   4.193 -0.3403  0.0028 -0.4020
 2820SOL    HW311326   1.785   0.120   4.322  0.4141  0.5283 -0.1351
 2820SOL    MW411327   1.769   0.124   4.236 -0.0198  0.1647 -0.0744
 2821SOL     OW11328   2.683   1.702   4.208  0.0297  0.4898  0.1947
 2821SOL    HW211329   2.680   1.791   4.172 -0.0045  0.5152  0.2619
 2821SOL    HW311330   2.658   1.712   4.299  0.1972  0.4334  0.2462
 2821SOL    MW411331   2.679   1.715   4.215  0.0474  0.4857  0.2103
 2822SOL     OW11332   3.921   2.039   4.506 -0.1515  0.5004  0.0884
 2822SOL    HW211333   3.874   1.975   4.559  0.5499  0.1157  0.2468
 2822SOL    HW311334   3.887   2.028   4.417  0.8260 -0.9180 -0.1216
 2822SOL    MW411335   3.911   2.029   4.501  0.0701  0.2625  0.0815
 2823SOL     OW11336   1.151   3.078   4.576  0.0804 -0.5717  0.3256
 2823SOL    HW211337   1.238   3.116   4.570  0.3685 -1.1660  0.6672
 2823SOL    HW311338   1.154   3.001   4.520  0.0988 -1.1836  1.1594
 2823SOL    MW411339   1.163   3.073   4.568  0.1208 -0.7310  0.4807
 2824SOL     OW11340   2.015   1.287   4.206 -0.0386  0.1793  0.0483
 2824SOL    HW211341   1.925   1.259   4.186 -0.6481  0.9323  1.5874
 2824SOL    HW311342   2.016   1.380   4.184 -0.0302  0.4650  1.2007
 2824SOL    MW411343   2.003   1.295   4.201 -0.1183  0.3165  0.4034
 2825SOL     OW11344   3.074   2.778   4.523 -0.2292 -0.1871 -0.3632
 2825SOL    HW211345   3.111   2.856   4.564 -0.4863  0.3119 -1.0675
 2825SOL    HW311346   3.005   2.750   4.583 -0.7716  0.6850 -0.5729
 2825SOL    MW411347   3.070   2.785   4.536 -0.3347 -0.0062 -0.4840
 2826SOL     OW11348   3.433   2.780   4.755 -0.1581 -0.0488 -0.1553
 2826SOL    HW211349   3.379   2.709   4.719  0.1224 -0.2037 -0.2648
 2826SOL    HW311350   3.427   2.850   4.690 -0.0228 -0.1578 -0.2824
 2826SOL    MW411351   3.425   2.780   4.742 -0.1035 -0.0837 -0.1864
 2827SOL     OW11352   4.478   2.713   4.208 -0.0929  0.1507  0.1808
 2827SOL    HW211353   4.483   2.622   4.236 -1.7761 -0.1769 -0.5242
 2827SOL    HW311354   4.568   2.745   4.215  0.5140 -1.5435  0.4667
 2827SOL    MW411355   4.490   2.705   4.213 -0.2349 -0.1163  0.1254
 2828SOL     OW11356   4.189   2.097   4.470  0.1192 -0.6218  0.2994
 2828SOL    HW211357   4.100   2.074   4.496  0.2873 -0.1594  1.3100
 2828SOL    HW311358   4.244   2.029   4.508  0.2908 -0.3666  0.5142
 2828SOL    MW411359   4.185   2.085   4.479  0.1636 -0.5269  0.4606
 2829SOL     OW11360   1.867   4.044   4.508  0.1735  0.1318  0.1523
 2829SOL    HW211361   1.958   4.074   4.514 -0.0611  0.6724  1.1846
 2829SOL    HW311362   1.870   3.952   4.534  0.2644  0.4675  1.3786
 2829SOL    MW411363   1.880   4.036   4.512  0.1547  0.2475  0.4506
 2830SOL     OW11364   2.928   1.879   4.449 -0.3709  0.5574  0.3270
 2830SOL    HW211365   2.989   1.816   4.411 -1.2140  0.3452 -0.6602
 2830SOL    HW311366   2.844   1.833   4.453 -0.0793  0.1536  3.5064
 2830SOL    MW411367   2.925   1.865   4.445 -0.4439  0.4761  0.6166
 2831SOL     OW11368   3.371   4.380   4.276  0.0746  0.3477 -0.4290
 2831SOL    HW211369   3.435   4.350   4.211  0.2440  1.7550 -0.9242
 2831SOL    HW311370   3.416   4.368   4.360  1.2380  1.8781 -0.8071
 2831SOL    MW411371   3.386   4.374   4.279  0.2503  0.7358 -0.5441
 2832SOL     OW11372   2.658   3.732   4.617  0.0743  0.2224  0.1814
 2832SOL    HW211373   2.693   3.798   4.558  0.8466 -0.2579  0.0903
 2832SOL    HW311374   2.735   3.698   4.663 -0.4488  0.1963  1.0524
 2832SOL    MW411375   2.673   3.736   4.616  0.1070  0.1557  0.2842
 2833SOL     OW11376   3.388   2.125   4.511 -0.0341  0.0049 -0.9476
 2833SOL    HW211377   3.342   2.208   4.519  0.7477  0.3413  0.0346
 2833SOL    HW311378   3.385   2.105   4.417 -1.0399  0.6649 -1.0594
 2833SOL    MW411379   3.381   2.133   4.499 -0.0637  0.1364 -0.8326
 2834SOL     OW11380   3.812   3.896   4.134 -0.0708  0.1813  0.0070
 2834SOL    HW211381   3.745   3.934   4.191 -0.7420 -0.9597  0.0000
 2834SOL    HW311382   3.834   3.813   4.176  1.0490  0.3525 -0.2193
 2834SOL    MW411383   3.806   3.890   4.147 -0.0114  0.0532 -0.0238
 2835SOL     OW11384   3.575   2.355   4.525  0.3004  0.0945 -0.5991
 2835SOL    HW211385   3.658   2.337   4.570  0.4960 -0.3667 -1.1412
 2835SOL    HW311386   3.523   2.276   4.537 -0.6341  0.9274  0.9851
 2835SOL    MW411387   3.579   2.342   4.532  0.2029  0.1433 -0.4616
 2836SOL     OW11388   2.940   4.622   4.159 -0.2397  0.3641  0.2284
 2836SOL    HW211389   2.948   4.532   4.190  0.3798 -0.0221 -0.9933
 2836SOL    HW311390   2.855   4.651   4.190 -0.2940 -0.5308  0.9291
 2836SOL    MW411391   2.930   4.614   4.167 -0.1655  0.1950  0.1597
 2837SOL     OW11392   3.389   3.647   4.253  0.1124  0.3910 -0.0052
 2837SOL    HW211393   3.452   3.590   4.211 -0.2668  0.4803 -0.7013
 2837SOL    HW311394   3.304   3.618   4.220 -0.1436  0.8333  0.2514
 2837SOL    MW411395   3.386   3.636   4.243  0.0284  0.4613 -0.0629
 2838SOL     OW11396   2.721   0.130   4.236  0.0957 -0.4512  0.0820
 2838SOL    HW211397   2.711   0.224   4.220 -0.7513 -0.7411 -1.1192
 2838SOL    HW311398   2.769   0.125   4.319 -0.2852  1.0361  0.4034
 2838SOL    MW411399   2.726   0.142   4.245 -0.0663 -0.2932 -0.0339
 2839SOL     OW11400   3.228   2.849   4.958 -0.7210  0.3692  0.0113
 2839SOL    HW211401   3.307   2.851   4.905 -1.5672  0.4736 -1.2819
 2839SOL    HW311402   3.204   2.757   4.963  0.3997  0.1643  1.8174
 2839SOL    MW411403   3.235   2.837   4.951 -0.6845  0.3560  0.0792
 2840SOL     OW11404   2.116   1.306   4.468  0.7049 -0.6054  0.3665
 2840SOL    HW211405   2.079   1.303   4.380  0.2002 -0.1484  0.5592
 2840SOL    HW311406   2.201   1.263   4.460  0.8454 -0.1853 -0.4423
 2840SOL    MW411407   2.123   1.300   4.456  0.6568 -0.4896  0.2856
 2841SOL     OW11408   4.259   0.518   4.285 -0.3140  0.2783  0.1647
 2841SOL    HW211409   4.262   0.474   4.370 -0.6082 -0.0831 -0.0121
 2841SOL    HW311410   4.334   0.482   4.236 -0.1211  0.5153  0.2827
 2841SOL    MW411411   4.270   0.508   4.290 -0.3271  0.2619  0.1574
 2842SOL     OW11412   3.124   2.444   4.276  0.1528  0.1670 -0.3378
 2842SOL    HW211413   3.135   2.397   4.358  1.2599 -1.0872 -1.1751
 2842SOL    HW311414   3.190   2.405   4.217 -2.2262 -0.6973 -2.5480
 2842SOL    MW411415   3.134   2.432   4.279 -0.0150 -0.1125 -0.7401
 2843SOL     OW11416   0.247   4.256   4.800  0.6055  0.1460 -0.1827
 2843SOL    HW211417   0.234   4.346   4.829 -0.8734 -0.2686  0.5302
 2843SOL    HW311418   0.328   4.258   4.750  1.3890  1.5795  1.0902
 2843SOL    MW411419   0.256   4.268   4.797  0.5137  0.2804  0.0792
 2844SOL     OW11420   3.735   0.028   4.711 -0.5588 -0.0223  0.1969
 2844SOL    HW211421   3.776  -0.058   4.720 -1.3167 -0.3674  0.3344
 2844SOL    HW311422   3.808   0.086   4.690 -0.1225 -0.7889 -0.4404
 2844SOL    MW411423   3.750   0.024   4.710 -0.6013 -0.1691  0.1316
 2845SOL     OW11424   0.880   0.606   4.635  0.0072  0.2483 -0.5029
 2845SOL    HW211425   0.873   0.694   4.597 -0.3296  0.5746  0.2996
 2845SOL    HW311426   0.970   0.580   4.618 -0.1161  0.4310 -1.4385
 2845SOL    MW411427   0.891   0.614   4.628 -0.0535  0.3155 -0.5207
 2846SOL     OW11428   2.482   3.635   4.230  0.0413 -0.1086 -0.8388
 2846SOL    HW211429   2.455   3.722   4.202  0.7276  0.4967  0.3373
 2846SOL    HW311430   2.567   3.622   4.187  0.2406  0.0778 -0.5083
 2846SOL    MW411431   2.490   3.645   4.221  0.1581 -0.0043 -0.6404
 2847SOL     OW11432   0.626   3.715   4.534 -0.0514  0.2034 -0.0680
 2847SOL    HW211433   0.632   3.679   4.445  0.8173 -0.2384  0.1686
 2847SOL    HW311434   0.595   3.642   4.587 -0.4581  0.4372  0.0230
 2847SOL    MW411435   0.623   3.701   4.529  0.0095  0.1760 -0.0253
 2848SOL     OW11436   1.516   1.500   4.163  0.0703  0.4020  0.5378
 2848SOL    HW211437   1.449   1.543   4.218 -0.6992  0.0379 -0.1043
 2848SOL    HW311438   1.522   1.411   4.198 -0.2858  0.2259  0.1568
 2848SOL    MW411439   1.508   1.494   4.175 -0.0783  0.3307  0.4029
 2849SOL     OW11440   1.999   0.053   4.628 -0.4740  0.0745  0.1364
 2849SOL    HW211441   1.959  -0.026   4.592  0.5704  0.1127 -1.1402
 2849SOL    HW311442   2.092   0.046   4.606 -1.0313  3.8934 -4.2768
 2849SOL    MW411443   2.006   0.042   4.620 -0.4096  0.5834 -0.6137
 2850SOL     OW11444   3.840   0.775   4.212 -0.4337  0.1012  0.0687
 2850SOL    HW211445   3.758   0.817   4.237  0.3060  1.5620  0.0839
 2850SOL    HW311446   3.834   0.765   4.117 -0.9831 -0.6014  0.1673
 2850SOL    MW411447   3.829   0.779   4.203 -0.4084  0.2012  0.0844
 2851SOL     OW11448   0.050   0.907   4.277  0.0688  0.3203 -0.1345
 2851SOL    HW211449  -0.022   0.849   4.252 -0.2614  0.0185  1.4449
 2851SOL    HW311450   0.128   0.863   4.243 -0.2580 -0.6336  0.3078
 2851SOL    MW411451   0.051   0.893   4.269 -0.0179  0.1546  0.1326
 2852SOL     OW11452   2.477   2.340   4.171 -0.2692  0.0208 -0.0919
 2852SOL    HW211453   2.391   2.381   4.168 -0.2055  0.1279 -0.6416
 2852SOL    HW311454   2.495   2.316   4.080  0.1146 -0.3472  0.0803
 2852SOL    MW411455   2.468   2.342   4.158 -0.2103 -0.0134 -0.1416
 2853SOL     OW11456   0.344   4.424   4.534 -0.0878 -0.5203 -0.1041
 2853SOL    HW211457   0.403   4.352   4.557 -0.1122 -0.5108 -0.0121
 2853SOL    HW311458   0.400   4.488   4.490  0.2625  0.1399  1.2724
 2853SOL    MW411459   0.359   4.423   4.531 -0.0448 -0.4315  0.0892
 2854SOL     OW11460   3.337   2.066   4.222 -0.2765 -0.2515  0.0646
 2854SOL    HW211461   3.346   2.155   4.186  0.3381 -0.4665 -0.3193
 2854SOL    HW311462   3.422   2.025   4.204 -0.2895 -0.6598  0.9398
 2854SOL    MW411463   3.350   2.073   4.215 -0.1972 -0.3335  0.1292
 2855SOL     OW11464   1.174   3.663   4.501  0.2122  0.0121  0.2437
 2855SOL    HW211465   1.091   3.706   4.520 -0.6694 -1.3967 -0.3438
 2855SOL    HW311466   1.238   3.734   4.500 -1.1651  1.2758 -0.4236
 2855SOL    MW411467   1.172   3.678   4.503 -0.0861 -0.0072  0.0782
 2856SOL     OW11468   2.439   1.989   4.512 -0.1945  0.4116 -0.0399
 2856SOL    HW211469   2.460   2.005   4.604  0.2796 -0.6402  0.0412
 2856SOL    HW311470   2.388   1.908   4.513  0.3223  0.0830 -0.7679
 2856SOL    MW411471   2.435   1.980   4.524 -0.0639  0.2296 -0.1259
 2857SOL     OW11472   3.619   3.497   4.163 -0.3922 -0.1659 -0.1550
 2857SOL    HW211473   3.604   3.413   4.207 -0.3178 -0.4945 -0.7515
 2857SOL    HW311474   3.693   3.535   4.211  0.6249 -1.1710 -0.8861
 2857SOL    MW411475   3.627   3.491   4.176 -0.2482 -0.3419 -0.3300
 2858SOL     OW11476   4.159   4.459   4.678  0.2363  0.2094 -0.1765
 2858SOL    HW211477   4.147   4.531   4.616  0.2518  0.9360  0.6485
 2858SOL    HW311478   4.246   4.474   4.715  0.8065 -1.0153 -0.9898
 2858SOL    MW411479   4.169   4.470   4.675  0.3138  0.1435 -0.1750
 2859SOL     OW11480   3.797   1.300   4.326  0.4280  0.2803  0.0179
 2859SOL    HW211481   3.725   1.248   4.290  0.2842  0.5593 -0.1010
 2859SOL    HW311482   3.876   1.251   4.304  0.3541  0.5528 -0.8648
 2859SOL    MW411483   3.798   1.287   4.318  0.3994  0.3529 -0.1140
 2860SOL     OW11484   2.115   3.366   4.612  0.5658 -0.7055 -0.1223
 2860SOL    HW211485   2.025   3.365   4.582  0.3441  0.6894  0.4615
 2860SOL    HW311486   2.119   3.298   4.679 -0.2915 -0.1420  0.5078
 2860SOL    MW411487   2.104   3.357   4.617  0.4232 -0.4470  0.0372
 2861SOL     OW11488   2.169   3.130   4.749  0.4668  0.0369 -0.1211
 2861SOL    HW211489   2.226   3.098   4.679  0.4249 -0.8422  0.2442
 2861SOL    HW311490   2.209   3.098   4.829  1.6609  2.7743  0.4314
 2861SOL    MW411491   2.182   3.121   4.750  0.6189  0.2823  0.0000
 2862SOL     OW11492   0.933   3.244   4.567  0.6742  0.1757 -0.0624
 2862SOL    HW211493   1.001   3.177   4.568 -0.0276 -0.5514 -0.5283
 2862SOL    HW311494   0.852   3.198   4.590 -0.0206  0.6154 -1.5247
 2862SOL    MW411495   0.931   3.229   4.570  0.4899  0.1378 -0.3171
 2863SOL     OW11496   3.279   0.706   4.648  0.6450  0.2591  0.2524
 2863SOL    HW211497   3.308   0.704   4.739 -0.4480 -0.3026  0.6071
 2863SOL    HW311498   3.260   0.614   4.628  1.6379  0.2750 -0.8012
 2863SOL    MW411499   3.280   0.694   4.657  0.6318  0.1872  0.1597
 2864SOL     OW11500   0.682   0.702   4.171 -0.0178 -0.0637  0.0356
 2864SOL    HW211501   0.640   0.692   4.085  0.6582 -1.6081 -0.1313
 2864SOL    HW311502   0.678   0.615   4.210  0.7420  0.3616  1.0874
 2864SOL    MW411503   0.676   0.689   4.165  0.1717 -0.2114  0.1521
 2865SOL     OW11504   3.577   4.132   4.632 -0.4213  0.0627 -0.3365
 2865SOL    HW211505   3.527   4.212   4.617 -0.0080  0.7646  1.8154
 2865SOL    HW311506   3.669   4.160   4.623 -0.2609 -0.0401  0.8640
 2865SOL    MW411507   3.583   4.147   4.629 -0.3455  0.1421  0.1063
 2866SOL     OW11508   1.620   0.456   4.497 -0.3090  0.5093  0.0280
 2866SOL    HW211509   1.642   0.537   4.542 -0.6884  0.5644  0.1158
 2866SOL    HW311510   1.543   0.422   4.543  0.6234 -0.5793  0.8228
 2866SOL    MW411511   1.613   0.462   4.509 -0.2360  0.3729  0.1445
 2867SOL     OW11512   2.156   4.366   4.533  0.2294 -0.2103 -0.1708
 2867SOL    HW211513   2.064   4.392   4.528  0.0715 -0.8795 -0.9632
 2867SOL    HW311514   2.202   4.446   4.560 -0.7425 -0.2501  1.6527
 2867SOL    MW411515   2.150   4.380   4.536  0.0799 -0.3037 -0.0348
 2868SOL     OW11516   0.059   2.333   4.544  0.0102  0.0411 -0.0046
 2868SOL    HW211517   0.020   2.363   4.462 -0.3319 -1.0039 -0.2249
 2868SOL    HW311518  -0.015   2.324   4.604  0.2528  0.7548  0.4146
 2868SOL    MW411519   0.045   2.336   4.541 -0.0029 -0.0024  0.0215
 2869SOL     OW11520   0.239   2.051   4.287 -0.1383 -0.7450 -0.1058
 2869SOL    HW211521   0.252   2.069   4.380  0.3790  3.0129 -0.8310
 2869SOL    HW311522   0.324   2.018   4.257 -0.1652 -1.4959  0.5997
 2869SOL    MW411523   0.252   2.049   4.295 -0.0736 -0.3483 -0.1087
 2870SOL     OW11524   2.526   3.521   4.481  0.3999  0.3716 -0.1766
 2870SOL    HW211525   2.551   3.589   4.543 -1.3282  0.4471  0.4636
 2870SOL    HW311526   2.500   3.570   4.402 -0.6446  0.4749  0.2139
 2870SOL    MW411527   2.526   3.536   4.478  0.0343  0.3953 -0.0405
 2871SOL     OW11528   3.560   1.678   4.289  0.1105 -0.2140 -0.4251
 2871SOL    HW211529   3.552   1.723   4.374  0.7983 -0.3308 -0.2954
 2871SOL    HW311530   3.495   1.608   4.293 -0.4800  0.3342 -0.3454
 2871SOL    MW411531   3.551   1.675   4.301  0.1235 -0.1570 -0.3977
 2872SOL     OW11532   4.006   1.716   4.270  0.3112 -0.3132  0.1042
 2872SOL    HW211533   4.079   1.659   4.247  0.0251 -0.5481 -0.2477
 2872SOL    HW311534   3.929   1.659   4.262 -0.1320  0.4871 -1.6789
 2872SOL    MW411535   4.005   1.701   4.266  0.2146 -0.2384 -0.1769
 2873SOL     OW11536   1.805   0.902   4.471  0.0748 -0.1409  0.2101
 2873SOL    HW211537   1.882   0.904   4.528  0.7977 -0.0591 -0.7353
 2873SOL    HW311538   1.753   0.978   4.498  1.2673  0.9150 -0.3711
 2873SOL    MW411539   1.809   0.912   4.482  0.3275  0.0092  0.0091
 2874SOL     OW11540   0.848   0.847   4.514  0.0032  0.4182 -0.0118
 2874SOL    HW211541   0.755   0.869   4.520 -0.2263 -0.4539 -0.3183
 2874SOL    HW311542   0.867   0.848   4.420 -0.1298 -1.1684 -0.0648
 2874SOL    MW411543   0.838   0.850   4.502 -0.0446  0.0938 -0.0587
 2875SOL     OW11544   0.318   0.152   4.353  0.5281  0.1857 -0.1334
 2875SOL    HW211545   0.393   0.104   4.386  0.9186  1.7475  1.3173
 2875SOL    HW311546   0.356   0.219   4.296  0.2299  0.8524  0.4486
 2875SOL    MW411547   0.333   0.155   4.350  0.5402  0.4797  0.1349
 2876SOL     OW11548   4.013   4.642   4.488  0.3900  0.0362  0.0141
 2876SOL    HW211549   4.017   4.688   4.404  0.5284  2.1470  1.1520
 2876SOL    HW311550   3.945   4.576   4.476  0.7264  0.0284 -1.9078
 2876SOL    MW411551   4.004   4.639   4.475  0.4530  0.3138 -0.0892
 2877SOL     OW11552   3.154   3.031   4.619 -0.0249 -0.0430 -0.1911
 2877SOL    HW211553   3.073   3.019   4.668  0.5909  0.1574  0.9099
 2877SOL    HW311554   3.162   3.126   4.607 -0.5593 -0.1437 -1.3544
 2877SOL    MW411555   3.145   3.042   4.624 -0.0143 -0.0300 -0.1993
 2878SOL     OW11556   0.718   3.352   4.818 -0.1400  0.1078 -0.1039
 2878SOL    HW211557   0.801   3.400   4.810 -0.3568  0.6950  1.2464
 2878SOL    HW311558   0.739   3.265   4.782  0.1117  1.2973 -3.0340
 2878SOL    MW411559   0.732   3.347   4.812 -0.1353  0.3421 -0.3119
 2879SOL     OW11560   3.173   3.317   4.546  0.5794 -0.3671 -0.4560
 2879SOL    HW211561   3.253   3.361   4.573  0.4443  1.0834 -2.3319
 2879SOL    HW311562   3.187   3.294   4.455 -1.1061 -0.1538 -0.7904
 2879SOL    MW411563   3.185   3.320   4.538  0.3390 -0.1478 -0.7477
 2880SOL     OW11564   3.596   4.018   4.256  0.0569  0.0396 -0.0609
 2880SOL    HW211565   3.516   3.983   4.218  0.7065  0.0756 -1.4838
 2880SOL    HW311566   3.594   3.989   4.348 -1.9450  0.7000  0.1135
 2880SOL    MW411567   3.585   4.009   4.263 -0.1214  0.1311 -0.2255
 2881SOL     OW11568   2.938   4.360   4.252 -0.0914 -0.3172  0.6212
 2881SOL    HW211569   3.014   4.322   4.206 -1.8076 -1.1481 -1.6447
 2881SOL    HW311570   2.962   4.358   4.344  2.9715  0.1863 -0.1088
 2881SOL    MW411571   2.951   4.355   4.258  0.0863 -0.3605  0.2255
 2882SOL     OW11572   3.375   0.484   4.335 -0.3432  0.4096  0.0986
 2882SOL    HW211573   3.312   0.436   4.281 -0.3908  0.7121 -0.1120
 2882SOL    HW311574   3.460   0.446   4.314 -0.7657 -2.1009  2.6004
 2882SOL    MW411575   3.378   0.473   4.325 -0.4053  0.1183  0.4010
 2883SOL     OW11576   3.164   4.272   4.130  0.3541 -0.2419 -0.1267
 2883SOL    HW211577   3.148   4.181   4.155  0.7562  0.3411  2.3313
 2883SOL    HW311578   3.236   4.300   4.186 -0.3135  1.8257 -0.2803
 2883SOL    MW411579   3.171   4.264   4.141  0.3190  0.1082  0.1774
 2884SOL     OW11580   4.268   4.376   4.301 -0.2820 -0.6049  0.1572
 2884SOL    HW211581   4.237   4.334   4.381  1.7649  0.8677  1.7681
 2884SOL    HW311582   4.347   4.328   4.278  1.3196  1.4305  1.2540
 2884SOL    MW411583   4.274   4.364   4.308  0.1993 -0.1426  0.5145
 2885NA      NA11584   2.725   3.231   0.464 -0.2508 -0.1519 -0.1341
   4.49070   4.66690  10.00000
