Gromacs Runs On Most of All Computer Systems in water
11622
    1U      O5'    1   3.146   2.349   4.157  0.1360 -0.1030  0.0683
    1U      H5T    2   3.154   2.393   4.243  1.9874  1.1493 -0.7085
    1U      C5'    3   3.062   2.427   4.072  0.9647  0.5824 -0.8405
    1U     H5'1    4   3.085   2.417   3.966  0.9505 -2.4420 -0.5998
    1U     H5'2    5   3.074   2.532   4.098 -0.9083  0.3952  0.9819
    1U      C4'    6   2.916   2.394   4.094 -0.2915  0.1892  0.2181
    1U      H4'    7   2.851   2.435   4.017  0.1138 -1.3449 -0.9734
    1U      O4'    8   2.909   2.254   4.081 -0.5397 -0.5285  0.4189
    1U      C1'    9   2.848   2.201   4.202  0.0623 -0.4411  0.0123
    1U      H1'   10   2.742   2.192   4.176 -0.5079 -0.3708  2.1531
    1U       N1   11   2.911   2.071   4.241  0.0501 -0.1541  0.0622
    1U       C6   12   3.047   2.045   4.216 -0.4631 -0.1722  0.0539
    1U       H6   13   3.106   2.115   4.160 -1.0314 -0.7040 -1.2457
    1U       C5   14   3.099   1.920   4.248 -0.1691  0.2515 -0.0514
    1U       H5   15   3.205   1.902   4.240 -0.3249 -0.9747  0.4391
    1U       C4   16   3.017   1.820   4.307 -0.6910 -0.2364 -0.1730
    1U       O4   17   3.064   1.714   4.348  0.2754 -0.2379 -0.3063
    1U       N3   18   2.889   1.850   4.333  0.2381 -0.3524  0.0791
    1U       H3   19   2.833   1.781   4.381 -2.5610  1.2504 -0.7881
    1U       C2   20   2.835   1.975   4.312  0.5201  0.0374 -0.6637
    1U       O2   21   2.721   1.995   4.341 -0.3289 -0.0195 -0.0358
    1U      C3'   22   2.860   2.436   4.236 -0.2621  0.1054  0.7032
    1U      H3'   23   2.917   2.515   4.286 -1.0480  2.0259 -1.3921
    1U      C2'   24   2.866   2.304   4.310 -0.0084  0.3841  0.3702
    1U     H2'1   25   2.967   2.296   4.351  0.0475  0.3143  0.2184
    1U      O2'   26   2.770   2.288   4.414  0.5661  0.2033 -0.2089
    1U     HO'2   27   2.775   2.196   4.443  1.3731  0.7374  1.4822
    1U      O3'   28   2.723   2.481   4.212 -0.3775  0.1120  0.0903
    2RG3      P   29   2.695   2.637   4.203 -0.1319  0.3021  0.0516
    2RG3    O1P   30   2.550   2.646   4.232 -0.3689  0.3006 -0.1465
    2RG3    O2P   31   2.751   2.682   4.075 -0.0542 -0.0198  0.6973
    2RG3    O5'   32   2.773   2.709   4.325 -0.2479  0.6432 -0.5803
    2RG3    C5'   33   2.789   2.848   4.315  0.3335 -0.0428 -0.0983
    2RG3   H5'1   34   2.694   2.896   4.289  1.1100  2.2247  1.1397
    2RG3   H5'2   35   2.852   2.867   4.228 -1.7961  4.1115 -0.9174
    2RG3    C4'   36   2.858   2.904   4.441 -0.0022 -0.4212 -0.0428
    2RG3    H4'   37   2.901   2.999   4.410  0.7833 -0.3906  1.1305
    2RG3    O4'   38   2.775   2.932   4.554  0.7247  0.1349  0.5092
    2RG3    C1'   39   2.839   2.875   4.665 -0.5786 -0.0943 -0.0811
    2RG3    H1'   40   2.815   2.933   4.754  1.2683 -0.5583  0.7524
    2RG3     N9   41   2.763   2.750   4.687  0.2073 -0.4306 -0.1025
    2RG3     C8   42   2.630   2.738   4.705 -0.1697 -0.3727  0.5583
    2RG3     H8   43   2.562   2.822   4.717  2.4421  1.9687 -0.5262
    2RG3     N7   44   2.582   2.619   4.710  0.4025  0.4718 -0.0299
    2RG3     C5   45   2.691   2.536   4.702 -0.2452  0.4974 -0.2143
    2RG3     C6   46   2.705   2.396   4.707  0.1228  0.3910 -0.1020
    2RG3     O6   47   2.621   2.306   4.723  0.6516 -0.0718  0.2541
    2RG3     N1   48   2.838   2.351   4.692  0.1490  0.1805 -0.8140
    2RG3     H1   49   2.856   2.253   4.676  0.4720  0.4618 -2.2154
    2RG3     C2   50   2.941   2.434   4.683  0.4048  0.3450 -0.4151
    2RG3     N2   51   3.059   2.376   4.656 -0.0408 -0.4129  0.1325
    2RG3    H21   52   3.074   2.281   4.625 -0.7910 -0.7053  0.6584
    2RG3    H22   53   3.147   2.427   4.658  0.0006 -0.5049  0.7179
    2RG3     N3   54   2.936   2.567   4.686 -0.7633  0.3146  0.2558
    2RG3     C4   55   2.807   2.615   4.694 -0.5465 -0.3927  0.4728
    2RG3    C3'   56   2.982   2.825   4.488  0.3445  0.1883  0.0500
    2RG3    H3'   57   2.968   2.718   4.474 -1.7907  0.3391  0.8032
    2RG3    C2'   58   2.984   2.864   4.635  0.3065 -0.0808  0.0039
    2RG3   H2'1   59   3.035   2.791   4.698  0.1969 -0.6117 -0.5167
    2RG3    O2'   60   3.048   2.990   4.657 -0.2777 -0.7131  0.1776
    2RG3   HO'2   61   3.141   2.979   4.636  0.0078  3.7277 -1.3010
    2RG3    O3'   62   3.103   2.859   4.420 -0.2077 -0.0594 -0.6034
    2RG3    H3T   63   3.170   2.799   4.452 -0.3667  0.3813  0.5581
    3RG35     P   64   3.448   2.680   4.399  0.0165 -0.0252 -0.2149
    3RG35   O1P   65   3.564   2.719   4.483 -0.5402  0.0418  0.2333
    3RG35   O2P   66   3.437   2.763   4.278  0.0937 -0.0027  0.2394
    3RG35   O5'   67   3.470   2.530   4.350  0.0449 -0.1496 -0.1059
    3RG35   C5'   68   3.587   2.492   4.277 -0.1646 -0.0601  0.0186
    3RG35  H5'1   69   3.670   2.524   4.341 -2.6986  0.6731  3.0497
    3RG35  H5'2   70   3.590   2.533   4.176 -0.3904  0.1141  0.0817
    3RG35   C4'   71   3.601   2.340   4.256  0.3057 -0.0469 -1.1057
    3RG35   H4'   72   3.699   2.311   4.216  0.1082 -1.2889 -0.7019
    3RG35   O4'   73   3.585   2.278   4.385 -0.2441  0.9192 -0.0337
    3RG35   C1'   74   3.531   2.147   4.359  0.0675 -0.1563  0.3293
    3RG35   H1'   75   3.606   2.068   4.362 -1.3160 -1.4645  1.4795
    3RG35    N9   76   3.410   2.124   4.443 -0.1684  0.1360 -0.5569
    3RG35    C8   77   3.312   2.212   4.476 -0.4176 -0.2369  0.1512
    3RG35    H8   78   3.311   2.317   4.451  0.8275 -0.0438  0.8554
    3RG35    N7   79   3.209   2.157   4.539 -0.4940  0.3898 -0.5180
    3RG35    C5   80   3.242   2.021   4.544 -0.1842 -0.0204  0.1120
    3RG35    C6   81   3.169   1.912   4.597 -0.1494  0.4321  0.2495
    3RG35    O6   82   3.049   1.897   4.631  0.5319 -0.3162 -0.3512
    3RG35    N1   83   3.245   1.799   4.588  0.1576  0.7067  0.2373
    3RG35    H1   84   3.200   1.714   4.618 -1.8419  1.2161 -1.1971
    3RG35    C2   85   3.363   1.784   4.529  0.1482 -0.5288 -0.0423
    3RG35    N2   86   3.418   1.666   4.538 -0.0722 -0.2829  0.1805
    3RG35   H21   87   3.360   1.591   4.573  0.9918 -0.7761  0.9133
    3RG35   H22   88   3.514   1.661   4.507 -1.0173  0.0145 -2.9610
    3RG35    N3   89   3.439   1.887   4.485  0.0216  0.0993 -0.4569
    3RG35    C4   90   3.373   2.006   4.495  0.0091  1.0798 -0.2622
    3RG35   C3'   91   3.486   2.294   4.169  0.3228 -0.0284  0.4971
    3RG35   H3'   92   3.392   2.337   4.203 -1.2746 -2.3056 -0.9590
    3RG35   C2'   93   3.488   2.144   4.212  0.0121 -0.4322 -0.7911
    3RG35  H2'1   94   3.386   2.107   4.201  0.1471 -1.1034  0.1551
    3RG35   O2'   95   3.574   2.065   4.130  0.2697 -0.2851 -0.8877
    3RG35  HO'2   96   3.591   2.119   4.053 -1.2817  0.2761 -0.8488
    3RG35   O3'   97   3.515   2.321   4.033 -0.1487 -0.2276 -0.4038
    3RG35   H3T   98   3.466   2.399   4.006  1.3691  0.5277 -1.0444
    3RG35   O3P   99   3.321   2.674   4.469  0.3496 -0.5089 -0.0769
    7SOL     OW  100   0.073   4.125   0.395 -0.1566 -0.1211  0.5545
    7SOL    HW2  101   0.015   4.129   0.471 -0.6982 -0.3179  0.1528
    7SOL    HW3  102   0.161   4.121   0.432 -0.4466 -0.8222  1.1830
    7SOL    MW4  103   0.077   4.125   0.410 -0.2664 -0.2398  0.5845
    8SOL     OW  104   3.537   1.668   0.696  0.1493  0.1252  0.3787
    8SOL    HW2  105   3.454   1.628   0.724 -0.5058  0.7656 -0.5814
    8SOL    HW3  106   3.536   1.754   0.736  0.1800  0.2589  0.0969
    8SOL    MW4  107   3.526   1.674   0.705  0.0670  0.2273  0.2148
    9SOL     OW  108   4.165   1.430   0.293  0.0921  0.3547 -0.0897
    9SOL    HW2  109   4.229   1.499   0.309 -0.3902  1.1758 -1.5305
    9SOL    HW3  110   4.217   1.350   0.282  0.7711  0.7787  0.0295
    9SOL    MW4  111   4.180   1.428   0.294  0.1173  0.5192 -0.2640
   10SOL     OW  112   4.058   2.580   0.270  0.2750 -0.5194  0.4644
   10SOL    HW2  113   4.075   2.585   0.176 -1.0351 -0.7475  0.2025
   10SOL    HW3  114   4.008   2.659   0.290 -0.8391 -1.2507  0.6498
   10SOL    MW4  115   4.054   2.591   0.260 -0.0448 -0.6461  0.4544
   11SOL     OW  116   1.755   0.844   0.676 -0.8431 -0.4804  0.7866
   11SOL    HW2  117   1.671   0.810   0.704 -1.1496  0.4342  0.9960
   11SOL    HW3  118   1.753   0.837   0.580 -0.6934 -1.5129  0.8507
   11SOL    MW4  119   1.744   0.839   0.667 -0.8639 -0.4960  0.8227
   12SOL     OW  120   3.724   0.479   0.308 -0.3615  0.1101  0.4696
   12SOL    HW2  121   3.709   0.511   0.397 -2.2627  1.4560 -0.2744
   12SOL    HW3  122   3.687   0.548   0.252 -0.2448 -1.2413 -1.3206
   12SOL    MW4  123   3.717   0.493   0.312 -0.5970  0.1094  0.1352
   13SOL     OW  124   1.112   1.259   0.643 -0.1279 -0.0876 -0.6357
   13SOL    HW2  125   1.042   1.193   0.647  0.1721 -0.4752 -1.5550
   13SOL    HW3  126   1.106   1.294   0.554  1.1380 -0.4387 -0.8565
   13SOL    MW4  127   1.102   1.255   0.632  0.0787 -0.1850 -0.7862
   14SOL     OW  128   4.468   0.381   0.771  0.1023  0.1403 -0.3593
   14SOL    HW2  129   4.453   0.393   0.865 -0.8203  0.8288 -0.5827
   14SOL    HW3  130   4.448   0.288   0.755  0.2877  0.0149  0.1333
   14SOL    MW4  131   4.463   0.370   0.782  0.0057  0.2146 -0.3238
   15SOL     OW  132   2.745   1.603   0.260  0.0850 -0.3630  0.0701
   15SOL    HW2  133   2.674   1.667   0.261  0.3000 -0.0491 -2.0711
   15SOL    HW3  134   2.824   1.655   0.277  0.3597  0.1484 -2.4665
   15SOL    MW4  135   2.746   1.619   0.262  0.1495 -0.2540 -0.5471
   16SOL     OW  136   0.676   1.269   0.673  0.3167  0.3284 -0.0261
   16SOL    HW2  137   0.662   1.354   0.713  0.7426 -0.3661  1.6449
   16SOL    HW3  138   0.598   1.218   0.694  0.6724 -0.1409  0.1877
   16SOL    MW4  139   0.664   1.273   0.681  0.4198  0.1749  0.2225
   17SOL     OW  140   4.385   2.259   0.282 -0.1208 -0.1195  0.0839
   17SOL    HW2  141   4.305   2.237   0.330  1.2979 -1.1979  2.0381
   17SOL    HW3  142   4.451   2.200   0.318  1.4633  0.4450 -1.8287
   17SOL    MW4  143   4.383   2.248   0.293  0.2756 -0.1874  0.0893
   18SOL     OW  144   1.016   3.034   0.389  0.0339  0.3028  0.0674
   18SOL    HW2  145   0.935   2.984   0.396 -0.5069  0.9591 -1.3273
   18SOL    HW3  146   0.992   3.122   0.420  0.2502  0.4512 -0.1834
   18SOL    MW4  147   1.002   3.039   0.394 -0.0088  0.4089 -0.1497
   19SOL     OW  148   0.611   3.351   0.825 -0.0222  0.4225  0.0087
   19SOL    HW2  149   0.558   3.291   0.772  0.0651  0.3975 -0.0510
   19SOL    HW3  150   0.649   3.295   0.893 -0.3021  0.4925  0.2253
   19SOL    MW4  151   0.609   3.335   0.827 -0.0476  0.4284  0.0294
   20SOL     OW  152   3.532   2.658   0.785  0.0970 -0.5367  0.0727
   20SOL    HW2  153   3.454   2.712   0.775 -0.7537 -1.9815 -1.2941
   20SOL    HW3  154   3.541   2.646   0.879  0.7685  2.6056  0.4716
   20SOL    MW4  155   3.523   2.664   0.796  0.0734 -0.3128 -0.0550
   21SOL     OW  156   4.411   3.459   0.531  0.8226 -0.4629 -0.2243
   21SOL    HW2  157   4.452   3.471   0.445  2.0756 -3.5598 -0.1442
   21SOL    HW3  158   4.480   3.481   0.593  0.4585  0.0835 -0.0090
   21SOL    MW4  159   4.426   3.463   0.528  0.9403 -0.7994 -0.1854
   22SOL     OW  160   4.087   3.198   0.696 -0.4294  0.3885  0.3099
   22SOL    HW2  161   4.055   3.288   0.708 -0.9284  0.2714 -0.1352
   22SOL    HW3  162   4.009   3.143   0.702 -0.3682  0.1261 -1.0456
   22SOL    MW4  163   4.072   3.203   0.698 -0.4869  0.3386  0.0723
   23SOL     OW  164   0.302   2.196   0.373 -0.0868 -0.1972 -0.1540
   23SOL    HW2  165   0.383   2.166   0.414  0.3419  0.8130 -0.2457
   23SOL    HW3  166   0.323   2.283   0.339 -1.0651 -0.1358 -0.6252
   23SOL    MW4  167   0.316   2.203   0.374 -0.1593 -0.0560 -0.2283
   24SOL     OW  168   3.756   3.591   0.333 -0.0852 -0.5299  0.1750
   24SOL    HW2  169   3.728   3.681   0.347  0.8189 -0.1268 -0.5246
   24SOL    HW3  170   3.676   3.543   0.314 -0.5317  0.2013  0.2037
   24SOL    MW4  171   3.742   3.596   0.332 -0.0248 -0.3803  0.0865
   25SOL     OW  172   3.131   0.423   0.771  0.2795 -0.4400  0.1256
   25SOL    HW2  173   3.098   0.337   0.747 -0.0627 -0.2694 -0.0094
   25SOL    HW3  174   3.143   0.419   0.866 -0.7000 -0.2977  0.2522
   25SOL    MW4  175   3.128   0.411   0.780  0.1051 -0.3987  0.1245
   26SOL     OW  176   4.351   2.933   0.306 -0.4644 -0.0794  0.4629
   26SOL    HW2  177   4.365   2.940   0.212 -0.6610 -1.2927  0.3268
   26SOL    HW3  178   4.335   2.839   0.320 -1.0014  0.1848  1.6226
   26SOL    MW4  179   4.351   2.921   0.295 -0.5612 -0.2043  0.5980
   27SOL     OW  180   3.643   3.231   0.615 -0.1708 -0.4274 -0.3627
   27SOL    HW2  181   3.706   3.243   0.543 -0.3484 -1.4033 -0.6874
   27SOL    HW3  182   3.685   3.167   0.673  0.1293  0.6225  0.6028
   27SOL    MW4  183   3.657   3.224   0.613 -0.1547 -0.4177 -0.2781
   28SOL     OW  184   0.025   0.872   0.657  0.3043 -0.8039 -0.1420
   28SOL    HW2  185   0.040   0.874   0.563 -0.4021 -0.7712 -0.2583
   28SOL    HW3  186   0.094   0.815   0.692  1.2146  0.0344 -0.5445
   28SOL    MW4  187   0.036   0.865   0.649  0.3312 -0.6890 -0.2104
   29SOL     OW  188   4.261   4.574   0.777  0.5728 -0.0301  0.3565
   29SOL    HW2  189   4.329   4.508   0.761  0.7089  0.0930  0.4220
   29SOL    HW3  190   4.267   4.592   0.870 -0.9030 -1.4855  0.7501
   29SOL    MW4  191   4.271   4.568   0.787  0.3963 -0.2060  0.4171
   30SOL     OW  192   0.969   3.249   0.789 -0.4902 -0.5674  0.3426
   30SOL    HW2  193   1.003   3.160   0.800  1.5239  0.0359 -0.7158
   30SOL    HW3  194   0.951   3.256   0.696  0.2790  0.4373  0.2630
   30SOL    MW4  195   0.971   3.238   0.778 -0.1230 -0.3550  0.1925
   31SOL     OW  196   0.227   4.479   0.677  0.8041  0.3526  0.2205
   31SOL    HW2  197   0.264   4.422   0.609  0.5403 -0.9934  1.1800
   31SOL    HW3  198   0.160   4.425   0.719  1.0061  1.1550  1.5899
   31SOL    MW4  199   0.223   4.464   0.673  0.7960  0.2809  0.5278
   32SOL     OW  200   4.012   0.027   0.287  0.1430  0.1065 -0.4012
   32SOL    HW2  201   4.054  -0.056   0.309  1.7725  0.4390 -2.0877
   32SOL    HW3  202   3.980   0.014   0.197 -2.5672  0.1938  0.5114
   32SOL    MW4  203   4.013   0.014   0.278  0.0005  0.1621 -0.5033
   33SOL     OW  204   4.297   0.948   0.264 -0.1355  0.0308 -0.0016
   33SOL    HW2  205   4.369   0.913   0.316  1.1620  2.2185 -0.2585
   33SOL    HW3  206   4.335   0.959   0.176 -1.2667 -0.3292 -0.5373
   33SOL    MW4  207   4.312   0.945   0.259 -0.1135  0.2719 -0.1062
   34SOL     OW  208   0.847   0.211   0.258 -0.1693 -0.5329  0.4631
   34SOL    HW2  209   0.810   0.123   0.244 -0.8207 -0.2360  0.3009
   34SOL    HW3  210   0.939   0.195   0.281 -0.1241 -1.2275 -0.1783
   34SOL    MW4  211   0.854   0.197   0.259 -0.2493 -0.5854  0.3571
   35SOL     OW  212   0.422   0.059   0.605  0.0922  0.9433  0.4235
   35SOL    HW2  213   0.342   0.007   0.615  1.1619 -1.0284 -1.0522
   35SOL    HW3  214   0.490   0.006   0.647  1.1584  1.2474 -0.8979
   35SOL    MW4  215   0.421   0.045   0.612  0.3740  0.7233  0.0545
   36SOL     OW  216   0.157   0.378   0.401 -0.1185  0.2463 -0.1728
   36SOL    HW2  217   0.172   0.397   0.494 -0.5597  0.8123 -0.2096
   36SOL    HW3  218   0.244   0.386   0.360  0.3145 -1.3873  0.4173
   36SOL    MW4  219   0.170   0.382   0.408 -0.1196  0.1055 -0.0998
   37SOL     OW  220   2.141   1.674   0.566 -0.3586  0.4211  0.4448
   37SOL    HW2  221   2.166   1.750   0.618 -0.6680  1.0477 -0.2973
   37SOL    HW3  222   2.080   1.625   0.621 -1.1611  1.4021  0.4486
   37SOL    MW4  223   2.136   1.678   0.580 -0.5054  0.6332  0.3474
   38SOL     OW  224   0.880   1.595   0.392  0.0580  0.3743 -0.1117
   38SOL    HW2  225   0.875   1.620   0.484 -0.6151 -0.3942  0.0606
   38SOL    HW3  226   0.814   1.527   0.382  0.3819  0.2000 -1.0809
   38SOL    MW4  227   0.870   1.589   0.403  0.0119  0.2499 -0.2168
   39SOL     OW  228   1.901   2.267   0.235  0.1832  0.1176 -0.3084
   39SOL    HW2  229   1.877   2.174   0.241 -0.4224  0.3028  0.1123
   39SOL    HW3  230   1.990   2.270   0.269  0.5350 -0.4500 -1.1559
   39SOL    MW4  231   1.910   2.255   0.240  0.1498  0.0675 -0.3648
   40SOL     OW  232   0.108   3.179   0.641  0.0502 -0.7712 -0.7448
   40SOL    HW2  233   0.064   3.225   0.712 -0.9714 -2.6037 -0.1560
   40SOL    HW3  234   0.176   3.239   0.612  1.2332 -0.4232  2.5419
   40SOL    MW4  235   0.111   3.193   0.646  0.0715 -0.9670 -0.2334
   41SOL     OW  236   4.430   2.722   1.055 -0.1038 -0.0142 -0.1817
   41SOL    HW2  237   4.365   2.791   1.072 -0.2446 -0.1935  0.0244
   41SOL    HW3  238   4.385   2.641   1.081  0.1991 -0.1394 -0.0464
   41SOL    MW4  239   4.415   2.720   1.061 -0.0825 -0.0546 -0.1369
   42SOL     OW  240   0.116   1.629   0.255 -0.2591 -0.2446  0.6789
   42SOL    HW2  241   0.139   1.566   0.186 -0.8917 -0.0131  0.2601
   42SOL    HW3  242   0.148   1.713   0.222 -0.1163 -0.2173  0.8888
   42SOL    MW4  243   0.124   1.632   0.241 -0.3237 -0.2104  0.6513
   43SOL     OW  244   0.916   0.879   0.405 -0.7924 -0.4220 -0.1831
   43SOL    HW2  245   1.010   0.890   0.389 -0.7922  0.4615  0.4249
   43SOL    HW3  246   0.876   0.956   0.364 -1.0954  0.1037  1.0803
   43SOL    MW4  247   0.923   0.891   0.397 -0.8323 -0.2362  0.0638
   44SOL     OW  248   2.583   2.517   0.109  0.4284  0.8781 -0.3736
   44SOL    HW2  249   2.563   2.610   0.108 -1.1227  0.5509 -0.6014
   44SOL    HW3  250   2.498   2.473   0.110  1.1294 -0.5399 -0.5038
   44SOL    MW4  251   2.569   2.523   0.109  0.3161  0.6478 -0.4208
   45SOL     OW  252   3.363   4.149   0.438 -0.1320  0.3319  0.2611
   45SOL    HW2  253   3.381   4.155   0.532  1.0401  0.3510  0.0465
   45SOL    HW3  254   3.406   4.226   0.400 -1.1521  0.6789 -0.2251
   45SOL    MW4  255   3.371   4.160   0.446 -0.1118  0.3805  0.1686
   46SOL     OW  256   2.964   2.038   0.714 -0.1505 -0.1517  0.3221
   46SOL    HW2  257   3.029   2.070   0.652 -0.4728 -0.1304 -0.0059
   46SOL    HW3  258   3.011   2.032   0.798  0.3619 -0.4628  0.0137
   46SOL    MW4  259   2.979   2.041   0.717 -0.1254 -0.1900  0.2381
   47SOL     OW  260   1.261   4.494   0.394  0.2091  0.2054 -0.6890
   47SOL    HW2  261   1.293   4.564   0.337  1.9098  0.6852  0.8183
   47SOL    HW3  262   1.280   4.525   0.483 -0.8585 -1.2872  0.0754
   47SOL    MW4  263   1.268   4.508   0.398  0.2925  0.0720 -0.3893
   48SOL     OW  264   1.169   4.068   0.329 -0.4642 -0.3595 -0.0791
   48SOL    HW2  265   1.103   4.130   0.359 -0.2366  0.4886 -1.3076
   48SOL    HW3  266   1.249   4.120   0.321  0.0732 -1.1248  0.2469
   48SOL    MW4  267   1.171   4.083   0.332 -0.3633 -0.3481 -0.1981
   49SOL     OW  268   4.135   2.825   0.582  0.0360 -0.0230 -0.4332
   49SOL    HW2  269   4.082   2.781   0.648  0.3047  1.7100  0.9643
   49SOL    HW3  270   4.175   2.754   0.532 -0.7147 -1.3463  0.8291
   49SOL    MW4  271   4.133   2.810   0.584 -0.0272  0.0312 -0.0823
   50SOL     OW  272   0.353   2.706   0.324  0.0987 -0.4894 -0.1927
   50SOL    HW2  273   0.269   2.745   0.349 -0.3476 -1.0324 -0.8344
   50SOL    HW3  274   0.387   2.763   0.255  0.8024  0.3745  0.8480
   50SOL    MW4  275   0.346   2.718   0.318  0.1327 -0.4468 -0.1400
   51SOL     OW  276   4.172   3.596   0.462 -0.2848 -0.0479 -0.0022
   51SOL    HW2  277   4.114   3.571   0.534 -2.5222 -2.8270 -2.6093
   51SOL    HW3  278   4.256   3.556   0.485 -1.1668 -1.5431  0.7405
   51SOL    MW4  279   4.176   3.587   0.475 -0.6962 -0.6118 -0.2482
   52SOL     OW  280   0.250   2.717   0.811 -0.0137 -0.1480 -0.7021
   52SOL    HW2  281   0.161   2.694   0.787 -0.4594  1.5487 -0.7807
   52SOL    HW3  282   0.257   2.811   0.790  0.6400  0.6310  2.6752
   52SOL    MW4  283   0.239   2.727   0.805  0.0137  0.1786 -0.2669
   53SOL     OW  284   1.045   4.293   0.442 -0.3508 -0.1602 -0.0904
   53SOL    HW2  285   1.053   4.286   0.537 -1.1790 -0.6635 -0.0491
   53SOL    HW3  286   1.113   4.354   0.416  0.2064 -0.4054  0.7751
   53SOL    MW4  287   1.055   4.300   0.451 -0.3866 -0.2589  0.0292
   54SOL     OW  288   2.039   3.733   0.386 -0.1381  0.1617 -0.8140
   54SOL    HW2  289   2.049   3.717   0.480  0.4897 -1.9600 -1.2145
   54SOL    HW3  290   1.945   3.744   0.374 -0.0901  2.0017  0.2737
   54SOL    MW4  291   2.028   3.733   0.397 -0.0489  0.1245 -0.7233
   55SOL     OW  292   1.331   0.079   0.270 -0.1924 -0.1949 -0.1206
   55SOL    HW2  293   1.343   0.120   0.184  1.3236 -1.8260 -0.7229
   55SOL    HW3  294   1.260   0.128   0.311  0.5430  2.0185 -1.4329
   55SOL    MW4  295   1.323   0.091   0.264  0.1045 -0.1181 -0.3732
   56SOL     OW  296   0.423   0.300   0.797  0.1071  0.5242 -0.0755
   56SOL    HW2  297   0.501   0.336   0.756  0.2974 -0.1252 -0.2914
   56SOL    HW3  298   0.424   0.207   0.773 -0.9947  0.6119 -0.5241
   56SOL    MW4  299   0.433   0.292   0.788 -0.0131  0.4500 -0.1633
   57SOL     OW  300   3.327   0.525   0.536 -0.0751  0.3042 -0.0849
   57SOL    HW2  301   3.350   0.490   0.623 -0.8600  1.5329  0.6341
   57SOL    HW3  302   3.382   0.603   0.527  1.6100 -1.0114 -1.6507
   57SOL    MW4  303   3.338   0.531   0.546  0.0434  0.2928 -0.1967
   58SOL     OW  304   4.298   1.217   0.620 -0.0645 -0.2190 -0.9750
   58SOL    HW2  305   4.378   1.187   0.663  0.6122  0.5526 -1.6845
   58SOL    HW3  306   4.228   1.191   0.680  0.7185 -0.8067 -0.2970
   58SOL    MW4  307   4.299   1.210   0.633  0.1283 -0.1948 -0.9792
   59SOL     OW  308   2.129   4.196   0.422 -0.3499  0.0691  0.5459
   59SOL    HW2  309   2.090   4.255   0.357  1.6233  0.6899 -0.1214
   59SOL    HW3  310   2.122   4.109   0.382  1.1160  0.4850 -0.6446
   59SOL    MW4  311   2.123   4.192   0.408  0.1037  0.2060  0.3008
   60SOL     OW  312   0.466   1.135   0.752  0.3155 -0.2271  0.5509
   60SOL    HW2  313   0.439   1.051   0.715 -1.5453  0.0839  1.1451
   60SOL    HW3  314   0.402   1.197   0.719  0.9346  0.7352  1.1385
   60SOL    MW4  315   0.454   1.132   0.743  0.1517 -0.0591  0.7069
   61SOL     OW  316   0.069   2.066   0.415 -0.4657 -0.7569  0.0306
   61SOL    HW2  317   0.144   2.124   0.400 -1.1286  0.2232  0.4430
   61SOL    HW3  318   0.078   2.038   0.506 -1.0551  0.0427  0.3424
   61SOL    MW4  319   0.080   2.070   0.425 -0.6309 -0.5221  0.1261
   62SOL     OW  320   2.705   0.619   0.514 -0.2691 -0.0203  0.2257
   62SOL    HW2  321   2.627   0.568   0.537 -0.6179  0.5760  0.3856
   62SOL    HW3  322   2.766   0.604   0.586  0.4193 -1.8315 -0.7095
   62SOL    MW4  323   2.703   0.611   0.526 -0.2241 -0.1806  0.1234
   63SOL     OW  324   1.248   1.719   0.421 -0.2552 -0.3824 -0.6386
   63SOL    HW2  325   1.221   1.803   0.386  0.0028 -0.7387 -1.6973
   63SOL    HW3  326   1.330   1.699   0.376 -0.0963 -1.0010 -0.0864
   63SOL    MW4  327   1.255   1.727   0.411 -0.2000 -0.5111 -0.7055
   64SOL     OW  328   2.026   1.765   0.313  0.1982 -0.4813  0.1303
   64SOL    HW2  329   2.059   1.718   0.389 -1.3815 -1.1068  0.4361
   64SOL    HW3  330   2.092   1.750   0.245  0.5100 -1.7682  0.7061
   64SOL    MW4  331   2.039   1.757   0.314  0.0308 -0.7337  0.2466
   65SOL     OW  332   2.508   1.746   0.294  0.1561 -0.0317 -0.1219
   65SOL    HW2  333   2.514   1.836   0.327  1.0164 -0.2966  0.4463
   65SOL    HW3  334   2.481   1.694   0.370  0.2574 -0.3534 -0.3044
   65SOL    MW4  335   2.505   1.751   0.308  0.2830 -0.1092 -0.0710
   66SOL     OW  336   1.616   1.912   0.243  0.3530 -0.0631  0.0110
   66SOL    HW2  337   1.538   1.966   0.255  0.6096 -0.0705  1.8221
   66SOL    HW3  338   1.587   1.823   0.264  0.1157 -0.5418 -2.2444
   66SOL    MW4  339   1.602   1.907   0.247  0.3556 -0.1273 -0.0476
   67SOL     OW  340   0.544   2.647   0.715 -0.1412  0.6984 -0.0756
   67SOL    HW2  341   0.572   2.557   0.731  2.1451  1.2589 -0.7123
   67SOL    HW3  342   0.454   2.650   0.745  0.1534 -1.4780  1.1044
   67SOL    MW4  343   0.536   2.636   0.721  0.1993  0.4849 -0.0039
   68SOL     OW  344   1.973   2.702   0.486  0.2265  0.3984 -0.8068
   68SOL    HW2  345   1.893   2.669   0.446 -0.8797  0.3765  1.3439
   68SOL    HW3  346   2.008   2.627   0.534  0.6243  0.8751 -0.3559
   68SOL    MW4  347   1.967   2.688   0.487  0.1329  0.4585 -0.4636
   69SOL     OW  348   1.239   2.870   0.390 -0.0476  0.0156 -0.0154
   69SOL    HW2  349   1.165   2.931   0.392 -0.9076 -0.9930 -0.5066
   69SOL    HW3  350   1.199   2.785   0.375  0.9455 -0.9805  2.6771
   69SOL    MW4  351   1.224   2.867   0.388 -0.0300 -0.2489  0.2750
   70SOL     OW  352   1.668   2.960   0.363  0.1514  0.1578 -0.0660
   70SOL    HW2  353   1.594   3.005   0.322 -0.2896 -0.4430  0.0539
   70SOL    HW3  354   1.673   2.997   0.451  0.7576  1.0610 -0.4743
   70SOL    MW4  355   1.659   2.971   0.369  0.1731  0.1976 -0.1040
   71SOL     OW  356   1.227   2.463   0.199 -0.4369  0.0166 -0.9241
   71SOL    HW2  357   1.311   2.433   0.233 -0.2242  1.1646 -0.4153
   71SOL    HW3  358   1.239   2.468   0.104 -0.3485 -1.0854 -0.9741
   71SOL    MW4  359   1.239   2.460   0.191 -0.3971  0.0226 -0.8635
   72SOL     OW  360   0.568   4.527   0.359 -0.5203 -0.1815  0.0749
   72SOL    HW2  361   0.508   4.598   0.340 -2.6143 -1.4368  1.7171
   72SOL    HW3  362   0.563   4.469   0.283 -1.8336 -0.5433  0.4199
   72SOL    MW4  363   0.560   4.528   0.347 -0.9698 -0.3948  0.3371
   73SOL     OW  364   1.299   3.933   0.566 -0.1411  0.3382  0.0854
   73SOL    HW2  365   1.223   3.920   0.623  0.1641  0.3162  0.4856
   73SOL    HW3  366   1.261   3.960   0.482 -0.6278 -0.2729  0.1009
   73SOL    MW4  367   1.284   3.935   0.563 -0.1651  0.2549  0.1402
   74SOL     OW  368   0.564   4.268   0.787  0.1565 -0.3158 -0.3633
   74SOL    HW2  369   0.529   4.301   0.870  1.5268  0.2214  0.0244
   74SOL    HW3  370   0.659   4.272   0.798  0.3480 -1.6711 -1.4087
   74SOL    MW4  371   0.572   4.273   0.799  0.3626 -0.4234 -0.4501
   75SOL     OW  372   0.606   4.120   0.235  0.0698 -0.1979  0.0510
   75SOL    HW2  373   0.630   4.035   0.271  1.4730  0.3563  0.4763
   75SOL    HW3  374   0.666   4.182   0.277 -0.7708  0.9636 -0.4313
   75SOL    MW4  375   0.617   4.117   0.245  0.1441  0.0286  0.0434
   76SOL     OW  376   1.687   4.248   0.395 -0.2014  0.1501  0.3572
   76SOL    HW2  377   1.769   4.277   0.355 -1.0478 -0.4282 -1.9057
   76SOL    HW3  378   1.706   4.160   0.429  0.3736  0.4150  0.7194
   76SOL    MW4  379   1.700   4.240   0.394 -0.2372  0.1092  0.1064
   77SOL     OW  380   1.746   0.570   0.262  0.3818  0.1369  0.2117
   77SOL    HW2  381   1.734   0.582   0.168  0.9478 -0.1611  0.0980
   77SOL    HW3  382   1.745   0.658   0.299  2.5566  0.4273 -0.3667
   77SOL    MW4  383   1.745   0.583   0.255  0.7434  0.1360  0.1204
   78SOL     OW  384   4.286   0.503   0.239 -0.1101  0.1120 -0.1149
   78SOL    HW2  385   4.197   0.529   0.214 -0.1214 -1.3420 -1.6874
   78SOL    HW3  386   4.279   0.409   0.257  1.5355 -0.5372 -2.5637
   78SOL    MW4  387   4.273   0.494   0.238  0.1054 -0.1655 -0.6454
   79SOL     OW  388   0.314   4.390   0.412  0.7134  0.1467 -0.5342
   79SOL    HW2  389   0.407   4.413   0.412  0.8742 -0.4867  0.0921
   79SOL    HW3  390   0.269   4.473   0.400  1.3519  0.5185 -0.3894
   79SOL    MW4  391   0.321   4.404   0.411  0.8189  0.1121 -0.4325
   80SOL     OW  392   0.726   1.346   0.418  0.6424  0.0494 -0.6352
   80SOL    HW2  393   0.643   1.384   0.389  1.2621  1.0627 -1.1345
   80SOL    HW3  394   0.716   1.335   0.513 -0.2367 -0.2976 -0.7673
   80SOL    MW4  395   0.714   1.350   0.427  0.6081  0.1372 -0.7185
   81SOL     OW  396   0.223   0.428   0.659  0.3864  0.3439 -0.3324
   81SOL    HW2  397   0.139   0.411   0.702  0.2865  0.4468 -0.4860
   81SOL    HW3  398   0.286   0.373   0.706  0.3206  0.6362  0.1003
   81SOL    MW4  399   0.220   0.419   0.671  0.3645  0.3961 -0.2956
   82SOL     OW  400   3.353   2.299   0.470 -0.1306 -0.1797 -0.2535
   82SOL    HW2  401   3.370   2.208   0.445 -1.0188  0.1116 -1.9851
   82SOL    HW3  402   3.419   2.318   0.537 -0.1016 -2.1744  0.3140
   82SOL    MW4  403   3.364   2.289   0.476 -0.2439 -0.4046 -0.4071
   83SOL     OW  404   0.476   1.848   0.280  0.1684  0.0564 -0.4076
   83SOL    HW2  405   0.461   1.924   0.336 -0.1386  0.0397 -0.4629
   83SOL    HW3  406   0.569   1.851   0.258 -0.2973  1.6497 -2.2198
   83SOL    MW4  407   0.486   1.858   0.285  0.0665  0.2645 -0.6540
   84SOL     OW  408   1.703   2.431   0.368  0.1252  0.4610 -0.4627
   84SOL    HW2  409   1.616   2.401   0.344  0.1945  0.0199 -0.1704
   84SOL    HW3  410   1.762   2.365   0.330  0.2853  0.3059  0.0522
   84SOL    MW4  411   1.700   2.418   0.360  0.1554  0.3824 -0.3562
   85SOL     OW  412   1.490   1.209   0.379 -0.5227 -0.1616  0.2200
   85SOL    HW2  413   1.558   1.267   0.346  0.3735  0.4110  2.9237
   85SOL    HW3  414   1.513   1.195   0.471 -2.1023 -2.8064  0.2825
   85SOL    MW4  415   1.502   1.215   0.387 -0.6127 -0.4350  0.5850
   86SOL     OW  416   2.032   1.317   0.376  0.2049 -0.5539 -0.0982
   86SOL    HW2  417   1.965   1.385   0.372  0.2885 -0.2473  2.9427
   86SOL    HW3  418   2.112   1.362   0.348 -0.3342 -0.2361 -1.1660
   86SOL    MW4  419   2.034   1.332   0.371  0.1447 -0.4716  0.1621
   87SOL     OW  420   1.176   0.915   0.376 -0.1416 -0.2551 -0.5124
   87SOL    HW2  421   1.187   1.004   0.343  0.2920  0.1018  0.6047
   87SOL    HW3  422   1.214   0.916   0.463 -0.7336 -1.3683 -0.2296
   87SOL    MW4  423   1.183   0.927   0.383 -0.1625 -0.3549 -0.3277
   88SOL     OW  424   1.531   2.023   0.618  0.5482 -0.0312 -0.2685
   88SOL    HW2  425   1.461   1.978   0.665  1.1603  0.6492  1.3234
   88SOL    HW3  426   1.520   2.115   0.640  1.3858  0.1896 -0.7450
   88SOL    MW4  427   1.520   2.029   0.627  0.7393  0.0875 -0.1214
   89SOL     OW  428   1.436   2.359   0.354  0.1943 -0.2696 -0.2517
   89SOL    HW2  429   1.383   2.390   0.427 -0.3128  1.0036 -1.1548
   89SOL    HW3  430   1.440   2.264   0.367 -0.8274 -0.1862  0.7951
   89SOL    MW4  431   1.429   2.351   0.365 -0.0074 -0.0908 -0.2327
   90SOL     OW  432   0.171   1.910   0.211  0.2356  0.2111  0.2545
   90SOL    HW2  433   0.148   1.962   0.288 -1.3787  0.4325 -0.3620
   90SOL    HW3  434   0.264   1.928   0.197  0.1793  1.3303  1.2649
   90SOL    MW4  435   0.180   1.919   0.220  0.0152  0.3880  0.3065
   91SOL     OW  436   1.408   2.065   0.365 -0.0425 -0.7132  0.4478
   91SOL    HW2  437   1.437   2.027   0.447 -0.3365 -1.8297  0.0454
   91SOL    HW3  438   1.313   2.054   0.365  0.0713 -1.8206 -0.5706
   91SOL    MW4  439   1.400   2.059   0.376 -0.0664 -1.0066  0.2604
   92SOL     OW  440   0.334   3.039   0.272  0.1543  0.1156 -0.1930
   92SOL    HW2  441   0.272   3.113   0.268 -0.0486 -0.0900 -0.8458
   92SOL    HW3  442   0.419   3.081   0.289 -0.1505  0.4033  0.6554
   92SOL    MW4  443   0.337   3.055   0.273  0.0873  0.1266 -0.1672
   93SOL     OW  444   0.105   1.113   0.227 -0.1346  0.1709 -0.1892
   93SOL    HW2  445   0.032   1.163   0.265 -1.0667 -0.9797 -0.4277
   93SOL    HW3  446   0.097   1.026   0.268  1.3898  0.1736  0.1321
   93SOL    MW4  447   0.094   1.108   0.238 -0.0565  0.0194 -0.1782
   94SOL     OW  448   1.157   1.971   0.377 -0.1203  0.3236 -0.0547
   94SOL    HW2  449   1.079   2.003   0.332 -0.0325  0.3927 -0.1591
   94SOL    HW3  450   1.140   1.986   0.470 -0.8843 -1.0831  0.0516
   94SOL    MW4  451   1.145   1.977   0.383 -0.2095  0.1471 -0.0544
   95SOL     OW  452   1.102   0.231   0.337 -0.0854  0.2614  0.1178
   95SOL    HW2  453   1.069   0.203   0.422  0.3347  0.8177  0.4666
   95SOL    HW3  454   1.100   0.327   0.341  1.4202  0.2989  0.0878
   95SOL    MW4  455   1.097   0.240   0.349  0.1686  0.3398  0.1598
   96SOL     OW  456   0.810   1.111   0.285 -0.6445 -0.4307 -0.2438
   96SOL    HW2  457   0.856   1.157   0.215 -0.9550 -1.0242 -0.8344
   96SOL    HW3  458   0.783   1.180   0.345  1.0754 -0.0664  0.1534
   96SOL    MW4  459   0.812   1.126   0.284 -0.4585 -0.4610 -0.2693
   97SOL     OW  460   1.499   2.277   0.709 -0.0881  0.2835 -0.7035
   97SOL    HW2  461   1.588   2.309   0.691 -0.3827  0.5407 -1.7533
   97SOL    HW3  462   1.442   2.336   0.658 -0.7359 -1.0286 -1.5255
   97SOL    MW4  463   1.503   2.289   0.700 -0.2126  0.1442 -0.9505
   98SOL     OW  464   1.966   0.455   0.388  0.1837 -0.3143 -0.0027
   98SOL    HW2  465   1.897   0.497   0.337  1.4356 -0.8823 -2.2582
   98SOL    HW3  466   1.945   0.361   0.383 -0.4129 -0.2853  1.6741
   98SOL    MW4  467   1.954   0.448   0.381  0.2701 -0.3853 -0.0791
   99SOL     OW  468   4.026   3.028   0.415  0.4031 -0.0600  0.4901
   99SOL    HW2  469   4.067   2.965   0.474 -0.5318  0.7624  2.0483
   99SOL    HW3  470   4.099   3.065   0.365  0.9615 -2.3489 -0.4826
   99SOL    MW4  471   4.041   3.025   0.416  0.3533 -0.2534  0.5673
  100SOL     OW  472   1.317   0.664   0.304 -0.2927 -0.1426 -0.4014
  100SOL    HW2  473   1.301   0.757   0.318  1.1058  0.3963 -2.1185
  100SOL    HW3  474   1.231   0.623   0.312 -0.9672  1.3461  0.0545
  100SOL    MW4  475   1.304   0.671   0.307 -0.1971  0.1249 -0.5678
  101SOL     OW  476   4.398   3.091   0.083  0.4542 -0.3154  0.2965
  101SOL    HW2  477   4.374   3.092  -0.009  1.6352  1.5810 -0.0161
  101SOL    HW3  478   4.318   3.116   0.129 -0.5097 -2.5363 -0.0706
  101SOL    MW4  479   4.384   3.094   0.077  0.4826 -0.3583  0.2068
  102SOL     OW  480   2.867   4.588   0.787  0.0965 -0.2015 -0.0919
  102SOL    HW2  481   2.957   4.561   0.772  0.3743  1.5460 -1.6867
  102SOL    HW3  482   2.816   4.507   0.781  1.4300 -1.0539 -0.0864
  102SOL    MW4  483   2.872   4.574   0.784  0.3092 -0.0834 -0.3015
  103SOL     OW  484   2.272   2.458   0.136 -0.2037  0.2426 -0.5810
  103SOL    HW2  485   2.272   2.530   0.199 -0.6562 -1.4012  1.3813
  103SOL    HW3  486   2.185   2.462   0.095 -0.1941  0.8542 -0.5453
  103SOL    MW4  487   2.261   2.468   0.139 -0.2620  0.1063 -0.3174
  104SOL     OW  488   2.407   0.372   0.405  0.1684 -0.2071 -0.2513
  104SOL    HW2  489   2.489   0.346   0.365 -0.2507 -1.4894 -0.2889
  104SOL    HW3  490   2.349   0.297   0.392 -0.6944  0.2897  0.6756
  104SOL    MW4  491   2.410   0.359   0.398 -0.0010 -0.3107 -0.1340
  105SOL     OW  492   2.213   0.145   0.420 -0.0210 -0.3040  0.6191
  105SOL    HW2  493   2.203   0.146   0.516 -1.1852 -0.7104  0.5087
  105SOL    HW3  494   2.266   0.067   0.403 -0.0012 -0.3588  0.9158
  105SOL    MW4  495   2.219   0.135   0.431 -0.1719 -0.3649  0.6437
  106SOL     OW  496   2.812   0.569   0.267  0.0007 -0.2183 -0.1250
  106SOL    HW2  497   2.792   0.594   0.357  1.3704  2.0190 -0.4044
  106SOL    HW3  498   2.769   0.636   0.214  0.6329 -0.5506 -1.0631
  106SOL    MW4  499   2.803   0.581   0.272  0.2646  0.0331 -0.2856
  107SOL     OW  500   1.972   1.033   0.309  0.2501 -0.1148  0.4296
  107SOL    HW2  501   1.991   1.126   0.320  0.3627  0.0226 -0.9166
  107SOL    HW3  502   2.057   0.992   0.299  0.1386 -0.2428  0.0335
  107SOL    MW4  503   1.986   1.040   0.309  0.2502 -0.1136  0.1997
  108SOL     OW  504   2.518   2.943   0.341 -0.0765  0.1599  0.0973
  108SOL    HW2  505   2.432   2.986   0.345  0.1597  0.6778 -0.4235
  108SOL    HW3  506   2.580   3.014   0.328  0.0615 -0.5759 -3.5475
  108SOL    MW4  507   2.515   2.958   0.340 -0.0272  0.1309 -0.4523
  109SOL     OW  508   1.072   0.504   0.358 -0.0179 -0.3405 -0.1182
  109SOL    HW2  509   0.983   0.523   0.328 -0.4099 -1.8209  0.0709
  109SOL    HW3  510   1.065   0.507   0.454  0.3130  0.2765 -0.1080
  109SOL    MW4  511   1.059   0.507   0.367 -0.0259 -0.4544 -0.0920
  110SOL     OW  512   3.797   3.623   0.629 -0.0519  0.1372 -0.2709
  110SOL    HW2  513   3.784   3.612   0.535  1.8730  1.2185 -0.6800
  110SOL    HW3  514   3.728   3.570   0.669 -0.6358 -0.6569 -2.2815
  110SOL    MW4  515   3.786   3.614   0.622  0.1252  0.1752 -0.5902
  111SOL     OW  516   1.635   1.401   0.244  0.0589  0.1050 -0.6590
  111SOL    HW2  517   1.710   1.456   0.265  0.2750  0.0818 -1.3656
  111SOL    HW3  518   1.612   1.425   0.154 -0.4885 -0.2161 -0.6045
  111SOL    MW4  519   1.642   1.411   0.235  0.0153  0.0596 -0.7451
  112SOL     OW  520   1.108   2.039   0.656  0.4841 -0.4186  0.0891
  112SOL    HW2  521   1.180   2.002   0.707  1.9290 -0.0835 -1.6177
  112SOL    HW3  522   1.106   2.131   0.681  1.6898 -0.0851 -0.9672
  112SOL    MW4  523   1.118   2.046   0.666  0.8340 -0.3304 -0.2755
  113SOL     OW  524   2.201   2.971   0.143 -0.2700 -0.2597  0.1565
  113SOL    HW2  525   2.118   3.012   0.121  0.5111  0.5638 -1.2808
  113SOL    HW3  526   2.254   3.042   0.179 -0.0305 -0.6885  0.6545
  113SOL    MW4  527   2.197   2.986   0.145 -0.1352 -0.2079  0.0326
  114SOL     OW  528   1.853   3.277   0.643  0.2842 -0.5750 -0.7160
  114SOL    HW2  529   1.902   3.228   0.708  2.1513 -0.1832 -1.7700
  114SOL    HW3  530   1.912   3.281   0.567 -0.9444  0.8637 -1.6284
  114SOL    MW4  531   1.867   3.271   0.641  0.3685 -0.3335 -0.9754
  115SOL     OW  532   1.415   3.294   0.434  0.2992 -0.1204 -0.3019
  115SOL    HW2  533   1.437   3.236   0.507  0.1306 -1.1068 -1.0192
  115SOL    HW3  534   1.420   3.237   0.357  1.6389  1.1774 -1.2022
  115SOL    MW4  535   1.419   3.279   0.433  0.4537 -0.0792 -0.5153
  116SOL     OW  536   2.013   2.306   0.708 -0.0808 -0.2094  0.0585
  116SOL    HW2  537   1.924   2.342   0.700 -1.1794 -2.8708 -0.2655
  116SOL    HW3  538   2.028   2.300   0.802 -0.0504  0.6927  0.1140
  116SOL    MW4  539   2.003   2.310   0.719 -0.2217 -0.4413  0.0231
  117SOL     OW  540   0.798   0.621   0.343  0.1774 -0.5185 -0.3309
  117SOL    HW2  541   0.737   0.656   0.278 -0.8953 -0.3166  0.7611
  117SOL    HW3  542   0.854   0.694   0.367 -0.0793 -0.3376 -0.2875
  117SOL    MW4  543   0.797   0.635   0.337  0.0020 -0.4680 -0.1811
  118SOL     OW  544   3.750   2.796   0.665 -0.2978 -0.2853  0.0061
  118SOL    HW2  545   3.690   2.751   0.725  1.8941 -1.8960  1.0789
  118SOL    HW3  546   3.714   2.780   0.578 -0.7163 -2.3913  0.5417
  118SOL    MW4  547   3.738   2.788   0.662 -0.0637 -0.7758  0.2183
  119SOL     OW  548   3.424   2.037   0.375 -0.0040  0.1385  0.5103
  119SOL    HW2  549   3.507   1.997   0.400  1.0863  1.4263 -0.9526
  119SOL    HW3  550   3.400   1.992   0.294  0.0070  0.7671  0.1563
  119SOL    MW4  551   3.432   2.026   0.367  0.1409  0.3915  0.2706
  120SOL     OW  552   1.944   1.525   0.733  0.4028  0.0399  0.7514
  120SOL    HW2  553   1.965   1.442   0.691 -0.0128  0.5980 -0.5805
  120SOL    HW3  554   1.857   1.548   0.699 -0.1644  0.2698  2.2819
  120SOL    MW4  555   1.935   1.517   0.723  0.2732  0.1438  0.7776
  121SOL     OW  556   0.514   4.365   0.125 -0.4615 -0.0816  0.1153
  121SOL    HW2  557   0.433   4.373   0.076 -0.7727 -0.9525  0.4694
  121SOL    HW3  558   0.523   4.271   0.141  0.2599  0.0736  0.6632
  121SOL    MW4  559   0.505   4.353   0.121 -0.4074 -0.1760  0.2343
  122SOL     OW  560   2.321   2.125   0.540 -0.2726 -0.1976 -0.5806
  122SOL    HW2  561   2.257   2.171   0.485 -2.3503 -1.4617  0.6799
  122SOL    HW3  562   2.360   2.193   0.595 -1.6211  0.4170 -0.3602
  122SOL    MW4  563   2.317   2.140   0.540 -0.7246 -0.2835 -0.3852
  123SOL     OW  564   0.588   3.158   0.375 -0.0657  0.4333 -0.0239
  123SOL    HW2  565   0.643   3.225   0.336 -0.6685  0.4005 -0.9416
  123SOL    HW3  566   0.648   3.087   0.397  0.5984  1.3470  1.1242
  123SOL    MW4  567   0.603   3.157   0.373 -0.0576  0.5496  0.0065
  124SOL     OW  568   1.400   4.254   0.353  0.0493  0.1951 -0.6268
  124SOL    HW2  569   1.494   4.267   0.343  0.2432 -0.6057  0.0639
  124SOL    HW3  570   1.365   4.342   0.365  0.7314  0.4838 -0.6985
  124SOL    MW4  571   1.408   4.267   0.353  0.1650  0.1273 -0.5451
  125SOL     OW  572   1.770   3.754   0.340  0.0025  0.0385 -0.1679
  125SOL    HW2  573   1.715   3.826   0.374  0.2244  0.7168 -1.2194
  125SOL    HW3  574   1.710   3.679   0.335 -0.3634  0.2843  0.4600
  125SOL    MW4  575   1.755   3.754   0.344 -0.0165  0.1605 -0.2238
  126SOL     OW  576   0.002   0.601   0.385 -0.3895  0.1936  0.1157
  126SOL    HW2  577   0.063   0.527   0.385 -0.4073  0.1793 -0.2289
  126SOL    HW3  578  -0.075   0.569   0.339  0.4849  1.1441 -2.0882
  126SOL    MW4  579  -0.000   0.587   0.379 -0.2765  0.3171 -0.2205
  127SOL     OW  580   1.504   0.925   0.422 -0.3158 -0.4393 -0.0623
  127SOL    HW2  581   1.448   0.906   0.497 -0.5834  0.3539 -0.0601
  127SOL    HW3  582   1.483   1.015   0.398 -0.1885 -0.6647 -1.0517
  127SOL    MW4  583   1.494   0.934   0.428 -0.3343 -0.3644 -0.1925
  128SOL     OW  584   2.341   4.566   0.393  0.2234  0.3616  0.4427
  128SOL    HW2  585   2.434   4.572   0.376  0.5194  0.5219  1.9860
  128SOL    HW3  586   2.335   4.510   0.471 -1.2429 -3.3441 -2.1711
  128SOL    MW4  587   2.352   4.559   0.401  0.0691 -0.1059  0.3015
  129SOL     OW  588   2.932   4.152   0.699  0.1977 -0.2383  0.0328
  129SOL    HW2  589   2.899   4.064   0.713  0.4544 -0.4703 -0.7548
  129SOL    HW3  590   2.944   4.158   0.604 -0.5009  0.8850 -0.0034
  129SOL    MW4  591   2.929   4.141   0.688  0.1395 -0.1211 -0.0758
  130SOL     OW  592   3.555   0.293   0.197 -0.1483 -0.0108  0.0066
  130SOL    HW2  593   3.482   0.352   0.211 -0.1686 -0.1823  0.6380
  130SOL    HW3  594   3.631   0.341   0.230 -0.3960 -0.9558  1.9716
  130SOL    MW4  595   3.556   0.307   0.203 -0.1836 -0.1581  0.3492
  131SOL     OW  596   3.182   0.157   0.229  0.2604 -0.3445 -0.0625
  131SOL    HW2  597   3.240   0.231   0.243 -0.3427  0.1147  0.0275
  131SOL    HW3  598   3.239   0.080   0.234  1.2087  0.1978 -1.9505
  131SOL    MW4  599   3.197   0.156   0.232  0.3059 -0.2124 -0.2997
  132SOL     OW  600   2.341   4.266   0.568  0.0717  0.2170  0.3624
  132SOL    HW2  601   2.268   4.242   0.511 -0.0792  1.6608 -0.0901
  132SOL    HW3  602   2.301   4.323   0.634  1.0580  2.5880 -0.9992
  132SOL    MW4  603   2.326   4.271   0.569  0.1822  0.7205  0.1231
  133SOL     OW  604   3.019   1.507   0.717 -0.1216  0.2343 -0.0370
  133SOL    HW2  605   3.005   1.593   0.678 -1.3804  0.8974  1.7812
  133SOL    HW3  606   3.106   1.511   0.755  0.3652  0.2227 -1.1323
  133SOL    MW4  607   3.028   1.519   0.717 -0.2236  0.3202  0.0584
  134SOL     OW  608   3.079   1.570   0.107 -0.3821  0.2075 -0.1276
  134SOL    HW2  609   3.122   1.556   0.191 -0.3054  1.0228 -0.0278
  134SOL    HW3  610   3.011   1.503   0.103 -0.1613 -0.0472  0.4348
  134SOL    MW4  611   3.076   1.560   0.117 -0.3428  0.2815 -0.0402
  135SOL     OW  612   3.305   0.386   0.308  0.0722 -0.3030  0.5388
  135SOL    HW2  613   3.255   0.454   0.263  0.9491 -0.1162 -0.1729
  135SOL    HW3  614   3.315   0.420   0.397 -0.6304 -0.1140  0.5536
  135SOL    MW4  615   3.300   0.400   0.314  0.0954 -0.2534  0.4469
  136SOL     OW  616   0.488   3.137   0.647 -0.0260 -0.3209  0.2299
  136SOL    HW2  617   0.501   3.156   0.554  0.1145 -0.3312  0.2469
  136SOL    HW3  618   0.572   3.102   0.676 -0.4162 -1.3598  0.1085
  136SOL    MW4  619   0.501   3.135   0.638 -0.0589 -0.4594  0.2162
  137SOL     OW  620   2.471   1.246   0.346  0.3350  0.6374  0.0694
  137SOL    HW2  621   2.390   1.290   0.319  0.6494  0.8876 -0.4713
  137SOL    HW3  622   2.459   1.228   0.439 -1.0349 -0.8163 -0.3547
  137SOL    MW4  623   2.459   1.249   0.355  0.1957  0.4785 -0.0579
  138SOL     OW  624   1.118   1.464   0.390 -0.0574 -0.0819  0.2244
  138SOL    HW2  625   1.030   1.501   0.398 -0.1900  0.3673 -2.6247
  138SOL    HW3  626   1.177   1.539   0.399 -0.0358 -0.1713  0.8087
  138SOL    MW4  627   1.114   1.479   0.392 -0.0721 -0.0345 -0.0744
  139SOL     OW  628   3.262   1.856   0.185  0.1339  0.1208 -0.6868
  139SOL    HW2  629   3.297   1.774   0.220 -1.3859 -0.7464 -1.1802
  139SOL    HW3  630   3.175   1.834   0.154 -0.7229  2.1719  0.1497
  139SOL    MW4  631   3.255   1.842   0.186 -0.1795  0.2770 -0.6415
  140SOL     OW  632   2.428   3.627   0.465 -0.0108 -0.0239 -0.5243
  140SOL    HW2  633   2.414   3.719   0.442  0.9040  0.1463 -0.4198
  140SOL    HW3  634   2.451   3.629   0.558 -2.0925 -0.5616  0.0372
  140SOL    MW4  635   2.429   3.640   0.474 -0.1647 -0.0722 -0.4364
  141SOL     OW  636   2.202   0.592   0.347 -0.2438 -0.2707  0.3711
  141SOL    HW2  637   2.122   0.539   0.342  0.7640 -1.6181 -1.6042
  141SOL    HW3  638   2.273   0.530   0.338  1.0301  1.1070  0.7165
  141SOL    MW4  639   2.201   0.577   0.345  0.0570 -0.2667  0.1561
  142SOL     OW  640   2.191   2.301   0.359 -0.4270  0.4266 -0.0119
  142SOL    HW2  641   2.223   2.328   0.273 -0.8931  1.0118 -0.0044
  142SOL    HW3  642   2.189   2.382   0.411 -0.3601  0.1146  0.4762
  142SOL    MW4  643   2.195   2.315   0.355 -0.4795  0.4625  0.0534
  143SOL     OW  644   0.445   4.025   0.710 -0.2453  0.1777  0.1446
  143SOL    HW2  645   0.483   4.103   0.748  1.3092 -0.5430  0.0987
  143SOL    HW3  646   0.434   4.046   0.617  0.1704  0.3468  0.1327
  143SOL    MW4  647   0.449   4.038   0.703  0.0147  0.1044  0.1370
  144SOL     OW  648   2.468   2.516   0.529 -0.2676 -0.1321  0.6898
  144SOL    HW2  649   2.537   2.478   0.474 -0.7908  1.1732 -0.8989
  144SOL    HW3  650   2.506   2.597   0.562 -1.5461  1.4130 -1.4821
  144SOL    MW4  651   2.482   2.522   0.526 -0.5057  0.2439  0.1936
  145SOL     OW  652   1.084   3.818   0.252  0.3744 -0.2726  0.1485
  145SOL    HW2  653   1.105   3.823   0.159  2.9921 -0.4096  0.6821
  145SOL    HW3  654   1.097   3.908   0.284 -0.2897 -0.2746  0.4211
  145SOL    MW4  655   1.089   3.831   0.244  0.6322 -0.2909  0.2549
  146SOL     OW  656   1.762   2.676   0.296 -0.2033  0.4132 -0.1523
  146SOL    HW2  657   1.689   2.737   0.308  0.4504  1.3256 -0.6686
  146SOL    HW3  658   1.728   2.591   0.323 -0.7637  1.2173  1.7449
  146SOL    MW4  659   1.748   2.673   0.301 -0.1912  0.6397  0.0299
  147SOL     OW  660   2.038   3.257   0.432  0.5647 -0.4144  0.4332
  147SOL    HW2  661   2.102   3.227   0.496  0.7201 -0.2629  0.3494
  147SOL    HW3  662   2.073   3.339   0.399 -0.0511  0.0538  0.9371
  147SOL    MW4  663   2.051   3.264   0.436  0.5038 -0.3326  0.4887
  148SOL     OW  664   1.525   0.194   0.426  0.1790 -0.0492  0.1871
  148SOL    HW2  665   1.457   0.148   0.377  0.4042  0.3881 -0.5518
  148SOL    HW3  666   1.513   0.286   0.403  2.5401 -0.1908 -1.9300
  148SOL    MW4  667   1.515   0.200   0.417  0.5202 -0.0102 -0.1898
  149SOL     OW  668   1.763   0.817   0.393 -0.2313  0.1936  0.1606
  149SOL    HW2  669   1.675   0.853   0.389 -0.2759  0.1552  0.7829
  149SOL    HW3  670   1.817   0.880   0.346 -0.8212 -0.5073 -1.5156
  149SOL    MW4  671   1.759   0.830   0.386 -0.3151  0.0961  0.0215
  150SOL     OW  672   2.737   3.061   0.645 -0.0608  0.2077  0.1671
  150SOL    HW2  673   2.779   3.126   0.701  0.5805 -0.0525  0.0000
  150SOL    HW3  674   2.747   3.094   0.556  1.9294 -1.0020 -0.0900
  150SOL    MW4  675   2.744   3.074   0.641  0.2861  0.0136  0.1111
  151SOL     OW  676   3.086   4.220   0.452 -0.0047 -0.0109 -0.2253
  151SOL    HW2  677   3.179   4.199   0.445 -0.2417 -1.4107  0.7022
  151SOL    HW3  678   3.048   4.190   0.369  0.4774  1.2454 -0.9181
  151SOL    MW4  679   3.093   4.213   0.440  0.0277 -0.0300 -0.1943
  152SOL     OW  680   3.761   4.189   0.376  0.0842 -0.1298  0.1108
  152SOL    HW2  681   3.841   4.212   0.330  0.7582 -0.1451  1.2478
  152SOL    HW3  682   3.754   4.094   0.365  0.4953 -0.2002  0.4213
  152SOL    MW4  683   3.770   4.179   0.368  0.2275 -0.1411  0.3017
  153SOL     OW  684   3.115   4.497   0.457  0.0901  0.1589  0.1828
  153SOL    HW2  685   3.052   4.517   0.388 -0.6054 -0.6544  0.5775
  153SOL    HW3  686   3.095   4.408   0.483  1.9522 -0.4249 -0.2699
  153SOL    MW4  687   3.104   4.488   0.451  0.2437 -0.0253  0.1751
  154SOL     OW  688   2.934   0.210   0.365  0.4649 -0.0694 -0.1564
  154SOL    HW2  689   2.961   0.209   0.457  0.2711  1.5645 -0.0641
  154SOL    HW3  690   3.016   0.202   0.317  0.5880 -0.7290  0.1558
  154SOL    MW4  691   2.949   0.209   0.371  0.4559  0.0591 -0.1030
  155SOL     OW  692   2.961   1.718   0.387 -0.0129 -0.1073 -0.3289
  155SOL    HW2  693   2.971   1.812   0.370  0.3988 -0.4459 -2.0523
  155SOL    HW3  694   3.051   1.685   0.389 -0.0865 -0.2222  1.7733
  155SOL    MW4  695   2.974   1.726   0.385  0.0317 -0.1671 -0.2789
  156SOL     OW  696   4.172   1.892   0.295  0.3503  0.0993  0.2275
  156SOL    HW2  697   4.212   1.808   0.318  0.3079 -0.6220 -2.2204
  156SOL    HW3  698   4.234   1.932   0.234  0.3432  1.8487  1.3331
  156SOL    MW4  699   4.186   1.886   0.290  0.3438  0.2350  0.0504
  157SOL     OW  700   2.751   0.359   0.698  0.2028 -0.1923  0.1126
  157SOL    HW2  701   2.727   0.268   0.680  0.1596 -0.4740  1.5378
  157SOL    HW3  702   2.769   0.361   0.792  0.5730  1.1924  0.0241
  157SOL    MW4  703   2.751   0.347   0.708  0.2463 -0.0468  0.2890
  158SOL     OW  704   3.601   0.737   0.252 -0.0609  0.4126 -0.0062
  158SOL    HW2  705   3.553   0.762   0.173 -0.9601  0.2580  0.4740
  158SOL    HW3  706   3.667   0.805   0.264  0.3489  0.2119 -1.1176
  158SOL    MW4  707   3.603   0.749   0.243 -0.1252  0.3657 -0.0895
  159SOL     OW  708   2.442   0.777   0.755  0.2116 -0.3723 -0.1421
  159SOL    HW2  709   2.495   0.796   0.678  0.1652 -1.0695 -0.3467
  159SOL    HW3  710   2.443   0.682   0.763  1.4948 -0.2552  1.6076
  159SOL    MW4  711   2.450   0.767   0.746  0.3748 -0.4488  0.0618
  160SOL     OW  712   3.139   4.542   0.730 -0.2639  0.1311 -0.5223
  160SOL    HW2  713   3.133   4.538   0.635 -0.1344  1.4509 -0.5939
  160SOL    HW3  714   3.227   4.574   0.748 -0.3763  0.1435  0.0298
  160SOL    MW4  715   3.150   4.546   0.720 -0.2618  0.3076 -0.4589
  161SOL     OW  716   3.472   1.633   0.406  0.1093  0.3611 -0.1025
  161SOL    HW2  717   3.501   1.542   0.397  1.9710  0.9379 -0.2608
  161SOL    HW3  718   3.483   1.653   0.499  0.3729  0.6335 -0.1913
  161SOL    MW4  719   3.478   1.624   0.417  0.3898  0.4731 -0.1351
  162SOL     OW  720   3.210   1.960   0.521  0.4688 -0.0189  0.5586
  162SOL    HW2  721   3.138   1.968   0.457 -0.8931  0.2567  2.0861
  162SOL    HW3  722   3.287   1.990   0.474 -0.7504  1.4567 -0.5570
  162SOL    MW4  723   3.210   1.965   0.506  0.1280  0.2121  0.6129
  163SOL     OW  724   2.684   2.416   0.359  0.4528 -0.2136 -0.0525
  163SOL    HW2  725   2.761   2.469   0.380  1.2344 -0.8340 -1.2896
  163SOL    HW3  726   2.658   2.445   0.271 -0.6971 -0.0400  0.3417
  163SOL    MW4  727   2.690   2.427   0.350  0.4044 -0.2725 -0.1637
  164SOL     OW  728   2.673   0.324   0.323 -0.1113 -0.5215 -0.5633
  164SOL    HW2  729   2.746   0.261   0.331  1.6438  1.6592  1.4173
  164SOL    HW3  730   2.715   0.405   0.296 -1.7404  0.9306  1.1689
  164SOL    MW4  731   2.689   0.326   0.320 -0.0949 -0.0422 -0.0735
  165SOL     OW  732   4.178   3.202   0.230 -0.1288 -0.3533 -0.0463
  165SOL    HW2  733   4.119   3.276   0.221  1.0923  0.5278 -0.8979
  165SOL    HW3  734   4.215   3.210   0.318  1.6692  1.3104 -0.9280
  165SOL    MW4  735   4.175   3.213   0.240  0.2694 -0.0179 -0.2750
  166SOL     OW  736   4.002   4.193   0.722  0.4848  0.2038 -0.1093
  166SOL    HW2  737   3.912   4.180   0.693  0.8425 -0.3496 -1.0128
  166SOL    HW3  738   4.025   4.281   0.694  0.4866  0.0485 -0.5980
  166SOL    MW4  739   3.993   4.203   0.714  0.5324  0.1097 -0.2930
  167SOL     OW  740   2.847   3.896   0.732 -0.8342  0.1637  0.2005
  167SOL    HW2  741   2.753   3.912   0.727 -0.5051  2.2640  0.0190
  167SOL    HW3  742   2.864   3.887   0.826 -0.8641  2.3521  0.4443
  167SOL    MW4  743   2.837   3.897   0.744 -0.7946  0.7296  0.2087
  168SOL     OW  744   1.441   3.060   0.269  0.2862  0.0808 -0.1955
  168SOL    HW2  745   1.411   3.069   0.178  0.3039 -2.3399 -0.4590
  168SOL    HW3  746   1.390   2.987   0.304  2.3833 -0.9178  0.8540
  168SOL    MW4  747   1.430   3.052   0.262  0.5652 -0.3707 -0.0918
  169SOL     OW  748   1.183   3.462   0.502  0.0630  0.1200 -0.0967
  169SOL    HW2  749   1.253   3.399   0.484  0.3525  0.1527  0.9095
  169SOL    HW3  750   1.201   3.536   0.444  0.3150 -0.2788 -0.5285
  169SOL    MW4  751   1.195   3.463   0.492  0.1343  0.0718 -0.0209
  170SOL     OW  752   3.344   4.592   0.318  0.3228 -0.0472 -0.2913
  170SOL    HW2  753   3.274   4.563   0.376  0.8517 -0.5865  0.0827
  170SOL    HW3  754   3.398   4.514   0.305 -0.3504 -0.2215 -2.3451
  170SOL    MW4  755   3.342   4.578   0.324  0.3035 -0.1411 -0.5129
  171SOL     OW  756   2.462   3.641   0.738 -0.4222  0.1933  0.2283
  171SOL    HW2  757   2.374   3.618   0.767 -0.3921 -0.5390 -0.2374
  171SOL    HW3  758   2.512   3.559   0.744  0.2681  0.6335  0.6369
  171SOL    MW4  759   2.457   3.627   0.742 -0.3273  0.1547  0.2208
  172SOL     OW  760   3.361   3.504   0.591  0.0178  0.1707  0.1784
  172SOL    HW2  761   3.339   3.594   0.568 -0.4316  0.0212  0.0239
  172SOL    HW3  762   3.287   3.473   0.643  1.0569  0.5256  1.8931
  172SOL    MW4  763   3.348   3.512   0.595  0.0956  0.1979  0.3842
  173SOL     OW  764   3.586   3.475   0.757 -0.0485 -0.0180 -0.0398
  173SOL    HW2  765   3.619   3.390   0.726 -0.5328 -0.0662 -0.4322
  173SOL    HW3  766   3.500   3.484   0.715 -0.8927 -0.2676  1.5830
  173SOL    MW4  767   3.579   3.465   0.748 -0.2239 -0.0572  0.1225
  174SOL     OW  768   3.800   4.598   0.692 -0.1691 -0.0896  0.1729
  174SOL    HW2  769   3.720   4.549   0.673 -0.6622  0.8300 -0.1668
  174SOL    HW3  770   3.809   4.659   0.619  1.5430 -1.0487 -0.4448
  174SOL    MW4  771   3.790   4.600   0.680 -0.0083 -0.0949  0.0466
  175SOL     OW  772   2.409   3.905   0.392  0.0065 -0.3762 -0.0905
  175SOL    HW2  773   2.384   3.930   0.481  1.5599  0.7513  0.0479
  175SOL    HW3  774   2.335   3.934   0.338 -0.6958 -0.5473  0.7619
  175SOL    MW4  775   2.396   3.912   0.397  0.1187 -0.2499  0.0402
  176SOL     OW  776   3.313   0.969   0.439  0.0158  0.1852  0.4845
  176SOL    HW2  777   3.390   0.913   0.435 -0.2605 -0.1107 -0.7049
  176SOL    HW3  778   3.306   1.007   0.351 -1.6978 -0.4602  0.3394
  176SOL    MW4  779   3.322   0.967   0.427 -0.2468  0.0610  0.3085
  177SOL     OW  780   3.834   3.233   0.379 -0.1143  0.1099  0.1634
  177SOL    HW2  781   3.889   3.155   0.391 -0.1550  0.0595  0.0307
  177SOL    HW3  782   3.894   3.300   0.348  0.2562  0.6526  2.0125
  177SOL    MW4  783   3.849   3.231   0.376 -0.0708  0.1748  0.3899
  178SOL     OW  784   3.521   1.344   0.416 -0.6411  0.1119  0.1402
  178SOL    HW2  785   3.474   1.286   0.477 -1.3345 -0.9837 -1.4157
  178SOL    HW3  786   3.603   1.299   0.398 -0.3413  0.5403  0.4233
  178SOL    MW4  787   3.526   1.330   0.422 -0.6931  0.0238 -0.0277
  179SOL     OW  788   3.785   1.259   0.410  0.6621 -1.0560 -0.1227
  179SOL    HW2  789   3.824   1.340   0.375  0.5763 -1.2703 -0.7135
  179SOL    HW3  790   3.819   1.254   0.500 -1.2022  0.8852  0.7467
  179SOL    MW4  791   3.795   1.269   0.417  0.4048 -0.8280 -0.0859
  180SOL     OW  792   3.520   4.378   0.359  0.2528  0.3652 -0.2847
  180SOL    HW2  793   3.536   4.427   0.439  1.4754  0.8249 -0.7880
  180SOL    HW3  794   3.597   4.322   0.349 -0.7786 -1.1136 -0.1190
  180SOL    MW4  795   3.533   4.378   0.368  0.2782  0.2308 -0.3293
  181SOL     OW  796   2.715   1.371   0.387 -0.3058 -0.4404 -0.1341
  181SOL    HW2  797   2.726   1.449   0.332  1.3756  0.8255  1.9033
  181SOL    HW3  798   2.626   1.341   0.369 -0.3825  0.9560 -2.2174
  181SOL    MW4  799   2.705   1.377   0.377 -0.0942 -0.0893 -0.1402
  182SOL     OW  800   3.583   3.242   0.244 -0.3003  0.0760  0.6521
  182SOL    HW2  801   3.666   3.220   0.287  0.1214  1.1794  0.4196
  182SOL    HW3  802   3.534   3.160   0.243  1.8520 -1.2277 -1.5535
  182SOL    MW4  803   3.587   3.228   0.250  0.0391  0.0496  0.3304
  183SOL     OW  804   4.007   2.409   0.668  0.2855 -0.0577  0.0686
  183SOL    HW2  805   3.935   2.350   0.692 -0.2385  0.3617 -0.4758
  183SOL    HW3  806   4.021   2.394   0.575  1.3321 -0.5968  0.3022
  183SOL    MW4  807   3.999   2.399   0.659  0.3545 -0.0734  0.0277
  184SOL     OW  808   2.903   0.709   0.724  0.0519  0.1297 -0.0811
  184SOL    HW2  809   2.879   0.796   0.694  1.0826  0.8882  1.2584
  184SOL    HW3  810   2.913   0.717   0.818 -0.2105 -1.5267  0.1066
  184SOL    MW4  811   2.901   0.721   0.732  0.1531  0.0111  0.1205
  185SOL     OW  812   3.205   1.579   0.352 -0.1789  0.4118 -0.1243
  185SOL    HW2  813   3.292   1.613   0.374  0.4969 -0.7254 -0.9889
  185SOL    HW3  814   3.192   1.506   0.412 -2.2177  2.9731  2.6811
  185SOL    MW4  815   3.215   1.574   0.363 -0.3591  0.5997  0.1318
  186SOL     OW  816   3.656   2.735   0.410 -0.0483 -0.3745 -0.0668
  186SOL    HW2  817   3.575   2.785   0.403  0.9441  1.1189 -0.8796
  186SOL    HW3  818   3.629   2.644   0.395 -1.7455 -0.0285  0.7815
  186SOL    MW4  819   3.642   2.729   0.407 -0.1411 -0.1321 -0.0621
  187SOL     OW  820   3.672   1.859   0.388 -0.6223 -0.1928 -0.2004
  187SOL    HW2  821   3.611   1.786   0.401 -0.6500 -0.2073 -0.4019
  187SOL    HW3  822   3.724   1.832   0.312 -0.7996  0.1064 -0.4321
  187SOL    MW4  823   3.671   1.845   0.379 -0.6495 -0.1552 -0.2575
  188SOL     OW  824   3.047   2.761   0.369  0.3809 -0.2457  0.3737
  188SOL    HW2  825   2.977   2.703   0.398  0.6399 -0.8262 -0.1350
  188SOL    HW3  826   3.127   2.720   0.403  0.3656  1.1931  2.1948
  188SOL    MW4  827   3.049   2.748   0.377  0.4132 -0.1328  0.5468
  189SOL     OW  828   3.050   3.645   0.350 -0.2140  0.1536  0.1820
  189SOL    HW2  829   3.135   3.654   0.307 -0.9596  0.1528 -1.3268
  189SOL    HW3  830   3.058   3.696   0.430  1.4480 -0.4505  0.4051
  189SOL    MW4  831   3.062   3.653   0.355 -0.0932  0.0737  0.0123
  190SOL     OW  832   2.269   1.452   0.312 -0.1940 -0.3523 -0.0683
  190SOL    HW2  833   2.265   1.529   0.256  0.7342 -0.3483 -0.1471
  190SOL    HW3  834   2.302   1.485   0.396 -0.8920 -0.4735  0.2513
  190SOL    MW4  835   2.273   1.466   0.316 -0.1636 -0.3678 -0.0366
  191SOL     OW  836   2.227   3.460   0.749  0.0811 -0.3374  0.6027
  191SOL    HW2  837   2.173   3.519   0.697  1.0389 -0.4432 -0.5511
  191SOL    HW3  838   2.229   3.378   0.699  1.4206 -0.2822  0.5284
  191SOL    MW4  839   2.220   3.457   0.735  0.3843 -0.3440  0.4407
  192SOL     OW  840   0.858   2.514   0.448  0.4529 -0.0452  0.5953
  192SOL    HW2  841   0.776   2.562   0.444  0.3186 -0.3651 -1.1012
  192SOL    HW3  842   0.925   2.580   0.429  0.3850 -0.2185 -0.2905
  192SOL    MW4  843   0.856   2.529   0.445  0.4263 -0.1104  0.2546
  193SOL     OW  844   1.115   2.616   0.399 -0.3196  0.1744  0.1460
  193SOL    HW2  845   1.146   2.569   0.322  0.7999  1.6032 -0.2964
  193SOL    HW3  846   1.165   2.577   0.472  1.6364  1.5727 -0.3970
  193SOL    MW4  847   1.126   2.604   0.398  0.0862  0.5472  0.0160
  194SOL     OW  848   3.737   4.145   0.647 -0.1633  0.1121  0.7546
  194SOL    HW2  849   3.724   4.050   0.652  2.2612 -0.2519  0.7224
  194SOL    HW3  850   3.761   4.161   0.555  2.5055  0.2861  1.4314
  194SOL    MW4  851   3.739   4.135   0.635  0.5088  0.0868  0.8397
  195SOL     OW  852   2.410   1.599   0.501  0.1343 -0.4733  0.2708
  195SOL    HW2  853   2.329   1.642   0.528  0.4380  1.0625 -1.1467
  195SOL    HW3  854   2.457   1.583   0.583 -0.0104  1.9134  0.8788
  195SOL    MW4  855   2.406   1.603   0.515  0.1552  0.0442  0.1639
  196SOL     OW  856   2.450   0.983   0.274  0.0702 -0.0710  0.1159
  196SOL    HW2  857   2.450   1.077   0.293 -2.2544 -0.0963  0.3551
  196SOL    HW3  858   2.365   0.952   0.305  0.6608 -2.1923 -0.3128
  196SOL    MW4  859   2.439   0.991   0.280 -0.1583 -0.3542  0.0908
  197SOL     OW  860   3.468   0.893   0.066 -0.0604  0.7349 -0.0669
  197SOL    HW2  861   3.395   0.942   0.106  0.5560  0.6685  1.1602
  197SOL    HW3  862   3.538   0.957   0.058  0.8082  0.0237  1.7066
  197SOL    MW4  863   3.467   0.908   0.070  0.1357  0.6323  0.3289
  198SOL     OW  864   1.957   4.101   0.614 -0.1167 -0.1815 -0.0567
  198SOL    HW2  865   2.006   4.153   0.549 -0.1042 -0.7060 -0.4682
  198SOL    HW3  866   1.911   4.166   0.667 -0.5175  0.2271 -0.9069
  198SOL    MW4  867   1.957   4.117   0.613 -0.1680 -0.1965 -0.2232
  199SOL     OW  868   4.431   0.116   0.704  0.1437 -0.0731  0.0285
  199SOL    HW2  869   4.368   0.047   0.724 -1.4842  0.8457 -1.7451
  199SOL    HW3  870   4.444   0.111   0.610  1.3838  0.8831  0.1329
  199SOL    MW4  871   4.424   0.106   0.694  0.0925  0.1743 -0.1918
  200SOL     OW  872   0.426   0.342   0.305  0.2048 -0.0105 -0.0901
  200SOL    HW2  873   0.439   0.402   0.232  0.9037 -0.8191 -0.6323
  200SOL    HW3  874   0.501   0.359   0.363 -0.1776  0.4020  0.2932
  200SOL    MW4  875   0.438   0.353   0.303  0.2465 -0.0627 -0.1110
  201SOL     OW  876   4.029   0.857   0.362  0.4045  0.0809 -0.3782
  201SOL    HW2  877   4.034   0.846   0.456  0.5744 -2.2368 -0.6402
  201SOL    HW3  878   4.107   0.909   0.340 -0.1498  1.4621  0.8426
  201SOL    MW4  879   4.040   0.862   0.371  0.3538 -0.0426 -0.2517
  202SOL     OW  880   3.104   0.758   0.447  0.1603 -0.0900  0.2398
  202SOL    HW2  881   3.172   0.825   0.453  0.6182 -0.3914 -1.2315
  202SOL    HW3  882   3.029   0.804   0.410  0.7546 -0.5400 -1.6165
  202SOL    MW4  883   3.103   0.773   0.443  0.2990 -0.1892 -0.1993
  203SOL     OW  884   3.561   0.108   0.382 -0.1757  0.1264 -0.5637
  203SOL    HW2  885   3.488   0.056   0.350 -1.6576  1.4307  0.6182
  203SOL    HW3  886   3.565   0.183   0.322 -0.4553  0.5765 -0.0206
  203SOL    MW4  887   3.552   0.111   0.370 -0.4082  0.3579 -0.3361
  204SOL     OW  888   4.314   0.541   0.584 -0.1219 -0.2619  0.1177
  204SOL    HW2  889   4.388   0.569   0.530  0.6257 -0.5013  0.9997
  204SOL    HW3  890   4.353   0.480   0.647 -1.1490 -0.7130  0.3221
  204SOL    MW4  891   4.329   0.536   0.585 -0.1588 -0.3530  0.2611
  205SOL     OW  892   3.130   0.753   9.990  0.1629  0.1475  0.0269
  205SOL    HW2  893   3.134   0.681  10.054  1.1509 -0.5269 -0.7788
  205SOL    HW3  894   3.172   0.717   9.912 -4.0846 -0.2536 -2.2059
  205SOL    MW4  895   3.136   0.739   9.988 -0.2675  0.0056 -0.3740
  206SOL     OW  896   0.469   1.430   0.324 -0.2729 -0.1032 -0.0902
  206SOL    HW2  897   0.417   1.498   0.366 -0.1903  0.2157 -0.4971
  206SOL    HW3  898   0.493   1.468   0.239 -0.0569 -0.5608 -0.2325
  206SOL    MW4  899   0.465   1.444   0.318 -0.2335 -0.1215 -0.1626
  207SOL     OW  900   0.758   2.932   0.440 -0.0944  0.1403  0.3758
  207SOL    HW2  901   0.697   2.858   0.435 -0.6127  0.6270 -0.8116
  207SOL    HW3  902   0.752   2.962   0.531 -0.7715 -0.5321  0.5592
  207SOL    MW4  903   0.749   2.927   0.451 -0.2521  0.1154  0.2433
  208SOL     OW  904   3.334   1.352   0.187 -0.1723  0.1385 -0.1023
  208SOL    HW2  905   3.390   1.380   0.260 -0.3142 -0.0130  0.0656
  208SOL    HW3  906   3.296   1.432   0.153 -0.7436  0.1243  0.5092
  208SOL    MW4  907   3.337   1.366   0.192 -0.2668  0.1167  0.0005
  209SOL     OW  908   3.248   2.600   0.469  0.1870 -0.0829  0.1901
  209SOL    HW2  909   3.291   2.520   0.440  0.9097 -0.2878  1.7664
  209SOL    HW3  910   3.312   2.670   0.451 -0.5111  0.1812 -1.3447
  209SOL    MW4  911   3.263   2.599   0.463  0.1900 -0.0749  0.1956
  210SOL     OW  912   2.463   3.141   0.761  0.2269  0.1184  0.0728
  210SOL    HW2  913   2.459   3.120   0.855 -0.1532 -1.2617 -0.2473
  210SOL    HW3  914   2.535   3.089   0.727  0.3659  0.6184 -0.4099
  210SOL    MW4  915   2.472   3.131   0.769  0.1953  0.0024 -0.0331
  211SOL     OW  916   2.766   2.153   0.382  0.2056  0.6475 -0.3847
  211SOL    HW2  917   2.685   2.120   0.419  1.1918  0.9364  2.0874
  211SOL    HW3  918   2.749   2.246   0.366  0.0940  0.7283  0.2133
  211SOL    MW4  919   2.753   2.161   0.385  0.3211  0.6962  0.0204
  212SOL     OW  920   2.643   3.533   0.311  0.3478  0.1275  0.0779
  212SOL    HW2  921   2.576   3.584   0.355 -1.9478 -0.9926 -2.0005
  212SOL    HW3  922   2.710   3.597   0.287 -1.6542  1.9160 -0.9285
  212SOL    MW4  923   2.643   3.548   0.314 -0.2193  0.2158 -0.3291
  213SOL     OW  924   1.972   4.634   0.417 -0.3778 -0.8647 -0.1164
  213SOL    HW2  925   1.919   4.714   0.415  0.0384 -0.5270  1.3470
  213SOL    HW3  926   2.061   4.664   0.397 -0.3476 -1.0823 -0.3152
  213SOL    MW4  927   1.977   4.649   0.414 -0.3188 -0.8483  0.0505
  214SOL     OW  928   2.765   3.403   0.506  0.1304  0.5018  0.3118
  214SOL    HW2  929   2.859   3.415   0.494  0.2267 -0.1610  0.4070
  214SOL    HW3  930   2.726   3.447   0.431  0.5327  0.4044  0.0429
  214SOL    MW4  931   2.772   3.410   0.495  0.1962  0.4017  0.2888
  215SOL     OW  932   3.776   2.280   0.745 -0.0380 -0.3867  0.0799
  215SOL    HW2  933   3.784   2.280   0.841  0.2845 -0.5281  0.0520
  215SOL    HW3  934   3.795   2.191   0.719  1.0602 -0.0733 -0.2132
  215SOL    MW4  935   3.780   2.268   0.754  0.1493 -0.3638  0.0376
  216SOL     OW  936   0.525   3.518   0.496  0.0819  0.2364 -0.0764
  216SOL    HW2  937   0.571   3.547   0.575  2.3971  0.0560 -1.3360
  216SOL    HW3  938   0.489   3.599   0.459  0.2775  0.5237  0.3479
  216SOL    MW4  939   0.526   3.533   0.502  0.4132  0.2503 -0.1866
  217SOL     OW  940   4.190   3.972   0.714  0.4456 -0.2751 -0.0914
  217SOL    HW2  941   4.195   3.942   0.805  1.0830  0.9943  0.3027
  217SOL    HW3  942   4.112   4.028   0.712 -0.4738 -1.5377 -0.7160
  217SOL    MW4  943   4.180   3.975   0.726  0.4086 -0.2742 -0.1218
  218SOL     OW  944   1.718   3.041   0.610 -0.3930  0.0638 -0.2722
  218SOL    HW2  945   1.765   2.969   0.653 -2.6594 -1.2394  0.1304
  218SOL    HW3  946   1.776   3.116   0.618  1.6240 -1.4912  0.1617
  218SOL    MW4  947   1.732   3.041   0.617 -0.4261 -0.3135 -0.1618
  219SOL     OW  948   1.868   1.999   0.329 -0.4179 -0.3598 -0.3722
  219SOL    HW2  949   1.920   1.920   0.315 -0.1096 -0.2565  0.2043
  219SOL    HW3  950   1.778   1.972   0.309 -0.2653 -0.7625 -0.5167
  219SOL    MW4  951   1.863   1.985   0.324 -0.3572 -0.3994 -0.3152
  220SOL     OW  952   4.232   3.888   0.434 -0.5627 -0.0860 -0.7437
  220SOL    HW2  953   4.221   3.793   0.437  1.4486 -0.3538 -1.0870
  220SOL    HW3  954   4.204   3.918   0.520 -0.5355 -1.0764 -0.3742
  220SOL    MW4  955   4.227   3.879   0.445 -0.2937 -0.2518 -0.7403
  221SOL     OW  956   3.111   0.163   0.637 -0.2946 -0.2247 -0.0698
  221SOL    HW2  957   3.134   0.093   0.699 -2.2913 -0.3164  0.5963
  221SOL    HW3  958   3.195   0.205   0.618  0.2760  0.4532  3.4818
  221SOL    MW4  959   3.125   0.159   0.643 -0.4826 -0.1473  0.4867
  222SOL     OW  960   2.908   0.962   0.031  0.4089 -0.1124  0.5844
  222SOL    HW2  961   2.878   1.011  -0.045  1.4209  0.5246  0.5871
  222SOL    HW3  962   2.977   0.906  -0.002  0.8466  0.1597  1.0261
  222SOL    MW4  963   2.913   0.961   0.017  0.6003  0.0076  0.6428
  223SOL     OW  964   4.338   1.634   0.345  0.1940  0.3356  0.1716
  223SOL    HW2  965   4.423   1.641   0.300  0.1723 -1.1314 -0.1100
  223SOL    HW3  966   4.360   1.615   0.436  0.1537 -0.8478 -0.0638
  223SOL    MW4  967   4.352   1.633   0.351  0.1855 -0.0141  0.1034
  224SOL     OW  968   0.339   4.112   0.451 -0.0319  0.4969  0.2308
  224SOL    HW2  969   0.391   4.073   0.381 -1.2610  0.2514 -0.5576
  224SOL    HW3  970   0.331   4.204   0.427  0.8508  0.7442  0.8574
  224SOL    MW4  971   0.345   4.119   0.439 -0.0776  0.4969  0.2094
  225SOL     OW  972   0.394   3.742   0.395  0.4267  0.2015  0.5050
  225SOL    HW2  973   0.338   3.719   0.320 -0.4286  0.2036  1.1311
  225SOL    HW3  974   0.336   3.790   0.454  1.2847  0.8281  0.8439
  225SOL    MW4  975   0.379   3.745   0.393  0.4271  0.2844  0.6323
  226SOL     OW  976   2.695   0.836   0.211 -0.0561  0.2066  0.1556
  226SOL    HW2  977   2.607   0.872   0.224  0.1856  0.4182  1.1805
  226SOL    HW3  978   2.732   0.888   0.140 -0.2453  1.0140  0.6547
  226SOL    MW4  979   2.688   0.847   0.203 -0.0496  0.3409  0.3567
  227SOL     OW  980   0.078   0.877   0.390 -0.1129  0.3130  0.3050
  227SOL    HW2  981   0.070   0.782   0.389  0.2409  0.2647  1.2458
  227SOL    HW3  982   0.172   0.893   0.396 -0.2181  0.7064  0.9357
  227SOL    MW4  983   0.089   0.867   0.391 -0.0801  0.3586  0.5124
  228SOL     OW  984   3.970   3.966   0.263 -0.0594  0.0067  0.5862
  228SOL    HW2  985   3.972   4.059   0.239  0.9457 -0.0330  0.5025
  228SOL    HW3  986   4.062   3.944   0.280 -0.2633 -1.0434  0.3323
  228SOL    MW4  987   3.982   3.976   0.262  0.0465 -0.1371  0.5417
  229SOL     OW  988   4.205   2.018   0.646 -0.3827  0.2601  0.2109
  229SOL    HW2  989   4.192   2.086   0.712 -2.3445 -0.7738  0.9432
  229SOL    HW3  990   4.209   2.065   0.563 -1.4987  1.2905  0.7253
  229SOL    MW4  991   4.204   2.033   0.644 -0.7892  0.2594  0.3753
  230SOL     OW  992   0.005   2.475   0.430  0.0326  0.0558  0.1271
  230SOL    HW2  993  -0.029   2.445   0.514  0.6856  1.1558  0.7971
  230SOL    HW3  994  -0.032   2.414   0.366 -1.2716 -0.1895  1.0941
  230SOL    MW4  995  -0.005   2.463   0.433 -0.0534  0.1686  0.3431
  231SOL     OW  996   3.635   2.443   0.392  0.0006 -0.1063 -0.6864
  231SOL    HW2  997   3.616   2.450   0.486 -1.2252 -0.5599 -0.8885
  231SOL    HW3  998   3.563   2.389   0.358  0.3178  0.2541 -1.9253
  231SOL    MW4  999   3.623   2.437   0.400 -0.1192 -0.1187 -0.8765
  232SOL     OW 1000   0.048   1.136   0.757  0.2027  0.2604  0.0461
  232SOL    HW2 1001   0.041   1.041   0.742  0.2735  0.4949 -1.5108
  232SOL    HW3 1002   0.034   1.146   0.852  0.5593 -1.3355  0.2786
  232SOL    MW4 1003   0.045   1.125   0.768  0.2591  0.0808 -0.1286
  233SOL     OW 1004   0.293   2.483   0.447 -0.3012 -0.0458 -0.1517
  233SOL    HW2 1005   0.198   2.476   0.434 -0.6983  2.0208  1.4338
  233SOL    HW3 1006   0.319   2.559   0.394  0.0487  0.9368  1.4153
  233SOL    MW4 1007   0.284   2.492   0.438 -0.3075  0.3564  0.2643
  234SOL     OW 1008   3.485   3.478   0.319 -0.4064  0.2532  0.3241
  234SOL    HW2 1009   3.497   3.388   0.288 -0.6398  0.2018  0.3772
  234SOL    HW3 1010   3.456   3.469   0.409 -1.7742  0.3346 -0.0931
  234SOL    MW4 1011   3.482   3.465   0.327 -0.6175  0.2573  0.2761
  235SOL     OW 1012   4.300   2.680   0.379 -0.1142 -0.2995  0.0397
  235SOL    HW2 1013   4.235   2.630   0.329  0.9439 -0.1688 -1.5206
  235SOL    HW3 1014   4.373   2.619   0.392  0.0457 -0.0069  0.5046
  235SOL    MW4 1015   4.301   2.665   0.374  0.0467 -0.2439 -0.1049
  236SOL     OW 1016   3.380   2.843   0.406  0.2323 -0.1682  0.1443
  236SOL    HW2 1017   3.395   2.882   0.320 -1.9312  0.1705 -0.1008
  236SOL    HW3 1018   3.383   2.917   0.467  2.1603 -0.4574  0.4472
  236SOL    MW4 1019   3.382   2.858   0.402  0.2012 -0.1616  0.1519
  237SOL     OW 1020   4.285   3.212   0.479  0.3309 -0.5227 -0.7894
  237SOL    HW2 1021   4.210   3.193   0.534 -0.3714  0.4103 -1.4167
  237SOL    HW3 1022   4.313   3.300   0.505  1.2921 -0.9098 -0.4719
  237SOL    MW4 1023   4.279   3.221   0.490  0.3653 -0.4506 -0.8303
  238SOL     OW 1024   0.610   0.848   0.219  0.0503 -0.3898  0.1991
  238SOL    HW2 1025   0.655   0.916   0.170 -0.3351  0.4979  1.0717
  238SOL    HW3 1026   0.535   0.892   0.260 -0.2762 -1.3530  0.6626
  238SOL    MW4 1027   0.606   0.863   0.218 -0.0436 -0.3998  0.3754
  239SOL     OW 1028   0.168   3.991   0.763  0.0019 -0.1576 -0.0983
  239SOL    HW2 1029   0.154   3.968   0.855 -0.7067  1.4670  0.2237
  239SOL    HW3 1030   0.261   4.013   0.758 -0.1691  0.7078  0.4584
  239SOL    MW4 1031   0.178   3.991   0.775 -0.1141  0.1709  0.0176
  240SOL     OW 1032   0.180   3.832   0.533 -0.2460 -0.4384 -0.1394
  240SOL    HW2 1033   0.171   3.904   0.595 -1.2130  1.0626 -1.9834
  240SOL    HW3 1034   0.104   3.838   0.476  0.5727 -1.8291 -1.4433
  240SOL    MW4 1035   0.169   3.842   0.534 -0.2656 -0.4239 -0.5547
  241SOL     OW 1036   3.145   3.406   0.740  0.0305  0.3898 -0.3365
  241SOL    HW2 1037   3.128   3.421   0.833  0.0877  0.9793 -0.4175
  241SOL    HW3 1038   3.093   3.329   0.718 -0.2567  0.4583  0.1004
  241SOL    MW4 1039   3.136   3.398   0.750  0.0000  0.4764 -0.2896
  242SOL     OW 1040   0.158   2.902   0.459  0.0591  0.1985  0.4802
  242SOL    HW2 1041   0.205   2.914   0.541  0.9677  1.7276 -0.2399
  242SOL    HW3 1042   0.204   2.957   0.396 -0.5249 -1.0733 -1.1069
  242SOL    MW4 1043   0.170   2.911   0.462  0.1020  0.2322  0.1758
  243SOL     OW 1044   0.193   3.712   0.159 -0.2435  0.1954  0.0558
  243SOL    HW2 1045   0.209   3.710   0.065  0.3735  1.2468  0.1301
  243SOL    HW3 1046   0.140   3.791   0.173  0.8019  0.7964  0.7448
  243SOL    MW4 1047   0.188   3.723   0.149 -0.0241  0.4134  0.1565
  244SOL     OW 1048   0.808   3.998   0.639 -0.0806 -0.0833 -0.1779
  244SOL    HW2 1049   0.765   3.977   0.556  0.7055 -1.3442 -0.2752
  244SOL    HW3 1050   0.761   3.946   0.705 -1.7882  2.1728  0.4444
  244SOL    MW4 1051   0.796   3.989   0.637 -0.2022  0.0479 -0.1087
  245SOL     OW 1052   3.284   1.058   0.172 -0.0444 -0.8929 -0.3189
  245SOL    HW2 1053   3.203   1.051   0.122  0.5406 -0.9618 -1.2622
  245SOL    HW3 1054   3.312   1.149   0.161 -0.0509 -0.8363  0.1045
  245SOL    MW4 1055   3.277   1.070   0.164  0.0319 -0.8945 -0.3875
  246SOL     OW 1056   4.001   3.440   0.294  0.2712 -0.0707 -0.3179
  246SOL    HW2 1057   3.928   3.496   0.267  0.9635  0.6019 -0.8000
  246SOL    HW3 1058   4.065   3.500   0.331  1.1647 -0.4972 -1.1495
  246SOL    MW4 1059   4.000   3.455   0.295  0.4807 -0.0379 -0.4913
  247SOL     OW 1060   3.810   0.121   0.485 -0.5828  0.4792  0.1730
  247SOL    HW2 1061   3.727   0.106   0.441 -0.2530  0.9078 -0.6202
  247SOL    HW3 1062   3.876   0.091   0.422 -0.0960  1.3281  0.2714
  247SOL    MW4 1063   3.808   0.115   0.471 -0.4747  0.6478  0.0813
  248SOL     OW 1064   4.091   0.433   0.481 -0.0303 -0.1245  0.3489
  248SOL    HW2 1065   4.060   0.470   0.399 -1.8253 -0.4968  0.8309
  248SOL    HW3 1066   4.169   0.484   0.503  0.2301  0.2422 -1.3606
  248SOL    MW4 1067   4.097   0.444   0.473 -0.2332 -0.1253  0.1870
  249SOL     OW 1068   4.130   4.452   0.357 -0.0631  0.1354 -0.0196
  249SOL    HW2 1069   4.224   4.451   0.335  0.2063  2.3514  0.8717
  249SOL    HW3 1070   4.127   4.438   0.451 -0.6519 -0.3325 -0.1089
  249SOL    MW4 1071   4.142   4.450   0.366 -0.1054  0.3657  0.0862
  250SOL     OW 1072   1.215   1.186   0.323  0.0472 -0.2909  0.2083
  250SOL    HW2 1073   1.178   1.274   0.327 -1.0067 -0.7520  0.7526
  250SOL    HW3 1074   1.310   1.200   0.321 -0.1315  0.9202 -1.7302
  250SOL    MW4 1075   1.223   1.199   0.323 -0.1155 -0.1919  0.0243
  251SOL     OW 1076   0.208   0.701   0.751 -0.4165  0.0565 -0.5222
  251SOL    HW2 1077   0.204   0.606   0.738  1.2962 -0.1506  0.2863
  251SOL    HW3 1078   0.226   0.712   0.844  0.8097  1.1288 -0.8676
  251SOL    MW4 1079   0.210   0.690   0.761 -0.0288  0.1706 -0.4611
  252SOL     OW 1080   4.033   0.867   0.646  0.0041  0.3805  0.0189
  252SOL    HW2 1081   4.116   0.836   0.682 -0.1270 -0.2723 -0.2170
  252SOL    HW3 1082   4.032   0.961   0.663  0.4775  0.2756  0.6447
  252SOL    MW4 1083   4.044   0.875   0.653  0.0496  0.2806  0.0703
  253SOL     OW 1084   0.687   0.384   0.408 -0.2146  0.0264 -0.5765
  253SOL    HW2 1085   0.736   0.466   0.404  1.6580 -0.8649  2.1372
  253SOL    HW3 1086   0.745   0.319   0.369 -0.7233 -0.4202 -0.6019
  253SOL    MW4 1087   0.701   0.386   0.402 -0.0347 -0.1501 -0.2218
  254SOL     OW 1088   0.237   1.295   0.646 -0.0589 -0.2222  0.0507
  254SOL    HW2 1089   0.169   1.231   0.667  0.1262 -0.3310  0.3274
  254SOL    HW3 1090   0.261   1.276   0.556  1.4099 -1.8640  0.7500
  254SOL    MW4 1091   0.232   1.284   0.637  0.1593 -0.4534  0.1795
  255SOL     OW 1092   4.366   1.215   0.366  0.3920 -0.0817  1.1401
  255SOL    HW2 1093   4.330   1.227   0.454 -2.1491 -1.6014  0.3739
  255SOL    HW3 1094   4.342   1.125   0.343  0.9835  0.3161 -1.1113
  255SOL    MW4 1095   4.358   1.204   0.375  0.1345 -0.2298  0.7420
  256SOL     OW 1096   4.391   1.639   0.620 -0.1047 -0.5129 -0.0503
  256SOL    HW2 1097   4.320   1.588   0.660  0.2178 -1.8377 -1.1255
  256SOL    HW3 1098   4.471   1.598   0.655  0.1527 -0.6354 -0.7861
  256SOL    MW4 1099   4.392   1.627   0.630 -0.0281 -0.7038 -0.2893
  257SOL     OW 1100   4.416   1.882   0.770 -0.4213 -0.4200  0.0733
  257SOL    HW2 1101   4.345   1.933   0.730 -0.7242 -1.3589 -0.6004
  257SOL    HW3 1102   4.402   1.793   0.739 -0.4081 -1.1008  1.9631
  257SOL    MW4 1103   4.404   1.877   0.760 -0.4587 -0.6337  0.2338
  258SOL     OW 1104   0.149   2.028   0.686  0.4333 -0.4014 -0.1483
  258SOL    HW2 1105   0.144   2.111   0.734 -1.8275  1.4387 -3.3581
  258SOL    HW3 1106   0.068   1.983   0.708 -0.3791  0.2286 -1.7622
  258SOL    MW4 1107   0.137   2.033   0.695  0.0279 -0.0758 -0.7848
  259SOL     OW 1108   0.158   2.267   0.806  0.2704  0.3990 -0.2427
  259SOL    HW2 1109   0.165   2.305   0.893 -0.2356  0.0994 -0.0715
  259SOL    HW3 1110   0.239   2.293   0.762  0.5693  0.4644  0.3486
  259SOL    MW4 1111   0.170   2.276   0.812  0.2431  0.3681 -0.1422
  260SOL     OW 1112   3.228   3.187   0.344 -0.5215  0.4145  0.4250
  260SOL    HW2 1113   3.163   3.249   0.381 -1.1258  0.4272 -0.6445
  260SOL    HW3 1114   3.282   3.162   0.419 -0.6660  1.7629  0.9980
  260SOL    MW4 1115   3.226   3.192   0.359 -0.6204  0.5941  0.3594
  261SOL     OW 1116   4.376   2.953   0.681 -0.0327 -0.2566  0.5113
  261SOL    HW2 1117   4.289   2.924   0.652  0.1274  0.5155 -0.7580
  261SOL    HW3 1118   4.358   3.024   0.742 -0.2781  0.2368 -0.1376
  261SOL    MW4 1119   4.362   2.958   0.685 -0.0443 -0.0894  0.2583
  262SOL     OW 1120   3.981   2.668   0.746  0.4009  0.0921  0.0041
  262SOL    HW2 1121   3.990   2.578   0.713  0.5524 -0.0976  0.5581
  262SOL    HW3 1122   3.889   2.689   0.732  0.4341 -0.0419 -0.4103
  262SOL    MW4 1123   3.970   2.659   0.740  0.4251  0.0496  0.0225
  263SOL     OW 1124   4.477   3.278   0.899 -0.0874  0.5405 -0.3176
  263SOL    HW2 1125   4.532   3.233   0.963 -2.3507  0.1931  1.4831
  263SOL    HW3 1126   4.398   3.224   0.894 -0.7199  1.5872 -2.0277
  263SOL    MW4 1127   4.474   3.265   0.907 -0.4692  0.6328 -0.3057
  264SOL     OW 1128   0.593   2.693   0.448  0.4314  0.2441 -0.3711
  264SOL    HW2 1129   0.514   2.693   0.395  1.7022  2.3070 -2.3761
  264SOL    HW3 1130   0.563   2.680   0.538 -1.7544 -3.6584 -1.5430
  264SOL    MW4 1131   0.579   2.691   0.453  0.3107  0.0014 -0.7903
  265SOL     OW 1132   0.009   3.867   0.308 -0.0523  0.2940  0.3055
  265SOL    HW2 1133  -0.082   3.866   0.338  0.1873  1.5142  1.1506
  265SOL    HW3 1134   0.040   3.956   0.329  1.0490  0.1958 -0.8301
  265SOL    MW4 1135   0.001   3.879   0.315  0.1245  0.4420  0.2672
  266SOL     OW 1136   3.441   3.893   0.355  0.0900  0.2307 -0.0608
  266SOL    HW2 1137   3.405   3.981   0.366  0.8714  0.6999 -1.1688
  266SOL    HW3 1138   3.535   3.903   0.372  0.0712 -0.5365  0.5227
  266SOL    MW4 1139   3.449   3.906   0.359  0.1907  0.1910 -0.1300
  267SOL     OW 1140   4.461   0.145   0.418 -0.1147  0.2212  0.0908
  267SOL    HW2 1141   4.387   0.178   0.367  0.8059  0.6360 -0.9969
  267SOL    HW3 1142   4.527   0.213   0.409  0.9417 -0.8387 -0.1776
  267SOL    MW4 1143   4.460   0.159   0.410  0.1459  0.1361 -0.0881
  268SOL     OW 1144   2.914   4.019   0.289 -0.0704 -0.1850  0.0980
  268SOL    HW2 1145   2.873   3.963   0.224 -0.4616  0.5809 -0.3298
  268SOL    HW3 1146   2.841   4.050   0.344  0.2254 -0.6302  0.7513
  268SOL    MW4 1147   2.899   4.016   0.288 -0.0832 -0.1431  0.1278
  269SOL     OW 1148   4.293   0.758   0.744 -0.2376 -0.0921 -0.0040
  269SOL    HW2 1149   4.289   0.688   0.679 -0.2662  0.4318 -0.5764
  269SOL    HW3 1150   4.367   0.812   0.717 -1.3661  1.1643 -0.6692
  269SOL    MW4 1151   4.302   0.756   0.732 -0.3905  0.1428 -0.1673
  270SOL     OW 1152   4.447   4.379   0.755 -0.5131 -0.2850 -0.1628
  270SOL    HW2 1153   4.465   4.346   0.843 -1.1189  1.1030  0.5078
  270SOL    HW3 1154   4.423   4.302   0.704 -1.6108 -0.9153  1.2776
  270SOL    MW4 1155   4.446   4.365   0.760 -0.7377 -0.1850  0.1157
  271SOL     OW 1156   0.596   4.578   0.754 -0.3943  0.1635  0.2515
  271SOL    HW2 1157   0.621   4.611   0.840  2.5861 -1.6186  0.1402
  271SOL    HW3 1158   0.581   4.484   0.768 -2.0496  0.2407 -0.7807
  271SOL    MW4 1159   0.597   4.570   0.767 -0.2195 -0.0610  0.1006
  272SOL     OW 1160   0.356   0.940   0.371  0.1069 -0.1917 -0.0473
  272SOL    HW2 1161   0.381   0.904   0.456  1.0989 -0.4490 -0.4451
  272SOL    HW3 1162   0.354   1.035   0.385  0.5547 -0.2141  0.1867
  272SOL    MW4 1163   0.359   0.948   0.384  0.2969 -0.2285 -0.0689
  273SOL     OW 1164   0.652   0.406   0.683 -0.1921 -0.0578  0.2426
  273SOL    HW2 1165   0.733   0.364   0.714 -1.8511 -1.7998  2.3166
  273SOL    HW3 1166   0.656   0.396   0.587  1.3792 -1.3765  0.4123
  273SOL    MW4 1167   0.663   0.399   0.674 -0.2036 -0.4616  0.5386
  274SOL     OW 1168   0.775   4.625   0.535  0.5337  0.5127 -0.0979
  274SOL    HW2 1169   0.734   4.620   0.621  0.0468  0.3285 -0.3395
  274SOL    HW3 1170   0.706   4.599   0.474  0.6717  1.2825 -0.5961
  274SOL    MW4 1171   0.761   4.621   0.538  0.4877  0.5898 -0.1954
  275SOL     OW 1172   0.647   0.699   0.731 -0.0354  0.0082  0.4567
  275SOL    HW2 1173   0.721   0.749   0.697 -0.1825 -0.6993 -0.9229
  275SOL    HW3 1174   0.668   0.608   0.714  0.1987 -0.4398  2.9212
  275SOL    MW4 1175   0.659   0.694   0.724 -0.0240 -0.1443  0.5999
  276SOL     OW 1176   0.431   0.853   0.643 -0.1999 -0.4364 -0.3668
  276SOL    HW2 1177   0.510   0.804   0.668 -1.1381 -1.0323  1.5345
  276SOL    HW3 1178   0.361   0.812   0.693 -1.4857  1.0225 -0.9430
  276SOL    MW4 1179   0.432   0.841   0.653 -0.4933 -0.3226 -0.1920
  277SOL     OW 1180   0.628   1.527   0.755  0.0314  0.0673 -0.2480
  277SOL    HW2 1181   0.643   1.534   0.849 -0.9541 -0.1691 -0.0711
  277SOL    HW3 1182   0.541   1.563   0.741 -0.2482 -0.8432 -0.9326
  277SOL    MW4 1183   0.619   1.533   0.765 -0.1355 -0.0840 -0.3151
  278SOL     OW 1184   0.952   3.290   0.524  0.2526 -0.1652  0.0401
  278SOL    HW2 1185   0.877   3.338   0.488  0.3265  0.1118  0.2595
  278SOL    HW3 1186   1.028   3.345   0.504  0.6587 -1.4219 -2.0446
  278SOL    MW4 1187   0.952   3.304   0.516  0.3160 -0.2947 -0.2059
  279SOL     OW 1188   2.263   1.682   0.166 -0.5153  0.1859  0.1045
  279SOL    HW2 1189   2.279   1.668   0.072 -1.1997  2.3617 -0.3902
  279SOL    HW3 1190   2.344   1.721   0.198 -0.4603 -0.0842  0.2850
  279SOL    MW4 1191   2.275   1.685   0.158 -0.5980  0.4374  0.0631
  280SOL     OW 1192   0.143   1.544   0.737 -0.5347 -0.1732  0.0388
  280SOL    HW2 1193   0.221   1.597   0.720 -0.0483 -0.7911  0.3478
  280SOL    HW3 1194   0.168   1.456   0.710 -1.1799 -0.3453 -0.0046
  280SOL    MW4 1195   0.156   1.539   0.731 -0.5556 -0.2775  0.0739
  281SOL     OW 1196   0.392   1.928   0.745  0.2377 -0.3770 -0.4036
  281SOL    HW2 1197   0.408   1.957   0.835  0.1061  0.5980 -0.6901
  281SOL    HW3 1198   0.305   1.963   0.724  0.4016 -0.3401 -1.0171
  281SOL    MW4 1199   0.383   1.937   0.754  0.2419 -0.2434 -0.5223
  282SOL     OW 1200   0.491   2.088   0.542 -0.1686  0.0383  0.3438
  282SOL    HW2 1201   0.467   2.029   0.614 -0.6501 -0.4708 -0.2256
  282SOL    HW3 1202   0.585   2.076   0.532 -0.1807 -0.2600  0.5723
  282SOL    MW4 1203   0.500   2.079   0.550 -0.2338 -0.0682  0.2989
  283SOL     OW 1204   0.622   2.384   0.787 -0.1237  0.6035 -0.0298
  283SOL    HW2 1205   0.627   2.377   0.883 -0.7073  0.4441 -0.0118
  283SOL    HW3 1206   0.532   2.362   0.766  0.3380 -0.6113 -0.7415
  283SOL    MW4 1207   0.611   2.380   0.797 -0.1398  0.4222 -0.1214
  284SOL     OW 1208   0.375   2.330   0.663  0.2004 -0.2668 -0.0167
  284SOL    HW2 1209   0.410   2.255   0.615 -2.4151 -0.9726 -0.8852
  284SOL    HW3 1210   0.339   2.388   0.596  0.4301  0.8380  0.7970
  284SOL    MW4 1211   0.375   2.328   0.648 -0.1144 -0.2141 -0.0240
  285SOL     OW 1212   4.455   2.691   0.797  0.0858  0.0291  0.4546
  285SOL    HW2 1213   4.450   2.697   0.892 -0.7183 -1.7524  0.5594
  285SOL    HW3 1214   4.423   2.775   0.765  0.0649  0.5211  1.7503
  285SOL    MW4 1215   4.450   2.703   0.805 -0.0234 -0.1409  0.6394
  286SOL     OW 1216   1.439   2.657   0.753 -0.2164 -0.3251 -0.0483
  286SOL    HW2 1217   1.418   2.750   0.746 -0.9360 -0.5281 -0.6588
  286SOL    HW3 1218   1.421   2.636   0.845 -0.9368 -0.0728 -0.1278
  286SOL    MW4 1219   1.434   2.667   0.764 -0.4064 -0.3188 -0.1393
  287SOL     OW 1220   0.743   3.053   0.685  0.0317 -1.0214 -0.3641
  287SOL    HW2 1221   0.756   2.982   0.748 -1.0672 -1.4082 -0.5706
  287SOL    HW3 1222   0.793   3.126   0.722 -0.6942 -1.2057  1.0290
  287SOL    MW4 1223   0.752   3.054   0.698 -0.2090 -1.0970 -0.2075
  288SOL     OW 1224   0.657   3.879   0.826 -0.0242  0.2398  0.1328
  288SOL    HW2 1225   0.662   3.786   0.805 -1.4421  0.2339 -0.2706
  288SOL    HW3 1226   0.579   3.910   0.780  0.8403  1.7941 -0.3259
  288SOL    MW4 1227   0.647   3.871   0.817 -0.0973  0.4442  0.0191
  289SOL     OW 1228   0.098   3.461   0.325  0.6282  0.1173  0.5917
  289SOL    HW2 1229   0.167   3.447   0.390 -0.2789 -0.5888  1.4388
  289SOL    HW3 1230   0.126   3.537   0.275  1.7423  0.1788  1.2972
  289SOL    MW4 1231   0.111   3.469   0.327  0.6555  0.0324  0.7966
  290SOL     OW 1232   0.679   3.619   0.716  0.4995 -0.0212 -0.2023
  290SOL    HW2 1233   0.766   3.626   0.676  1.3040 -0.5582  1.3930
  290SOL    HW3 1234   0.682   3.538   0.766 -1.0695 -0.2451 -0.4416
  290SOL    MW4 1235   0.691   3.609   0.717  0.3986 -0.1216 -0.0235
  291SOL     OW 1236   0.765   4.305   0.393  0.3019 -0.5663  0.0699
  291SOL    HW2 1237   0.859   4.315   0.402  0.1840 -0.2071  0.9013
  291SOL    HW3 1238   0.728   4.386   0.427 -0.2564 -0.1831 -1.4091
  291SOL    MW4 1239   0.772   4.317   0.399  0.2127 -0.4678 -0.0155
  292SOL     OW 1240   4.402   4.419   0.355 -0.1743 -0.3275 -0.2636
  292SOL    HW2 1241   4.457   4.491   0.388 -0.2496  0.5372 -1.9457
  292SOL    HW3 1242   4.461   4.343   0.354  0.1761 -0.0749  0.6474
  292SOL    MW4 1243   4.417   4.418   0.359 -0.1378 -0.1798 -0.3654
  293SOL     OW 1244   0.135   4.606   0.392  0.2659  0.7234  0.1334
  293SOL    HW2 1245   0.069   4.676   0.388  0.3266  0.8019  0.5442
  293SOL    HW3 1246   0.210   4.640   0.343 -0.3298  0.2793 -1.1271
  293SOL    MW4 1247   0.136   4.620   0.385  0.1952  0.6752  0.0213
  294SOL     OW 1248   0.644   3.876   0.412 -0.0260 -0.1510  0.4145
  294SOL    HW2 1249   0.555   3.841   0.414  0.3975 -1.2925 -0.4867
  294SOL    HW3 1250   0.699   3.801   0.389  1.1032  0.6877  0.3342
  294SOL    MW4 1251   0.640   3.861   0.409  0.1789 -0.1907  0.2851
  295SOL     OW 1252   1.180   4.618   0.671 -0.7522  0.0224  0.2892
  295SOL    HW2 1253   1.243   4.688   0.686 -0.3115  0.1034 -1.7756
  295SOL    HW3 1254   1.106   4.662   0.628 -0.0673 -0.8890 -1.9122
  295SOL    MW4 1255   1.178   4.633   0.667 -0.6037 -0.0868 -0.2737
  296SOL     OW 1256   0.992   0.133   0.563  0.3510  0.2464 -0.4270
  296SOL    HW2 1257   0.958   0.187   0.634 -0.4985 -0.3092 -0.4047
  296SOL    HW3 1258   0.919   0.076   0.539  0.7530  0.1677 -1.4900
  296SOL    MW4 1259   0.978   0.132   0.569  0.2919  0.1627 -0.5643
  297SOL     OW 1260   0.910   0.309   0.760 -0.0648 -0.3662  0.1937
  297SOL    HW2 1261   0.929   0.312   0.853  2.2454 -1.8068 -0.2039
  297SOL    HW3 1262   0.955   0.385   0.723  0.5506 -0.8046  0.0201
  297SOL    MW4 1263   0.918   0.319   0.767  0.3212 -0.6141  0.1183
  298SOL     OW 1264   1.833   0.205   0.434  0.2402  0.3894  0.2093
  298SOL    HW2 1265   1.829   0.170   0.523 -0.6998  0.3106  0.1373
  298SOL    HW3 1266   1.743   0.202   0.402  0.4393  1.1641 -0.4581
  298SOL    MW4 1267   1.821   0.200   0.441  0.1425  0.4812  0.1117
  299SOL     OW 1268   1.079   0.492   0.636  0.0685  0.3860 -0.5393
  299SOL    HW2 1269   1.162   0.461   0.672  0.4146  0.6455 -1.1197
  299SOL    HW3 1270   1.072   0.582   0.665 -1.3771 -0.4664  1.9330
  299SOL    MW4 1271   1.089   0.499   0.645 -0.0767  0.3078 -0.2897
  300SOL     OW 1272   0.856   0.855   0.665  0.1613  0.0802 -0.1170
  300SOL    HW2 1273   0.856   0.947   0.692 -0.4911  0.3373 -0.9304
  300SOL    HW3 1274   0.876   0.858   0.571 -2.1105 -0.4186 -0.6555
  300SOL    MW4 1275   0.858   0.868   0.656 -0.2245  0.0483 -0.2953
  301SOL     OW 1276   0.884   1.116   0.730  0.3107 -0.3581  0.1032
  301SOL    HW2 1277   0.899   1.132   0.823  0.0607 -1.0370  0.2621
  301SOL    HW3 1278   0.811   1.174   0.707 -0.3237 -0.9518  0.5804
  301SOL    MW4 1279   0.876   1.126   0.739  0.1940 -0.5260  0.1872
  302SOL     OW 1280   1.103   0.759   0.715 -0.2779 -0.0347  0.0051
  302SOL    HW2 1281   1.109   0.749   0.810  0.7044  1.7591  0.1622
  302SOL    HW3 1282   1.014   0.790   0.700  0.0888  1.3559  0.5436
  302SOL    MW4 1283   1.092   0.762   0.726 -0.1000  0.3854  0.0969
  303SOL     OW 1284   1.063   1.514   0.758  0.0645 -0.6046  0.5537
  303SOL    HW2 1285   1.059   1.436   0.704 -0.4975 -0.2864  0.1316
  303SOL    HW3 1286   0.990   1.568   0.728  0.5119  0.1293  0.7701
  303SOL    MW4 1287   1.052   1.511   0.747  0.0494 -0.4659  0.5266
  304SOL     OW 1288   0.405   1.662   0.715  0.3645 -0.1633 -0.4540
  304SOL    HW2 1289   0.404   1.756   0.735 -0.6422  0.0880 -1.6115
  304SOL    HW3 1290   0.394   1.658   0.620  1.0060 -1.4421 -0.4769
  304SOL    MW4 1291   0.403   1.674   0.705  0.3164 -0.2989 -0.6098
  305SOL     OW 1292   0.885   1.913   0.775 -0.2970 -0.3524  0.1045
  305SOL    HW2 1293   0.962   1.961   0.745 -0.1794 -0.7750 -0.2628
  305SOL    HW3 1294   0.881   1.931   0.869 -0.5229  0.7647 -0.1073
  305SOL    MW4 1295   0.895   1.922   0.783 -0.3113 -0.2608  0.0281
  306SOL     OW 1296   0.877   2.060   0.281  0.1705  0.6432  0.1193
  306SOL    HW2 1297   0.834   2.037   0.364 -2.2671  1.3010 -0.9190
  306SOL    HW3 1298   0.897   2.153   0.289  1.8126  0.2621  0.7424
  306SOL    MW4 1299   0.874   2.069   0.293  0.0655  0.6797  0.0646
  307SOL     OW 1300   1.113   2.296   0.735 -0.2211 -0.4532 -0.0259
  307SOL    HW2 1301   1.121   2.302   0.830  0.1978 -0.3418 -0.0714
  307SOL    HW3 1302   1.022   2.322   0.718 -0.0785  0.2467  0.2750
  307SOL    MW4 1303   1.102   2.300   0.745 -0.1470 -0.3462  0.0078
  308SOL     OW 1304   0.840   2.309   0.642 -0.0509 -0.2583 -0.3039
  308SOL    HW2 1305   0.758   2.334   0.684 -0.2760  0.6656 -1.2620
  308SOL    HW3 1306   0.853   2.375   0.574 -0.2930 -2.3513 -2.4412
  308SOL    MW4 1307   0.831   2.321   0.638 -0.1125 -0.4127 -0.7123
  309SOL     OW 1308   0.278   2.970   0.707  0.0534  0.1821 -0.4368
  309SOL    HW2 1309   0.354   3.016   0.670 -0.1598  0.8409 -0.0538
  309SOL    HW3 1310   0.218   3.040   0.733  0.5184 -0.2222  1.8575
  309SOL    MW4 1311   0.280   2.985   0.705  0.0866  0.2158 -0.0836
  310SOL     OW 1312   0.817   2.784   0.808  1.1005 -0.5950  0.4362
  310SOL    HW2 1313   0.846   2.746   0.891  1.4690 -2.8915 -0.6898
  310SOL    HW3 1314   0.746   2.726   0.779 -0.0629  1.0772 -0.0981
  310SOL    MW4 1315   0.811   2.771   0.815  0.9956 -0.6776  0.2171
  311SOL     OW 1316   1.048   2.970   0.790 -0.2257  0.0862 -0.3263
  311SOL    HW2 1317   1.130   2.938   0.754 -0.8650 -0.3819 -1.4128
  311SOL    HW3 1318   0.988   2.896   0.781 -0.7798  0.4408  0.4011
  311SOL    MW4 1319   1.051   2.956   0.784 -0.3831  0.0713 -0.3737
  312SOL     OW 1320   1.072   3.889   0.730 -0.2632 -0.1641  0.2918
  312SOL    HW2 1321   1.087   3.907   0.823 -0.8562  0.7101  0.2234
  312SOL    HW3 1322   0.993   3.939   0.709  0.3695  0.3252 -0.9073
  312SOL    MW4 1323   1.063   3.898   0.740 -0.2578  0.0157  0.1246
  313SOL     OW 1324   1.327   4.211   0.703  0.0180 -0.3189  0.4236
  313SOL    HW2 1325   1.316   4.131   0.652  0.0469 -0.4735  0.6556
  313SOL    HW3 1326   1.415   4.241   0.682  0.4672 -1.0116  1.2504
  313SOL    MW4 1327   1.337   4.205   0.694  0.0811 -0.4306  0.5633
  314SOL     OW 1328   0.953   3.651   0.656  0.3272 -0.2747  0.0776
  314SOL    HW2 1329   1.000   3.591   0.714  1.4362 -0.0760 -0.6134
  314SOL    HW3 1330   0.984   3.738   0.681  1.1547 -0.2177 -1.1039
  314SOL    MW4 1331   0.963   3.654   0.667  0.5828 -0.2410 -0.1695
  315SOL     OW 1332   1.065   3.500   0.868 -0.6620 -0.3977  0.4243
  315SOL    HW2 1333   1.034   3.411   0.854 -0.6023 -0.5708  1.3975
  315SOL    HW3 1334   1.161   3.492   0.867 -0.6457 -0.1903 -0.4431
  315SOL    MW4 1335   1.074   3.487   0.866 -0.6520 -0.3932  0.4383
  316SOL     OW 1336   2.347   3.990   0.651  0.8580  0.1322  0.3389
  316SOL    HW2 1337   2.263   3.959   0.683  0.5428  0.7576  0.1346
  316SOL    HW3 1338   2.333   4.083   0.632  1.7510  0.3806  0.8491
  316SOL    MW4 1339   2.334   3.999   0.652  0.9341  0.2475  0.3793
  317SOL     OW 1340   0.850   4.235   0.796  0.0404 -0.0855  0.0706
  317SOL    HW2 1341   0.936   4.266   0.769  1.4681 -2.7785  1.3827
  317SOL    HW3 1342   0.825   4.173   0.727 -0.2080 -0.4130  0.4577
  317SOL    MW4 1343   0.858   4.231   0.783  0.1960 -0.4845  0.2949
  318SOL     OW 1344   1.093   4.349   0.721  0.1949 -0.1538 -0.3829
  318SOL    HW2 1345   1.112   4.442   0.711 -0.2343 -0.1951 -1.6891
  318SOL    HW3 1346   1.179   4.306   0.716  0.5604  0.2652  1.7034
  318SOL    MW4 1347   1.107   4.355   0.719  0.1864 -0.1040 -0.2800
  319SOL     OW 1348   1.563   4.592   0.706  0.0751  0.5316  0.0522
  319SOL    HW2 1349   1.576   4.602   0.800 -0.3942 -1.9560  0.4069
  319SOL    HW3 1350   1.497   4.658   0.684 -0.8953  0.1347  1.7252
  319SOL    MW4 1351   1.556   4.602   0.715 -0.1148  0.1507  0.3198
  320SOL     OW 1352   1.391   0.134   0.665  0.3423 -0.3855  0.2060
  320SOL    HW2 1353   1.362   0.215   0.709 -0.8804 -0.8208  0.2247
  320SOL    HW3 1354   1.440   0.164   0.589  2.4147  0.3915  1.7764
  320SOL    MW4 1355   1.394   0.149   0.661  0.4544 -0.3404  0.4157
  321SOL     OW 1356   1.318   0.393   0.755 -0.2561  0.3375  0.3546
  321SOL    HW2 1357   1.327   0.407   0.849  1.2745 -1.6269  0.5354
  321SOL    HW3 1358   1.396   0.432   0.717  0.8574 -1.8683  0.2696
  321SOL    MW4 1359   1.329   0.400   0.763  0.0927 -0.2128  0.3673
  322SOL     OW 1360   1.491   0.762   0.755 -0.5620  0.3757 -0.1679
  322SOL    HW2 1361   1.427   0.818   0.711  1.3175  1.5230 -1.5123
  322SOL    HW3 1362   1.493   0.682   0.702  1.4365  1.6138 -2.0092
  322SOL    MW4 1363   1.483   0.759   0.742 -0.0503  0.6904 -0.5881
  323SOL     OW 1364   1.304   0.900   0.614  0.1162  0.4913  1.0789
  323SOL    HW2 1365   1.310   0.982   0.664  0.7815  0.0271  1.7659
  323SOL    HW3 1366   1.228   0.855   0.651 -1.4607  1.6614 -0.6159
  323SOL    MW4 1367   1.295   0.905   0.625 -0.0042  0.5844  0.9459
  324SOL     OW 1368   0.303   1.209   0.378 -0.0585  0.0130 -0.1810
  324SOL    HW2 1369   0.233   1.189   0.315  1.3546  0.5133 -1.9786
  324SOL    HW3 1370   0.347   1.287   0.341  1.3384 -0.1930  0.9853
  324SOL    MW4 1371   0.300   1.217   0.365  0.3122  0.0519 -0.2643
  325SOL     OW 1372   1.317   1.127   0.766  0.1651  0.1230 -0.3238
  325SOL    HW2 1373   1.402   1.157   0.735  0.7820 -0.1229  1.0824
  325SOL    HW3 1374   1.253   1.180   0.718  1.1450  1.3849 -0.2463
  325SOL    MW4 1375   1.320   1.138   0.756  0.3756  0.2571 -0.1280
  326SOL     OW 1376   1.565   1.259   0.665 -0.3984 -0.0175  0.4391
  326SOL    HW2 1377   1.641   1.215   0.703 -1.4210 -0.8786  1.4907
  326SOL    HW3 1378   1.569   1.348   0.700  0.3665  0.0702  0.1434
  326SOL    MW4 1379   1.576   1.265   0.674 -0.4323 -0.1196  0.5388
  327SOL     OW 1380   1.534   1.493   0.801 -0.4107 -0.1398  0.2523
  327SOL    HW2 1381   1.551   1.525   0.890 -0.7344 -1.1256  0.6733
  327SOL    HW3 1382   1.448   1.528   0.779 -1.4595 -1.9649  1.3125
  327SOL    MW4 1383   1.525   1.502   0.810 -0.5919 -0.5108  0.4477
  328SOL     OW 1384   1.317   1.655   0.705 -0.0734 -0.5424  0.0050
  328SOL    HW2 1385   1.234   1.615   0.731 -0.5396  1.3461  1.5620
  328SOL    HW3 1386   1.312   1.662   0.610 -0.3183 -3.3823 -0.2309
  328SOL    MW4 1387   1.305   1.651   0.696 -0.1673 -0.6680  0.1794
  329SOL     OW 1388   0.742   1.801   0.235 -0.7890  0.0941  0.5860
  329SOL    HW2 1389   0.791   1.882   0.247  1.6301 -1.0209 -1.3972
  329SOL    HW3 1390   0.799   1.733   0.271 -1.4907 -1.0718 -0.4470
  329SOL    MW4 1391   0.756   1.803   0.242 -0.5624 -0.2068  0.1881
  330SOL     OW 1392   1.340   1.913   0.785  0.2571 -0.2222  0.1547
  330SOL    HW2 1393   1.360   1.933   0.876  1.4469  2.0607 -0.5822
  330SOL    HW3 1394   1.339   1.817   0.781  0.8150 -0.3447  2.4133
  330SOL    MW4 1395   1.342   1.903   0.796  0.4877  0.0627  0.3555
  331SOL     OW 1396   1.738   2.378   0.637 -0.3083  0.5410  0.1103
  331SOL    HW2 1397   1.738   2.463   0.683  1.7484  0.5761  0.0854
  331SOL    HW3 1398   1.726   2.400   0.545  0.6216  0.8335  0.0594
  331SOL    MW4 1399   1.736   2.392   0.631  0.0857  0.5846  0.1004
  332SOL     OW 1400   1.303   2.467   0.595 -0.5201  0.7290  0.0565
  332SOL    HW2 1401   1.348   2.521   0.660  1.0030 -0.3406 -0.0892
  332SOL    HW3 1402   1.242   2.414   0.646 -0.7848  1.3517  0.3900
  332SOL    MW4 1403   1.301   2.467   0.611 -0.3541  0.6697  0.0812
  333SOL     OW 1404   1.721   2.618   0.782 -0.2875 -0.7583  0.1204
  333SOL    HW2 1405   1.626   2.616   0.772 -0.2669 -0.7853 -0.0664
  333SOL    HW3 1406   1.734   2.648   0.872 -0.4624  1.3234 -0.5078
  333SOL    MW4 1407   1.710   2.622   0.792 -0.3079 -0.4873  0.0129
  334SOL     OW 1408   0.986   2.303   0.289 -0.2229 -0.1823  0.2383
  334SOL    HW2 1409   1.063   2.354   0.262 -0.2606  0.5062  1.3868
  334SOL    HW3 1410   0.934   2.364   0.341 -2.3075 -0.1826 -1.7545
  334SOL    MW4 1411   0.989   2.318   0.292 -0.5029 -0.0916  0.1269
  335SOL     OW 1412   1.462   3.144   0.669  0.3019 -0.0658  0.3633
  335SOL    HW2 1413   1.551   3.109   0.656  0.3158  0.2646 -0.4747
  335SOL    HW3 1414   1.446   3.136   0.763  1.1769 -0.2350  0.4997
  335SOL    MW4 1415   1.472   3.138   0.679  0.4191 -0.0446  0.2707
  336SOL     OW 1416   1.290   2.920   0.657 -0.2449  0.3835 -0.0180
  336SOL    HW2 1417   1.348   2.996   0.651 -2.0578  1.7893 -0.2914
  336SOL    HW3 1418   1.270   2.898   0.566 -2.5747  1.8540  0.1084
  336SOL    MW4 1419   1.295   2.927   0.644 -0.7913  0.7629 -0.0374
  337SOL     OW 1420   1.354   3.470   0.732 -0.1693 -0.3676  0.5052
  337SOL    HW2 1421   1.423   3.530   0.703 -1.4729  0.7954 -0.3298
  337SOL    HW3 1422   1.297   3.462   0.655 -1.7194 -0.1578  1.6040
  337SOL    MW4 1423   1.356   3.477   0.718 -0.5457 -0.1864  0.5400
  338SOL     OW 1424   1.585   3.624   0.641  0.0894  0.6185 -0.1906
  338SOL    HW2 1425   1.666   3.583   0.671 -1.9544 -1.9792  2.0264
  338SOL    HW3 1426   1.572   3.590   0.553 -0.8984 -2.6604  1.1395
  338SOL    MW4 1427   1.594   3.614   0.633 -0.3105 -0.1571  0.2773
  339SOL     OW 1428   1.546   3.899   0.703  0.3976  0.1438 -0.1854
  339SOL    HW2 1429   1.573   3.808   0.690  0.4098  0.2818 -1.1708
  339SOL    HW3 1430   1.461   3.905   0.660  0.3480  0.5695 -0.0262
  339SOL    MW4 1431   1.539   3.888   0.695  0.3928  0.2179 -0.2944
  340SOL     OW 1432   1.289   3.681   0.369 -0.3004 -0.2689  0.1022
  340SOL    HW2 1433   1.217   3.726   0.325  0.6530  1.0061 -0.1814
  340SOL    HW3 1434   1.305   3.731   0.449 -1.8289 -2.4121  1.8092
  340SOL    MW4 1435   1.282   3.694   0.374 -0.3763 -0.3834  0.2900
  341SOL     OW 1436   1.578   4.310   0.639 -0.1698 -0.2142 -0.0604
  341SOL    HW2 1437   1.564   4.401   0.662 -1.0241 -0.2545 -0.4360
  341SOL    HW3 1438   1.622   4.312   0.554 -1.7599 -0.1811 -0.9034
  341SOL    MW4 1439   1.582   4.322   0.631 -0.4923 -0.2151 -0.2212
  342SOL     OW 1440   1.829   4.331   0.750  0.6061 -0.2971  0.1122
  342SOL    HW2 1441   1.828   4.316   0.844  2.3848 -0.1032  0.1796
  342SOL    HW3 1442   1.739   4.313   0.721 -0.5161  1.8489  2.1611
  342SOL    MW4 1443   1.817   4.327   0.758  0.6927  0.0119  0.3915
  343SOL     OW 1444   2.007   4.547   0.682 -0.6206  0.2700  0.1392
  343SOL    HW2 1445   1.946   4.474   0.692  0.3757 -0.6499 -0.3349
  343SOL    HW3 1446   1.996   4.575   0.591  1.2136 -1.3396 -0.6104
  343SOL    MW4 1447   1.997   4.541   0.671 -0.2470 -0.0644 -0.0222
  344SOL     OW 1448   1.809   0.084   0.685 -0.0825  0.0361  0.3279
  344SOL    HW2 1449   1.872   0.022   0.721  0.4967  1.3178  1.5520
  344SOL    HW3 1450   1.724   0.040   0.694  0.5659 -1.5174 -0.9451
  344SOL    MW4 1451   1.806   0.070   0.691  0.0795  0.0003  0.3214
  345SOL     OW 1452   1.524   0.517   0.623 -0.0619 -0.1879 -0.2978
  345SOL    HW2 1453   1.611   0.482   0.642  1.6120  3.3564 -1.0377
  345SOL    HW3 1454   1.515   0.506   0.529 -0.7450 -1.1602 -0.1303
  345SOL    MW4 1455   1.535   0.511   0.613  0.0689  0.1515 -0.3733
  346SOL     OW 1456   2.677   4.050   0.413 -0.2357  0.3153  0.5125
  346SOL    HW2 1457   2.633   4.134   0.418 -0.5218  0.1674  0.5166
  346SOL    HW3 1458   2.606   3.987   0.399  0.2415  0.3668 -2.2852
  346SOL    MW4 1459   2.662   4.052   0.412 -0.2105  0.3028  0.1439
  347SOL     OW 1460   1.829   1.567   0.376  0.3122  0.2049 -0.1534
  347SOL    HW2 1461   1.777   1.578   0.455 -0.1269 -0.3812 -0.3544
  347SOL    HW3 1462   1.881   1.647   0.370  0.9331 -0.0818  1.1632
  347SOL    MW4 1463   1.829   1.579   0.386  0.3362  0.0898 -0.0062
  348SOL     OW 1464   1.777   1.113   0.759 -0.2190 -0.2054 -0.4938
  348SOL    HW2 1465   1.778   1.022   0.729  2.6687 -0.0434 -1.0871
  348SOL    HW3 1466   1.845   1.156   0.707 -1.1775  2.1658  0.1575
  348SOL    MW4 1467   1.786   1.106   0.748  0.0354  0.1289 -0.4861
  349SOL     OW 1468   2.039   0.524   0.650 -0.1121  0.3231 -0.5470
  349SOL    HW2 1469   2.015   0.521   0.558  1.7262 -0.9707 -1.0028
  349SOL    HW3 1470   2.042   0.618   0.671  0.7822  0.6612 -2.1493
  349SOL    MW4 1471   2.036   0.536   0.641  0.2487  0.1971 -0.8186
  350SOL     OW 1472   2.238   1.178   0.733  0.0613 -0.3233  0.0870
  350SOL    HW2 1473   2.322   1.177   0.687 -0.4642  0.7119 -0.9343
  350SOL    HW3 1474   2.260   1.170   0.825  1.2643 -0.3582 -0.1973
  350SOL    MW4 1475   2.252   1.177   0.739  0.1507 -0.1912 -0.0852
  351SOL     OW 1476   2.535   1.587   0.748  0.2784  0.0734  0.0960
  351SOL    HW2 1477   2.554   1.680   0.734 -0.8340  0.2159 -0.4884
  351SOL    HW3 1478   2.614   1.542   0.717  0.3015  0.7530 -0.8519
  351SOL    MW4 1479   2.548   1.593   0.742  0.1347  0.1817 -0.1062
  352SOL     OW 1480   1.980   1.262   0.640  0.0630  0.2364 -0.3149
  352SOL    HW2 1481   2.002   1.270   0.547 -0.1200 -0.3676 -0.4103
  352SOL    HW3 1482   2.065   1.250   0.683  0.1344  0.3415 -0.4239
  352SOL    MW4 1483   1.994   1.262   0.633  0.0483  0.1707 -0.3418
  353SOL     OW 1484   1.703   1.634   0.628 -0.1839 -0.2214  0.3711
  353SOL    HW2 1485   1.645   1.603   0.698 -0.0085  0.1759  0.6941
  353SOL    HW3 1486   1.717   1.726   0.648  1.5589 -0.6019  0.9806
  353SOL    MW4 1487   1.697   1.642   0.640  0.0693 -0.2191  0.4941
  354SOL     OW 1488   2.148   2.494   0.556  0.0944 -0.0171  0.0328
  354SOL    HW2 1489   2.115   2.428   0.618  0.2562 -1.1270 -1.0439
  354SOL    HW3 1490   2.193   2.558   0.611  2.0354 -2.0651  0.8998
  354SOL    MW4 1491   2.150   2.493   0.571  0.3717 -0.4339  0.0051
  355SOL     OW 1492   2.182   1.920   0.696 -0.2580  0.4907 -0.1818
  355SOL    HW2 1493   2.097   1.953   0.668  0.6184 -0.2887 -4.0910
  355SOL    HW3 1494   2.245   1.965   0.639  1.7431 -0.7955  0.9283
  355SOL    MW4 1495   2.179   1.930   0.685  0.1214  0.2182 -0.5512
  356SOL     OW 1496   0.867   3.677   0.376  0.4151  0.7971 -0.6269
  356SOL    HW2 1497   0.884   3.665   0.469  0.9741 -1.7725 -1.0361
  356SOL    HW3 1498   0.949   3.711   0.340  1.1604 -0.9828 -0.6600
  356SOL    MW4 1499   0.880   3.680   0.383  0.5872  0.2234 -0.6853
  357SOL     OW 1500   1.888   2.834   0.699  0.1826 -0.1279  0.7969
  357SOL    HW2 1501   1.914   2.799   0.613  0.9442  0.7553  0.6588
  357SOL    HW3 1502   1.851   2.759   0.745 -0.3271 -0.5880 -0.3436
  357SOL    MW4 1503   1.887   2.819   0.693  0.2159 -0.0720  0.6282
  358SOL     OW 1504   2.227   2.910   0.493  0.2651 -0.2747  0.1166
  358SOL    HW2 1505   2.219   2.847   0.565  0.1444 -0.4846 -0.0803
  358SOL    HW3 1506   2.229   2.995   0.537  0.2968 -0.4062  0.3763
  358SOL    MW4 1507   2.226   2.913   0.509  0.2532 -0.3200  0.1249
  359SOL     OW 1508   2.214   3.159   0.635  0.3120 -0.2958  0.1847
  359SOL    HW2 1509   2.153   3.139   0.706  0.5927 -0.1131  0.4791
  359SOL    HW3 1510   2.300   3.142   0.672  0.4766  0.0983 -0.0099
  359SOL    MW4 1511   2.217   3.154   0.649  0.3707 -0.2198  0.1979
  360SOL     OW 1512   2.329   3.166   0.272  0.0145 -0.2042  0.0745
  360SOL    HW2 1513   2.413   3.194   0.236 -0.2119 -0.0378 -0.3256
  360SOL    HW3 1514   2.271   3.242   0.261 -0.2569 -0.4020  0.1227
  360SOL    MW4 1515   2.332   3.180   0.266 -0.0510 -0.2084  0.0281
  361SOL     OW 1516   1.836   3.534   0.734  0.0407 -0.1143  0.6210
  361SOL    HW2 1517   1.796   3.530   0.821 -0.9942 -0.2906  0.1415
  361SOL    HW3 1518   1.844   3.442   0.707  0.4523 -0.0643  0.5682
  361SOL    MW4 1519   1.832   3.521   0.742 -0.0416 -0.1309  0.5508
  362SOL     OW 1520   2.056   3.657   0.642  0.4498  0.0169 -0.1312
  362SOL    HW2 1521   2.075   3.740   0.686  0.9763 -0.0919 -0.1489
  362SOL    HW3 1522   1.974   3.627   0.682  0.5444  0.2784  0.2595
  362SOL    MW4 1523   2.047   3.664   0.653  0.5317  0.0374 -0.0820
  363SOL     OW 1524   2.096   3.912   0.751  0.4002 -0.1795  0.3788
  363SOL    HW2 1525   2.072   3.911   0.844  0.5389  2.1469  0.4794
  363SOL    HW3 1526   2.045   3.983   0.714  2.1563  0.5070 -0.7997
  363SOL    MW4 1527   2.086   3.921   0.759  0.6502  0.2182  0.2366
  364SOL     OW 1528   1.739   3.990   0.496  0.0327  0.6312  0.1073
  364SOL    HW2 1529   1.696   3.966   0.578  1.3078  0.0333  0.6033
  364SOL    HW3 1530   1.828   4.014   0.522  0.6597 -0.2613 -1.1882
  364SOL    MW4 1531   1.745   3.990   0.510  0.2836  0.4346  0.0018
  365SOL     OW 1532   1.933   4.363   0.283 -0.0574 -0.2250 -0.6816
  365SOL    HW2 1533   1.949   4.366   0.189 -1.7507  1.1167 -0.9550
  365SOL    HW3 1534   1.935   4.454   0.311  0.3994 -0.6149  0.5870
  365SOL    MW4 1535   1.935   4.375   0.274 -0.2207 -0.0992 -0.5503
  366SOL     OW 1536   2.269   4.438   0.763 -0.2107  0.0480 -0.7204
  366SOL    HW2 1537   2.339   4.503   0.765  0.9317 -1.1896  0.7674
  366SOL    HW3 1538   2.189   4.489   0.748  0.7738  1.6802 -0.5365
  366SOL    MW4 1539   2.267   4.453   0.761  0.0699  0.1006 -0.4998
  367SOL     OW 1540   2.505   0.491   0.636  0.3324  0.1281 -0.1360
  367SOL    HW2 1541   2.573   0.429   0.664 -1.8037 -2.0212  0.4600
  367SOL    HW3 1542   2.453   0.443   0.572 -2.7889  0.4157  2.0407
  367SOL    MW4 1543   2.507   0.477   0.631 -0.3614 -0.1175  0.2298
  368SOL     OW 1544   2.217   0.096   0.709 -0.2272 -0.2464 -0.0870
  368SOL    HW2 1545   2.213   0.192   0.707  0.4588 -0.1881  0.7983
  368SOL    HW3 1546   2.308   0.077   0.730 -0.6465 -1.0768  1.0045
  368SOL    MW4 1547   2.229   0.106   0.711 -0.1919 -0.3483  0.1738
  369SOL     OW 1548   2.545   0.866   0.516  0.3374  0.2043 -0.1098
  369SOL    HW2 1549   2.513   0.901   0.433  0.2178 -0.7209 -0.4622
  369SOL    HW3 1550   2.586   0.783   0.493 -0.1175 -0.2912  0.8142
  369SOL    MW4 1551   2.546   0.860   0.502  0.2615  0.0169 -0.0343
  370SOL     OW 1552   2.922   4.587   0.257 -0.3264 -0.2023 -0.6345
  370SOL    HW2 1553   2.933   4.670   0.302 -0.5327 -0.9140  0.7363
  370SOL    HW3 1554   2.934   4.609   0.164  0.8419  1.1238 -0.1822
  370SOL    MW4 1555   2.925   4.601   0.251 -0.1996 -0.1211 -0.3940
  371SOL     OW 1556   2.469   1.132   0.600  0.2054 -0.2492 -0.3236
  371SOL    HW2 1557   2.542   1.165   0.652  0.3441 -1.2488  0.1286
  371SOL    HW3 1558   2.497   1.045   0.572  0.7635  0.8259 -3.3556
  371SOL    MW4 1559   2.482   1.125   0.603  0.2973 -0.2393 -0.6640
  372SOL     OW 1560   2.264   0.378   0.745  0.1546  0.1039  0.5661
  372SOL    HW2 1561   2.202   0.443   0.713  1.3775  0.9765 -0.0636
  372SOL    HW3 1562   2.350   0.417   0.730  0.8531 -0.9155  1.7993
  372SOL    MW4 1563   2.267   0.392   0.739  0.4079  0.0845  0.6457
  373SOL     OW 1564   2.024   0.773   0.749  0.3533 -0.1261 -0.3075
  373SOL    HW2 1565   1.942   0.815   0.723 -0.2527 -2.2107 -1.9172
  373SOL    HW3 1566   2.093   0.830   0.716 -0.4123  1.7436  1.2171
  373SOL    MW4 1567   2.022   0.786   0.741  0.1724 -0.1544 -0.3188
  374SOL     OW 1568   1.779   0.401   0.716 -0.2257  0.2467 -0.5001
  374SOL    HW2 1569   1.786   0.306   0.714 -0.0330  0.2330  0.5438
  374SOL    HW3 1570   1.863   0.432   0.681 -0.0456  0.0430 -0.2430
  374SOL    MW4 1571   1.791   0.393   0.711 -0.1767  0.2180 -0.3285
  375SOL     OW 1572   2.534   1.968   0.467  0.5601 -0.1863  0.0116
  375SOL    HW2 1573   2.457   2.020   0.489  1.3423  1.3794 -0.8336
  375SOL    HW3 1574   2.568   1.939   0.552 -0.1689  0.2677  0.4673
  375SOL    MW4 1575   2.529   1.971   0.481  0.5674  0.0802 -0.0398
  376SOL     OW 1576   1.971   2.055   0.584 -0.4137  0.3447  0.4599
  376SOL    HW2 1577   1.996   2.144   0.611  1.6870  0.5391 -1.9768
  376SOL    HW3 1578   1.956   2.062   0.490 -0.3261 -1.8833  0.2590
  376SOL    MW4 1579   1.972   2.068   0.575 -0.1251  0.0763  0.1118
  377SOL     OW 1580   2.746   1.447   0.650  0.7019  0.2060 -0.0576
  377SOL    HW2 1581   2.841   1.458   0.663  1.0673 -1.7506 -0.8815
  377SOL    HW3 1582   2.738   1.417   0.559 -0.5642 -1.3553  0.5527
  377SOL    MW4 1583   2.758   1.445   0.640  0.5832 -0.2582 -0.0858
  378SOL     OW 1584   1.765   1.912   0.713  0.1362 -0.4893 -0.0960
  378SOL    HW2 1585   1.836   1.966   0.679  0.3946 -0.8711 -0.1639
  378SOL    HW3 1586   1.685   1.957   0.684  0.3452 -0.0229  0.0444
  378SOL    MW4 1587   1.764   1.925   0.705  0.1978 -0.4781 -0.0864
  379SOL     OW 1588   2.462   2.287   0.712 -0.5715 -0.4693  0.2257
  379SOL    HW2 1589   2.549   2.251   0.695 -0.0797  0.6334  0.3789
  379SOL    HW3 1590   2.462   2.371   0.668 -1.3419 -0.1860  0.7664
  379SOL    MW4 1591   2.474   2.293   0.704 -0.6082 -0.2863  0.3173
  380SOL     OW 1592   2.300   2.683   0.317  0.2434  0.0311 -0.3325
  380SOL    HW2 1593   2.367   2.720   0.259  0.3040  1.6162  0.7301
  380SOL    HW3 1594   2.349   2.651   0.393 -0.0695 -0.1116 -0.1882
  380SOL    MW4 1595   2.315   2.683   0.320  0.2100  0.2215 -0.1733
  381SOL     OW 1596   1.983   3.085   0.782 -0.2416 -0.0464 -0.1126
  381SOL    HW2 1597   1.953   3.000   0.750  2.0076 -1.3227  1.0887
  381SOL    HW3 1598   1.970   3.082   0.877 -1.5734  1.5504 -0.2192
  381SOL    MW4 1599   1.977   3.074   0.790 -0.1204 -0.0038  0.0318
  382SOL     OW 1600   2.538   2.773   0.594 -0.0461  0.0820 -0.3667
  382SOL    HW2 1601   2.554   2.832   0.520 -1.1720  0.1048 -0.6086
  382SOL    HW3 1602   2.622   2.765   0.638  0.6589  0.0179 -1.6969
  382SOL    MW4 1603   2.551   2.779   0.590 -0.1018  0.0768 -0.5742
  383SOL     OW 1604   2.733   3.159   0.383  0.7046 -0.1465 -0.2940
  383SOL    HW2 1605   2.823   3.129   0.373  1.5008  1.4350  1.6476
  383SOL    HW3 1606   2.742   3.248   0.418 -1.6104  0.1344 -0.3528
  383SOL    MW4 1607   2.746   3.167   0.386  0.5043  0.0992 -0.0456
  384SOL     OW 1608   2.821   3.734   0.198  0.0652 -0.3003 -0.3365
  384SOL    HW2 1609   2.897   3.732   0.256 -0.4376 -1.2518  0.3114
  384SOL    HW3 1610   2.856   3.712   0.112  0.5989 -0.3025 -0.1182
  384SOL    MW4 1611   2.835   3.731   0.194  0.0694 -0.4263 -0.2222
  385SOL     OW 1612   1.995   2.447   0.043  0.1098 -0.0297  0.0509
  385SOL    HW2 1613   1.938   2.388   0.092 -0.3497 -0.5931 -1.1488
  385SOL    HW3 1614   1.956   2.452  -0.044  1.4814  0.1522 -0.5694
  385SOL    MW4 1615   1.983   2.440   0.038  0.2301 -0.0799 -0.1892
  386SOL     OW 1616   2.589   3.393   0.765 -0.1770  0.3057 -0.1641
  386SOL    HW2 1617   2.647   3.383   0.690 -0.3428 -0.8863 -0.1467
  386SOL    HW3 1618   2.532   3.317   0.761 -0.1123  0.1733  1.2289
  386SOL    MW4 1619   2.589   3.382   0.755 -0.1903  0.1307  0.0220
  387SOL     OW 1620   2.570   3.881   0.776  0.3924  0.6985  0.0884
  387SOL    HW2 1621   2.493   3.933   0.754 -0.2359 -0.0052  0.6131
  387SOL    HW3 1622   2.544   3.791   0.758  0.6808  0.3467  1.4289
  387SOL    MW4 1623   2.556   3.876   0.771  0.3476  0.5593  0.3345
  388SOL     OW 1624   2.185   3.481   0.376 -0.1657 -0.3982  0.2932
  388SOL    HW2 1625   2.269   3.505   0.414 -0.8295 -0.2429  1.6952
  388SOL    HW3 1626   2.141   3.565   0.360 -1.0333 -0.5242  1.8651
  388SOL    MW4 1627   2.190   3.495   0.379 -0.3679 -0.3943  0.6855
  389SOL     OW 1628   2.606   4.336   0.511 -0.1508  0.1748  0.5690
  389SOL    HW2 1629   2.516   4.309   0.529  0.3205 -0.5817  1.7903
  389SOL    HW3 1630   2.652   4.325   0.594  1.2581 -0.1996 -0.2493
  389SOL    MW4 1631   2.600   4.331   0.524  0.0973  0.0257  0.6222
  390SOL     OW 1632   2.160   3.964   0.269  0.3399 -0.1396 -0.0960
  390SOL    HW2 1633   2.112   3.883   0.286 -0.5533  0.2648 -0.6868
  390SOL    HW3 1634   2.143   3.983   0.177 -0.3588  1.3087  0.3205
  390SOL    MW4 1635   2.152   3.956   0.259  0.1297  0.1049 -0.1191
  391SOL     OW 1636   2.729   4.320   0.761 -0.4753 -0.3524  0.0631
  391SOL    HW2 1637   2.700   4.296   0.849  0.8502 -1.2846  0.2754
  391SOL    HW3 1638   2.793   4.253   0.738 -0.1659  0.3733 -1.2676
  391SOL    MW4 1639   2.734   4.308   0.770 -0.2599 -0.3791 -0.0845
  392SOL     OW 1640   1.510   0.453   0.358 -0.0662 -0.0184  0.3331
  392SOL    HW2 1641   1.598   0.479   0.332  0.0705  0.4357  1.2539
  392SOL    HW3 1642   1.454   0.526   0.331 -0.1119 -0.1440  0.0856
  392SOL    MW4 1643   1.514   0.466   0.351 -0.0541  0.0249  0.4220
  393SOL     OW 1644   2.688   0.087   0.640  0.6334  0.2874 -0.2128
  393SOL    HW2 1645   2.762   0.051   0.688  0.2744 -0.6433 -0.3516
  393SOL    HW3 1646   2.702   0.060   0.549  0.4065  0.5656 -0.3324
  393SOL    MW4 1647   2.699   0.079   0.634  0.5560  0.2013 -0.2469
  394SOL     OW 1648   2.854   0.981   0.666 -0.2308  0.4847 -0.6087
  394SOL    HW2 1649   2.946   1.007   0.671  0.0114 -0.4323 -0.2548
  394SOL    HW3 1650   2.837   0.971   0.572 -0.1186  1.1597 -0.7057
  394SOL    MW4 1651   2.864   0.983   0.654 -0.1841  0.4528 -0.5748
  395SOL     OW 1652   2.231   0.920   0.637 -0.0969 -0.0813 -0.1083
  395SOL    HW2 1653   2.295   0.874   0.692  1.5122  0.0215 -1.8275
  395SOL    HW3 1654   2.234   1.011   0.666  1.5074  0.1728 -1.0356
  395SOL    MW4 1655   2.240   0.926   0.648  0.3271 -0.0342 -0.4575
  396SOL     OW 1656   3.110   0.585   0.205  0.1857 -0.0463  0.3240
  396SOL    HW2 1657   3.019   0.566   0.226  0.5003 -1.3390  0.5637
  396SOL    HW3 1658   3.145   0.627   0.283  0.3350 -1.4130  1.0060
  396SOL    MW4 1659   3.103   0.588   0.218  0.2468 -0.3971  0.4456
  397SOL     OW 1660   2.876   0.925   0.393 -0.4993 -0.1841  0.6727
  397SOL    HW2 1661   2.892   1.017   0.371 -0.5465 -0.4152 -0.3158
  397SOL    HW3 1662   2.812   0.895   0.328  0.3443 -1.2275  0.3173
  397SOL    MW4 1663   2.870   0.933   0.382 -0.3941 -0.3523  0.4954
  398SOL     OW 1664   2.693   1.183   0.756  0.0682  0.6772  0.1681
  398SOL    HW2 1665   2.720   1.268   0.721  1.1317  0.0548 -0.5574
  398SOL    HW3 1666   2.759   1.122   0.723 -1.5431 -0.6870 -0.6075
  398SOL    MW4 1667   2.705   1.186   0.747 -0.0041  0.4152 -0.0300
  399SOL     OW 1668   3.940   2.353   0.397  0.6257 -0.0279 -0.4091
  399SOL    HW2 1669   3.846   2.369   0.397  0.5393 -0.5320 -1.5545
  399SOL    HW3 1670   3.978   2.432   0.359  0.6147 -0.0934 -0.5569
  399SOL    MW4 1671   3.932   2.365   0.392  0.6127 -0.1030 -0.5797
  400SOL     OW 1672   2.634   1.871   0.710 -0.3746 -0.0633 -0.2090
  400SOL    HW2 1673   2.628   1.904   0.800 -0.1440 -0.5487 -0.0148
  400SOL    HW3 1674   2.725   1.843   0.701 -0.0407  1.2355 -1.0329
  400SOL    MW4 1675   2.645   1.872   0.721 -0.3002  0.0440 -0.2921
  401SOL     OW 1676   2.882   1.362   0.106  0.1485 -0.0904  0.4076
  401SOL    HW2 1677   2.822   1.420   0.154 -1.4186 -0.7399 -0.7343
  401SOL    HW3 1678   2.913   1.300   0.173  1.0175  1.3850  1.4029
  401SOL    MW4 1679   2.878   1.361   0.121  0.0565  0.0185  0.3883
  402SOL     OW 1680   3.913   1.522   0.372  0.0592  0.0817 -0.0928
  402SOL    HW2 1681   3.889   1.595   0.315  1.0096  1.2587  1.0078
  402SOL    HW3 1682   3.991   1.484   0.330  0.6939  0.8795  0.3455
  402SOL    MW4 1683   3.920   1.526   0.359  0.2682  0.3422  0.1102
  403SOL     OW 1684   3.397   2.120   0.746  0.5226 -0.1689  0.1497
  403SOL    HW2 1685   3.387   2.173   0.825  0.4701  1.2650 -0.8053
  403SOL    HW3 1686   3.308   2.108   0.713  0.6290  0.0862 -0.2352
  403SOL    MW4 1687   3.384   2.125   0.752  0.5298  0.0539 -0.0271
  404SOL     OW 1688   2.964   1.989   0.337  0.3312  0.1151  0.1254
  404SOL    HW2 1689   2.968   1.975   0.243  1.0409 -0.5388  0.2497
  404SOL    HW3 1690   2.885   2.041   0.350 -0.9667 -1.6241 -0.6245
  404SOL    MW4 1691   2.954   1.994   0.327  0.2534 -0.2005  0.0429
  405SOL     OW 1692   2.855   2.609   0.498  0.1939  0.3082 -0.1533
  405SOL    HW2 1693   2.874   2.536   0.556 -1.0774  0.3077  0.2702
  405SOL    HW3 1694   2.839   2.683   0.556 -0.0267  0.5637 -0.5345
  405SOL    MW4 1695   2.856   2.609   0.513 -0.0031  0.3414 -0.1476
  406SOL     OW 1696   3.075   2.948   0.668  0.3294 -0.1405  0.2160
  406SOL    HW2 1697   3.034   2.967   0.583 -1.0339 -1.2222  0.6103
  406SOL    HW3 1698   3.060   2.854   0.681 -0.0950  0.1565  1.9718
  406SOL    MW4 1699   3.067   2.938   0.658  0.0937 -0.2441  0.4997
  407SOL     OW 1700   2.557   3.299   0.167  0.5805  0.3390 -0.1314
  407SOL    HW2 1701   2.597   3.366   0.221 -0.1070  0.0900  0.6906
  407SOL    HW3 1702   2.624   3.277   0.102  0.9732  1.4750 -0.1149
  407SOL    MW4 1703   2.571   3.305   0.165  0.5414  0.4563 -0.0208
  408SOL     OW 1704   2.644   3.479   1.019 -0.1311 -0.4903 -0.1403
  408SOL    HW2 1705   2.573   3.523   1.065 -0.0433 -0.9002  0.4052
  408SOL    HW3 1706   2.611   3.463   0.931 -0.5684 -0.3331 -0.0026
  408SOL    MW4 1707   2.630   3.483   1.013 -0.1771 -0.5236 -0.0502
  409SOL     OW 1708   3.298   3.668   0.233 -0.2674  0.4633  0.6035
  409SOL    HW2 1709   3.359   3.595   0.247 -1.4638 -0.5965  0.4093
  409SOL    HW3 1710   3.344   3.745   0.266  1.6162 -0.1374 -0.5791
  409SOL    MW4 1711   3.312   3.668   0.240 -0.1767  0.2441  0.4218
  410SOL     OW 1712   0.770   2.050   0.559  0.3002 -0.9319 -0.1416
  410SOL    HW2 1713   0.817   2.133   0.569 -1.1613 -0.2140  0.8913
  410SOL    HW3 1714   0.794   1.999   0.637 -1.2742 -0.2288  0.8234
  410SOL    MW4 1715   0.779   2.054   0.571 -0.1004 -0.7443  0.1220
  411SOL     OW 1716   3.039   3.897   0.500  0.1507 -0.1295  0.0863
  411SOL    HW2 1717   3.003   3.936   0.420 -0.3727  0.9820  0.8488
  411SOL    HW3 1718   2.963   3.884   0.557  0.4571 -1.3302  0.2515
  411SOL    MW4 1719   3.024   3.900   0.497  0.1218 -0.1411  0.2087
  412SOL     OW 1720   1.548   3.578   0.378  0.7329 -0.1686  0.1094
  412SOL    HW2 1721   1.534   3.484   0.375 -0.5471 -0.0293  1.1855
  412SOL    HW3 1722   1.463   3.616   0.356  0.4759  0.7169  2.4478
  412SOL    MW4 1723   1.535   3.571   0.375  0.5301 -0.0334  0.5599
  413SOL     OW 1724   2.468   4.658   0.764  0.6326  0.4011  0.2147
  413SOL    HW2 1725   2.548   4.683   0.717  0.8165  0.0504  0.3369
  413SOL    HW3 1726   2.493   4.662   0.856  0.6794 -0.2805  0.2331
  413SOL    MW4 1727   2.482   4.662   0.770  0.6633  0.2646  0.2333
  414SOL     OW 1728   3.283   3.776   0.544 -0.4252 -0.2382  0.2784
  414SOL    HW2 1729   3.200   3.823   0.531  0.3926  1.1444 -0.0973
  414SOL    HW3 1730   3.339   3.807   0.473  0.8565 -0.1502  1.3060
  414SOL    MW4 1731   3.279   3.786   0.533 -0.1483 -0.0441  0.3644
  415SOL     OW 1732   3.433   4.182   0.745 -0.4377 -0.0022 -0.4017
  415SOL    HW2 1733   3.436   4.087   0.739  1.8062 -0.0727  1.0375
  415SOL    HW3 1734   3.342   4.202   0.766 -0.5979 -1.9773  0.9499
  415SOL    MW4 1735   3.422   4.172   0.747 -0.1628 -0.2723 -0.0334
  416SOL     OW 1736   3.174   4.250   0.820  0.0778  0.2134 -0.0965
  416SOL    HW2 1737   3.166   4.343   0.797  2.1511  0.1225 -1.3167
  416SOL    HW3 1738   3.096   4.209   0.781  0.7654  0.9440 -2.2893
  416SOL    MW4 1739   3.162   4.257   0.812  0.4420  0.2980 -0.5468
  417SOL     OW 1740   2.211   0.896   0.360 -0.0909 -0.2031 -0.1029
  417SOL    HW2 1741   2.207   0.912   0.455  0.1767  0.3236 -0.1768
  417SOL    HW3 1742   2.204   0.801   0.351 -0.5831 -0.2193  0.4211
  417SOL    MW4 1743   2.209   0.886   0.372 -0.1204 -0.1358 -0.0435
  418SOL     OW 1744   2.958   0.445   0.522 -0.0247  0.4359  0.5827
  418SOL    HW2 1745   2.945   0.400   0.438  1.7038 -0.0742  0.5758
  418SOL    HW3 1746   2.885   0.414   0.577 -0.5883 -0.0104 -0.3908
  418SOL    MW4 1747   2.946   0.435   0.518  0.1292  0.3097  0.4534
  419SOL     OW 1748   3.233   0.767   0.738 -0.0436 -0.2058 -0.0548
  419SOL    HW2 1749   3.192   0.853   0.727  1.0524  0.5618  1.4970
  419SOL    HW3 1750   3.306   0.768   0.676 -1.1921 -0.8180 -1.4476
  419SOL    MW4 1751   3.237   0.779   0.729 -0.0508 -0.1853 -0.0339
  420SOL     OW 1752   2.678   4.589   0.392 -0.0212 -0.1686 -0.5400
  420SOL    HW2 1753   2.739   4.587   0.318 -2.1664 -1.7021 -2.3510
  420SOL    HW3 1754   2.670   4.497   0.419 -0.6497  0.1570  0.3900
  420SOL    MW4 1755   2.685   4.576   0.386 -0.3872 -0.3281 -0.6563
  421SOL     OW 1756   2.932   1.200   0.368  0.3142 -0.1150  0.3926
  421SOL    HW2 1757   2.996   1.256   0.413  0.9859 -1.0588  0.6284
  421SOL    HW3 1758   2.850   1.249   0.372  1.1546  1.3882 -0.4516
  421SOL    MW4 1759   2.930   1.214   0.375  0.5133 -0.0411  0.3123
  422SOL     OW 1760   3.132   1.352   0.514  0.2997 -0.3200 -0.2672
  422SOL    HW2 1761   3.208   1.307   0.549  0.2827  0.7819  1.2150
  422SOL    HW3 1762   3.098   1.404   0.587 -1.6059 -0.4335 -1.0282
  422SOL    MW4 1763   3.137   1.353   0.528  0.0463 -0.1895 -0.1720
  423SOL     OW 1764   3.298   1.547   0.765 -0.2187  0.1334  0.4214
  423SOL    HW2 1765   3.321   1.537   0.858  0.7213  0.7518  0.2647
  423SOL    HW3 1766   3.267   1.637   0.757  1.5304  0.7087 -0.2166
  423SOL    MW4 1767   3.297   1.558   0.776  0.1361  0.2909  0.3164
  424SOL     OW 1768   1.523   1.648   0.366 -0.2758 -0.2956  0.2237
  424SOL    HW2 1769   1.554   1.563   0.334 -1.0815  0.0250 -1.4659
  424SOL    HW3 1770   1.556   1.653   0.455  0.5854 -1.9774  0.0276
  424SOL    MW4 1771   1.531   1.637   0.373 -0.2683 -0.4750 -0.0251
  425SOL     OW 1772   3.254   1.821   0.746 -0.0566 -0.3309  0.0373
  425SOL    HW2 1773   3.202   1.875   0.806  1.7886  1.7820 -0.1914
  425SOL    HW3 1774   3.243   1.862   0.661  0.1056 -1.2802 -0.4452
  425SOL    MW4 1775   3.246   1.833   0.743  0.2081 -0.1776 -0.0566
  426SOL     OW 1776   3.585   1.926   0.786  0.0924 -0.8754  0.0958
  426SOL    HW2 1777   3.659   1.974   0.749  0.3390 -1.0460  0.3641
  426SOL    HW3 1778   3.515   1.991   0.795  0.1896 -0.7277 -0.2158
  426SOL    MW4 1779   3.585   1.941   0.782  0.1376 -0.8785  0.0901
  427SOL     OW 1780   2.920   2.393   0.708  0.3267 -0.0189  0.6079
  427SOL    HW2 1781   2.978   2.333   0.662  1.4233  1.7186 -0.2992
  427SOL    HW3 1782   2.904   2.350   0.792  0.9326 -1.6601 -0.0854
  427SOL    MW4 1783   2.925   2.379   0.713  0.5512 -0.0060  0.3968
  428SOL     OW 1784   2.929   1.775   0.651  0.1120 -0.2553 -0.1201
  428SOL    HW2 1785   2.944   1.868   0.667 -0.5019 -0.0795 -0.5578
  428SOL    HW3 1786   2.946   1.764   0.557  1.0188 -0.7511  0.0970
  428SOL    MW4 1787   2.933   1.786   0.640  0.1509 -0.2975 -0.1492
  429SOL     OW 1788   2.983   3.028   0.407 -0.0128 -0.3062 -0.0324
  429SOL    HW2 1789   3.064   3.065   0.370 -0.4354 -1.1913 -1.8732
  429SOL    HW3 1790   2.991   2.934   0.393 -0.5332 -0.5911  1.4803
  429SOL    MW4 1791   2.995   3.021   0.400 -0.1371 -0.4606 -0.0757
  430SOL     OW 1792   2.716   2.210   0.697 -0.6053  0.1389 -0.3013
  430SOL    HW2 1793   2.750   2.292   0.659 -1.6474 -0.2413 -2.1282
  430SOL    HW3 1794   2.792   2.152   0.700  0.2780  1.3399  1.5500
  430SOL    MW4 1795   2.731   2.213   0.692 -0.6263  0.2475 -0.2981
  431SOL     OW 1796   4.422   4.108   0.636 -0.0946 -0.0712 -0.2721
  431SOL    HW2 1797   4.335   4.078   0.662  0.0376 -0.9999 -0.9068
  431SOL    HW3 1798   4.482   4.065   0.696  0.0271 -0.4035 -0.6320
  431SOL    MW4 1799   4.418   4.099   0.647 -0.0615 -0.2375 -0.4033
  432SOL     OW 1800   2.914   3.079   1.018  0.1773 -0.0400 -0.3115
  432SOL    HW2 1801   2.920   2.985   1.038 -0.5231 -0.1497 -0.6048
  432SOL    HW3 1802   2.858   3.114   1.087  1.6661  0.4376  0.6721
  432SOL    MW4 1803   2.907   3.071   1.030  0.2813  0.0083 -0.2204
  433SOL     OW 1804   4.023   0.569   0.237  0.3028  0.0260  0.4947
  433SOL    HW2 1805   3.929   0.554   0.245 -0.1969  1.6693 -1.9114
  433SOL    HW3 1806   4.035   0.662   0.258  1.1088  0.3066 -1.0907
  433SOL    MW4 1807   4.012   0.580   0.241  0.3428  0.2798 -0.0319
  434SOL     OW 1808   3.052   3.378   0.461  0.1845 -0.5383  0.1817
  434SOL    HW2 1809   3.082   3.391   0.551  1.1695 -0.2609 -0.1810
  434SOL    HW3 1810   3.055   3.465   0.421 -1.6426 -0.3930  0.2819
  434SOL    MW4 1811   3.056   3.391   0.467  0.0732 -0.4826  0.1470
  435SOL     OW 1812   2.284   2.737   0.688 -0.1308 -0.4188 -0.6383
  435SOL    HW2 1813   2.282   2.730   0.783 -0.4601 -1.9362 -0.7435
  435SOL    HW3 1814   2.376   2.753   0.667 -0.2416  1.1137  0.0003
  435SOL    MW4 1815   2.296   2.738   0.697 -0.1888 -0.4168 -0.5679
  436SOL     OW 1816   1.939   2.979   0.318 -0.3253 -0.3983 -0.4582
  436SOL    HW2 1817   1.844   2.979   0.326 -0.2165 -1.3473  0.9405
  436SOL    HW3 1818   1.966   3.066   0.349 -0.6497 -0.5338  0.1951
  436SOL    MW4 1819   1.930   2.990   0.323 -0.3538 -0.5412 -0.1875
  437SOL     OW 1820   3.447   3.888   0.744  0.0131 -0.2654  0.7000
  437SOL    HW2 1821   3.411   3.895   0.832 -0.7532  1.0606  0.2971
  437SOL    HW3 1822   3.377   3.847   0.693  0.0706 -0.1076  0.4922
  437SOL    MW4 1823   3.433   3.883   0.749 -0.0806 -0.0699  0.6194
  438SOL     OW 1824   3.413   0.167   0.620  0.5920  0.3527  0.4782
  438SOL    HW2 1825   3.476   0.162   0.547 -0.1942  0.9474 -0.2496
  438SOL    HW3 1826   3.437   0.247   0.667  0.6829  0.3161  0.4954
  438SOL    MW4 1827   3.425   0.177   0.616  0.5002  0.4263  0.3844
  439SOL     OW 1828   3.734   0.506   0.587  0.0041 -0.0759 -0.5478
  439SOL    HW2 1829   3.766   0.574   0.646 -0.0086  0.2085 -0.8653
  439SOL    HW3 1830   3.768   0.424   0.623  0.4928  0.1548 -0.4889
  439SOL    MW4 1831   3.742   0.504   0.600  0.0668 -0.0080 -0.5819
  440SOL     OW 1832   3.548   4.426   0.619 -0.0490  0.1110  0.3451
  440SOL    HW2 1833   3.505   4.478   0.687  3.2525  1.2730  1.6835
  440SOL    HW3 1834   3.540   4.336   0.648 -0.6556  0.4021  1.0940
  440SOL    MW4 1835   3.541   4.421   0.632  0.3066  0.3033  0.6204
  441SOL     OW 1836   3.405   4.612   0.782  0.0313 -0.0113  0.3373
  441SOL    HW2 1837   3.407   4.630   0.876  0.0630  0.0401  0.3271
  441SOL    HW3 1838   3.413   4.698   0.741 -0.0865 -0.0254  0.2873
  441SOL    MW4 1839   3.407   4.626   0.789  0.0200 -0.0067  0.3294
  442SOL     OW 1840   3.594   1.123   0.728 -0.2348 -0.2306 -0.3625
  442SOL    HW2 1841   3.597   1.112   0.823 -1.3053 -0.4805 -0.3457
  442SOL    HW3 1842   3.619   1.038   0.693  1.6998  0.3042 -0.3287
  442SOL    MW4 1843   3.597   1.110   0.736 -0.1206 -0.1931 -0.3558
  443SOL     OW 1844   3.975   1.603   0.641 -0.6037 -0.0315  0.1570
  443SOL    HW2 1845   4.059   1.562   0.657 -0.4154 -0.0551 -0.8514
  443SOL    HW3 1846   3.955   1.582   0.550 -1.0546  1.1158 -0.0224
  443SOL    MW4 1847   3.983   1.595   0.631 -0.6382  0.1168  0.0002
  444SOL     OW 1848   3.655   0.894   0.602  0.7617 -0.3421 -0.0547
  444SOL    HW2 1849   3.706   0.848   0.668  1.6258  0.6758  0.0050
  444SOL    HW3 1850   3.715   0.902   0.527  0.4416  0.2156 -0.2529
  444SOL    MW4 1851   3.670   0.889   0.601  0.8335 -0.1342 -0.0730
  445SOL     OW 1852   3.843   1.257   0.700 -0.3053 -0.1948 -0.1651
  445SOL    HW2 1853   3.762   1.206   0.713  0.2240 -1.0958 -0.3576
  445SOL    HW3 1854   3.817   1.347   0.719 -1.0853 -0.6220  0.8792
  445SOL    MW4 1855   3.829   1.262   0.704 -0.3383 -0.3701 -0.0527
  446SOL     OW 1856   3.790   0.978   0.331  0.1654  0.4376  0.2154
  446SOL    HW2 1857   3.878   0.940   0.329  0.1170  0.3583 -0.7982
  446SOL    HW3 1858   3.804   1.072   0.328  0.2115  0.4166 -0.2822
  446SOL    MW4 1859   3.803   0.985   0.331  0.1650  0.4244  0.0160
  447SOL     OW 1860   4.141   2.166   0.383  0.0322  0.1944 -0.1046
  447SOL    HW2 1861   4.061   2.218   0.387  0.0873  0.1885  1.4650
  447SOL    HW3 1862   4.114   2.080   0.351 -0.5066  0.3239  0.0124
  447SOL    MW4 1863   4.127   2.162   0.379 -0.0315  0.2108  0.1179
  448SOL     OW 1864   3.761   1.511   0.780 -0.5370 -0.5071  0.6092
  448SOL    HW2 1865   3.692   1.560   0.736 -0.8702 -1.2941  0.2582
  448SOL    HW3 1866   3.842   1.554   0.752 -0.9746  2.2365  3.2245
  448SOL    MW4 1867   3.763   1.523   0.771 -0.6387 -0.2489  0.9080
  449SOL     OW 1868   3.803   2.035   0.624  0.0116  0.2214 -0.0926
  449SOL    HW2 1869   3.773   1.997   0.541 -0.7783 -1.3176  0.8796
  449SOL    HW3 1870   3.863   1.969   0.660 -0.3766  0.4606  1.0102
  449SOL    MW4 1871   3.807   2.022   0.618 -0.1438  0.0498  0.1811
  450SOL     OW 1872   1.989   2.724   0.145 -0.2159 -0.0536 -0.5055
  450SOL    HW2 1873   1.914   2.725   0.204  1.3946  0.0072  1.6414
  450SOL    HW3 1874   1.997   2.632   0.118  1.8929 -1.1559  3.3580
  450SOL    MW4 1875   1.980   2.712   0.149  0.2748 -0.1910  0.2875
  451SOL     OW 1876   3.344   2.899   0.759  0.3973  0.0704 -0.6391
  451SOL    HW2 1877   3.259   2.930   0.726  0.3739  0.1725 -0.4837
  451SOL    HW3 1878   3.354   2.944   0.843  0.0553 -0.8466 -0.0951
  451SOL    MW4 1879   3.334   2.909   0.766  0.3490 -0.0372 -0.5468
  452SOL     OW 1880   3.109   2.655   0.702  0.1533 -0.0259  0.2418
  452SOL    HW2 1881   3.164   2.638   0.625  1.6316  0.5799  1.1479
  452SOL    HW3 1882   3.060   2.574   0.714  2.1260 -1.2302  0.4350
  452SOL    MW4 1883   3.110   2.642   0.693  0.6084 -0.1047  0.3868
  453SOL     OW 1884   2.800   2.795   0.711 -0.1077 -0.1881  0.0225
  453SOL    HW2 1885   2.780   2.780   0.803 -1.0717 -1.2128 -0.3449
  453SOL    HW3 1886   2.792   2.890   0.700  0.0322 -0.0634  1.0029
  453SOL    MW4 1887   2.796   2.806   0.721 -0.2162 -0.3068  0.1034
  454SOL     OW 1888   0.385   0.061   0.334  0.3625  0.1882 -0.3234
  454SOL    HW2 1889   0.398   0.066   0.428 -0.4883 -0.8303 -0.1359
  454SOL    HW3 1890   0.397   0.151   0.303  0.4226  0.5717  0.7817
  454SOL    MW4 1891   0.388   0.073   0.342  0.2582  0.1044 -0.1529
  455SOL     OW 1892   3.071   2.241   0.541 -0.4990 -0.1681  0.2194
  455SOL    HW2 1893   3.035   2.212   0.457 -0.8034 -1.0657  0.6569
  455SOL    HW3 1894   3.164   2.257   0.523 -0.5910 -0.2419 -0.3228
  455SOL    MW4 1895   3.079   2.239   0.528 -0.5512 -0.2964  0.2056
  456SOL     OW 1896   3.539   2.411   0.647  0.4155 -0.2277 -0.0638
  456SOL    HW2 1897   3.613   2.362   0.683 -0.1780  0.2088  1.8003
  456SOL    HW3 1898   3.526   2.484   0.708 -2.4596 -1.1043  0.4523
  456SOL    MW4 1899   3.547   2.414   0.660 -0.0422 -0.2856  0.2503
  457SOL     OW 1900   2.509   2.795   0.101  0.1842  0.2893 -0.3498
  457SOL    HW2 1901   2.544   2.846   0.174 -0.3320 -0.6226  0.5459
  457SOL    HW3 1902   2.420   2.827   0.089 -0.3117 -0.7162  0.5363
  457SOL    MW4 1903   2.502   2.806   0.109  0.0505  0.0365 -0.1147
  458SOL     OW 1904   3.733   3.883   0.431  0.1143 -0.3055  0.1120
  458SOL    HW2 1905   3.822   3.896   0.399 -0.4802  1.5536 -0.8302
  458SOL    HW3 1906   3.744   3.855   0.522  1.6697 -0.6261 -0.1616
  458SOL    MW4 1907   3.746   3.881   0.439  0.2410 -0.1028 -0.0483
  459SOL     OW 1908   3.407   3.028   0.187  0.1393  0.2899 -0.3537
  459SOL    HW2 1909   3.335   3.080   0.220  0.5479  0.6153  0.0266
  459SOL    HW3 1910   3.421   3.060   0.097  1.4320  1.9614  0.4103
  459SOL    MW4 1911   3.400   3.039   0.179  0.3636  0.5531 -0.2027
  460SOL     OW 1912   0.091   3.196   0.280 -0.4094 -0.0924 -0.1136
  460SOL    HW2 1913   0.070   3.289   0.279  0.3645  0.1004 -1.9818
  460SOL    HW3 1914   0.039   3.159   0.208 -1.2880 -1.2543  1.0925
  460SOL    MW4 1915   0.081   3.203   0.270 -0.4232 -0.2203 -0.2010
  461SOL     OW 1916   3.986   4.237   0.225  0.6116 -0.1623 -0.0944
  461SOL    HW2 1917   4.071   4.239   0.270  0.7488 -2.1949 -0.2412
  461SOL    HW3 1918   3.998   4.294   0.149  1.4205  0.6010  0.5800
  461SOL    MW4 1919   3.999   4.245   0.221  0.7362 -0.3295 -0.0248
  462SOL     OW 1920   3.736   3.865   0.729 -0.1079  0.2588  0.2322
  462SOL    HW2 1921   3.640   3.867   0.730 -0.1566 -0.0683 -1.3561
  462SOL    HW3 1922   3.757   3.777   0.696  0.7024  0.9444 -1.1074
  462SOL    MW4 1923   3.726   3.854   0.725 -0.0074  0.3059 -0.1542
  463SOL     OW 1924   3.804   0.715   0.753 -0.3670  0.0155 -0.3936
  463SOL    HW2 1925   3.810   0.707   0.849  0.4426 -1.8232 -0.5713
  463SOL    HW3 1926   3.878   0.771   0.730 -1.6140  1.9522  0.2057
  463SOL    MW4 1927   3.814   0.721   0.763 -0.4249  0.0284 -0.3380
  464SOL     OW 1928   3.137   1.037   0.738 -0.2660  0.4101 -0.3238
  464SOL    HW2 1929   3.138   1.064   0.830  1.7711 -1.2197  0.1611
  464SOL    HW3 1930   3.202   1.093   0.696  0.3311 -0.2927 -0.3400
  464SOL    MW4 1931   3.146   1.048   0.744  0.0815  0.1023 -0.2619
  465SOL     OW 1932   3.502   0.419   0.738 -0.0396 -0.2889 -0.1876
  465SOL    HW2 1933   3.569   0.457   0.681  0.9551  1.1735  1.8582
  465SOL    HW3 1934   3.539   0.427   0.826 -3.6123  2.2549  1.2042
  465SOL    MW4 1935   3.516   0.425   0.742 -0.3798  0.2397  0.2659
  466SOL     OW 1936   3.916   0.292   0.681 -0.4493  0.2795  0.2587
  466SOL    HW2 1937   3.978   0.342   0.628 -0.4723 -0.9685 -0.9614
  466SOL    HW3 1938   3.870   0.236   0.618  0.3798 -2.1223  1.7536
  466SOL    MW4 1939   3.918   0.291   0.666 -0.3428 -0.2020  0.2949
  467SOL     OW 1940   4.404   2.030   0.101 -0.4485  0.0419 -0.0903
  467SOL    HW2 1941   4.395   2.098   0.167  1.7984  1.8796 -1.6031
  467SOL    HW3 1942   4.483   1.982   0.125 -0.9264 -0.7822 -0.1412
  467SOL    MW4 1943   4.413   2.033   0.113 -0.2151  0.1757 -0.2966
  468SOL     OW 1944   4.074   1.117   0.745  0.4542 -0.9616  0.2337
  468SOL    HW2 1945   4.006   1.180   0.719  0.5259 -1.1605 -0.4515
  468SOL    HW3 1946   4.055   1.097   0.837 -0.9633 -1.7117 -0.2051
  468SOL    MW4 1947   4.062   1.123   0.754  0.2770 -1.0867  0.0854
  469SOL     OW 1948   3.358   1.207   0.588 -0.0506 -0.2508 -0.4749
  469SOL    HW2 1949   3.429   1.181   0.646  0.5811  0.1635 -1.0639
  469SOL    HW3 1950   3.354   1.137   0.522  0.3083  0.1082 -0.8782
  469SOL    MW4 1951   3.367   1.194   0.587  0.0799 -0.1488 -0.6058
  470SOL     OW 1952   3.896   2.790   0.303  0.2666  0.6079  0.2798
  470SOL    HW2 1953   3.811   2.774   0.343 -0.7202 -0.0970 -2.0106
  470SOL    HW3 1954   3.915   2.882   0.322 -1.2262  0.8923  0.4021
  470SOL    MW4 1955   3.887   2.800   0.311 -0.0606  0.5524 -0.0063
  471SOL     OW 1956   4.211   1.482   0.733  0.3205  0.2134 -0.1139
  471SOL    HW2 1957   4.225   1.481   0.828  1.1087 -0.2075 -0.2233
  471SOL    HW3 1958   4.242   1.396   0.704  0.1453  0.3687 -0.7573
  471SOL    MW4 1959   4.217   1.470   0.742  0.4015  0.1782 -0.2133
  472SOL     OW 1960   0.864   1.683   0.646  0.0808 -0.0528 -0.3439
  472SOL    HW2 1961   0.881   1.765   0.693  2.2196 -0.6887  0.0530
  472SOL    HW3 1962   0.778   1.655   0.678 -0.6262  1.9468 -0.3943
  472SOL    MW4 1963   0.854   1.690   0.657  0.2697  0.1271 -0.2981
  473SOL     OW 1964   3.973   1.888   0.745 -0.0307 -0.2815 -0.3831
  473SOL    HW2 1965   4.054   1.934   0.721  0.8692 -0.6718  1.7428
  473SOL    HW3 1966   3.985   1.799   0.711  0.2226 -0.2073 -0.4929
  473SOL    MW4 1967   3.985   1.883   0.737  0.1214 -0.3233 -0.1171
  474SOL     OW 1968   4.441   2.416   0.687 -0.1584  0.5973  0.4876
  474SOL    HW2 1969   4.441   2.505   0.721  0.5806  1.0959 -0.7676
  474SOL    HW3 1970   4.521   2.377   0.722 -1.3386 -0.1308  2.4148
  474SOL    MW4 1971   4.451   2.423   0.696 -0.2160  0.5670  0.5762
  475SOL     OW 1972   4.216   2.270   0.763 -0.3917  0.4373  0.2798
  475SOL    HW2 1973   4.142   2.323   0.734  0.4969  2.2381  1.2374
  475SOL    HW3 1974   4.293   2.318   0.732  0.4160 -0.5375  0.7653
  475SOL    MW4 1975   4.216   2.283   0.755 -0.1674  0.5462  0.4702
  476SOL     OW 1976   0.338   1.659   0.443 -0.7260  0.3930 -0.0062
  476SOL    HW2 1977   0.388   1.716   0.385 -0.1214  1.1855  1.2840
  476SOL    HW3 1978   0.251   1.655   0.404 -0.5248  1.4994 -0.5798
  476SOL    MW4 1979   0.333   1.666   0.430 -0.6197  0.6436  0.0884
  477SOL     OW 1980   3.939   1.769   0.224  0.4405 -0.1206  0.0146
  477SOL    HW2 1981   4.014   1.822   0.252 -0.2061  0.8895 -0.1266
  477SOL    HW3 1982   3.968   1.727   0.143  0.7474  0.5189 -0.2081
  477SOL    MW4 1983   3.953   1.771   0.217  0.3958  0.0969 -0.0334
  478SOL     OW 1984   2.988   1.840   0.084 -0.5271  0.2545 -0.3184
  478SOL    HW2 1985   2.942   1.875   0.008  0.6117 -0.2426 -1.2634
  478SOL    HW3 1986   3.014   1.752   0.058 -0.6731 -0.1601  0.8899
  478SOL    MW4 1987   2.986   1.833   0.071 -0.3960  0.1342 -0.2837
  479SOL     OW 1988   0.287   3.386   0.541 -0.3655  0.4639 -0.3760
  479SOL    HW2 1989   0.258   3.452   0.604 -1.8951 -2.7247  2.3461
  479SOL    HW3 1990   0.381   3.400   0.533 -0.5147  2.3302  0.8747
  479SOL    MW4 1991   0.295   3.397   0.548 -0.5870  0.2894  0.1481
  480SOL     OW 1992   0.527   1.608   0.122  0.2311  0.2512 -0.0661
  480SOL    HW2 1993   0.517   1.689   0.172 -1.8648  0.2613 -0.4861
  480SOL    HW3 1994   0.606   1.622   0.070 -1.9032  3.4012 -2.6436
  480SOL    MW4 1995   0.536   1.620   0.122 -0.3270  0.6680 -0.4616
  481SOL     OW 1996   3.869   3.039   0.718 -0.1390  0.1735  0.1986
  481SOL    HW2 1997   3.857   3.031   0.812  1.1978  0.7763  0.4289
  481SOL    HW3 1998   3.844   2.954   0.683  3.1320 -1.4040  1.4920
  481SOL    MW4 1999   3.864   3.027   0.726  0.4687  0.0446  0.3996
  482SOL     OW 2000   0.180   0.063   0.819  0.0650  0.3159 -0.1551
  482SOL    HW2 2001   0.093   0.080   0.781 -0.1542  0.1705  0.2844
  482SOL    HW3 2002   0.206  -0.022   0.783 -0.8882 -0.6357  1.3688
  482SOL    MW4 2003   0.172   0.054   0.809 -0.0896  0.1711  0.1039
  483SOL     OW 2004   4.224   0.245   0.329  0.4458 -0.1990 -0.1813
  483SOL    HW2 2005   4.169   0.293   0.392  0.8636  1.0953 -0.7899
  483SOL    HW3 2006   4.175   0.165   0.312 -0.8910  0.5833 -0.1233
  483SOL    MW4 2007   4.210   0.241   0.335  0.3247  0.0750 -0.2539
  484SOL     OW 2008   4.048   3.496   0.711 -0.1528  0.3627 -0.4237
  484SOL    HW2 2009   4.058   3.524   0.802  1.2508  0.9036 -0.7306
  484SOL    HW3 2010   3.959   3.524   0.687  0.2701  2.1795  0.1006
  484SOL    MW4 2011   4.037   3.503   0.720  0.0882  0.6738 -0.3951
  485SOL     OW 2012   4.040   4.451   0.657 -0.2867  0.3402  0.0489
  485SOL    HW2 2013   4.106   4.490   0.714  1.1869 -1.2695 -0.5343
  485SOL    HW3 2014   3.961   4.502   0.674  1.3623  3.0492 -0.0832
  485SOL    MW4 2015   4.038   4.463   0.666  0.1254  0.4854 -0.0455
  486SOL     OW 2016   3.462   0.750   0.485  0.0211  0.1154  0.0127
  486SOL    HW2 2017   3.531   0.793   0.536  0.1384 -0.8431  0.7012
  486SOL    HW3 2018   3.502   0.735   0.399  1.2278 -1.7710  0.8614
  486SOL    MW4 2019   3.477   0.753   0.481  0.1957 -0.2599  0.2155
  487SOL     OW 2020   0.237   0.000   1.089 -0.0359  0.1912 -0.1903
  487SOL    HW2 2021   0.317   0.046   1.113 -0.2087  0.9094 -0.9512
  487SOL    HW3 2022   0.210   0.040   1.006 -0.9286 -0.3533 -0.1745
  487SOL    MW4 2023   0.244   0.011   1.081 -0.1765  0.2141 -0.2887
  488SOL     OW 2024   4.477   0.132   1.190 -0.3881 -0.2296 -0.1564
  488SOL    HW2 2025   4.412   0.077   1.147  0.8209 -1.4986 -0.3687
  488SOL    HW3 2026   4.561   0.101   1.158  0.4163  0.3785  1.2851
  488SOL    MW4 2027   4.480   0.121   1.180 -0.1221 -0.3168  0.0058
  489SOL     OW 2028   4.442   0.383   1.058  0.3581 -0.3469  0.2773
  489SOL    HW2 2029   4.354   0.411   1.083  0.0562 -0.7266 -0.3554
  489SOL    HW3 2030   4.447   0.292   1.084  0.4875 -0.3869  0.1104
  489SOL    MW4 2031   4.431   0.375   1.065  0.3357 -0.4023  0.1719
  490SOL     OW 2032   0.202   0.492   1.149 -0.0909  0.3388 -0.1065
  490SOL    HW2 2033   0.215   0.575   1.103  0.1101  0.1020 -0.4820
  490SOL    HW3 2034   0.119   0.459   1.115  1.3954 -1.2123 -2.4570
  490SOL    MW4 2035   0.193   0.499   1.138  0.1317  0.1029 -0.4662
  491SOL     OW 2036   0.233   0.733   1.030 -0.6057 -0.3378 -0.5672
  491SOL    HW2 2037   0.306   0.788   1.057 -0.5525  0.1758 -1.7316
  491SOL    HW3 2038   0.157   0.771   1.074 -0.3919 -0.0152 -0.4773
  491SOL    MW4 2039   0.232   0.745   1.039 -0.5704 -0.2275 -0.7088
  492SOL     OW 2040   0.028   0.882   1.140  0.2775  0.0685  0.2192
  492SOL    HW2 2041   0.036   0.892   1.235  2.0887 -0.9965  0.1859
  492SOL    HW3 2042  -0.055   0.835   1.128  0.6035 -0.8220  1.3579
  492SOL    MW4 2043   0.018   0.877   1.151  0.5594 -0.1895  0.3649
  493SOL     OW 2044   0.027   1.144   1.039 -0.0433  0.2645 -0.5171
  493SOL    HW2 2045  -0.057   1.178   1.069  0.3009  0.6717 -0.0176
  493SOL    HW3 2046   0.029   1.053   1.070 -0.3009  0.2489 -0.5448
  493SOL    MW4 2047   0.016   1.136   1.047 -0.0319  0.3161 -0.4548
  494SOL     OW 2048   0.253   1.313   1.099 -0.3231  0.1571 -0.0542
  494SOL    HW2 2049   0.334   1.264   1.082 -0.2608  0.2156  0.0685
  494SOL    HW3 2050   0.183   1.250   1.084 -0.2568  0.1194 -0.2098
  494SOL    MW4 2051   0.254   1.298   1.095 -0.3062  0.1599 -0.0585
  495SOL     OW 2052   0.226   1.561   0.992 -0.5867 -0.2224  0.2676
  495SOL    HW2 2053   0.247   1.473   1.023  0.4659  0.1625  0.6913
  495SOL    HW3 2054   0.206   1.549   0.899  1.7949 -0.6232 -0.2414
  495SOL    MW4 2055   0.226   1.548   0.983 -0.1336 -0.2246  0.2563
  496SOL     OW 2056   4.478   1.633   1.113  0.2476  0.2747  0.1734
  496SOL    HW2 2057   4.454   1.722   1.087 -1.9886 -0.8872 -1.9295
  496SOL    HW3 2058   4.562   1.617   1.070  0.1414  0.9931 -0.3120
  496SOL    MW4 2059   4.486   1.643   1.104 -0.0615  0.2162 -0.1681
  497SOL     OW 2060   4.431   1.904   1.052 -0.2735  0.1199 -0.3379
  497SOL    HW2 2061   4.357   1.945   1.096 -0.4952  0.0866 -0.6811
  497SOL    HW3 2062   4.408   1.905   0.959  0.3076  0.4294 -0.4840
  497SOL    MW4 2063   4.418   1.910   1.046 -0.2260  0.1564 -0.4023
  498SOL     OW 2064   0.166   2.066   1.157 -0.0537  0.0943  0.1971
  498SOL    HW2 2065   0.134   2.145   1.113  0.3086 -0.8348 -1.7971
  498SOL    HW3 2066   0.099   2.001   1.139 -0.5900  0.0378  2.2474
  498SOL    MW4 2067   0.153   2.068   1.149 -0.0766 -0.0358  0.2044
  499SOL     OW 2068   0.140   2.348   1.054  0.4076  0.3017 -0.4165
  499SOL    HW2 2069   0.210   2.396   1.098 -0.0045  0.1967  0.3582
  499SOL    HW3 2070   0.060   2.392   1.081  0.1361  0.1342 -0.9362
  499SOL    MW4 2071   0.139   2.360   1.063  0.3174  0.2658 -0.3828
  500SOL     OW 2072   4.387   2.457   1.128 -0.8625  0.3706 -0.1761
  500SOL    HW2 2073   4.402   2.449   1.222 -0.7390  0.7909 -0.1597
  500SOL    HW3 2074   4.339   2.378   1.104 -1.5049  0.5962  0.3619
  500SOL    MW4 2075   4.383   2.446   1.137 -0.9308  0.4556 -0.1030
  501SOL     OW 2076   0.150   2.870   1.165 -0.3179 -0.1988 -0.4825
  501SOL    HW2 2077   0.085   2.808   1.132 -0.4099  0.0896 -0.8420
  501SOL    HW3 2078   0.166   2.841   1.255 -0.8741 -0.3226 -0.4191
  501SOL    MW4 2079   0.144   2.858   1.173 -0.4034 -0.1769 -0.5215
  502SOL     OW 2080   0.206   2.802   1.436  0.0038 -0.1557 -0.2379
  502SOL    HW2 2081   0.291   2.765   1.460  0.2115 -1.2171 -2.5329
  502SOL    HW3 2082   0.142   2.749   1.484  0.5248 -0.5938 -0.0241
  502SOL    MW4 2083   0.209   2.790   1.446  0.1000 -0.3536 -0.5125
  503SOL     OW 2084   0.423   3.237   1.129  0.1399 -0.2165 -0.1427
  503SOL    HW2 2085   0.427   3.331   1.112 -0.2116 -0.2348 -0.3267
  503SOL    HW3 2086   0.329   3.218   1.136  0.2115 -0.5533 -0.1120
  503SOL    MW4 2087   0.411   3.247   1.127  0.1030 -0.2632 -0.1628
  504SOL     OW 2088   0.215   3.637   1.097 -0.1196  0.2081  0.2443
  504SOL    HW2 2089   0.221   3.647   1.192  0.7795 -1.3163  0.3613
  504SOL    HW3 2090   0.302   3.606   1.071 -0.6581 -0.2970 -0.9640
  504SOL    MW4 2091   0.227   3.634   1.106 -0.0720 -0.0596  0.1004
  505SOL     OW 2092   4.477   3.554   0.924 -0.3484 -0.3000 -0.3134
  505SOL    HW2 2093   4.523   3.584   1.003 -0.1142 -0.4765 -0.3812
  505SOL    HW3 2094   4.489   3.459   0.924 -0.5744 -0.3307 -0.4207
  505SOL    MW4 2095   4.484   3.545   0.935 -0.3473 -0.3276 -0.3365
  506SOL     OW 2096   0.119   3.572   0.679  0.5446 -0.2076 -0.1457
  506SOL    HW2 2097   0.081   3.592   0.764 -0.6924 -0.4538 -0.6154
  506SOL    HW3 2098   0.123   3.656   0.634 -0.4883 -0.3267 -0.4881
  506SOL    MW4 2099   0.114   3.586   0.684  0.2451 -0.2556 -0.2529
  507SOL     OW 2100   0.212   3.916   1.044  0.1375  0.5210  0.2016
  507SOL    HW2 2101   0.215   3.820   1.036  1.9077  0.3578  2.3182
  507SOL    HW3 2102   0.134   3.933   1.097 -1.3939  0.4367 -1.9435
  507SOL    MW4 2103   0.202   3.905   1.049  0.1690  0.4880  0.1978
  508SOL     OW 2104   4.460   4.005   1.124 -0.6683  0.3415 -0.4496
  508SOL    HW2 2105   4.442   4.016   1.217 -0.9208  0.6796 -0.5344
  508SOL    HW3 2106   4.383   3.960   1.090  0.6931 -2.4459  0.0329
  508SOL    MW4 2107   4.447   4.001   1.132 -0.5217  0.0186 -0.3972
  509SOL     OW 2108   4.489   4.273   1.001 -0.1364  0.1026 -0.2418
  509SOL    HW2 2109   4.547   4.313   1.065 -1.4689 -0.3896  1.3040
  509SOL    HW3 2110   4.489   4.180   1.023 -0.7488 -0.0455 -0.8293
  509SOL    MW4 2111   4.496   4.266   1.012 -0.3929  0.0176 -0.1154
  510SOL     OW 2112   0.180   4.401   1.159  0.1570 -0.3804  0.1633
  510SOL    HW2 2113   0.203   4.382   1.250  1.1306  0.6638  0.1552
  510SOL    HW3 2114   0.203   4.493   1.148 -1.0861 -0.1887 -0.8016
  510SOL    MW4 2115   0.186   4.411   1.170  0.1215 -0.2174  0.0349
  511SOL     OW 2116   0.663   4.642   1.021  0.3745  0.0706 -0.1383
  511SOL    HW2 2117   0.750   4.679   1.034 -0.0547  0.7283  0.9761
  511SOL    HW3 2118   0.664   4.561   1.071  0.1275  0.4242  0.4437
  511SOL    MW4 2119   0.675   4.636   1.029  0.2853  0.2036  0.0855
  512SOL     OW 2120   0.466   0.118   1.171  0.1076  0.3161  0.1709
  512SOL    HW2 2121   0.469   0.207   1.138  1.0458  1.0676  2.2046
  512SOL    HW3 2122   0.534   0.072   1.121 -0.9332  0.5011 -1.4581
  512SOL    MW4 2123   0.475   0.123   1.160  0.0941  0.4397  0.2244
  513SOL     OW 2124   0.437   0.365   1.049  0.1696  0.0136 -0.6385
  513SOL    HW2 2125   0.363   0.417   1.080  1.1313  0.7602  0.4287
  513SOL    HW3 2126   0.416   0.346   0.958 -1.1466  0.5580 -0.4627
  513SOL    MW4 2127   0.424   0.369   1.041  0.1228  0.1839 -0.4745
  514SOL     OW 2128   0.670   0.486   1.114  0.0858 -0.5059 -0.2108
  514SOL    HW2 2129   0.665   0.568   1.066  0.7147 -0.4437 -0.1702
  514SOL    HW3 2130   0.583   0.447   1.104 -0.0905 -0.0230 -0.5582
  514SOL    MW4 2131   0.658   0.491   1.106  0.1455 -0.4340 -0.2513
  515SOL     OW 2132   0.671   0.729   1.003 -0.0044  0.0678 -0.7086
  515SOL    HW2 2133   0.607   0.789   1.043  0.8934  0.4406  0.1856
  515SOL    HW3 2134   0.646   0.726   0.911  0.6865  2.7808 -1.0248
  515SOL    MW4 2135   0.659   0.737   0.996  0.2052  0.4749 -0.6323
  516SOL     OW 2136   0.454   0.887   1.113 -0.4662 -0.0730  0.0999
  516SOL    HW2 2137   0.446   0.901   1.208 -1.4248 -1.3495  0.2299
  516SOL    HW3 2138   0.459   0.975   1.076  0.9070  0.4345  1.4064
  516SOL    MW4 2139   0.454   0.900   1.121 -0.4115 -0.1745  0.2894
  517SOL     OW 2140   0.468   1.144   1.041  0.2881  0.2623  0.2502
  517SOL    HW2 2141   0.480   1.160   0.947  0.2925  1.5031  0.4483
  517SOL    HW3 2142   0.546   1.183   1.082  0.1192  0.0337  0.7931
  517SOL    MW4 2143   0.480   1.151   1.034  0.2664  0.3957  0.3480
  518SOL     OW 2144   0.694   1.278   1.140 -0.2219  0.4835 -0.1877
  518SOL    HW2 2145   0.768   1.239   1.094 -1.1763  0.3581 -1.6736
  518SOL    HW3 2146   0.680   1.362   1.096 -1.0050  0.4639  0.0090
  518SOL    MW4 2147   0.702   1.284   1.128 -0.4512  0.4643 -0.3577
  519SOL     OW 2148   0.664   1.563   1.030  0.2533 -0.2970  0.4523
  519SOL    HW2 2149   0.738   1.599   1.080  0.4012 -0.2768  0.2187
  519SOL    HW3 2150   0.589   1.614   1.060  0.3933 -0.0744  0.4311
  519SOL    MW4 2151   0.664   1.574   1.041  0.2912 -0.2651  0.4189
  520SOL     OW 2152   0.425   1.724   1.091 -0.5440 -0.0336  0.5612
  520SOL    HW2 2153   0.418   1.706   1.185  0.4900  1.3252  0.9041
  520SOL    HW3 2154   0.357   1.669   1.052  0.2273 -2.0078  1.9077
  520SOL    MW4 2155   0.415   1.714   1.098 -0.3058 -0.1149  0.7842
  521SOL     OW 2156   0.395   1.982   1.025 -0.3640  0.3244  0.3982
  521SOL    HW2 2157   0.405   1.891   1.054 -0.3501  0.5515  1.1162
  521SOL    HW3 2158   0.318   2.014   1.071 -1.0246  0.3481 -0.7051
  521SOL    MW4 2159   0.386   1.974   1.035 -0.4494  0.3575  0.3473
  522SOL     OW 2160   0.629   2.102   1.138  0.1588  0.0576  0.2947
  522SOL    HW2 2161   0.624   2.080   1.231 -0.8019  0.7445  0.4156
  522SOL    HW3 2162   0.550   2.062   1.100  1.7815 -2.3598 -0.7049
  522SOL    MW4 2163   0.618   2.093   1.145  0.2462 -0.1709  0.1788
  523SOL     OW 2164   0.624   2.361   1.062  0.0196  0.0766  0.0532
  523SOL    HW2 2165   0.546   2.402   1.101 -2.1708 -1.0174 -3.0078
  523SOL    HW3 2166   0.625   2.273   1.098  0.3516  0.3365  0.7068
  523SOL    MW4 2167   0.614   2.355   1.072 -0.2256 -0.0336 -0.2643
  524SOL     OW 2168   0.350   2.499   1.153 -0.4169  0.1576  0.5398
  524SOL    HW2 2169   0.375   2.485   1.244 -0.4791 -1.6401  0.3057
  524SOL    HW3 2170   0.370   2.591   1.136 -0.5100  0.5387  2.3952
  524SOL    MW4 2171   0.356   2.509   1.163 -0.4373 -0.0293  0.7536
  525SOL     OW 2172   0.379   2.760   1.061  0.2375  0.1980 -0.3564
  525SOL    HW2 2173   0.351   2.727   0.976  0.1615 -0.4837 -0.0688
  525SOL    HW3 2174   0.303   2.809   1.094  0.3555  0.6821 -0.7849
  525SOL    MW4 2175   0.365   2.762   1.055  0.2431  0.1721 -0.3749
  526SOL     OW 2176   0.643   2.848   1.129  0.1455 -0.6373 -0.3301
  526SOL    HW2 2177   0.654   2.936   1.093 -2.3458 -0.1855 -0.1211
  526SOL    HW3 2178   0.559   2.818   1.094  0.3394 -2.4118  0.6365
  526SOL    MW4 2179   0.633   2.856   1.120 -0.1576 -0.8121 -0.1750
  527SOL     OW 2180   0.682   3.108   1.012 -0.0861 -0.4200  0.2509
  527SOL    HW2 2181   0.602   3.143   1.050  0.6386  1.1705  0.3391
  527SOL    HW3 2182   0.752   3.161   1.050  0.8290 -0.3029 -1.5483
  527SOL    MW4 2183   0.681   3.119   1.022  0.1303 -0.1948  0.0253
  528SOL     OW 2184   0.474   3.513   1.021 -0.3595  0.0825  0.1995
  528SOL    HW2 2185   0.547   3.557   1.065 -0.3579 -0.9785  1.2906
  528SOL    HW3 2186   0.514   3.472   0.944 -0.1852  1.1776 -0.2995
  528SOL    MW4 2187   0.489   3.513   1.017 -0.3363  0.0870  0.2776
  529SOL     OW 2188   0.734   3.406   0.362  0.3341  0.3200 -0.2940
  529SOL    HW2 2189   0.791   3.478   0.337  0.7845  0.1311  0.1889
  529SOL    HW3 2190   0.661   3.448   0.409  0.0162  0.5698 -1.0064
  529SOL    MW4 2191   0.732   3.421   0.365  0.3516  0.3283 -0.3243
  530SOL     OW 2192   0.705   3.620   1.112 -0.2289 -0.1987 -0.0400
  530SOL    HW2 2193   0.693   3.610   1.206 -1.4771 -1.2902 -0.2971
  530SOL    HW3 2194   0.700   3.715   1.097 -1.6361 -0.1179  0.7925
  530SOL    MW4 2195   0.703   3.631   1.122 -0.5792 -0.3321  0.0360
  531SOL     OW 2196   0.661   3.899   1.105 -0.3956  0.1491  0.0497
  531SOL    HW2 2197   0.580   3.943   1.133  0.2752  2.5900 -1.7629
  531SOL    HW3 2198   0.655   3.896   1.010  1.3075 -0.3824 -0.0469
  531SOL    MW4 2199   0.649   3.904   1.096 -0.0824  0.4010 -0.2022
  532SOL     OW 2200   0.412   4.054   1.175  0.6801 -0.3336  0.1732
  532SOL    HW2 2201   0.425   4.137   1.129 -0.3687  1.3956  2.8636
  532SOL    HW3 2202   0.345   4.009   1.123  0.5197  0.9550 -0.7784
  532SOL    MW4 2203   0.405   4.059   1.162  0.5206  0.0644  0.4027
  533SOL     OW 2204   0.445   4.301   1.042  0.1731 -0.1391  0.2787
  533SOL    HW2 2205   0.498   4.336   1.113 -0.3575 -0.8826  1.0456
  533SOL    HW3 2206   0.356   4.330   1.062  0.3033  1.3278 -1.1422
  533SOL    MW4 2207   0.440   4.310   1.054  0.1203 -0.0439  0.1924
  534SOL     OW 2208   0.656   4.420   1.167 -0.5543  0.3336  0.0684
  534SOL    HW2 2209   0.672   4.423   1.261  0.3384 -0.0703 -0.0624
  534SOL    HW3 2210   0.728   4.367   1.132 -0.1392  1.5853 -1.0030
  534SOL    MW4 2211   0.668   4.413   1.175 -0.3817  0.4454 -0.0901
  535SOL     OW 2212   1.124   4.625   0.958  0.5160  0.2180  0.4411
  535SOL    HW2 2213   1.125   4.531   0.978 -2.2223  0.0027 -0.3007
  535SOL    HW3 2214   1.143   4.629   0.864  2.8453  0.5771  0.8982
  535SOL    MW4 2215   1.127   4.613   0.948  0.4619  0.2375  0.4035
  536SOL     OW 2216   0.914   0.093   1.094 -0.0565 -0.3052  0.0768
  536SOL    HW2 2217   0.922   0.075   1.188  0.4881  0.0510  0.1041
  536SOL    HW3 2218   0.985   0.042   1.054  0.9670  1.1066  0.0713
  536SOL    MW4 2219   0.925   0.084   1.101  0.1504 -0.0719  0.0796
  537SOL     OW 2220   0.927   0.382   1.046 -0.0000  0.1273 -0.3792
  537SOL    HW2 2221   0.914   0.296   1.084  2.2861  1.2279  3.1638
  537SOL    HW3 2222   0.843   0.426   1.056 -0.6337 -1.0515 -0.4919
  537SOL    MW4 2223   0.914   0.377   1.052  0.2181  0.1170  0.0733
  538SOL     OW 2224   1.109   0.530   1.155  0.3443  0.2636  0.0162
  538SOL    HW2 2225   1.096   0.530   1.249  0.4309 -0.8611  0.0430
  538SOL    HW3 2226   1.038   0.474   1.122  0.9924 -0.2748 -0.4743
  538SOL    MW4 2227   1.098   0.522   1.163  0.4412  0.0442 -0.0449
  539SOL     OW 2228   1.117   0.767   0.993  0.1981 -0.0723 -0.2036
  539SOL    HW2 2229   1.039   0.812   1.025 -0.6626 -0.6628 -1.4283
  539SOL    HW3 2230   1.115   0.681   1.035  0.1480 -0.1094 -0.2810
  539SOL    MW4 2231   1.107   0.761   1.003  0.0780 -0.1551 -0.3754
  540SOL     OW 2232   0.888   0.887   1.093  0.3577 -0.1871  0.4666
  540SOL    HW2 2233   0.872   0.897   1.187  0.2769  1.3058  0.3029
  540SOL    HW3 2234   0.816   0.832   1.062 -0.3989  0.4770  1.0367
  540SOL    MW4 2235   0.877   0.881   1.101  0.2472  0.0975  0.5202
  541SOL     OW 2236   0.892   1.149   1.008  0.8045 -0.0198  0.1764
  541SOL    HW2 2237   0.961   1.179   1.068  0.2161 -2.1819  1.9940
  541SOL    HW3 2238   0.880   1.057   1.029 -0.9450 -0.2864 -1.8238
  541SOL    MW4 2239   0.899   1.141   1.019  0.4959 -0.3402  0.1522
  542SOL     OW 2240   1.097   1.232   1.168  0.3731 -0.0144  0.0031
  542SOL    HW2 2241   1.110   1.255   1.260 -1.2269  1.4007 -0.1198
  542SOL    HW3 2242   1.186   1.217   1.135  1.1804  2.2762  1.0461
  542SOL    MW4 2243   1.111   1.233   1.176  0.2686  0.4746  0.1245
  543SOL     OW 2244   1.105   1.474   1.030 -0.2381 -0.0134 -0.3365
  543SOL    HW2 2245   1.082   1.392   1.073 -1.1260 -0.1295 -1.0167
  543SOL    HW3 2246   1.066   1.468   0.943 -0.5482  1.2329 -0.3016
  543SOL    MW4 2247   1.097   1.463   1.024 -0.3963  0.1358 -0.4218
  544SOL     OW 2248   0.900   1.666   1.146  0.3623 -0.0637 -0.4277
  544SOL    HW2 2249   0.877   1.749   1.106  0.2476 -1.1079 -2.6392
  544SOL    HW3 2250   0.987   1.645   1.109  0.6591 -0.6289  0.5662
  544SOL    MW4 2251   0.909   1.674   1.136  0.3863 -0.2760 -0.5884
  545SOL     OW 2252   0.845   1.916   1.065 -0.5506 -0.0872 -0.0619
  545SOL    HW2 2253   0.925   1.960   1.094 -0.7656  0.3169 -0.0810
  545SOL    HW3 2254   0.774   1.978   1.086 -0.9819 -0.9682  1.1214
  545SOL    MW4 2255   0.846   1.930   1.072 -0.6359 -0.1502  0.0917
  546SOL     OW 2256   1.072   2.041   1.149 -0.1034  0.1333  0.1423
  546SOL    HW2 2257   1.078   2.067   1.241 -2.1597  0.4372  0.2093
  546SOL    HW3 2258   1.063   2.124   1.102  0.0720 -0.0771 -0.2596
  546SOL    MW4 2259   1.072   2.056   1.155 -0.3515  0.1459  0.0982
  547SOL     OW 2260   1.097   2.317   1.004 -0.2222 -0.0541 -0.4871
  547SOL    HW2 2261   1.171   2.345   1.057  0.1885  0.7968 -1.4919
  547SOL    HW3 2262   1.021   2.359   1.044 -0.2794 -1.4680  0.9537
  547SOL    MW4 2263   1.097   2.326   1.016 -0.1757 -0.1287 -0.4296
  548SOL     OW 2264   0.891   2.441   1.123 -0.0194 -0.2213  0.4161
  548SOL    HW2 2265   0.885   2.417   1.216 -1.1475  0.2524  0.4722
  548SOL    HW3 2266   0.803   2.424   1.089 -0.0485  1.1550 -0.1922
  548SOL    MW4 2267   0.878   2.435   1.131 -0.1721  0.0229  0.3431
  549SOL     OW 2268   0.894   2.714   1.075 -0.1098  0.3295  0.1089
  549SOL    HW2 2269   0.880   2.624   1.102 -0.6084 -0.0953 -1.4695
  549SOL    HW3 2270   0.825   2.763   1.119 -1.4644 -0.4840 -1.0416
  549SOL    MW4 2271   0.883   2.709   1.084 -0.3543  0.1662 -0.2511
  550SOL     OW 2272   1.159   2.766   1.133  0.1315  0.1248  0.1069
  550SOL    HW2 2273   1.155   2.781   1.227  1.3089 -2.9922  0.6915
  550SOL    HW3 2274   1.074   2.727   1.111  0.3680 -0.4204  0.1413
  550SOL    MW4 2275   1.147   2.763   1.142  0.3181 -0.3583  0.1886
  551SOL     OW 2276   1.105   3.047   1.057 -0.1362 -0.1932 -0.1057
  551SOL    HW2 2277   1.131   2.970   1.108  0.9702  0.4264  0.2723
  551SOL    HW3 2278   1.102   3.016   0.966  3.0057 -0.0292 -0.3072
  551SOL    MW4 2279   1.108   3.033   1.052  0.4243 -0.0896 -0.0823
  552SOL     OW 2280   0.890   3.235   1.148  0.1801 -0.0429  0.2231
  552SOL    HW2 2281   0.911   3.327   1.133  0.0886  0.0245  0.5069
  552SOL    HW3 2282   0.968   3.187   1.120 -0.0701  0.0623 -0.6910
  552SOL    MW4 2283   0.903   3.241   1.142  0.1350 -0.0200  0.1401
  553SOL     OW 2284   0.957   3.502   1.122  0.0632  0.0379 -0.6046
  553SOL    HW2 2285   0.870   3.541   1.123  0.1895  0.3495 -1.4042
  553SOL    HW3 2286   0.986   3.509   1.031  1.1519  0.4527 -0.2418
  553SOL    MW4 2287   0.949   3.508   1.110  0.2235  0.1335 -0.6621
  554SOL     OW 2288   1.188   3.670   1.138 -0.3352 -0.1249 -0.1640
  554SOL    HW2 2289   1.253   3.635   1.078 -1.9237 -1.1351 -1.3214
  554SOL    HW3 2290   1.124   3.600   1.148  0.1152 -0.1421  3.0691
  554SOL    MW4 2291   1.188   3.656   1.132 -0.4854 -0.2606  0.1098
  555SOL     OW 2292   1.106   3.901   1.008 -0.0592 -0.3112 -0.2711
  555SOL    HW2 2293   1.028   3.934   1.053 -0.7401 -0.6137 -1.2213
  555SOL    HW3 2294   1.125   3.817   1.050 -1.4828 -1.2278 -1.4182
  555SOL    MW4 2295   1.098   3.894   1.019 -0.3368 -0.4718 -0.5479
  556SOL     OW 2296   0.881   4.019   1.192 -0.1190 -0.4484  0.0099
  556SOL    HW2 2297   0.868   4.030   1.286  1.5628 -1.2353  0.3516
  556SOL    HW3 2298   0.801   3.978   1.161 -0.9083  0.3272  1.0077
  556SOL    MW4 2299   0.869   4.015   1.200 -0.0012 -0.4501  0.1866
  557SOL     OW 2300   0.862   4.263   1.079 -0.1008  0.1910  0.0301
  557SOL    HW2 2301   0.869   4.182   1.129 -0.5732  0.0028 -0.2057
  557SOL    HW3 2302   0.861   4.234   0.988 -0.7593  0.4298 -0.0374
  557SOL    MW4 2303   0.863   4.248   1.074 -0.2501  0.1974 -0.0099
  558SOL     OW 2304   1.120   4.359   1.080  0.1599  0.1136 -0.1950
  558SOL    HW2 2305   1.152   4.357   1.170 -0.2721  1.0552 -0.0149
  558SOL    HW3 2306   1.038   4.310   1.082  0.0235  0.3490 -0.0221
  558SOL    MW4 2307   1.114   4.353   1.092  0.0849  0.2689 -0.1483
  559SOL     OW 2308   1.574   4.664   0.989 -0.4036  0.2945  0.2013
  559SOL    HW2 2309   1.646   4.710   1.031  0.1115 -0.0288 -0.3266
  559SOL    HW3 2310   1.568   4.581   1.037  1.0106 -0.6176 -1.1716
  559SOL    MW4 2311   1.582   4.659   1.001 -0.1491  0.1321 -0.0495
  560SOL     OW 2312   1.332   0.134   1.051  0.4763  0.3811 -0.4196
  560SOL    HW2 2313   1.418   0.097   1.034  0.5717 -0.3255  1.4467
  560SOL    HW3 2314   1.272   0.079   1.000  1.0205  0.1369 -0.7935
  560SOL    MW4 2315   1.335   0.122   1.042  0.5606  0.2557 -0.2228
  561SOL     OW 2316   1.355   0.417   1.031  0.6075 -0.3774  0.2129
  561SOL    HW2 2317   1.336   0.323   1.032  0.0926 -0.2852 -0.6008
  561SOL    HW3 2318   1.276   0.458   1.065 -0.2543 -0.0741 -2.0428
  561SOL    MW4 2319   1.342   0.410   1.035  0.4258 -0.3252 -0.1919
  562SOL     OW 2320   1.578   0.530   1.150 -0.2824  0.3342 -0.1420
  562SOL    HW2 2321   1.577   0.621   1.121 -1.9286  0.5397  0.5265
  562SOL    HW3 2322   1.494   0.494   1.120  0.4443 -1.0242 -0.5857
  562SOL    MW4 2323   1.567   0.537   1.142 -0.4036  0.1820 -0.1123
  563SOL     OW 2324   1.559   0.770   1.046  0.6169 -0.4000 -0.0930
  563SOL    HW2 2325   1.635   0.826   1.063 -1.3096  1.7872  1.6370
  563SOL    HW3 2326   1.540   0.782   0.953  1.1793  0.6239 -0.0817
  563SOL    MW4 2327   1.567   0.779   1.036  0.4370  0.0236  0.1366
  564SOL     OW 2328   1.318   0.923   1.146 -0.0047  0.2371 -0.1251
  564SOL    HW2 2329   1.389   0.865   1.121  0.9703  1.3138  0.0931
  564SOL    HW3 2330   1.242   0.892   1.097  0.0579 -2.2879  1.2859
  564SOL    MW4 2331   1.317   0.912   1.136  0.1322  0.0460  0.0898
  565SOL     OW 2332   1.351   1.170   1.048  1.2882 -0.1988  0.1574
  565SOL    HW2 2333   1.340   1.081   1.082 -2.0997  0.7663  1.8290
  565SOL    HW3 2334   1.319   1.166   0.958 -0.0093 -0.4188  0.6232
  565SOL    MW4 2335   1.345   1.158   1.041  0.6700 -0.1004  0.4394
  566SOL     OW 2336   1.565   1.323   1.157  0.0927  0.0022  0.0929
  566SOL    HW2 2337   1.639   1.278   1.117  0.4339  0.5656  0.0743
  566SOL    HW3 2338   1.489   1.269   1.137  0.1587  0.6176 -1.8825
  566SOL    MW4 2339   1.565   1.310   1.149  0.1465  0.1577 -0.1700
  567SOL     OW 2340   1.542   1.598   1.068  0.0445  0.1383  0.1405
  567SOL    HW2 2341   1.625   1.639   1.092  0.6521 -0.3505 -1.0836
  567SOL    HW3 2342   1.558   1.504   1.079 -0.2809  0.0315 -0.3265
  567SOL    MW4 2343   1.555   1.591   1.073  0.0818  0.0596 -0.0824
  568SOL     OW 2344   1.276   1.668   1.068 -0.3509  0.1383  0.1622
  568SOL    HW2 2345   1.367   1.638   1.064 -0.2087  0.5219  0.5342
  568SOL    HW3 2346   1.225   1.589   1.051  0.0347 -0.2214  0.6453
  568SOL    MW4 2347   1.281   1.654   1.065 -0.2813  0.1415  0.2749
  569SOL     OW 2348   1.315   1.950   1.066 -0.4570 -0.0125 -0.2040
  569SOL    HW2 2349   1.292   1.858   1.055 -1.0493 -0.0763  1.3998
  569SOL    HW3 2350   1.234   1.992   1.094  0.1772  0.7006  0.6128
  569SOL    MW4 2351   1.301   1.943   1.068 -0.4514  0.0733  0.1154
  570SOL     OW 2352   1.581   2.044   1.100 -0.4959  0.0258  0.3005
  570SOL    HW2 2353   1.564   2.134   1.073 -1.8663 -0.4150 -0.3095
  570SOL    HW3 2354   1.496   2.000   1.096 -0.0403 -1.0270  1.6429
  570SOL    MW4 2355   1.568   2.050   1.096 -0.6167 -0.1712  0.3972
  571SOL     OW 2356   1.548   2.289   0.997  0.0589  0.1807  0.0735
  571SOL    HW2 2357   1.476   2.318   1.053 -0.1563 -0.1839 -0.0128
  571SOL    HW3 2358   1.508   2.272   0.912  0.2168 -0.1628  0.0659
  571SOL    MW4 2359   1.533   2.290   0.993  0.0514  0.0873  0.0612
  572SOL     OW 2360   1.343   2.409   1.139 -0.1775  0.2440 -0.0328
  572SOL    HW2 2361   1.358   2.414   1.234  2.7887 -0.2257 -0.4319
  572SOL    HW3 2362   1.362   2.497   1.107 -2.6895  0.8204 -0.0419
  572SOL    MW4 2363   1.347   2.421   1.147 -0.1177  0.2582 -0.0865
  573SOL     OW 2364   1.383   2.660   1.012 -0.3157 -0.6473 -0.1433
  573SOL    HW2 2365   1.435   2.738   1.031  1.5857 -1.7534 -0.7569
  573SOL    HW3 2366   1.292   2.689   1.024  0.3805  1.5068  0.1633
  573SOL    MW4 2367   1.378   2.674   1.016  0.0269 -0.5090 -0.1838
  574SOL     OW 2368   1.517   2.885   1.077  0.2117 -0.1966 -0.4094
  574SOL    HW2 2369   1.602   2.847   1.056  0.7001  0.5549  0.1842
  574SOL    HW3 2370   1.518   2.970   1.033  0.2319  0.3062  0.5592
  574SOL    MW4 2371   1.529   2.891   1.069  0.2787 -0.0308 -0.2033
  575SOL     OW 2372   1.494   3.133   0.954 -0.1445  0.1354 -0.5813
  575SOL    HW2 2373   1.580   3.165   0.984  0.1513 -0.6542 -0.5664
  575SOL    HW3 2374   1.431   3.178   1.009  0.2655  0.7123 -0.5803
  575SOL    MW4 2375   1.497   3.143   0.965 -0.0514  0.1073 -0.5792
  576SOL     OW 2376   1.305   3.236   1.127  0.1090  0.5430  0.4092
  576SOL    HW2 2377   1.320   3.232   1.222  2.2892  2.5355  0.2080
  576SOL    HW3 2378   1.226   3.184   1.113  0.2662 -0.5518  3.2016
  576SOL    MW4 2379   1.296   3.229   1.138  0.4174  0.6616  0.7511
  577SOL     OW 2380   1.352   3.488   1.001 -0.1879  0.0392 -0.1359
  577SOL    HW2 2381   1.343   3.402   1.041 -0.7889 -0.0426 -0.4302
  577SOL    HW3 2382   1.363   3.470   0.907  0.0801  0.2634 -0.1468
  577SOL    MW4 2383   1.352   3.474   0.994 -0.2320  0.0582 -0.1762
  578SOL     OW 2384   1.549   3.617   1.143  0.1353  0.0487  0.2694
  578SOL    HW2 2385   1.549   3.699   1.094 -1.9204 -0.6089 -0.9055
  578SOL    HW3 2386   1.487   3.561   1.096  0.7470 -1.8324  1.6296
  578SOL    MW4 2387   1.541   3.620   1.130 -0.0553 -0.2861  0.2937
  579SOL     OW 2388   1.555   3.885   1.017 -0.1138 -0.1781 -0.3264
  579SOL    HW2 2389   1.473   3.910   1.057 -0.7338 -1.2715 -0.8827
  579SOL    HW3 2390   1.548   3.916   0.927 -0.1182 -0.6883 -0.5036
  579SOL    MW4 2391   1.544   3.892   1.010 -0.1962 -0.3896 -0.4232
  580SOL     OW 2392   1.339   3.996   1.130  0.3236 -0.0998 -0.2390
  580SOL    HW2 2393   1.361   4.071   1.076 -3.1328  1.3443  0.2236
  580SOL    HW3 2394   1.260   3.959   1.090 -1.0742 -0.2679  2.5677
  580SOL    MW4 2395   1.331   4.001   1.118 -0.3167  0.0691  0.1924
  581SOL     OW 2396   1.347   4.244   0.995  0.0387 -0.1689  0.1643
  581SOL    HW2 2397   1.268   4.296   1.012  0.6308  0.3547  1.3785
  581SOL    HW3 2398   1.337   4.214   0.904 -2.4074 -1.6460  0.8953
  581SOL    MW4 2399   1.336   4.247   0.985 -0.2060 -0.2947  0.4209
  582SOL     OW 2400   1.558   4.396   1.129 -0.5686  0.0768  0.2448
  582SOL    HW2 2401   1.545   4.409   1.223  0.0858 -1.4133  0.5461
  582SOL    HW3 2402   1.495   4.328   1.105 -0.1325 -0.1587 -0.2317
  582SOL    MW4 2403   1.548   4.389   1.138 -0.4249 -0.1507  0.2216
  583SOL     OW 2404   2.022   0.037   0.934  0.3925  0.5550 -0.3475
  583SOL    HW2 2405   2.043  -0.050   0.966 -2.3568 -0.2206 -0.5739
  583SOL    HW3 2406   2.057   0.039   0.845 -1.1053 -0.9485 -0.9802
  583SOL    MW4 2407   2.029   0.026   0.926 -0.1678  0.2542 -0.4609
  584SOL     OW 2408   1.790   0.131   1.077  0.2557  0.4824  0.4847
  584SOL    HW2 2409   1.791   0.221   1.045 -1.0589  0.3980  0.1838
  584SOL    HW3 2410   1.869   0.091   1.041  0.0362  1.0756 -0.6551
  584SOL    MW4 2411   1.801   0.138   1.068  0.0534  0.5495  0.2947
  585SOL     OW 2412   1.787   0.395   0.999  0.2942  0.4602 -0.0702
  585SOL    HW2 2413   1.711   0.435   1.042  0.2042 -0.3665  0.5407
  585SOL    HW3 2414   1.790   0.437   0.913 -0.3289  1.1390  0.2301
  585SOL    MW4 2415   1.777   0.406   0.993  0.2000  0.4407  0.0500
  586SOL     OW 2416   2.018   0.461   1.120 -0.0444  0.3642 -0.2368
  586SOL    HW2 2417   2.002   0.482   1.212  1.5680 -1.7105  0.5663
  586SOL    HW3 2418   1.936   0.421   1.090 -0.4051  0.5863  0.4385
  586SOL    MW4 2419   2.005   0.458   1.128  0.1211  0.1197 -0.0418
  587SOL     OW 2420   2.018   0.753   1.030 -0.4644  0.3717 -0.0752
  587SOL    HW2 2421   2.023   0.657   1.039  0.3640  0.5459  1.6111
  587SOL    HW3 2422   2.009   0.768   0.936  2.2322 -1.2608 -0.6372
  587SOL    MW4 2423   2.017   0.742   1.019  0.0007  0.1793  0.0733
  588SOL     OW 2424   1.791   0.870   1.128 -0.1619 -0.1285  0.4060
  588SOL    HW2 2425   1.787   0.858   1.222 -0.2163 -0.6535  0.3415
  588SOL    HW3 2426   1.866   0.818   1.100  0.3747  0.7122  0.2615
  588SOL    MW4 2427   1.800   0.862   1.136 -0.0983 -0.0868  0.3784
  589SOL     OW 2428   1.801   1.140   1.049 -0.2669  0.0182 -0.3801
  589SOL    HW2 2429   1.809   1.055   1.092 -0.1187 -0.2076 -0.8497
  589SOL    HW3 2430   1.774   1.119   0.959 -0.5711  0.4830 -0.4017
  589SOL    MW4 2431   1.799   1.126   1.042 -0.2875  0.0497 -0.4449
  590SOL     OW 2432   2.037   1.282   1.128  0.0365  0.0948 -0.2844
  590SOL    HW2 2433   2.108   1.247   1.074 -0.4790  1.4526 -1.8621
  590SOL    HW3 2434   1.959   1.235   1.098 -0.0311 -0.1002  0.1985
  590SOL    MW4 2435   2.036   1.271   1.117 -0.0405  0.2482 -0.4289
  591SOL     OW 2436   1.970   1.529   1.013  0.2943  0.3563 -0.1040
  591SOL    HW2 2437   2.000   1.444   1.045  1.4392  0.6356 -0.3960
  591SOL    HW3 2438   1.963   1.517   0.918  0.4041  0.5673 -0.1385
  591SOL    MW4 2439   1.973   1.516   1.004  0.4599  0.4210 -0.1471
  592SOL     OW 2440   1.782   1.696   1.143  0.0515 -0.0475 -0.2363
  592SOL    HW2 2441   1.796   1.771   1.086 -0.1778  1.1911  1.2970
  592SOL    HW3 2442   1.836   1.627   1.106 -0.8665  0.4166 -2.5259
  592SOL    MW4 2443   1.791   1.697   1.131 -0.0999  0.1771 -0.3361
  593SOL     OW 2444   1.813   1.943   0.990 -0.3440  0.2937 -0.5780
  593SOL    HW2 2445   1.735   1.984   1.028  0.2266  0.9337 -0.0857
  593SOL    HW3 2446   1.792   1.932   0.898 -1.5003 -0.6826 -0.2119
  593SOL    MW4 2447   1.800   1.947   0.983 -0.4213  0.2493 -0.4647
  594SOL     OW 2448   2.051   2.052   1.077  0.0104 -0.2747  0.2675
  594SOL    HW2 2449   2.040   2.051   1.172 -0.3806  0.1143  0.2264
  594SOL    HW3 2450   1.971   2.013   1.043  0.5780 -1.3438  0.1302
  594SOL    MW4 2451   2.039   2.047   1.085  0.0336 -0.3641  0.2440
  595SOL     OW 2452   2.033   2.331   0.993 -0.3454 -0.2548  0.5846
  595SOL    HW2 2453   2.104   2.389   1.021  0.3348  0.2238 -2.0103
  595SOL    HW3 2454   2.057   2.246   1.030  1.7239 -0.1450 -0.4247
  595SOL    MW4 2455   2.046   2.327   1.001  0.0172 -0.1771  0.1091
  596SOL     OW 2456   1.778   2.424   1.091  0.3668  0.0727  0.0623
  596SOL    HW2 2457   1.858   2.398   1.046  0.2965  1.4645 -0.8993
  596SOL    HW3 2458   1.711   2.365   1.057  0.4811  0.5813 -1.0735
  596SOL    MW4 2459   1.779   2.413   1.081  0.3726  0.3233 -0.2146
  597SOL     OW 2460   1.739   2.706   1.042 -0.3509 -0.2725  0.4027
  597SOL    HW2 2461   1.735   2.623   1.090  0.6196 -1.1202 -0.9193
  597SOL    HW3 2462   1.829   2.737   1.055 -0.1702 -0.3511 -0.5745
  597SOL    MW4 2463   1.750   2.699   1.050 -0.1991 -0.3948  0.0993
  598SOL     OW 2464   2.013   2.819   1.102 -0.0426 -0.1275  0.3888
  598SOL    HW2 2465   1.992   2.910   1.080 -0.3059 -0.6209 -1.4910
  598SOL    HW3 2466   2.030   2.820   1.196  0.5710  1.9830  0.2664
  598SOL    MW4 2467   2.012   2.831   1.111  0.0038  0.0858  0.1245
  599SOL     OW 2468   1.972   3.081   1.043  0.0026 -0.1350 -0.1273
  599SOL    HW2 2469   1.888   3.124   1.058  0.3601  1.1183 -1.6223
  599SOL    HW3 2470   2.036   3.138   1.086  0.1796 -0.6254  0.2603
  599SOL    MW4 2471   1.969   3.094   1.051  0.0732 -0.0341 -0.2735
  600SOL     OW 2472   1.739   3.233   1.072 -0.6627  0.3794 -0.3314
  600SOL    HW2 2473   1.748   3.234   1.168 -2.2044  0.4404 -0.1823
  600SOL    HW3 2474   1.741   3.325   1.047  1.3301  0.3103 -0.5341
  600SOL    MW4 2475   1.741   3.245   1.082 -0.6031  0.3784 -0.3384
  601SOL     OW 2476   1.758   3.515   1.002 -0.1963  0.3364 -0.4631
  601SOL    HW2 2477   1.837   3.535   1.053  0.0198  2.0137 -1.4268
  601SOL    HW3 2478   1.688   3.562   1.048 -0.4867 -0.4233 -0.1220
  601SOL    MW4 2479   1.759   3.524   1.015 -0.2061  0.4570 -0.5454
  602SOL     OW 2480   1.992   3.644   1.125  0.0573  0.2723  0.3101
  602SOL    HW2 2481   2.001   3.654   1.220  1.8445  1.6041  0.0348
  602SOL    HW3 2482   2.049   3.571   1.103 -0.4627 -0.1241  0.2748
  602SOL    MW4 2483   2.001   3.636   1.135  0.2246  0.3958  0.2691
  603SOL     OW 2484   2.037   3.886   1.020  0.0567  0.2024 -0.1058
  603SOL    HW2 2485   1.950   3.924   1.033  0.7947  1.0870  2.4741
  603SOL    HW3 2486   2.026   3.793   1.036 -0.5566  0.1977 -0.5308
  603SOL    MW4 2487   2.024   3.879   1.024  0.0732  0.3183  0.1786
  604SOL     OW 2488   1.803   3.996   1.090  0.1186 -0.4999 -0.3938
  604SOL    HW2 2489   1.821   3.986   1.184  1.3065  0.4460 -0.5041
  604SOL    HW3 2490   1.721   3.949   1.076 -0.3288 -0.2281  1.2216
  604SOL    MW4 2491   1.794   3.988   1.101  0.2162 -0.3393 -0.1953
  605SOL     OW 2492   1.797   4.302   1.028  0.1194 -0.2510 -0.1163
  605SOL    HW2 2493   1.792   4.207   1.038 -2.0276 -0.1696 -0.3178
  605SOL    HW3 2494   1.728   4.336   1.084  0.8753  1.2075 -0.0456
  605SOL    MW4 2495   1.788   4.294   1.036 -0.0641 -0.0482 -0.1336
  606SOL     OW 2496   2.024   4.442   1.073 -0.3386  0.1730  0.2141
  606SOL    HW2 2497   2.052   4.446   1.165  1.0736  0.5774 -0.2333
  606SOL    HW3 2498   1.937   4.402   1.077 -0.3022  0.2085  1.7357
  606SOL    MW4 2499   2.016   4.437   1.086 -0.1478  0.2308  0.3558
  607SOL     OW 2500   2.460   0.018   1.039  0.6169  0.0470  0.1180
  607SOL    HW2 2501   2.525   0.071   1.086 -0.1992  2.1774 -1.1137
  607SOL    HW3 2502   2.376   0.047   1.074  0.1543 -0.2916 -0.7214
  607SOL    MW4 2503   2.458   0.029   1.050  0.4480  0.2832 -0.1552
  608SOL     OW 2504   2.205   0.146   1.137  0.3419  0.1388 -0.1474
  608SOL    HW2 2505   2.229   0.232   1.103  2.1905  0.3404  1.5841
  608SOL    HW3 2506   2.145   0.111   1.072  0.3651  2.3090 -1.3960
  608SOL    MW4 2507   2.200   0.153   1.124  0.5889  0.4518 -0.0836
  609SOL     OW 2508   2.263   0.389   1.019  0.1016  0.0533 -0.4271
  609SOL    HW2 2509   2.257   0.380   0.924 -1.9965 -1.8114 -0.1706
  609SOL    HW3 2510   2.173   0.407   1.047  0.8583  1.6658  1.1342
  609SOL    MW4 2511   2.250   0.391   1.010 -0.0756  0.0200 -0.1873
  610SOL     OW 2512   2.482   0.541   1.063  0.2780 -0.3764  0.0941
  610SOL    HW2 2513   2.506   0.538   1.156 -1.1640  1.9654  0.5904
  610SOL    HW3 2514   2.399   0.495   1.058 -0.3855  0.7975  0.2319
  610SOL    MW4 2515   2.475   0.535   1.075  0.0002  0.0875  0.1777
  611SOL     OW 2516   2.467   0.793   1.016 -0.3247  0.2652  0.4504
  611SOL    HW2 2517   2.459   0.700   1.039  1.1669 -0.0754 -0.3801
  611SOL    HW3 2518   2.474   0.793   0.921 -1.9730  1.3545  0.3162
  611SOL    MW4 2519   2.467   0.781   1.007 -0.3455  0.3639  0.3232
  612SOL     OW 2520   2.253   0.898   1.135 -0.3117  0.1346 -0.2410
  612SOL    HW2 2521   2.328   0.859   1.090 -0.7349 -0.5136 -0.3960
  612SOL    HW3 2522   2.177   0.864   1.088 -0.7650 -0.4988  0.9182
  612SOL    MW4 2523   2.253   0.888   1.123 -0.4272 -0.0345 -0.1085
  613SOL     OW 2524   2.269   1.155   1.028  0.2923 -0.8662 -0.6093
  613SOL    HW2 2525   2.347   1.189   1.072 -1.4647  0.7955  1.3310
  613SOL    HW3 2526   2.261   1.065   1.059  0.6847 -0.6073  0.2556
  613SOL    MW4 2527   2.278   1.148   1.038  0.1123 -0.6127 -0.2391
  614SOL     OW 2528   2.514   1.271   1.163  0.6678 -0.1323 -0.2649
  614SOL    HW2 2529   2.597   1.241   1.126 -0.4646 -0.0620 -3.0091
  614SOL    HW3 2530   2.496   1.354   1.117 -1.0372 -0.2732  0.0957
  614SOL    MW4 2531   2.522   1.278   1.152  0.2937 -0.1415 -0.5794
  615SOL     OW 2532   2.457   1.506   1.021 -0.5627 -0.4848 -0.5590
  615SOL    HW2 2533   2.372   1.541   1.047  0.0175  0.8919 -0.4791
  615SOL    HW3 2534   2.469   1.537   0.931  0.2359  0.0554 -0.2689
  615SOL    MW4 2535   2.447   1.515   1.012 -0.3810 -0.2319 -0.5102
  616SOL     OW 2536   2.220   1.635   1.087 -0.1237  0.2631  0.2786
  616SOL    HW2 2537   2.235   1.715   1.037 -1.4066 -0.1491 -0.7655
  616SOL    HW3 2538   2.139   1.599   1.052  0.2902 -1.3496  0.9383
  616SOL    MW4 2539   2.212   1.641   1.076 -0.2384 -0.0042  0.2279
  617SOL     OW 2540   2.241   1.876   0.971  0.1358  0.4580 -0.1820
  617SOL    HW2 2541   2.169   1.928   1.008 -0.8342 -0.4995 -0.6739
  617SOL    HW3 2542   2.232   1.887   0.877  0.3995  0.0324 -0.2588
  617SOL    MW4 2543   2.230   1.884   0.964  0.0427  0.2756 -0.2570
  618SOL     OW 2544   2.449   2.030   1.097 -0.3282  0.2351  0.2982
  618SOL    HW2 2545   2.527   1.994   1.056 -0.7871  0.8173 -1.1042
  618SOL    HW3 2546   2.377   1.977   1.064 -0.6002  0.0450  1.1664
  618SOL    MW4 2547   2.450   2.018   1.087 -0.4244  0.2866  0.2278
  619SOL     OW 2548   2.465   2.311   1.014  0.0048 -0.5144 -0.1925
  619SOL    HW2 2549   2.428   2.230   1.049 -0.9733  0.0530  0.1263
  619SOL    HW3 2550   2.469   2.297   0.919 -0.7278 -0.7099 -0.1950
  619SOL    MW4 2551   2.461   2.299   1.006 -0.2208 -0.4656 -0.1508
  620SOL     OW 2552   2.249   2.470   1.078  0.1987 -0.1378  0.1430
  620SOL    HW2 2553   2.252   2.476   1.174 -1.3087 -3.0843  0.4149
  620SOL    HW3 2554   2.324   2.415   1.055  0.3907  0.3286 -0.3717
  620SOL    MW4 2555   2.259   2.464   1.088  0.0253 -0.4649  0.1111
  621SOL     OW 2556   2.248   2.726   0.983 -0.2330 -0.1409 -0.3171
  621SOL    HW2 2557   2.233   2.638   1.018 -0.5576  0.4819  1.1590
  621SOL    HW3 2558   2.172   2.776   1.013  0.4408  0.8801 -0.3062
  621SOL    MW4 2559   2.236   2.721   0.991 -0.1867  0.0758 -0.1209
  622SOL     OW 2560   2.479   2.855   1.078 -0.1456  0.2151 -0.3539
  622SOL    HW2 2561   2.481   2.833   1.171  0.5507 -0.7858 -0.5885
  622SOL    HW3 2562   2.398   2.815   1.046 -0.1207  0.1037 -0.2796
  622SOL    MW4 2563   2.468   2.846   1.086 -0.0501  0.0682 -0.3750
  623SOL     OW 2564   2.456   3.120   1.032 -0.5994  0.1733 -0.5909
  623SOL    HW2 2565   2.375   3.154   1.071  0.0898  1.3318 -0.1693
  623SOL    HW3 2566   2.457   3.027   1.057 -1.8521  0.1202 -0.6959
  623SOL    MW4 2567   2.445   3.112   1.040 -0.6738  0.3192 -0.5491
  624SOL     OW 2568   2.192   3.214   1.133  0.1402  0.4318 -0.4070
  624SOL    HW2 2569   2.204   3.302   1.097  2.0215 -0.1717 -1.3505
  624SOL    HW3 2570   2.224   3.221   1.223  0.2112  0.7410 -0.4536
  624SOL    MW4 2571   2.198   3.227   1.140  0.3974  0.3927 -0.5376
  625SOL     OW 2572   2.198   3.475   1.043 -0.5212  0.1234  0.6088
  625SOL    HW2 2573   2.274   3.525   1.072  1.2254 -2.6384  0.9630
  625SOL    HW3 2574   2.208   3.467   0.948 -1.1146  0.9008  0.4713
  625SOL    MW4 2575   2.209   3.481   1.035 -0.3695 -0.1385  0.6374
  626SOL     OW 2576   2.417   3.592   1.116 -0.2709 -0.0947 -0.4988
  626SOL    HW2 2577   2.437   3.579   1.209 -0.2411 -2.3880 -0.7757
  626SOL    HW3 2578   2.415   3.686   1.104 -1.6377  0.2457  2.1296
  626SOL    MW4 2579   2.420   3.602   1.127 -0.4475 -0.3521 -0.1886
  627SOL     OW 2580   2.465   3.848   1.041 -0.5873 -0.3714  0.1306
  627SOL    HW2 2581   2.401   3.919   1.042 -0.9385 -0.6946  1.1862
  627SOL    HW3 2582   2.483   3.833   0.948 -0.2785  1.3027 -0.0830
  627SOL    MW4 2583   2.459   3.855   1.029 -0.5929 -0.1931  0.2419
  628SOL     OW 2584   2.268   4.020   1.086  0.3166  0.1503  0.2246
  628SOL    HW2 2585   2.261   4.113   1.066  0.6084  0.0344 -0.4205
  628SOL    HW3 2586   2.180   3.985   1.071  0.2794  0.2651  0.1769
  628SOL    MW4 2587   2.255   4.028   1.082  0.3502  0.1507  0.1333
  629SOL     OW 2588   2.221   4.282   0.989 -0.0954 -0.0719  0.0111
  629SOL    HW2 2589   2.149   4.340   1.013 -0.3814 -0.8166  1.0000
  629SOL    HW3 2590   2.243   4.306   0.899 -1.2006  0.5388 -0.1009
  629SOL    MW4 2591   2.215   4.293   0.980 -0.2794 -0.0892  0.1268
  630SOL     OW 2592   2.450   4.390   1.119  0.0203  0.6072  0.4314
  630SOL    HW2 2593   2.366   4.368   1.079  0.0413  1.1401  0.0842
  630SOL    HW3 2594   2.465   4.482   1.096  0.5585  0.6044  0.7373
  630SOL    MW4 2595   2.441   4.399   1.111  0.0939  0.6766  0.4261
  631SOL     OW 2596   2.896   4.656   1.052  0.0442 -0.4232 -0.5047
  631SOL    HW2 2597   2.894   4.567   1.088  0.3145 -0.5607 -0.8214
  631SOL    HW3 2598   2.878   4.644   0.959 -1.9991  0.0590 -0.1849
  631SOL    MW4 2599   2.893   4.643   1.044 -0.1898 -0.3777 -0.5044
  632SOL     OW 2600   2.690   0.147   1.159  0.1074 -0.2872  0.2750
  632SOL    HW2 2601   2.674   0.122   1.250 -0.0376  0.5935  0.5012
  632SOL    HW3 2602   2.758   0.087   1.129  0.4696 -0.2954  1.1035
  632SOL    MW4 2603   2.697   0.136   1.167  0.1359 -0.1721  0.4143
  633SOL     OW 2604   2.754   0.361   0.997  0.3832  0.4460  0.1181
  633SOL    HW2 2605   2.721   0.299   1.063  0.5880  1.1044  0.8540
  633SOL    HW3 2606   2.699   0.438   1.008  0.2309  0.4524 -0.6938
  633SOL    MW4 2607   2.743   0.363   1.007  0.3905  0.5338  0.1081
  634SOL     OW 2608   2.947   0.483   1.131 -0.1826 -0.4279 -0.3462
  634SOL    HW2 2609   2.944   0.559   1.074 -2.4367 -0.8227 -0.8013
  634SOL    HW3 2610   2.875   0.427   1.101 -0.7415 -1.1383  2.1535
  634SOL    MW4 2611   2.937   0.485   1.120 -0.5538 -0.5737 -0.0765
  635SOL     OW 2612   2.895   0.744   0.990 -0.2743  0.5382  0.4086
  635SOL    HW2 2613   2.976   0.782   1.023  0.0673  0.5627 -0.4390
  635SOL    HW3 2614   2.825   0.788   1.038  0.2256  0.4379  1.2174
  635SOL    MW4 2615   2.896   0.755   1.000 -0.1633  0.5282  0.4034
  636SOL     OW 2616   2.704   0.893   1.156 -0.2605  0.1913 -0.3346
  636SOL    HW2 2617   2.723   0.971   1.105 -2.3199  0.2130 -1.1451
  636SOL    HW3 2618   2.619   0.864   1.123 -0.2867 -1.4360  1.1136
  636SOL    MW4 2619   2.695   0.899   1.145 -0.5357 -0.0205 -0.2505
  637SOL     OW 2620   2.733   1.181   1.026 -0.4055  0.4005  0.1770
  637SOL    HW2 2621   2.798   1.251   1.041 -0.7924  0.7388  0.2832
  637SOL    HW3 2622   2.709   1.191   0.934 -0.4263  0.3766  0.1800
  637SOL    MW4 2623   2.739   1.192   1.016 -0.4594  0.4419  0.1916
  638SOL     OW 2624   2.956   1.336   1.081 -0.1066 -0.2815 -0.1993
  638SOL    HW2 2625   2.943   1.334   1.176  1.9322  0.3686  0.1179
  638SOL    HW3 2626   2.932   1.425   1.055  0.7652 -0.0067 -0.0680
  638SOL    MW4 2627   2.951   1.347   1.090  0.2780 -0.1595 -0.1402
  639SOL     OW 2628   2.904   1.585   0.963  0.3628  0.3045 -0.1115
  639SOL    HW2 2629   2.982   1.624   1.002 -0.6055  0.8634  1.3492
  639SOL    HW3 2630   2.930   1.560   0.875  2.0975  0.7545  0.2606
  639SOL    MW4 2631   2.918   1.587   0.957  0.4637  0.4376  0.1303
  640SOL     OW 2632   2.660   1.681   1.095  0.1308 -0.0794 -0.2500
  640SOL    HW2 2633   2.733   1.661   1.037 -0.4272 -0.9604 -0.6529
  640SOL    HW3 2634   2.593   1.617   1.073 -0.3635  0.0371  0.8700
  640SOL    MW4 2635   2.661   1.670   1.084 -0.0079 -0.1801 -0.1553
  641SOL     OW 2636   2.667   1.927   0.987 -0.5760 -0.3767  0.0371
  641SOL    HW2 2637   2.754   1.966   0.998 -0.5320 -0.1297 -1.0660
  641SOL    HW3 2638   2.669   1.849   1.041  0.4298 -0.4991 -0.1551
  641SOL    MW4 2639   2.679   1.922   0.995 -0.4377 -0.3603 -0.1337
  642SOL     OW 2640   2.891   2.054   1.076  0.0862  0.6274  0.1912
  642SOL    HW2 2641   2.908   2.060   1.170 -1.6013  1.1417  0.4788
  642SOL    HW3 2642   2.880   2.145   1.048 -0.4887  0.4132 -0.2862
  642SOL    MW4 2643   2.892   2.067   1.085 -0.2124  0.6666  0.1662
  643SOL     OW 2644   2.891   2.315   0.974  0.4249  0.7348  0.3206
  643SOL    HW2 2645   2.963   2.376   0.990  0.4147  0.4322  1.5745
  643SOL    HW3 2646   2.818   2.352   1.025 -0.4250  1.2600 -1.2538
  643SOL    MW4 2647   2.891   2.328   0.983  0.3116  0.7644  0.2783
  644SOL     OW 2648   2.693   2.478   1.093 -0.0966 -0.3899 -0.5881
  644SOL    HW2 2649   2.708   2.476   1.188  0.3949 -0.5973 -0.6694
  644SOL    HW3 2650   2.624   2.414   1.079 -2.3138  1.7682 -0.0003
  644SOL    MW4 2651   2.686   2.469   1.104 -0.3242 -0.1323 -0.5213
  645SOL     OW 2652   2.695   2.721   0.954  0.2395 -0.2546  0.3247
  645SOL    HW2 2653   2.697   2.634   0.993  0.1599 -0.7884 -0.8317
  645SOL    HW3 2654   2.613   2.759   0.986 -0.5737 -1.2577 -0.5116
  645SOL    MW4 2655   2.684   2.714   0.963  0.1218 -0.4573  0.0619
  646SOL     OW 2656   2.918   2.808   1.107 -0.0069  0.0510 -0.2013
  646SOL    HW2 2657   2.917   2.805   1.203 -1.8792 -0.1764 -0.1966
  646SOL    HW3 2658   2.827   2.790   1.082  0.6271 -0.6739 -2.0462
  646SOL    MW4 2659   2.906   2.806   1.117 -0.1702 -0.0746 -0.4441
  647SOL     OW 2660   3.163   3.187   1.107 -0.0624  0.4306  0.2662
  647SOL    HW2 2661   3.086   3.146   1.069  1.3723 -2.3568  0.2473
  647SOL    HW3 2662   3.155   3.169   1.201  0.8721 -0.4417  0.1865
  647SOL    MW4 2663   3.151   3.179   1.115  0.2501 -0.0522  0.2532
  648SOL     OW 2664   2.703   3.226   1.119 -0.4503  0.2202 -0.2236
  648SOL    HW2 2665   2.634   3.172   1.080 -1.3749  0.6052  0.8570
  648SOL    HW3 2666   2.696   3.310   1.072 -1.5971  0.7002  0.7778
  648SOL    MW4 2667   2.693   3.230   1.108 -0.7236  0.3343  0.0511
  649SOL     OW 2668   2.961   3.193   0.757  0.1907 -0.2456  0.4639
  649SOL    HW2 2669   2.992   3.105   0.734  1.3313  0.3052 -0.1309
  649SOL    HW3 2670   2.929   3.185   0.847 -0.1034 -1.3624  0.2669
  649SOL    MW4 2671   2.961   3.180   0.766  0.3023 -0.3202  0.3594
  650SOL     OW 2672   2.882   3.612   1.072 -0.3919 -0.4148  0.7255
  650SOL    HW2 2673   2.947   3.556   1.031 -0.3997 -0.2167  0.4449
  650SOL    HW3 2674   2.798   3.573   1.047 -0.4659  0.8434 -1.1058
  650SOL    MW4 2675   2.879   3.600   1.063 -0.4025 -0.2227  0.4469
  651SOL     OW 2676   2.925   3.881   1.014  0.0809 -0.1360 -0.3676
  651SOL    HW2 2677   2.996   3.910   1.071  0.6939 -0.0223 -1.1760
  651SOL    HW3 2678   2.920   3.786   1.029  0.3501 -0.1319 -0.2489
  651SOL    MW4 2679   2.934   3.872   1.024  0.1974 -0.1204 -0.4586
  652SOL     OW 2680   2.697   3.982   1.116 -0.0036  0.2840 -0.1391
  652SOL    HW2 2681   2.774   3.945   1.073  0.5670  1.0045  0.2373
  652SOL    HW3 2682   2.624   3.929   1.085  0.7830 -1.0980  0.3217
  652SOL    MW4 2683   2.697   3.970   1.107  0.1755  0.1967 -0.0287
  653SOL     OW 2684   2.700   4.263   1.041  0.0792  0.0607  0.0246
  653SOL    HW2 2685   2.697   4.171   1.067  0.4601  0.3083  0.9752
  653SOL    HW3 2686   2.610   4.294   1.053  0.2241  0.1375  0.9324
  653SOL    MW4 2687   2.687   4.255   1.046  0.1485  0.1035  0.2698
  654SOL     OW 2688   2.915   4.400   1.161 -0.4464 -0.1197 -0.6409
  654SOL    HW2 2689   2.980   4.338   1.127 -1.1334 -0.7719 -0.7661
  654SOL    HW3 2690   2.831   4.366   1.132 -0.8209  0.9932 -0.8829
  654SOL    MW4 2691   2.913   4.387   1.153 -0.5863 -0.0596 -0.6895
  655SOL     OW 2692   3.335   4.638   1.049 -0.0533  0.7003 -0.2010
  655SOL    HW2 2693   3.403   4.692   1.089 -0.2497  0.2638  0.7482
  655SOL    HW3 2694   3.254   4.686   1.066 -0.0872  0.7384 -0.4728
  655SOL    MW4 2695   3.333   4.651   1.056 -0.0837  0.6475 -0.1117
  656SOL     OW 2696   3.115   0.136   1.114 -0.0357 -0.5250  0.0315
  656SOL    HW2 2697   3.137   0.114   1.204 -1.3912 -0.7151  0.3162
  656SOL    HW3 2698   3.040   0.081   1.092  0.4517 -0.6948 -1.3135
  656SOL    MW4 2699   3.108   0.126   1.123 -0.1502 -0.5725 -0.1084
  657SOL     OW 2700   3.187   0.393   1.030  0.1865  0.0074  0.3320
  657SOL    HW2 2701   3.180   0.298   1.034 -0.1854  0.0525  0.7642
  657SOL    HW3 2702   3.109   0.425   1.076  0.4809  0.5166  0.4775
  657SOL    MW4 2703   3.176   0.385   1.036  0.1764  0.0806  0.4081
  658SOL     OW 2704   3.391   0.517   1.157 -0.5943 -0.0496  0.1059
  658SOL    HW2 2705   3.388   0.602   1.112 -2.7123 -1.9330 -3.5741
  658SOL    HW3 2706   3.319   0.467   1.119  0.2172 -3.3300  2.6063
  658SOL    MW4 2707   3.381   0.522   1.146 -0.7668 -0.7308 -0.0498
  659SOL     OW 2708   3.354   0.750   0.993  0.1785 -0.0892  0.3472
  659SOL    HW2 2709   3.331   0.750   0.900  0.4841  1.0854  0.2622
  659SOL    HW3 2710   3.278   0.787   1.036 -0.0302 -0.7935  0.5852
  659SOL    MW4 2711   3.341   0.755   0.986  0.1915 -0.0271  0.3674
  660SOL     OW 2712   3.118   0.862   1.096 -0.0350 -0.1518 -0.4637
  660SOL    HW2 2713   3.119   0.862   1.192  0.3925  1.1290 -0.4709
  660SOL    HW3 2714   3.144   0.950   1.071 -0.0409 -0.5101 -1.7695
  660SOL    MW4 2715   3.122   0.873   1.106  0.0207 -0.0302 -0.6369
  661SOL     OW 2716   3.154   1.117   1.001  0.2605 -0.2730  0.5292
  661SOL    HW2 2717   3.225   1.174   1.032  1.0221 -0.2540 -1.2055
  661SOL    HW3 2718   3.074   1.167   1.018  0.8876  1.1552 -0.5680
  661SOL    MW4 2719   3.153   1.131   1.008  0.4437 -0.0820  0.1556
  662SOL     OW 2720   3.375   1.265   1.069  0.1296  0.0623  0.0454
  662SOL    HW2 2721   3.353   1.269   1.163  0.0240  1.2030 -0.0237
  662SOL    HW3 2722   3.378   1.356   1.041 -0.7075 -0.3071 -1.2721
  662SOL    MW4 2723   3.372   1.277   1.078  0.0055  0.1640 -0.1376
  663SOL     OW 2724   3.357   1.541   1.031 -0.0323  0.9718  0.5952
  663SOL    HW2 2725   3.433   1.580   1.075 -0.3866  0.9028  1.2816
  663SOL    HW3 2726   3.282   1.590   1.066 -0.3754  0.4642  0.5711
  663SOL    MW4 2727   3.357   1.553   1.041 -0.1240  0.8957  0.6826
  664SOL     OW 2728   3.120   1.714   1.073  0.0184 -0.0926  0.0674
  664SOL    HW2 2729   3.117   1.714   1.169 -0.2646 -1.2396  0.0720
  664SOL    HW3 2730   3.101   1.804   1.048 -1.1243 -0.0363  1.0664
  664SOL    MW4 2731   3.117   1.726   1.082 -0.1698 -0.2365  0.1998
  665SOL     OW 2732   3.110   1.956   0.954 -0.4474 -0.6811  0.0401
  665SOL    HW2 2733   3.181   1.965   1.018 -0.9043 -0.0929  0.4658
  665SOL    HW3 2734   3.033   1.994   0.997 -0.8825 -0.7600 -0.6526
  665SOL    MW4 2735   3.109   1.962   0.968 -0.5653 -0.6140  0.0048
  666SOL     OW 2736   3.309   2.026   1.120 -0.0515 -0.3215 -0.2018
  666SOL    HW2 2737   3.396   1.987   1.104 -0.3862 -0.9967 -0.4237
  666SOL    HW3 2738   3.314   2.112   1.079  0.7780 -0.0413  0.4838
  666SOL    MW4 2739   3.321   2.032   1.112  0.0136 -0.3734 -0.1407
  667SOL     OW 2740   3.319   2.254   0.962 -0.3313 -0.2565  0.7299
  667SOL    HW2 2741   3.399   2.303   0.978 -0.4944  0.6028 -0.9358
  667SOL    HW3 2742   3.248   2.313   0.989 -0.5063  0.2843 -0.8219
  667SOL    MW4 2743   3.320   2.268   0.968 -0.3760 -0.0715  0.3054
  668SOL     OW 2744   3.128   2.441   1.033  0.0446 -0.1178  0.1130
  668SOL    HW2 2745   3.129   2.424   1.128  1.3094 -0.8004 -0.0164
  668SOL    HW3 2746   3.136   2.536   1.025 -1.1089  0.0474  0.7029
  668SOL    MW4 2747   3.129   2.451   1.045  0.0589 -0.1862  0.1738
  669SOL     OW 2748   3.158   2.708   0.985  0.3847  0.0427  0.6761
  669SOL    HW2 2749   3.071   2.727   1.022  0.7429  3.0984  0.0152
  669SOL    HW3 2750   3.144   2.705   0.891  0.9804  0.2872  0.5830
  669SOL    MW4 2751   3.145   2.710   0.978  0.5107  0.4780  0.5766
  670SOL     OW 2752   3.376   2.830   1.121 -0.4675  0.0199  0.2778
  670SOL    HW2 2753   3.398   2.915   1.084 -0.6132  0.2325  0.6836
  670SOL    HW3 2754   3.291   2.808   1.082  0.2356 -0.6056 -0.9546
  670SOL    MW4 2755   3.368   2.838   1.111 -0.3943 -0.0343  0.1687
  671SOL     OW 2756   3.400   3.075   0.996 -0.5751 -0.5056 -0.7176
  671SOL    HW2 2757   3.469   3.118   1.047 -0.6242 -0.1468 -0.9458
  671SOL    HW3 2758   3.321   3.127   1.014 -0.7756 -0.8792 -0.5035
  671SOL    MW4 2759   3.398   3.088   1.005 -0.6080 -0.5076 -0.7195
  672SOL     OW 2760   3.406   3.102   0.554  0.3097  0.0532  0.1810
  672SOL    HW2 2761   3.388   3.055   0.636 -0.2325 -0.5375 -0.2678
  672SOL    HW3 2762   3.473   3.166   0.577 -0.3348  0.3657  1.2562
  672SOL    MW4 2763   3.412   3.105   0.568  0.1533  0.0162  0.2636
  673SOL     OW 2764   3.109   3.451   1.019 -0.7018 -0.4645 -0.1801
  673SOL    HW2 2765   3.116   3.370   1.068  0.3822 -0.5821 -0.5095
  673SOL    HW3 2766   3.190   3.498   1.039 -0.4858 -0.2846 -1.4330
  673SOL    MW4 2767   3.121   3.447   1.028 -0.5305 -0.4563 -0.3890
  674SOL     OW 2768   3.334   3.591   1.111 -0.0354 -0.1912 -0.0633
  674SOL    HW2 2769   3.347   3.604   1.205 -0.0719  0.9663 -0.2137
  674SOL    HW3 2770   3.420   3.560   1.080 -0.0224 -0.5714  0.3486
  674SOL    MW4 2771   3.347   3.589   1.119 -0.0389 -0.0887 -0.0287
  675SOL     OW 2772   3.363   3.858   1.023  0.0950  0.2301 -0.3254
  675SOL    HW2 2773   3.281   3.896   1.055  0.6865  0.0472  1.4904
  675SOL    HW3 2774   3.358   3.766   1.050  0.9615  0.2623 -0.0525
  675SOL    MW4 2775   3.352   3.851   1.031  0.2873  0.2103 -0.0498
  676SOL     OW 2776   3.148   3.975   1.163 -0.0029  0.1079 -0.1253
  676SOL    HW2 2777   3.144   3.958   1.257  2.0652  0.7608  0.1073
  676SOL    HW3 2778   3.131   4.068   1.155 -0.1477  0.0574 -0.3910
  676SOL    MW4 2779   3.146   3.985   1.175  0.2508  0.1874 -0.1297
  677SOL     OW 2780   3.127   4.247   1.087 -0.4233 -0.6167  0.1209
  677SOL    HW2 2781   3.190   4.315   1.112  0.6848 -1.2106 -0.9849
  677SOL    HW3 2782   3.142   4.234   0.994 -1.3562 -1.6411  0.1056
  677SOL    MW4 2783   3.137   4.254   1.078 -0.4001 -0.8302 -0.0271
  678SOL     OW 2784   3.362   4.390   1.150  0.0881  0.0750  0.3228
  678SOL    HW2 2785   3.425   4.355   1.087 -0.4864  1.4266 -1.0178
  678SOL    HW3 2786   3.347   4.480   1.122 -2.3884 -0.2004  0.6692
  678SOL    MW4 2787   3.369   4.397   1.138 -0.3147  0.2170  0.1917
  679SOL     OW 2788   3.804   0.011   0.991  0.3876 -0.1383 -0.5442
  679SOL    HW2 2789   3.797  -0.075   1.033  2.2057  0.4210  0.9990
  679SOL    HW3 2790   3.806  -0.008   0.897  0.5839 -1.7722 -0.2240
  679SOL    MW4 2791   3.804  -0.003   0.984  0.6533 -0.2799 -0.2983
  680SOL     OW 2792   3.566   0.129   1.121 -0.4476 -0.6976 -0.3732
  680SOL    HW2 2793   3.569   0.217   1.083 -1.3758 -0.0557  0.9904
  680SOL    HW3 2794   3.637   0.082   1.078  0.6935  1.0160 -0.4122
  680SOL    MW4 2795   3.575   0.135   1.110 -0.4191 -0.3868 -0.1984
  681SOL     OW 2796   3.567   0.385   1.012 -0.9754 -0.4116  0.0085
  681SOL    HW2 2797   3.653   0.415   1.040 -0.2762 -2.0075 -0.3442
  681SOL    HW3 2798   3.506   0.427   1.073 -0.0735  1.7715 -0.5621
  681SOL    MW4 2799   3.570   0.394   1.024 -0.7644 -0.3341 -0.1132
  682SOL     OW 2800   3.832   0.445   1.090  0.1147  0.0096 -0.1217
  682SOL    HW2 2801   3.888   0.407   1.023  0.4846 -0.1553  0.2814
  682SOL    HW3 2802   3.852   0.539   1.088 -0.1588  0.0596 -0.5109
  682SOL    MW4 2803   3.842   0.453   1.081  0.1273 -0.0056 -0.1198
  683SOL     OW 2804   3.807   0.711   1.042  0.5558 -0.1793 -0.0757
  683SOL    HW2 2805   3.878   0.759   1.085  0.7260  0.6607 -1.2527
  683SOL    HW3 2806   3.727   0.752   1.074  0.6759  0.3278 -0.4168
  683SOL    MW4 2807   3.806   0.723   1.052  0.5944 -0.0017 -0.2761
  684SOL     OW 2808   3.588   0.840   1.119 -0.2004  0.3257 -0.4791
  684SOL    HW2 2809   3.608   0.923   1.078 -0.1825  1.0452  0.9431
  684SOL    HW3 2810   3.504   0.814   1.080 -0.0744  0.8804 -1.1254
  684SOL    MW4 2811   3.579   0.847   1.109 -0.1814  0.4938 -0.3767
  685SOL     OW 2812   3.623   1.088   1.012  0.3873  0.1491 -0.3285
  685SOL    HW2 2813   3.697   1.133   1.053 -0.5161  0.8167  0.5951
  685SOL    HW3 2814   3.546   1.130   1.050 -0.4874  1.2396 -3.1898
  685SOL    MW4 2815   3.623   1.100   1.022  0.1528  0.3811 -0.5841
  686SOL     OW 2816   3.821   1.227   1.157 -0.0916 -0.4130 -0.1768
  686SOL    HW2 2817   3.790   1.224   1.248 -1.2339  0.5691 -0.5096
  686SOL    HW3 2818   3.826   1.321   1.137 -0.2264 -0.6252 -1.2466
  686SOL    MW4 2819   3.818   1.239   1.166 -0.2601 -0.3114 -0.3619
  687SOL     OW 2820   3.803   1.487   1.064  0.0625 -0.2668 -0.6381
  687SOL    HW2 2821   3.883   1.538   1.067  0.6127 -1.1643  0.0676
  687SOL    HW3 2822   3.775   1.491   0.972  0.5695  0.5532 -0.7607
  687SOL    MW4 2823   3.810   1.495   1.052  0.2017 -0.2772 -0.5612
  688SOL     OW 2824   3.575   1.622   1.164 -0.0964 -0.0331  0.0496
  688SOL    HW2 2825   3.592   1.712   1.135  0.7444 -0.2331 -0.1125
  688SOL    HW3 2826   3.654   1.574   1.139 -0.7032 -0.9058 -0.2181
  688SOL    MW4 2827   3.588   1.628   1.157 -0.0656 -0.1748 -0.0072
  689SOL     OW 2828   3.562   1.898   1.081  0.3185 -0.4774 -0.3214
  689SOL    HW2 2829   3.642   1.944   1.107 -0.7751  2.0478 -1.2197
  689SOL    HW3 2830   3.561   1.902   0.986 -1.7273  1.1320 -0.2789
  689SOL    MW4 2831   3.573   1.905   1.072 -0.0958  0.0682 -0.4343
  690SOL     OW 2832   3.799   2.066   1.117  0.0068  1.0325  0.1411
  690SOL    HW2 2833   3.821   2.074   1.210 -0.0291 -0.1259  0.2540
  690SOL    HW3 2834   3.872   2.017   1.079 -0.8404 -0.0839 -0.0804
  690SOL    MW4 2835   3.811   2.061   1.124 -0.1099  0.7322  0.1267
  691SOL     OW 2836   3.821   2.312   1.014 -0.1919  0.1122 -0.0361
  691SOL    HW2 2837   3.898   2.353   1.054  0.5241 -1.9550  0.7659
  691SOL    HW3 2838   3.817   2.225   1.054 -3.5187  0.5353  0.6408
  691SOL    MW4 2839   3.831   2.306   1.025 -0.5362 -0.1047  0.1590
  692SOL     OW 2840   3.541   2.385   1.075  0.3144  0.2136 -0.1186
  692SOL    HW2 2841   3.534   2.394   1.170  1.5615  1.3955 -0.1257
  692SOL    HW3 2842   3.635   2.377   1.058  0.0264 -1.2583 -1.1649
  692SOL    MW4 2843   3.552   2.385   1.085  0.4411  0.1755 -0.2575
  693SOL     OW 2844   3.581   2.658   1.052 -0.2011  0.1579 -0.0691
  693SOL    HW2 2845   3.553   2.567   1.059  1.1145 -0.2938 -0.3688
  693SOL    HW3 2846   3.502   2.709   1.066 -1.2041 -1.0568 -1.1238
  693SOL    MW4 2847   3.567   2.653   1.055 -0.1600 -0.0620 -0.2478
  694SOL     OW 2848   3.823   2.834   1.102  0.2719 -0.3529 -0.1275
  694SOL    HW2 2849   3.825   2.846   1.197  0.5884 -2.3038  0.1291
  694SOL    HW3 2850   3.742   2.786   1.085  0.1062  0.1769 -0.8764
  694SOL    MW4 2851   3.813   2.829   1.112  0.2921 -0.5403 -0.1925
  695SOL     OW 2852   3.864   3.109   1.023  0.5250 -0.2882 -0.2699
  695SOL    HW2 2853   3.781   3.152   1.041 -0.1416 -0.8334 -2.0100
  695SOL    HW3 2854   3.849   3.017   1.045  0.6797 -0.3859 -0.5783
  695SOL    MW4 2855   3.851   3.102   1.028  0.4573 -0.3731 -0.5403
  696SOL     OW 2856   3.620   3.210   1.105 -0.2535  0.2124 -0.0369
  696SOL    HW2 2857   3.603   3.305   1.109 -1.9002 -0.0675 -0.0832
  696SOL    HW3 2858   3.613   3.181   1.196  0.2089  0.1213 -0.0296
  696SOL    MW4 2859   3.617   3.219   1.118 -0.4098  0.1633 -0.0421
  697SOL     OW 2860   3.558   3.464   1.032  0.2414 -0.6813 -0.2450
  697SOL    HW2 2861   3.637   3.508   1.063  0.1859 -0.7006 -0.0786
  697SOL    HW3 2862   3.570   3.457   0.937  0.5664 -0.9443 -0.1824
  697SOL    MW4 2863   3.570   3.469   1.024  0.2773 -0.7186 -0.2147
  698SOL     OW 2864   3.793   3.588   1.097 -0.1852  0.0755 -0.5209
  698SOL    HW2 2865   3.816   3.581   1.190  0.4344  1.1707 -0.5824
  698SOL    HW3 2866   3.774   3.681   1.084 -3.9050 -0.6162 -0.6586
  698SOL    MW4 2867   3.793   3.599   1.108 -0.5941  0.1285 -0.5473
  699SOL     OW 2868   3.779   3.856   1.014  0.0979  0.5933 -0.4307
  699SOL    HW2 2869   3.702   3.906   1.043 -0.1788 -0.1274  0.0775
  699SOL    HW3 2870   3.774   3.858   0.919 -0.8833  0.0366 -0.4006
  699SOL    MW4 2871   3.768   3.863   1.005 -0.0682  0.4249 -0.3595
  700SOL     OW 2872   3.565   4.010   1.099  0.6431  0.2156 -0.1230
  700SOL    HW2 2873   3.565   3.997   1.194  1.1283 -2.4328 -0.4510
  700SOL    HW3 2874   3.491   3.959   1.067  0.4486  1.1257 -1.1892
  700SOL    MW4 2875   3.555   4.002   1.107  0.6816 -0.0138 -0.3070
  701SOL     OW 2876   3.558   4.263   0.995 -0.0872 -0.4465  0.7888
  701SOL    HW2 2877   3.574   4.177   1.033  1.4815 -1.0092 -1.0691
  701SOL    HW3 2878   3.530   4.245   0.906 -1.6845  0.9207  0.9864
  701SOL    MW4 2879   3.556   4.249   0.988 -0.0908 -0.3405  0.5698
  702SOL     OW 2880   3.785   4.416   1.083 -0.3164 -0.1109  0.0408
  702SOL    HW2 2881   3.800   4.393   1.175  0.7874 -1.6441 -0.5016
  702SOL    HW3 2882   3.708   4.366   1.057  1.2086 -2.1306 -0.7202
  702SOL    MW4 2883   3.777   4.407   1.092  0.0305 -0.5798 -0.1314
  703SOL     OW 2884   4.296   4.620   1.057  0.7732  0.0468 -0.1896
  703SOL    HW2 2885   4.280   4.535   1.099  2.3411 -0.3610 -0.3875
  703SOL    HW3 2886   4.212   4.666   1.064  0.1682 -1.1554  0.7491
  703SOL    MW4 2887   4.283   4.615   1.063  0.8998 -0.1659 -0.0918
  704SOL     OW 2888   4.054   0.089   1.082  0.4843 -0.2446  0.4333
  704SOL    HW2 2889   4.040   0.104   1.175 -1.0847 -0.6412  0.2628
  704SOL    HW3 2890   3.970   0.059   1.049  1.2252 -0.8270 -0.9723
  704SOL    MW4 2891   4.041   0.087   1.090  0.3748 -0.3738  0.2254
  705SOL     OW 2892   4.020   0.336   0.936 -0.2336  0.1910  0.5689
  705SOL    HW2 2893   4.017   0.251   0.982  0.1000  0.7182  1.5799
  705SOL    HW3 2894   3.996   0.315   0.846 -1.2310 -0.8246  1.0515
  705SOL    MW4 2895   4.016   0.322   0.931 -0.3214  0.1266  0.7660
  706SOL     OW 2896   4.194   0.499   1.083 -0.6862  0.2442 -0.2049
  706SOL    HW2 2897   4.192   0.490   1.178 -0.4861  0.9264 -0.1347
  706SOL    HW3 2898   4.135   0.431   1.051 -0.7858  0.0421  0.4104
  706SOL    MW4 2899   4.186   0.489   1.091 -0.6728  0.3076 -0.1144
  707SOL     OW 2900   4.282   0.756   1.047 -0.2620  0.0946  0.1290
  707SOL    HW2 2901   4.267   0.662   1.048  0.1022  0.0350  0.3100
  707SOL    HW3 2902   4.274   0.781   0.955 -0.9322 -0.0156  0.1606
  707SOL    MW4 2903   4.279   0.747   1.035 -0.3023  0.0722  0.1571
  708SOL     OW 2904   4.021   0.849   1.145  0.4591 -0.3864 -0.0812
  708SOL    HW2 2905   4.028   0.862   1.240  0.8228  0.4752 -0.2269
  708SOL    HW3 2906   4.100   0.800   1.122 -1.1656 -3.4047  0.5472
  708SOL    MW4 2907   4.032   0.844   1.155  0.2928 -0.6709 -0.0174
  709SOL     OW 2908   4.012   1.087   1.018  0.0338 -0.6121  0.1662
  709SOL    HW2 2909   4.012   0.999   1.056  0.7117 -0.2811  0.9558
  709SOL    HW3 2910   3.944   1.134   1.067 -0.7990 -0.8877 -0.7193
  709SOL    MW4 2911   4.003   1.082   1.030  0.0134 -0.6047  0.1535
  710SOL     OW 2912   4.263   1.233   1.109  0.3077  0.1711 -0.5671
  710SOL    HW2 2913   4.250   1.243   1.203  0.6886  0.2543 -0.5252
  710SOL    HW3 2914   4.176   1.209   1.076 -0.0835  1.2615 -0.3559
  710SOL    MW4 2915   4.250   1.231   1.117  0.3061  0.3259 -0.5337
  711SOL     OW 2916   4.272   1.482   1.015 -0.1042 -0.3294 -0.4300
  711SOL    HW2 2917   4.279   1.390   1.043 -1.1410 -0.6221 -1.1078
  711SOL    HW3 2918   4.351   1.523   1.050  0.3807 -1.4836 -0.1284
  711SOL    MW4 2919   4.283   1.475   1.024 -0.1764 -0.5203 -0.4798
  712SOL     OW 2920   4.044   1.630   1.103 -0.0905 -0.3332  0.0542
  712SOL    HW2 2921   4.033   1.630   1.198  0.2771 -1.1170  0.1008
  712SOL    HW3 2922   4.124   1.579   1.089 -0.0334 -0.0486 -0.6645
  712SOL    MW4 2923   4.053   1.623   1.114 -0.0348 -0.3990 -0.0345
  713SOL     OW 2924   3.986   1.906   1.021  0.2896  0.0866 -0.2436
  713SOL    HW2 2925   3.984   1.815   1.049 -1.9604  0.3708  0.5941
  713SOL    HW3 2926   3.994   1.901   0.925  0.9437 -0.9603 -0.1448
  713SOL    MW4 2927   3.987   1.894   1.012  0.0792 -0.0141 -0.1199
  714SOL     OW 2928   4.200   1.996   1.155  0.3357  0.3672  0.5772
  714SOL    HW2 2929   4.209   2.079   1.109  0.7846  0.0146  0.0211
  714SOL    HW3 2930   4.121   1.956   1.117  1.1447 -0.2747 -0.4528
  714SOL    MW4 2931   4.190   2.001   1.144  0.5016  0.2358  0.3679
  715SOL     OW 2932   4.240   2.244   1.033  0.4225  0.3975  0.3221
  715SOL    HW2 2933   4.178   2.309   1.067  0.0644  0.6736 -0.8389
  715SOL    HW3 2934   4.232   2.251   0.938  1.0452 -0.7194  0.1811
  715SOL    MW4 2935   4.231   2.254   1.025  0.4578  0.2866  0.1503
  716SOL     OW 2936   4.057   2.420   1.110 -0.3554 -0.5761  0.1615
  716SOL    HW2 2937   4.039   2.428   1.204  1.9463 -0.7113  0.6618
  716SOL    HW3 2938   4.079   2.509   1.082 -0.4026 -0.6495 -0.1084
  716SOL    MW4 2939   4.058   2.433   1.119 -0.0582 -0.6037  0.1917
  717SOL     OW 2940   4.064   2.709   1.012  0.0653  0.3009  0.3967
  717SOL    HW2 2941   3.984   2.744   1.052  0.3617  1.7144 -0.2066
  717SOL    HW3 2942   4.046   2.710   0.918  0.5932  0.1103  0.2927
  717SOL    MW4 2943   4.051   2.714   1.004  0.1740  0.4623  0.3034
  718SOL     OW 2944   4.227   2.905   1.117  0.4579  0.4046 -0.8672
  718SOL    HW2 2945   4.224   2.987   1.068 -0.5991  0.7879 -0.1794
  718SOL    HW3 2946   4.166   2.847   1.072 -2.0131  1.3939  1.0730
  718SOL    MW4 2947   4.218   2.909   1.105 -0.0081  0.5856 -0.5205
  719SOL     OW 2948   4.253   3.118   0.902 -0.1771  0.4721 -0.0152
  719SOL    HW2 2949   4.222   3.172   0.975  0.8820 -0.0593  0.8479
  719SOL    HW3 2950   4.182   3.120   0.838 -1.2822  0.6308  1.1998
  719SOL    MW4 2951   4.240   3.126   0.903 -0.1831  0.4230  0.2590
  720SOL     OW 2952   4.103   3.253   1.099 -0.4269  0.1241 -0.4036
  720SOL    HW2 2953   4.090   3.259   1.193 -0.9048 -0.2020 -0.4419
  720SOL    HW3 2954   4.028   3.201   1.068 -0.2752  0.2287 -0.9589
  720SOL    MW4 2955   4.091   3.247   1.107 -0.4697  0.0947 -0.4820
  721SOL     OW 2956   4.037   3.502   0.992  0.1621 -0.0658 -0.5686
  721SOL    HW2 2957   4.057   3.415   1.027 -0.0017  0.4182  0.7590
  721SOL    HW3 2958   3.948   3.520   1.022  0.6220  1.0492  0.1738
  721SOL    MW4 2959   4.028   3.493   1.001  0.2012  0.1452 -0.2954
  722SOL     OW 2960   4.264   3.650   1.090  0.3190  0.0047  0.1595
  722SOL    HW2 2961   4.185   3.598   1.075  0.2478 -0.6927  2.7616
  722SOL    HW3 2962   4.322   3.628   1.017 -1.2012 -0.7779 -0.8438
  722SOL    MW4 2963   4.261   3.640   1.078  0.1087 -0.1907  0.3705
  723SOL     OW 2964   4.241   3.904   0.985  0.0556 -0.7526  0.2647
  723SOL    HW2 2965   4.162   3.933   1.030 -0.3773 -1.8741  0.2501
  723SOL    HW3 2966   4.255   3.815   1.017  0.6505 -0.9811 -0.6213
  723SOL    MW4 2967   4.232   3.896   0.995  0.0772 -0.9305  0.1459
  724SOL     OW 2968   4.007   4.010   1.093 -0.0615  0.1249 -0.4333
  724SOL    HW2 2969   3.999   4.104   1.077  0.0454  0.0679 -0.8229
  724SOL    HW3 2970   3.927   3.972   1.056 -0.0605  0.0538 -0.3623
  724SOL    MW4 2971   3.996   4.017   1.086 -0.0470  0.1082 -0.4755
  725SOL     OW 2972   4.012   4.266   0.977  0.1799  0.2081  0.4238
  725SOL    HW2 2973   3.928   4.309   0.995  0.0804  0.3314 -0.3001
  725SOL    HW3 2974   4.006   4.241   0.885  0.2128 -1.4456  0.8570
  725SOL    MW4 2975   4.000   4.269   0.967  0.1712  0.0057  0.3853
  726SOL     OW 2976   4.251   4.354   1.132 -0.2151 -0.3447  0.6032
  726SOL    HW2 2977   4.174   4.327   1.084 -1.0762 -1.0959  2.3514
  726SOL    HW3 2978   4.325   4.322   1.080 -1.1010 -0.4452 -0.5953
  726SOL    MW4 2979   4.251   4.346   1.119 -0.4454 -0.4573  0.6758
  727SOL     OW 2980   0.236   4.632   1.536  0.4025  0.0336 -0.1920
  727SOL    HW2 2981   0.304   4.693   1.508 -1.1740  2.0024  0.1572
  727SOL    HW3 2982   0.155   4.680   1.525 -0.8957 -2.0641  0.0098
  727SOL    MW4 2983   0.235   4.646   1.531  0.0232  0.0165 -0.1193
  728SOL     OW 2984   0.015   0.139   1.464  0.2730 -0.3509 -0.3150
  728SOL    HW2 2985  -0.064   0.095   1.493  0.6743 -0.1681  1.0639
  728SOL    HW3 2986   0.006   0.143   1.368 -1.0345 -0.9633 -0.2279
  728SOL    MW4 2987   0.003   0.134   1.455  0.1535 -0.4076 -0.1215
  729SOL     OW 2988   4.465   0.417   1.518 -0.2534  0.0677  0.3293
  729SOL    HW2 2989   4.458   0.409   1.614  1.3859  1.0532  0.5635
  729SOL    HW3 2990   4.459   0.328   1.486 -1.2403 -0.2342  1.3345
  729SOL    MW4 2991   4.463   0.404   1.527 -0.1678  0.1579  0.4928
  730SOL     OW 2992   0.218   0.513   1.426 -0.7813  0.3353 -0.2796
  730SOL    HW2 2993   0.133   0.470   1.440 -1.4652  1.2281 -1.6896
  730SOL    HW3 2994   0.230   0.514   1.331  1.4986 -1.0901 -0.0593
  730SOL    MW4 2995   0.209   0.507   1.416 -0.5708  0.2649 -0.4367
  731SOL     OW 2996   0.208   0.757   1.545  0.1109 -0.2389  0.5613
  731SOL    HW2 2997   0.274   0.811   1.502 -0.2502 -0.5098 -0.3355
  731SOL    HW3 2998   0.222   0.669   1.510  0.8213 -0.7936  2.1592
  731SOL    MW4 2999   0.219   0.753   1.535  0.1570 -0.3479  0.6539
  732SOL     OW 3000   0.005   0.901   1.418  0.0272 -0.2948 -0.3729
  732SOL    HW2 3001   0.004   0.991   1.452 -0.1976 -0.1139 -0.8491
  732SOL    HW3 3002   0.066   0.855   1.475  1.3168  0.5377 -1.0512
  732SOL    MW4 3003   0.013   0.907   1.430  0.1678 -0.1612 -0.5252
  733SOL     OW 3004   4.477   1.169   1.465  0.3991  0.0163 -0.0090
  733SOL    HW2 3005   4.478   1.188   1.559  0.4994 -2.0817  0.4488
  733SOL    HW3 3006   4.563   1.198   1.434  0.4280  0.5782  0.5865
  733SOL    MW4 3007   4.489   1.175   1.474  0.4158 -0.1863  0.1301
  734SOL     OW 3008   0.229   1.280   1.357 -0.1441  0.4299  0.4459
  734SOL    HW2 3009   0.210   1.362   1.401 -1.6663  0.4205 -0.1784
  734SOL    HW3 3010   0.242   1.304   1.265 -3.0123 -0.3196 -0.1806
  734SOL    MW4 3011   0.228   1.294   1.351 -0.7234  0.3299  0.2809
  735SOL     OW 3012   0.217   1.523   1.484  0.2159  0.2806  0.2668
  735SOL    HW2 3013   0.216   1.541   1.578  0.3840 -0.4070  0.4043
  735SOL    HW3 3014   0.131   1.551   1.453  0.3253  0.9360  0.5384
  735SOL    MW4 3015   0.206   1.529   1.492  0.2525  0.2763  0.3208
  736SOL     OW 3016   4.462   1.614   1.392 -0.4015 -0.6845 -0.0237
  736SOL    HW2 3017   4.472   1.702   1.428 -2.3278  0.0419 -1.1953
  736SOL    HW3 3018   4.479   1.624   1.299 -0.6825 -1.5345 -0.1679
  736SOL    MW4 3019   4.465   1.627   1.385 -0.6928 -0.7007 -0.1973
  737SOL     OW 3020   4.463   1.881   1.495  0.1749 -0.5086 -0.0665
  737SOL    HW2 3021   4.452   1.900   1.588  1.2907 -1.5446  0.2817
  737SOL    HW3 3022   4.384   1.918   1.454 -0.0685  0.4257  1.2067
  737SOL    MW4 3023   4.451   1.888   1.502  0.2904 -0.5220  0.1473
  738SOL     OW 3024   0.215   2.036   1.450  0.1834  0.1703  0.0400
  738SOL    HW2 3025   0.136   1.982   1.458 -0.1614  0.6578 -0.0574
  738SOL    HW3 3026   0.221   2.054   1.356 -0.0715  0.8562  0.1569
  738SOL    MW4 3027   0.206   2.031   1.438  0.1043  0.3250  0.0426
  739SOL     OW 3028   0.198   2.321   1.525  0.0426 -0.2276 -0.2964
  739SOL    HW2 3029   0.202   2.318   1.621 -1.4309 -1.8256 -0.2538
  739SOL    HW3 3030   0.206   2.229   1.499 -3.3144 -0.2109 -1.5283
  739SOL    MW4 3031   0.200   2.308   1.534 -0.5947 -0.4363 -0.4532
  740SOL     OW 3032   4.444   2.437   1.395  0.2850 -0.2422 -0.8610
  740SOL    HW2 3033   4.379   2.371   1.418 -0.7474  1.0247 -0.0907
  740SOL    HW3 3034   4.526   2.402   1.431 -0.5786 -0.2345  1.2072
  740SOL    MW4 3035   4.447   2.423   1.403  0.0353 -0.0741 -0.4866
  741SOL     OW 3036   4.473   2.687   1.526 -0.0192  0.2325  0.1574
  741SOL    HW2 3037   4.416   2.752   1.484  0.3636  0.1067 -0.5524
  741SOL    HW3 3038   4.461   2.607   1.475  1.4865  0.4534 -0.5564
  741SOL    MW4 3039   4.464   2.685   1.514  0.2303  0.2449 -0.0304
  742SOL     OW 3040   0.238   3.066   1.511 -0.2530  0.3084  0.2277
  742SOL    HW2 3041   0.222   2.975   1.484 -0.7538  0.5189 -0.1863
  742SOL    HW3 3042   0.235   3.063   1.606 -1.5739  0.1270  0.1870
  742SOL    MW4 3043   0.235   3.053   1.520 -0.4934  0.3123  0.1677
  743SOL     OW 3044   0.121   3.139   1.094 -0.0207  0.4166  0.3017
  743SOL    HW2 3045   0.082   3.133   1.181 -0.5445 -0.9806 -0.0210
  743SOL    HW3 3046   0.146   3.049   1.073  0.2550  0.7768 -0.9290
  743SOL    MW4 3047   0.119   3.127   1.103 -0.0534  0.2799  0.0968
  744SOL     OW 3048   0.026   3.214   1.363 -0.0971 -0.3035  0.3961
  744SOL    HW2 3049   0.050   3.306   1.373  1.2115 -0.4304 -1.4310
  744SOL    HW3 3050   0.091   3.166   1.414 -0.2962 -0.2833  0.6746
  744SOL    MW4 3051   0.038   3.220   1.371  0.0493 -0.3176  0.1917
  745SOL     OW 3052   0.018   3.489   1.458 -0.0509 -0.0917 -0.6130
  745SOL    HW2 3053  -0.005   3.468   1.548  1.6517 -0.1078 -0.1726
  745SOL    HW3 3054  -0.065   3.518   1.419 -0.6732  0.5358  1.1122
  745SOL    MW4 3055   0.004   3.490   1.465  0.0916 -0.0110 -0.3273
  746SOL     OW 3056   0.228   3.653   1.370 -0.5734  0.3446 -0.1066
  746SOL    HW2 3057   0.208   3.736   1.413 -1.9151 -0.0834  0.1293
  746SOL    HW3 3058   0.161   3.593   1.403 -0.3374 -0.5154 -1.1845
  746SOL    MW4 3059   0.216   3.656   1.380 -0.7193  0.1745 -0.2178
  747SOL     OW 3060   0.164   3.898   1.503 -0.3546 -0.3279 -0.3633
  747SOL    HW2 3061   0.171   3.887   1.598 -0.3871  0.4108 -0.2770
  747SOL    HW3 3062   0.246   3.941   1.478 -1.2743  1.4449 -0.3719
  747SOL    MW4 3063   0.176   3.902   1.512 -0.4802  0.0033 -0.3530
  748SOL     OW 3064   4.444   4.035   1.393 -0.0722  0.4308  0.2562
  748SOL    HW2 3065   4.460   4.119   1.436  0.7949 -0.7567  2.3480
  748SOL    HW3 3066   4.521   3.982   1.415 -1.4559 -1.5200  0.5388
  748SOL    MW4 3067   4.456   4.039   1.401 -0.1403  0.0167  0.5695
  749SOL     OW 3068   4.479   4.273   1.516 -0.5939 -0.2005  0.3298
  749SOL    HW2 3069   4.470   4.270   1.612  0.3204  1.3091  0.4815
  749SOL    HW3 3070   4.403   4.321   1.486  0.4434  1.6220  0.5428
  749SOL    MW4 3071   4.468   4.279   1.525 -0.3366  0.2389  0.3780
  750SOL     OW 3072   0.233   4.364   1.418  0.5677 -0.3832  0.4024
  750SOL    HW2 3073   0.150   4.340   1.458  0.4559 -0.0298  0.3823
  750SOL    HW3 3074   0.238   4.459   1.427 -0.0453 -0.1374 -1.5375
  750SOL    MW4 3075   0.223   4.373   1.424  0.4721 -0.3042  0.1438
  751SOL     OW 3076   0.679   0.007   1.516  0.4550  0.2020  0.4332
  751SOL    HW2 3077   0.754   0.021   1.458  1.3210 -0.2969  1.4109
  751SOL    HW3 3078   0.607   0.053   1.473  1.0961 -0.0852 -0.9934
  751SOL    MW4 3079   0.679   0.015   1.502  0.6539  0.0983  0.3740
  752SOL     OW 3080   0.444   0.129   1.446 -0.6647  0.1183 -0.0134
  752SOL    HW2 3081   0.438   0.224   1.462 -0.3072  0.3058 -0.9721
  752SOL    HW3 3082   0.446   0.121   1.351  2.5980 -0.6093  0.0550
  752SOL    MW4 3083   0.444   0.141   1.436 -0.1871  0.0471 -0.1308
  753SOL     OW 3084   0.435   0.394   1.533 -0.0078 -0.5457 -0.6057
  753SOL    HW2 3085   0.507   0.436   1.486 -0.1234 -0.6136 -0.8396
  753SOL    HW3 3086   0.356   0.438   1.502 -0.1023 -0.7275 -0.6249
  753SOL    MW4 3087   0.434   0.405   1.523 -0.0355 -0.5786 -0.6391
  754SOL     OW 3088   0.684   0.499   1.397  0.1570 -0.3354  0.4836
  754SOL    HW2 3089   0.694   0.593   1.414  0.4482 -0.2362 -0.1971
  754SOL    HW3 3090   0.709   0.489   1.305  1.8174 -1.3540  1.0409
  754SOL    MW4 3091   0.688   0.510   1.387  0.4145 -0.4568  0.4674
  755SOL     OW 3092   0.636   0.760   1.496 -0.1445 -0.0323  0.3488
  755SOL    HW2 3093   0.626   0.761   1.591  0.5796 -0.2356  0.4318
  755SOL    HW3 3094   0.719   0.804   1.479  0.6659 -1.6765 -0.0508
  755SOL    MW4 3095   0.645   0.766   1.506  0.0580 -0.2761  0.3071
  756SOL     OW 3096   0.435   0.912   1.391  0.0129 -0.1570  0.1672
  756SOL    HW2 3097   0.441   1.002   1.424 -0.1228 -0.4395  0.9487
  756SOL    HW3 3098   0.509   0.867   1.432 -1.4014 -1.0476  1.7628
  756SOL    MW4 3099   0.446   0.918   1.400 -0.1916 -0.3118  0.4808
  757SOL     OW 3100   0.426   1.151   1.526 -0.0937  0.2265  0.1081
  757SOL    HW2 3101   0.498   1.209   1.503 -1.0448  1.3947  0.0013
  757SOL    HW3 3102   0.353   1.181   1.472 -1.6357  1.3355  2.6958
  757SOL    MW4 3103   0.425   1.163   1.516 -0.4226  0.5270  0.4355
  758SOL     OW 3104   0.656   1.278   1.417 -0.2985 -0.7355  0.5947
  758SOL    HW2 3105   0.639   1.371   1.430  0.6588 -0.6426  1.1808
  758SOL    HW3 3106   0.660   1.267   1.322 -0.0426 -0.1148  0.5345
  758SOL    MW4 3107   0.654   1.288   1.406 -0.1384 -0.6413  0.6642
  759SOL     OW 3108   0.642   1.538   1.488  0.4426  0.2053  0.4470
  759SOL    HW2 3109   0.725   1.566   1.449  0.7547  0.5753  1.3716
  759SOL    HW3 3110   0.576   1.592   1.445  0.5300 -0.9883 -1.2372
  759SOL    MW4 3111   0.644   1.549   1.477  0.4953  0.0966  0.3468
  760SOL     OW 3112   0.429   1.682   1.372  0.4709 -0.0817 -0.5472
  760SOL    HW2 3113   0.432   1.760   1.427  0.7006 -0.3097 -0.2365
  760SOL    HW3 3114   0.372   1.621   1.420  2.0463 -0.9333  0.2973
  760SOL    MW4 3115   0.422   1.684   1.386  0.7091 -0.2241 -0.3948
  761SOL     OW 3116   0.437   1.902   1.536 -0.0813 -0.3284  0.1390
  761SOL    HW2 3117   0.439   1.921   1.630 -0.3254  1.0309 -0.1124
  761SOL    HW3 3118   0.357   1.944   1.505  1.2970  1.4812 -1.1173
  761SOL    MW4 3119   0.427   1.910   1.544  0.0683  0.0896 -0.0598
  762SOL     OW 3120   0.636   2.068   1.423 -0.0421 -0.0038  0.3561
  762SOL    HW2 3121   0.723   2.035   1.443 -0.1247 -0.3153  0.2030
  762SOL    HW3 3122   0.577   2.015   1.476 -0.3757 -1.7529 -1.6719
  762SOL    MW4 3123   0.640   2.057   1.433 -0.0970 -0.2759  0.0684
  763SOL     OW 3124   0.656   2.326   1.530 -0.6818 -0.0527 -0.1583
  763SOL    HW2 3125   0.581   2.373   1.495  0.0987  0.1840 -1.5460
  763SOL    HW3 3126   0.650   2.238   1.493 -0.0432  0.0921 -0.6141
  763SOL    MW4 3127   0.645   2.320   1.521 -0.4947 -0.0024 -0.4015
  764SOL     OW 3128   0.424   2.442   1.420 -0.3306  0.1114 -0.1431
  764SOL    HW2 3129   0.416   2.529   1.459 -1.4562  0.7216 -1.6748
  764SOL    HW3 3130   0.356   2.390   1.462 -0.2125  0.1980  0.1591
  764SOL    MW4 3131   0.414   2.447   1.431 -0.4635  0.2034 -0.3055
  765SOL     OW 3132   0.456   2.692   1.535 -0.1697  0.3081  0.1235
  765SOL    HW2 3133   0.520   2.742   1.484  0.2138  0.1181  0.4189
  765SOL    HW3 3134   0.468   2.721   1.625 -0.0879 -0.1604  0.2687
  765SOL    MW4 3135   0.466   2.702   1.540 -0.1083  0.2213  0.1816
  766SOL     OW 3136   0.659   2.830   1.413  0.0659 -0.0869  0.1651
  766SOL    HW2 3137   0.666   2.921   1.441  0.1001 -0.5971  1.8774
  766SOL    HW3 3138   0.658   2.834   1.317 -0.0037  1.7077  0.2283
  766SOL    MW4 3139   0.660   2.843   1.404  0.0612  0.0825  0.3995
  767SOL     OW 3140   0.683   3.096   1.494  0.3823  0.5162 -0.1874
  767SOL    HW2 3141   0.760   3.149   1.471  0.0822  0.1312 -2.1613
  767SOL    HW3 3142   0.608   3.151   1.471  0.0684 -0.7785 -2.4629
  767SOL    MW4 3143   0.684   3.110   1.488  0.3014  0.2944 -0.7480
  768SOL     OW 3144   0.452   3.243   1.418  0.0839 -0.1718 -0.1202
  768SOL    HW2 3145   0.403   3.174   1.463  1.5790 -0.8403  0.5145
  768SOL    HW3 3146   0.432   3.231   1.326 -1.5619  0.0660  0.1849
  768SOL    MW4 3147   0.443   3.233   1.412  0.0641 -0.2286  0.0037
  769SOL     OW 3148   0.428   3.550   1.524  0.2858 -0.0138 -0.2200
  769SOL    HW2 3149   0.420   3.456   1.507 -0.7809 -0.0068  0.1888
  769SOL    HW3 3150   0.362   3.590   1.468  0.3514  0.4439  0.0311
  769SOL    MW4 3151   0.418   3.543   1.514  0.1537  0.0477 -0.1330
  770SOL     OW 3152   0.681   3.582   1.383  0.7787  0.0885  0.4220
  770SOL    HW2 3153   0.759   3.561   1.434 -0.1198 -0.6699  1.5336
  770SOL    HW3 3154   0.609   3.575   1.447 -0.3888 -1.0204 -0.9913
  770SOL    MW4 3155   0.682   3.578   1.398  0.5062 -0.1576  0.3823
  771SOL     OW 3156   0.634   3.843   1.503  0.0709 -0.1329 -0.1610
  771SOL    HW2 3157   0.712   3.898   1.495 -0.4245  0.6196  0.0620
  771SOL    HW3 3158   0.656   3.764   1.455  0.4874  0.6196 -1.2450
  771SOL    MW4 3159   0.647   3.840   1.496  0.0604  0.0658 -0.2745
  772SOL     OW 3160   0.405   4.005   1.434 -0.7460  0.0885  0.0640
  772SOL    HW2 3161   0.489   3.960   1.447 -0.4500  0.7016  0.2989
  772SOL    HW3 3162   0.410   4.037   1.343 -1.2253 -0.9070 -0.3142
  772SOL    MW4 3163   0.417   4.004   1.423 -0.7702  0.0381  0.0452
  773SOL     OW 3164   0.458   4.271   1.514  0.3729 -0.3712 -0.2521
  773SOL    HW2 3165   0.445   4.181   1.485 -0.2624  0.2919 -2.1221
  773SOL    HW3 3166   0.379   4.317   1.484  2.1084  1.4638 -2.1038
  773SOL    MW4 3167   0.446   4.265   1.506  0.5181 -0.0415 -0.7433
  774SOL     OW 3168   0.698   4.402   1.443 -0.3962 -0.1967  0.2414
  774SOL    HW2 3169   0.617   4.352   1.455 -0.6994  0.1088 -0.4997
  774SOL    HW3 3170   0.687   4.479   1.500 -0.4005 -0.4116  0.5351
  774SOL    MW4 3171   0.686   4.406   1.452 -0.4368 -0.1845  0.1824
  775SOL     OW 3172   1.170   4.612   1.437  0.5223  0.0850 -0.7623
  775SOL    HW2 3173   1.170   4.625   1.532  1.1348 -1.4739 -0.5458
  775SOL    HW3 3174   1.233   4.676   1.405  1.1103 -0.1040 -0.0086
  775SOL    MW4 3175   1.178   4.622   1.446  0.6808 -0.1454 -0.6342
  776SOL     OW 3176   0.921   0.061   1.373 -0.0924 -0.3990 -0.0596
  776SOL    HW2 3177   0.930   0.151   1.404 -0.2237 -0.6975  0.8762
  776SOL    HW3 3178   0.996   0.015   1.412 -0.9630 -1.0576  0.8698
  776SOL    MW4 3179   0.932   0.066   1.382 -0.2246 -0.5253  0.1866
  777SOL     OW 3180   0.887   0.345   1.489  0.0451 -0.0815 -0.0081
  777SOL    HW2 3181   0.876   0.335   1.583  0.7943  0.0861  0.1000
  777SOL    HW3 3182   0.826   0.415   1.465  0.4919  0.4962  0.5034
  777SOL    MW4 3183   0.878   0.353   1.498  0.2030  0.0168  0.0736
  778SOL     OW 3184   1.125   0.501   1.442  0.4937 -0.2676  0.2066
  778SOL    HW2 3185   1.113   0.592   1.470 -0.5217  0.0260 -1.1605
  778SOL    HW3 3186   1.041   0.459   1.458  0.8808 -0.9151  0.5809
  778SOL    MW4 3187   1.113   0.507   1.448  0.4108 -0.3144  0.0757
  779SOL     OW 3188   1.095   0.777   1.529  0.7251 -0.1436  0.0635
  779SOL    HW2 3189   1.117   0.791   1.621  0.5588 -1.1101  0.2585
  779SOL    HW3 3190   1.168   0.815   1.480  1.2498 -0.4401  0.6166
  779SOL    MW4 3191   1.107   0.784   1.535  0.7725 -0.3103  0.1621
  780SOL     OW 3192   0.881   0.910   1.406  0.7089  0.3182 -0.1690
  780SOL    HW2 3193   0.955   0.862   1.442  0.5592 -0.0302 -0.3179
  780SOL    HW3 3194   0.890   0.999   1.440  1.9850  0.6389 -1.3121
  780SOL    MW4 3195   0.892   0.915   1.415  0.8575  0.3145 -0.3394
  781SOL     OW 3196   0.901   1.162   1.499  0.2107 -0.0315  0.2704
  781SOL    HW2 3197   0.881   1.174   1.592 -0.3076 -0.0407  0.1609
  781SOL    HW3 3198   0.828   1.204   1.454  0.1419 -0.5884 -0.1318
  781SOL    MW4 3199   0.889   1.169   1.506  0.1332 -0.1062  0.2029
  782SOL     OW 3200   1.119   1.303   1.444 -0.6737 -0.1967  0.2227
  782SOL    HW2 3201   1.202   1.267   1.474  0.3710  2.1792  0.2957
  782SOL    HW3 3202   1.052   1.244   1.480  0.9629 -2.1386  0.1325
  782SOL    MW4 3203   1.121   1.291   1.453 -0.3200 -0.1394  0.2204
  783SOL     OW 3204   1.108   1.551   1.593  0.1128  0.0913 -0.3057
  783SOL    HW2 3205   1.173   1.592   1.536  2.1144 -0.6580  1.3527
  783SOL    HW3 3206   1.097   1.463   1.558  1.1226 -0.2732  0.2863
  783SOL    MW4 3207   1.115   1.545   1.581  0.5101 -0.0556 -0.0087
  784SOL     OW 3208   0.894   1.656   1.438 -0.4442  0.2862 -0.0222
  784SOL    HW2 3209   0.961   1.626   1.499 -0.4751  0.4937  0.1162
  784SOL    HW3 3210   0.938   1.660   1.353 -0.6438 -0.8948 -0.1941
  784SOL    MW4 3211   0.909   1.652   1.435 -0.4746  0.1577 -0.0266
  785SOL     OW 3212   0.873   1.951   1.534 -0.2697  0.1997  0.4293
  785SOL    HW2 3213   0.957   1.982   1.501 -0.0969  0.0845  0.7582
  785SOL    HW3 3214   0.867   1.860   1.502  0.0712 -0.0363  1.0383
  785SOL    MW4 3215   0.883   1.943   1.525 -0.2019  0.1534  0.5530
  786SOL     OW 3216   1.103   2.085   1.410 -0.0148 -0.1203  0.1590
  786SOL    HW2 3217   1.183   2.033   1.413 -0.1298 -0.2758  0.5099
  786SOL    HW3 3218   1.122   2.162   1.464  0.3058  0.4138 -0.7059
  786SOL    MW4 3219   1.116   2.089   1.418  0.0123 -0.0703  0.0912
  787SOL     OW 3220   1.129   2.342   1.544  0.1203 -0.5779 -0.0721
  787SOL    HW2 3221   1.211   2.381   1.512 -0.6675  0.2977 -1.0586
  787SOL    HW3 3222   1.060   2.386   1.494 -0.9118 -1.8896  0.1525
  787SOL    MW4 3223   1.131   2.353   1.533 -0.1197 -0.6356 -0.1726
  788SOL     OW 3224   0.871   2.440   1.399  0.3916  0.5823  0.0009
  788SOL    HW2 3225   0.860   2.525   1.442 -1.2352  0.1978  0.3819
  788SOL    HW3 3226   0.811   2.382   1.445  0.1582 -0.3486 -1.4476
  788SOL    MW4 3227   0.862   2.444   1.411  0.1462  0.4086 -0.1398
  789SOL     OW 3228   0.902   2.696   1.523 -0.0950  0.5012  0.3328
  789SOL    HW2 3229   0.914   2.699   1.618 -2.0976 -0.0008  0.6153
  789SOL    HW3 3230   0.821   2.746   1.507 -0.0753  0.1141 -1.0538
  789SOL    MW4 3231   0.893   2.703   1.533 -0.3566  0.3841  0.1870
  790SOL     OW 3232   1.134   2.791   1.405 -0.0865 -0.1302  0.2905
  790SOL    HW2 3233   1.141   2.885   1.418 -0.7531  0.0222 -0.4200
  790SOL    HW3 3234   1.061   2.764   1.461  0.1656 -0.2348  0.5662
  790SOL    MW4 3235   1.125   2.800   1.414 -0.1411 -0.1240  0.2332
  791SOL     OW 3236   1.119   3.087   1.479 -0.2217  0.1196  0.0134
  791SOL    HW2 3237   1.106   3.084   1.574 -0.6336  0.9559 -0.0140
  791SOL    HW3 3238   1.204   3.130   1.468 -0.5946  0.8545 -0.0219
  791SOL    MW4 3239   1.129   3.092   1.490 -0.3253  0.3271  0.0051
  792SOL     OW 3240   0.912   3.237   1.428  0.3981 -0.5960 -0.0005
  792SOL    HW2 3241   0.986   3.178   1.443  1.8677  1.0801 -0.6151
  792SOL    HW3 3242   0.887   3.221   1.336 -0.0948 -1.2259  0.2329
  792SOL    MW4 3243   0.918   3.227   1.418  0.5270 -0.4582 -0.0508
  793SOL     OW 3244   0.900   3.511   1.524  0.0057 -0.3324  0.1936
  793SOL    HW2 3245   0.980   3.554   1.495 -1.2600  1.0816 -1.3132
  793SOL    HW3 3246   0.900   3.427   1.479  0.6210 -0.3122  0.1567
  793SOL    MW4 3247   0.910   3.506   1.515 -0.0801 -0.1435 -0.0100
  794SOL     OW 3248   1.138   3.617   1.410 -0.1952  0.5981 -0.4273
  794SOL    HW2 3249   1.224   3.582   1.434 -0.3563 -0.4814 -1.3651
  794SOL    HW3 3250   1.153   3.668   1.331 -0.2929  1.0113 -0.1794
  794SOL    MW4 3251   1.151   3.619   1.403 -0.2294  0.5100 -0.5183
  795SOL     OW 3252   1.089   3.872   1.526 -0.1108  0.0871 -0.3590
  795SOL    HW2 3253   1.164   3.908   1.480 -0.0169  0.0862 -0.2051
  795SOL    HW3 3254   1.076   3.785   1.487 -0.8696  0.6308 -1.3280
  795SOL    MW4 3255   1.097   3.865   1.515 -0.1985  0.1585 -0.4663
  796SOL     OW 3256   0.848   4.004   1.476  0.0178 -0.2586 -0.1953
  796SOL    HW2 3257   0.865   4.097   1.489 -0.1672 -0.2697  0.1349
  796SOL    HW3 3258   0.930   3.961   1.501  0.1131 -0.1816 -0.3759
  796SOL    MW4 3259   0.861   4.010   1.481  0.0060 -0.2494 -0.1756
  797SOL     OW 3260   0.920   4.271   1.489 -0.2127  0.1065 -0.3464
  797SOL    HW2 3261   0.941   4.279   1.582  1.7082 -2.1562 -0.5507
  797SOL    HW3 3262   0.843   4.327   1.477  0.0700  1.1396  2.3999
  797SOL    MW4 3263   0.912   4.279   1.500  0.0780 -0.0558 -0.0110
  798SOL     OW 3264   1.180   4.347   1.368  0.2343  0.8032  0.0625
  798SOL    HW2 3265   1.101   4.301   1.395  0.7142  0.3853  0.7494
  798SOL    HW3 3266   1.162   4.439   1.390  0.2362  0.6047  0.9044
  798SOL    MW4 3267   1.167   4.353   1.375  0.2978  0.7224  0.2640
  799SOL     OW 3268   1.582   4.641   1.465 -0.5646 -0.0072  0.0717
  799SOL    HW2 3269   1.576   4.638   1.561 -0.6510 -0.6969  0.0505
  799SOL    HW3 3270   1.504   4.690   1.438  0.1724  1.3769  0.4236
  799SOL    MW4 3271   1.571   4.647   1.474 -0.4789  0.0839  0.1154
  800SOL     OW 3272   1.372   0.117   1.328 -0.7476 -0.0630  0.0610
  800SOL    HW2 3273   1.358   0.201   1.372  0.7890 -0.3801  1.2173
  800SOL    HW3 3274   1.376   0.139   1.235 -1.0491  1.0611  0.3080
  800SOL    MW4 3275   1.371   0.131   1.322 -0.5846  0.0435  0.2462
  801SOL     OW 3276   1.367   0.353   1.492 -0.0360  0.3411  0.0621
  801SOL    HW2 3277   1.435   0.413   1.459 -0.2887  0.8442  0.4510
  801SOL    HW3 3278   1.287   0.405   1.491 -0.3594 -0.1599 -0.1005
  801SOL    MW4 3279   1.366   0.368   1.488 -0.1122  0.3414  0.0919
  802SOL     OW 3280   1.577   0.523   1.420  0.0625 -0.0776  0.6777
  802SOL    HW2 3281   1.659   0.476   1.435 -0.6217 -1.6031 -0.1475
  802SOL    HW3 3282   1.572   0.533   1.325 -0.8609 -0.3237  0.6906
  802SOL    MW4 3283   1.587   0.518   1.409 -0.1496 -0.3113  0.5705
  803SOL     OW 3284   1.548   0.783   1.516  0.2059 -0.3932 -0.4474
  803SOL    HW2 3285   1.567   0.780   1.609 -0.1299 -0.5336 -0.3795
  803SOL    HW3 3286   1.571   0.696   1.484 -0.5448 -0.6508 -0.3146
  803SOL    MW4 3287   1.553   0.771   1.524  0.0626 -0.4457 -0.4210
  804SOL     OW 3288   1.312   0.902   1.429 -0.3103  0.2099  0.3933
  804SOL    HW2 3289   1.399   0.865   1.446  0.2886  1.2873 -0.1834
  804SOL    HW3 3290   1.305   0.904   1.333 -1.2944 -0.5761  0.4428
  804SOL    MW4 3291   1.323   0.898   1.418 -0.3611  0.2483  0.3237
  805SOL     OW 3292   1.336   1.176   1.529 -0.4640  0.2931  0.5043
  805SOL    HW2 3293   1.320   1.176   1.624 -0.8148  1.2337  0.4511
  805SOL    HW3 3294   1.321   1.085   1.503  1.0781 -0.2936  1.5740
  805SOL    MW4 3295   1.332   1.164   1.538 -0.3068  0.3399  0.6384
  806SOL     OW 3296   1.563   1.307   1.430  0.1206  0.3369 -0.0605
  806SOL    HW2 3297   1.493   1.248   1.459 -0.6756  0.7557 -1.0949
  806SOL    HW3 3298   1.558   1.306   1.335 -0.2038  2.3898 -0.1049
  806SOL    MW4 3299   1.553   1.299   1.422 -0.0274  0.6629 -0.2028
  807SOL     OW 3300   1.523   1.560   1.514 -0.5072 -0.2688 -0.0910
  807SOL    HW2 3301   1.529   1.566   1.609  0.6198  0.5187 -0.1970
  807SOL    HW3 3302   1.544   1.469   1.494  2.2944  0.2572  0.2339
  807SOL    MW4 3303   1.527   1.549   1.524  0.0111 -0.0955 -0.0621
  808SOL     OW 3304   1.273   1.678   1.390  0.0848  0.1702  0.2049
  808SOL    HW2 3305   1.354   1.635   1.417  0.6641  1.0644 -0.1099
  808SOL    HW3 3306   1.283   1.693   1.296  0.1933  1.6245  0.4334
  808SOL    MW4 3307   1.285   1.674   1.381  0.1756  0.4801  0.1935
  809SOL     OW 3308   1.347   1.949   1.447  0.1147 -0.2430  0.2295
  809SOL    HW2 3309   1.344   1.958   1.542 -1.6518 -0.4044  0.2075
  809SOL    HW3 3310   1.344   1.854   1.431  0.8384 -0.2370  0.0077
  809SOL    MW4 3311   1.346   1.938   1.457 -0.0231 -0.2633  0.1973
  810SOL     OW 3312   1.592   2.055   1.390 -0.2487  0.1740  0.0958
  810SOL    HW2 3313   1.507   2.012   1.398  0.4391 -1.1668  0.3037
  810SOL    HW3 3314   1.613   2.050   1.297  0.5610 -1.3819  0.3503
  810SOL    MW4 3315   1.584   2.049   1.379 -0.0513 -0.2081  0.1569
  811SOL     OW 3316   1.580   2.316   1.496  0.0757 -0.3259  0.5338
  811SOL    HW2 3317   1.660   2.362   1.471  0.0682  0.1365  1.3403
  811SOL    HW3 3318   1.595   2.225   1.469  1.1842 -0.4095  1.3848
  811SOL    MW4 3319   1.592   2.310   1.489  0.2210 -0.2759  0.7524
  812SOL     OW 3320   1.353   2.465   1.452 -0.2263 -0.0988 -0.2648
  812SOL    HW2 3321   1.360   2.554   1.487 -1.5863  0.9495 -2.5488
  812SOL    HW3 3322   1.436   2.423   1.478  1.0920  2.3006 -0.4312
  812SOL    MW4 3323   1.365   2.471   1.460 -0.2320  0.3560 -0.5881
  813SOL     OW 3324   1.376   2.714   1.549 -0.3154  0.5062 -0.0526
  813SOL    HW2 3325   1.445   2.756   1.497 -0.4678  1.5105  0.5419
  813SOL    HW3 3326   1.294   2.740   1.507 -0.3438 -0.7012 -0.7684
  813SOL    MW4 3327   1.374   2.723   1.537 -0.3394  0.4790 -0.0687
  814SOL     OW 3328   1.559   2.854   1.356 -0.0614 -0.6334  0.3162
  814SOL    HW2 3329   1.635   2.798   1.369  0.3164 -0.3084 -0.4622
  814SOL    HW3 3330   1.554   2.867   1.261  0.6059  1.6910  0.5629
  814SOL    MW4 3331   1.568   2.848   1.345  0.0764 -0.2840  0.2463
  815SOL     OW 3332   1.563   3.087   1.497  0.1605 -0.2257  0.3333
  815SOL    HW2 3333   1.626   3.148   1.458 -0.7808  0.5349  0.0133
  815SOL    HW3 3334   1.563   3.012   1.438 -0.5812  0.5367 -0.6491
  815SOL    MW4 3335   1.572   3.085   1.484 -0.0615 -0.0246  0.1615
  816SOL     OW 3336   1.354   3.220   1.394  0.3399 -0.1157  0.2423
  816SOL    HW2 3337   1.354   3.299   1.448  0.7908  0.4122 -0.5287
  816SOL    HW3 3338   1.427   3.168   1.428 -0.4983 -0.6179  1.3311
  816SOL    MW4 3339   1.364   3.223   1.406  0.2888 -0.1121  0.2842
  817SOL     OW 3340   1.346   3.462   1.528  0.7021 -0.3488 -0.2934
  817SOL    HW2 3341   1.356   3.485   1.620  1.1736 -0.4888 -0.3108
  817SOL    HW3 3342   1.418   3.507   1.484  0.4289 -0.2158 -0.6053
  817SOL    MW4 3343   1.357   3.471   1.534  0.7282 -0.3495 -0.3370
  818SOL     OW 3344   1.556   3.617   1.421 -0.3481  0.7232  0.1349
  818SOL    HW2 3345   1.570   3.702   1.463 -0.7115  0.7096  0.2874
  818SOL    HW3 3346   1.530   3.639   1.332 -0.7509  0.7788  0.2660
  818SOL    MW4 3347   1.555   3.631   1.415 -0.4493  0.7286  0.1723
  819SOL     OW 3348   1.601   3.873   1.525  0.3585  0.6188  0.2329
  819SOL    HW2 3349   1.582   3.871   1.619 -0.5810 -0.3058  0.0333
  819SOL    HW3 3350   1.526   3.920   1.487 -0.7967 -1.6910 -0.3935
  819SOL    MW4 3351   1.588   3.879   1.532  0.0820  0.1919  0.1239
  820SOL     OW 3352   1.315   3.966   1.415 -0.2165 -0.4343  0.6984
  820SOL    HW2 3353   1.325   4.056   1.443 -3.0020  0.1010  0.0720
  820SOL    HW3 3354   1.331   3.969   1.320 -0.1029 -0.6571  0.7091
  820SOL    MW4 3355   1.319   3.978   1.406 -0.5691 -0.3927  0.6173
  821SOL     OW 3356   1.363   4.217   1.508  0.8718  0.3407  0.3372
  821SOL    HW2 3357   1.444   4.258   1.478  0.7273  0.2876 -0.1283
  821SOL    HW3 3358   1.294   4.264   1.463  0.6421  0.3903  0.7408
  821SOL    MW4 3359   1.365   4.228   1.498  0.8224  0.3395  0.3290
  822SOL     OW 3360   1.584   4.363   1.414  0.1317 -0.2124 -0.1235
  822SOL    HW2 3361   1.678   4.348   1.409 -0.0753 -1.4180 -0.5995
  822SOL    HW3 3362   1.575   4.457   1.428  1.3815  0.0720 -1.1152
  822SOL    MW4 3363   1.595   4.373   1.415  0.2692 -0.3338 -0.3171
  823SOL     OW 3364   2.011   4.644   1.491  0.3762  0.2834 -0.3246
  823SOL    HW2 3365   1.998   4.665   1.583 -2.3311 -0.6693 -0.4356
  823SOL    HW3 3366   1.936   4.684   1.446  1.5208  0.5042 -2.0715
  823SOL    MW4 3367   1.999   4.652   1.497  0.1701  0.1869 -0.5698
  824SOL     OW 3368   1.805   0.123   1.355 -0.4895  0.2252 -0.5380
  824SOL    HW2 3369   1.728   0.076   1.387  0.4055 -1.3655 -0.6547
  824SOL    HW3 3370   1.796   0.123   1.259 -0.2861 -0.0853 -0.5592
  824SOL    MW4 3371   1.794   0.117   1.346 -0.3445 -0.0256 -0.5563
  825SOL     OW 3372   1.820   0.379   1.471  0.2343  0.2044  0.4082
  825SOL    HW2 3373   1.902   0.422   1.448 -0.7024  1.3242 -0.9405
  825SOL    HW3 3374   1.822   0.296   1.424 -0.3488  1.1883 -1.3987
  825SOL    MW4 3375   1.831   0.373   1.462  0.0337  0.4820 -0.0082
  826SOL     OW 3376   2.039   0.517   1.411  0.2498 -0.0101  0.1549
  826SOL    HW2 3377   2.126   0.492   1.443  0.2674  0.1702  0.2492
  826SOL    HW3 3378   2.023   0.604   1.450  0.3764  0.3215 -0.5285
  826SOL    MW4 3379   2.048   0.525   1.421  0.2687  0.0574  0.0770
  827SOL     OW 3380   1.991   0.764   1.532  0.0861  0.4081 -0.0860
  827SOL    HW2 3381   2.076   0.802   1.506  0.2492  0.7238  0.8653
  827SOL    HW3 3382   1.927   0.831   1.507  0.2854  0.9144  0.7418
  827SOL    MW4 3383   1.994   0.778   1.525  0.1340  0.5166  0.1488
  828SOL     OW 3384   1.781   0.883   1.404 -0.3150  0.3489 -0.4885
  828SOL    HW2 3385   1.788   0.975   1.427  0.6945  0.2189 -0.2125
  828SOL    HW3 3386   1.712   0.849   1.461 -0.4456  0.8549 -0.3409
  828SOL    MW4 3387   1.773   0.890   1.414 -0.1991  0.3985 -0.4326
  829SOL     OW 3388   1.780   1.143   1.458 -0.1935  0.4987 -0.3639
  829SOL    HW2 3389   1.867   1.182   1.445 -0.3792  0.7377 -0.8865
  829SOL    HW3 3390   1.719   1.215   1.443 -0.5778 -0.1675 -2.1332
  829SOL    MW4 3391   1.784   1.158   1.454 -0.2686  0.4424 -0.6663
  830SOL     OW 3392   2.026   1.275   1.408  0.5377  0.1665  0.0420
  830SOL    HW2 3393   2.016   1.366   1.437 -1.4522  0.3056 -0.9438
  830SOL    HW3 3394   2.021   1.280   1.312 -1.5024 -1.1650  0.0470
  830SOL    MW4 3395   2.024   1.288   1.399  0.0060  0.0092 -0.0874
  831SOL     OW 3396   2.014   1.530   1.535 -0.3675 -0.2338  0.0027
  831SOL    HW2 3397   2.087   1.583   1.502 -0.4376 -0.1112  0.0457
  831SOL    HW3 3398   1.935   1.573   1.502 -0.4532  0.1004  0.6401
  831SOL    MW4 3399   2.013   1.542   1.526 -0.3881 -0.1736  0.0924
  832SOL     OW 3400   1.760   1.677   1.452 -0.1042 -0.1066 -0.9556
  832SOL    HW2 3401   1.680   1.630   1.476 -0.5714  0.2808 -1.7056
  832SOL    HW3 3402   1.755   1.684   1.356  0.1992  1.0248 -0.8938
  832SOL    MW4 3403   1.749   1.672   1.442 -0.1256  0.0937 -1.0464
  833SOL     OW 3404   1.812   1.947   1.489 -0.7133  0.5620  0.0732
  833SOL    HW2 3405   1.814   1.853   1.468 -0.2473  0.3735  0.9649
  833SOL    HW3 3406   1.721   1.973   1.473 -1.4657 -0.6117  2.3291
  833SOL    MW4 3407   1.801   1.938   1.484 -0.7513  0.3823  0.4884
  834SOL     OW 3408   2.007   2.049   1.337 -0.3390 -0.1014  0.0502
  834SOL    HW2 3409   2.082   2.008   1.380 -0.4436 -1.0887 -0.7013
  834SOL    HW3 3410   1.931   2.007   1.376 -0.4602 -0.2324 -0.3253
  834SOL    MW4 3411   2.007   2.038   1.348 -0.3688 -0.2489 -0.0986
  835SOL     OW 3412   2.040   2.319   1.441  0.1557  0.1912 -0.4022
  835SOL    HW2 3413   2.033   2.311   1.536  1.4368  1.7553 -0.1535
  835SOL    HW3 3414   2.035   2.229   1.409 -0.0693 -0.3633  1.1600
  835SOL    MW4 3415   2.038   2.306   1.449  0.2949  0.3242 -0.1633
  836SOL     OW 3416   1.801   2.447   1.383  0.4410 -0.1333  0.2124
  836SOL    HW2 3417   1.886   2.412   1.408  1.2675  2.0180  0.5469
  836SOL    HW3 3418   1.794   2.430   1.289 -0.4237 -3.6451  0.8473
  836SOL    MW4 3419   1.811   2.440   1.374  0.4361 -0.3128  0.3402
  837SOL     OW 3420   1.777   2.720   1.452  0.2787 -0.3443  0.4069
  837SOL    HW2 3421   1.778   2.742   1.545 -1.3715 -0.8278  0.5528
  837SOL    HW3 3422   1.790   2.625   1.449 -1.2500 -0.5619  0.2440
  837SOL    MW4 3423   1.779   2.710   1.464 -0.1407 -0.4368  0.4047
  838SOL     OW 3424   2.025   2.847   1.379  0.4439 -0.4599  0.0840
  838SOL    HW2 3425   2.014   2.937   1.409  1.4699 -0.7317  1.3111
  838SOL    HW3 3426   1.945   2.803   1.405 -1.0603  0.5986 -2.5197
  838SOL    MW4 3427   2.013   2.853   1.387  0.3810 -0.3560 -0.0976
  839SOL     OW 3428   1.979   3.085   1.477  0.5809  0.0166  0.1225
  839SOL    HW2 3429   1.970   3.102   1.571  1.3004  0.3683  0.1293
  839SOL    HW3 3430   2.049   3.143   1.449  0.3747 -0.0999 -0.6338
  839SOL    MW4 3431   1.987   3.095   1.486  0.6485  0.0482  0.0237
  840SOL     OW 3432   1.768   3.226   1.344  0.4903  0.3801 -0.6109
  840SOL    HW2 3433   1.783   3.303   1.399 -0.0548 -0.6295  0.9951
  840SOL    HW3 3434   1.829   3.160   1.378 -1.4150 -0.9762  0.2901
  840SOL    MW4 3435   1.778   3.227   1.356  0.1670  0.0679 -0.2800
  841SOL     OW 3436   1.799   3.472   1.495 -0.3373  0.6514  0.4543
  841SOL    HW2 3437   1.793   3.470   1.591  0.7844 -0.5094  0.5083
  841SOL    HW3 3438   1.722   3.522   1.468 -1.5442 -0.3731  1.8761
  841SOL    MW4 3439   1.788   3.479   1.504 -0.3484  0.3631  0.6490
  842SOL     OW 3440   2.003   3.618   1.405  0.3600  0.2828  0.1055
  842SOL    HW2 3441   2.072   3.569   1.449  1.1446  1.3802  0.0947
  842SOL    HW3 3442   1.923   3.570   1.426  1.2158 -1.5660 -0.6991
  842SOL    MW4 3443   2.001   3.605   1.413  0.5767  0.1836 -0.0020
  843SOL     OW 3444   2.013   3.873   1.529 -0.2693 -0.4204 -0.3987
  843SOL    HW2 3445   2.099   3.908   1.507 -0.8516  0.8913 -0.6152
  843SOL    HW3 3446   2.008   3.789   1.482  0.5062 -0.0615 -1.1294
  843SOL    MW4 3447   2.023   3.866   1.520 -0.2441 -0.2000 -0.5237
  844SOL     OW 3448   1.806   3.996   1.376  0.1850 -0.2010  0.6550
  844SOL    HW2 3449   1.874   3.936   1.408  0.3962 -1.2167 -1.5743
  844SOL    HW3 3450   1.724   3.958   1.407  0.4317 -0.7981  0.5865
  844SOL    MW4 3451   1.804   3.983   1.384  0.2455 -0.4137  0.3519
  845SOL     OW 3452   1.847   4.280   1.431 -0.1846 -0.1425 -0.4694
  845SOL    HW2 3453   1.935   4.299   1.399  0.8805 -1.5445  1.5115
  845SOL    HW3 3454   1.844   4.184   1.438 -0.9483  0.0073  1.8982
  845SOL    MW4 3455   1.858   4.270   1.428 -0.1450 -0.3080  0.1043
  846SOL     OW 3456   2.093   4.421   1.344  0.0733  0.2256  0.2543
  846SOL    HW2 3457   2.149   4.359   1.391 -1.8447 -1.2091  0.7078
  846SOL    HW3 3458   2.072   4.487   1.409  1.5918  1.0263 -0.0451
  846SOL    MW4 3459   2.098   4.421   1.359  0.0207  0.1416  0.2748
  847SOL     OW 3460   2.436   4.642   1.463 -0.3178  0.0761 -0.1101
  847SOL    HW2 3461   2.448   4.635   1.557 -0.9303 -0.0065 -0.0369
  847SOL    HW3 3462   2.360   4.699   1.452  0.0968  0.5570 -0.5673
  847SOL    MW4 3463   2.428   4.649   1.474 -0.3438  0.1287 -0.1608
  848SOL     OW 3464   2.219   0.141   1.411 -0.0405 -0.2861 -0.0152
  848SOL    HW2 3465   2.164   0.065   1.427 -0.9620  0.0820 -1.3571
  848SOL    HW3 3466   2.216   0.153   1.316  0.5053  1.1167  0.1351
  848SOL    MW4 3467   2.212   0.133   1.400 -0.0899 -0.0524 -0.1723
  849SOL     OW 3468   2.281   0.416   1.523 -0.2388 -0.0143 -0.3060
  849SOL    HW2 3469   2.244   0.406   1.611 -0.0446 -0.7031 -0.2994
  849SOL    HW3 3470   2.277   0.328   1.485 -0.3239  0.2827 -0.9887
  849SOL    MW4 3471   2.276   0.403   1.530 -0.2244 -0.0660 -0.3953
  850SOL     OW 3472   2.589   0.570   1.319 -0.7494  0.0151 -0.0901
  850SOL    HW2 3473   2.617   0.495   1.372  0.4293  0.2963 -0.3006
  850SOL    HW3 3474   2.532   0.620   1.376 -1.5065 -1.0232  0.0687
  850SOL    MW4 3475   2.585   0.566   1.333 -0.6938 -0.0848 -0.0969
  851SOL     OW 3476   2.424   0.687   1.517  0.1787  0.1584 -0.2424
  851SOL    HW2 3477   2.355   0.751   1.500  0.2526  0.3430  0.1466
  851SOL    HW3 3478   2.379   0.604   1.523  0.1219  0.1234 -1.0929
  851SOL    MW4 3479   2.409   0.685   1.515  0.1812  0.1782 -0.3034
  852SOL     OW 3480   2.217   0.882   1.418 -0.2490 -0.2666 -0.3194
  852SOL    HW2 3481   2.238   0.969   1.453  1.6904 -0.9322  0.2225
  852SOL    HW3 3482   2.237   0.888   1.325  0.6436 -0.3463 -0.1406
  852SOL    MW4 3483   2.223   0.894   1.411  0.1245 -0.3650 -0.2242
  853SOL     OW 3484   2.261   1.143   1.516  0.0924 -0.6879 -0.1659
  853SOL    HW2 3485   2.249   1.128   1.610  0.4021 -1.3065 -0.2186
  853SOL    HW3 3486   2.177   1.178   1.486 -0.0785 -0.6890  0.3042
  853SOL    MW4 3487   2.248   1.145   1.525  0.1111 -0.7697 -0.1109
  854SOL     OW 3488   2.496   1.287   1.432  0.5268 -0.0606 -0.5888
  854SOL    HW2 3489   2.407   1.263   1.459  1.2730 -1.7387  0.4456
  854SOL    HW3 3490   2.494   1.285   1.337 -0.8222  0.9713 -0.5982
  854SOL    MW4 3491   2.484   1.283   1.423  0.4475 -0.1458 -0.4535
  855SOL     OW 3492   2.467   1.562   1.475 -0.4749  0.0476 -0.4757
  855SOL    HW2 3493   2.543   1.612   1.446  0.5436 -0.7167  0.7987
  855SOL    HW3 3494   2.496   1.471   1.473 -1.4219 -0.2725 -0.1614
  855SOL    MW4 3495   2.481   1.556   1.471 -0.4656 -0.0954 -0.2661
  856SOL     OW 3496   2.217   1.643   1.395  0.1289 -0.3990  0.0721
  856SOL    HW2 3497   2.300   1.599   1.415  0.2856 -0.6685 -1.1553
  856SOL    HW3 3498   2.213   1.645   1.300 -1.2066 -0.2497  0.1230
  856SOL    MW4 3499   2.227   1.637   1.385 -0.0267 -0.4148 -0.0831
  857SOL     OW 3500   2.235   1.913   1.461 -0.6332  0.0789  0.1761
  857SOL    HW2 3501   2.258   1.914   1.554  1.5065  0.7492 -0.3257
  857SOL    HW3 3502   2.226   1.821   1.439 -1.1486 -0.0845  1.0430
  857SOL    MW4 3503   2.237   1.901   1.470 -0.4189  0.1459  0.2241
  858SOL     OW 3504   2.473   2.065   1.375 -0.3901 -0.3797  0.0659
  858SOL    HW2 3505   2.398   2.028   1.421 -0.9664 -0.3614 -0.8715
  858SOL    HW3 3506   2.452   2.056   1.282  1.0470 -0.9633 -0.2155
  858SOL    MW4 3507   2.461   2.059   1.369 -0.2766 -0.4544 -0.0949
  859SOL     OW 3508   2.478   2.324   1.462 -0.3924  0.1327 -0.5316
  859SOL    HW2 3509   2.493   2.320   1.556  0.7020 -0.4513 -0.7134
  859SOL    HW3 3510   2.474   2.232   1.435 -0.8267  0.3005 -1.0288
  859SOL    MW4 3511   2.479   2.311   1.471 -0.3052  0.0777 -0.6211
  860SOL     OW 3512   2.255   2.463   1.368 -0.5314  0.0282 -0.1412
  860SOL    HW2 3513   2.330   2.408   1.390 -1.0369 -0.4233  0.4934
  860SOL    HW3 3514   2.179   2.407   1.386 -1.0034  0.3140 -1.2403
  860SOL    MW4 3515   2.255   2.448   1.373 -0.6604  0.0067 -0.2027
  861SOL     OW 3516   2.254   2.728   1.480  0.1232 -0.1332 -0.2680
  861SOL    HW2 3517   2.260   2.638   1.448 -0.6936  0.1110 -1.1551
  861SOL    HW3 3518   2.177   2.764   1.435 -1.3068  0.1215  2.3019
  861SOL    MW4 3519   2.244   2.721   1.470 -0.1733 -0.0672 -0.0460
  862SOL     OW 3520   2.473   2.822   1.339 -0.5343  0.0251 -0.0183
  862SOL    HW2 3521   2.477   2.904   1.388  0.1992 -0.4765  0.7828
  862SOL    HW3 3522   2.398   2.775   1.378 -1.6116  0.7497 -1.1869
  862SOL    MW4 3523   2.463   2.826   1.351 -0.5798  0.0546 -0.0668
  863SOL     OW 3524   2.450   3.058   1.464 -0.3622  0.0094  0.0601
  863SOL    HW2 3525   2.532   3.103   1.442 -0.2088  0.0692  0.7548
  863SOL    HW3 3526   2.452   3.050   1.559 -0.2644 -1.7058 -0.0790
  863SOL    MW4 3527   2.461   3.063   1.473 -0.3290 -0.2091  0.1335
  864SOL     OW 3528   2.219   3.212   1.394  0.3163 -0.0053 -0.0085
  864SOL    HW2 3529   2.229   3.297   1.437 -0.2011 -0.6910  1.4985
  864SOL    HW3 3530   2.292   3.160   1.427  0.3765 -0.2851 -0.5792
  864SOL    MW4 3531   2.230   3.216   1.404  0.2561 -0.1328  0.1152
  865SOL     OW 3532   2.215   3.471   1.503  0.0441 -0.0746 -0.0901
  865SOL    HW2 3533   2.218   3.445   1.595 -0.5455 -2.8673 -0.8251
  865SOL    HW3 3534   2.303   3.507   1.485 -0.0056  0.9691  1.6570
  865SOL    MW4 3535   2.227   3.472   1.512 -0.0403 -0.3054  0.0435
  866SOL     OW 3536   2.461   3.569   1.389  0.0515  0.0604  0.5192
  866SOL    HW2 3537   2.544   3.532   1.418 -0.3782 -0.1701  1.4444
  866SOL    HW3 3538   2.458   3.656   1.429  0.5637  0.7006 -0.7858
  866SOL    MW4 3539   2.472   3.576   1.398  0.0625  0.1144  0.4690
  867SOL     OW 3540   2.422   3.821   1.486  0.0022  0.1101 -0.1848
  867SOL    HW2 3541   2.410   3.824   1.581  1.1011 -1.4133  0.0359
  867SOL    HW3 3542   2.498   3.876   1.470 -0.4004  0.6531 -0.2202
  867SOL    MW4 3543   2.431   3.828   1.497  0.0942 -0.0193 -0.1603
  868SOL     OW 3544   2.243   3.987   1.361  0.1506 -0.1760 -0.0410
  868SOL    HW2 3545   2.307   3.924   1.392 -0.2159 -0.4270  0.2096
  868SOL    HW3 3546   2.248   3.982   1.266 -0.5839 -1.3065 -0.0295
  868SOL    MW4 3547   2.252   3.978   1.353  0.0052 -0.3583 -0.0064
  869SOL     OW 3548   2.263   4.241   1.501  0.0199  0.2098 -0.4530
  869SOL    HW2 3549   2.348   4.264   1.463  0.1413  0.8088  0.1725
  869SOL    HW3 3550   2.240   4.158   1.460  1.5925 -0.6824  0.4526
  869SOL    MW4 3551   2.271   4.233   1.490  0.2432  0.1712 -0.2508
  870SOL     OW 3552   2.478   4.367   1.390 -0.4252 -0.2817 -0.0926
  870SOL    HW2 3553   2.480   4.456   1.425  0.3571  0.1375 -1.1613
  870SOL    HW3 3554   2.464   4.379   1.296 -1.9275 -1.3631 -0.0189
  870SOL    MW4 3555   2.477   4.380   1.382 -0.5200 -0.3695 -0.2239
  871SOL     OW 3556   2.899   4.622   1.505 -0.2240  0.2980 -0.3078
  871SOL    HW2 3557   2.910   4.643   1.598  0.6019  1.5529 -0.6792
  871SOL    HW3 3558   2.814   4.660   1.482 -0.3268  0.1784 -0.1313
  871SOL    MW4 3559   2.889   4.630   1.515 -0.1285  0.4473 -0.3337
  872SOL     OW 3560   2.677   0.081   1.436 -0.2580  0.1067 -0.0137
  872SOL    HW2 3561   2.678   0.174   1.462 -0.0892 -0.0720  0.6179
  872SOL    HW3 3562   2.586   0.054   1.448 -0.3889  0.2905 -0.5654
  872SOL    MW4 3563   2.665   0.090   1.441 -0.2530  0.1074 -0.0032
  873SOL     OW 3564   2.694   0.368   1.486  0.2496  0.3140 -0.2007
  873SOL    HW2 3565   2.691   0.384   1.580 -0.1488  1.3352 -0.3822
  873SOL    HW3 3566   2.784   0.389   1.461 -0.0678  1.5722 -0.3093
  873SOL    MW4 3567   2.705   0.373   1.495  0.1552  0.6148 -0.2390
  874SOL     OW 3568   2.930   0.456   1.404 -0.0156 -0.6853  0.1524
  874SOL    HW2 3569   2.950   0.548   1.424 -3.0584  0.0063  0.1956
  874SOL    HW3 3570   2.917   0.455   1.309  0.1428 -1.1182  0.1324
  874SOL    MW4 3571   2.931   0.468   1.394 -0.3963 -0.6512  0.1554
  875SOL     OW 3572   2.943   0.718   1.481 -0.3749 -0.0125 -0.0816
  875SOL    HW2 3573   2.936   0.738   1.575  1.0769 -2.1740  0.5293
  875SOL    HW3 3574   2.860   0.745   1.444 -1.3398 -0.0204  2.0114
  875SOL    MW4 3575   2.931   0.724   1.489 -0.3107 -0.2987  0.2753
  876SOL     OW 3576   2.695   0.862   1.430  0.2657 -0.5469  0.5640
  876SOL    HW2 3577   2.624   0.809   1.466 -0.5494  0.4153  0.3957
  876SOL    HW3 3578   2.690   0.848   1.335 -0.0662 -0.0351  0.5041
  876SOL    MW4 3579   2.685   0.853   1.422  0.1142 -0.3524  0.5341
  877SOL     OW 3580   2.740   1.147   1.493  0.7298  0.0913 -0.4897
  877SOL    HW2 3581   2.735   1.052   1.478  1.5631 -0.3879  2.0120
  877SOL    HW3 3582   2.650   1.177   1.482  0.4824 -0.9687 -1.4531
  877SOL    MW4 3583   2.727   1.138   1.490  0.8070 -0.1118 -0.2867
  878SOL     OW 3584   2.920   1.291   1.361  0.1559  0.1976  0.0898
  878SOL    HW2 3585   3.004   1.261   1.395  0.9019 -0.2515 -2.0380
  878SOL    HW3 3586   2.854   1.236   1.404  1.2370 -1.9541 -0.9527
  878SOL    MW4 3587   2.922   1.280   1.371  0.3967 -0.1457 -0.3284
  879SOL     OW 3588   2.919   1.560   1.463  0.6649  0.0222 -0.3889
  879SOL    HW2 3589   2.845   1.608   1.427 -1.2989 -1.3079  1.6957
  879SOL    HW3 3590   2.920   1.478   1.414 -2.0709 -1.8313  2.4548
  879SOL    MW4 3591   2.909   1.555   1.452  0.0448 -0.3978  0.2613
  880SOL     OW 3592   2.689   1.691   1.379  0.1795 -0.3356  0.4384
  880SOL    HW2 3593   2.667   1.783   1.392 -0.0795 -0.5402  1.4532
  880SOL    HW3 3594   2.698   1.682   1.284 -1.1503  0.4256  0.2328
  880SOL    MW4 3595   2.688   1.702   1.368 -0.0300 -0.2620  0.5451
  881SOL     OW 3596   2.716   1.950   1.438  0.2043 -0.4292  0.1438
  881SOL    HW2 3597   2.714   1.931   1.532  0.0885 -1.1856 -0.0093
  881SOL    HW3 3598   2.635   1.998   1.421  0.2841 -0.1816  0.4481
  881SOL    MW4 3599   2.705   1.954   1.448  0.1993 -0.4964  0.1636
  882SOL     OW 3600   2.949   2.065   1.349 -0.1944  0.1034 -0.0877
  882SOL    HW2 3601   2.948   2.153   1.388  0.3712  0.0878 -0.0334
  882SOL    HW3 3602   2.869   2.024   1.380 -0.5853  0.6865 -0.3008
  882SOL    MW4 3603   2.939   2.071   1.358 -0.1717  0.1783 -0.1087
  883SOL     OW 3604   2.943   2.324   1.473  0.5458  0.3954 -0.0815
  883SOL    HW2 3605   2.947   2.328   1.569  2.3416 -0.3644 -0.1215
  883SOL    HW3 3606   2.860   2.367   1.452  0.0166  0.3827  1.8226
  883SOL    MW4 3607   2.932   2.330   1.483  0.7126  0.2935  0.1645
  884SOL     OW 3608   2.708   2.444   1.372 -0.0547 -0.0900  0.0621
  884SOL    HW2 3609   2.690   2.526   1.417  0.1377  0.0565 -0.1296
  884SOL    HW3 3610   2.626   2.395   1.378 -0.2348  0.2050 -0.0159
  884SOL    MW4 3611   2.695   2.448   1.379 -0.0532 -0.0319  0.0265
  885SOL     OW 3612   2.690   2.688   1.500  0.1160 -0.0598 -0.2996
  885SOL    HW2 3613   2.772   2.717   1.461  1.2347  0.9181  2.6591
  885SOL    HW3 3614   2.623   2.745   1.462  1.6224  3.1525  1.6365
  885SOL    MW4 3615   2.692   2.699   1.490  0.4625  0.4930  0.3462
  886SOL     OW 3616   2.917   2.806   1.386  0.3080 -0.3702  0.3599
  886SOL    HW2 3617   2.990   2.761   1.428  0.1010  0.1963  1.3494
  886SOL    HW3 3618   2.921   2.895   1.419  0.1382  0.0942 -0.8435
  886SOL    MW4 3619   2.927   2.811   1.396  0.2582 -0.2344  0.3316
  887SOL     OW 3620   2.913   3.059   1.494  0.1705  0.5725  0.2499
  887SOL    HW2 3621   2.893   3.076   1.586 -1.0118  0.9446 -0.0718
  887SOL    HW3 3622   2.986   3.118   1.475 -0.0100  0.9682  0.7619
  887SOL    MW4 3623   2.920   3.069   1.504 -0.0093  0.6738  0.2749
  888SOL     OW 3624   2.683   3.200   1.408 -0.1372  0.0855 -0.6131
  888SOL    HW2 3625   2.760   3.148   1.432  0.4447  1.2800  0.1459
  888SOL    HW3 3626   2.687   3.206   1.313  1.4984  1.3146 -0.4914
  888SOL    MW4 3627   2.694   3.194   1.399  0.1554  0.4053 -0.4969
  889SOL     OW 3628   2.704   3.468   1.466 -0.1816 -0.5354  0.2847
  889SOL    HW2 3629   2.711   3.478   1.561 -0.3161 -0.2106  0.2602
  889SOL    HW3 3630   2.691   3.374   1.453 -0.7028 -0.5089  0.6180
  889SOL    MW4 3631   2.703   3.457   1.477 -0.2680 -0.4890  0.3253
  890SOL     OW 3632   2.930   3.554   1.345 -0.0090 -0.0470 -0.2872
  890SOL    HW2 3633   2.849   3.516   1.380  0.2090  0.8469  1.2422
  890SOL    HW3 3634   2.918   3.553   1.250 -1.0496 -1.5865 -0.1655
  890SOL    MW4 3635   2.918   3.548   1.337 -0.1175 -0.1323 -0.0695
  891SOL     OW 3636   2.866   3.813   1.486  0.4027  0.8210  0.0348
  891SOL    HW2 3637   2.792   3.856   1.443  0.2766 -0.0028 -0.5813
  891SOL    HW3 3638   2.878   3.731   1.438  1.4951  0.7866  0.3449
  891SOL    MW4 3639   2.858   3.808   1.474  0.5302  0.7079 -0.0057
  892SOL     OW 3640   2.636   3.987   1.388  0.1158  0.2143  0.3286
  892SOL    HW2 3641   2.655   4.073   1.427  0.3182 -0.2502  1.2761
  892SOL    HW3 3642   2.660   3.997   1.296  0.8311  0.9679  0.5844
  892SOL    MW4 3643   2.642   4.000   1.381  0.2367  0.2525  0.4874
  893SOL     OW 3644   2.682   4.227   1.515 -0.3325  0.1771 -0.3044
  893SOL    HW2 3645   2.758   4.266   1.472  0.0992 -1.0281 -0.6499
  893SOL    HW3 3646   2.611   4.289   1.499  0.3517  0.8469 -0.7910
  893SOL    MW4 3647   2.682   4.240   1.507 -0.1855  0.1063 -0.4141
  894SOL     OW 3648   2.907   4.358   1.440 -0.2337 -0.5103 -0.1138
  894SOL    HW2 3649   2.908   4.448   1.474  1.6351 -0.6773  0.2970
  894SOL    HW3 3650   2.919   4.368   1.345 -1.4506 -0.2662 -0.2560
  894SOL    MW4 3651   2.908   4.371   1.432 -0.1478 -0.4997 -0.0784
  895SOL     OW 3652   3.318   4.609   1.484 -0.1543  0.2348 -0.4768
  895SOL    HW2 3653   3.404   4.652   1.476 -0.0573 -0.0273 -0.8164
  895SOL    HW3 3654   3.337   4.516   1.474 -0.4386  0.1538 -0.2439
  895SOL    MW4 3655   3.332   4.603   1.481 -0.1791  0.1893 -0.4908
  896SOL     OW 3656   3.127   0.079   1.377 -0.0996  0.2819  0.2368
  896SOL    HW2 3657   3.203   0.027   1.404 -0.0138 -0.4955 -1.3843
  896SOL    HW3 3658   3.052   0.026   1.402 -0.0343 -0.0793 -0.2989
  896SOL    MW4 3659   3.127   0.065   1.384 -0.0794  0.1317 -0.0478
  897SOL     OW 3660   3.171   0.342   1.494 -0.0820 -0.4411 -0.1223
  897SOL    HW2 3661   3.177   0.254   1.455  0.5729  0.3692 -1.8926
  897SOL    HW3 3662   3.090   0.378   1.457 -0.4553 -0.3709  0.7643
  897SOL    MW4 3663   3.161   0.335   1.484 -0.0448 -0.3249 -0.2389
  898SOL     OW 3664   3.419   0.481   1.452 -0.0593 -0.1993 -0.4659
  898SOL    HW2 3665   3.341   0.433   1.477 -0.9919  1.3238 -0.3719
  898SOL    HW3 3666   3.416   0.486   1.357  0.7294 -1.4400 -0.5682
  898SOL    MW4 3667   3.409   0.476   1.443 -0.0784 -0.1620 -0.4669
  899SOL     OW 3668   3.384   0.756   1.511  0.3194  0.1659  0.7638
  899SOL    HW2 3669   3.371   0.756   1.606 -0.5219 -0.6741  0.6574
  899SOL    HW3 3670   3.387   0.663   1.487 -2.5061  0.3231 -0.4152
  899SOL    MW4 3671   3.382   0.744   1.520 -0.1645  0.0758  0.5943
  900SOL     OW 3672   3.157   0.848   1.381 -0.3505 -0.4127 -0.1561
  900SOL    HW2 3673   3.237   0.819   1.425  0.3797  0.3731 -0.9508
  900SOL    HW3 3674   3.087   0.805   1.429  0.4369  0.3494  1.7421
  900SOL    MW4 3675   3.158   0.838   1.394 -0.1502 -0.2085 -0.0106
  901SOL     OW 3676   3.123   1.120   1.469 -0.0460  0.1332  0.4228
  901SOL    HW2 3677   3.113   1.128   1.564  1.0243 -0.6831  0.6118
  901SOL    HW3 3678   3.146   1.028   1.455  0.6040  0.4395 -0.5573
  901SOL    MW4 3679   3.125   1.109   1.479  0.1812  0.0659  0.3185
  902SOL     OW 3680   3.336   1.286   1.367  0.1653 -0.2010 -0.2711
  902SOL    HW2 3681   3.414   1.238   1.395  0.4958 -0.5186 -1.6769
  902SOL    HW3 3682   3.263   1.229   1.389  0.3378  0.0024  0.8581
  902SOL    MW4 3683   3.337   1.272   1.374  0.2315 -0.2161 -0.3076
  903SOL     OW 3684   3.340   1.550   1.485 -0.4142  0.8036  0.4515
  903SOL    HW2 3685   3.323   1.545   1.579 -2.0959 -0.0700  0.1349
  903SOL    HW3 3686   3.346   1.458   1.457  1.7390  1.0777 -0.0245
  903SOL    MW4 3687   3.338   1.537   1.494 -0.3519  0.7247  0.3469
  904SOL     OW 3688   3.145   1.681   1.355 -0.1481  0.1833 -0.4350
  904SOL    HW2 3689   3.213   1.638   1.407 -0.1961 -0.5955 -1.0093
  904SOL    HW3 3690   3.063   1.651   1.395 -0.1589  1.1212  0.2566
  904SOL    MW4 3691   3.143   1.671   1.367 -0.1559  0.2043 -0.4196
  905SOL     OW 3692   3.140   1.916   1.513  0.1495 -0.2925  0.5502
  905SOL    HW2 3693   3.157   1.831   1.472  0.7552  0.2997 -0.4584
  905SOL    HW3 3694   3.069   1.955   1.461  0.8114  0.3914  0.1334
  905SOL    MW4 3695   3.133   1.910   1.500  0.3166 -0.1240  0.3622
  906SOL     OW 3696   3.334   2.078   1.385 -0.1057 -0.2113  0.6072
  906SOL    HW2 3697   3.266   2.027   1.428  0.2694 -1.8524 -0.6966
  906SOL    HW3 3698   3.315   2.068   1.291  1.4180  0.0124  0.2693
  906SOL    MW4 3699   3.322   2.070   1.378  0.1450 -0.3986  0.3905
  907SOL     OW 3700   3.339   2.339   1.517 -0.3939  0.5436 -0.0464
  907SOL    HW2 3701   3.425   2.352   1.477 -0.6867  0.9001 -0.5607
  907SOL    HW3 3702   3.319   2.247   1.500 -0.0286  0.4039  0.2551
  907SOL    MW4 3703   3.348   2.328   1.510 -0.3846  0.5722 -0.0745
  908SOL     OW 3704   3.147   2.395   1.327 -0.4469  0.3409 -0.1081
  908SOL    HW2 3705   3.217   2.363   1.383  0.0004  0.7363 -0.4308
  908SOL    HW3 3706   3.067   2.382   1.377 -0.1361 -0.1085  0.2637
  908SOL    MW4 3707   3.146   2.389   1.341 -0.3469  0.3338 -0.1016
  909SOL     OW 3708   3.124   2.642   1.485 -0.8476  0.7580 -0.2182
  909SOL    HW2 3709   3.192   2.703   1.458  0.0253 -0.6860 -1.3257
  909SOL    HW3 3710   3.149   2.558   1.447 -1.9294 -0.3578  1.4130
  909SOL    MW4 3711   3.136   2.639   1.477 -0.8755  0.4203 -0.1490
  910SOL     OW 3712   3.310   2.805   1.383  0.0294 -0.2325  0.0293
  910SOL    HW2 3713   3.322   2.897   1.409  0.3855 -0.2693  0.0026
  910SOL    HW3 3714   3.321   2.806   1.288  0.7103 -0.4075  0.1030
  910SOL    MW4 3715   3.313   2.817   1.374  0.1662 -0.2604  0.0355
  911SOL     OW 3716   3.338   3.072   1.468 -0.4163  0.2129  0.3887
  911SOL    HW2 3717   3.335   3.073   1.564 -0.9940  1.1879  0.3684
  911SOL    HW3 3718   3.421   3.113   1.447  0.8055 -2.1260  0.4979
  911SOL    MW4 3719   3.348   3.077   1.478 -0.3312  0.0331  0.4004
  912SOL     OW 3720   3.131   3.212   1.389 -0.6022 -0.3687  0.0174
  912SOL    HW2 3721   3.156   3.295   1.432  1.4671  0.0038 -1.8352
  912SOL    HW3 3722   3.202   3.152   1.410  0.2410 -0.2934 -2.5686
  912SOL    MW4 3723   3.143   3.215   1.398 -0.2182 -0.3099 -0.5683
  913SOL     OW 3724   3.152   3.471   1.487  0.0305  0.3419  0.3617
  913SOL    HW2 3725   3.123   3.456   1.577 -0.5957  0.7780  0.2290
  913SOL    HW3 3726   3.075   3.505   1.442  0.1336 -0.6151 -0.5319
  913SOL    MW4 3727   3.138   3.474   1.493 -0.0386  0.2730  0.2264
  914SOL     OW 3728   3.361   3.614   1.400  0.3328 -0.0326 -0.3101
  914SOL    HW2 3729   3.376   3.698   1.443  1.7459 -0.7412  0.6273
  914SOL    HW3 3730   3.284   3.577   1.446 -0.2825  0.7275 -0.7194
  914SOL    MW4 3731   3.352   3.620   1.412  0.4380 -0.0257 -0.2404
  915SOL     OW 3732   3.365   3.871   1.506 -0.1503  0.1175 -0.1780
  915SOL    HW2 3733   3.357   3.859   1.601 -0.6916 -2.6364 -0.5385
  915SOL    HW3 3734   3.275   3.879   1.476 -0.0375 -0.3524 -0.6307
  915SOL    MW4 3735   3.352   3.870   1.515 -0.2069 -0.3078 -0.2853
  916SOL     OW 3736   3.112   3.935   1.442 -0.2684  0.1498 -0.3244
  916SOL    HW2 3737   3.097   4.024   1.475 -0.5887  0.5802 -1.6031
  916SOL    HW3 3738   3.033   3.887   1.467  0.3049 -0.0319  1.1960
  916SOL    MW4 3739   3.099   3.941   1.450 -0.2351  0.1826 -0.2925
  917SOL     OW 3740   3.120   4.206   1.498 -0.1305 -0.2410 -0.1723
  917SOL    HW2 3741   3.134   4.199   1.593  1.7842  0.8842 -0.3560
  917SOL    HW3 3742   3.048   4.268   1.489  0.1421  0.1803  0.5140
  917SOL    MW4 3743   3.112   4.213   1.509  0.1581 -0.0372 -0.1060
  918SOL     OW 3744   3.352   4.338   1.448  0.3066  0.1381  0.4253
  918SOL    HW2 3745   3.261   4.307   1.448  0.4890 -0.3968  0.4158
  918SOL    HW3 3746   3.372   4.351   1.355  0.5025 -0.5141  0.3769
  918SOL    MW4 3747   3.343   4.336   1.436  0.3567 -0.0186  0.4178
  919SOL     OW 3748   3.841   4.631   1.460  0.1574 -0.0992  0.4694
  919SOL    HW2 3749   3.853   4.631   1.555 -0.6079  0.5172  0.5740
  919SOL    HW3 3750   3.927   4.655   1.425  0.0569  1.1861  1.0698
  919SOL    MW4 3751   3.854   4.634   1.468  0.0432  0.1516  0.5624
  920SOL     OW 3752   3.573   0.048   1.387 -0.5121  0.1475 -0.1858
  920SOL    HW2 3753   3.652  -0.004   1.403  0.3827  1.8195  0.9598
  920SOL    HW3 3754   3.573   0.064   1.293 -0.7879 -1.8687 -0.5628
  920SOL    MW4 3755   3.583   0.043   1.377 -0.4303  0.1021 -0.0843
  921SOL     OW 3756   3.617   0.294   1.506 -0.0066 -0.2630  0.3692
  921SOL    HW2 3757   3.583   0.229   1.445 -2.1786 -0.7475  2.0636
  921SOL    HW3 3758   3.551   0.364   1.505  0.2812  0.0315  1.6472
  921SOL    MW4 3759   3.604   0.295   1.498 -0.2553 -0.2880  0.7614
  922SOL     OW 3760   3.784   0.451   1.356 -0.1976  0.0996  0.4091
  922SOL    HW2 3761   3.718   0.392   1.394 -0.6743 -0.3202 -1.0262
  922SOL    HW3 3762   3.774   0.440   1.261 -0.2230  2.4033  0.1008
  922SOL    MW4 3763   3.774   0.442   1.348 -0.2637  0.3482  0.1793
  923SOL     OW 3764   3.793   0.708   1.480  0.5186 -0.3721 -0.4142
  923SOL    HW2 3765   3.730   0.770   1.444 -1.4918 -0.3656  2.9023
  923SOL    HW3 3766   3.787   0.631   1.424  0.0390  0.8729 -2.1091
  923SOL    MW4 3767   3.784   0.706   1.468  0.1903 -0.2070 -0.2003
  924SOL     OW 3768   3.592   0.900   1.397  0.1092  0.3400  0.2991
  924SOL    HW2 3769   3.526   0.841   1.434  0.7830 -0.4341  0.2909
  924SOL    HW3 3770   3.588   0.885   1.302 -0.1829  0.7986  0.2395
  924SOL    MW4 3771   3.583   0.890   1.389  0.1595  0.2984  0.2902
  925SOL     OW 3772   3.541   1.164   1.482 -0.2662  0.0241  0.3321
  925SOL    HW2 3773   3.627   1.206   1.480 -0.2628  0.0041 -0.0772
  925SOL    HW3 3774   3.559   1.074   1.453 -0.7847  0.6707 -2.0562
  925SOL    MW4 3775   3.555   1.158   1.478 -0.3343  0.1068 -0.0370
  926SOL     OW 3776   3.793   1.256   1.435 -0.0576  0.0829 -0.0701
  926SOL    HW2 3777   3.877   1.222   1.466 -0.3030  0.9024  1.5852
  926SOL    HW3 3778   3.797   1.350   1.456 -2.0498 -0.1770  1.6064
  926SOL    MW4 3779   3.805   1.264   1.442 -0.3529  0.1568  0.3695
  927SOL     OW 3780   3.800   1.529   1.500 -0.4926 -0.0866  0.1194
  927SOL    HW2 3781   3.805   1.533   1.596 -1.8382 -0.5299  0.2302
  927SOL    HW3 3782   3.717   1.572   1.480 -0.6914 -0.8776 -0.7771
  927SOL    MW4 3783   3.789   1.535   1.510 -0.6967 -0.2494  0.0157
  928SOL     OW 3784   3.590   1.690   1.436 -0.0404 -0.0661 -0.1109
  928SOL    HW2 3785   3.511   1.655   1.477  0.1887  0.1510  0.5253
  928SOL    HW3 3786   3.576   1.679   1.343 -0.2649 -1.2247  0.0594
  928SOL    MW4 3787   3.578   1.684   1.429 -0.0396 -0.1904 -0.0043
  929SOL     OW 3788   3.575   1.982   1.474  0.1545 -0.0165  0.1618
  929SOL    HW2 3789   3.569   1.888   1.459 -1.1415 -0.1790  1.5118
  929SOL    HW3 3790   3.497   2.018   1.432  0.0237  0.2990  0.6606
  929SOL    MW4 3791   3.564   1.974   1.467 -0.0336  0.0036  0.4058
  930SOL     OW 3792   3.826   2.048   1.398 -0.1645 -0.5400  0.0612
  930SOL    HW2 3793   3.831   2.132   1.443  0.8424 -0.6113  0.1086
  930SOL    HW3 3794   3.744   2.009   1.426 -1.0554  0.8149 -0.6364
  930SOL    MW4 3795   3.816   2.054   1.408 -0.1490 -0.3705 -0.0247
  931SOL     OW 3796   3.791   2.316   1.488 -0.2523  0.3654 -0.1460
  931SOL    HW2 3797   3.800   2.342   1.580 -0.2290  0.0435 -0.0576
  931SOL    HW3 3798   3.865   2.359   1.444 -0.8165  1.3143 -0.1878
  931SOL    MW4 3799   3.802   2.325   1.494 -0.3235  0.4480 -0.1400
  932SOL     OW 3800   3.562   2.410   1.371 -0.4572  0.2084 -0.2505
  932SOL    HW2 3801   3.575   2.504   1.384 -0.7419  0.2105  0.0369
  932SOL    HW3 3802   3.642   2.370   1.405 -0.1447  0.3787 -0.8010
  932SOL    MW4 3803   3.574   2.417   1.377 -0.4537  0.2315 -0.2853
  933SOL     OW 3804   3.559   2.687   1.447 -0.1670  0.0583 -0.5657
  933SOL    HW2 3805   3.575   2.684   1.541  0.6958  0.8757 -0.6788
  933SOL    HW3 3806   3.484   2.747   1.438 -0.0982  0.1694 -0.4126
  933SOL    MW4 3807   3.551   2.695   1.458 -0.0439  0.1810 -0.5604
  934SOL     OW 3808   3.801   2.823   1.380 -0.3028  0.2940 -0.0567
  934SOL    HW2 3809   3.862   2.776   1.436 -1.3061 -2.1816 -0.9780
  934SOL    HW3 3810   3.715   2.786   1.402 -0.8554  0.1066 -2.3381
  934SOL    MW4 3811   3.798   2.812   1.390 -0.5081 -0.0572 -0.4793
  935SOL     OW 3812   3.826   3.080   1.499  0.1323 -0.2327 -0.4170
  935SOL    HW2 3813   3.903   3.120   1.460  1.5897 -0.9982  1.5837
  935SOL    HW3 3814   3.819   2.995   1.456  1.1037 -0.6281  0.1704
  935SOL    MW4 3815   3.835   3.074   1.489  0.4525 -0.3858 -0.0756
  936SOL     OW 3816   3.581   3.173   1.372  0.4514 -0.0491 -0.4924
  936SOL    HW2 3817   3.664   3.139   1.405 -0.1356 -0.0761  0.9718
  936SOL    HW3 3818   3.575   3.261   1.410 -1.3620 -0.9828  1.4316
  936SOL    MW4 3819   3.591   3.180   1.382  0.1347 -0.1762 -0.0453
  937SOL     OW 3820   3.567   3.445   1.459 -0.3845  0.3183 -0.4712
  937SOL    HW2 3821   3.650   3.484   1.434 -0.8295  0.5096 -1.6718
  937SOL    HW3 3822   3.500   3.505   1.423 -1.0370  0.2567  0.6126
  937SOL    MW4 3823   3.569   3.458   1.451 -0.5293  0.3357 -0.4865
  938SOL     OW 3824   3.798   3.566   1.393  0.1185  0.0241  0.2215
  938SOL    HW2 3825   3.881   3.540   1.434  0.3929 -1.0576 -0.9959
  938SOL    HW3 3826   3.791   3.660   1.411  1.9585  0.2855 -0.2967
  938SOL    MW4 3827   3.808   3.575   1.401  0.3974 -0.0839 -0.0074
  939SOL     OW 3828   3.797   3.831   1.449  0.2752  0.3164 -0.2830
  939SOL    HW2 3829   3.858   3.900   1.425  1.8173 -0.5276  1.1261
  939SOL    HW3 3830   3.711   3.866   1.425  1.2722  1.5457 -2.2109
  939SOL    MW4 3831   3.794   3.845   1.443  0.6101  0.3674 -0.3514
  940SOL     OW 3832   3.574   3.977   1.373  0.4259 -0.0266 -0.1411
  940SOL    HW2 3833   3.591   4.059   1.419  0.5959 -0.8521  1.2890
  940SOL    HW3 3834   3.495   3.942   1.414  0.4135 -0.6418 -0.6728
  940SOL    MW4 3835   3.566   3.984   1.384  0.4466 -0.2167 -0.0224
  941SOL     OW 3836   3.599   4.233   1.482 -0.1255  0.6418  0.2338
  941SOL    HW2 3837   3.598   4.244   1.577  0.5905 -0.2867  0.3448
  941SOL    HW3 3838   3.507   4.245   1.456 -0.4760 -0.0153  1.1461
  941SOL    MW4 3839   3.587   4.236   1.491 -0.0770  0.4325  0.3687
  942SOL     OW 3840   3.817   4.368   1.355  0.5727 -0.6665  0.1308
  942SOL    HW2 3841   3.743   4.328   1.401  0.2261 -0.0810  0.0879
  942SOL    HW3 3842   3.830   4.453   1.398 -0.5861  0.4701 -1.6704
  942SOL    MW4 3843   3.809   4.374   1.367  0.3741 -0.4396 -0.1124
  943SOL     OW 3844   4.268   4.666   1.522 -0.2500  0.4639 -0.1652
  943SOL    HW2 3845   4.245   4.666   1.615 -0.7717  0.1141 -0.2881
  943SOL    HW3 3846   4.276   4.573   1.500  2.7123  0.5826  0.2003
  943SOL    MW4 3847   4.266   4.654   1.531  0.0720  0.4330 -0.1332
  944SOL     OW 3848   4.058   0.122   1.367  0.0551  0.1505  0.2655
  944SOL    HW2 3849   4.045   0.215   1.388 -0.2560  0.2835 -0.5019
  944SOL    HW3 3850   4.119   0.091   1.434 -0.4827  0.7014  1.0202
  944SOL    MW4 3851   4.065   0.130   1.378 -0.0567  0.2407  0.2639
  945SOL     OW 3852   4.022   0.378   1.483 -0.3171 -0.4021 -0.2941
  945SOL    HW2 3853   4.006   0.381   1.578  0.7187 -0.2412 -0.1096
  945SOL    HW3 3854   3.940   0.407   1.444 -1.2942 -2.0527  0.4970
  945SOL    MW4 3855   4.009   0.383   1.491 -0.3095 -0.5986 -0.1653
  946SOL     OW 3856   4.253   0.503   1.361  0.4723 -0.0306 -0.0594
  946SOL    HW2 3857   4.188   0.452   1.409 -1.3991 -0.3773 -2.8480
  946SOL    HW3 3858   4.337   0.479   1.401 -0.7834 -2.1431  1.3747
  946SOL    MW4 3859   4.256   0.493   1.372  0.0601 -0.3550 -0.2382
  947SOL     OW 3860   4.267   0.734   1.513 -0.1065  0.2782  0.3103
  947SOL    HW2 3861   4.256   0.655   1.459 -1.1285  0.6341 -0.0296
  947SOL    HW3 3862   4.334   0.785   1.468 -0.1005  0.0220  0.0263
  947SOL    MW4 3863   4.274   0.730   1.500 -0.2403  0.2913  0.2279
  948SOL     OW 3864   4.040   0.865   1.424  0.0986  0.0432 -0.2772
  948SOL    HW2 3865   4.119   0.823   1.459  0.3598  0.7633 -0.0108
  948SOL    HW3 3866   3.968   0.816   1.463  0.4083 -0.2757 -0.1009
  948SOL    MW4 3867   4.041   0.853   1.434  0.1740  0.0960 -0.2187
  949SOL     OW 3868   4.024   1.123   1.520  0.0417  0.2970 -0.0337
  949SOL    HW2 3869   4.014   1.122   1.616  0.3332 -0.3836 -0.0078
  949SOL    HW3 3870   4.002   1.034   1.493  1.3705  0.0938 -0.4494
  949SOL    MW4 3871   4.020   1.111   1.529  0.2551  0.1804 -0.0852
  950SOL     OW 3872   4.226   1.255   1.396  0.3857 -0.4526  0.2163
  950SOL    HW2 3873   4.168   1.194   1.442 -1.1006  0.5673 -0.2625
  950SOL    HW3 3874   4.314   1.227   1.420 -0.3132 -1.6936  1.4018
  950SOL    MW4 3875   4.230   1.243   1.405  0.0963 -0.4818  0.3096
  951SOL     OW 3876   4.235   1.513   1.496 -0.0117  0.5725  0.7047
  951SOL    HW2 3877   4.221   1.425   1.461  0.7316  0.2966  1.0820
  951SOL    HW3 3878   4.301   1.551   1.438 -0.2410  0.8337  0.6178
  951SOL    MW4 3879   4.242   1.506   1.484  0.0563  0.5708  0.7430
  952SOL     OW 3880   4.018   1.652   1.396  0.0010 -0.0952  0.0786
  952SOL    HW2 3881   4.086   1.600   1.438  0.0201  1.3969  1.9648
  952SOL    HW3 3882   3.935   1.613   1.425 -0.0275  1.8103  2.8346
  952SOL    MW4 3883   4.016   1.640   1.405 -0.0005  0.3530  0.6911
  953SOL     OW 3884   4.014   1.880   1.546  0.3578  0.0905  0.1203
  953SOL    HW2 3885   4.024   1.802   1.491 -0.7331  1.0434 -1.4604
  953SOL    HW3 3886   3.954   1.936   1.497  0.5836  1.6256  1.5768
  953SOL    MW4 3887   4.008   1.877   1.532  0.2437  0.4188  0.1040
  954SOL     OW 3888   4.231   2.023   1.443 -0.2891 -0.2878 -0.0289
  954SOL    HW2 3889   4.162   1.965   1.473  1.9255 -3.0024  0.0772
  954SOL    HW3 3890   4.217   2.030   1.348 -0.6612 -0.9249 -0.0232
  954SOL    MW4 3891   4.220   2.016   1.434 -0.0458 -0.7300 -0.0141
  955SOL     OW 3892   4.224   2.303   1.487 -0.1269  0.0682  0.2391
  955SOL    HW2 3893   4.216   2.317   1.581 -0.6769  0.9979  0.0581
  955SOL    HW3 3894   4.227   2.208   1.477 -2.4338 -0.1096  1.0213
  955SOL    MW4 3895   4.223   2.292   1.498 -0.5035  0.1674  0.3184
  956SOL     OW 3896   4.013   2.430   1.385  0.0470  0.3900  0.6850
  956SOL    HW2 3897   4.021   2.523   1.408  1.4518  0.3163  0.5343
  956SOL    HW3 3898   4.096   2.391   1.414 -0.3881 -0.7505  0.4199
  956SOL    MW4 3899   4.025   2.437   1.392  0.1750  0.2298  0.6301
  957SOL     OW 3900   4.042   2.686   1.484 -0.4687 -0.1056  0.3330
  957SOL    HW2 3901   4.037   2.720   1.573  0.2144  1.9186 -0.3505
  957SOL    HW3 3902   4.118   2.731   1.446 -1.0623 -0.5388 -1.4134
  957SOL    MW4 3903   4.051   2.697   1.490 -0.4573  0.1044  0.0123
  958SOL     OW 3904   4.257   2.846   1.387  0.4229 -0.2884  0.0911
  958SOL    HW2 3905   4.266   2.936   1.418  0.8952 -0.0582 -0.7137
  958SOL    HW3 3906   4.243   2.855   1.293  0.2042 -1.0469  0.0531
  958SOL    MW4 3907   4.256   2.859   1.379  0.4563 -0.3581 -0.0201
  959SOL     OW 3908   4.268   3.099   1.487 -0.3100 -0.0118 -0.4297
  959SOL    HW2 3909   4.263   3.130   1.578 -0.1352 -0.4233 -0.2821
  959SOL    HW3 3910   4.346   3.143   1.452 -0.0868 -0.2522 -0.2328
  959SOL    MW4 3911   4.278   3.109   1.495 -0.2575 -0.0978 -0.3843
  960SOL     OW 3912   4.037   3.239   1.373  0.3112 -0.1714  0.1868
  960SOL    HW2 3913   4.025   3.318   1.426 -0.2539 -0.3102  0.2788
  960SOL    HW3 3914   4.113   3.195   1.412 -0.3017 -0.4443  1.1099
  960SOL    MW4 3915   4.045   3.244   1.385  0.1559 -0.2260  0.3208
  961SOL     OW 3916   4.052   3.515   1.514 -0.3767  0.0872 -0.2177
  961SOL    HW2 3917   4.068   3.527   1.607 -0.9080 -0.2706 -0.0766
  961SOL    HW3 3918   4.125   3.559   1.471 -0.1454  0.2768  0.3662
  961SOL    MW4 3919   4.064   3.522   1.520 -0.4163  0.0648 -0.1221
  962SOL     OW 3920   4.275   3.586   1.361 -0.0505 -0.0202  0.0331
  962SOL    HW2 3921   4.270   3.674   1.400 -0.7137 -0.0078 -0.0716
  962SOL    HW3 3922   4.257   3.600   1.268 -0.7450 -0.3345  0.1137
  962SOL    MW4 3923   4.272   3.600   1.354 -0.2298 -0.0598  0.0300
  963SOL     OW 3924   4.244   3.840   1.460 -0.3006 -0.0096 -0.3976
  963SOL    HW2 3925   4.158   3.871   1.432 -1.0789  0.3118  2.1782
  963SOL    HW3 3926   4.304   3.909   1.433 -1.1933  0.8978 -0.1083
  963SOL    MW4 3927   4.240   3.853   1.453 -0.5207  0.1523 -0.0196
  964SOL     OW 3928   4.025   3.984   1.377 -0.0946 -0.5584 -0.0902
  964SOL    HW2 3929   4.031   4.068   1.422  0.1768 -1.4229  1.5052
  964SOL    HW3 3930   4.013   4.008   1.285 -0.9258  1.2163  0.4563
  964SOL    MW4 3931   4.024   3.998   1.371 -0.1683 -0.4382  0.1923
  965SOL     OW 3932   4.044   4.247   1.482  0.3234 -0.4982  0.4318
  965SOL    HW2 3933   4.045   4.262   1.576  0.3277  0.1989  0.3224
  965SOL    HW3 3934   3.958   4.276   1.453  0.2274 -0.9481  0.2547
  965SOL    MW4 3935   4.033   4.253   1.490  0.3104 -0.4654  0.3940
  966SOL     OW 3936   4.264   4.405   1.428  0.0413  0.0734  0.4057
  966SOL    HW2 3937   4.189   4.359   1.465  0.1019 -0.6242 -0.3091
  966SOL    HW3 3938   4.262   4.383   1.335  0.2038  1.3619  0.0988
  966SOL    MW4 3939   4.254   4.396   1.421  0.0706  0.1512  0.2710
  967SOL     OW 3940   0.233   4.641   1.819 -0.5234  0.8537 -0.6441
  967SOL    HW2 3941   0.306   4.687   1.859 -2.5619  2.6259  1.1720
  967SOL    HW3 3942   0.254   4.637   1.726  1.4866  2.0136 -0.2494
  967SOL    MW4 3943   0.245   4.646   1.812 -0.5271  1.2407 -0.3524
  968SOL     OW 3944   0.009   0.096   1.902  0.0522 -0.1235  0.3020
  968SOL    HW2 3945   0.012   0.178   1.852  1.5086 -0.6535 -0.5317
  968SOL    HW3 3946   0.086   0.048   1.872  0.8851 -0.5230  2.9814
  968SOL    MW4 3947   0.020   0.101   1.892  0.3542 -0.2462  0.5455
  969SOL     OW 3948   4.479   0.363   1.783  0.1459  0.0281  0.3905
  969SOL    HW2 3949   4.405   0.414   1.816  0.5817  0.8396  0.1130
  969SOL    HW3 3950   4.556   0.402   1.826  0.3001 -1.6257  1.6727
  969SOL    MW4 3951   4.479   0.375   1.793  0.2238 -0.0830  0.5231
  970SOL     OW 3952   0.237   0.498   1.900 -0.4695 -0.2720 -0.1299
  970SOL    HW2 3953   0.312   0.455   1.859 -0.6284 -0.3707 -0.3197
  970SOL    HW3 3954   0.235   0.585   1.860  0.0590  0.0346  0.5088
  970SOL    MW4 3955   0.247   0.504   1.889 -0.4207 -0.2446 -0.0706
  971SOL     OW 3956   0.196   0.766   1.824  0.3249 -0.2042 -0.1143
  971SOL    HW2 3957   0.263   0.826   1.857  0.8228  0.2916 -1.9943
  971SOL    HW3 3958   0.211   0.762   1.730 -2.0706 -0.3770 -0.5152
  971SOL    MW4 3959   0.207   0.773   1.816  0.0745 -0.1616 -0.4153
  972SOL     OW 3960   4.439   0.923   1.893  0.1152  0.1592 -0.0742
  972SOL    HW2 3961   4.367   0.868   1.861  0.0718  0.8712 -1.2294
  972SOL    HW3 3962   4.518   0.871   1.877 -0.0812 -0.3584  0.6094
  972SOL    MW4 3963   4.440   0.908   1.887  0.0834  0.1848 -0.1364
  973SOL     OW 3964   4.462   1.177   1.743 -0.2128  0.1960 -0.5655
  973SOL    HW2 3965   4.405   1.232   1.796  1.1446  0.1857  0.9340
  973SOL    HW3 3966   4.451   1.089   1.779  1.0233  0.2547 -0.0088
  973SOL    MW4 3967   4.453   1.173   1.754  0.1292  0.2024 -0.2942
  974SOL     OW 3968   0.190   1.305   1.885  0.2612 -0.1578 -0.0709
  974SOL    HW2 3969   0.187   1.397   1.858 -0.3728 -0.0392  0.3980
  974SOL    HW3 3970   0.115   1.264   1.841  1.7975 -0.9522 -2.0598
  974SOL    MW4 3971   0.180   1.312   1.876  0.3802 -0.2468 -0.2713
  975SOL     OW 3972   0.206   1.570   1.775  0.2725  0.6555 -0.0606
  975SOL    HW2 3973   0.268   1.620   1.829  0.6857  1.5802 -1.3828
  975SOL    HW3 3974   0.121   1.611   1.790  0.0756 -0.1857  1.2248
  975SOL    MW4 3975   0.203   1.582   1.784  0.3011  0.6665 -0.0653
  976SOL     OW 3976   4.446   1.677   1.901 -0.1270 -0.3835  0.1686
  976SOL    HW2 3977   4.464   1.653   1.992  0.8425 -0.3841 -0.0152
  976SOL    HW3 3978   4.373   1.621   1.875  0.0044 -0.8308  0.7557
  976SOL    MW4 3979   4.439   1.667   1.909  0.0181 -0.4426  0.2217
  977SOL     OW 3980   4.481   1.923   1.793 -0.3508 -0.1209  0.7249
  977SOL    HW2 3981   4.412   1.969   1.841 -0.7362 -0.6534  0.6935
  977SOL    HW3 3982   4.467   1.831   1.814 -0.1873 -0.3133  0.0197
  977SOL    MW4 3983   4.470   1.917   1.802 -0.3800 -0.2165  0.6278
  978SOL     OW 3984   0.201   2.079   1.916  0.3856 -0.4196  0.4513
  978SOL    HW2 3985   0.192   2.170   1.886  0.6449 -0.3801  0.4911
  978SOL    HW3 3986   0.131   2.032   1.872 -1.0782  0.2132  2.0473
  978SOL    MW4 3987   0.191   2.085   1.906  0.2266 -0.3307  0.6671
  979SOL     OW 3988   0.185   2.320   1.801 -0.1251  0.0952 -0.1725
  979SOL    HW2 3989   0.252   2.379   1.834  1.2760 -0.6145 -1.6877
  979SOL    HW3 3990   0.102   2.358   1.831  0.7807  2.4382 -0.5281
  979SOL    MW4 3991   0.183   2.333   1.809  0.1792  0.3109 -0.4193
  980SOL     OW 3992   4.434   2.445   1.877 -0.3860 -0.1385 -0.1125
  980SOL    HW2 3993   4.447   2.440   1.971  0.6540 -1.6965 -0.3161
  980SOL    HW3 3994   4.455   2.535   1.854  0.4527 -0.0498  0.9866
  980SOL    MW4 3995   4.438   2.456   1.886 -0.1383 -0.3324  0.0057
  981SOL     OW 3996   4.491   2.720   1.810 -0.0645 -0.4909 -0.4098
  981SOL    HW2 3997   4.429   2.790   1.829  0.5189 -0.0976  0.0398
  981SOL    HW3 3998   4.477   2.700   1.717 -1.2890 -0.8243 -0.1628
  981SOL    MW4 3999   4.481   2.727   1.800 -0.1497 -0.4833 -0.3178
  982SOL     OW 4000   0.240   2.846   1.904  0.0404 -0.6996  0.0494
  982SOL    HW2 4001   0.222   2.934   1.871  0.6480 -0.3004  0.7647
  982SOL    HW3 4002   0.169   2.792   1.868 -1.7532  0.5543  1.5834
  982SOL    MW4 4003   0.228   2.851   1.895 -0.1160 -0.4816  0.3461
  983SOL     OW 4004   0.211   3.113   1.800  0.7894 -0.0623  0.1742
  983SOL    HW2 4005   0.290   3.155   1.832 -0.1994  0.8204  1.4681
  983SOL    HW3 4006   0.139   3.165   1.835 -0.3726 -0.5427 -1.4110
  983SOL    MW4 4007   0.212   3.125   1.809  0.5056 -0.0093  0.1358
  984SOL     OW 4008   0.000   3.272   1.890 -0.5792 -0.2117 -0.3276
  984SOL    HW2 4009   0.006   3.271   1.985  0.9381  1.0951 -0.3843
  984SOL    HW3 4010  -0.084   3.230   1.870 -0.7931 -0.7024  1.5606
  984SOL    MW4 4011  -0.010   3.266   1.900 -0.4072 -0.1040 -0.0858
  985SOL     OW 4012   0.002   3.502   1.746 -0.2151  0.4807  0.3334
  985SOL    HW2 4013   0.070   3.560   1.779 -1.0164  0.4859  2.0294
  985SOL    HW3 4014   0.004   3.427   1.805 -1.0686  0.0746 -0.1463
  985SOL    MW4 4015   0.011   3.500   1.758 -0.4335  0.4277  0.4939
  986SOL     OW 4016   0.213   3.651   1.841 -0.0062  0.4995 -0.2369
  986SOL    HW2 4017   0.205   3.622   1.932 -1.7893 -1.1573 -0.8844
  986SOL    HW3 4018   0.283   3.597   1.805  0.9413  1.3980  0.2142
  986SOL    MW4 4019   0.221   3.640   1.848 -0.1164  0.3994 -0.2629
  987SOL     OW 4020   0.190   3.919   1.783  0.0024 -0.7321 -0.9247
  987SOL    HW2 4021   0.277   3.956   1.802  0.3844 -1.7729 -0.6106
  987SOL    HW3 4022   0.199   3.826   1.805 -1.1997 -0.8354 -0.8781
  987SOL    MW4 4023   0.203   3.912   1.789 -0.1058 -0.8829 -0.8770
  988SOL     OW 4024   4.439   4.006   1.893 -0.3783 -0.1951 -0.0283
  988SOL    HW2 4025   4.443   4.093   1.853 -0.3250 -0.0456  0.3075
  988SOL    HW3 4026   4.519   3.962   1.862 -0.6449 -0.2969 -0.5914
  988SOL    MW4 4027   4.450   4.012   1.883 -0.4063 -0.1893 -0.0584
  989SOL     OW 4028   4.476   4.245   1.794 -0.1133  0.1374  0.1695
  989SOL    HW2 4029   4.402   4.294   1.828 -0.8099 -0.2694 -0.7262
  989SOL    HW3 4030   4.553   4.296   1.818 -0.6469  0.2813  1.5820
  989SOL    MW4 4031   4.476   4.258   1.802 -0.2756  0.1030  0.2377
  990SOL     OW 4032   0.231   4.351   1.887  0.8840 -0.5709  0.4787
  990SOL    HW2 4033   0.245   4.342   1.981 -0.3522  0.4353  0.7639
  990SOL    HW3 4034   0.241   4.444   1.869 -0.6909 -0.4915 -0.0811
  990SOL    MW4 4035   0.234   4.362   1.897  0.5131 -0.4282  0.4424
  991SOL     OW 4036   0.684   4.665   1.800  0.3059  0.0021  0.2306
  991SOL    HW2 4037   0.696   4.570   1.804  0.1586  0.0251  1.5429
  991SOL    HW3 4038   0.676   4.684   1.707  3.5670 -0.8521 -0.2887
  991SOL    MW4 4039   0.684   4.655   1.789  0.7168 -0.1075  0.3353
  992SOL     OW 4040   0.443   0.104   1.926 -0.1717 -0.1694  0.0941
  992SOL    HW2 4041   0.440   0.192   1.887  0.5038 -0.8535 -1.5470
  992SOL    HW3 4042   0.524   0.066   1.892 -0.8452 -1.7164  0.1866
  992SOL    MW4 4043   0.454   0.111   1.917 -0.1714 -0.4638 -0.1103
  993SOL     OW 4044   0.461   0.361   1.805 -0.1315  0.1485  0.1303
  993SOL    HW2 4045   0.545   0.403   1.823 -0.4184  0.4278  0.8398
  993SOL    HW3 4046   0.452   0.365   1.709 -0.2655  1.9441  0.1860
  993SOL    MW4 4047   0.471   0.367   1.795 -0.1870  0.4223  0.2313
  994SOL     OW 4048   0.684   0.538   1.853  0.1275 -0.2682 -0.4035
  994SOL    HW2 4049   0.696   0.547   1.948 -1.0398 -2.6399  0.0214
  994SOL    HW3 4050   0.749   0.472   1.828 -1.3451 -1.6243 -0.7559
  994SOL    MW4 4051   0.694   0.530   1.862 -0.2208 -0.7600 -0.3940
  995SOL     OW 4052   0.664   0.798   1.784 -0.1179  0.5730 -0.1395
  995SOL    HW2 4053   0.745   0.838   1.817  0.8199  0.4556 -2.1855
  995SOL    HW3 4054   0.670   0.706   1.809  0.4533  0.5353 -0.4120
  995SOL    MW4 4055   0.675   0.791   1.791  0.0812  0.5525 -0.4454
  996SOL     OW 4056   0.432   0.916   1.896  0.0987 -0.0604  0.1813
  996SOL    HW2 4057   0.441   1.008   1.873  0.0980 -0.0409  0.2614
  996SOL    HW3 4058   0.514   0.876   1.866  0.3469  0.0721  0.6798
  996SOL    MW4 4059   0.444   0.923   1.889  0.1313 -0.0404  0.2576
  997SOL     OW 4060   0.419   1.171   1.804  0.0053 -0.2276 -0.0369
  997SOL    HW2 4061   0.340   1.221   1.824  0.3513 -0.3202  1.6342
  997SOL    HW3 4062   0.418   1.162   1.708 -1.2413  1.0064 -0.1586
  997SOL    MW4 4063   0.408   1.176   1.794 -0.1135 -0.0771  0.1675
  998SOL     OW 4064   0.668   1.250   1.914  0.3277  0.1859  0.0692
  998SOL    HW2 4065   0.680   1.256   2.009 -0.8344  0.3990  0.2140
  998SOL    HW3 4066   0.575   1.229   1.903  0.4492  0.1956 -1.0210
  998SOL    MW4 4067   0.658   1.248   1.925  0.1904  0.2152 -0.0554
  999SOL     OW 4068   0.644   1.525   1.829 -1.1723  0.6297  0.1024
  999SOL    HW2 4069   0.636   1.432   1.849  0.5620  0.3867 -0.2301
  999SOL    HW3 4070   0.651   1.528   1.733  1.3445  0.8384  0.2389
  999SOL    MW4 4071   0.644   1.513   1.819 -0.6114  0.6253  0.0767
 1000SOL     OW 4072   0.410   1.684   1.928  0.2228  0.0694  0.2278
 1000SOL    HW2 4073   0.431   1.702   2.019 -1.1081 -2.5190  1.1133
 1000SOL    HW3 4074   0.476   1.621   1.900 -0.5692 -0.7087  0.0681
 1000SOL    MW4 4075   0.421   1.678   1.936 -0.0573 -0.3748  0.3234
 1001SOL     OW 4076   0.420   1.953   1.816 -0.2733  0.5073 -0.1185
 1001SOL    HW2 4077   0.422   1.872   1.867 -1.5363  0.6114  0.1019
 1001SOL    HW3 4078   0.343   2.000   1.848 -0.5080  1.0224 -1.4160
 1001SOL    MW4 4079   0.410   1.949   1.827 -0.4709  0.5889 -0.2606
 1002SOL     OW 4080   0.647   2.074   1.923 -0.2655  0.1394  0.0243
 1002SOL    HW2 4081   0.637   2.078   2.018  0.1047 -1.2526  0.1237
 1002SOL    HW3 4082   0.570   2.026   1.892 -0.2231  0.3071 -0.3509
 1002SOL    MW4 4083   0.635   2.068   1.931 -0.2111 -0.0219 -0.0120
 1003SOL     OW 4084   0.615   2.312   1.808 -0.1692  0.1261  1.1660
 1003SOL    HW2 4085   0.615   2.220   1.836 -0.2590  0.2829  1.6772
 1003SOL    HW3 4086   0.633   2.308   1.714  0.2933 -0.3898  1.2767
 1003SOL    MW4 4087   0.617   2.299   1.799 -0.1200  0.0789  1.2480
 1004SOL     OW 4088   0.399   2.482   1.873  0.4253  0.1202 -0.1922
 1004SOL    HW2 4089   0.410   2.484   1.968  0.4445  1.3929 -0.2128
 1004SOL    HW3 4090   0.465   2.420   1.842  1.0645  0.4337  0.5365
 1004SOL    MW4 4091   0.409   2.474   1.882  0.5122  0.3297 -0.0988
 1005SOL     OW 4092   0.491   2.738   1.813 -0.5323 -0.0609  0.0544
 1005SOL    HW2 4093   0.476   2.645   1.824 -0.2072 -0.1222 -0.0073
 1005SOL    HW3 4094   0.415   2.780   1.854 -0.6440 -0.3496  0.1417
 1005SOL    MW4 4095   0.479   2.732   1.820 -0.5042 -0.1073  0.0577
 1006SOL     OW 4096   0.709   2.879   1.913  0.3217  0.1308  0.4859
 1006SOL    HW2 4097   0.705   2.876   2.009  0.6732 -0.0341  0.4974
 1006SOL    HW3 4098   0.627   2.838   1.884  0.5004 -0.3996  0.7167
 1006SOL    MW4 4099   0.698   2.873   1.922  0.3917  0.0386  0.5177
 1007SOL     OW 4100   0.657   3.130   1.782  0.2077 -0.6419  0.2348
 1007SOL    HW2 4101   0.677   3.046   1.824 -0.9043 -1.0932 -0.1313
 1007SOL    HW3 4102   0.666   3.112   1.688  0.7221 -0.1503  0.1875
 1007SOL    MW4 4103   0.661   3.116   1.775  0.1288 -0.6368  0.1801
 1008SOL     OW 4104   0.431   3.233   1.894 -0.1592  0.0306 -0.2131
 1008SOL    HW2 4105   0.423   3.314   1.845  0.2743 -0.2200 -0.6968
 1008SOL    HW3 4106   0.513   3.194   1.864 -0.8288 -1.0473 -0.6850
 1008SOL    MW4 4107   0.441   3.238   1.884 -0.1904 -0.1447 -0.3392
 1009SOL     OW 4108   0.434   3.482   1.790 -0.1274  0.3814  0.0790
 1009SOL    HW2 4109   0.492   3.524   1.853 -0.4130 -0.1131  0.6746
 1009SOL    HW3 4110   0.460   3.518   1.705  1.1026  0.1078  0.3295
 1009SOL    MW4 4111   0.445   3.492   1.787 -0.0028  0.2804  0.1906
 1010SOL     OW 4112   0.640   3.595   1.933  0.0151  0.4273 -0.1948
 1010SOL    HW2 4113   0.714   3.550   1.892  0.0581 -0.1769  0.5257
 1010SOL    HW3 4114   0.641   3.683   1.895  0.9269  0.3302 -0.4061
 1010SOL    MW4 4115   0.650   3.601   1.923  0.1411  0.3350 -0.1276
 1011SOL     OW 4116   0.653   3.856   1.797  0.5085 -0.4364  0.3456
 1011SOL    HW2 4117   0.733   3.908   1.812  0.0812  0.4273 -0.3149
 1011SOL    HW3 4118   0.635   3.867   1.703  0.0546 -1.2705  0.3351
 1011SOL    MW4 4119   0.661   3.865   1.786  0.3922 -0.4325  0.2571
 1012SOL     OW 4120   0.447   4.028   1.860 -0.1019 -0.1814  0.0914
 1012SOL    HW2 4121   0.481   4.102   1.811  0.6560  0.5065  1.6154
 1012SOL    HW3 4122   0.516   3.962   1.857  0.2987  0.1850  0.9107
 1012SOL    MW4 4123   0.460   4.029   1.853  0.0510 -0.0424  0.4007
 1013SOL     OW 4124   0.478   4.290   1.784 -0.2235 -0.5199 -0.2293
 1013SOL    HW2 4125   0.393   4.317   1.818 -0.6725 -2.5736  0.3509
 1013SOL    HW3 4126   0.469   4.294   1.689 -0.3591  1.0243 -0.1696
 1013SOL    MW4 4127   0.466   4.294   1.776 -0.3006 -0.5870 -0.1448
 1014SOL     OW 4128   0.723   4.398   1.857  0.2183 -0.1630 -0.0674
 1014SOL    HW2 4129   0.793   4.341   1.826  0.5874 -0.2108  0.8332
 1014SOL    HW3 4130   0.642   4.356   1.827  0.5218 -0.7705 -0.0359
 1014SOL    MW4 4131   0.721   4.385   1.849  0.3070 -0.2494  0.0556
 1015SOL     OW 4132   1.154   4.626   1.740  0.2300 -0.1181  0.2075
 1015SOL    HW2 4133   1.223   4.679   1.779 -0.2155 -0.1244  1.0115
 1015SOL    HW3 4134   1.153   4.546   1.792 -1.6566  0.6628  1.3994
 1015SOL    MW4 4135   1.163   4.622   1.752 -0.0777 -0.0162  0.4708
 1016SOL     OW 4136   0.944   0.064   1.903  0.0338 -0.5648 -0.0884
 1016SOL    HW2 4137   1.018   0.048   1.845 -0.3181  1.7056 -1.2003
 1016SOL    HW3 4138   0.868   0.030   1.855 -0.0274 -0.2567 -0.2103
 1016SOL    MW4 4139   0.944   0.057   1.889 -0.0207 -0.2246 -0.2512
 1017SOL     OW 4140   0.898   0.345   1.787  0.6699  0.3760  0.1914
 1017SOL    HW2 4141   0.972   0.403   1.803 -0.2868  1.8320 -0.6105
 1017SOL    HW3 4142   0.918   0.266   1.838  1.5929  1.6969  1.9104
 1017SOL    MW4 4143   0.911   0.342   1.796  0.6655  0.7424  0.3124
 1018SOL     OW 4144   1.115   0.507   1.842 -0.4104  0.3295 -0.7566
 1018SOL    HW2 4145   1.196   0.467   1.811 -0.8590  0.1313 -1.6837
 1018SOL    HW3 4146   1.112   0.592   1.799 -0.6619  0.3640 -0.6715
 1018SOL    MW4 4147   1.125   0.513   1.832 -0.5028  0.3078 -0.8676
 1019SOL     OW 4148   1.134   0.785   1.797 -0.1468  0.4150  0.1201
 1019SOL    HW2 4149   1.210   0.835   1.827 -0.3963 -0.2889  2.0270
 1019SOL    HW3 4150   1.060   0.823   1.844 -0.9364  0.8969 -1.4989
 1019SOL    MW4 4151   1.134   0.797   1.807 -0.2838  0.3856  0.1581
 1020SOL     OW 4152   0.891   0.922   1.900 -0.4132  0.1796  0.1280
 1020SOL    HW2 4153   0.897   0.930   1.995  1.7425 -1.6555  0.1748
 1020SOL    HW3 4154   0.905   1.011   1.868  1.4975  0.3735  1.4338
 1020SOL    MW4 4155   0.893   0.935   1.908  0.1233 -0.0368  0.3064
 1021SOL     OW 4156   0.886   1.183   1.775 -0.2324  0.0560  0.0461
 1021SOL    HW2 4157   0.805   1.194   1.825 -0.4941  1.5776 -0.6702
 1021SOL    HW3 4158   0.950   1.237   1.821 -0.5784  1.7824 -1.4521
 1021SOL    MW4 4159   0.883   1.192   1.788 -0.3126  0.4845 -0.2460
 1022SOL     OW 4160   1.095   1.317   1.946 -0.3488 -0.4470 -0.1317
 1022SOL    HW2 4161   1.118   1.315   2.038 -0.0415 -0.3474 -0.2076
 1022SOL    HW3 4162   1.101   1.410   1.921 -1.6889 -0.2863  0.0691
 1022SOL    MW4 4163   1.099   1.329   1.955 -0.4851 -0.4126 -0.1153
 1023SOL     OW 4164   1.132   1.590   1.876 -0.0276  0.6107 -0.0060
 1023SOL    HW2 4165   1.053   1.637   1.902 -0.3467  1.0245 -1.6073
 1023SOL    HW3 4166   1.114   1.562   1.786  0.8897 -0.9929  0.3004
 1023SOL    MW4 4167   1.119   1.593   1.867  0.0514  0.4537 -0.1770
 1024SOL     OW 4168   0.863   1.665   1.937 -0.5030  0.0429  0.0999
 1024SOL    HW2 4169   0.861   1.756   1.906 -1.1438 -0.1483 -0.4397
 1024SOL    HW3 4170   0.785   1.626   1.899 -0.3165 -0.6929  0.4745
 1024SOL    MW4 4171   0.852   1.672   1.928 -0.5630 -0.0795  0.0782
 1025SOL     OW 4172   0.875   1.933   1.834  0.7284 -0.1505 -0.7763
 1025SOL    HW2 4173   0.798   1.979   1.868  0.2048 -0.9810 -0.8280
 1025SOL    HW3 4174   0.864   1.936   1.739 -0.4636 -2.2875 -0.7514
 1025SOL    MW4 4175   0.863   1.939   1.826  0.5021 -0.5419 -0.7796
 1026SOL     OW 4176   1.106   2.047   1.909  0.1631 -0.3295 -0.4429
 1026SOL    HW2 4177   1.084   2.139   1.892  0.1542 -0.4394 -1.0375
 1026SOL    HW3 4178   1.026   1.999   1.886  0.8774 -0.6909 -2.1745
 1026SOL    MW4 4179   1.092   2.053   1.904  0.2562 -0.3917 -0.7499
 1027SOL     OW 4180   1.076   2.318   1.824  0.1484 -0.1804  0.2735
 1027SOL    HW2 4181   1.163   2.338   1.857  0.0672 -2.5541  2.0991
 1027SOL    HW3 4182   1.078   2.344   1.732  2.2632  1.2233  0.6880
 1027SOL    MW4 4183   1.088   2.324   1.817  0.4166 -0.3083  0.5691
 1028SOL     OW 4184   0.848   2.452   1.874  0.3215  0.4194  0.2996
 1028SOL    HW2 4185   0.914   2.391   1.840  0.8038  0.4562  1.1589
 1028SOL    HW3 4186   0.765   2.409   1.857  0.5138  0.7468 -1.5527
 1028SOL    MW4 4187   0.846   2.438   1.867  0.4106  0.4673  0.1687
 1029SOL     OW 4188   0.916   2.719   1.791 -0.0667  0.3239  0.2287
 1029SOL    HW2 4189   0.887   2.634   1.823  1.6587 -0.9033 -1.3607
 1029SOL    HW3 4190   0.864   2.782   1.840 -1.6980 -1.6536  1.1034
 1029SOL    MW4 4191   0.906   2.716   1.802 -0.0542 -0.0989  0.1345
 1030SOL     OW 4192   1.136   2.870   1.888 -0.3573  0.3198  0.2405
 1030SOL    HW2 4193   1.119   2.866   1.982 -1.2815 -0.2439  0.0662
 1030SOL    HW3 4194   1.056   2.833   1.848 -0.1356  0.9054 -0.7703
 1030SOL    MW4 4195   1.123   2.864   1.895 -0.4499  0.3228  0.0840
 1031SOL     OW 4196   1.085   3.104   1.752  0.4212 -0.1217  0.0836
 1031SOL    HW2 4197   1.027   3.150   1.813  1.2771 -0.2895  1.0272
 1031SOL    HW3 4198   1.113   3.025   1.800 -1.6465 -2.0681 -1.7899
 1031SOL    MW4 4199   1.081   3.099   1.767  0.2613 -0.4005 -0.0390
 1032SOL     OW 4200   0.871   3.228   1.901 -0.5568 -0.3570 -0.1321
 1032SOL    HW2 4201   0.864   3.211   1.995  0.6694  2.2540  0.4767
 1032SOL    HW3 4202   0.788   3.198   1.865 -1.1757 -1.0942  1.8214
 1032SOL    MW4 4203   0.859   3.222   1.909 -0.4767 -0.1097  0.2060
 1033SOL     OW 4204   0.860   3.501   1.793  0.3106 -0.5433 -0.4599
 1033SOL    HW2 4205   0.888   3.412   1.816  0.9638 -0.3302 -0.4251
 1033SOL    HW3 4206   0.856   3.500   1.697  1.1288 -0.3653 -0.4949
 1033SOL    MW4 4207   0.863   3.489   1.783  0.5048 -0.4919 -0.4599
 1034SOL     OW 4208   1.106   3.597   1.886  0.1571 -0.0904  0.2748
 1034SOL    HW2 4209   1.092   3.593   1.981 -0.3973  1.4525  0.2787
 1034SOL    HW3 4210   1.022   3.571   1.848  0.1477  0.0205  0.2185
 1034SOL    MW4 4211   1.093   3.593   1.894  0.0827  0.1278  0.2677
 1035SOL     OW 4212   1.126   3.857   1.810  0.1157 -0.6967  0.0778
 1035SOL    HW2 4213   1.122   3.767   1.842 -1.5565 -1.3594 -1.8233
 1035SOL    HW3 4214   1.121   3.849   1.714 -0.1847  1.3998 -0.1199
 1035SOL    MW4 4215   1.125   3.844   1.801 -0.1447 -0.5074 -0.1991
 1036SOL     OW 4216   0.891   4.010   1.865  0.0001 -0.5539 -0.1049
 1036SOL    HW2 4217   0.892   4.033   1.958 -0.1288  0.0997 -0.2587
 1036SOL    HW3 4218   0.975   3.968   1.850  1.2334  1.8475 -0.2886
 1036SOL    MW4 4219   0.902   4.008   1.876  0.1458 -0.1507 -0.1494
 1037SOL     OW 4220   0.931   4.259   1.756  0.1897 -0.1530  0.0675
 1037SOL    HW2 4221   0.925   4.167   1.782 -1.1174 -0.4994 -1.3825
 1037SOL    HW3 4222   1.015   4.289   1.792 -0.2327 -1.3827  2.1456
 1037SOL    MW4 4223   0.942   4.251   1.764 -0.0384 -0.3610  0.1503
 1038SOL     OW 4224   1.159   4.402   1.894 -0.6029 -0.1235  0.0166
 1038SOL    HW2 4225   1.136   4.388   1.986 -0.4688 -2.3387 -0.2591
 1038SOL    HW3 4226   1.241   4.353   1.882 -0.4634  0.3943 -1.2020
 1038SOL    MW4 4227   1.167   4.393   1.905 -0.5668 -0.3471 -0.1805
 1039SOL     OW 4228   1.545   4.597   1.792  0.0329 -0.0182 -0.0467
 1039SOL    HW2 4229   1.627   4.634   1.823  1.3018 -0.7767 -2.3943
 1039SOL    HW3 4230   1.557   4.503   1.799 -0.5325 -0.1379 -0.6442
 1039SOL    MW4 4231   1.557   4.590   1.797  0.1256 -0.1345 -0.4352
 1040SOL     OW 4232   1.353   0.136   1.851  0.1785 -0.1735 -0.3096
 1040SOL    HW2 4233   1.345   0.142   1.946  1.5700 -2.2794 -0.0222
 1040SOL    HW3 4234   1.429   0.078   1.837 -0.4198 -0.4271 -2.6852
 1040SOL    MW4 4235   1.362   0.129   1.861  0.2831 -0.4848 -0.5851
 1041SOL     OW 4236   1.363   0.392   1.770  0.0004  0.5389  0.1742
 1041SOL    HW2 4237   1.360   0.304   1.806  0.0287 -0.0066 -1.1271
 1041SOL    HW3 4238   1.367   0.379   1.675  0.2734  1.9332 -0.0150
 1041SOL    MW4 4239   1.363   0.379   1.762  0.0402  0.6509 -0.0226
 1042SOL     OW 4240   1.591   0.501   1.882 -0.0857  0.0128 -0.2962
 1042SOL    HW2 4241   1.662   0.441   1.859  1.2193  1.1254  0.6530
 1042SOL    HW3 4242   1.513   0.465   1.841  0.9948 -1.3955 -1.1382
 1042SOL    MW4 4243   1.590   0.488   1.874  0.2292 -0.0263 -0.2820
 1043SOL     OW 4244   1.592   0.788   1.789  0.4684  0.0559 -0.5380
 1043SOL    HW2 4245   1.664   0.839   1.825 -0.5775  0.7183  0.6991
 1043SOL    HW3 4246   1.596   0.705   1.835 -0.7315  0.8203  1.0067
 1043SOL    MW4 4247   1.602   0.784   1.800  0.1721  0.2441 -0.1711
 1044SOL     OW 4248   1.369   0.911   1.882 -0.4511  0.1899 -0.2658
 1044SOL    HW2 4249   1.367   0.897   1.977 -0.8487  0.0782 -0.2891
 1044SOL    HW3 4250   1.448   0.866   1.853 -1.5908 -1.8299 -0.3141
 1044SOL    MW4 4251   1.379   0.903   1.891 -0.6539 -0.0913 -0.2753
 1045SOL     OW 4252   1.310   1.177   1.809  0.3174  0.8744 -0.0208
 1045SOL    HW2 4253   1.331   1.098   1.858 -0.3145  0.0846 -1.0091
 1045SOL    HW3 4254   1.245   1.222   1.862 -1.4891 -0.7182 -0.7927
 1045SOL    MW4 4255   1.304   1.172   1.822 -0.0044  0.5602 -0.2532
 1046SOL     OW 4256   1.571   1.281   1.840  0.0807  0.6887 -0.0751
 1046SOL    HW2 4257   1.547   1.372   1.824 -1.3360  0.4772  0.6789
 1046SOL    HW3 4258   1.490   1.232   1.821  0.7051 -0.3570 -0.0630
 1046SOL    MW4 4259   1.557   1.287   1.835 -0.0238  0.5229  0.0260
 1047SOL     OW 4260   1.535   1.569   1.784 -0.0552  0.3146  0.1106
 1047SOL    HW2 4261   1.618   1.607   1.811  0.4446 -0.3892 -0.4176
 1047SOL    HW3 4262   1.469   1.630   1.818  0.5960  0.1271  1.7660
 1047SOL    MW4 4263   1.537   1.582   1.792  0.0966  0.1969  0.2594
 1048SOL     OW 4264   1.342   1.763   1.895  0.0447  0.0950 -0.1574
 1048SOL    HW2 4265   1.375   1.759   1.985  0.8899 -0.6300 -0.4873
 1048SOL    HW3 4266   1.265   1.706   1.896 -1.3317  1.9406  0.6627
 1048SOL    MW4 4267   1.336   1.755   1.907 -0.0254  0.2428 -0.0927
 1049SOL     OW 4268   1.349   1.989   1.730 -0.5433 -0.0144  0.2383
 1049SOL    HW2 4269   1.356   1.907   1.778  1.3183 -1.1009 -1.7954
 1049SOL    HW3 4270   1.280   2.037   1.774 -1.3303 -2.4747  1.7607
 1049SOL    MW4 4271   1.341   1.985   1.742 -0.4015 -0.4822  0.1707
 1050SOL     OW 4272   1.592   2.062   1.850 -0.0276 -0.3408  0.2411
 1050SOL    HW2 4273   1.591   2.158   1.852 -0.2055 -0.2987 -0.9870
 1050SOL    HW3 4274   1.510   2.039   1.805 -0.4489 -1.1075  1.3893
 1050SOL    MW4 4275   1.581   2.072   1.844 -0.1067 -0.4365  0.2307
 1051SOL     OW 4276   1.578   2.367   1.776 -0.3672  0.0078  0.2896
 1051SOL    HW2 4277   1.665   2.403   1.793 -0.2772 -1.0894  2.3739
 1051SOL    HW3 4278   1.581   2.337   1.686  1.5400 -0.3330  0.4460
 1051SOL    MW4 4279   1.590   2.368   1.767 -0.1038 -0.1819  0.5852
 1052SOL     OW 4280   1.328   2.435   1.878 -0.0121  0.1767 -0.0882
 1052SOL    HW2 4281   1.317   2.529   1.860  1.2995  0.3426 -0.0329
 1052SOL    HW3 4282   1.409   2.411   1.834  0.1794 -0.7129  0.7231
 1052SOL    MW4 4283   1.337   2.444   1.870  0.1862  0.0813  0.0262
 1053SOL     OW 4284   1.341   2.702   1.813  0.0268  0.5670  0.0937
 1053SOL    HW2 4285   1.260   2.750   1.830 -1.5342 -2.2151  0.8427
 1053SOL    HW3 4286   1.353   2.710   1.718 -0.8902  1.3743  0.0281
 1053SOL    MW4 4287   1.332   2.709   1.802 -0.3000  0.3064  0.1838
 1054SOL     OW 4288   1.589   2.817   1.881  0.5973  0.1557 -0.3704
 1054SOL    HW2 4289   1.583   2.816   1.977  0.0024  2.0730 -0.3645
 1054SOL    HW3 4290   1.504   2.786   1.851 -0.1017  1.9443 -0.2686
 1054SOL    MW4 4291   1.577   2.812   1.890  0.4264  0.6447 -0.3561
 1055SOL     OW 4292   1.529   3.066   1.794  0.5781 -0.0112  0.0853
 1055SOL    HW2 4293   1.561   2.985   1.833  0.0703 -0.2272  0.0609
 1055SOL    HW3 4294   1.526   3.048   1.700  0.6804  0.1110  0.0588
 1055SOL    MW4 4295   1.532   3.053   1.787  0.5246 -0.0236  0.0787
 1056SOL     OW 4296   1.316   3.229   1.864 -0.1833  0.4020 -0.3495
 1056SOL    HW2 4297   1.388   3.171   1.838 -0.6429  0.7966 -2.6502
 1056SOL    HW3 4298   1.244   3.205   1.806 -1.6318  0.6206  1.3375
 1056SOL    MW4 4299   1.316   3.218   1.853 -0.4350  0.4828 -0.4303
 1057SOL     OW 4300   1.335   3.495   1.815 -0.2785 -0.1686  0.3691
 1057SOL    HW2 4301   1.317   3.403   1.831 -0.7849 -0.4096 -1.5483
 1057SOL    HW3 4302   1.251   3.539   1.826 -0.5100 -0.2558 -1.0316
 1057SOL    MW4 4303   1.322   3.489   1.819 -0.3757 -0.2122 -0.0688
 1058SOL     OW 4304   1.568   3.630   1.885  0.1063  0.2292  0.3386
 1058SOL    HW2 4305   1.572   3.618   1.980 -1.1397 -0.9621  0.2629
 1058SOL    HW3 4306   1.490   3.581   1.858  0.9409 -0.1856 -1.4145
 1058SOL    MW4 4307   1.558   3.622   1.894  0.0520  0.0174  0.0974
 1059SOL     OW 4308   1.569   3.886   1.797 -0.5421  0.5568  0.3444
 1059SOL    HW2 4309   1.640   3.941   1.831 -0.9846  0.6154  1.1716
 1059SOL    HW3 4310   1.590   3.798   1.828 -0.7027  0.5326  0.3844
 1059SOL    MW4 4311   1.581   3.881   1.805 -0.6217  0.5612  0.4588
 1060SOL     OW 4312   1.340   3.996   1.902  0.4892  0.1113 -0.3980
 1060SOL    HW2 4313   1.420   3.951   1.873  0.5487 -0.8549  1.2108
 1060SOL    HW3 4314   1.269   3.943   1.865  0.5881  0.0628 -0.5196
 1060SOL    MW4 4315   1.341   3.983   1.893  0.5101 -0.0224 -0.2018
 1061SOL     OW 4316   1.370   4.228   1.779  0.0434 -0.1333  0.1439
 1061SOL    HW2 4317   1.342   4.150   1.828  1.8462 -0.1377  1.2014
 1061SOL    HW3 4318   1.346   4.208   1.688 -0.7101 -1.3650  0.5889
 1061SOL    MW4 4319   1.363   4.215   1.773  0.1819 -0.2966  0.3421
 1062SOL     OW 4320   1.622   4.342   1.862 -0.2725  0.1968  0.1977
 1062SOL    HW2 4321   1.620   4.359   1.956 -0.7994  0.9703  0.0468
 1062SOL    HW3 4322   1.539   4.297   1.843  0.6540 -1.6643  0.4165
 1062SOL    MW4 4323   1.611   4.338   1.872 -0.2198  0.0534  0.2067
 1063SOL     OW 4324   2.006   4.634   1.775  0.5037 -0.0694 -0.0691
 1063SOL    HW2 4325   2.085   4.670   1.815  0.8856 -0.5440 -0.4009
 1063SOL    HW3 4326   2.016   4.539   1.782  0.3939 -0.1456 -0.9622
 1063SOL    MW4 4327   2.018   4.627   1.782  0.5395 -0.1421 -0.2307
 1064SOL     OW 4328   1.767   0.074   1.856  0.4641  0.4634  0.0714
 1064SOL    HW2 4329   1.786   0.089   1.949  1.9219 -0.0539 -0.1391
 1064SOL    HW3 4330   1.844   0.030   1.822 -0.7195 -0.7850 -1.0442
 1064SOL    MW4 4331   1.779   0.070   1.864  0.5003  0.2304 -0.1035
 1065SOL     OW 4332   1.797   0.345   1.759  0.1971  0.5117 -0.4570
 1065SOL    HW2 4333   1.794   0.254   1.788 -0.5441  0.4628 -0.6589
 1065SOL    HW3 4334   1.787   0.339   1.664 -1.9039  0.8959 -0.2934
 1065SOL    MW4 4335   1.795   0.332   1.750 -0.1780  0.5559 -0.4619
 1066SOL     OW 4336   1.999   0.507   1.871 -0.4366  0.0657  0.2166
 1066SOL    HW2 4337   1.975   0.596   1.844  1.2109 -0.0414 -1.7290
 1066SOL    HW3 4338   1.939   0.450   1.825  1.1302 -0.0145 -1.7827
 1066SOL    MW4 4339   1.988   0.511   1.862 -0.0126  0.0409 -0.3039
 1067SOL     OW 4340   1.995   0.791   1.806 -0.2023  0.2891  0.3026
 1067SOL    HW2 4341   2.086   0.811   1.828  0.0544 -0.5989  0.0663
 1067SOL    HW3 4342   1.995   0.783   1.710 -0.5096  0.2153  0.3088
 1067SOL    MW4 4343   2.007   0.793   1.796 -0.2089  0.1622  0.2720
 1068SOL     OW 4344   1.779   0.941   1.907 -0.0705 -0.2469 -0.0685
 1068SOL    HW2 4345   1.785   1.016   1.848  1.4061  0.0561  0.4322
 1068SOL    HW3 4346   1.858   0.890   1.889 -0.1476 -0.7133  0.8797
 1068SOL    MW4 4347   1.790   0.944   1.897  0.1141 -0.2685  0.1227
 1069SOL     OW 4348   1.814   1.187   1.745 -0.2325 -0.5407 -0.3685
 1069SOL    HW2 4349   1.730   1.221   1.778 -0.2447 -0.8560 -0.0772
 1069SOL    HW3 4350   1.801   1.179   1.650 -0.3806 -0.1594 -0.3828
 1069SOL    MW4 4351   1.801   1.191   1.737 -0.2538 -0.5319 -0.3320
 1070SOL     OW 4352   2.045   1.285   1.894  0.1402 -0.1069  0.1889
 1070SOL    HW2 4353   2.124   1.242   1.863 -0.0047  0.1412 -0.5309
 1070SOL    HW3 4354   1.974   1.245   1.844 -0.1879 -0.2931  0.7924
 1070SOL    MW4 4355   2.046   1.274   1.883  0.0780 -0.0987  0.1734
 1071SOL     OW 4356   2.037   1.547   1.813  0.5070  0.3054  0.2337
 1071SOL    HW2 4357   2.036   1.454   1.835 -0.1506 -0.0696 -1.3098
 1071SOL    HW3 4358   2.034   1.550   1.717 -3.0727  1.9009  0.2839
 1071SOL    MW4 4359   2.036   1.535   1.803 -0.0522  0.4665  0.0366
 1072SOL     OW 4360   1.779   1.675   1.856  0.2983 -0.0747 -0.5025
 1072SOL    HW2 4361   1.804   1.756   1.813  0.8952 -0.0140 -0.0400
 1072SOL    HW3 4362   1.852   1.615   1.840  0.9908  0.2573  1.2561
 1072SOL    MW4 4363   1.792   1.678   1.849  0.4685 -0.0228 -0.2096
 1073SOL     OW 4364   1.831   1.928   1.756  0.1190 -0.1518 -0.1093
 1073SOL    HW2 4365   1.763   1.988   1.787 -0.7394 -1.0847 -0.1526
 1073SOL    HW3 4366   1.829   1.937   1.661 -0.0763 -0.3085 -0.1214
 1073SOL    MW4 4367   1.822   1.937   1.747 -0.0201 -0.2956 -0.1165
 1074SOL     OW 4368   2.035   2.062   1.868 -0.1443  0.0504  0.2834
 1074SOL    HW2 4369   2.112   2.023   1.826  0.5523  1.8721 -0.1821
 1074SOL    HW3 4370   1.961   2.010   1.837  0.8086 -1.1694  0.0393
 1074SOL    MW4 4371   2.035   2.050   1.858  0.0730  0.1299  0.1897
 1075SOL     OW 4372   2.021   2.305   1.713 -0.1653  0.2516 -0.1632
 1075SOL    HW2 4373   2.100   2.351   1.739 -0.4401  1.2981 -1.1206
 1075SOL    HW3 4374   2.026   2.221   1.758  0.8282  0.8300  0.8340
 1075SOL    MW4 4375   2.032   2.300   1.722 -0.0708  0.4659 -0.1580
 1076SOL     OW 4376   1.835   2.454   1.849 -0.1302  0.1343 -0.1309
 1076SOL    HW2 4377   1.835   2.432   1.942  0.2876 -0.8902 -0.3659
 1076SOL    HW3 4378   1.908   2.403   1.813 -2.7089 -2.5890 -1.7390
 1076SOL    MW4 4379   1.845   2.444   1.857 -0.4153 -0.3603 -0.3740
 1077SOL     OW 4380   1.818   2.725   1.743  0.2042  0.1603  0.0685
 1077SOL    HW2 4381   1.829   2.637   1.778 -1.1766 -0.6628 -1.4977
 1077SOL    HW3 4382   1.741   2.759   1.790 -2.5424 -1.4747 -3.0238
 1077SOL    MW4 4383   1.809   2.718   1.754 -0.3405 -0.1638 -0.5461
 1078SOL     OW 4384   2.043   2.860   1.850  0.1321  0.3207 -0.1418
 1078SOL    HW2 4385   2.042   2.863   1.946  0.1460  0.8476 -0.1575
 1078SOL    HW3 4386   1.968   2.805   1.827  0.0182  0.3473  0.1632
 1078SOL    MW4 4387   2.033   2.853   1.859  0.1187  0.3941 -0.1037
 1079SOL     OW 4388   1.982   3.114   1.759  0.1778  0.2864  0.0592
 1079SOL    HW2 4389   1.913   3.138   1.821 -0.4740  0.2028 -0.6382
 1079SOL    HW3 4390   2.004   3.024   1.781  1.1887  0.8089  1.3221
 1079SOL    MW4 4391   1.976   3.105   1.770  0.2253  0.3443  0.1339
 1080SOL     OW 4392   1.739   3.216   1.893  0.2425  0.5612  0.6463
 1080SOL    HW2 4393   1.730   3.198   1.987  0.5795 -1.2236  0.3558
 1080SOL    HW3 4394   1.662   3.175   1.854  0.7848  0.1383  0.0099
 1080SOL    MW4 4395   1.728   3.208   1.900  0.3585  0.2701  0.5239
 1081SOL     OW 4396   1.768   3.453   1.768  0.2716  0.2428 -0.2889
 1081SOL    HW2 4397   1.755   3.371   1.815  0.1935 -0.2931 -1.2399
 1081SOL    HW3 4398   1.696   3.510   1.798  0.9522  0.3384  1.1728
 1081SOL    MW4 4399   1.757   3.450   1.778  0.3512  0.1848 -0.2215
 1082SOL     OW 4400   1.994   3.575   1.909  0.0649 -0.5744 -0.6788
 1082SOL    HW2 4401   2.011   3.657   1.863 -0.5814  0.4434  0.8310
 1082SOL    HW3 4402   1.916   3.539   1.867  0.0837 -0.1674 -1.0641
 1082SOL    MW4 4403   1.986   3.581   1.898 -0.0179 -0.3862 -0.5305
 1083SOL     OW 4404   1.981   3.844   1.799 -0.6660  0.0991 -0.4541
 1083SOL    HW2 4405   2.060   3.891   1.826 -0.4816 -0.2157 -0.4482
 1083SOL    HW3 4406   1.979   3.853   1.704 -0.6380  0.1301 -0.4520
 1083SOL    MW4 4407   1.991   3.851   1.790 -0.6380  0.0618 -0.4531
 1084SOL     OW 4408   1.818   4.035   1.915  0.6327 -0.1767 -0.0385
 1084SOL    HW2 4409   1.828   4.099   1.844  2.1468  0.3921  0.6668
 1084SOL    HW3 4410   1.874   3.962   1.889 -0.9214 -1.1659 -0.7330
 1084SOL    MW4 4411   1.826   4.034   1.902  0.6275 -0.2313 -0.0371
 1085SOL     OW 4412   1.865   4.248   1.724  0.0726  0.3779  0.1245
 1085SOL    HW2 4413   1.792   4.296   1.763  0.6559  0.5065  1.0800
 1085SOL    HW3 4414   1.860   4.268   1.630  0.1680  2.1128  0.4746
 1085SOL    MW4 4415   1.855   4.257   1.717  0.1621  0.6232  0.2968
 1086SOL     OW 4416   2.060   4.368   1.877  0.2355 -0.3628  0.1981
 1086SOL    HW2 4417   2.145   4.336   1.847 -0.0662 -0.1628 -0.8832
 1086SOL    HW3 4418   1.996   4.312   1.832 -0.2131 -0.4332  0.9088
 1086SOL    MW4 4419   2.062   4.356   1.867  0.1364 -0.3452  0.1493
 1087SOL     OW 4420   2.458   4.625   1.736 -0.4574 -0.2060 -0.0808
 1087SOL    HW2 4421   2.521   4.683   1.778 -1.0398  0.9104 -0.7456
 1087SOL    HW3 4422   2.462   4.544   1.788  1.9702 -0.3899 -0.4981
 1087SOL    MW4 4423   2.467   4.622   1.748 -0.2139 -0.0825 -0.2236
 1088SOL     OW 4424   2.237   0.082   1.858 -0.0266  0.2160  0.4918
 1088SOL    HW2 4425   2.259   0.067   1.950 -0.7493 -1.6400  0.3740
 1088SOL    HW3 4426   2.302   0.031   1.809  0.7907  1.7514 -0.0580
 1088SOL    MW4 4427   2.249   0.074   1.864 -0.0141  0.1737  0.4035
 1089SOL     OW 4428   2.236   0.375   1.792 -0.1851 -0.0315  0.1631
 1089SOL    HW2 4429   2.229   0.284   1.818  0.9111 -0.0610  0.3858
 1089SOL    HW3 4430   2.155   0.416   1.824 -0.7686 -0.9639 -0.1254
 1089SOL    MW4 4431   2.224   0.369   1.800 -0.1175 -0.1584  0.1544
 1090SOL     OW 4432   2.452   0.493   1.908 -0.1475 -0.5290  0.0236
 1090SOL    HW2 4433   2.519   0.441   1.862 -0.9108 -2.2279  0.7713
 1090SOL    HW3 4434   2.370   0.466   1.867 -0.8013 -1.7938  2.1166
 1090SOL    MW4 4435   2.450   0.482   1.897 -0.3340 -0.9200  0.3983
 1091SOL     OW 4436   2.450   0.753   1.814  0.2909 -0.3025  0.2896
 1091SOL    HW2 4437   2.460   0.668   1.856 -1.2225 -0.2193  0.8466
 1091SOL    HW3 4438   2.425   0.732   1.724  0.6908 -0.4421  0.2077
 1091SOL    MW4 4439   2.448   0.739   1.807  0.1435 -0.3100  0.3525
 1092SOL     OW 4440   2.243   0.892   1.937 -0.3006  0.0879  0.0740
 1092SOL    HW2 4441   2.267   0.891   2.030  0.9757  0.2599 -0.2410
 1092SOL    HW3 4442   2.312   0.842   1.894 -0.1799  1.1109 -0.9432
 1092SOL    MW4 4443   2.255   0.885   1.944 -0.1163  0.2455 -0.1017
 1093SOL     OW 4444   2.252   1.122   1.793  0.0413  0.3323  0.1639
 1093SOL    HW2 4445   2.331   1.162   1.827  1.2305 -1.3721 -0.5402
 1093SOL    HW3 4446   2.242   1.041   1.843 -0.5325 -0.1036 -0.6455
 1093SOL    MW4 4447   2.261   1.116   1.804  0.1228  0.0498 -0.0358
 1094SOL     OW 4448   2.482   1.266   1.852  0.7538 -0.2290 -0.3002
 1094SOL    HW2 4449   2.488   1.273   1.947  0.5053 -0.6173 -0.2550
 1094SOL    HW3 4450   2.480   1.357   1.821  0.8469 -0.1039  0.0640
 1094SOL    MW4 4451   2.483   1.279   1.860  0.7334 -0.2637 -0.2462
 1095SOL     OW 4452   2.493   1.552   1.746  0.0887 -0.1939  0.0742
 1095SOL    HW2 4453   2.422   1.608   1.778  1.2739  2.1241 -1.2410
 1095SOL    HW3 4454   2.487   1.557   1.651  0.6751 -1.7377 -0.0563
 1095SOL    MW4 4455   2.483   1.560   1.738  0.3226 -0.0918 -0.1166
 1096SOL     OW 4456   2.268   1.682   1.866  0.5911 -0.0064 -0.4229
 1096SOL    HW2 4457   2.286   1.683   1.960  2.5304 -1.8136 -0.7142
 1096SOL    HW3 4458   2.191   1.626   1.857 -0.6308  1.5652  0.2302
 1096SOL    MW4 4459   2.260   1.675   1.877  0.6859 -0.0374 -0.3753
 1097SOL     OW 4460   2.265   1.937   1.741 -0.2220 -0.2687  0.2501
 1097SOL    HW2 4461   2.349   1.976   1.764  0.1382 -0.5117 -0.6293
 1097SOL    HW3 4462   2.270   1.847   1.774 -0.5383  0.0195  1.0996
 1097SOL    MW4 4463   2.276   1.930   1.748 -0.2162 -0.2629  0.2462
 1098SOL     OW 4464   2.488   2.037   1.862 -0.0851  0.1806  0.0470
 1098SOL    HW2 4465   2.563   1.991   1.825 -0.2487 -0.3930  0.4216
 1098SOL    HW3 4466   2.490   2.123   1.820  1.3651  0.5354  0.7992
 1098SOL    MW4 4467   2.498   2.042   1.851  0.0846  0.1519  0.1956
 1099SOL     OW 4468   2.487   2.298   1.746 -0.3080  0.1563 -0.0170
 1099SOL    HW2 4469   2.555   2.330   1.805 -0.7827 -0.4461  0.8689
 1099SOL    HW3 4470   2.406   2.335   1.781 -0.4608  0.7024 -0.9456
 1099SOL    MW4 4471   2.486   2.307   1.759 -0.3910  0.1488 -0.0226
 1100SOL     OW 4472   2.236   2.415   1.829 -0.1172 -0.0367 -0.1500
 1100SOL    HW2 4473   2.240   2.438   1.922 -0.5971  0.8232 -0.3298
 1100SOL    HW3 4474   2.259   2.496   1.784  1.3579 -0.7880 -0.7688
 1100SOL    MW4 4475   2.239   2.429   1.836  0.0141 -0.0226 -0.2553
 1101SOL     OW 4476   2.248   2.692   1.751 -0.1384  0.4109  0.0814
 1101SOL    HW2 4477   2.169   2.744   1.768 -0.9748 -0.6371 -0.4978
 1101SOL    HW3 4478   2.266   2.707   1.658  0.3432  0.6450  0.2138
 1101SOL    MW4 4479   2.240   2.701   1.741 -0.1853  0.3035  0.0224
 1102SOL     OW 4480   2.449   2.835   1.874 -0.2450  0.2918 -0.4512
 1102SOL    HW2 4481   2.424   2.922   1.843 -1.6023  0.8392  2.0591
 1102SOL    HW3 4482   2.383   2.777   1.838 -1.6778  0.8893  1.1757
 1102SOL    MW4 4483   2.437   2.839   1.865 -0.6132  0.4430  0.0947
 1103SOL     OW 4484   2.453   3.087   1.765  0.0328  0.6988 -0.0363
 1103SOL    HW2 4485   2.526   3.138   1.799 -0.0546 -0.8997  2.6729
 1103SOL    HW3 4486   2.375   3.126   1.804 -0.2318  0.0210  0.1351
 1103SOL    MW4 4487   2.452   3.099   1.775 -0.0136  0.3986  0.3437
 1104SOL     OW 4488   2.221   3.189   1.861  0.0255  0.5906 -0.3038
 1104SOL    HW2 4489   2.196   3.188   1.954 -0.5984 -0.5622 -0.4852
 1104SOL    HW3 4490   2.142   3.164   1.814  0.5556  0.4066 -1.1124
 1104SOL    MW4 4491   2.207   3.186   1.867  0.0134  0.4144 -0.4343
 1105SOL     OW 4492   2.220   3.454   1.798 -0.0867  0.4802  0.2576
 1105SOL    HW2 4493   2.232   3.367   1.836  2.4546  0.6251 -0.0734
 1105SOL    HW3 4494   2.144   3.490   1.843 -0.8264 -1.6879  0.8076
 1105SOL    MW4 4495   2.212   3.447   1.809  0.1514  0.2136  0.2866
 1106SOL     OW 4496   2.447   3.611   1.842  0.8689 -0.0830  0.1452
 1106SOL    HW2 4497   2.449   3.601   1.937  0.3683 -0.6737  0.1040
 1106SOL    HW3 4498   2.376   3.553   1.814  0.7958  0.3406 -0.5578
 1106SOL    MW4 4499   2.438   3.602   1.851  0.7932 -0.1051  0.0470
 1107SOL     OW 4500   2.424   3.884   1.747  0.3006 -0.4550  0.3721
 1107SOL    HW2 4501   2.349   3.916   1.797  0.8617  0.2198  0.8008
 1107SOL    HW3 4502   2.446   3.800   1.787 -0.0563 -0.5228  0.4242
 1107SOL    MW4 4503   2.417   3.877   1.759  0.3271 -0.3750  0.4356
 1108SOL     OW 4504   2.206   3.991   1.903 -0.0962  0.2023 -0.1177
 1108SOL    HW2 4505   2.208   3.987   1.999 -1.7139  0.5163 -0.0588
 1108SOL    HW3 4506   2.228   4.082   1.882 -0.0791  0.2165 -0.0394
 1108SOL    MW4 4507   2.209   4.002   1.913 -0.3073  0.2456 -0.0997
 1109SOL     OW 4508   2.283   4.242   1.792 -0.0358  0.2542  0.1631
 1109SOL    HW2 4509   2.361   4.295   1.808 -0.3645  0.8959 -0.3441
 1109SOL    HW3 4510   2.286   4.222   1.698 -0.0223 -0.4610  0.3083
 1109SOL    MW4 4511   2.294   4.246   1.781 -0.0772  0.2446  0.1152
 1110SOL     OW 4512   2.483   4.400   1.871 -0.0428 -0.0679 -0.2620
 1110SOL    HW2 4513   2.490   4.382   1.964 -0.9306  0.3382 -0.1135
 1110SOL    HW3 4514   2.559   4.355   1.832  0.9456  0.6976  0.7673
 1110SOL    MW4 4515   2.494   4.392   1.878 -0.0298  0.0868 -0.1067
 1111SOL     OW 4516   2.925   4.654   1.780 -0.2812  0.2073  0.1147
 1111SOL    HW2 4517   3.000   4.698   1.819  0.1599 -0.1767 -0.2947
 1111SOL    HW3 4518   2.930   4.564   1.814  0.7188 -0.4234 -1.6540
 1111SOL    MW4 4519   2.935   4.648   1.790 -0.0911  0.0739 -0.1726
 1112SOL     OW 4520   2.672   0.075   1.869  0.9012 -0.3020  0.2930
 1112SOL    HW2 4521   2.677   0.064   1.964  1.1546 -0.1650  0.2928
 1112SOL    HW3 4522   2.758   0.051   1.837  1.0825  0.4988  0.1735
 1112SOL    MW4 4523   2.684   0.070   1.878  0.9584 -0.1783  0.2773
 1113SOL     OW 4524   2.656   0.348   1.773 -0.2604 -0.1599 -0.1998
 1113SOL    HW2 4525   2.743   0.379   1.797  0.2755 -1.0488 -0.9635
 1113SOL    HW3 4526   2.655   0.256   1.801 -1.4402  0.2051  1.0439
 1113SOL    MW4 4527   2.667   0.340   1.780 -0.3452 -0.2290 -0.1365
 1114SOL     OW 4528   2.892   0.482   1.848 -0.0331  0.1192  0.1771
 1114SOL    HW2 4529   2.962   0.431   1.808  0.1927  1.7051 -1.5334
 1114SOL    HW3 4530   2.908   0.572   1.818 -1.2081  0.9714  2.0007
 1114SOL    MW4 4531   2.903   0.487   1.839 -0.1581  0.4409  0.1920
 1115SOL     OW 4532   2.911   0.750   1.743 -0.7287 -0.2460 -0.2863
 1115SOL    HW2 4533   2.988   0.783   1.790 -1.5036  0.3795  0.5469
 1115SOL    HW3 4534   2.837   0.794   1.784 -1.5929 -1.3317 -0.6599
 1115SOL    MW4 4535   2.912   0.760   1.754 -0.9451 -0.3067 -0.2257
 1116SOL     OW 4536   2.694   0.890   1.862 -0.0511  0.4166  0.0858
 1116SOL    HW2 4537   2.681   0.978   1.825 -1.1446  0.4356  0.4916
 1116SOL    HW3 4538   2.615   0.842   1.838  1.0908 -0.8567 -1.2174
 1116SOL    MW4 4539   2.682   0.896   1.854 -0.0448  0.2511 -0.0325
 1117SOL     OW 4540   2.711   1.134   1.763  0.4117 -0.2029  0.2070
 1117SOL    HW2 4541   2.635   1.189   1.781  0.0014 -0.8662  0.5511
 1117SOL    HW3 4542   2.722   1.137   1.668 -0.1295 -0.2033  0.1420
 1117SOL    MW4 4543   2.702   1.141   1.753  0.2861 -0.2904  0.2438
 1118SOL     OW 4544   2.923   1.263   1.877 -0.1938  0.3029  0.3419
 1118SOL    HW2 4545   2.923   1.357   1.857  0.7329  0.1119 -0.6596
 1118SOL    HW3 4546   2.851   1.228   1.825 -1.7630  0.7242  2.1813
 1118SOL    MW4 4547   2.914   1.271   1.867 -0.2785  0.3334  0.4524
 1119SOL     OW 4548   2.907   1.537   1.775  0.2257 -0.7439  0.3745
 1119SOL    HW2 4549   2.977   1.600   1.792 -0.5063  0.3655 -0.5435
 1119SOL    HW3 4550   2.915   1.518   1.681 -0.8737 -0.3514  0.1865
 1119SOL    MW4 4551   2.917   1.543   1.765 -0.0157 -0.5457  0.2285
 1120SOL     OW 4552   2.702   1.680   1.867  0.2461 -0.0014 -0.6656
 1120SOL    HW2 4553   2.785   1.650   1.829  0.2609  0.0949 -0.7090
 1120SOL    HW3 4554   2.636   1.623   1.828  0.4906 -1.2988  0.7526
 1120SOL    MW4 4555   2.704   1.668   1.857  0.2801 -0.1599 -0.4841
 1121SOL     OW 4556   2.717   1.929   1.729  0.0006  0.4397  0.2084
 1121SOL    HW2 4557   2.787   1.978   1.773  2.0380 -1.3969 -0.8839
 1121SOL    HW3 4558   2.720   1.842   1.768  0.6397 -0.6796 -2.2127
 1121SOL    MW4 4559   2.726   1.924   1.740  0.3536  0.0497 -0.2551
 1122SOL     OW 4560   2.881   2.095   1.870  0.2185 -0.0619 -0.4672
 1122SOL    HW2 4561   2.867   2.088   1.965  0.9401 -1.6972 -0.4721
 1122SOL    HW3 4562   2.961   2.046   1.854  1.5928  2.4872 -1.5712
 1122SOL    MW4 4563   2.889   2.087   1.881  0.4954  0.0587 -0.6136
 1123SOL     OW 4564   2.898   2.340   1.751 -0.5382 -0.0525 -0.2821
 1123SOL    HW2 4565   2.980   2.360   1.797 -1.2716  0.6869  0.7507
 1123SOL    HW3 4566   2.881   2.248   1.771  0.1797 -0.2815 -0.7256
 1123SOL    MW4 4567   2.906   2.330   1.760 -0.5400  0.0150 -0.2043
 1124SOL     OW 4568   2.688   2.462   1.884  0.0166 -0.2649 -0.1436
 1124SOL    HW2 4569   2.669   2.543   1.836 -0.0930 -0.0331  0.2951
 1124SOL    HW3 4570   2.757   2.420   1.833 -0.2662 -0.1344 -0.6405
 1124SOL    MW4 4571   2.695   2.467   1.871 -0.0350 -0.2170 -0.1513
 1125SOL     OW 4572   2.694   2.724   1.771  0.0329 -0.0688  0.3662
 1125SOL    HW2 4573   2.617   2.776   1.794 -1.5180 -2.7250  1.4043
 1125SOL    HW3 4574   2.687   2.710   1.677  0.3180  1.3498  0.1310
 1125SOL    MW4 4575   2.683   2.729   1.762 -0.1345 -0.2320  0.4722
 1126SOL     OW 4576   2.915   2.844   1.865 -0.1588  0.1795  0.1983
 1126SOL    HW2 4577   2.895   2.932   1.833 -1.0690  0.6027  1.8625
 1126SOL    HW3 4578   2.839   2.792   1.838 -0.1984  0.1808  0.3098
 1126SOL    MW4 4579   2.902   2.849   1.857 -0.2842  0.2356  0.4326
 1127SOL     OW 4580   2.867   3.109   1.753  0.1233 -0.2393  0.7322
 1127SOL    HW2 4581   2.790   3.141   1.802  0.0678 -0.9914  1.1406
 1127SOL    HW3 4582   2.941   3.143   1.802  0.0532  0.4898  0.3371
 1127SOL    MW4 4583   2.866   3.118   1.766  0.1068 -0.2422  0.7340
 1128SOL     OW 4584   2.657   3.234   1.880  0.2536 -0.2640  0.1820
 1128SOL    HW2 4585   2.674   3.327   1.866 -2.4968  0.0885 -1.1557
 1128SOL    HW3 4586   2.666   3.221   1.975 -0.3445  1.5746  0.4961
 1128SOL    MW4 4587   2.660   3.244   1.891 -0.1881  0.0253  0.0470
 1129SOL     OW 4588   2.709   3.523   1.737  0.1465  0.1959 -0.1648
 1129SOL    HW2 4589   2.784   3.551   1.789  1.3246 -0.5179 -1.4306
 1129SOL    HW3 4590   2.633   3.562   1.781  1.2098  0.5724  1.3797
 1129SOL    MW4 4591   2.709   3.532   1.750  0.4423  0.1514 -0.1279
 1130SOL     OW 4592   2.928   3.601   1.891  0.2343  0.1787 -0.0034
 1130SOL    HW2 4593   2.910   3.582   1.983  1.4407 -1.8707 -0.1565
 1130SOL    HW3 4594   3.012   3.559   1.874  0.1836  0.8160 -1.9659
 1130SOL    MW4 4595   2.937   3.593   1.901  0.3867 -0.0079 -0.2825
 1131SOL     OW 4596   2.907   3.879   1.792 -0.0898 -0.0101  0.1710
 1131SOL    HW2 4597   2.916   3.801   1.848  1.8446  0.7131  0.9386
 1131SOL    HW3 4598   2.894   3.844   1.704  0.0421 -1.2059  0.6107
 1131SOL    MW4 4599   2.907   3.864   1.788  0.1829 -0.0727  0.3303
 1132SOL     OW 4600   2.652   4.006   1.874 -0.3361 -0.1925 -1.0419
 1132SOL    HW2 4601   2.734   3.960   1.856  0.3298 -0.1521  1.6280
 1132SOL    HW3 4602   2.587   3.961   1.821  1.0377 -1.5368 -1.6382
 1132SOL    MW4 4603   2.654   3.994   1.864 -0.0672 -0.3648 -0.7683
 1133SOL     OW 4604   2.702   4.257   1.780  0.7206 -0.1863 -0.4253
 1133SOL    HW2 4605   2.686   4.173   1.822 -1.4751  0.5838  0.3546
 1133SOL    HW3 4606   2.706   4.237   1.686  2.5245 -1.4718 -0.0835
 1133SOL    MW4 4607   2.700   4.243   1.773  0.6688 -0.2542 -0.2773
 1134SOL     OW 4608   2.914   4.390   1.884 -0.3479  0.2405 -0.2305
 1134SOL    HW2 4609   2.934   4.360   1.973  0.0736  0.2977 -0.3045
 1134SOL    HW3 4610   2.836   4.340   1.859  0.8045 -1.4170 -0.6491
 1134SOL    MW4 4611   2.906   4.379   1.893 -0.1404  0.0296 -0.2955
 1135SOL     OW 4612   3.357   4.621   1.774 -0.3481 -0.1639  0.0128
 1135SOL    HW2 4613   3.363   4.532   1.809 -3.7573 -0.4479  0.0482
 1135SOL    HW3 4614   3.332   4.610   1.682 -0.9633  0.7607  0.0609
 1135SOL    MW4 4615   3.355   4.608   1.767 -0.8793 -0.0792  0.0238
 1136SOL     OW 4616   3.149   0.093   1.890 -0.2829 -0.2912  0.0922
 1136SOL    HW2 4617   3.146   0.096   1.986 -1.1721 -1.0175  0.0937
 1136SOL    HW3 4618   3.227   0.041   1.870  0.1408  0.2086  0.4087
 1136SOL    MW4 4619   3.159   0.087   1.900 -0.3440 -0.3211  0.1341
 1137SOL     OW 4620   3.117   0.354   1.765  0.4305  0.3126 -0.4140
 1137SOL    HW2 4621   3.119   0.269   1.809 -0.2904 -0.4456 -1.7990
 1137SOL    HW3 4622   3.129   0.333   1.672  0.0176  1.6985 -0.7917
 1137SOL    MW4 4623   3.119   0.340   1.759  0.2809  0.3954 -0.6466
 1138SOL     OW 4624   3.382   0.468   1.863 -0.0238 -0.4480 -0.4800
 1138SOL    HW2 4625   3.462   0.418   1.850 -0.3828 -0.7629 -1.5101
 1138SOL    HW3 4626   3.317   0.425   1.807 -0.4772  0.8189 -0.9460
 1138SOL    MW4 4627   3.384   0.456   1.854 -0.1311 -0.3224 -0.6775
 1139SOL     OW 4628   3.400   0.756   1.821  0.3260  0.3743  0.1024
 1139SOL    HW2 4629   3.318   0.796   1.851  0.0196 -0.1420 -0.0425
 1139SOL    HW3 4630   3.384   0.662   1.827  0.3522  0.2642 -1.4322
 1139SOL    MW4 4631   3.387   0.749   1.826  0.2892  0.2916 -0.1191
 1140SOL     OW 4632   3.130   0.856   1.864 -0.4627  0.1627 -0.4267
 1140SOL    HW2 4633   3.141   0.868   1.958  1.3487 -0.3558 -0.5532
 1140SOL    HW3 4634   3.114   0.944   1.830 -0.4458  0.4424  0.2811
 1140SOL    MW4 4635   3.130   0.869   1.872 -0.2210  0.1312 -0.3501
 1141SOL     OW 4636   3.141   1.115   1.770 -0.2805  0.4077 -0.1285
 1141SOL    HW2 4637   3.212   1.177   1.784  0.2662  0.1494 -1.6940
 1141SOL    HW3 4638   3.065   1.157   1.811  0.7204  0.7425  1.4462
 1141SOL    MW4 4639   3.140   1.129   1.778 -0.0763  0.4176 -0.1274
 1142SOL     OW 4640   3.338   1.293   1.834  0.9923  0.5318  0.1278
 1142SOL    HW2 4641   3.346   1.308   1.928 -0.6474  0.8912  0.2279
 1142SOL    HW3 4642   3.334   1.381   1.796  1.4305  0.3873 -0.2530
 1142SOL    MW4 4643   3.339   1.306   1.841  0.8337  0.5602  0.0908
 1143SOL     OW 4644   3.348   1.556   1.756 -0.2174  0.3427  0.2967
 1143SOL    HW2 4645   3.433   1.585   1.790 -0.0141  0.5462 -0.3715
 1143SOL    HW3 4646   3.285   1.614   1.798  0.3363  3.0553 -2.3795
 1143SOL    MW4 4647   3.351   1.568   1.766 -0.1175  0.7274 -0.1446
 1144SOL     OW 4648   3.114   1.695   1.852 -0.3815 -0.3546 -0.0228
 1144SOL    HW2 4649   3.116   1.706   1.947 -1.9879 -0.1841 -0.0022
 1144SOL    HW3 4650   3.105   1.784   1.817 -0.6545 -0.4926 -0.3060
 1144SOL    MW4 4651   3.113   1.708   1.860 -0.6294 -0.3504 -0.0575
 1145SOL     OW 4652   3.101   1.963   1.771  0.0954 -0.4335 -0.4391
 1145SOL    HW2 4653   3.177   2.009   1.807 -0.0927 -0.5665  0.1400
 1145SOL    HW3 4654   3.119   1.956   1.677 -0.5512  2.1341 -0.8022
 1145SOL    MW4 4655   3.114   1.968   1.763 -0.0150 -0.1123 -0.4106
 1146SOL     OW 4656   3.329   2.055   1.898  0.1414 -0.4516 -0.4413
 1146SOL    HW2 4657   3.410   2.018   1.862  0.8873 -0.4884  1.2199
 1146SOL    HW3 4658   3.334   2.148   1.878  1.6715 -0.0710  1.5520
 1146SOL    MW4 4659   3.340   2.063   1.891  0.4416 -0.4065  0.0409
 1147SOL     OW 4660   3.351   2.305   1.795  0.2698  0.1995 -0.2651
 1147SOL    HW2 4661   3.272   2.342   1.832  0.5691  1.1576 -0.5761
 1147SOL    HW3 4662   3.346   2.326   1.701  0.4479 -0.5310 -0.4458
 1147SOL    MW4 4663   3.340   2.312   1.787  0.3331  0.2294 -0.3299
 1148SOL     OW 4664   3.119   2.429   1.882  0.0549  0.1783  0.3975
 1148SOL    HW2 4665   3.112   2.427   1.977  1.7803  0.7739  0.5348
 1148SOL    HW3 4666   3.124   2.521   1.859  1.8685 -0.0334 -0.1050
 1148SOL    MW4 4667   3.118   2.441   1.892  0.5217  0.2289  0.3493
 1149SOL     OW 4668   3.116   2.689   1.762  0.8129 -0.2976 -0.2231
 1149SOL    HW2 4669   3.044   2.748   1.783  1.0760 -0.1254  0.2091
 1149SOL    HW3 4670   3.116   2.683   1.667  1.0254  0.6993 -0.2874
 1149SOL    MW4 4671   3.106   2.696   1.753  0.8755 -0.1433 -0.1745
 1150SOL     OW 4672   3.369   2.800   1.873 -0.0657 -0.7847  0.6510
 1150SOL    HW2 4673   3.350   2.789   1.967 -1.9734  0.4529  0.4275
 1150SOL    HW3 4674   3.296   2.757   1.829  1.1944 -1.9907 -0.3060
 1150SOL    MW4 4675   3.357   2.793   1.880 -0.1512 -0.7803  0.4953
 1151SOL     OW 4676   3.361   3.048   1.733  0.1818 -0.1526  0.0563
 1151SOL    HW2 4677   3.419   3.112   1.773 -0.8324  0.3336  0.7916
 1151SOL    HW3 4678   3.366   2.971   1.790  1.1624 -0.6200 -0.6540
 1151SOL    MW4 4679   3.369   3.046   1.746  0.1776 -0.1500  0.0596
 1152SOL     OW 4680   3.107   3.191   1.854 -0.2166 -0.2105  0.0829
 1152SOL    HW2 4681   3.173   3.135   1.813  0.4879  0.9175 -0.3576
 1152SOL    HW3 4682   3.130   3.192   1.947  0.9475  0.8994 -0.2024
 1152SOL    MW4 4683   3.119   3.183   1.861  0.0298  0.0846 -0.0128
 1153SOL     OW 4684   3.137   3.457   1.785  0.3383  0.2596 -0.5148
 1153SOL    HW2 4685   3.128   3.367   1.816  1.0363  0.6557  0.8737
 1153SOL    HW3 4686   3.226   3.482   1.808  0.0576  1.4060 -0.6141
 1153SOL    MW4 4687   3.147   3.449   1.792  0.3932  0.4632 -0.3446
 1154SOL     OW 4688   3.380   3.586   1.882 -0.0567 -0.2004 -0.5462
 1154SOL    HW2 4689   3.457   3.546   1.842  0.3730 -0.3068  0.3838
 1154SOL    HW3 4690   3.382   3.677   1.852  1.9422  0.5252  1.5896
 1154SOL    MW4 4691   3.391   3.593   1.873  0.2637 -0.1187 -0.1417
 1155SOL     OW 4692   3.353   3.855   1.792  0.2404  0.5548  0.1231
 1155SOL    HW2 4693   3.286   3.909   1.833  0.4004  0.1569  0.9222
 1155SOL    HW3 4694   3.434   3.905   1.803 -0.0090  1.2978 -1.3441
 1155SOL    MW4 4695   3.355   3.869   1.799  0.2289  0.6003  0.0349
 1156SOL     OW 4696   3.151   3.984   1.908 -0.2492  0.4204 -0.7762
 1156SOL    HW2 4697   3.141   3.982   2.003  1.0262  0.0878 -0.6399
 1156SOL    HW3 4698   3.068   3.950   1.875 -0.7399  0.6344  0.2105
 1156SOL    MW4 4699   3.139   3.979   1.916 -0.1459  0.4051 -0.6281
 1157SOL     OW 4700   3.133   4.225   1.782  0.3563 -0.3438 -0.0086
 1157SOL    HW2 4701   3.141   4.146   1.836 -0.2214 -0.0028  0.5852
 1157SOL    HW3 4702   3.049   4.264   1.808  0.5212  0.3364 -0.4726
 1157SOL    MW4 4703   3.123   4.219   1.792  0.3018 -0.2093  0.0085
 1158SOL     OW 4704   3.349   4.357   1.875  0.5168  0.0859  0.4117
 1158SOL    HW2 4705   3.423   4.314   1.831  0.3483  0.2337 -0.0219
 1158SOL    HW3 4706   3.273   4.305   1.850  0.4119  0.2079  0.4774
 1158SOL    MW4 4707   3.349   4.344   1.866  0.4807  0.1211  0.3632
 1159SOL     OW 4708   3.856   4.620   1.747 -0.2760  0.4756 -0.3536
 1159SOL    HW2 4709   3.875   4.540   1.797  2.5199  1.1990 -0.2026
 1159SOL    HW3 4710   3.774   4.652   1.785 -0.5403 -1.4006  0.7293
 1159SOL    MW4 4711   3.848   4.614   1.759  0.0584  0.3233 -0.1909
 1160SOL     OW 4712   3.611   0.043   1.849  0.4442  0.0251 -0.0594
 1160SOL    HW2 4713   3.610   0.036   1.944 -0.7320  0.9881  0.0170
 1160SOL    HW3 4714   3.520   0.029   1.823  0.2771  2.2349 -0.8164
 1160SOL    MW4 4715   3.599   0.040   1.858  0.2668  0.4438 -0.1491
 1161SOL     OW 4716   3.605   0.309   1.773  0.4330  0.4103 -0.4168
 1161SOL    HW2 4717   3.617   0.223   1.813  2.2056  0.5276 -0.6396
 1161SOL    HW3 4718   3.615   0.294   1.679 -0.7217  0.6257 -0.5777
 1161SOL    MW4 4719   3.608   0.296   1.766  0.5145  0.4543 -0.4674
 1162SOL     OW 4720   3.794   0.479   1.931 -0.0875  0.2625  0.2754
 1162SOL    HW2 4721   3.793   0.567   1.893  1.9447  0.4197  0.5029
 1162SOL    HW3 4722   3.731   0.430   1.880  0.0792  1.3853 -1.0351
 1162SOL    MW4 4723   3.786   0.484   1.919  0.2027  0.4314  0.1326
 1163SOL     OW 4724   3.813   0.698   1.759 -0.1231 -0.2016  0.0712
 1163SOL    HW2 4725   3.737   0.751   1.783 -0.1587 -0.3872  0.3645
 1163SOL    HW3 4726   3.803   0.683   1.665 -0.1811  0.2020  0.0099
 1163SOL    MW4 4727   3.802   0.703   1.750 -0.1354 -0.1729  0.1019
 1164SOL     OW 4728   3.632   0.876   1.873  0.0859  0.3001  0.0351
 1164SOL    HW2 4729   3.622   0.961   1.831 -0.6856 -0.0991 -0.5921
 1164SOL    HW3 4730   3.548   0.832   1.859  0.3377 -0.4019  0.7139
 1164SOL    MW4 4731   3.620   0.881   1.866  0.0172  0.1549  0.0420
 1165SOL     OW 4732   3.571   1.157   1.789  0.2290  0.1145  0.0255
 1165SOL    HW2 4733   3.491   1.203   1.814  0.4270  0.6406 -0.3063
 1165SOL    HW3 4734   3.573   1.161   1.693  0.2179 -0.6405 -0.0146
 1165SOL    MW4 4735   3.561   1.163   1.780  0.2537  0.0844 -0.0235
 1166SOL     OW 4736   3.795   1.296   1.903 -0.0711 -0.3591  0.0114
 1166SOL    HW2 4737   3.785   1.282   1.997 -1.5223 -0.8283 -0.1905
 1166SOL    HW3 4738   3.725   1.243   1.864  1.3750 -1.2588 -1.4019
 1166SOL    MW4 4739   3.784   1.287   1.910 -0.0715 -0.5397 -0.2017
 1167SOL     OW 4740   3.810   1.519   1.761 -0.2190 -0.0766  0.2132
 1167SOL    HW2 4741   3.873   1.573   1.809 -1.4269  1.0905  0.4939
 1167SOL    HW3 4742   3.803   1.439   1.814  0.0806  0.3025  0.8353
 1167SOL    MW4 4743   3.817   1.515   1.774 -0.3393  0.1274  0.3321
 1168SOL     OW 4744   3.609   1.665   1.872  0.6672 -0.0899  0.0867
 1168SOL    HW2 4745   3.596   1.751   1.833 -0.0279 -0.5182 -0.6528
 1168SOL    HW3 4746   3.687   1.630   1.829  0.2082 -0.3428 -0.5611
 1168SOL    MW4 4747   3.617   1.672   1.861  0.5150 -0.1798 -0.0964
 1169SOL     OW 4748   3.565   1.934   1.771 -0.0673 -0.0582  0.1867
 1169SOL    HW2 4749   3.650   1.973   1.793  0.0554 -0.0246 -0.3331
 1169SOL    HW3 4750   3.559   1.942   1.675 -1.6196  1.9024  0.4131
 1169SOL    MW4 4751   3.575   1.940   1.761 -0.2561  0.2049  0.1478
 1170SOL     OW 4752   3.800   2.060   1.859 -0.0841 -0.4286 -0.2088
 1170SOL    HW2 4753   3.887   2.022   1.849 -0.5435 -1.3689 -0.6442
 1170SOL    HW3 4754   3.809   2.150   1.825  0.7715 -0.4342 -0.0091
 1170SOL    MW4 4755   3.813   2.067   1.853 -0.0319 -0.5531 -0.2398
 1171SOL     OW 4756   3.825   2.330   1.777  0.3418 -0.1368  0.1777
 1171SOL    HW2 4757   3.896   2.382   1.815 -0.2039  0.8187 -0.1071
 1171SOL    HW3 4758   3.746   2.362   1.819 -0.1150 -0.0106 -0.7752
 1171SOL    MW4 4759   3.824   2.341   1.788  0.2096  0.0060  0.0144
 1172SOL     OW 4760   3.580   2.443   1.876  0.6958  0.4603  0.0661
 1172SOL    HW2 4761   3.590   2.513   1.811 -0.3495  0.6677  0.1253
 1172SOL    HW3 4762   3.491   2.409   1.862  0.1137  1.1220  1.9975
 1172SOL    MW4 4763   3.569   2.448   1.865  0.4809  0.5751  0.3287
 1173SOL     OW 4764   3.588   2.682   1.733  0.4559  0.2107 -0.3708
 1173SOL    HW2 4765   3.665   2.719   1.777 -0.1808  0.9679  0.1262
 1173SOL    HW3 4766   3.514   2.720   1.780 -0.2221 -0.1682 -1.1357
 1173SOL    MW4 4767   3.589   2.692   1.745  0.2823  0.2606 -0.4063
 1174SOL     OW 4768   3.806   2.830   1.847 -0.0261 -0.0928 -0.5417
 1174SOL    HW2 4769   3.796   2.825   1.942 -1.3862 -0.6816 -0.7008
 1174SOL    HW3 4770   3.800   2.923   1.827 -0.2771 -0.0171 -0.1082
 1174SOL    MW4 4771   3.804   2.841   1.856 -0.2384 -0.1605 -0.5054
 1175SOL     OW 4772   3.796   3.108   1.768  0.2073  0.3864  0.2209
 1175SOL    HW2 4773   3.708   3.145   1.780  0.3420  0.2905  1.6105
 1175SOL    HW3 4774   3.804   3.095   1.674 -0.9150  1.2757 -0.0070
 1175SOL    MW4 4775   3.785   3.111   1.757  0.0772  0.4911  0.3741
 1176SOL     OW 4776   3.541   3.217   1.831 -0.1488  0.2747  0.2702
 1176SOL    HW2 4777   3.532   3.222   1.926  0.2135  0.2481  0.3092
 1176SOL    HW3 4778   3.538   3.308   1.801 -1.8568  0.1894  0.1454
 1176SOL    MW4 4779   3.540   3.229   1.839 -0.3262  0.2599  0.2588
 1177SOL     OW 4780   3.585   3.471   1.740 -0.3402 -0.3101 -0.1654
 1177SOL    HW2 4781   3.667   3.517   1.760 -0.0256 -1.4209  1.2032
 1177SOL    HW3 4782   3.581   3.470   1.644  1.3752 -0.4483 -0.2598
 1177SOL    MW4 4783   3.595   3.477   1.730 -0.0725 -0.4747  0.0029
 1178SOL     OW 4784   3.782   3.635   1.805  0.4291 -0.2090  0.3071
 1178SOL    HW2 4785   3.869   3.597   1.820  0.1301 -1.0747 -0.1768
 1178SOL    HW3 4786   3.801   3.727   1.785  1.2020 -0.2661  0.7454
 1178SOL    MW4 4787   3.796   3.642   1.804  0.4916 -0.3309  0.3010
 1179SOL     OW 4788   3.790   3.899   1.727  0.4540 -0.0829 -0.1096
 1179SOL    HW2 4789   3.871   3.936   1.764  1.2736 -0.2894 -1.6677
 1179SOL    HW3 4790   3.808   3.891   1.634 -1.4836  0.1248 -0.5183
 1179SOL    MW4 4791   3.803   3.903   1.720  0.3064 -0.0827 -0.3691
 1180SOL     OW 4792   3.581   3.995   1.890  0.3814 -0.1593 -0.0582
 1180SOL    HW2 4793   3.581   3.994   1.986  1.3180 -0.8555 -0.0536
 1180SOL    HW3 4794   3.668   3.964   1.866  0.2198  0.1924 -1.1402
 1180SOL    MW4 4795   3.592   3.991   1.900  0.4838 -0.2048 -0.2003
 1181SOL     OW 4796   3.590   4.245   1.766 -0.4777  0.3635 -0.4473
 1181SOL    HW2 4797   3.657   4.299   1.807 -0.4991  1.0173 -1.2660
 1181SOL    HW3 4798   3.594   4.162   1.814  0.2073  0.7535  0.1829
 1181SOL    MW4 4799   3.600   4.241   1.778 -0.3903  0.5012 -0.4722
 1182SOL     OW 4800   3.826   4.370   1.868 -0.6059  0.1292  0.3033
 1182SOL    HW2 4801   3.825   4.358   1.963 -0.1632 -0.5709  0.2210
 1182SOL    HW3 4802   3.897   4.313   1.837  0.3599  1.6283 -0.2796
 1182SOL    MW4 4803   3.835   4.361   1.877 -0.4201  0.2346  0.2154
 1183SOL     OW 4804   4.256   4.632   1.792  0.1270 -0.3379 -0.3405
 1183SOL    HW2 4805   4.195   4.704   1.803 -0.0740 -0.6010  0.2907
 1183SOL    HW3 4806   4.342   4.671   1.804  0.1578  0.2618 -2.3725
 1183SOL    MW4 4807   4.259   4.646   1.795  0.1044 -0.2928 -0.5252
 1184SOL     OW 4808   4.026   0.137   1.870  0.2378  0.2283  0.1096
 1184SOL    HW2 4809   4.020   0.128   1.965 -1.1238  1.8582  0.1986
 1184SOL    HW3 4810   3.957   0.081   1.836  0.0487  0.4576  0.1190
 1184SOL    MW4 4811   4.016   0.129   1.878  0.0334  0.4736  0.1225
 1185SOL     OW 4812   3.971   0.377   1.763 -0.0245 -0.4239 -0.5406
 1185SOL    HW2 4813   3.980   0.287   1.796  0.0401 -0.2434 -0.0627
 1185SOL    HW3 4814   3.902   0.415   1.817 -1.0566 -0.6289 -1.6958
 1185SOL    MW4 4815   3.963   0.370   1.774 -0.1521 -0.4271 -0.6301
 1186SOL     OW 4816   4.218   0.468   1.848 -0.2294  0.5302 -0.0385
 1186SOL    HW2 4817   4.217   0.469   1.944 -0.0220 -0.1639 -0.0219
 1186SOL    HW3 4818   4.136   0.426   1.824 -0.2384  0.6170 -0.1594
 1186SOL    MW4 4819   4.207   0.462   1.857 -0.2036  0.4501 -0.0522
 1187SOL     OW 4820   4.243   0.734   1.793  0.2996 -0.1281 -0.0243
 1187SOL    HW2 4821   4.246   0.641   1.817  0.0753 -0.1545 -0.0977
 1187SOL    HW3 4822   4.250   0.734   1.697  1.4126 -0.0117  0.0510
 1187SOL    MW4 4823   4.244   0.722   1.783  0.4168 -0.1162 -0.0241
 1188SOL     OW 4824   4.020   0.885   1.839 -0.3512  0.1411  0.5346
 1188SOL    HW2 4825   4.096   0.829   1.826 -0.2073  0.2076  1.0924
 1188SOL    HW3 4826   3.945   0.827   1.829 -0.2328  0.1108 -0.2012
 1188SOL    MW4 4827   4.020   0.870   1.836 -0.3166  0.1458  0.5112
 1189SOL     OW 4828   4.046   1.147   1.801 -0.6926 -0.1502 -0.1922
 1189SOL    HW2 4829   4.044   1.060   1.841  0.7690  0.7108  1.8064
 1189SOL    HW3 4830   3.969   1.192   1.836 -0.1898  0.1252  0.5682
 1189SOL    MW4 4831   4.035   1.142   1.811 -0.4334 -0.0004  0.1718
 1190SOL     OW 4832   4.264   1.305   1.876  0.0513  0.4630  0.7425
 1190SOL    HW2 4833   4.251   1.304   1.971 -0.3019 -1.4668  0.6921
 1190SOL    HW3 4834   4.189   1.256   1.842  1.3654 -0.7678 -0.3792
 1190SOL    MW4 4835   4.252   1.298   1.884  0.1774  0.0459  0.5878
 1191SOL     OW 4836   4.237   1.549   1.787  0.9431 -0.3015  0.2732
 1191SOL    HW2 4837   4.258   1.458   1.810 -0.7474 -1.0991 -1.1781
 1191SOL    HW3 4838   4.233   1.548   1.691  0.1086  1.1343  0.2867
 1191SOL    MW4 4839   4.239   1.537   1.777  0.6104 -0.2172  0.0836
 1192SOL     OW 4840   4.013   1.654   1.903  0.0011  0.1704 -0.1976
 1192SOL    HW2 4841   4.024   1.653   1.998  0.7054  1.1807 -0.2696
 1192SOL    HW3 4842   4.101   1.639   1.868  0.0685  1.7207 -0.7071
 1192SOL    MW4 4843   4.026   1.652   1.911  0.1030  0.5082 -0.2742
 1193SOL     OW 4844   4.043   1.944   1.819 -0.1489  0.7718 -0.1321
 1193SOL    HW2 4845   4.041   1.851   1.840  0.4965  1.1607  1.7482
 1193SOL    HW3 4846   4.040   1.947   1.723 -0.2928 -1.1703 -0.2091
 1193SOL    MW4 4847   4.042   1.932   1.809 -0.0834  0.5667  0.1057
 1194SOL     OW 4848   4.269   2.063   1.910  0.1769 -0.1752 -0.1640
 1194SOL    HW2 4849   4.274   2.056   2.006  0.2110  1.0959 -0.0659
 1194SOL    HW3 4850   4.192   2.011   1.887 -0.3778  0.2676  0.6483
 1194SOL    MW4 4851   4.259   2.055   1.920  0.1087  0.0508 -0.0440
 1195SOL     OW 4852   4.212   2.301   1.791 -0.3783  0.2186  0.1063
 1195SOL    HW2 4853   4.221   2.219   1.840 -1.3074 -0.0671 -0.1919
 1195SOL    HW3 4854   4.280   2.358   1.828  0.9077 -0.9904 -0.3390
 1195SOL    MW4 4855   4.222   2.298   1.802 -0.3319  0.0215  0.0082
 1196SOL     OW 4856   4.031   2.495   1.880  0.0739  0.0744 -0.1151
 1196SOL    HW2 4857   4.034   2.490   1.975  0.9583 -0.3493 -0.1640
 1196SOL    HW3 4858   4.093   2.429   1.850  1.1775  1.4755 -0.9698
 1196SOL    MW4 4859   4.039   2.486   1.889  0.3366  0.2036 -0.2342
 1197SOL     OW 4860   4.050   2.742   1.741 -0.4228 -0.3221 -0.0706
 1197SOL    HW2 4861   4.059   2.654   1.779 -0.4393  0.5485  2.0396
 1197SOL    HW3 4862   3.972   2.778   1.783  0.7945  1.4736  0.7260
 1197SOL    MW4 4863   4.041   2.735   1.752 -0.2642  0.0296  0.3129
 1198SOL     OW 4864   4.270   2.879   1.869  0.8923  0.5676 -0.1246
 1198SOL    HW2 4865   4.247   2.859   1.960  1.3707 -1.1281 -0.3563
 1198SOL    HW3 4866   4.193   2.853   1.819  0.0677  2.8219 -0.1032
 1198SOL    MW4 4867   4.257   2.873   1.874  0.8469  0.6411 -0.1523
 1199SOL     OW 4868   4.258   3.152   1.772 -0.2122 -0.0819  0.0907
 1199SOL    HW2 4869   4.176   3.179   1.813 -1.0858 -0.1688 -1.5907
 1199SOL    HW3 4870   4.268   3.060   1.797 -1.5254 -0.5728 -1.1436
 1199SOL    MW4 4871   4.249   3.144   1.781 -0.5002 -0.1583 -0.2941
 1200SOL     OW 4872   4.011   3.256   1.854  0.6359 -0.7869  0.0968
 1200SOL    HW2 4873   4.004   3.260   1.950  0.5995 -0.2609  0.0775
 1200SOL    HW3 4874   3.935   3.204   1.827  0.8104 -1.1868  0.3725
 1200SOL    MW4 4875   4.000   3.250   1.863  0.6537 -0.7701  0.1305
 1201SOL     OW 4876   4.046   3.524   1.808 -0.8425  0.1301  0.1730
 1201SOL    HW2 4877   4.132   3.555   1.839 -0.4370 -0.1789 -0.6285
 1201SOL    HW3 4878   4.050   3.429   1.817 -0.1187 -0.1183 -2.2633
 1201SOL    MW4 4879   4.058   3.516   1.813 -0.6938  0.0565 -0.2543
 1202SOL     OW 4880   4.292   3.622   1.883 -0.0696  0.1554  0.2214
 1202SOL    HW2 4881   4.275   3.707   1.844 -1.8234  0.4530  1.5552
 1202SOL    HW3 4882   4.357   3.581   1.826 -1.3276  1.2240 -2.0360
 1202SOL    MW4 4883   4.298   3.628   1.870 -0.4673  0.3357  0.0993
 1203SOL     OW 4884   4.255   3.864   1.744 -0.4048 -0.3104 -0.5431
 1203SOL    HW2 4885   4.323   3.920   1.783  0.6351 -3.1318  1.9401
 1203SOL    HW3 4886   4.273   3.867   1.650 -0.5674  3.6596 -0.5243
 1203SOL    MW4 4887   4.267   3.872   1.736 -0.2894 -0.1590 -0.2129
 1204SOL     OW 4888   4.034   3.998   1.848  0.8019 -0.3938 -0.5310
 1204SOL    HW2 4889   4.110   3.952   1.815  1.1704  1.2121 -1.9968
 1204SOL    HW3 4890   4.048   4.003   1.943  2.7870  0.3342 -0.8371
 1204SOL    MW4 4891   4.046   3.993   1.856  1.1120 -0.0856 -0.7648
 1205SOL     OW 4892   4.048   4.252   1.769  0.1141 -0.1741 -0.6443
 1205SOL    HW2 4893   4.124   4.297   1.806  0.8996 -0.8121 -1.4625
 1205SOL    HW3 4894   4.058   4.161   1.798 -0.1542 -0.3271 -1.0322
 1205SOL    MW4 4895   4.059   4.246   1.778  0.1822 -0.2789 -0.8036
 1206SOL     OW 4896   4.264   4.378   1.875  0.0345 -0.4859 -0.1751
 1206SOL    HW2 4897   4.280   4.390   1.969 -2.4761  1.1960  0.0790
 1206SOL    HW3 4898   4.256   4.466   1.840  0.6356 -1.1093 -1.9402
 1206SOL    MW4 4899   4.265   4.391   1.883 -0.2179 -0.3462 -0.3746
 1207SOL     OW 4900   0.220   4.664   2.253  0.0350  0.6719  0.3007
 1207SOL    HW2 4901   0.224   4.669   2.348 -0.1325  0.6533  0.3077
 1207SOL    HW3 4902   0.295   4.716   2.224  1.2356 -0.9325  0.4790
 1207SOL    MW4 4903   0.231   4.672   2.262  0.1713  0.4578  0.3250
 1208SOL     OW 4904   4.465   0.106   2.175 -0.0096 -0.0389  0.1968
 1208SOL    HW2 4905   4.542   0.066   2.215  0.9789  1.5069 -0.0904
 1208SOL    HW3 4906   4.473   0.086   2.082 -0.1662 -0.2067  0.2187
 1208SOL    MW4 4907   4.476   0.098   2.168  0.1002  0.1429  0.1616
 1209SOL     OW 4908   0.019   0.366   2.240 -0.0605 -0.6716 -0.3406
 1209SOL    HW2 4909   0.105   0.405   2.224  0.1873 -1.1213 -0.1262
 1209SOL    HW3 4910   0.028   0.275   2.211 -0.6413 -0.5653 -0.8605
 1209SOL    MW4 4911   0.032   0.359   2.234 -0.1044 -0.7169 -0.3810
 1210SOL     OW 4912   0.241   0.496   2.175  0.2194 -0.4930  0.2934
 1210SOL    HW2 4913   0.326   0.468   2.207 -0.0824 -2.1105 -0.2938
 1210SOL    HW3 4914   0.249   0.497   2.080  0.1533  1.2239  0.2873
 1210SOL    MW4 4915   0.253   0.493   2.167  0.1709 -0.4798  0.2153
 1211SOL     OW 4916   0.175   0.754   2.250 -0.2634  0.4254  0.0196
 1211SOL    HW2 4917   0.159   0.755   2.344  0.4733  0.2748  0.1466
 1211SOL    HW3 4918   0.188   0.662   2.228  0.4984  0.5489 -0.0676
 1211SOL    MW4 4919   0.175   0.742   2.260 -0.0657  0.4219  0.0250
 1212SOL     OW 4920   4.438   0.884   2.172 -0.2731 -0.5281 -0.2222
 1212SOL    HW2 4921   4.521   0.843   2.198  0.5222  1.3925  0.3556
 1212SOL    HW3 4922   4.451   0.909   2.081  0.4877  1.4308  0.3975
 1212SOL    MW4 4923   4.451   0.882   2.164 -0.0672 -0.0162 -0.0644
 1213SOL     OW 4924   4.445   1.167   2.286  0.0653 -0.0650 -0.0164
 1213SOL    HW2 4925   4.467   1.148   2.377  0.8704  0.1289 -0.1733
 1213SOL    HW3 4926   4.426   1.081   2.247 -0.4979 -0.1270  0.3859
 1213SOL    MW4 4927   4.445   1.153   2.293  0.0973 -0.0474  0.0162
 1214SOL     OW 4928   0.211   1.260   2.176  0.4634  0.1175  0.1611
 1214SOL    HW2 4929   0.122   1.266   2.211  0.8566  2.5866  0.7931
 1214SOL    HW3 4930   0.201   1.276   2.082  0.2178  0.0240  0.1700
 1214SOL    MW4 4931   0.198   1.263   2.168  0.4829  0.4309  0.2458
 1215SOL     OW 4932   0.212   1.524   2.285 -0.3478 -0.1914  0.3350
 1215SOL    HW2 4933   0.230   1.526   2.379 -1.6701  1.4310  0.5747
 1215SOL    HW3 4934   0.225   1.433   2.261  1.7585 -0.2972  1.7361
 1215SOL    MW4 4935   0.216   1.512   2.295 -0.2444  0.0087  0.5517
 1216SOL     OW 4936   0.000   1.642   2.169  0.1294 -0.2423 -0.4814
 1216SOL    HW2 4937   0.006   1.729   2.208 -1.6513 -0.7363  0.9372
 1216SOL    HW3 4938   0.079   1.597   2.200  0.0002  0.1910  0.5080
 1216SOL    MW4 4939   0.011   1.648   2.178 -0.1226 -0.2503 -0.1636
 1217SOL     OW 4940   4.483   1.892   2.290  0.1440 -0.6879  0.3287
 1217SOL    HW2 4941   4.394   1.922   2.272  0.1854 -1.9092 -1.9846
 1217SOL    HW3 4942   4.539   1.961   2.254  0.1771 -0.0218  1.5987
 1217SOL    MW4 4943   4.479   1.905   2.283  0.1535 -0.7612  0.1910
 1218SOL     OW 4944   0.156   2.091   2.200 -0.2556  0.1938 -0.3967
 1218SOL    HW2 4945   0.224   2.038   2.241  0.7401  1.1469 -0.7850
 1218SOL    HW3 4946   0.164   2.072   2.106 -0.6844  0.1167 -0.4173
 1218SOL    MW4 4947   0.166   2.082   2.193 -0.1808  0.3097 -0.4506
 1219SOL     OW 4948   0.222   2.326   2.285  0.2165 -0.1214  0.1494
 1219SOL    HW2 4949   0.218   2.335   2.381  0.6152 -2.1295  0.3811
 1219SOL    HW3 4950   0.181   2.241   2.268  0.3602  0.1199 -1.4531
 1219SOL    MW4 4951   0.216   2.316   2.296  0.2880 -0.3545 -0.0315
 1220SOL     OW 4952   4.490   2.399   2.147 -0.0338  0.1762  0.5873
 1220SOL    HW2 4953   4.467   2.487   2.178  1.4371  1.1518 -0.9560
 1220SOL    HW3 4954   4.562   2.372   2.204  0.3058  0.4676  0.2941
 1220SOL    MW4 4955   4.496   2.407   2.159  0.2046  0.3431  0.3450
 1221SOL     OW 4956   4.438   2.664   2.225 -0.3995 -0.4159 -0.1655
 1221SOL    HW2 4957   4.437   2.686   2.318  2.0635 -2.3777  0.3766
 1221SOL    HW3 4958   4.504   2.721   2.187 -0.8717 -0.1407 -0.5798
 1221SOL    MW4 4959   4.447   2.675   2.233 -0.1369 -0.6382 -0.1488
 1222SOL     OW 4960   0.170   2.817   2.162 -0.5114  0.1937 -0.4267
 1222SOL    HW2 4961   0.249   2.769   2.186 -0.5235  0.0914 -0.5905
 1222SOL    HW3 4962   0.183   2.839   2.070 -0.5758  0.3686 -0.3932
 1222SOL    MW4 4963   0.182   2.814   2.153 -0.5215  0.2034 -0.4439
 1223SOL     OW 4964   0.164   3.077   2.238  0.2737  0.1385 -0.2503
 1223SOL    HW2 4965   0.171   2.982   2.225 -0.1928  0.0076  0.4672
 1223SOL    HW3 4966   0.200   3.092   2.325  0.0350  0.5881 -0.2308
 1223SOL    MW4 4967   0.170   3.066   2.247  0.1806  0.1805 -0.1533
 1224SOL     OW 4968   4.437   3.238   2.169 -0.2654  0.3441  0.0324
 1224SOL    HW2 4969   4.511   3.192   2.208 -0.3451  0.1967  0.0127
 1224SOL    HW3 4970   4.446   3.329   2.198 -0.2456  0.2641  0.2748
 1224SOL    MW4 4971   4.448   3.244   2.178 -0.2737  0.3140  0.0620
 1225SOL     OW 4972   4.480   3.507   2.273  0.1459  0.4506 -0.5044
 1225SOL    HW2 4973   4.486   3.508   2.369  1.8544  0.8254 -0.5913
 1225SOL    HW3 4974   4.391   3.535   2.254  0.1279  1.4557  0.9623
 1225SOL    MW4 4975   4.469   3.511   2.283  0.3691  0.6325 -0.3226
 1226SOL     OW 4976   0.218   3.593   2.116  0.0613  0.0712 -0.6135
 1226SOL    HW2 4977   0.285   3.552   2.170 -1.0674 -0.6463  0.2576
 1226SOL    HW3 4978   0.135   3.560   2.151 -0.6600 -2.0357 -4.0529
 1226SOL    MW4 4979   0.215   3.583   2.128 -0.1828 -0.3016 -0.9525
 1227SOL     OW 4980   0.208   3.841   2.246  0.2573 -0.1822 -0.2327
 1227SOL    HW2 4981   0.135   3.890   2.209  0.2720  0.5207  0.6631
 1227SOL    HW3 4982   0.216   3.764   2.189 -0.8892 -0.0443 -0.5990
 1227SOL    MW4 4983   0.200   3.837   2.234  0.1080 -0.0710 -0.1631
 1228SOL     OW 4984   4.470   3.998   2.166 -0.3245  0.3837  0.0122
 1228SOL    HW2 4985   4.459   4.085   2.205  1.9273  1.8782 -2.4792
 1228SOL    HW3 4986   4.454   4.012   2.073 -0.3227 -1.9676 -0.3605
 1228SOL    MW4 4987   4.466   4.011   2.159 -0.0272  0.2713 -0.3660
 1229SOL     OW 4988   4.462   4.268   2.244  0.1869  0.1445 -0.1340
 1229SOL    HW2 4989   4.461   4.279   2.339  0.1572  1.2292 -0.2550
 1229SOL    HW3 4990   4.537   4.318   2.214  0.6183 -0.7817 -0.6204
 1229SOL    MW4 4991   4.471   4.276   2.252  0.2398  0.1650 -0.2139
 1230SOL     OW 4992   0.223   4.400   2.161 -0.1501  0.9251  0.1794
 1230SOL    HW2 4993   0.298   4.364   2.209 -0.3510  1.3205  0.7861
 1230SOL    HW3 4994   0.228   4.494   2.175  0.4757  1.1659 -1.5636
 1230SOL    MW4 4995   0.234   4.408   2.169 -0.0940  1.0090  0.0298
 1231SOL     OW 4996   0.689   4.650   2.209 -0.0225 -0.1666 -0.9122
 1231SOL    HW2 4997   0.677   4.644   2.304  0.0730 -0.1757 -0.9010
 1231SOL    HW3 4998   0.764   4.708   2.198  0.2914 -0.5824 -0.9705
 1231SOL    MW4 4999   0.697   4.657   2.220  0.0316 -0.2222 -0.9184
 1232SOL     OW 5000   0.461   0.147   2.208  0.2058  0.5640 -0.4197
 1232SOL    HW2 5001   0.538   0.093   2.229  0.2549  1.0098  0.5626
 1232SOL    HW3 5002   0.459   0.148   2.113 -0.4734 -2.1486 -0.4912
 1232SOL    MW4 5003   0.471   0.140   2.199  0.1226  0.2649 -0.2997
 1233SOL     OW 5004   0.500   0.421   2.244  0.2562 -0.0061 -0.3141
 1233SOL    HW2 5005   0.489   0.425   2.339  0.8616  1.4807 -0.3049
 1233SOL    HW3 5006   0.499   0.327   2.224  0.5978 -0.3451  1.2175
 1233SOL    MW4 5007   0.499   0.409   2.254  0.3811  0.1453 -0.1106
 1234SOL     OW 5008   0.709   0.582   2.128 -0.0481  0.9774 -0.3272
 1234SOL    HW2 5009   0.719   0.672   2.160  2.1636 -0.1668  2.3910
 1234SOL    HW3 5010   0.634   0.547   2.177  1.0168  0.4096  0.9415
 1234SOL    MW4 5011   0.700   0.589   2.139  0.3842  0.7516  0.1986
 1235SOL     OW 5012   0.685   0.833   2.272 -0.3342  0.0310 -0.1180
 1235SOL    HW2 5013   0.669   0.805   2.362 -1.1459  0.2060 -0.2115
 1235SOL    HW3 5014   0.599   0.841   2.233  0.0262 -0.1793 -0.9589
 1235SOL    MW4 5015   0.672   0.831   2.279 -0.3937  0.0263 -0.2413
 1236SOL     OW 5016   0.409   0.890   2.173 -0.4475 -0.1678 -0.1268
 1236SOL    HW2 5017   0.333   0.838   2.198  0.3853 -1.6700 -0.7235
 1236SOL    HW3 5018   0.401   0.901   2.078  0.0622 -0.3053 -0.1886
 1236SOL    MW4 5019   0.398   0.885   2.164 -0.2704 -0.3842 -0.2139
 1237SOL     OW 5020   0.430   1.138   2.296 -0.2357  0.4453  0.0199
 1237SOL    HW2 5021   0.414   1.056   2.250  2.3337 -0.1193  0.0321
 1237SOL    HW3 5022   0.353   1.191   2.279 -1.6091 -1.7045 -0.6001
 1237SOL    MW4 5023   0.418   1.134   2.288 -0.0779  0.0873 -0.0603
 1238SOL     OW 5024   0.681   1.280   2.178 -0.5918  0.0885  0.2598
 1238SOL    HW2 5025   0.674   1.375   2.191 -1.4776  0.0782 -0.1265
 1238SOL    HW3 5026   0.602   1.244   2.217 -0.3612 -0.4780  0.2152
 1238SOL    MW4 5027   0.670   1.288   2.185 -0.6782  0.0123  0.2031
 1239SOL     OW 5028   0.609   1.541   2.265  0.1252 -0.0721 -0.1118
 1239SOL    HW2 5029   0.619   1.535   2.360  0.6478 -0.4158 -0.1847
 1239SOL    HW3 5030   0.694   1.571   2.234  0.3062 -1.0138 -0.5600
 1239SOL    MW4 5031   0.621   1.544   2.274  0.2180 -0.2418 -0.1805
 1240SOL     OW 5032   0.403   1.699   2.200  0.6398  0.1107  0.3481
 1240SOL    HW2 5033   0.479   1.654   2.238  0.2823  1.0514  2.2238
 1240SOL    HW3 5034   0.328   1.645   2.225  0.4704  0.3346  0.3204
 1240SOL    MW4 5035   0.403   1.686   2.208  0.5703  0.2644  0.5918
 1241SOL     OW 5036   0.384   1.963   2.302 -0.2313 -0.1456  0.2549
 1241SOL    HW2 5037   0.464   1.997   2.261 -1.4821 -0.5359 -2.6086
 1241SOL    HW3 5038   0.379   1.872   2.274 -1.2981 -0.3277  1.0103
 1241SOL    MW4 5039   0.394   1.956   2.293 -0.5371 -0.2211 -0.0234
 1242SOL     OW 5040   0.638   2.069   2.225 -0.1545  0.1997  0.7004
 1242SOL    HW2 5041   0.719   2.023   2.248  0.3204  0.8357  0.3214
 1242SOL    HW3 5042   0.654   2.160   2.252 -1.5263 -0.0671  2.5181
 1242SOL    MW4 5043   0.651   2.075   2.232 -0.2729  0.2487  0.8903
 1243SOL     OW 5044   0.659   2.335   2.275 -0.3942 -0.2799 -0.1489
 1243SOL    HW2 5045   0.663   2.337   2.371 -2.8687 -0.0904 -0.0147
 1243SOL    HW3 5046   0.736   2.384   2.247 -0.2327  0.6233  1.7716
 1243SOL    MW4 5047   0.669   2.342   2.284 -0.6994 -0.1359  0.1221
 1244SOL     OW 5048   0.438   2.449   2.147  0.0452  0.1495 -0.1878
 1244SOL    HW2 5049   0.521   2.419   2.182  0.3563  0.0693 -0.9749
 1244SOL    HW3 5050   0.371   2.396   2.191  0.3651  0.6959  0.9553
 1244SOL    MW4 5051   0.440   2.438   2.157  0.1284  0.2112 -0.1407
 1245SOL     OW 5052   0.407   2.715   2.277  0.1161  0.3364  0.7347
 1245SOL    HW2 5053   0.398   2.707   2.372  0.3070  0.2698  0.7471
 1245SOL    HW3 5054   0.431   2.628   2.247 -2.8069 -0.3529  0.2815
 1245SOL    MW4 5055   0.409   2.703   2.285 -0.2443  0.2365  0.6766
 1246SOL     OW 5056   0.639   2.839   2.183  0.1088  0.6093  0.0659
 1246SOL    HW2 5057   0.571   2.783   2.220 -0.4052  0.4612 -1.0477
 1246SOL    HW3 5058   0.720   2.807   2.220 -0.2342 -0.5498 -0.1558
 1246SOL    MW4 5059   0.640   2.827   2.192 -0.0042  0.4370 -0.1106
 1247SOL     OW 5060   0.597   3.108   2.297  0.5403 -0.0788  0.4412
 1247SOL    HW2 5061   0.519   3.150   2.260  1.8203  0.4388 -1.7630
 1247SOL    HW3 5062   0.604   3.025   2.248  1.3750 -0.1090  0.6086
 1247SOL    MW4 5063   0.588   3.103   2.285  0.8193 -0.0145  0.1726
 1248SOL     OW 5064   0.395   3.251   2.172 -0.8624 -0.4150 -0.3089
 1248SOL    HW2 5065   0.325   3.187   2.188 -0.3957 -1.3670 -1.9477
 1248SOL    HW3 5066   0.407   3.249   2.077 -0.3884  1.6512 -0.3114
 1248SOL    MW4 5067   0.387   3.242   2.162 -0.7383 -0.2680 -0.5255
 1249SOL     OW 5068   0.419   3.500   2.286  0.2471 -0.2840 -0.1968
 1249SOL    HW2 5069   0.496   3.545   2.252 -0.2781 -0.0227 -1.0504
 1249SOL    HW3 5070   0.418   3.416   2.240 -1.5058  0.8170 -2.2463
 1249SOL    MW4 5071   0.429   3.495   2.275 -0.0535 -0.1040 -0.5801
 1250SOL     OW 5072   0.633   3.627   2.199  0.1593  0.8939 -0.4625
 1250SOL    HW2 5073   0.644   3.722   2.200 -1.0388  1.0477 -1.4901
 1250SOL    HW3 5074   0.633   3.604   2.106 -0.8940  0.0524 -0.2646
 1250SOL    MW4 5075   0.635   3.637   2.186 -0.1377  0.8032 -0.5720
 1251SOL     OW 5076   0.685   3.906   2.227 -0.3793 -0.1262  0.3285
 1251SOL    HW2 5077   0.676   3.885   2.320 -0.6267 -1.1897  0.0664
 1251SOL    HW3 5078   0.601   3.944   2.202  0.2883  1.8586  0.9606
 1251SOL    MW4 5079   0.673   3.908   2.236 -0.3239 -0.0050  0.3772
 1252SOL     OW 5080   0.414   4.012   2.141  0.1496  0.3411 -0.4165
 1252SOL    HW2 5081   0.357   3.948   2.183 -0.1752  1.2830  0.6130
 1252SOL    HW3 5082   0.392   4.007   2.048  0.2310 -1.1312 -0.3785
 1252SOL    MW4 5083   0.404   4.003   2.135  0.1175  0.2713 -0.2756
 1253SOL     OW 5084   0.458   4.272   2.263 -0.0254  0.3545  0.0195
 1253SOL    HW2 5085   0.526   4.312   2.210 -0.1491  1.1978  0.4990
 1253SOL    HW3 5086   0.443   4.186   2.222  1.7964 -0.1216  0.3255
 1253SOL    MW4 5087   0.465   4.266   2.250  0.1987  0.4029  0.1233
 1254SOL     OW 5088   0.681   4.388   2.129  0.0071  0.1829  0.4410
 1254SOL    HW2 5089   0.695   4.479   2.156  0.1735  0.3082 -0.0705
 1254SOL    HW3 5090   0.684   4.390   2.034  1.0053 -0.5217  0.4493
 1254SOL    MW4 5091   0.683   4.400   2.120  0.1608  0.1063  0.3748
 1255SOL     OW 5092   1.151   4.660   2.272 -0.0861 -0.3977 -0.5392
 1255SOL    HW2 5093   1.156   4.658   2.367 -0.7068 -1.2146 -0.5170
 1255SOL    HW3 5094   1.074   4.714   2.253 -1.1587 -1.8628 -0.5179
 1255SOL    MW4 5095   1.141   4.667   2.282 -0.3095 -0.6988 -0.5336
 1256SOL     OW 5096   0.929   0.123   2.173  0.6027 -0.0643 -0.6752
 1256SOL    HW2 5097   0.915   0.217   2.173  0.9152 -0.0122 -1.6975
 1256SOL    HW3 5098   0.942   0.100   2.081  0.6611 -1.0829 -0.4256
 1256SOL    MW4 5099   0.929   0.132   2.161  0.6516 -0.1918 -0.7770
 1257SOL     OW 5100   0.917   0.414   2.255 -0.1157  0.1202  0.4223
 1257SOL    HW2 5101   0.999   0.452   2.223 -0.6421  0.5130 -0.4738
 1257SOL    HW3 5102   0.850   0.477   2.231 -0.8209 -0.6902  0.2289
 1257SOL    MW4 5103   0.919   0.427   2.248 -0.2782  0.0651  0.2787
 1258SOL     OW 5104   1.109   0.601   2.126 -0.1709 -0.2512 -0.4169
 1258SOL    HW2 5105   1.173   0.539   2.163 -0.0279 -0.5243 -1.1208
 1258SOL    HW3 5106   1.112   0.585   2.032  0.3582  1.3040 -0.6677
 1258SOL    MW4 5107   1.118   0.591   2.119 -0.0823 -0.0820 -0.5429
 1259SOL     OW 5108   1.109   0.829   2.295 -0.3596 -0.1609 -0.4275
 1259SOL    HW2 5109   1.049   0.892   2.255  0.3494  0.2827 -0.7986
 1259SOL    HW3 5110   1.106   0.753   2.237 -0.8567 -0.2893 -0.2341
 1259SOL    MW4 5111   1.101   0.827   2.282 -0.3316 -0.1193 -0.4506
 1260SOL     OW 5112   0.915   0.972   2.174 -0.2950  0.3289 -0.0322
 1260SOL    HW2 5113   0.926   1.061   2.208 -0.3381  0.0525  0.7294
 1260SOL    HW3 5114   0.848   0.934   2.231  0.6292 -0.5937  0.4413
 1260SOL    MW4 5115   0.907   0.979   2.186 -0.1788  0.1706  0.1307
 1261SOL     OW 5116   0.925   1.205   2.305 -0.1728 -0.2442  0.1388
 1261SOL    HW2 5117   0.915   1.186   2.398  0.9637  0.0487  0.3273
 1261SOL    HW3 5118   0.836   1.221   2.274 -0.5301 -0.0646  1.2360
 1261SOL    MW4 5119   0.912   1.204   2.313 -0.0699 -0.1819  0.3083
 1262SOL     OW 5120   1.152   1.315   2.217  0.6621  0.0257  0.4687
 1262SOL    HW2 5121   1.223   1.252   2.215  0.6244  0.0126 -0.5519
 1262SOL    HW3 5122   1.075   1.264   2.244  0.9076 -0.0799  0.9794
 1262SOL    MW4 5123   1.151   1.300   2.220  0.6895  0.0103  0.4017
 1263SOL     OW 5124   1.131   1.598   2.228 -0.2807  0.0850 -0.1638
 1263SOL    HW2 5125   1.044   1.636   2.216 -0.2405  0.4483  0.6356
 1263SOL    HW3 5126   1.121   1.506   2.204 -0.8485  0.1655 -0.2446
 1263SOL    MW4 5127   1.118   1.591   2.224 -0.3501  0.1434 -0.0691
 1264SOL     OW 5128   0.876   1.661   2.206  0.3139  0.1263  0.1430
 1264SOL    HW2 5129   0.871   1.749   2.241 -1.3795 -0.1388  0.6346
 1264SOL    HW3 5130   0.857   1.671   2.112  0.0533  0.2817  0.2113
 1264SOL    MW4 5131   0.873   1.674   2.198  0.0561  0.1119  0.2165
 1265SOL     OW 5132   0.876   1.918   2.272 -0.2446 -0.3117 -0.2539
 1265SOL    HW2 5133   0.888   1.927   2.366  0.5126 -1.0992 -0.2688
 1265SOL    HW3 5134   0.961   1.941   2.234 -0.4255 -0.4054 -0.7189
 1265SOL    MW4 5135   0.888   1.922   2.280 -0.1686 -0.4280 -0.3169
 1266SOL     OW 5136   1.121   2.016   2.193  0.1597 -0.2849  0.2541
 1266SOL    HW2 5137   1.212   1.989   2.206  1.0131  2.4704  0.4474
 1266SOL    HW3 5138   1.112   2.025   2.098  0.2873  0.0211  0.2686
 1266SOL    MW4 5139   1.132   2.014   2.182  0.2891  0.1187  0.2816
 1267SOL     OW 5140   1.122   2.304   2.265  0.1793  0.4374 -0.0883
 1267SOL    HW2 5141   1.210   2.327   2.233 -0.7547  1.5249 -1.9329
 1267SOL    HW3 5142   1.114   2.210   2.248  1.4113  0.0943  1.1444
 1267SOL    MW4 5143   1.133   2.295   2.258  0.2187  0.5355 -0.1690
 1268SOL     OW 5144   0.871   2.463   2.163 -0.0861  0.1729  0.6867
 1268SOL    HW2 5145   0.946   2.406   2.181  1.6565  2.0122 -0.5144
 1268SOL    HW3 5146   0.864   2.464   2.068 -0.8400  1.0140  0.7488
 1268SOL    MW4 5147   0.880   2.455   2.153  0.0443  0.5267  0.5364
 1269SOL     OW 5148   0.888   2.708   2.264  0.2537 -0.0083 -0.2830
 1269SOL    HW2 5149   0.876   2.709   2.359  0.1921 -1.4265 -0.2735
 1269SOL    HW3 5150   0.876   2.617   2.239 -1.0500  0.5523 -1.8241
 1269SOL    MW4 5151   0.885   2.696   2.273  0.0736 -0.1214 -0.4852
 1270SOL     OW 5152   1.113   2.852   2.179 -0.5458  0.0290  1.1365
 1270SOL    HW2 5153   1.177   2.784   2.198 -0.5647 -0.0686  0.8647
 1270SOL    HW3 5154   1.029   2.815   2.208 -0.4781  0.1584  1.4962
 1270SOL    MW4 5155   1.110   2.838   2.185 -0.5393  0.0334  1.1480
 1271SOL     OW 5156   1.099   3.120   2.265 -0.0430  0.2371  0.1501
 1271SOL    HW2 5157   1.007   3.138   2.247 -0.6992 -1.6126  1.5263
 1271SOL    HW3 5158   1.112   3.030   2.236  1.1966  0.2929  0.5159
 1271SOL    MW4 5159   1.089   3.111   2.259  0.0340  0.0002  0.3796
 1272SOL     OW 5160   0.844   3.197   2.186 -0.0924 -0.2509  0.1638
 1272SOL    HW2 5161   0.844   3.292   2.197  0.5403 -0.3937  1.5547
 1272SOL    HW3 5162   0.759   3.169   2.219  0.3889 -0.3265  1.3546
 1272SOL    MW4 5163   0.833   3.206   2.192  0.0546 -0.2794  0.5045
 1273SOL     OW 5164   0.877   3.459   2.227 -0.0469  0.0648 -0.2396
 1273SOL    HW2 5165   0.878   3.451   2.322 -1.8776 -2.1700 -0.3532
 1273SOL    HW3 5166   0.809   3.523   2.208  1.0561  1.3235 -0.0358
 1273SOL    MW4 5167   0.868   3.466   2.237 -0.1429 -0.0641 -0.2277
 1274SOL     OW 5168   1.103   3.603   2.155  0.2860  0.0834 -0.2252
 1274SOL    HW2 5169   1.181   3.560   2.189 -0.1198 -0.3478  0.1777
 1274SOL    HW3 5170   1.030   3.552   2.192 -0.1713 -0.0909 -1.3438
 1274SOL    MW4 5171   1.103   3.590   2.164  0.1721  0.0038 -0.3195
 1275SOL     OW 5172   1.113   3.862   2.256 -0.3007  0.4008 -0.5358
 1275SOL    HW2 5173   1.199   3.886   2.222  0.7956 -1.2700  0.9535
 1275SOL    HW3 5174   1.103   3.770   2.231 -1.2272  0.3047  0.1640
 1275SOL    MW4 5175   1.123   3.853   2.248 -0.2782  0.1678 -0.2468
 1276SOL     OW 5176   0.928   4.013   2.132 -0.4600  0.3599 -0.4521
 1276SOL    HW2 5177   0.999   3.956   2.162 -0.3972  0.5042 -0.3293
 1276SOL    HW3 5178   0.852   3.986   2.183 -0.3169  0.7099 -0.0521
 1276SOL    MW4 5179   0.927   4.002   2.143 -0.4328  0.4253 -0.3831
 1277SOL     OW 5180   0.900   4.258   2.265  0.2536 -0.2265  0.5901
 1277SOL    HW2 5181   0.903   4.173   2.221 -0.8219 -0.4860  0.9896
 1277SOL    HW3 5182   0.824   4.302   2.227 -1.1993 -0.7894  2.7365
 1277SOL    MW4 5183   0.891   4.252   2.255 -0.0800 -0.3357  0.9260
 1278SOL     OW 5184   1.121   4.389   2.172 -0.1190 -0.1495  0.1507
 1278SOL    HW2 5185   1.042   4.348   2.207  0.3953  0.5220  2.2031
 1278SOL    HW3 5186   1.115   4.480   2.201  1.0760  0.0623 -0.2508
 1278SOL    MW4 5187   1.110   4.396   2.181  0.1065 -0.0334  0.3686
 1279SOL     OW 5188   1.579   0.015   2.230 -0.1970  0.1789  0.1543
 1279SOL    HW2 5189   1.659   0.050   2.191  0.0092 -0.2974  0.1410
 1279SOL    HW3 5190   1.511   0.079   2.208 -0.2771 -0.5747 -1.8444
 1279SOL    MW4 5191   1.580   0.028   2.222 -0.1802  0.0167 -0.1113
 1280SOL     OW 5192   1.345   0.163   2.125 -0.3072 -0.3282 -0.2952
 1280SOL    HW2 5193   1.319   0.253   2.144  1.3390 -0.0254  0.5543
 1280SOL    HW3 5194   1.278   0.109   2.167 -1.8775  0.4903 -1.6813
 1280SOL    MW4 5195   1.333   0.168   2.133 -0.2972 -0.1803 -0.3660
 1281SOL     OW 5196   1.301   0.415   2.229  0.0512  0.1153  0.3358
 1281SOL    HW2 5197   1.304   0.393   2.323 -0.0879  0.4726  0.4245
 1281SOL    HW3 5198   1.391   0.443   2.208  0.1861 -0.3686  0.2626
 1281SOL    MW4 5199   1.314   0.416   2.239  0.0507  0.0986  0.3378
 1282SOL     OW 5200   1.574   0.506   2.179  0.0460  0.7455  0.0817
 1282SOL    HW2 5201   1.654   0.465   2.213 -0.1430 -0.3293 -0.7705
 1282SOL    HW3 5202   1.590   0.516   2.086 -1.1526 -0.2340 -0.2383
 1282SOL    MW4 5203   1.587   0.502   2.172 -0.1371  0.4745 -0.0727
 1283SOL     OW 5204   1.570   0.749   2.296  0.1417 -0.5651  0.5657
 1283SOL    HW2 5205   1.641   0.807   2.266  0.4120 -1.1882  0.0010
 1283SOL    HW3 5206   1.586   0.666   2.251 -0.9484 -0.7134  0.4422
 1283SOL    MW4 5207   1.582   0.746   2.286  0.0335 -0.6669  0.4749
 1284SOL     OW 5208   1.359   0.874   2.170 -0.1289 -0.1974 -0.0584
 1284SOL    HW2 5209   1.427   0.828   2.219  0.3467 -0.0247 -0.5519
 1284SOL    HW3 5210   1.278   0.853   2.216  0.1949 -0.8132  0.2341
 1284SOL    MW4 5211   1.358   0.865   2.183 -0.0235 -0.2558 -0.0849
 1285SOL     OW 5212   1.377   1.155   2.222 -1.0145  0.2761 -0.1466
 1285SOL    HW2 5213   1.367   1.171   2.315  1.1637 -0.9627  0.3482
 1285SOL    HW3 5214   1.360   1.061   2.212 -1.1399  0.3820 -0.9792
 1285SOL    MW4 5215   1.374   1.145   2.233 -0.7436  0.1266 -0.1912
 1286SOL     OW 5216   1.606   1.290   2.118  0.0938 -0.4296 -0.2548
 1286SOL    HW2 5217   1.528   1.238   2.135 -2.0231  2.4591 -0.9119
 1286SOL    HW3 5218   1.607   1.303   2.024  0.8829  0.3101 -0.1519
 1286SOL    MW4 5219   1.596   1.285   2.108 -0.0813  0.0491 -0.3278
 1287SOL     OW 5220   1.616   1.520   2.268 -0.0645  0.2574  0.4448
 1287SOL    HW2 5221   1.688   1.576   2.240  0.1951 -1.4668 -2.5077
 1287SOL    HW3 5222   1.616   1.447   2.206 -1.2858 -2.3166  3.2875
 1287SOL    MW4 5223   1.625   1.518   2.256 -0.1913 -0.3097  0.4306
 1288SOL     OW 5224   1.385   1.674   2.160 -0.0074  0.2113 -0.2511
 1288SOL    HW2 5225   1.444   1.616   2.207 -1.1372  1.3208  2.6328
 1288SOL    HW3 5226   1.298   1.651   2.193 -0.9971  0.0359 -2.8910
 1288SOL    MW4 5227   1.381   1.663   2.170 -0.2871  0.3346 -0.2186
 1289SOL     OW 5228   1.379   1.942   2.245  0.7775  0.3206  0.2999
 1289SOL    HW2 5229   1.450   1.991   2.205 -0.7816  0.4573 -2.3830
 1289SOL    HW3 5230   1.397   1.851   2.223  0.6478  0.2506  0.4754
 1289SOL    MW4 5231   1.391   1.936   2.237  0.5547  0.3293 -0.0308
 1290SOL     OW 5232   1.606   2.068   2.132 -0.2515  0.0413 -0.1045
 1290SOL    HW2 5233   1.684   2.018   2.157 -0.7409 -0.9703 -0.6184
 1290SOL    HW3 5234   1.602   2.061   2.037  0.5998  2.4245 -0.3463
 1290SOL    MW4 5235   1.616   2.061   2.123 -0.2038  0.2224 -0.2043
 1291SOL     OW 5236   1.598   2.313   2.250 -0.0972 -0.4280 -0.1104
 1291SOL    HW2 5237   1.570   2.320   2.342  0.9003 -0.7035  0.2172
 1291SOL    HW3 5238   1.582   2.222   2.227 -0.0665 -0.4327 -0.1142
 1291SOL    MW4 5239   1.592   2.302   2.259  0.0384 -0.4649 -0.0675
 1292SOL     OW 5240   1.346   2.417   2.151  0.3090 -0.1893  0.6349
 1292SOL    HW2 5241   1.435   2.391   2.172  0.8831  1.0436 -0.2048
 1292SOL    HW3 5242   1.340   2.410   2.056 -0.4455 -0.1334  0.6714
 1292SOL    MW4 5243   1.357   2.413   2.141  0.2851 -0.0191  0.5291
 1293SOL     OW 5244   1.315   2.682   2.224 -0.4383 -0.2039 -0.2398
 1293SOL    HW2 5245   1.391   2.722   2.182  0.6482 -0.8649  1.0361
 1293SOL    HW3 5246   1.317   2.590   2.196 -0.7565 -0.2207 -0.2090
 1293SOL    MW4 5247   1.325   2.675   2.215 -0.3369 -0.2935 -0.0675
 1294SOL     OW 5248   1.562   2.816   2.151  0.0638  0.1323  0.2223
 1294SOL    HW2 5249   1.561   2.908   2.175 -0.6701 -0.2512  1.6847
 1294SOL    HW3 5250   1.646   2.783   2.184  0.5257  0.3573 -0.6889
 1294SOL    MW4 5251   1.573   2.824   2.158  0.0279  0.1113  0.2949
 1295SOL     OW 5252   1.552   3.083   2.231 -0.1482 -0.2416  0.0566
 1295SOL    HW2 5253   1.546   3.088   2.326 -0.8366  1.8302 -0.0665
 1295SOL    HW3 5254   1.476   3.131   2.199  1.2344  0.9678 -1.5274
 1295SOL    MW4 5255   1.541   3.090   2.239 -0.0566  0.1915 -0.1686
 1296SOL     OW 5256   1.327   3.227   2.156  0.0693  0.1756  0.1809
 1296SOL    HW2 5257   1.249   3.188   2.196  0.7193 -0.0450  1.2755
 1296SOL    HW3 5258   1.314   3.216   2.062 -0.5305 -1.2071  0.4094
 1296SOL    MW4 5259   1.315   3.220   2.149  0.0759 -0.0360  0.3557
 1297SOL     OW 5260   1.339   3.483   2.266 -0.0914 -0.1096 -0.2447
 1297SOL    HW2 5261   1.331   3.473   2.360  1.2058  0.9091 -0.0085
 1297SOL    HW3 5262   1.333   3.394   2.231 -0.2591 -0.5173  0.8154
 1297SOL    MW4 5263   1.337   3.470   2.274  0.0576 -0.0291 -0.0737
 1298SOL     OW 5264   1.569   3.597   2.168  0.0713 -0.1414  0.0173
 1298SOL    HW2 5265   1.579   3.689   2.189 -0.6526 -0.0098 -0.2049
 1298SOL    HW3 5266   1.491   3.569   2.216  1.1348 -1.0132  1.2890
 1298SOL    MW4 5267   1.560   3.605   2.177  0.1160 -0.2389  0.1559
 1299SOL     OW 5268   1.582   3.870   2.253  0.5476 -0.0520 -0.0507
 1299SOL    HW2 5269   1.579   3.871   2.349 -0.7399  0.2777 -0.0892
 1299SOL    HW3 5270   1.651   3.934   2.232  0.8225 -0.1048  0.6441
 1299SOL    MW4 5271   1.591   3.879   2.263  0.4139 -0.0155  0.0360
 1300SOL     OW 5272   1.344   4.006   2.185  0.1853  0.5353  0.3453
 1300SOL    HW2 5273   1.429   3.968   2.206 -0.1661 -0.1279  0.5765
 1300SOL    HW3 5274   1.346   4.015   2.089 -0.1390 -1.0877  0.1655
 1300SOL    MW4 5275   1.355   4.002   2.175  0.0961  0.2341  0.3519
 1301SOL     OW 5276   1.379   4.280   2.237 -0.3695  0.1210  0.1507
 1301SOL    HW2 5277   1.375   4.187   2.214 -0.1426  0.1301  0.0765
 1301SOL    HW3 5278   1.290   4.312   2.220 -0.9937 -0.5156  2.0877
 1301SOL    MW4 5279   1.366   4.272   2.231 -0.4219  0.0377  0.3967
 1302SOL     OW 5280   1.600   4.413   2.136 -0.0573  0.3469  0.0385
 1302SOL    HW2 5281   1.527   4.362   2.171  1.7293 -0.8866  2.1015
 1302SOL    HW3 5282   1.590   4.500   2.177  0.1867 -0.1224  1.1124
 1302SOL    MW4 5283   1.589   4.418   2.146  0.2105  0.1221  0.4525
 1303SOL     OW 5284   2.020   4.657   2.271 -0.5347 -0.2093  0.0003
 1303SOL    HW2 5285   2.095   4.701   2.232 -0.4405 -0.7469 -0.4348
 1303SOL    HW3 5286   2.016   4.572   2.226 -0.6648 -0.6756  0.8672
 1303SOL    MW4 5287   2.029   4.651   2.260 -0.5393 -0.3414  0.0572
 1304SOL     OW 5288   1.825   0.117   2.109  0.2040  0.2605 -0.0505
 1304SOL    HW2 5289   1.824   0.199   2.158  1.2267  0.3712 -0.2211
 1304SOL    HW3 5290   1.894   0.065   2.150  0.2749 -0.1017 -0.6209
 1304SOL    MW4 5291   1.834   0.121   2.121  0.3483  0.2274 -0.1485
 1305SOL     OW 5292   1.789   0.350   2.268  0.1121 -0.8951 -0.1279
 1305SOL    HW2 5293   1.794   0.352   2.364  0.2664  0.0090 -0.1459
 1305SOL    HW3 5294   1.864   0.402   2.239 -0.9521  0.3826 -0.6946
 1305SOL    MW4 5295   1.800   0.357   2.277 -0.0080 -0.6073 -0.2050
 1306SOL     OW 5296   2.017   0.490   2.175  0.0835 -0.3565 -0.4544
 1306SOL    HW2 5297   2.020   0.584   2.194  1.5805 -0.4025 -0.4685
 1306SOL    HW3 5298   2.031   0.485   2.080  4.0722 -0.8124  0.0835
 1306SOL    MW4 5299   2.019   0.502   2.165  0.8075 -0.4228 -0.3853
 1307SOL     OW 5300   1.986   0.754   2.259  0.1845  0.3491  0.5022
 1307SOL    HW2 5301   2.060   0.813   2.250 -0.6801  1.3318 -0.3853
 1307SOL    HW3 5302   1.913   0.801   2.220 -1.1179 -0.2179  2.1783
 1307SOL    MW4 5303   1.986   0.768   2.253 -0.1014  0.4040  0.6061
 1308SOL     OW 5304   1.763   0.926   2.196 -0.0558 -0.8296 -0.0399
 1308SOL    HW2 5305   1.780   0.998   2.256  0.5476 -1.3836  0.4561
 1308SOL    HW3 5306   1.762   0.967   2.109  0.3774 -0.2408  0.2287
 1308SOL    MW4 5307   1.765   0.941   2.192  0.0809 -0.8250  0.0608
 1309SOL     OW 5308   1.821   1.180   2.308  0.2785  0.4674  0.4065
 1309SOL    HW2 5309   1.902   1.206   2.264  0.9145  0.1630  1.3846
 1309SOL    HW3 5310   1.752   1.221   2.257  1.0703  0.9838 -0.2588
 1309SOL    MW4 5311   1.823   1.189   2.295  0.4668  0.4954  0.4478
 1310SOL     OW 5312   2.068   1.276   2.171  0.5540 -0.1605  0.3529
 1310SOL    HW2 5313   2.045   1.365   2.200  0.3588 -0.2592  0.4995
 1310SOL    HW3 5314   2.049   1.276   2.077  0.6027 -0.0322  0.3428
 1310SOL    MW4 5315   2.062   1.288   2.162  0.5348 -0.1565  0.3707
 1311SOL     OW 5316   2.037   1.545   2.226  0.2015  0.3394 -0.4753
 1311SOL    HW2 5317   2.011   1.536   2.318  0.6295 -0.3200 -0.4194
 1311SOL    HW3 5318   1.961   1.586   2.185 -0.2126  0.1256  0.0604
 1311SOL    MW4 5319   2.023   1.549   2.233  0.2036  0.2242 -0.3972
 1312SOL     OW 5320   1.816   1.664   2.135 -0.0353 -0.5465  0.1408
 1312SOL    HW2 5321   1.820   1.752   2.174  0.3336 -0.6159  0.2633
 1312SOL    HW3 5322   1.796   1.680   2.043  2.4830 -0.1975 -0.3802
 1312SOL    MW4 5323   1.814   1.678   2.128  0.3457 -0.5096  0.0885
 1313SOL     OW 5324   1.817   1.911   2.237 -0.0845  0.0059 -0.8871
 1313SOL    HW2 5325   1.802   1.916   2.332  2.3179 -0.0047 -0.4755
 1313SOL    HW3 5326   1.875   1.985   2.218  0.5219 -0.7669 -2.1151
 1313SOL    MW4 5327   1.823   1.921   2.247  0.3124 -0.0974 -0.9949
 1314SOL     OW 5328   2.006   2.098   2.141  0.4602  0.4259  0.2747
 1314SOL    HW2 5329   2.081   2.054   2.180 -0.1971 -1.4307 -0.5241
 1314SOL    HW3 5330   2.027   2.104   2.048  0.2555  1.2306  0.2760
 1314SOL    MW4 5331   2.019   2.093   2.134  0.3467  0.2871  0.1695
 1315SOL     OW 5332   2.055   2.333   2.260  0.0579 -0.4231  0.5446
 1315SOL    HW2 5333   2.132   2.378   2.224  0.6320 -0.0224  2.2279
 1315SOL    HW3 5334   2.045   2.256   2.205  0.2475  0.7307 -1.1683
 1315SOL    MW4 5335   2.064   2.329   2.248  0.1583 -0.2182  0.5407
 1316SOL     OW 5336   1.824   2.435   2.121 -0.2825 -0.0281 -0.3503
 1316SOL    HW2 5337   1.896   2.390   2.166 -1.0108  1.4319  2.4139
 1316SOL    HW3 5338   1.745   2.390   2.152 -0.8078  1.1312  0.0291
 1316SOL    MW4 5339   1.823   2.423   2.131 -0.4479  0.3176  0.0644
 1317SOL     OW 5340   1.792   2.678   2.248 -0.4088 -0.2097 -0.2336
 1317SOL    HW2 5341   1.800   2.668   2.343  0.0063  0.3893 -0.2045
 1317SOL    HW3 5342   1.817   2.592   2.213 -0.9740 -0.5613  0.2145
 1317SOL    MW4 5343   1.796   2.665   2.256 -0.4287 -0.1769 -0.1707
 1318SOL     OW 5344   2.002   2.825   2.130 -0.0675 -0.0685 -0.4366
 1318SOL    HW2 5345   2.084   2.791   2.165  0.4522  0.8527 -0.7571
 1318SOL    HW3 5346   1.934   2.773   2.174  0.5922  0.5912  1.4217
 1318SOL    MW4 5347   2.004   2.814   2.140  0.0882  0.1404 -0.2339
 1319SOL     OW 5348   2.011   3.094   2.262  0.0916  0.2145 -0.4129
 1319SOL    HW2 5349   2.084   3.140   2.220  0.0231 -0.0257 -0.7988
 1319SOL    HW3 5350   2.015   3.005   2.227  0.0856 -0.0156  0.1578
 1319SOL    MW4 5351   2.021   3.089   2.252  0.0818  0.1523 -0.3886
 1320SOL     OW 5352   1.778   3.221   2.161 -0.3270 -0.4576  0.2862
 1320SOL    HW2 5353   1.857   3.189   2.204  0.6188  0.6365 -0.6261
 1320SOL    HW3 5354   1.707   3.169   2.200  0.9155 -1.9951  0.5474
 1320SOL    MW4 5355   1.779   3.210   2.171 -0.0383 -0.5162  0.2003
 1321SOL     OW 5356   1.768   3.442   2.306  0.1219 -0.3820 -0.4247
 1321SOL    HW2 5357   1.773   3.361   2.256 -0.3042 -0.2258 -0.7181
 1321SOL    HW3 5358   1.711   3.499   2.255 -0.2518 -0.1922  0.1875
 1321SOL    MW4 5359   1.761   3.439   2.293  0.0166 -0.3362 -0.3824
 1322SOL     OW 5360   1.973   3.640   2.196  0.2231  0.3105  0.1020
 1322SOL    HW2 5361   1.916   3.574   2.234 -0.3562  1.0070  0.4561
 1322SOL    HW3 5362   1.970   3.624   2.102 -0.9938  0.6998  0.0763
 1322SOL    MW4 5363   1.965   3.629   2.189 -0.0138  0.4542  0.1454
 1323SOL     OW 5364   2.002   3.915   2.294 -0.1511 -0.6898  0.6222
 1323SOL    HW2 5365   1.981   3.915   2.387 -1.2798 -0.1756  0.3793
 1323SOL    HW3 5366   1.987   3.824   2.266  0.7693 -0.9806  1.0608
 1323SOL    MW4 5367   1.998   3.903   2.303 -0.1785 -0.6604  0.6480
 1324SOL     OW 5368   1.790   4.046   2.177 -0.5068  0.3704  0.6885
 1324SOL    HW2 5369   1.865   3.998   2.213  0.2783  1.0163 -0.0540
 1324SOL    HW3 5370   1.805   4.045   2.082 -0.8525  1.4684  0.6223
 1324SOL    MW4 5371   1.802   4.039   2.169 -0.4487  0.6003  0.5817
 1325SOL     OW 5372   1.811   4.298   2.262  0.2768 -0.1202  0.0852
 1325SOL    HW2 5373   1.795   4.210   2.230  0.7454 -0.2576  0.2165
 1325SOL    HW3 5374   1.745   4.352   2.218 -1.1228 -0.7948  1.3295
 1325SOL    MW4 5375   1.801   4.294   2.252  0.1540 -0.2275  0.2670
 1326SOL     OW 5376   2.040   4.407   2.139 -0.1821  0.5077  0.3015
 1326SOL    HW2 5377   1.958   4.369   2.172 -0.2639 -0.7210 -1.2788
 1326SOL    HW3 5378   2.040   4.388   2.046  1.6259  1.0518  0.1679
 1326SOL    MW4 5379   2.029   4.400   2.131  0.0458  0.4172  0.0753
 1327SOL     OW 5380   2.446   4.620   2.281  0.0333 -0.4159  0.3472
 1327SOL    HW2 5381   2.513   4.672   2.239 -0.5187  0.9507  1.1117
 1327SOL    HW3 5382   2.456   4.532   2.245  0.8058  0.2868 -1.1528
 1327SOL    MW4 5383   2.456   4.615   2.271  0.0622 -0.1426  0.2503
 1328SOL     OW 5384   2.239   0.113   2.148  0.0447  0.0101  0.9101
 1328SOL    HW2 5385   2.248   0.200   2.186  0.7975 -0.3381  1.5276
 1328SOL    HW3 5386   2.296   0.057   2.201  1.7811 -0.3325 -1.2579
 1328SOL    MW4 5387   2.247   0.117   2.160  0.3731 -0.0810  0.7052
 1329SOL     OW 5388   2.250   0.366   2.280 -0.2925  0.2558 -0.1243
 1329SOL    HW2 5389   2.326   0.405   2.236  0.0954 -2.2623 -1.7880
 1329SOL    HW3 5390   2.174   0.409   2.241  0.1403 -0.1132 -1.3745
 1329SOL    MW4 5391   2.250   0.377   2.269 -0.1841 -0.1251 -0.5088
 1330SOL     OW 5392   2.485   0.516   2.188 -0.0640  0.4690  0.4322
 1330SOL    HW2 5393   2.557   0.456   2.209 -0.8457 -0.6428 -0.0582
 1330SOL    HW3 5394   2.486   0.523   2.093  1.4711  3.0455  0.6062
 1330SOL    MW4 5395   2.495   0.509   2.178  0.0350  0.6622  0.3905
 1331SOL     OW 5396   2.511   0.769   2.293  0.0365  0.6561  0.1894
 1331SOL    HW2 5397   2.589   0.803   2.248 -1.4300  1.2577 -1.9374
 1331SOL    HW3 5398   2.505   0.678   2.264 -1.2025  1.1907 -1.2513
 1331SOL    MW4 5399   2.521   0.761   2.283 -0.3207  0.8060 -0.2811
 1332SOL     OW 5400   2.270   0.901   2.218  0.3328 -0.1115  0.0803
 1332SOL    HW2 5401   2.273   0.990   2.252 -0.0459  0.5284 -1.5333
 1332SOL    HW3 5402   2.348   0.859   2.254  0.8083  1.0261  0.4002
 1332SOL    MW4 5403   2.281   0.907   2.227  0.3459  0.1230 -0.0904
 1333SOL     OW 5404   2.306   1.182   2.301  0.0463  0.3036  0.1113
 1333SOL    HW2 5405   2.362   1.228   2.238 -0.6867  0.2443 -0.5884
 1333SOL    HW3 5406   2.217   1.206   2.277 -0.2940 -0.5718  0.4617
 1333SOL    MW4 5407   2.302   1.191   2.290 -0.0954  0.1802  0.0651
 1334SOL     OW 5408   2.489   1.327   2.150 -0.0486  0.5168 -0.7899
 1334SOL    HW2 5409   2.566   1.288   2.190 -0.4291 -1.1334 -1.6125
 1334SOL    HW3 5410   2.486   1.416   2.185  2.0047  0.4849 -0.4652
 1334SOL    MW4 5411   2.498   1.334   2.160  0.1719  0.2949 -0.8559
 1335SOL     OW 5412   2.510   1.584   2.290  0.6903 -0.0163  0.4306
 1335SOL    HW2 5413   2.516   1.560   2.382  0.3783 -2.3146 -0.1174
 1335SOL    HW3 5414   2.600   1.608   2.265  1.2232 -1.6177  0.7619
 1335SOL    MW4 5415   2.523   1.584   2.299  0.7193 -0.5308  0.4020
 1336SOL     OW 5416   2.290   1.692   2.158  0.0145  0.2527 -0.1454
 1336SOL    HW2 5417   2.362   1.655   2.209  0.9718  0.0834 -1.5749
 1336SOL    HW3 5418   2.214   1.638   2.180  0.6468 -0.4573  0.2944
 1336SOL    MW4 5419   2.290   1.680   2.168  0.2244  0.1367 -0.2759
 1337SOL     OW 5420   2.228   1.967   2.258  0.0382 -0.1541 -0.1981
 1337SOL    HW2 5421   2.305   2.015   2.227  0.3648  0.2135  1.1582
 1337SOL    HW3 5422   2.244   1.876   2.231  0.2408  0.1742 -1.2199
 1337SOL    MW4 5423   2.240   1.961   2.250  0.1082 -0.0622 -0.1540
 1338SOL     OW 5424   2.460   2.077   2.125 -0.5022 -0.0994  0.2888
 1338SOL    HW2 5425   2.501   2.011   2.180 -0.6282 -0.1075  0.3732
 1338SOL    HW3 5426   2.471   2.044   2.036 -1.2963 -0.6489  0.3794
 1338SOL    MW4 5427   2.467   2.064   2.121 -0.6235 -0.1731  0.3119
 1339SOL     OW 5428   2.460   2.333   2.257  0.0233  0.4074  0.1992
 1339SOL    HW2 5429   2.535   2.390   2.238  0.3344 -0.1653 -0.3136
 1339SOL    HW3 5430   2.475   2.255   2.203 -0.9615  0.3058  0.0635
 1339SOL    MW4 5431   2.472   2.330   2.247 -0.0658  0.3183  0.1135
 1340SOL     OW 5432   2.248   2.458   2.109 -0.3567 -0.5070  0.0706
 1340SOL    HW2 5433   2.229   2.545   2.145  0.8089  0.3599 -1.3362
 1340SOL    HW3 5434   2.323   2.427   2.159 -0.9388 -0.8224  0.7527
 1340SOL    MW4 5435   2.256   2.466   2.120 -0.2797 -0.4344 -0.0250
 1341SOL     OW 5436   2.219   2.696   2.245  0.6998  0.1230  0.1595
 1341SOL    HW2 5437   2.201   2.680   2.338  0.6982 -1.9075 -0.1702
 1341SOL    HW3 5438   2.297   2.752   2.245 -1.0484  2.6595  1.4198
 1341SOL    MW4 5439   2.227   2.701   2.258  0.4690  0.1898  0.2823
 1342SOL     OW 5440   2.423   2.848   2.149 -0.5654 -1.0131 -0.6274
 1342SOL    HW2 5441   2.498   2.801   2.185 -0.7697 -0.2705  0.8511
 1342SOL    HW3 5442   2.428   2.834   2.055  1.4615 -0.9344 -0.5547
 1342SOL    MW4 5443   2.434   2.840   2.141 -0.3247 -0.9048 -0.4227
 1343SOL     OW 5444   2.437   3.115   2.212 -0.0512  0.2028  0.1831
 1343SOL    HW2 5445   2.399   3.122   2.300 -1.3892 -0.7332 -0.3162
 1343SOL    HW3 5446   2.430   3.023   2.189  0.7766  0.3500 -0.7044
 1343SOL    MW4 5447   2.431   3.104   2.221 -0.1185  0.0985  0.0002
 1344SOL     OW 5448   2.197   3.249   2.148 -0.2104 -0.2378 -0.6012
 1344SOL    HW2 5449   2.185   3.343   2.159 -0.1181  0.0688 -2.8321
 1344SOL    HW3 5450   2.290   3.234   2.165 -0.3808 -0.0689  0.5310
 1344SOL    MW4 5451   2.208   3.259   2.152 -0.2210 -0.1752 -0.7460
 1345SOL     OW 5452   2.218   3.522   2.245  0.4631 -0.8504  0.0929
 1345SOL    HW2 5453   2.229   3.517   2.340  0.5007  2.0597  0.2729
 1345SOL    HW3 5454   2.145   3.582   2.232  0.2105 -1.5170 -1.7252
 1345SOL    MW4 5455   2.210   3.529   2.256  0.4349 -0.5543 -0.1230
 1346SOL     OW 5456   2.448   3.570   2.124  0.0404  0.3300  0.2192
 1346SOL    HW2 5457   2.468   3.659   2.151 -0.2635  0.2019  0.8651
 1346SOL    HW3 5458   2.364   3.551   2.164  0.6830 -0.6938  1.1096
 1346SOL    MW4 5459   2.440   3.579   2.133  0.0849  0.1781  0.4220
 1347SOL     OW 5460   2.479   3.831   2.249  0.0126  0.3270  0.3517
 1347SOL    HW2 5461   2.486   3.847   2.343 -1.2153  0.9302  0.3503
 1347SOL    HW3 5462   2.410   3.891   2.219  0.4275  0.1797 -0.9390
 1347SOL    MW4 5463   2.471   3.841   2.257 -0.0944  0.3870  0.1812
 1348SOL     OW 5464   2.251   4.003   2.178  0.0799 -0.1009 -0.4892
 1348SOL    HW2 5465   2.259   4.090   2.218  0.4494  0.4575 -1.7798
 1348SOL    HW3 5466   2.177   3.963   2.224  0.3352  0.6376  0.5829
 1348SOL    MW4 5467   2.242   4.009   2.190  0.1624  0.0701 -0.5181
 1349SOL     OW 5468   2.266   4.283   2.292 -0.2729 -0.3417 -0.1462
 1349SOL    HW2 5469   2.248   4.271   2.385 -1.2691 -0.4313 -0.3377
 1349SOL    HW3 5470   2.185   4.322   2.258  0.0348 -0.4503 -1.0003
 1349SOL    MW4 5471   2.253   4.287   2.300 -0.3641 -0.3681 -0.2840
 1350SOL     OW 5472   2.482   4.377   2.161 -0.0412 -0.4078  0.4836
 1350SOL    HW2 5473   2.551   4.315   2.184  0.0377 -0.3019  0.5353
 1350SOL    HW3 5474   2.403   4.341   2.200  0.0211 -0.4284  0.5911
 1350SOL    MW4 5475   2.481   4.364   2.169 -0.0224 -0.3972  0.5045
 1351SOL     OW 5476   2.877   4.592   2.275  0.1562  0.2210  0.0768
 1351SOL    HW2 5477   2.945   4.643   2.231  0.7637  0.0043  0.7475
 1351SOL    HW3 5478   2.883   4.505   2.235  0.9915 -0.0939  0.8758
 1351SOL    MW4 5479   2.887   4.587   2.264  0.3464  0.1512  0.2711
 1352SOL     OW 5480   2.666   0.069   2.176 -0.0546 -0.4114 -0.3549
 1352SOL    HW2 5481   2.689   0.159   2.200  1.1977  0.0956 -3.2085
 1352SOL    HW3 5482   2.736   0.016   2.214  0.9477  0.1797 -1.3385
 1352SOL    MW4 5483   2.678   0.074   2.184  0.2427 -0.2666 -0.8612
 1353SOL     OW 5484   2.708   0.341   2.245 -0.6296  0.1268 -0.4326
 1353SOL    HW2 5485   2.714   0.354   2.340 -1.6987 -1.3754 -0.1491
 1353SOL    HW3 5486   2.780   0.393   2.210  0.2323  0.1192  1.2539
 1353SOL    MW4 5487   2.718   0.350   2.253 -0.6568 -0.0724 -0.1729
 1354SOL     OW 5488   2.931   0.484   2.116  0.1137  0.0888  0.0150
 1354SOL    HW2 5489   2.925   0.575   2.142 -1.0601 -0.2808  1.0679
 1354SOL    HW3 5490   2.920   0.485   2.021 -0.1509  1.0074  0.0541
 1354SOL    MW4 5491   2.929   0.496   2.107 -0.0758  0.1612  0.1593
 1355SOL     OW 5492   2.937   0.735   2.242  0.1002  0.3415  0.1747
 1355SOL    HW2 5493   2.921   0.731   2.336 -0.6131 -2.2229 -0.0323
 1355SOL    HW3 5494   2.868   0.793   2.208  0.1035  0.9248  1.1471
 1355SOL    MW4 5495   2.926   0.742   2.250  0.0064  0.0800  0.2756
 1356SOL     OW 5496   2.714   0.922   2.155 -0.3546  0.0426  0.6925
 1356SOL    HW2 5497   2.701   1.010   2.190 -0.4610  0.3963 -0.2245
 1356SOL    HW3 5498   2.712   0.933   2.060  1.1562 -0.7300  0.5633
 1356SOL    MW4 5499   2.712   0.935   2.147 -0.1693 -0.0127  0.5548
 1357SOL     OW 5500   2.711   1.198   2.278 -0.2718 -0.0658 -0.2149
 1357SOL    HW2 5501   2.704   1.199   2.373 -1.6724 -1.6641 -0.2635
 1357SOL    HW3 5502   2.798   1.232   2.259  0.4012 -0.6829  1.6811
 1357SOL    MW4 5503   2.721   1.203   2.288 -0.3679 -0.3581  0.0286
 1358SOL     OW 5504   2.950   1.284   2.151 -0.5686 -0.5452 -0.0405
 1358SOL    HW2 5505   3.016   1.221   2.181 -0.4804  0.0845  1.1215
 1358SOL    HW3 5506   2.937   1.263   2.059  0.2960 -1.5286  0.0506
 1358SOL    MW4 5507   2.957   1.273   2.143 -0.4430 -0.5918  0.1247
 1359SOL     OW 5508   2.985   1.536   2.232 -0.1492  0.2993  0.2251
 1359SOL    HW2 5509   2.968   1.536   2.326 -0.4896  0.4877  0.1650
 1359SOL    HW3 5510   2.986   1.444   2.208 -1.3639  0.2912  0.1854
 1359SOL    MW4 5511   2.983   1.524   2.241 -0.3545  0.3232  0.2120
 1360SOL     OW 5512   2.754   1.696   2.173  0.1742 -0.1223  0.1798
 1360SOL    HW2 5513   2.832   1.643   2.191  1.5489  1.3853 -1.0846
 1360SOL    HW3 5514   2.734   1.677   2.081 -0.4643  0.1164  0.2729
 1360SOL    MW4 5515   2.762   1.686   2.163  0.2716  0.1080  0.0253
 1361SOL     OW 5516   2.598   1.899   2.277  0.3150 -0.2600 -0.0042
 1361SOL    HW2 5517   2.619   1.890   2.369 -1.5266 -1.5060  0.3444
 1361SOL    HW3 5518   2.646   1.827   2.234  0.2984 -0.3631  0.1499
 1361SOL    MW4 5519   2.607   1.888   2.283  0.0696 -0.4380  0.0622
 1362SOL     OW 5520   2.830   2.033   2.151 -0.0065  0.4469  0.1656
 1362SOL    HW2 5521   2.903   1.988   2.194  0.7799 -0.0710 -1.6726
 1362SOL    HW3 5522   2.752   1.986   2.182  0.8999 -3.6641 -3.2419
 1362SOL    MW4 5523   2.829   2.021   2.161  0.2170 -0.1638 -0.5264
 1363SOL     OW 5524   2.869   2.284   2.267 -0.0405 -0.1598  0.0643
 1363SOL    HW2 5525   2.868   2.281   2.363  0.3613 -0.6062  0.0530
 1363SOL    HW3 5526   2.854   2.194   2.239  1.5949 -0.3485 -0.2779
 1363SOL    MW4 5527   2.867   2.272   2.276  0.2284 -0.2437  0.0176
 1364SOL     OW 5528   2.696   2.465   2.161 -0.2700 -0.3874  0.0255
 1364SOL    HW2 5529   2.766   2.406   2.188 -0.4502 -0.6470 -0.0808
 1364SOL    HW3 5530   2.688   2.452   2.067 -2.1486 -2.1791  0.4059
 1364SOL    MW4 5531   2.704   2.456   2.153 -0.5417 -0.6578  0.0615
 1365SOL     OW 5532   2.640   2.729   2.260 -0.2079 -0.5942  0.2700
 1365SOL    HW2 5533   2.714   2.783   2.234 -1.8614  1.3718 -0.4527
 1365SOL    HW3 5534   2.663   2.641   2.230  0.3021  0.6346 -3.1552
 1365SOL    MW4 5535   2.653   2.724   2.252 -0.3588 -0.1726 -0.2770
 1366SOL     OW 5536   2.892   2.836   2.166 -0.5201  0.2754  0.3624
 1366SOL    HW2 5537   2.911   2.924   2.197  1.2234 -0.5863  1.8883
 1366SOL    HW3 5538   2.903   2.840   2.071 -0.9878  1.8171  0.3695
 1366SOL    MW4 5539   2.896   2.848   2.158 -0.3514  0.3650  0.5646
 1367SOL     OW 5540   2.928   3.088   2.256 -0.0857 -0.5990 -0.3785
 1367SOL    HW2 5541   2.904   3.100   2.348  1.1976 -0.3908 -0.0701
 1367SOL    HW3 5542   2.852   3.120   2.207 -0.0935  0.8899  0.5859
 1367SOL    MW4 5543   2.915   3.094   2.261  0.0825 -0.3753 -0.2108
 1368SOL     OW 5544   2.694   3.189   2.153 -0.4019  0.3634 -0.2738
 1368SOL    HW2 5545   2.688   3.277   2.191 -0.8939  0.8080 -1.3668
 1368SOL    HW3 5546   2.609   3.149   2.173 -0.8618  0.7853 -1.3455
 1368SOL    MW4 5547   2.682   3.195   2.161 -0.5276  0.4778 -0.5596
 1369SOL     OW 5548   2.662   3.439   2.248 -0.0161  0.1393  0.1484
 1369SOL    HW2 5549   2.734   3.502   2.245  0.4722 -0.4722 -1.8228
 1369SOL    HW3 5550   2.590   3.482   2.202  0.1464 -0.5378 -0.7363
 1369SOL    MW4 5551   2.662   3.453   2.242  0.0699 -0.0310 -0.2286
 1370SOL     OW 5552   2.901   3.586   2.173 -0.4596 -0.5946 -0.3582
 1370SOL    HW2 5553   2.979   3.537   2.201  0.3164  0.8464  0.0507
 1370SOL    HW3 5554   2.915   3.675   2.206 -1.0833  0.3194 -2.4669
 1370SOL    MW4 5555   2.913   3.591   2.181 -0.4399 -0.2837 -0.5825
 1371SOL     OW 5556   2.906   3.843   2.238  0.3711 -0.3919  0.3130
 1371SOL    HW2 5557   2.904   3.842   2.334  0.1481  1.7485  0.3588
 1371SOL    HW3 5558   2.827   3.891   2.213  1.4601  0.8220 -0.8615
 1371SOL    MW4 5559   2.896   3.849   2.248  0.4857  0.0508  0.1640
 1372SOL     OW 5560   2.691   3.972   2.144  0.0169  0.0203 -0.2793
 1372SOL    HW2 5561   2.621   3.918   2.181  1.0499 -1.6423 -0.6591
 1372SOL    HW3 5562   2.666   3.982   2.052 -0.6911  1.0498  0.0237
 1372SOL    MW4 5563   2.678   3.966   2.137  0.0598 -0.0634 -0.2894
 1373SOL     OW 5564   2.708   4.234   2.241  0.0746  0.5770  0.0045
 1373SOL    HW2 5565   2.709   4.233   2.337 -0.2770 -1.0779  0.0112
 1373SOL    HW3 5566   2.719   4.142   2.216  1.0522  1.0962 -1.5616
 1373SOL    MW4 5567   2.709   4.222   2.250  0.1571  0.4272 -0.2012
 1374SOL     OW 5568   2.935   4.346   2.152  0.5053 -0.7988 -0.3495
 1374SOL    HW2 5569   3.009   4.329   2.210 -0.3166  0.5628  1.1488
 1374SOL    HW3 5570   2.862   4.301   2.192 -0.5351  1.8720  0.8531
 1374SOL    MW4 5571   2.935   4.338   2.165  0.2596 -0.2666  0.0069
 1375SOL     OW 5572   3.361   4.634   2.256 -0.1547  0.4442 -0.3501
 1375SOL    HW2 5573   3.375   4.617   2.349 -0.1499 -0.0141 -0.4342
 1375SOL    HW3 5574   3.439   4.682   2.228  0.5076 -0.6745 -0.4449
 1375SOL    MW4 5575   3.373   4.638   2.265 -0.0668  0.2360 -0.3738
 1376SOL     OW 5576   3.100   0.082   2.170 -0.2736  0.1748 -0.3641
 1376SOL    HW2 5577   3.112   0.170   2.205  1.2992  1.1295 -3.1947
 1376SOL    HW3 5578   3.180   0.035   2.195 -1.0087 -0.4325  0.9386
 1376SOL    MW4 5579   3.112   0.087   2.178 -0.1631  0.2207 -0.5658
 1377SOL     OW 5580   3.130   0.327   2.255 -0.1871  0.6406 -0.1088
 1377SOL    HW2 5581   3.206   0.384   2.244 -0.0350  0.9443  2.2111
 1377SOL    HW3 5582   3.058   0.375   2.215  0.7320  0.5684 -1.8898
 1377SOL    MW4 5583   3.131   0.341   2.248 -0.0458  0.6711 -0.0379
 1378SOL     OW 5584   3.369   0.479   2.160  0.3310  0.1773  0.3841
 1378SOL    HW2 5585   3.443   0.427   2.191 -1.2717 -0.1167  3.9985
 1378SOL    HW3 5586   3.375   0.475   2.065  3.8401 -1.4012  0.5994
 1378SOL    MW4 5587   3.379   0.471   2.152  0.5827 -0.0698  0.8893
 1379SOL     OW 5588   3.389   0.751   2.258 -0.0095  0.2934 -0.1068
 1379SOL    HW2 5589   3.462   0.801   2.223  0.7617 -0.7399 -0.0085
 1379SOL    HW3 5590   3.394   0.666   2.213 -1.3827  0.3424 -0.3879
 1379SOL    MW4 5591   3.399   0.746   2.248 -0.0889  0.1635 -0.1307
 1380SOL     OW 5592   3.145   0.889   2.134 -0.3010  0.1906 -0.0855
 1380SOL    HW2 5593   3.226   0.863   2.178 -0.4401  1.3193  0.8624
 1380SOL    HW3 5594   3.076   0.843   2.182 -0.3611  0.5469  0.1676
 1380SOL    MW4 5595   3.147   0.879   2.146 -0.3273  0.3865  0.0732
 1381SOL     OW 5596   3.157   1.136   2.268 -0.0206  0.0478  0.1026
 1381SOL    HW2 5597   3.218   1.180   2.209 -0.0043  0.8402  0.7050
 1381SOL    HW3 5598   3.159   1.045   2.240  1.6571  0.0042  0.2873
 1381SOL    MW4 5599   3.165   1.130   2.256  0.2029  0.1465  0.2065
 1382SOL     OW 5600   3.353   1.304   2.146  0.3225  0.2836  0.1410
 1382SOL    HW2 5601   3.416   1.255   2.199  0.6371  0.3772 -0.1379
 1382SOL    HW3 5602   3.368   1.396   2.170 -0.1421  0.2579  0.5332
 1382SOL    MW4 5603   3.364   1.310   2.156  0.3026  0.2925  0.1559
 1383SOL     OW 5604   3.384   1.567   2.189  0.3688 -0.4574  0.0363
 1383SOL    HW2 5605   3.384   1.559   2.284  0.0076 -1.8388 -0.0733
 1383SOL    HW3 5606   3.312   1.627   2.169 -1.3446 -2.3469  0.4637
 1383SOL    MW4 5607   3.375   1.574   2.199  0.0951 -0.8889  0.0782
 1384SOL     OW 5608   3.161   1.732   2.125 -0.2007  0.1072 -0.5096
 1384SOL    HW2 5609   3.144   1.809   2.178 -0.6086 -0.1246 -0.2936
 1384SOL    HW3 5610   3.107   1.663   2.165 -0.4689 -0.0849 -1.1870
 1384SOL    MW4 5611   3.152   1.733   2.137 -0.2897  0.0513 -0.5703
 1385SOL     OW 5612   3.078   1.972   2.269  0.1047  0.2237 -0.3193
 1385SOL    HW2 5613   3.086   1.939   2.358  0.5110  1.7282  0.2104
 1385SOL    HW3 5614   3.166   2.000   2.245  0.1371 -0.7764 -1.4517
 1385SOL    MW4 5615   3.091   1.971   2.277  0.1621  0.2902 -0.3986
 1386SOL     OW 5616   3.337   2.014   2.188 -0.5179  0.0529 -0.5957
 1386SOL    HW2 5617   3.409   1.955   2.205 -0.9845 -0.1577  0.6864
 1386SOL    HW3 5618   3.331   2.018   2.092  0.0845 -1.2480 -0.6882
 1386SOL    MW4 5619   3.346   2.007   2.177 -0.5002 -0.1466 -0.4387
 1387SOL     OW 5620   3.367   2.297   2.270 -0.1409  0.2339 -0.2519
 1387SOL    HW2 5621   3.287   2.344   2.251 -0.7769 -0.8701 -0.3782
 1387SOL    HW3 5622   3.352   2.209   2.235  1.3485  0.1773 -0.8140
 1387SOL    MW4 5623   3.355   2.291   2.263 -0.0286  0.0808 -0.3428
 1388SOL     OW 5624   3.112   2.403   2.160 -0.1225  0.6882 -0.2251
 1388SOL    HW2 5625   3.119   2.489   2.202 -1.6023  0.5515  0.3182
 1388SOL    HW3 5626   3.039   2.360   2.204  1.1432 -1.1914  0.0851
 1388SOL    MW4 5627   3.103   2.409   2.171 -0.1507  0.4225 -0.1125
 1389SOL     OW 5628   3.105   2.686   2.259 -0.4812  0.3466  0.0968
 1389SOL    HW2 5629   3.105   2.700   2.353 -0.1292  0.2012  0.1214
 1389SOL    HW3 5630   3.028   2.732   2.227  0.0739  1.4426  0.3087
 1389SOL    MW4 5631   3.095   2.694   2.267 -0.3614  0.4723  0.1276
 1390SOL     OW 5632   3.327   2.796   2.149 -0.4155  0.6031  0.4187
 1390SOL    HW2 5633   3.322   2.889   2.171 -1.8786  0.5945  0.1725
 1390SOL    HW3 5634   3.246   2.759   2.183  0.2870 -0.6533  0.7784
 1390SOL    MW4 5635   3.316   2.803   2.157 -0.5159  0.4363  0.4334
 1391SOL     OW 5636   3.334   3.071   2.207 -0.1116 -0.1533 -0.2747
 1391SOL    HW2 5637   3.411   3.117   2.175  0.1556  0.5561  1.3587
 1391SOL    HW3 5638   3.260   3.122   2.175  0.0852 -0.7521 -1.7183
 1391SOL    MW4 5639   3.335   3.084   2.199 -0.0505 -0.1388 -0.2496
 1392SOL     OW 5640   3.115   3.246   2.126  0.1301  0.5884  0.1825
 1392SOL    HW2 5641   3.123   3.322   2.183  0.7219  0.4233  0.3277
 1392SOL    HW3 5642   3.061   3.184   2.175  0.6187  0.4576  0.5584
 1392SOL    MW4 5643   3.109   3.248   2.140  0.2728  0.5493  0.2513
 1393SOL     OW 5644   3.127   3.486   2.285  0.3751  0.1022  0.1801
 1393SOL    HW2 5645   3.119   3.513   2.377  1.3918 -1.3225  0.7097
 1393SOL    HW3 5646   3.202   3.535   2.252  0.0158  0.6074  0.1032
 1393SOL    MW4 5647   3.136   3.496   2.293  0.4618 -0.0191  0.2398
 1394SOL     OW 5648   3.334   3.606   2.157  0.1123 -0.0343 -0.4037
 1394SOL    HW2 5649   3.407   3.553   2.188  1.0573  1.2626 -0.4042
 1394SOL    HW3 5650   3.338   3.600   2.062 -0.4671 -0.8637 -0.3869
 1394SOL    MW4 5651   3.344   3.598   2.149  0.1609  0.0274 -0.4017
 1395SOL     OW 5652   3.374   3.870   2.281  0.3344 -0.2247  0.0738
 1395SOL    HW2 5653   3.444   3.910   2.229  2.3971 -0.7250  2.3680
 1395SOL    HW3 5654   3.366   3.781   2.245  0.3957  0.0567 -0.6412
 1395SOL    MW4 5655   3.382   3.863   2.269  0.6144 -0.2534  0.2820
 1396SOL     OW 5656   3.134   4.007   2.190  0.5967 -0.0890  0.4091
 1396SOL    HW2 5657   3.208   3.964   2.233 -0.0096 -0.2357  1.3281
 1396SOL    HW3 5658   3.057   3.962   2.225  0.0462  0.4799 -0.0660
 1396SOL    MW4 5659   3.133   3.995   2.200  0.4442 -0.0339  0.4678
 1397SOL     OW 5660   3.138   4.257   2.308 -0.3326 -0.0881  0.3213
 1397SOL    HW2 5661   3.196   4.311   2.253  1.5240 -1.7939  0.5482
 1397SOL    HW3 5662   3.118   4.181   2.253 -1.4906 -0.0393  0.6655
 1397SOL    MW4 5663   3.143   4.254   2.293 -0.2403 -0.3066  0.3965
 1398SOL     OW 5664   3.318   4.371   2.148 -0.0613  0.5334  0.0497
 1398SOL    HW2 5665   3.336   4.464   2.165 -1.4441  0.9053 -0.4417
 1398SOL    HW3 5666   3.319   4.363   2.053  0.8872 -0.1359  0.1116
 1398SOL    MW4 5667   3.320   4.382   2.138 -0.1187  0.4940 -0.0072
 1399SOL     OW 5668   3.788   4.617   2.258 -0.0166  0.2104 -0.0927
 1399SOL    HW2 5669   3.805   4.625   2.352  0.9403 -0.9961 -0.1513
 1399SOL    HW3 5670   3.839   4.688   2.219  0.4193  0.0812  0.2253
 1399SOL    MW4 5671   3.797   4.628   2.265  0.1671  0.0343 -0.0584
 1400SOL     OW 5672   3.579   0.066   2.130  0.3529 -0.3168  0.2788
 1400SOL    HW2 5673   3.573   0.158   2.154 -0.0066 -0.3164  0.1884
 1400SOL    HW3 5674   3.633   0.026   2.199  1.1523  0.1078 -0.0927
 1400SOL    MW4 5675   3.585   0.073   2.142  0.4110 -0.2607  0.2177
 1401SOL     OW 5676   3.591   0.305   2.280 -0.0012  0.1514  0.7736
 1401SOL    HW2 5677   3.568   0.306   2.373 -0.3048  1.8062  0.6868
 1401SOL    HW3 5678   3.661   0.370   2.272 -1.1146  1.2043 -0.4459
 1401SOL    MW4 5679   3.598   0.314   2.291 -0.1884  0.5086  0.6013
 1402SOL     OW 5680   3.794   0.480   2.212  0.0155  0.0451 -0.0526
 1402SOL    HW2 5681   3.783   0.572   2.235  0.7552  0.1436 -0.0572
 1402SOL    HW3 5682   3.795   0.479   2.116  0.6133  0.1171 -0.0514
 1402SOL    MW4 5683   3.793   0.492   2.202  0.1919  0.0676 -0.0527
 1403SOL     OW 5684   3.795   0.758   2.257 -0.2343  0.3192 -0.2836
 1403SOL    HW2 5685   3.810   0.731   2.347  0.9221 -2.1953 -1.1694
 1403SOL    HW3 5686   3.877   0.800   2.230  0.0509 -0.4528 -0.6541
 1403SOL    MW4 5687   3.808   0.760   2.265 -0.0441 -0.1144 -0.4494
 1404SOL     OW 5688   3.582   0.911   2.161 -0.2171 -0.4680  0.4321
 1404SOL    HW2 5689   3.661   0.868   2.191  0.2057 -0.2533 -0.3486
 1404SOL    HW3 5690   3.580   0.893   2.067 -0.8219 -0.0405  0.3605
 1404SOL    MW4 5691   3.592   0.903   2.152 -0.2413 -0.3833  0.3197
 1405SOL     OW 5692   3.528   1.154   2.273 -0.5776  0.3995  0.1295
 1405SOL    HW2 5693   3.553   1.138   2.364  0.6427  1.0929 -0.0782
 1405SOL    HW3 5694   3.545   1.070   2.229  2.5066  1.1600 -0.2378
 1405SOL    MW4 5695   3.534   1.141   2.279 -0.0098  0.5913  0.0536
 1406SOL     OW 5696   3.777   1.231   2.161  0.3506 -0.1454 -0.0817
 1406SOL    HW2 5697   3.783   1.321   2.192 -0.0098  0.0028 -0.4383
 1406SOL    HW3 5698   3.693   1.199   2.195  1.0369 -0.7484  1.0818
 1406SOL    MW4 5699   3.767   1.239   2.170  0.3936 -0.2054  0.0246
 1407SOL     OW 5700   3.834   1.484   2.253  0.1416 -0.0287  0.8581
 1407SOL    HW2 5701   3.820   1.493   2.347 -4.1277 -1.3348  0.4346
 1407SOL    HW3 5702   3.776   1.550   2.214  1.5217  0.1858 -0.9035
 1407SOL    MW4 5703   3.825   1.494   2.260 -0.2396 -0.1727  0.5698
 1408SOL     OW 5704   3.651   1.653   2.140  0.7238  0.3397  0.3906
 1408SOL    HW2 5705   3.570   1.608   2.162  0.9681 -0.6423 -0.6877
 1408SOL    HW3 5706   3.645   1.668   2.045  1.2822  1.3025  0.4970
 1408SOL    MW4 5707   3.639   1.649   2.130  0.8295  0.3371  0.2625
 1409SOL     OW 5708   3.584   1.896   2.254 -0.5443 -0.0706 -0.1436
 1409SOL    HW2 5709   3.650   1.962   2.234 -0.1692 -0.5527 -0.5149
 1409SOL    HW3 5710   3.615   1.817   2.210 -0.8364 -0.5716  0.5455
 1409SOL    MW4 5711   3.597   1.894   2.245 -0.5333 -0.2004 -0.1020
 1410SOL     OW 5712   3.791   2.087   2.146  0.4613  0.2030 -0.0149
 1410SOL    HW2 5713   3.873   2.043   2.169  1.9397  1.6199 -2.3862
 1410SOL    HW3 5714   3.788   2.082   2.051 -1.0834  2.2073 -0.0819
 1410SOL    MW4 5715   3.801   2.080   2.137  0.4525  0.6542 -0.3364
 1411SOL     OW 5716   3.805   2.349   2.262  0.6341  0.3067 -0.2398
 1411SOL    HW2 5717   3.735   2.404   2.228  1.3084 -0.1056 -2.3576
 1411SOL    HW3 5718   3.794   2.265   2.217  1.9915 -0.0211  0.0064
 1411SOL    MW4 5719   3.795   2.345   2.251  0.9019  0.2089 -0.4869
 1412SOL     OW 5720   3.575   2.449   2.160  0.3139  0.5133  0.0142
 1412SOL    HW2 5721   3.520   2.380   2.195  0.0761  0.9617  0.5408
 1412SOL    HW3 5722   3.578   2.433   2.066 -0.3587  0.2356  0.0394
 1412SOL    MW4 5723   3.568   2.438   2.152  0.1936  0.5357  0.0870
 1413SOL     OW 5724   3.572   2.711   2.261 -0.4831  0.3816 -0.0380
 1413SOL    HW2 5725   3.581   2.620   2.230 -0.4441 -0.5635  2.6617
 1413SOL    HW3 5726   3.483   2.736   2.237 -0.0299  0.1497 -2.0686
 1413SOL    MW4 5727   3.561   2.702   2.254 -0.4182  0.2263  0.0505
 1414SOL     OW 5728   3.789   2.832   2.130 -0.0835 -0.1985 -0.3209
 1414SOL    HW2 5729   3.793   2.925   2.153 -0.0846 -0.1204 -0.6285
 1414SOL    HW3 5730   3.715   2.797   2.180 -0.1644 -0.0061 -0.3073
 1414SOL    MW4 5731   3.780   2.839   2.140 -0.0939 -0.1628 -0.3595
 1415SOL     OW 5732   3.775   3.094   2.223 -0.4246  0.4558 -0.2943
 1415SOL    HW2 5733   3.777   3.116   2.316 -1.4955  0.7382 -0.3301
 1415SOL    HW3 5734   3.855   3.133   2.188  0.7943 -1.0105  0.7930
 1415SOL    MW4 5735   3.786   3.102   2.231 -0.4048  0.2995 -0.1557
 1416SOL     OW 5736   3.554   3.220   2.106 -0.1841 -0.1226 -0.2517
 1416SOL    HW2 5737   3.573   3.308   2.140 -0.9563  0.4313 -1.2337
 1416SOL    HW3 5738   3.625   3.166   2.140 -0.5635  0.5412  1.6855
 1416SOL    MW4 5739   3.566   3.225   2.115 -0.3359  0.0379 -0.1256
 1417SOL     OW 5740   3.577   3.479   2.237  0.7491  0.0596  0.7990
 1417SOL    HW2 5741   3.583   3.497   2.331  3.0262  0.4771  0.6026
 1417SOL    HW3 5742   3.655   3.519   2.200  0.5027 -1.1759 -1.1224
 1417SOL    MW4 5743   3.588   3.487   2.244  1.0169 -0.0482  0.5195
 1418SOL     OW 5744   3.770   3.628   2.099 -0.7148  0.0981 -0.0463
 1418SOL    HW2 5745   3.773   3.714   2.140 -0.6678 -0.6149  1.5049
 1418SOL    HW3 5746   3.748   3.645   2.007 -0.7727  1.7441  0.2646
 1418SOL    MW4 5747   3.767   3.641   2.092 -0.7162  0.2213  0.1996
 1419SOL     OW 5748   3.826   3.877   2.217  0.4228 -0.2937  0.0303
 1419SOL    HW2 5749   3.826   3.866   2.312  0.0173  2.9754  0.4553
 1419SOL    HW3 5750   3.914   3.908   2.196  0.2916 -0.3311 -0.5857
 1419SOL    MW4 5751   3.837   3.879   2.227  0.3524  0.1326  0.0052
 1420SOL     OW 5752   3.593   3.992   2.159  0.1565 -0.1554 -0.0047
 1420SOL    HW2 5753   3.594   4.081   2.195  0.0503 -0.6703  1.3051
 1420SOL    HW3 5754   3.669   3.949   2.198 -0.1983 -0.8561 -0.0797
 1420SOL    MW4 5755   3.603   3.998   2.169  0.0961 -0.3157  0.1578
 1421SOL     OW 5756   3.582   4.254   2.261  0.0779 -0.1405  0.0492
 1421SOL    HW2 5757   3.651   4.304   2.219 -0.0998 -1.3207 -1.7385
 1421SOL    HW3 5758   3.501   4.285   2.219 -0.2498 -0.3819  0.4924
 1421SOL    MW4 5759   3.580   4.265   2.250  0.0112 -0.3285 -0.1283
 1422SOL     OW 5760   3.813   4.360   2.139  0.1399 -0.2000 -0.2449
 1422SOL    HW2 5761   3.881   4.319   2.192  1.2495  1.3875 -0.3804
 1422SOL    HW3 5762   3.801   4.447   2.179 -2.0947 -0.6009  0.0162
 1422SOL    MW4 5763   3.820   4.366   2.152 -0.0086 -0.0439 -0.2284
 1423SOL     OW 5764   4.225   4.655   2.257 -0.3139 -0.4108 -0.1565
 1423SOL    HW2 5765   4.253   4.634   2.346 -0.3620 -0.2562 -0.1049
 1423SOL    HW3 5766   4.293   4.712   2.223 -1.4876  1.5187  0.6327
 1423SOL    MW4 5767   4.237   4.660   2.265 -0.4749 -0.1359 -0.0455
 1424SOL     OW 5768   3.980   0.118   2.149 -0.0339 -0.3607 -0.1486
 1424SOL    HW2 5769   3.983   0.204   2.190  0.2721  0.3633 -1.6371
 1424SOL    HW3 5770   4.055   0.071   2.186  0.5027  0.4330 -0.2192
 1424SOL    MW4 5771   3.990   0.123   2.159  0.0772 -0.1605 -0.3543
 1425SOL     OW 5772   4.037   0.371   2.279  0.0854  0.0604 -0.0637
 1425SOL    HW2 5773   4.112   0.407   2.232  0.4415 -0.4014  0.1474
 1425SOL    HW3 5774   3.962   0.421   2.247  0.5223  0.7183 -0.0596
 1425SOL    MW4 5775   4.037   0.383   2.269  0.1903  0.0863 -0.0355
 1426SOL     OW 5776   4.260   0.472   2.128 -0.1397  0.0552  0.2594
 1426SOL    HW2 5777   4.261   0.562   2.162 -1.8950  1.1298 -2.3864
 1426SOL    HW3 5778   4.348   0.439   2.147  0.0355  1.7345  2.7260
 1426SOL    MW4 5779   4.272   0.480   2.135 -0.3471  0.4185  0.2358
 1427SOL     OW 5780   4.229   0.725   2.233  0.1107  0.4788  0.0857
 1427SOL    HW2 5781   4.158   0.760   2.180  0.2714  0.8741  0.1263
 1427SOL    HW3 5782   4.307   0.772   2.203  1.0029 -2.5310 -2.4728
 1427SOL    MW4 5783   4.230   0.736   2.222  0.2494  0.1338 -0.2465
 1428SOL     OW 5784   4.002   0.892   2.127  0.1748 -0.0592  0.0318
 1428SOL    HW2 5785   4.019   0.982   2.157  2.1534 -0.5942  0.6164
 1428SOL    HW3 5786   4.018   0.895   2.033  0.9273  0.0575  0.1590
 1428SOL    MW4 5787   4.007   0.904   2.119  0.5350 -0.1144  0.1259
 1429SOL     OW 5788   4.036   1.145   2.239 -0.6300  0.2533  0.2308
 1429SOL    HW2 5789   4.027   1.129   2.333  0.8268  0.2136  0.3788
 1429SOL    HW3 5790   3.949   1.175   2.211 -1.0253  0.4427  1.6230
 1429SOL    MW4 5791   4.023   1.147   2.247 -0.4902  0.2730  0.4342
 1430SOL     OW 5792   4.242   1.309   2.158  0.4129 -0.4031  0.2031
 1430SOL    HW2 5793   4.165   1.259   2.184 -0.2799  1.2884  1.4934
 1430SOL    HW3 5794   4.315   1.262   2.197 -0.3232  0.1218  2.2944
 1430SOL    MW4 5795   4.242   1.297   2.166  0.2246 -0.1106  0.6495
 1431SOL     OW 5796   4.283   1.527   2.302 -0.5636 -0.0224  0.0887
 1431SOL    HW2 5797   4.263   1.453   2.244 -0.3250  0.2162 -0.3062
 1431SOL    HW3 5798   4.355   1.572   2.258 -0.1793 -0.0083  0.7270
 1431SOL    MW4 5799   4.290   1.523   2.288 -0.4811  0.0110  0.1209
 1432SOL     OW 5800   4.045   1.657   2.181  0.3074  0.0666  0.2736
 1432SOL    HW2 5801   4.124   1.629   2.229  0.4663  0.9121  0.5281
 1432SOL    HW3 5802   3.975   1.604   2.218  0.6356 -0.1638  0.5760
 1432SOL    MW4 5803   4.046   1.646   2.193  0.3719  0.1477  0.3471
 1433SOL     OW 5804   3.983   1.916   2.257  0.1476 -0.2780 -0.3719
 1433SOL    HW2 5805   3.999   1.917   2.352  0.3876 -0.5958 -0.4062
 1433SOL    HW3 5806   3.985   1.824   2.234  0.5336 -0.1767 -0.7578
 1433SOL    MW4 5807   3.986   1.904   2.266  0.2303 -0.3066 -0.4272
 1434SOL     OW 5808   4.235   2.025   2.189 -0.4995  0.0088  0.4157
 1434SOL    HW2 5809   4.221   2.118   2.207 -0.2734  0.3992 -1.3515
 1434SOL    HW3 5810   4.153   1.983   2.214 -0.5058  0.6496  1.4791
 1434SOL    MW4 5811   4.223   2.031   2.195 -0.4702  0.1450  0.3228
 1435SOL     OW 5812   4.252   2.295   2.226  0.0100  0.4906  0.0615
 1435SOL    HW2 5813   4.188   2.360   2.200  0.1782 -0.2015 -2.1573
 1435SOL    HW3 5814   4.336   2.329   2.196  0.4692  0.5682  1.3940
 1435SOL    MW4 5815   4.255   2.308   2.219  0.0925  0.4096 -0.0551
 1436SOL     OW 5816   4.044   2.440   2.153 -0.0377  0.0942  0.1079
 1436SOL    HW2 5817   4.044   2.533   2.178  1.3945 -0.4224  2.2293
 1436SOL    HW3 5818   3.968   2.403   2.198 -0.4948  0.1850 -0.5794
 1436SOL    MW4 5819   4.034   2.448   2.162  0.0911  0.0381  0.2973
 1437SOL     OW 5820   4.019   2.709   2.245  0.0961 -0.5072 -0.0323
 1437SOL    HW2 5821   4.007   2.693   2.339  1.0038 -0.2078  0.1325
 1437SOL    HW3 5822   3.935   2.745   2.217  0.0744  0.1298  0.8257
 1437SOL    MW4 5823   4.006   2.711   2.254  0.2127 -0.3839  0.1025
 1438SOL     OW 5824   4.245   2.849   2.137  0.0692  0.1685 -0.5778
 1438SOL    HW2 5825   4.163   2.815   2.174 -0.4205 -0.4651 -2.2167
 1438SOL    HW3 5826   4.309   2.779   2.152 -0.0791  0.0011 -0.7183
 1438SOL    MW4 5827   4.243   2.835   2.144 -0.0148  0.0629 -0.8123
 1439SOL     OW 5828   4.202   3.114   2.244 -0.3034 -0.1996  0.4467
 1439SOL    HW2 5829   4.205   3.026   2.208  1.7778  0.3619 -0.8174
 1439SOL    HW3 5830   4.279   3.158   2.207 -1.3322  2.1499  1.0125
 1439SOL    MW4 5831   4.212   3.108   2.234 -0.1645  0.1843  0.3550
 1440SOL     OW 5832   4.002   3.250   2.123 -0.0544  0.0459  0.3101
 1440SOL    HW2 5833   4.001   3.338   2.160 -0.5022  0.9411 -1.7639
 1440SOL    HW3 5834   4.069   3.204   2.174 -1.4792  0.8500  2.9982
 1440SOL    MW4 5835   4.011   3.256   2.135 -0.3014  0.2701  0.3908
 1441SOL     OW 5836   3.993   3.512   2.225  0.0015  0.3189 -0.4624
 1441SOL    HW2 5837   4.072   3.564   2.210 -0.2138  0.3826 -1.4396
 1441SOL    HW3 5838   3.930   3.545   2.161 -0.0794 -1.2418 -1.2054
 1441SOL    MW4 5839   3.996   3.523   2.214 -0.0374  0.1214 -0.6895
 1442SOL     OW 5840   4.241   3.599   2.156  0.2955  0.4358  0.5187
 1442SOL    HW2 5841   4.247   3.689   2.189 -0.5687  0.4469  0.6642
 1442SOL    HW3 5842   4.260   3.606   2.063 -0.3582  0.8595  0.4152
 1442SOL    MW4 5843   4.244   3.612   2.148  0.0949  0.4933  0.5240
 1443SOL     OW 5844   4.257   3.858   2.245 -0.1600 -0.5946 -0.1016
 1443SOL    HW2 5845   4.247   3.874   2.338  0.4611 -1.0297  0.0440
 1443SOL    HW3 5846   4.341   3.898   2.222 -0.9973  0.8092 -0.7778
 1443SOL    MW4 5847   4.267   3.865   2.254 -0.1884 -0.4666 -0.1714
 1444SOL     OW 5848   4.056   4.006   2.126 -0.0777 -0.4733 -0.3238
 1444SOL    HW2 5849   4.129   3.956   2.163  0.4812  0.7759  0.2733
 1444SOL    HW3 5850   4.045   4.080   2.185 -2.3349 -1.0382  0.0416
 1444SOL    MW4 5851   4.064   4.009   2.139 -0.3014 -0.3829 -0.1969
 1445SOL     OW 5852   4.041   4.259   2.268  0.3126 -0.2702  0.1697
 1445SOL    HW2 5853   4.121   4.304   2.242  1.4790 -0.6360  2.8794
 1445SOL    HW3 5854   4.046   4.256   2.364 -2.6399 -0.8788  0.3450
 1445SOL    MW4 5855   4.052   4.264   2.277  0.0768 -0.3991  0.5503
 1446SOL     OW 5856   4.233   4.395   2.142 -0.4740 -0.1805 -0.5769
 1446SOL    HW2 5857   4.230   4.485   2.175 -0.7217 -0.8447  1.2477
 1446SOL    HW3 5858   4.314   4.359   2.179 -0.1436 -0.5826 -1.6628
 1446SOL    MW4 5859   4.244   4.402   2.151 -0.4630 -0.3214 -0.4795
 1447SOL     OW 5860   0.209   4.649   2.529 -0.2255  0.5252 -0.2798
 1447SOL    HW2 5861   0.198   4.562   2.567  1.6117  0.8884  1.1407
 1447SOL    HW3 5862   0.128   4.695   2.551  0.3735  0.3783  2.3027
 1447SOL    MW4 5863   0.196   4.644   2.537  0.0959  0.5531  0.2482
 1448SOL     OW 5864   4.486   0.121   2.594 -0.1505 -0.2420  0.0444
 1448SOL    HW2 5865   4.483   0.128   2.689 -1.2595  0.7819 -0.0505
 1448SOL    HW3 5866   4.467   0.210   2.563  0.5298 -0.4992 -1.1276
 1448SOL    MW4 5867   4.483   0.134   2.602 -0.2069 -0.1408 -0.1225
 1449SOL     OW 5868   4.464   0.398   2.518 -0.1460 -0.0455 -0.1379
 1449SOL    HW2 5869   4.548   0.428   2.551  0.0741 -1.3432  0.5064
 1449SOL    HW3 5870   4.475   0.396   2.423  0.6084 -0.3614 -0.0480
 1449SOL    MW4 5871   4.476   0.402   2.510 -0.0172 -0.2583 -0.0408
 1450SOL     OW 5872   0.220   0.473   2.596  0.0882  0.1189 -0.0800
 1450SOL    HW2 5873   0.230   0.493   2.689 -1.4679 -1.7091  0.5109
 1450SOL    HW3 5874   0.306   0.444   2.568  0.3447 -0.2036  1.0221
 1450SOL    MW4 5875   0.232   0.472   2.605 -0.0833 -0.1648  0.1433
 1451SOL     OW 5876   0.166   0.747   2.566  0.5565  0.4844  0.1817
 1451SOL    HW2 5877   0.254   0.784   2.567  1.0399 -0.5311 -1.3119
 1451SOL    HW3 5878   0.180   0.652   2.574 -0.3214  0.2407 -1.0291
 1451SOL    MW4 5879   0.179   0.739   2.567  0.5044  0.3183 -0.1752
 1452SOL     OW 5880   4.458   0.899   2.655 -0.1767 -0.0858 -0.5899
 1452SOL    HW2 5881   4.387   0.862   2.603 -0.4063 -0.9281  0.3232
 1452SOL    HW3 5882   4.530   0.836   2.647 -0.5277 -0.6784  0.8718
 1452SOL    MW4 5883   4.458   0.886   2.647 -0.2527 -0.2751 -0.2768
 1453SOL     OW 5884   4.466   1.155   2.557 -0.3808 -0.1829 -0.5642
 1453SOL    HW2 5885   4.536   1.206   2.599 -0.8227  0.7721 -0.9731
 1453SOL    HW3 5886   4.471   1.069   2.599 -0.0027  0.3738  0.5689
 1453SOL    MW4 5887   4.476   1.150   2.568 -0.3896  0.0166 -0.4685
 1454SOL     OW 5888   0.199   1.258   2.706  0.4207 -0.1808 -0.3010
 1454SOL    HW2 5889   0.267   1.203   2.667 -0.3664  0.0967 -2.0809
 1454SOL    HW3 5890   0.210   1.343   2.665  0.4229  0.5042  1.0674
 1454SOL    MW4 5891   0.209   1.262   2.696  0.3172 -0.0538 -0.3552
 1455SOL     OW 5892   0.232   1.486   2.558 -0.0224  0.0979 -0.1421
 1455SOL    HW2 5893   0.313   1.535   2.575 -0.2686  0.0725  1.1590
 1455SOL    HW3 5894   0.162   1.543   2.589 -0.5915  0.5277 -2.1505
 1455SOL    MW4 5895   0.234   1.500   2.564 -0.1299  0.1513 -0.2353
 1456SOL     OW 5896   0.013   1.650   2.663  0.1083 -0.3057 -0.0250
 1456SOL    HW2 5897  -0.015   1.634   2.753 -0.0322 -1.3792 -0.2526
 1456SOL    HW3 5898   0.009   1.745   2.653  0.5790 -0.1437  1.2483
 1456SOL    MW4 5899   0.009   1.660   2.674  0.1519 -0.4259  0.1130
 1457SOL     OW 5900   4.483   1.925   2.569  0.1379 -0.5611  0.5482
 1457SOL    HW2 5901   4.557   1.974   2.605  0.5316 -1.0938  0.4834
 1457SOL    HW3 5902   4.497   1.928   2.474 -0.9757  0.9651  0.4102
 1457SOL    MW4 5903   4.495   1.932   2.561  0.0429 -0.4300  0.5212
 1458SOL     OW 5904   0.216   2.042   2.678 -0.0408 -0.1245 -0.2424
 1458SOL    HW2 5905   0.295   1.996   2.650 -0.0819 -1.0269  1.1086
 1458SOL    HW3 5906   0.230   2.132   2.648  1.2183 -0.4156 -0.5805
 1458SOL    MW4 5907   0.229   2.048   2.670  0.1199 -0.2820 -0.1090
 1459SOL     OW 5908   0.204   2.281   2.553  0.1998  0.5437 -0.2136
 1459SOL    HW2 5909   0.278   2.333   2.583  0.5348 -0.6171  1.0017
 1459SOL    HW3 5910   0.127   2.335   2.572  0.6562  1.3578 -0.6426
 1459SOL    MW4 5911   0.204   2.295   2.559  0.3042  0.4978 -0.1101
 1460SOL     OW 5912   4.481   2.453   2.603 -0.0810  0.2093 -0.4143
 1460SOL    HW2 5913   4.486   2.455   2.698  1.1684 -2.0441 -0.3852
 1460SOL    HW3 5914   4.401   2.404   2.584  0.5199 -0.7705 -0.4809
 1460SOL    MW4 5915   4.471   2.447   2.613  0.1636 -0.2174 -0.4194
 1461SOL     OW 5916   4.458   2.706   2.496 -0.1421 -0.2496 -0.6986
 1461SOL    HW2 5917   4.379   2.749   2.530 -0.1092 -0.6864 -0.0576
 1461SOL    HW3 5918   4.457   2.619   2.536  0.4060 -0.4306 -1.0761
 1461SOL    MW4 5919   4.447   2.700   2.506 -0.0653 -0.3312 -0.6638
 1462SOL     OW 5920   0.215   2.816   2.620 -0.0619 -0.1718  0.5943
 1462SOL    HW2 5921   0.213   2.911   2.606 -0.1641 -0.4650 -1.5702
 1462SOL    HW3 5922   0.128   2.786   2.595  0.4069 -0.9941 -0.0798
 1462SOL    MW4 5923   0.204   2.825   2.615 -0.0136 -0.3190  0.2201
 1463SOL     OW 5924   0.214   3.097   2.525  0.5421 -0.5968 -0.0896
 1463SOL    HW2 5925   0.289   3.141   2.564  1.6041 -2.9114  0.5903
 1463SOL    HW3 5926   0.138   3.145   2.558  1.6587  0.7999  0.4921
 1463SOL    MW4 5927   0.214   3.109   2.535  0.8296 -0.7179  0.0768
 1464SOL     OW 5928   4.484   3.230   2.601  0.7109 -0.1118 -0.1104
 1464SOL    HW2 5929   4.403   3.180   2.591  1.0067 -0.5374 -0.4288
 1464SOL    HW3 5930   4.485   3.256   2.693  0.5848 -0.7543  0.0777
 1464SOL    MW4 5931   4.474   3.227   2.612  0.7334 -0.2530 -0.1278
 1465SOL     OW 5932   4.478   3.501   2.552  0.2393  0.2427 -0.1308
 1465SOL    HW2 5933   4.546   3.545   2.603  0.1354  0.3408 -0.0741
 1465SOL    HW3 5934   4.492   3.408   2.567  0.3488  0.2637 -0.1032
 1465SOL    MW4 5935   4.488   3.495   2.561  0.2398  0.2587 -0.1194
 1466SOL     OW 5936   0.210   3.641   2.642 -0.5891 -0.0538 -0.2176
 1466SOL    HW2 5937   0.218   3.626   2.736 -0.9438  0.3074 -0.1253
 1466SOL    HW3 5938   0.293   3.612   2.605 -0.4402 -0.1709  0.2109
 1466SOL    MW4 5939   0.222   3.635   2.650 -0.6163 -0.0215 -0.1488
 1467SOL     OW 5940   0.171   3.883   2.518 -0.2963 -0.3071  0.0302
 1467SOL    HW2 5941   0.192   3.799   2.559  1.8129  0.5721  0.8660
 1467SOL    HW3 5942   0.181   3.867   2.424  2.1926 -0.5069  0.2874
 1467SOL    MW4 5943   0.175   3.870   2.511  0.3103 -0.2172  0.1748
 1468SOL     OW 5944   4.451   4.022   2.662 -0.1289  0.6392 -0.1743
 1468SOL    HW2 5945   4.460   4.106   2.617  0.6323  0.9913  0.6176
 1468SOL    HW3 5946   4.521   3.968   2.626  0.3787  0.8679  0.4788
 1468SOL    MW4 5947   4.461   4.026   2.651  0.0386  0.7162  0.0165
 1469SOL     OW 5948   4.467   4.274   2.525 -0.7415  0.5029  0.7301
 1469SOL    HW2 5949   4.394   4.299   2.582 -1.7088 -1.1291  0.2372
 1469SOL    HW3 5950   4.544   4.313   2.567 -1.6854  0.9769  2.0836
 1469SOL    MW4 5951   4.468   4.283   2.538 -0.9936  0.3500  0.8438
 1470SOL     OW 5952   0.200   4.388   2.642  0.2428 -0.0238  0.6201
 1470SOL    HW2 5953   0.201   4.387   2.737 -0.1653 -2.1989  0.6175
 1470SOL    HW3 5954   0.281   4.344   2.616 -0.2791 -0.6159 -0.0243
 1470SOL    MW4 5955   0.211   4.382   2.651  0.1201 -0.3896  0.5348
 1471SOL     OW 5956   0.675   4.666   2.499 -0.1739  0.0738 -0.0679
 1471SOL    HW2 5957   0.739   4.712   2.553 -0.3707 -0.4279  0.5872
 1471SOL    HW3 5958   0.590   4.699   2.529 -0.2861 -0.2400 -0.0472
 1471SOL    MW4 5959   0.673   4.677   2.510 -0.2147 -0.0338  0.0212
 1472SOL     OW 5960   0.448   0.105   2.620  0.6631 -0.6302 -0.4272
 1472SOL    HW2 5961   0.440   0.109   2.715  1.6468 -1.8321 -0.2807
 1472SOL    HW3 5962   0.363   0.073   2.590  0.0253  0.6707 -0.0285
 1472SOL    MW4 5963   0.436   0.101   2.629  0.7088 -0.6171 -0.3552
 1473SOL     OW 5964   0.463   0.374   2.514 -0.0016 -0.1767 -0.1981
 1473SOL    HW2 5965   0.542   0.409   2.554  0.2945 -0.1371 -0.8128
 1473SOL    HW3 5966   0.464   0.281   2.535  0.4087 -0.2493 -0.5324
 1473SOL    MW4 5967   0.473   0.367   2.522  0.0916 -0.1810 -0.3233
 1474SOL     OW 5968   0.677   0.504   2.625  0.0196 -0.4496 -0.1342
 1474SOL    HW2 5969   0.681   0.518   2.720 -0.4402 -1.7167  0.0714
 1474SOL    HW3 5970   0.757   0.458   2.604 -0.5822 -1.5128 -0.1283
 1474SOL    MW4 5971   0.688   0.500   2.635 -0.1205 -0.7570 -0.1063
 1475SOL     OW 5972   0.664   0.770   2.535 -0.2795  0.0170  0.0249
 1475SOL    HW2 5973   0.744   0.810   2.568  1.2431 -0.8435 -2.4459
 1475SOL    HW3 5974   0.666   0.681   2.569 -0.6714  0.2574  0.6958
 1475SOL    MW4 5975   0.675   0.764   2.544 -0.1303 -0.0647 -0.2124
 1476SOL     OW 5976   0.405   0.851   2.614 -0.1300  0.2561 -0.1653
 1476SOL    HW2 5977   0.398   0.942   2.586  0.3496  1.4276  3.2703
 1476SOL    HW3 5978   0.493   0.825   2.586 -0.0702  1.0047 -0.7107
 1476SOL    MW4 5979   0.416   0.860   2.606 -0.0589  0.5095  0.2160
 1477SOL     OW 5980   0.425   1.127   2.568  0.0911 -0.0927 -0.4002
 1477SOL    HW2 5981   0.502   1.154   2.617  0.1582 -1.5963  0.3378
 1477SOL    HW3 5982   0.451   1.136   2.476  1.4615 -1.4142 -0.1604
 1477SOL    MW4 5983   0.439   1.132   2.562  0.2807 -0.4654 -0.2713
 1478SOL     OW 5984   0.655   1.276   2.668  0.0380  0.3218  0.0484
 1478SOL    HW2 5985   0.654   1.263   2.763  0.1659  0.3599  0.0545
 1478SOL    HW3 5986   0.723   1.217   2.636 -1.1954 -1.0122 -0.2110
 1478SOL    MW4 5987   0.664   1.266   2.676 -0.1079  0.1508  0.0153
 1479SOL     OW 5988   0.663   1.509   2.534  0.7624  0.3416 -0.0878
 1479SOL    HW2 5989   0.584   1.556   2.558 -0.0605 -0.2043 -1.6068
 1479SOL    HW3 5990   0.661   1.430   2.588 -0.4453 -0.3097 -1.0394
 1479SOL    MW4 5991   0.652   1.504   2.544  0.4945  0.1836 -0.4139
 1480SOL     OW 5992   0.447   1.654   2.634 -0.2958 -0.1760 -0.2175
 1480SOL    HW2 5993   0.436   1.662   2.729 -4.1505 -0.1666 -0.5947
 1480SOL    HW3 5994   0.436   1.743   2.601  0.4355 -0.2702 -0.7178
 1480SOL    MW4 5995   0.444   1.667   2.642 -0.7079 -0.1872 -0.3333
 1481SOL     OW 5996   0.454   1.916   2.573 -0.4874 -0.5604 -0.0429
 1481SOL    HW2 5997   0.530   1.970   2.592 -0.5253 -0.6635  0.4185
 1481SOL    HW3 5998   0.436   1.931   2.480 -0.3268 -0.0042  0.0138
 1481SOL    MW4 5999   0.461   1.925   2.563 -0.4712 -0.5007  0.0253
 1482SOL     OW 6000   0.661   2.076   2.627  0.2509  0.0238 -0.0495
 1482SOL    HW2 6001   0.666   2.078   2.722  1.1173  1.9276 -0.0943
 1482SOL    HW3 6002   0.739   2.027   2.600 -0.2526 -0.9338  0.2363
 1482SOL    MW4 6003   0.672   2.070   2.636  0.2988  0.1485 -0.0179
 1483SOL     OW 6004   0.677   2.358   2.540 -0.3475  0.3643  0.2401
 1483SOL    HW2 6005   0.749   2.410   2.576  0.2329  0.1207 -0.5403
 1483SOL    HW3 6006   0.686   2.272   2.583 -0.7973  0.6453  0.9031
 1483SOL    MW4 6007   0.688   2.353   2.550 -0.3302  0.3693  0.2246
 1484SOL     OW 6008   0.429   2.437   2.641  0.2728 -0.5351 -0.3903
 1484SOL    HW2 6009   0.434   2.531   2.623  0.1715 -0.0661  1.9117
 1484SOL    HW3 6010   0.512   2.402   2.608 -0.1273  0.1567 -2.2333
 1484SOL    MW4 6011   0.440   2.445   2.634  0.2066 -0.3817 -0.3297
 1485SOL     OW 6012   0.452   2.693   2.545  0.0139 -0.0207 -0.0559
 1485SOL    HW2 6013   0.530   2.742   2.569  0.7318 -1.3646  0.4214
 1485SOL    HW3 6014   0.380   2.741   2.584  0.7804  0.2083  1.0961
 1485SOL    MW4 6015   0.453   2.706   2.553  0.2098 -0.1674  0.1590
 1486SOL     OW 6016   0.641   2.865   2.673 -0.1068 -0.6077 -0.2204
 1486SOL    HW2 6017   0.605   2.875   2.761  2.1416 -1.3796  0.8177
 1486SOL    HW3 6018   0.657   2.955   2.643 -0.7488 -0.3491  0.2047
 1486SOL    MW4 6019   0.638   2.878   2.680  0.1051 -0.6754 -0.0274
 1487SOL     OW 6020   0.658   3.132   2.568 -0.1242  0.2597 -0.0508
 1487SOL    HW2 6021   0.748   3.164   2.569 -0.0841  0.1247  1.1377
 1487SOL    HW3 6022   0.640   3.116   2.475  1.0330  0.3954 -0.3121
 1487SOL    MW4 6023   0.668   3.134   2.556  0.0337  0.2596  0.0720
 1488SOL     OW 6024   0.424   3.244   2.640 -0.6837  0.3277  0.5766
 1488SOL    HW2 6025   0.428   3.221   2.732 -0.3093 -0.9739  0.2447
 1488SOL    HW3 6026   0.509   3.216   2.605 -0.7365  1.0143 -0.1124
 1488SOL    MW4 6027   0.436   3.237   2.647 -0.6413  0.2465  0.4416
 1489SOL     OW 6028   0.445   3.503   2.546 -0.4425  0.3801 -0.3800
 1489SOL    HW2 6029   0.428   3.415   2.579  1.5222 -0.2150 -0.8610
 1489SOL    HW3 6030   0.424   3.498   2.453  1.7748 -0.2303 -0.8787
 1489SOL    MW4 6031   0.440   3.491   2.538  0.1093  0.2210 -0.5093
 1490SOL     OW 6032   0.684   3.645   2.599  0.2303 -0.1039 -0.3096
 1490SOL    HW2 6033   0.676   3.645   2.694 -0.7398 -1.5543 -0.3650
 1490SOL    HW3 6034   0.603   3.605   2.568  0.5405  0.3281 -1.7512
 1490SOL    MW4 6035   0.672   3.640   2.607  0.1432 -0.2382 -0.5071
 1491SOL     OW 6036   0.652   3.902   2.525 -0.3999  0.0959  0.1707
 1491SOL    HW2 6037   0.568   3.930   2.559 -0.9820  0.4373 -1.4733
 1491SOL    HW3 6038   0.661   3.811   2.551  0.2519  0.9742  3.2100
 1491SOL    MW4 6039   0.642   3.894   2.533 -0.3906  0.2568  0.3548
 1492SOL     OW 6040   0.415   3.990   2.625 -0.1539 -0.0944 -0.2528
 1492SOL    HW2 6041   0.422   4.086   2.621 -0.8727 -0.0034  0.5181
 1492SOL    HW3 6042   0.336   3.969   2.577  0.0318 -0.3114 -0.4664
 1492SOL    MW4 6043   0.406   4.000   2.618 -0.2242 -0.1106 -0.1793
 1493SOL     OW 6044   0.458   4.262   2.549 -0.3460  0.6148 -0.1372
 1493SOL    HW2 6045   0.542   4.302   2.572  0.0964 -0.6331  0.4849
 1493SOL    HW3 6046   0.458   4.260   2.453  0.2744  0.7726 -0.1425
 1493SOL    MW4 6047   0.469   4.267   2.539 -0.2058  0.4711 -0.0556
 1494SOL     OW 6048   0.679   4.416   2.617  0.2279 -0.2077  0.1657
 1494SOL    HW2 6049   0.751   4.367   2.580  1.8601  1.6094  0.8491
 1494SOL    HW3 6050   0.684   4.502   2.575 -2.4401 -0.5043 -0.8635
 1494SOL    MW4 6051   0.689   4.421   2.606  0.0913 -0.0072  0.1199
 1495SOL     OW 6052   1.165   4.650   2.548  0.0752 -0.1674 -0.6505
 1495SOL    HW2 6053   1.244   4.680   2.591  0.4145 -0.2630 -1.1959
 1495SOL    HW3 6054   1.155   4.559   2.577  0.0532 -0.0929 -0.4253
 1495SOL    MW4 6055   1.174   4.642   2.557  0.1171 -0.1698 -0.6926
 1496SOL     OW 6056   0.876   0.137   2.626  0.2737 -0.2365 -0.0142
 1496SOL    HW2 6057   0.873   0.147   2.721 -0.7204  0.1021 -0.0809
 1496SOL    HW3 6058   0.964   0.103   2.608 -0.3359 -2.6048  1.2405
 1496SOL    MW4 6059   0.887   0.134   2.636  0.0621 -0.5043  0.1426
 1497SOL     OW 6060   0.910   0.385   2.526 -0.0265  0.1101 -0.5248
 1497SOL    HW2 6061   0.883   0.298   2.557  0.9859 -0.0495 -0.0896
 1497SOL    HW3 6062   0.908   0.377   2.431  0.2365 -0.4540 -0.4895
 1497SOL    MW4 6063   0.906   0.372   2.518  0.1418  0.0147 -0.4628
 1498SOL     OW 6064   1.135   0.498   2.642  0.2472 -0.0158 -0.2772
 1498SOL    HW2 6065   1.135   0.586   2.605  0.4269  0.5179  0.9522
 1498SOL    HW3 6066   1.052   0.460   2.614  0.2315  0.4926 -0.9378
 1498SOL    MW4 6067   1.124   0.505   2.634  0.2688  0.1217 -0.2022
 1499SOL     OW 6068   1.133   0.772   2.578  0.0140  0.4186 -0.5825
 1499SOL    HW2 6069   1.207   0.825   2.607  0.1633  0.2727 -0.6969
 1499SOL    HW3 6070   1.128   0.790   2.484  0.3759 -0.1558 -0.7152
 1499SOL    MW4 6071   1.142   0.782   2.569  0.0815  0.3236 -0.6149
 1500SOL     OW 6072   0.894   0.892   2.648 -0.5393 -0.6121  0.3051
 1500SOL    HW2 6073   0.880   0.890   2.742  0.0671 -1.1844  0.3815
 1500SOL    HW3 6074   0.980   0.853   2.635 -0.3168  0.1006 -0.4298
 1500SOL    MW4 6075   0.903   0.887   2.658 -0.4299 -0.5935  0.2182
 1501SOL     OW 6076   0.881   1.153   2.583 -0.5533  0.2497  0.7511
 1501SOL    HW2 6077   0.907   1.063   2.601 -2.1272 -0.0143  1.6976
 1501SOL    HW3 6078   0.962   1.204   2.595  0.5723 -1.1205 -0.7058
 1501SOL    MW4 6079   0.895   1.148   2.587 -0.6125  0.0342  0.6838
 1502SOL     OW 6080   1.104   1.302   2.623  0.0042  0.1014 -0.1100
 1502SOL    HW2 6081   1.076   1.387   2.590 -0.9612 -0.1558  0.0188
 1502SOL    HW3 6082   1.105   1.312   2.718  2.3426  0.7072 -0.1711
 1502SOL    MW4 6083   1.101   1.314   2.631  0.1854  0.1476 -0.1011
 1503SOL     OW 6084   1.146   1.571   2.523 -0.5125  0.0321 -0.1814
 1503SOL    HW2 6085   1.066   1.610   2.556 -0.6048 -0.9133  0.7481
 1503SOL    HW3 6086   1.140   1.579   2.428 -0.4119  2.4774 -0.0070
 1503SOL    MW4 6087   1.135   1.577   2.515 -0.5115  0.2301 -0.0358
 1504SOL     OW 6088   0.895   1.667   2.625  0.1750  0.3162  0.2884
 1504SOL    HW2 6089   0.875   1.674   2.718  0.2158 -0.6379  0.3735
 1504SOL    HW3 6090   0.828   1.608   2.591 -1.0820  2.2460 -0.6836
 1504SOL    MW4 6091   0.883   1.660   2.633  0.0145  0.4449  0.1714
 1505SOL     OW 6092   0.876   1.922   2.547  0.1124  0.3129  0.2146
 1505SOL    HW2 6093   0.965   1.956   2.561  0.4594 -0.0770 -1.0060
 1505SOL    HW3 6094   0.881   1.831   2.578  0.6641 -0.3012 -1.6303
 1505SOL    MW4 6095   0.889   1.914   2.553  0.2309  0.1804 -0.1898
 1506SOL     OW 6096   1.120   2.057   2.614  0.3710  0.1209  0.0456
 1506SOL    HW2 6097   1.209   2.024   2.600  0.3189  0.1908 -0.4499
 1506SOL    HW3 6098   1.121   2.145   2.576  0.2502  0.3453  0.5495
 1506SOL    MW4 6099   1.132   2.064   2.607  0.3481  0.1597  0.0467
 1507SOL     OW 6100   1.114   2.329   2.529 -0.2309 -0.5387  0.2722
 1507SOL    HW2 6101   1.192   2.378   2.555  0.3348 -1.1048 -0.3316
 1507SOL    HW3 6102   1.126   2.314   2.435 -1.8508  0.7862 -0.1758
 1507SOL    MW4 6103   1.126   2.334   2.520 -0.3700 -0.4387  0.1335
 1508SOL     OW 6104   0.900   2.479   2.662 -0.0279  0.8298 -0.2151
 1508SOL    HW2 6105   0.897   2.572   2.637 -1.6118  0.5067 -1.3436
 1508SOL    HW3 6106   0.974   2.443   2.612 -0.1757  1.2356 -0.7391
 1508SOL    MW4 6107   0.909   2.487   2.652 -0.2564  0.8407 -0.4330
 1509SOL     OW 6108   0.830   2.722   2.528  0.0683 -0.1308 -0.4843
 1509SOL    HW2 6109   0.917   2.755   2.550  0.5948 -0.9591 -1.3389
 1509SOL    HW3 6110   0.770   2.784   2.572  1.0627  0.6789 -0.2386
 1509SOL    MW4 6111   0.833   2.735   2.537  0.2690 -0.1333 -0.5646
 1510SOL     OW 6112   1.083   2.832   2.611  0.0000  0.0000 -0.3187
 1510SOL    HW2 6113   1.106   2.825   2.703  0.0000  0.0000 -0.3186
 1510SOL    HW3 6114   1.158   2.795   2.565  0.0000  0.0000 -0.3179
 1510SOL    MW4 6115   1.096   2.826   2.617  0.0000  0.0000 -0.3188
 1511SOL     OW 6116   1.148   3.096   2.543  0.0000  0.0000  0.0187
 1511SOL    HW2 6117   1.122   3.007   2.567  0.0000  0.0000  0.0133
 1511SOL    HW3 6118   1.136   3.101   2.449  0.0000  0.0000  0.0189
 1511SOL    MW4 6119   1.143   3.085   2.534  0.0000  0.0000  0.0181
 1512SOL     OW 6120   0.919   3.208   2.623  0.0000  0.0000  0.3830
 1512SOL    HW2 6121   0.903   3.287   2.571  0.0000  0.0000  0.3845
 1512SOL    HW3 6122   1.006   3.179   2.595  0.0000  0.0000  0.3753
 1512SOL    MW4 6123   0.928   3.215   2.612  0.0000  0.0000  0.3819
 1513SOL     OW 6124   0.887   3.462   2.498  0.0000  0.0000 -0.2925
 1513SOL    HW2 6125   0.960   3.508   2.540  0.0000  0.0000 -0.3518
 1513SOL    HW3 6126   0.810   3.512   2.526  0.0000  0.0000 -0.2485
 1513SOL    MW4 6127   0.887   3.475   2.507  0.0000  0.0000 -0.2944
 1514SOL     OW 6128   1.102   3.599   2.650  0.0000  0.0000 -0.1103
 1514SOL    HW2 6129   1.101   3.626   2.742  0.0000  0.0000 -0.1113
 1514SOL    HW3 6130   1.100   3.681   2.601  0.0000  0.0000 -0.1138
 1514SOL    MW4 6131   1.102   3.613   2.655  0.0000  0.0000 -0.1111
 1515SOL     OW 6132   1.098   3.851   2.523  0.0000  0.0000  0.1993
 1515SOL    HW2 6133   1.178   3.889   2.561  0.0000  0.0000  0.2023
 1515SOL    HW3 6134   1.110   3.859   2.429  0.0000  0.0000  0.1995
 1515SOL    MW4 6135   1.110   3.857   2.516  0.0000  0.0000  0.1993
 1516SOL     OW 6136   0.893   4.008   2.637  0.0000  0.0000 -0.3620
 1516SOL    HW2 6137   0.958   3.963   2.583  0.0000  0.0000 -0.3679
 1516SOL    HW3 6138   0.809   3.969   2.610  0.0000  0.0000 -0.3488
 1516SOL    MW4 6139   0.890   3.997   2.626  0.0000  0.0000 -0.3607
 1517SOL     OW 6140   0.888   4.266   2.534  0.0000  0.0000 -0.2617
 1517SOL    HW2 6141   0.892   4.174   2.559  0.0000  0.0000 -0.2630
 1517SOL    HW3 6142   0.884   4.265   2.438  0.0000  0.0000 -0.2620
 1517SOL    MW4 6143   0.888   4.254   2.524  0.0000  0.0000 -0.2618
 1518SOL     OW 6144   1.144   4.351   2.625  0.0000  0.0000  0.1475
 1518SOL    HW2 6145   1.137   4.378   2.717  0.0000  0.0000  0.1477
 1518SOL    HW3 6146   1.055   4.327   2.600  0.0000  0.0000  0.1488
 1518SOL    MW4 6147   1.131   4.351   2.634  0.0000  0.0000  0.1476
 1519SOL     OW 6148   1.632   4.659   2.496 -0.5192 -0.2824 -0.3269
 1519SOL    HW2 6149   1.608   4.570   2.522 -0.2667 -0.7476 -1.6260
 1519SOL    HW3 6150   1.619   4.661   2.401  1.5791  0.3787 -0.6364
 1519SOL    MW4 6151   1.627   4.648   2.487 -0.2090 -0.2565 -0.5391
 1520SOL     OW 6152   1.405   0.111   2.626  0.0153 -0.0182  0.2928
 1520SOL    HW2 6153   1.387   0.196   2.587 -1.1192  0.1665  1.1943
 1520SOL    HW3 6154   1.475   0.074   2.572 -1.0414  0.5120 -1.4787
 1520SOL    MW4 6155   1.412   0.117   2.614 -0.2738  0.0761  0.1781
 1521SOL     OW 6156   1.347   0.362   2.501  0.5984 -0.2423 -0.4631
 1521SOL    HW2 6157   1.428   0.405   2.527  0.0509  0.1951  0.5822
 1521SOL    HW3 6158   1.279   0.407   2.552 -0.1672 -1.2848 -0.5497
 1521SOL    MW4 6159   1.349   0.374   2.511  0.4252 -0.3221 -0.3364
 1522SOL     OW 6160   1.566   0.478   2.624  0.3448  0.0900 -0.1228
 1522SOL    HW2 6161   1.653   0.448   2.595 -0.0588 -1.2676  0.0443
 1522SOL    HW3 6162   1.566   0.572   2.605  1.6367 -0.0030 -0.6662
 1522SOL    MW4 6163   1.578   0.486   2.617  0.4619 -0.1014 -0.1724
 1523SOL     OW 6164   1.559   0.745   2.575 -0.6137  0.0087  0.1465
 1523SOL    HW2 6165   1.486   0.803   2.596  0.0851  0.8391  0.3006
 1523SOL    HW3 6166   1.571   0.754   2.481  1.3695  2.3477  0.6017
 1523SOL    MW4 6167   1.551   0.754   2.565 -0.2599  0.4269  0.2270
 1524SOL     OW 6168   1.354   0.938   2.643  0.0772  0.4195  0.2062
 1524SOL    HW2 6169   1.344   0.961   2.735 -2.7733 -0.0837  0.0751
 1524SOL    HW3 6170   1.345   1.022   2.596 -0.1236  0.4563  0.3082
 1524SOL    MW4 6171   1.351   0.952   2.649 -0.3253  0.3580  0.2022
 1525SOL     OW 6172   1.341   1.179   2.493  0.5990  0.2199  0.2728
 1525SOL    HW2 6173   1.399   1.223   2.556  0.5615 -0.5133  0.8207
 1525SOL    HW3 6174   1.255   1.218   2.509  0.6372  0.2099  0.5199
 1525SOL    MW4 6175   1.337   1.190   2.504  0.5989  0.1218  0.3774
 1526SOL     OW 6176   1.528   1.287   2.666 -0.0146  0.2889  0.2990
 1526SOL    HW2 6177   1.527   1.287   2.762 -0.7961  0.2636  0.2968
 1526SOL    HW3 6178   1.603   1.233   2.642  0.5430  0.7996  0.9026
 1526SOL    MW4 6179   1.537   1.280   2.676 -0.0441  0.3529  0.3784
 1527SOL     OW 6180   1.552   1.544   2.541  0.4227  0.1966  0.1314
 1527SOL    HW2 6181   1.532   1.460   2.582 -0.0403 -0.7536 -1.9715
 1527SOL    HW3 6182   1.558   1.524   2.447  2.0964  2.1724 -0.2253
 1527SOL    MW4 6183   1.550   1.530   2.534  0.5826  0.3319 -0.1934
 1528SOL     OW 6184   1.352   1.698   2.656 -0.1526  0.0660 -0.0329
 1528SOL    HW2 6185   1.432   1.668   2.612 -0.3581  0.5364 -0.7337
 1528SOL    HW3 6186   1.283   1.645   2.617 -0.4342  0.9929 -0.8219
 1528SOL    MW4 6187   1.354   1.687   2.645 -0.2168  0.2503 -0.2296
 1529SOL     OW 6188   1.358   1.946   2.519  0.2195 -0.1889  0.1509
 1529SOL    HW2 6189   1.381   1.857   2.546  0.4211 -0.1797  0.0092
 1529SOL    HW3 6190   1.361   1.944   2.423  2.8269  0.6550  0.1856
 1529SOL    MW4 6191   1.362   1.934   2.510  0.5901 -0.0765  0.1369
 1530SOL     OW 6192   1.556   2.066   2.654 -0.2361 -0.1186  0.0198
 1530SOL    HW2 6193   1.634   2.025   2.616 -0.1404  0.2796 -0.2178
 1530SOL    HW3 6194   1.483   2.027   2.608 -0.1904 -0.7274  0.4649
 1530SOL    MW4 6195   1.557   2.056   2.643 -0.2173 -0.1464  0.0472
 1531SOL     OW 6196   1.578   2.328   2.531 -0.7819 -0.0759  0.1516
 1531SOL    HW2 6197   1.657   2.357   2.577 -1.2024 -0.4744  1.1345
 1531SOL    HW3 6198   1.553   2.247   2.575 -0.4624 -1.1596 -1.6100
 1531SOL    MW4 6199   1.585   2.321   2.543 -0.7954 -0.2716  0.0489
 1532SOL     OW 6200   1.349   2.461   2.617 -0.6620  0.1286 -0.0037
 1532SOL    HW2 6201   1.333   2.551   2.589 -0.9042  0.6572  1.7812
 1532SOL    HW3 6202   1.432   2.438   2.576  0.0463  1.6210  0.5499
 1532SOL    MW4 6203   1.358   2.470   2.608 -0.6005  0.3953  0.3049
 1533SOL     OW 6204   1.314   2.710   2.502  0.2854  0.4482  0.3624
 1533SOL    HW2 6205   1.401   2.741   2.526  1.3936 -1.0684 -1.5746
 1533SOL    HW3 6206   1.325   2.671   2.415 -1.9964 -1.1683  0.7410
 1533SOL    MW4 6207   1.327   2.709   2.494  0.1307  0.0348  0.1566
 1534SOL     OW 6208   1.537   2.816   2.632 -0.0428  0.1207  0.0626
 1534SOL    HW2 6209   1.529   2.808   2.727 -0.8386  3.0568  0.2730
 1534SOL    HW3 6210   1.627   2.790   2.613  0.0667 -0.6721  1.5792
 1534SOL    MW4 6211   1.547   2.811   2.642 -0.1333  0.4034  0.2904
 1535SOL     OW 6212   1.560   3.071   2.519  0.4791 -0.4452 -0.4588
 1535SOL    HW2 6213   1.627   3.112   2.575  2.1071  0.6076 -3.0876
 1535SOL    HW3 6214   1.543   2.986   2.560  0.5535  0.8805  2.4333
 1535SOL    MW4 6215   1.566   3.065   2.532  0.7038 -0.1316 -0.4239
 1536SOL     OW 6216   1.372   3.223   2.651 -0.0112 -0.3155 -0.2326
 1536SOL    HW2 6217   1.443   3.184   2.600  0.2829 -1.1299  0.8009
 1536SOL    HW3 6218   1.296   3.167   2.634  0.1340 -0.6922  0.3885
 1536SOL    MW4 6219   1.371   3.211   2.642  0.0468 -0.4728 -0.0143
 1537SOL     OW 6220   1.315   3.487   2.544  0.1968 -0.3482 -0.3063
 1537SOL    HW2 6221   1.316   3.401   2.586  0.0963  0.5161  1.5509
 1537SOL    HW3 6222   1.243   3.533   2.587  0.5337  0.8024 -0.9636
 1537SOL    MW4 6223   1.306   3.482   2.555  0.2279 -0.0825 -0.1481
 1538SOL     OW 6224   1.552   3.625   2.645  0.1234 -0.3308 -0.0343
 1538SOL    HW2 6225   1.622   3.566   2.616  0.1371 -0.5549  0.4594
 1538SOL    HW3 6226   1.471   3.581   2.619  0.1390 -0.4645  0.1503
 1538SOL    MW4 6227   1.550   3.611   2.637  0.1273 -0.3779  0.0553
 1539SOL     OW 6228   1.547   3.867   2.528 -0.2656 -0.1399  0.0925
 1539SOL    HW2 6229   1.468   3.911   2.559  0.6578  0.6367  1.3544
 1539SOL    HW3 6230   1.547   3.782   2.572  0.5510  0.5903  1.5481
 1539SOL    MW4 6231   1.537   3.862   2.538 -0.0360  0.0587  0.4508
 1540SOL     OW 6232   1.313   3.967   2.640 -0.0946  0.4350  0.3763
 1540SOL    HW2 6233   1.311   3.983   2.735  0.9613 -0.4958  0.5595
 1540SOL    HW3 6234   1.347   4.048   2.603  3.2766 -0.5645  1.1353
 1540SOL    MW4 6235   1.317   3.980   2.648  0.4894  0.1802  0.5007
 1541SOL     OW 6236   1.371   4.225   2.504 -0.1033  0.1376 -0.1802
 1541SOL    HW2 6237   1.287   4.257   2.537  0.0976  1.2075 -0.6803
 1541SOL    HW3 6238   1.364   4.235   2.409 -0.2409 -1.8373 -0.4012
 1541SOL    MW4 6239   1.359   4.230   2.496 -0.0949  0.0181 -0.2754
 1542SOL     OW 6240   1.554   4.410   2.601 -0.0396 -0.2607  0.0649
 1542SOL    HW2 6241   1.558   4.397   2.696  0.1224 -1.5264 -0.1145
 1542SOL    HW3 6242   1.479   4.359   2.573 -0.9228  1.2173 -0.3173
 1542SOL    MW4 6243   1.545   4.402   2.610 -0.1347 -0.2327 -0.0095
 1543SOL     OW 6244   2.040   4.644   2.556  0.1916 -0.5946 -0.7369
 1543SOL    HW2 6245   2.120   4.686   2.589 -0.1458  0.6459 -1.4563
 1543SOL    HW3 6246   2.045   4.656   2.461 -1.7084  1.1197 -0.6592
 1543SOL    MW4 6247   2.051   4.651   2.548 -0.1035 -0.2047 -0.8216
 1544SOL     OW 6248   1.819   0.113   2.644  0.1975  0.0621  0.2287
 1544SOL    HW2 6249   1.899   0.073   2.611  0.2507  0.4477 -0.1149
 1544SOL    HW3 6250   1.749   0.077   2.590  0.0811 -0.6128  0.8151
 1544SOL    MW4 6251   1.820   0.103   2.633  0.1893  0.0239  0.2606
 1545SOL     OW 6252   1.817   0.378   2.544 -0.6155  0.6045 -0.3609
 1545SOL    HW2 6253   1.886   0.427   2.590 -0.7120  0.3124  0.0979
 1545SOL    HW3 6254   1.819   0.291   2.583  0.0008  0.0332 -1.6447
 1545SOL    MW4 6255   1.827   0.373   2.556 -0.5468  0.4906 -0.4697
 1546SOL     OW 6256   2.027   0.501   2.685  0.1071  0.1845  0.0778
 1546SOL    HW2 6257   2.094   0.457   2.632  0.2202  1.0329 -0.4886
 1546SOL    HW3 6258   2.019   0.588   2.646 -0.1229  0.6633  1.1830
 1546SOL    MW4 6259   2.035   0.506   2.673  0.0918  0.3596  0.1490
 1547SOL     OW 6260   2.014   0.748   2.551  0.0750  0.5522  0.3331
 1547SOL    HW2 6261   1.928   0.784   2.574  0.5103  0.5703  2.0199
 1547SOL    HW3 6262   2.013   0.743   2.456 -1.4416  1.4347  0.2802
 1547SOL    MW4 6263   2.003   0.752   2.542 -0.0675  0.6710  0.5484
 1548SOL     OW 6264   1.802   0.874   2.664 -0.1805  0.1554 -0.1002
 1548SOL    HW2 6265   1.805   0.967   2.641  0.7255  0.1397 -0.0680
 1548SOL    HW3 6266   1.710   0.849   2.654 -0.0052  0.4005 -2.7031
 1548SOL    MW4 6267   1.791   0.883   2.659 -0.0378  0.1857 -0.4394
 1549SOL     OW 6268   1.765   1.140   2.587  0.3625 -0.2591  0.4712
 1549SOL    HW2 6269   1.831   1.192   2.633  1.1162 -1.2247  0.5168
 1549SOL    HW3 6270   1.795   1.140   2.496 -0.1274  0.1302  0.3091
 1549SOL    MW4 6271   1.778   1.147   2.581  0.3973 -0.3351  0.4561
 1550SOL     OW 6272   1.995   1.285   2.646  0.3937  0.2018 -0.0865
 1550SOL    HW2 6273   2.010   1.294   2.740  1.7309  0.5861 -0.3332
 1550SOL    HW3 6274   2.076   1.248   2.612 -0.0228  0.2122 -1.1219
 1550SOL    MW4 6275   2.008   1.281   2.654  0.5152  0.2539 -0.2556
 1551SOL     OW 6276   1.990   1.536   2.506  0.2129  0.0732  0.3149
 1551SOL    HW2 6277   1.925   1.578   2.562  1.5392  2.5143  0.1022
 1551SOL    HW3 6278   2.016   1.458   2.555 -0.1032  1.1023  2.1880
 1551SOL    MW4 6279   1.985   1.531   2.520  0.3462  0.5311  0.5341
 1552SOL     OW 6280   1.781   1.663   2.636  0.6564  0.2635 -0.1606
 1552SOL    HW2 6281   1.792   1.660   2.731  0.5181  2.4463 -0.0443
 1552SOL    HW3 6282   1.708   1.604   2.618  1.6637 -1.3341  0.9146
 1552SOL    MW4 6283   1.773   1.655   2.646  0.7710  0.3406 -0.0033
 1553SOL     OW 6284   1.745   1.943   2.503  0.4134 -0.1796  0.1957
 1553SOL    HW2 6285   1.819   1.982   2.549 -0.0794 -1.0759  1.7789
 1553SOL    HW3 6286   1.738   1.854   2.538 -0.4934 -0.6053 -1.0078
 1553SOL    MW4 6287   1.754   1.936   2.514  0.2288 -0.3541  0.2458
 1554SOL     OW 6288   1.966   2.016   2.660 -0.0793 -0.1196  0.5496
 1554SOL    HW2 6289   1.978   2.019   2.755 -1.3696  0.5628  0.7059
 1554SOL    HW3 6290   1.977   2.107   2.632  1.9930 -0.5588 -0.2004
 1554SOL    MW4 6291   1.969   2.028   2.669  0.0238 -0.0875  0.4714
 1555SOL     OW 6292   2.020   2.270   2.539  0.6070 -0.1205  0.5848
 1555SOL    HW2 6293   2.107   2.296   2.571  0.8394 -0.9347  0.6244
 1555SOL    HW3 6294   2.025   2.285   2.444  0.0795  1.8278  0.8335
 1555SOL    MW4 6295   2.032   2.275   2.530  0.5679  0.0291  0.6227
 1556SOL     OW 6296   1.809   2.423   2.645  0.0939 -0.4298 -0.3410
 1556SOL    HW2 6297   1.795   2.411   2.739 -0.2395  0.7637 -0.2210
 1556SOL    HW3 6298   1.876   2.359   2.622  0.5529 -0.3859  0.8292
 1556SOL    MW4 6299   1.816   2.413   2.654  0.1104 -0.2668 -0.1707
 1557SOL     OW 6300   1.777   2.699   2.552 -0.4419  0.1827  0.1693
 1557SOL    HW2 6301   1.800   2.617   2.596 -0.9310 -0.2000 -0.2819
 1557SOL    HW3 6302   1.855   2.754   2.562  0.0568 -0.4980  0.0903
 1557SOL    MW4 6303   1.791   2.696   2.559 -0.4407  0.0420  0.0992
 1558SOL     OW 6304   1.985   2.855   2.647  0.4910 -0.1389 -0.1632
 1558SOL    HW2 6305   2.055   2.796   2.621 -1.9582 -2.6429 -1.3892
 1558SOL    HW3 6306   1.987   2.854   2.743  1.5914 -0.8289 -0.1914
 1558SOL    MW4 6307   1.994   2.847   2.656  0.3132 -0.5605 -0.3283
 1559SOL     OW 6308   2.007   3.126   2.531  0.1072 -0.7547 -0.1008
 1559SOL    HW2 6309   2.016   3.035   2.557 -1.3527 -1.2407 -1.2109
 1559SOL    HW3 6310   1.993   3.123   2.436  1.6860  0.7306 -0.4098
 1559SOL    MW4 6311   2.007   3.114   2.522  0.1230 -0.6227 -0.2878
 1560SOL     OW 6312   1.775   3.195   2.667 -0.4405  0.0670 -0.3210
 1560SOL    HW2 6313   1.772   3.289   2.649  0.3530  0.3849  1.1311
 1560SOL    HW3 6314   1.860   3.167   2.633 -0.8424 -0.2070 -1.1079
 1560SOL    MW4 6315   1.786   3.203   2.660 -0.3887  0.0727 -0.2329
 1561SOL     OW 6316   1.779   3.473   2.588  0.0534 -0.1501 -0.3396
 1561SOL    HW2 6317   1.854   3.526   2.615 -0.5260  0.4631  0.0970
 1561SOL    HW3 6318   1.778   3.480   2.492 -1.0260  2.0895 -0.2188
 1561SOL    MW4 6319   1.789   3.481   2.579 -0.1656  0.2263 -0.2661
 1562SOL     OW 6320   2.001   3.623   2.679 -0.2412 -0.0299 -0.1526
 1562SOL    HW2 6321   2.013   3.601   2.771  0.0811 -0.7853 -0.3712
 1562SOL    HW3 6322   2.077   3.585   2.634 -0.3925  0.3334 -0.7248
 1562SOL    MW4 6323   2.012   3.615   2.685 -0.2184 -0.0815 -0.2568
 1563SOL     OW 6324   1.976   3.874   2.557 -0.3645 -0.1500  0.3275
 1563SOL    HW2 6325   1.890   3.913   2.576 -0.3177  0.6051 -0.9342
 1563SOL    HW3 6326   1.973   3.788   2.598 -1.3554  0.2710  1.1598
 1563SOL    MW4 6327   1.964   3.868   2.565 -0.4891  0.0052  0.2708
 1564SOL     OW 6328   1.747   4.018   2.647 -0.1001  0.1691  0.0098
 1564SOL    HW2 6329   1.761   4.100   2.602  0.4096 -0.3753 -0.8251
 1564SOL    HW3 6330   1.680   3.972   2.595 -0.0306 -0.1533  0.1998
 1564SOL    MW4 6331   1.740   4.022   2.635 -0.0237  0.0548 -0.0753
 1565SOL     OW 6332   1.780   4.278   2.528  0.1975 -0.2181 -0.3619
 1565SOL    HW2 6333   1.710   4.340   2.549  0.5139 -0.1410  0.5120
 1565SOL    HW3 6334   1.789   4.283   2.433 -1.1213 -0.3856 -0.5047
 1565SOL    MW4 6335   1.772   4.287   2.518  0.0654 -0.2298 -0.2654
 1566SOL     OW 6336   2.031   4.374   2.605  0.4806 -0.0681  0.4881
 1566SOL    HW2 6337   1.945   4.337   2.584  1.1000 -1.4115  0.2400
 1566SOL    HW3 6338   2.024   4.466   2.582 -0.2191 -0.6091 -1.5370
 1566SOL    MW4 6339   2.019   4.381   2.599  0.4702 -0.3171  0.1879
 1567SOL     OW 6340   2.514   4.634   2.549 -0.6175 -0.0293 -0.0809
 1567SOL    HW2 6341   2.595   4.682   2.566 -1.5230  1.4427  0.2549
 1567SOL    HW3 6342   2.498   4.646   2.455 -0.5779 -0.0782 -0.0935
 1567SOL    MW4 6343   2.523   4.642   2.539 -0.7319  0.1588 -0.0384
 1568SOL     OW 6344   2.285   0.110   2.610 -0.1705  0.0768  0.1000
 1568SOL    HW2 6345   2.311   0.110   2.702 -1.0937 -2.0095  0.3928
 1568SOL    HW3 6346   2.356   0.065   2.564  0.4197  1.3553 -0.2709
 1568SOL    MW4 6347   2.298   0.104   2.616 -0.2143 -0.0298  0.0899
 1569SOL     OW 6348   2.249   0.384   2.558  0.2175  0.2863  0.1942
 1569SOL    HW2 6349   2.275   0.294   2.577 -0.4431  0.1975  0.6811
 1569SOL    HW3 6350   2.242   0.388   2.462  1.1932  0.0893  0.1048
 1569SOL    MW4 6351   2.251   0.373   2.548  0.2592  0.2486  0.2465
 1570SOL     OW 6352   2.479   0.515   2.674 -0.0115  0.3990 -0.0266
 1570SOL    HW2 6353   2.464   0.605   2.644 -1.3341  0.4550  0.7352
 1570SOL    HW3 6354   2.394   0.472   2.662  0.2988 -0.4233  0.7057
 1570SOL    MW4 6355   2.465   0.521   2.668 -0.1452  0.2979  0.1707
 1571SOL     OW 6356   2.453   0.761   2.573 -1.0711  0.3018 -0.0796
 1571SOL    HW2 6357   2.374   0.815   2.585 -0.5241  0.8245  1.3298
 1571SOL    HW3 6358   2.469   0.762   2.479 -1.2975  2.3004 -0.1175
 1571SOL    MW4 6359   2.445   0.768   2.562 -1.0288  0.6344  0.1013
 1572SOL     OW 6360   2.227   0.902   2.620 -0.7039 -0.5362  0.7664
 1572SOL    HW2 6361   2.228   0.907   2.716 -0.9159 -1.4260  0.8230
 1572SOL    HW3 6362   2.160   0.836   2.601 -0.6106 -0.4116  0.0027
 1572SOL    MW4 6363   2.218   0.894   2.630 -0.7195 -0.6371  0.6731
 1573SOL     OW 6364   2.252   1.169   2.583 -0.2899  0.2813 -0.0849
 1573SOL    HW2 6365   2.229   1.077   2.597  0.1670  0.2170  0.2401
 1573SOL    HW3 6366   2.296   1.170   2.498 -1.1653  0.3500 -0.5442
 1573SOL    MW4 6367   2.255   1.157   2.573 -0.3450  0.2819 -0.1025
 1574SOL     OW 6368   2.468   1.308   2.688  0.0029  0.5800  0.4299
 1574SOL    HW2 6369   2.541   1.259   2.649  0.3530  0.5386  1.1249
 1574SOL    HW3 6370   2.390   1.256   2.666  0.4424 -0.6909  1.7652
 1574SOL    MW4 6371   2.468   1.294   2.680  0.1073  0.4070  0.6979
 1575SOL     OW 6372   2.468   1.561   2.560  0.0888  0.2426 -0.4004
 1575SOL    HW2 6373   2.386   1.591   2.600 -0.2585  0.8256 -1.5460
 1575SOL    HW3 6374   2.481   1.473   2.595 -0.8372  0.2871  0.0695
 1575SOL    MW4 6375   2.459   1.554   2.570 -0.0792  0.3253 -0.4895
 1576SOL     OW 6376   2.214   1.669   2.634 -0.2874 -0.4441  0.2155
 1576SOL    HW2 6377   2.231   1.757   2.601 -0.6372  0.2620  1.8588
 1576SOL    HW3 6378   2.138   1.639   2.584 -2.0371  1.3756  1.6657
 1576SOL    MW4 6379   2.206   1.677   2.623 -0.5643 -0.1107  0.6239
 1577SOL     OW 6380   2.213   1.932   2.561  0.1139  0.4690  0.2384
 1577SOL    HW2 6381   2.132   1.966   2.598  0.7793 -0.1265  2.2923
 1577SOL    HW3 6382   2.201   1.939   2.466 -1.1253  3.1882  0.5632
 1577SOL    MW4 6383   2.201   1.937   2.553  0.0384  0.7491  0.5524
 1578SOL     OW 6384   2.462   2.033   2.660 -0.1679  1.1276  0.1723
 1578SOL    HW2 6385   2.474   2.117   2.615  1.1954 -0.3846 -2.3563
 1578SOL    HW3 6386   2.378   2.000   2.628  0.2584  0.5885 -0.3990
 1578SOL    MW4 6387   2.452   2.040   2.650  0.0682  0.8571 -0.2365
 1579SOL     OW 6388   2.491   2.297   2.532 -0.0642 -0.1501  0.2870
 1579SOL    HW2 6389   2.553   2.362   2.563 -2.3713  1.7295  1.1592
 1579SOL    HW3 6390   2.491   2.307   2.436  1.8175 -0.9940  0.1938
 1579SOL    MW4 6391   2.499   2.307   2.523 -0.1202 -0.0136  0.3896
 1580SOL     OW 6392   2.252   2.409   2.641 -0.7391 -0.0520  0.0739
 1580SOL    HW2 6393   2.264   2.403   2.735 -1.1133  1.7225  0.2469
 1580SOL    HW3 6394   2.338   2.386   2.604 -0.2526  0.4133  0.8945
 1580SOL    MW4 6395   2.265   2.405   2.648 -0.7243  0.2432  0.2048
 1581SOL     OW 6396   2.204   2.688   2.548  0.7205  0.0211 -0.3664
 1581SOL    HW2 6397   2.280   2.730   2.589  0.6966 -0.1278 -0.1702
 1581SOL    HW3 6398   2.201   2.600   2.585  1.1827 -0.3947 -1.3094
 1581SOL    MW4 6399   2.213   2.682   2.558  0.7782 -0.0532 -0.4652
 1582SOL     OW 6400   2.405   2.866   2.652  0.1056  0.7647  0.3411
 1582SOL    HW2 6401   2.489   2.831   2.621 -0.7050 -0.7119 -0.2454
 1582SOL    HW3 6402   2.404   2.956   2.621  0.4349  0.0787 -1.7711
 1582SOL    MW4 6403   2.416   2.873   2.644  0.0422  0.4795 -0.0153
 1583SOL     OW 6404   2.374   3.124   2.520  0.1451  0.1833  0.2381
 1583SOL    HW2 6405   2.307   3.179   2.560  0.0704  0.2620  0.0039
 1583SOL    HW3 6406   2.449   3.182   2.508  0.0850  0.2196  0.0408
 1583SOL    MW4 6407   2.375   3.139   2.524  0.1268  0.1984  0.1810
 1584SOL     OW 6408   2.197   3.305   2.650  0.0375 -0.1813 -0.5656
 1584SOL    HW2 6409   2.207   3.268   2.738 -0.3106 -0.3004 -0.5727
 1584SOL    HW3 6410   2.130   3.251   2.609  0.1435 -0.0760 -0.8785
 1584SOL    MW4 6411   2.189   3.293   2.656  0.0055 -0.1833 -0.6077
 1585SOL     OW 6412   2.240   3.540   2.532 -0.3974  0.0125  0.3290
 1585SOL    HW2 6413   2.326   3.580   2.543  0.2218 -0.7922 -1.4575
 1585SOL    HW3 6414   2.241   3.463   2.588  0.3766 -0.4987 -0.3908
 1585SOL    MW4 6415   2.251   3.535   2.541 -0.2136 -0.1609 -0.0014
 1586SOL     OW 6416   2.508   3.578   2.630  0.1727  0.5244 -0.2002
 1586SOL    HW2 6417   2.487   3.608   2.718  0.6472  0.3735 -0.0395
 1586SOL    HW3 6418   2.526   3.659   2.581 -0.6838  0.6531 -0.3177
 1586SOL    MW4 6419   2.508   3.593   2.635  0.1223  0.5214 -0.1945
 1587SOL     OW 6420   2.493   3.838   2.517 -0.4371  0.1867 -0.0843
 1587SOL    HW2 6421   2.556   3.885   2.572 -1.0311  0.2227  0.5744
 1587SOL    HW3 6422   2.408   3.878   2.537 -0.6816  0.1051 -0.9322
 1587SOL    MW4 6423   2.490   3.849   2.527 -0.5476  0.1807 -0.1094
 1588SOL     OW 6424   2.239   3.945   2.589 -0.1520 -0.1780 -0.6278
 1588SOL    HW2 6425   2.245   3.959   2.684 -1.1780  0.3603 -0.6365
 1588SOL    HW3 6426   2.146   3.926   2.573 -0.1058  0.4015 -1.6123
 1588SOL    MW4 6427   2.227   3.944   2.599 -0.2811 -0.0308 -0.7589
 1589SOL     OW 6428   2.254   4.241   2.558 -0.2685 -0.1041  0.4409
 1589SOL    HW2 6429   2.258   4.146   2.572  0.4737 -0.0407  0.6998
 1589SOL    HW3 6430   2.169   4.267   2.594 -0.2240 -0.5835  0.9017
 1589SOL    MW4 6431   2.243   4.232   2.564 -0.1643 -0.1583  0.5357
 1590SOL     OW 6432   2.485   4.376   2.655  0.0602  0.0475  0.3587
 1590SOL    HW2 6433   2.413   4.341   2.604 -1.0940 -0.9839  2.6345
 1590SOL    HW3 6434   2.492   4.468   2.627 -1.7023 -0.0242 -0.3516
 1590SOL    MW4 6435   2.476   4.384   2.644 -0.3245 -0.0978  0.5653
 1591SOL     OW 6436   2.902   4.600   2.547 -0.3148  0.8877 -0.3894
 1591SOL    HW2 6437   2.990   4.637   2.557  0.7756 -0.8051 -3.2432
 1591SOL    HW3 6438   2.888   4.598   2.453 -1.4035 -3.4858 -0.2091
 1591SOL    MW4 6439   2.912   4.605   2.536 -0.3145  0.0877 -0.7422
 1592SOL     OW 6440   2.717   0.131   2.630  0.1273 -0.0157 -0.7264
 1592SOL    HW2 6441   2.691   0.125   2.722 -0.7810 -0.2457 -0.9906
 1592SOL    HW3 6442   2.784   0.063   2.620  0.9380  0.6552 -0.0121
 1592SOL    MW4 6443   2.722   0.121   2.641  0.1147  0.0425 -0.6671
 1593SOL     OW 6444   2.708   0.402   2.523  0.1688  0.3002 -0.2148
 1593SOL    HW2 6445   2.714   0.322   2.575  1.7030 -0.1609 -1.0676
 1593SOL    HW3 6446   2.624   0.440   2.548 -0.0142 -0.9216  1.1327
 1593SOL    MW4 6447   2.698   0.396   2.534  0.3471  0.0781 -0.1497
 1594SOL     OW 6448   2.935   0.506   2.620  0.1788 -0.7536 -0.2010
 1594SOL    HW2 6449   2.940   0.593   2.581  0.6876 -0.1527  1.1774
 1594SOL    HW3 6450   2.850   0.472   2.592 -0.4395  0.5673  0.0448
 1594SOL    MW4 6451   2.925   0.513   2.611  0.1645 -0.5001  0.0134
 1595SOL     OW 6452   2.900   0.770   2.527  0.0584 -0.0883  0.5488
 1595SOL    HW2 6453   2.978   0.818   2.552 -1.1096  1.6336  0.9711
 1595SOL    HW3 6454   2.828   0.818   2.567 -1.3034 -1.1007 -0.6069
 1595SOL    MW4 6455   2.900   0.783   2.535 -0.2754  0.0052  0.4520
 1596SOL     OW 6456   2.691   0.937   2.625 -0.6204 -0.0855  0.0137
 1596SOL    HW2 6457   2.682   0.932   2.720 -1.4639  0.9256  0.0002
 1596SOL    HW3 6458   2.615   0.889   2.592 -0.6643  0.0872 -0.1384
 1596SOL    MW4 6459   2.680   0.930   2.633 -0.7374  0.0706 -0.0083
 1597SOL     OW 6460   2.699   1.203   2.552  0.2448 -0.5741 -0.1242
 1597SOL    HW2 6461   2.783   1.249   2.560  0.5551 -1.0794 -0.4179
 1597SOL    HW3 6462   2.714   1.119   2.594 -0.3023 -0.4357  0.3554
 1597SOL    MW4 6463   2.712   1.198   2.558  0.2136 -0.6225 -0.0999
 1598SOL     OW 6464   2.947   1.303   2.608 -0.5407  0.4001  0.6211
 1598SOL    HW2 6465   2.925   1.324   2.698 -1.4254  0.9245  0.2902
 1598SOL    HW3 6466   3.025   1.247   2.614  0.1482  1.4569  1.6435
 1598SOL    MW4 6467   2.955   1.298   2.621 -0.5667  0.6088  0.7124
 1599SOL     OW 6468   2.918   1.545   2.495 -0.1661 -0.6219  0.4658
 1599SOL    HW2 6469   2.857   1.590   2.552 -0.5598 -2.1073  1.2297
 1599SOL    HW3 6470   2.932   1.460   2.536  1.8876 -0.5637 -0.0508
 1599SOL    MW4 6471   2.912   1.540   2.508  0.0529 -0.8101  0.4985
 1600SOL     OW 6472   2.710   1.658   2.637 -0.0619 -0.0631  0.2297
 1600SOL    HW2 6473   2.701   1.642   2.731 -1.3496  1.1816  0.3479
 1600SOL    HW3 6474   2.623   1.641   2.602  0.3425 -0.2343 -0.6848
 1600SOL    MW4 6475   2.698   1.654   2.645 -0.1783  0.0786  0.1247
 1601SOL     OW 6476   2.683   1.909   2.520 -0.6945 -0.2430 -0.4546
 1601SOL    HW2 6477   2.695   1.824   2.561 -0.9610 -0.4161 -0.7368
 1601SOL    HW3 6478   2.609   1.948   2.566 -0.3930 -0.0451 -0.1337
 1601SOL    MW4 6479   2.675   1.903   2.532 -0.6900 -0.2397 -0.4492
 1602SOL     OW 6480   2.884   2.053   2.662 -0.1201  0.7357 -0.5674
 1602SOL    HW2 6481   2.883   2.143   2.629 -0.8570  1.3557  1.1017
 1602SOL    HW3 6482   2.814   2.009   2.613 -0.4953  1.3586 -0.5877
 1602SOL    MW4 6483   2.874   2.059   2.651 -0.2666  0.8996 -0.3498
 1603SOL     OW 6484   2.897   2.310   2.561 -0.1977  0.3773 -0.5547
 1603SOL    HW2 6485   2.974   2.353   2.598  0.6805 -1.5237 -0.1392
 1603SOL    HW3 6486   2.823   2.361   2.594  0.8162  1.5326 -0.0433
 1603SOL    MW4 6487   2.897   2.323   2.570  0.0520  0.2787 -0.4325
 1604SOL     OW 6488   2.696   2.488   2.638  0.4938 -0.2896  0.5347
 1604SOL    HW2 6489   2.706   2.485   2.733 -2.5771 -0.3283  0.9147
 1604SOL    HW3 6490   2.698   2.582   2.616 -1.7453 -0.0730  1.0682
 1604SOL    MW4 6491   2.697   2.500   2.647 -0.2069 -0.2661  0.6549
 1605SOL     OW 6492   2.642   2.743   2.550 -0.0684 -0.1699  0.5145
 1605SOL    HW2 6493   2.726   2.783   2.572  0.2356 -0.3240 -0.3660
 1605SOL    HW3 6494   2.634   2.752   2.455 -0.7431 -0.7471  0.5068
 1605SOL    MW4 6495   2.652   2.750   2.541 -0.1175 -0.2666  0.3972
 1606SOL     OW 6496   2.890   2.849   2.639 -0.2701 -0.4691 -0.2898
 1606SOL    HW2 6497   2.905   2.838   2.733 -0.3321  1.1084 -0.0863
 1606SOL    HW3 6498   2.968   2.812   2.598 -0.7570 -2.2489  0.3095
 1606SOL    MW4 6499   2.902   2.843   2.646 -0.3424 -0.4957 -0.1838
 1607SOL     OW 6500   2.896   3.107   2.532  0.0651 -0.2256 -0.1128
 1607SOL    HW2 6501   2.856   3.175   2.587  2.0654  0.7312  0.2332
 1607SOL    HW3 6502   2.898   3.030   2.588 -0.2696  0.0340  0.2627
 1607SOL    MW4 6503   2.891   3.106   2.547  0.2849 -0.0648 -0.0174
 1608SOL     OW 6504   2.788   3.333   2.661  0.1315  0.2667  0.1235
 1608SOL    HW2 6505   2.830   3.419   2.661 -0.2948  0.4736 -0.4578
 1608SOL    HW3 6506   2.706   3.346   2.613  0.1296 -0.4963 -0.0806
 1608SOL    MW4 6507   2.783   3.346   2.655  0.0751  0.1934  0.0198
 1609SOL     OW 6508   2.564   3.340   2.487 -0.3982  0.2642 -0.0081
 1609SOL    HW2 6509   2.535   3.415   2.539 -0.3851  0.4191 -0.2238
 1609SOL    HW3 6510   2.594   3.379   2.405 -0.0378  0.0594  0.0270
 1609SOL    MW4 6511   2.564   3.355   2.483 -0.3493  0.2573 -0.0319
 1610SOL     OW 6512   2.905   3.595   2.655  0.1975 -0.0555  0.0667
 1610SOL    HW2 6513   2.931   3.616   2.744  0.9863  1.3263 -0.4748
 1610SOL    HW3 6514   2.985   3.561   2.614  0.1737  0.5639 -0.4939
 1610SOL    MW4 6515   2.919   3.593   2.661  0.2983  0.2086 -0.0787
 1611SOL     OW 6516   2.909   3.846   2.522 -0.1618  0.0716 -0.2895
 1611SOL    HW2 6517   2.971   3.892   2.579  0.9057  0.2031 -1.5273
 1611SOL    HW3 6518   2.886   3.767   2.570 -0.3571  0.8450  0.9275
 1611SOL    MW4 6519   2.914   3.842   2.536 -0.0470  0.1910 -0.2923
 1612SOL     OW 6520   2.696   3.984   2.649  0.3305 -0.1412  0.5046
 1612SOL    HW2 6521   2.698   4.070   2.609 -0.6008 -1.0652 -1.5875
 1612SOL    HW3 6522   2.767   3.936   2.607 -0.2680 -0.9379  0.3978
 1612SOL    MW4 6523   2.705   3.989   2.638  0.1287 -0.3684  0.2143
 1613SOL     OW 6524   2.703   4.228   2.537  0.6793 -0.2016  0.4997
 1613SOL    HW2 6525   2.769   4.274   2.590 -0.0019  2.5240 -0.9346
 1613SOL    HW3 6526   2.619   4.257   2.573  0.2237  0.6769 -1.2313
 1613SOL    MW4 6527   2.701   4.238   2.549  0.5293  0.2742  0.0820
 1614SOL     OW 6528   2.874   4.354   2.677  0.2713 -0.0539 -0.1011
 1614SOL    HW2 6529   2.877   4.376   2.770  1.8560  0.9352 -0.3754
 1614SOL    HW3 6530   2.868   4.438   2.632  0.0939 -0.5021 -0.9279
 1614SOL    MW4 6531   2.874   4.368   2.683  0.4570  0.0176 -0.2463
 1615SOL     OW 6532   3.356   4.604   2.552 -0.4775 -0.0187  0.1023
 1615SOL    HW2 6533   3.357   4.516   2.590  0.1861  0.3521  0.9597
 1615SOL    HW3 6534   3.287   4.650   2.599  0.5479  0.5324  1.0848
 1615SOL    MW4 6535   3.347   4.598   2.563 -0.2546  0.1030  0.3450
 1616SOL     OW 6536   3.143   0.069   2.640  0.2192 -0.1145 -0.1599
 1616SOL    HW2 6537   3.161   0.084   2.733 -0.1347 -0.6325 -0.0103
 1616SOL    HW3 6538   3.139   0.157   2.602  1.0114  0.0815  0.1923
 1616SOL    MW4 6539   3.145   0.082   2.647  0.2773 -0.1570 -0.0937
 1617SOL     OW 6540   3.125   0.325   2.535 -0.6519 -0.4878 -0.2701
 1617SOL    HW2 6541   3.046   0.373   2.559 -1.5307 -2.2746  0.5689
 1617SOL    HW3 6542   3.125   0.325   2.439 -0.8634  0.8006 -0.2713
 1617SOL    MW4 6543   3.115   0.331   2.526 -0.7956 -0.5535 -0.1595
 1618SOL     OW 6544   3.348   0.483   2.661 -0.1522 -0.6016  0.0903
 1618SOL    HW2 6545   3.363   0.575   2.637  1.4605 -1.2090 -1.3354
 1618SOL    HW3 6546   3.273   0.456   2.607  0.4671 -0.6036 -0.7844
 1618SOL    MW4 6547   3.340   0.492   2.650  0.1423 -0.6821 -0.2131
 1619SOL     OW 6548   3.378   0.736   2.567 -0.1522 -0.3564  0.3388
 1619SOL    HW2 6549   3.433   0.806   2.603  1.5546 -1.0312 -0.8764
 1619SOL    HW3 6550   3.402   0.732   2.474 -1.0892 -1.7635  0.1392
 1619SOL    MW4 6551   3.389   0.744   2.559 -0.0510 -0.6312  0.1521
 1620SOL     OW 6552   3.144   0.871   2.621  0.5573 -0.0980 -0.0136
 1620SOL    HW2 6553   3.139   0.877   2.716 -1.3194 -2.1098  0.0379
 1620SOL    HW3 6554   3.220   0.815   2.605 -0.1122 -1.1246  0.3609
 1620SOL    MW4 6555   3.154   0.865   2.631  0.2215 -0.4990  0.0424
 1621SOL     OW 6556   3.157   1.139   2.566  0.1292 -0.0224  0.0133
 1621SOL    HW2 6557   3.158   1.045   2.586 -1.0935 -0.1482 -0.5118
 1621SOL    HW3 6558   3.144   1.143   2.471 -1.5767  0.6973  0.2649
 1621SOL    MW4 6559   3.156   1.127   2.556 -0.2570  0.0559 -0.0231
 1622SOL     OW 6560   3.387   1.260   2.601  0.0413  0.3960  0.0545
 1622SOL    HW2 6561   3.398   1.277   2.694 -0.4256 -0.2886  0.2366
 1622SOL    HW3 6562   3.312   1.201   2.596  0.2528  0.1909 -0.7311
 1622SOL    MW4 6563   3.379   1.255   2.612  0.0074  0.2786 -0.0250
 1623SOL     OW 6564   3.375   1.506   2.493 -0.2470  0.4961 -0.3528
 1623SOL    HW2 6565   3.296   1.548   2.529 -0.1529  0.3407  0.0349
 1623SOL    HW3 6566   3.378   1.421   2.536  0.6747  0.8861  0.3620
 1623SOL    MW4 6567   3.365   1.501   2.503 -0.1132  0.5270 -0.2074
 1624SOL     OW 6568   3.165   1.652   2.606 -0.3724  0.2081  0.2055
 1624SOL    HW2 6569   3.146   1.744   2.589 -1.1728 -0.0523 -0.3533
 1624SOL    HW3 6570   3.083   1.606   2.585 -0.3392 -0.5006  1.5765
 1624SOL    MW4 6571   3.152   1.658   2.601 -0.4737  0.0802  0.3126
 1625SOL     OW 6572   3.112   1.906   2.528  0.0995  0.3172 -0.0924
 1625SOL    HW2 6573   3.185   1.956   2.565 -0.1880  1.1739 -0.6704
 1625SOL    HW3 6574   3.034   1.946   2.566 -0.2870  2.0503 -2.5102
 1625SOL    MW4 6575   3.112   1.918   2.538  0.0105  0.6590 -0.4876
 1626SOL     OW 6576   3.351   2.046   2.610 -0.1017  0.3818 -0.1522
 1626SOL    HW2 6577   3.360   2.044   2.705  2.1456 -0.0167 -0.3314
 1626SOL    HW3 6578   3.348   2.139   2.588 -1.2601  0.4649  0.3525
 1626SOL    MW4 6579   3.352   2.058   2.620  0.0422  0.3402 -0.1092
 1627SOL     OW 6580   3.344   2.309   2.551 -0.1273 -0.0571  0.2500
 1627SOL    HW2 6581   3.419   2.365   2.569  0.0174 -0.1646 -0.0017
 1627SOL    HW3 6582   3.341   2.303   2.455  0.0046 -0.6712  0.2833
 1627SOL    MW4 6583   3.353   2.315   2.541 -0.0908 -0.1521  0.2210
 1628SOL     OW 6584   3.137   2.470   2.642  0.4569  0.4376 -0.3237
 1628SOL    HW2 6585   3.134   2.455   2.736  1.6271  2.6925  0.0982
 1628SOL    HW3 6586   3.210   2.416   2.611  1.2078  1.0695  0.3391
 1628SOL    MW4 6587   3.147   2.461   2.650  0.7102  0.8187 -0.1805
 1629SOL     OW 6588   3.115   2.734   2.524 -0.7548 -0.5550 -0.5889
 1629SOL    HW2 6589   3.120   2.651   2.572 -0.1525 -0.0282  0.2898
 1629SOL    HW3 6590   3.198   2.777   2.544 -1.6287  0.8553  0.0792
 1629SOL    MW4 6591   3.127   2.729   2.533 -0.7908 -0.2992 -0.3848
 1630SOL     OW 6592   3.355   2.849   2.615  0.3467 -0.1583 -0.4649
 1630SOL    HW2 6593   3.346   2.860   2.710 -1.1108 -1.0206 -0.4913
 1630SOL    HW3 6594   3.423   2.782   2.605  0.1991 -0.3783 -0.0167
 1630SOL    MW4 6595   3.363   2.842   2.626  0.1349 -0.3009 -0.4091
 1631SOL     OW 6596   3.347   3.094   2.508  0.1960 -0.2989  0.6044
 1631SOL    HW2 6597   3.357   3.004   2.541  0.3413 -0.7688 -0.6662
 1631SOL    HW3 6598   3.339   3.083   2.413  0.5809  1.0751  0.4095
 1631SOL    MW4 6599   3.347   3.080   2.500  0.2658 -0.1793  0.4108
 1632SOL     OW 6600   3.134   3.236   2.618  0.0660 -0.6270 -0.3404
 1632SOL    HW2 6601   3.199   3.191   2.565 -0.0053 -1.1747  0.0306
 1632SOL    HW3 6602   3.050   3.212   2.578  0.0873 -0.0008 -0.7594
 1632SOL    MW4 6603   3.131   3.227   2.606  0.0594 -0.6168 -0.3467
 1633SOL     OW 6604   3.152   3.520   2.570 -0.2042 -0.3316 -0.3052
 1633SOL    HW2 6605   3.239   3.554   2.591 -0.5350 -0.2589  0.9468
 1633SOL    HW3 6606   3.160   3.426   2.585 -0.2270 -0.3799 -0.5939
 1633SOL    MW4 6607   3.165   3.512   2.574 -0.2508 -0.3285 -0.1781
 1634SOL     OW 6608   3.401   3.609   2.645 -0.2692 -0.1817 -0.1811
 1634SOL    HW2 6609   3.401   3.595   2.740  1.3417 -0.5887 -0.2310
 1634SOL    HW3 6610   3.379   3.702   2.635 -0.9987 -0.2687  0.5673
 1634SOL    MW4 6611   3.398   3.620   2.656 -0.1531 -0.2468 -0.0887
 1635SOL     OW 6612   3.351   3.883   2.596  0.0292 -0.0525 -0.2529
 1635SOL    HW2 6613   3.428   3.913   2.643 -1.0097  2.1203  0.1622
 1635SOL    HW3 6614   3.374   3.893   2.503 -0.2472  2.0418 -0.1286
 1635SOL    MW4 6615   3.364   3.888   2.590 -0.1442  0.5105 -0.1817
 1636SOL     OW 6616   3.096   3.983   2.677  0.7031 -0.2002 -0.0700
 1636SOL    HW2 6617   3.119   4.074   2.656 -2.2722  0.1018 -2.3617
 1636SOL    HW3 6618   3.167   3.931   2.639  0.4874  0.9671 -2.1536
 1636SOL    MW4 6619   3.108   3.988   2.669  0.2820 -0.0064 -0.6475
 1637SOL     OW 6620   3.125   4.257   2.596  0.5605  0.1018  0.1781
 1637SOL    HW2 6621   3.034   4.270   2.623  0.8751  1.4613  0.6343
 1637SOL    HW3 6622   3.121   4.252   2.500  0.0833  0.8492  0.1541
 1637SOL    MW4 6623   3.112   4.258   2.587  0.5391  0.3800  0.2348
 1638SOL     OW 6624   3.381   4.360   2.665 -0.4367  0.3526 -0.3862
 1638SOL    HW2 6625   3.387   4.381   2.758  1.0457  3.6863 -1.1595
 1638SOL    HW3 6626   3.289   4.339   2.650 -1.1191  1.9843  1.4136
 1638SOL    MW4 6627   3.370   4.360   2.675 -0.3312  1.0080 -0.2508
 1639SOL     OW 6628   3.789   4.654   2.529  0.5362  0.8621 -0.0760
 1639SOL    HW2 6629   3.789   4.564   2.560  2.4065  1.2529  1.1745
 1639SOL    HW3 6630   3.710   4.693   2.566  0.4108  0.0954  0.4687
 1639SOL    MW4 6631   3.779   4.648   2.538  0.7663  0.8125  0.1609
 1640SOL     OW 6632   3.563   0.084   2.664  0.2261  0.2087 -0.2755
 1640SOL    HW2 6633   3.561   0.179   2.651  1.1229  0.3297  0.3600
 1640SOL    HW3 6634   3.478   0.053   2.633  0.0836  1.1714 -0.8707
 1640SOL    MW4 6635   3.552   0.093   2.658  0.3257  0.3517 -0.2701
 1641SOL     OW 6636   3.576   0.339   2.565  0.0677  0.4044  0.0881
 1641SOL    HW2 6637   3.655   0.386   2.591 -0.1485  0.0102  1.5211
 1641SOL    HW3 6638   3.504   0.398   2.589 -0.1205  0.3105 -0.2377
 1641SOL    MW4 6639   3.577   0.353   2.572  0.0145  0.3400  0.2341
 1642SOL     OW 6640   3.819   0.473   2.632  0.0582 -0.1662  0.1882
 1642SOL    HW2 6641   3.816   0.464   2.727 -0.2274 -1.4792  0.0607
 1642SOL    HW3 6642   3.900   0.430   2.606 -0.0692 -0.1753 -0.1970
 1642SOL    MW4 6643   3.829   0.466   2.641  0.0038 -0.3406  0.1206
 1643SOL     OW 6644   3.842   0.726   2.526  0.3108  0.5807  0.2737
 1643SOL    HW2 6645   3.760   0.762   2.561 -0.0391  2.2753 -2.1976
 1643SOL    HW3 6646   3.842   0.635   2.556 -2.1216  0.7516  0.9117
 1643SOL    MW4 6647   3.831   0.719   2.535 -0.0565  0.8269  0.0317
 1644SOL     OW 6648   3.630   0.855   2.634 -0.3789  0.0383  0.6283
 1644SOL    HW2 6649   3.623   0.871   2.728 -0.3482  0.3379  0.5784
 1644SOL    HW3 6650   3.628   0.942   2.594  0.5869 -0.0323  0.4205
 1644SOL    MW4 6651   3.629   0.868   2.641 -0.2475  0.0685  0.5944
 1645SOL     OW 6652   3.607   1.114   2.546  0.1033 -0.3318 -0.2886
 1645SOL    HW2 6653   3.684   1.157   2.584  0.0970  0.3664 -1.0489
 1645SOL    HW3 6654   3.532   1.160   2.583  0.0470 -0.9052  0.3251
 1645SOL    MW4 6655   3.608   1.126   2.556  0.0954 -0.3153 -0.3080
 1646SOL     OW 6656   3.848   1.272   2.622  0.1826 -0.2302 -0.1360
 1646SOL    HW2 6657   3.913   1.251   2.555 -1.4747 -0.3432 -1.7142
 1646SOL    HW3 6658   3.812   1.356   2.595 -0.3808 -0.1943  0.7120
 1646SOL    MW4 6659   3.852   1.281   2.610 -0.1104 -0.2403 -0.2322
 1647SOL     OW 6660   3.812   1.528   2.531  0.2174 -0.1479 -0.2890
 1647SOL    HW2 6661   3.889   1.575   2.562 -1.0560  0.9499  1.2766
 1647SOL    HW3 6662   3.738   1.575   2.569 -1.1244 -2.9560  0.6934
 1647SOL    MW4 6663   3.813   1.540   2.540 -0.1278 -0.3735  0.0474
 1648SOL     OW 6664   3.583   1.641   2.590  0.2794 -0.3365 -0.1143
 1648SOL    HW2 6665   3.569   1.736   2.579 -0.1354 -0.4404 -0.5138
 1648SOL    HW3 6666   3.510   1.601   2.542  1.3076 -0.8916 -1.2341
 1648SOL    MW4 6667   3.571   1.649   2.582  0.3603 -0.4234 -0.3147
 1649SOL     OW 6668   3.599   1.918   2.539  0.7959 -0.0782 -0.1198
 1649SOL    HW2 6669   3.512   1.951   2.559  0.3936 -1.0121 -0.2946
 1649SOL    HW3 6670   3.600   1.907   2.444  1.2963  0.4466 -0.1813
 1649SOL    MW4 6671   3.588   1.921   2.529  0.8090 -0.1323 -0.1509
 1650SOL     OW 6672   3.806   2.070   2.654 -0.0124 -0.1223  0.2579
 1650SOL    HW2 6673   3.888   2.033   2.622  0.0781  1.3623 -1.3026
 1650SOL    HW3 6674   3.737   2.015   2.617  0.1965  0.0380 -0.3703
 1650SOL    MW4 6675   3.808   2.058   2.645  0.0269  0.0944 -0.0308
 1651SOL     OW 6676   3.773   2.311   2.535 -0.8603  0.1591  0.1224
 1651SOL    HW2 6677   3.786   2.223   2.569  2.0549  0.2038 -0.7293
 1651SOL    HW3 6678   3.767   2.300   2.440  1.9399  1.0671 -0.2045
 1651SOL    MW4 6679   3.774   2.298   2.527 -0.1059  0.2849 -0.0329
 1652SOL     OW 6680   3.557   2.472   2.616  0.4266 -0.3942 -0.1019
 1652SOL    HW2 6681   3.565   2.456   2.710  2.8484  0.4026 -0.1523
 1652SOL    HW3 6682   3.625   2.418   2.576 -0.3887 -0.4981 -1.3874
 1652SOL    MW4 6683   3.567   2.463   2.623  0.6382 -0.3028 -0.2780
 1653SOL     OW 6684   3.596   2.729   2.526 -0.1982  0.0487  0.4571
 1653SOL    HW2 6685   3.585   2.643   2.567 -0.1303  0.0957  0.5723
 1653SOL    HW3 6686   3.588   2.711   2.432 -1.0254  0.0453  0.5253
 1653SOL    MW4 6687   3.593   2.715   2.519 -0.2983  0.0546  0.4814
 1654SOL     OW 6688   3.836   2.841   2.621 -0.2667  0.2078 -0.0810
 1654SOL    HW2 6689   3.900   2.782   2.581  0.7923  1.5619 -0.4288
 1654SOL    HW3 6690   3.756   2.827   2.570  0.6794  0.9158 -1.8218
 1654SOL    MW4 6691   3.834   2.831   2.609 -0.0021  0.4797 -0.3567
 1655SOL     OW 6692   3.818   3.107   2.498 -0.2320  0.1669  0.3857
 1655SOL    HW2 6693   3.736   3.143   2.532 -0.0825 -0.1600  1.1052
 1655SOL    HW3 6694   3.814   3.014   2.522  0.4621  0.2030  0.6489
 1655SOL    MW4 6695   3.807   3.099   2.506 -0.1206  0.1285  0.5150
 1656SOL     OW 6696   3.584   3.221   2.608  0.1059 -0.5979 -0.0460
 1656SOL    HW2 6697   3.509   3.176   2.570  0.6167 -0.2220 -1.5612
 1656SOL    HW3 6698   3.557   3.243   2.697 -1.4371 -0.7944 -0.4569
 1656SOL    MW4 6699   3.571   3.218   2.615 -0.0303 -0.5741 -0.3002
 1657SOL     OW 6700   3.611   3.485   2.527 -0.2563  0.0817 -0.2268
 1657SOL    HW2 6701   3.609   3.393   2.554 -2.1107 -0.2047 -1.3019
 1657SOL    HW3 6702   3.537   3.526   2.572 -0.6417  0.6067 -1.3258
 1657SOL    MW4 6703   3.601   3.478   2.536 -0.5517  0.1132 -0.5136
 1658SOL     OW 6704   3.831   3.588   2.643 -0.0851 -0.0131  0.1702
 1658SOL    HW2 6705   3.747   3.550   2.617 -0.0820  0.5411 -0.6702
 1658SOL    HW3 6706   3.896   3.543   2.589 -0.1382  1.5526 -1.2509
 1658SOL    MW4 6707   3.829   3.577   2.633 -0.0920  0.2663 -0.1280
 1659SOL     OW 6708   3.792   3.828   2.503  0.0596  0.2613  0.4645
 1659SOL    HW2 6709   3.862   3.876   2.546 -0.1389  0.6465  0.3685
 1659SOL    HW3 6710   3.807   3.736   2.525  1.0033  0.2687 -0.1493
 1659SOL    MW4 6711   3.803   3.822   2.512  0.1581  0.3133  0.3710
 1660SOL     OW 6712   3.614   3.951   2.655 -0.5423 -0.5548  0.2953
 1660SOL    HW2 6713   3.604   4.037   2.614 -1.1089  0.0399  1.6314
 1660SOL    HW3 6714   3.668   3.901   2.594  0.2591  0.9297 -0.2361
 1660SOL    MW4 6715   3.619   3.956   2.641 -0.5114 -0.2804  0.4015
 1661SOL     OW 6716   3.623   4.217   2.559 -0.1532 -0.0172 -0.2048
 1661SOL    HW2 6717   3.551   4.222   2.622 -0.2060  1.0482 -0.3411
 1661SOL    HW3 6718   3.581   4.228   2.474  0.0057 -0.7861 -0.3878
 1661SOL    MW4 6719   3.608   4.219   2.556 -0.1392  0.0215 -0.2468
 1662SOL     OW 6720   3.832   4.388   2.633 -0.5519 -0.1634  0.8354
 1662SOL    HW2 6721   3.825   4.395   2.728 -0.3773 -0.8614  0.9067
 1662SOL    HW3 6722   3.759   4.331   2.608  0.2887 -1.2112  0.7247
 1662SOL    MW4 6723   3.822   4.381   2.643 -0.4177 -0.3939  0.8299
 1663SOL     OW 6724   4.287   4.629   2.515  0.5426  0.2663 -0.1237
 1663SOL    HW2 6725   4.210   4.658   2.564 -0.1570  0.9972 -1.6396
 1663SOL    HW3 6726   4.357   4.689   2.542  0.0201  1.0244 -0.4379
 1663SOL    MW4 6727   4.287   4.640   2.525  0.3810  0.4625 -0.3650
 1664SOL     OW 6728   4.036   0.070   2.587 -0.1188  0.4641  0.3543
 1664SOL    HW2 6729   4.016   0.073   2.681  0.1286  0.1831  0.4176
 1664SOL    HW3 6730   3.956   0.036   2.547  0.1950 -0.5780  0.5984
 1664SOL    MW4 6731   4.023   0.066   2.594 -0.0443  0.2895  0.3948
 1665SOL     OW 6732   4.044   0.339   2.549  0.1073  0.0006  0.1968
 1665SOL    HW2 6733   4.043   0.244   2.557 -0.0851  0.0044  0.2211
 1665SOL    HW3 6734   4.050   0.355   2.455 -0.7125 -0.0339  0.1349
 1665SOL    MW4 6735   4.044   0.329   2.537 -0.0262 -0.0035  0.1922
 1666SOL     OW 6736   4.243   0.514   2.610 -0.1001  0.7882 -0.3934
 1666SOL    HW2 6737   4.172   0.450   2.602  0.4681 -0.2170  2.0113
 1666SOL    HW3 6738   4.321   0.467   2.579 -0.1198  1.2077 -1.0921
 1666SOL    MW4 6739   4.244   0.499   2.605 -0.0277  0.7109 -0.1683
 1667SOL     OW 6740   4.243   0.793   2.523  0.0442 -0.5470 -0.1832
 1667SOL    HW2 6741   4.240   0.701   2.548  0.5625 -0.3173  0.7325
 1667SOL    HW3 6742   4.237   0.792   2.427  0.0823 -1.5303 -0.1794
 1667SOL    MW4 6743   4.242   0.781   2.514  0.1178 -0.6464 -0.0620
 1668SOL     OW 6744   4.022   0.903   2.653  0.0613 -0.1628 -0.4247
 1668SOL    HW2 6745   4.102   0.872   2.611  0.3413 -0.3525  0.2403
 1668SOL    HW3 6746   3.956   0.839   2.628 -0.1651  0.6361 -1.9579
 1668SOL    MW4 6747   4.024   0.891   2.644  0.0687 -0.0824 -0.5391
 1669SOL     OW 6748   4.046   1.126   2.501  0.1638 -0.4746 -0.0261
 1669SOL    HW2 6749   4.107   1.173   2.557 -0.6773  0.2093  0.3229
 1669SOL    HW3 6750   4.034   1.041   2.543 -0.4694  0.0361  0.8471
 1669SOL    MW4 6751   4.052   1.121   2.514 -0.0310 -0.3171  0.1352
 1670SOL     OW 6752   4.210   1.265   2.654  0.4215 -0.1206 -0.5283
 1670SOL    HW2 6753   4.214   1.360   2.646  1.1921 -0.1143 -0.1650
 1670SOL    HW3 6754   4.290   1.234   2.610  1.2968 -0.4692  1.2698
 1670SOL    MW4 6755   4.221   1.273   2.647  0.6380 -0.1657 -0.2429
 1671SOL     OW 6756   4.254   1.559   2.576 -0.0579 -0.6205  0.0727
 1671SOL    HW2 6757   4.340   1.595   2.598  0.9410 -1.7974 -1.7697
 1671SOL    HW3 6758   4.259   1.538   2.483 -2.1298 -1.3172  0.0707
 1671SOL    MW4 6759   4.266   1.561   2.567 -0.1998 -0.8677 -0.1705
 1672SOL     OW 6760   4.029   1.692   2.629 -0.7353  0.2471 -0.3685
 1672SOL    HW2 6761   4.024   1.709   2.723 -0.7015 -1.1493 -0.1088
 1672SOL    HW3 6762   4.117   1.656   2.615 -1.1551 -0.6246 -0.7613
 1672SOL    MW4 6763   4.040   1.690   2.639 -0.7868 -0.0522 -0.3860
 1673SOL     OW 6764   4.020   1.960   2.528 -0.0348  0.0073 -0.0381
 1673SOL    HW2 6765   4.107   1.990   2.556  0.0794 -0.0883 -0.2937
 1673SOL    HW3 6766   4.016   1.869   2.558  0.8677 -0.7228 -2.0930
 1673SOL    MW4 6767   4.031   1.952   2.536  0.0992 -0.1016 -0.3428
 1674SOL     OW 6768   4.261   2.045   2.662 -0.0838  0.1801  0.3210
 1674SOL    HW2 6769   4.263   2.122   2.605  0.5800 -0.3656 -0.4032
 1674SOL    HW3 6770   4.328   1.987   2.626 -0.5226 -0.7001  0.9157
 1674SOL    MW4 6771   4.270   2.048   2.650 -0.0544 -0.0079  0.3042
 1675SOL     OW 6772   4.256   2.286   2.528 -0.0333  0.2381  0.3774
 1675SOL    HW2 6773   4.187   2.346   2.553 -0.1534 -0.0414  0.7200
 1675SOL    HW3 6774   4.251   2.281   2.432  0.2256  1.0663  0.3106
 1675SOL    MW4 6775   4.246   2.293   2.518 -0.0153  0.3102  0.4134
 1676SOL     OW 6776   4.024   2.426   2.625 -0.5450  0.6059  0.0236
 1676SOL    HW2 6777   4.031   2.417   2.720  0.0094  0.2544 -0.0466
 1676SOL    HW3 6778   3.943   2.382   2.601  1.1989 -2.6575 -0.1097
 1676SOL    MW4 6779   4.015   2.419   2.634 -0.2418  0.1290 -0.0029
 1677SOL     OW 6780   4.016   2.671   2.505 -0.2042 -0.3664  0.1112
 1677SOL    HW2 6781   4.089   2.719   2.545 -1.0753  0.8017  0.3392
 1677SOL    HW3 6782   4.017   2.586   2.550  0.9873 -0.3594  0.1355
 1677SOL    MW4 6783   4.026   2.666   2.516 -0.1616 -0.2112  0.1447
 1678SOL     OW 6784   4.234   2.826   2.617  0.1219 -0.3480 -0.1841
 1678SOL    HW2 6785   4.244   2.831   2.712 -1.2959 -0.9329  0.0138
 1678SOL    HW3 6786   4.237   2.917   2.588  0.3067 -0.1477  0.4557
 1678SOL    MW4 6787   4.236   2.839   2.626 -0.0405 -0.3984 -0.0739
 1679SOL     OW 6788   4.254   3.096   2.529 -0.3242 -0.0589  0.0240
 1679SOL    HW2 6789   4.168   3.133   2.550 -1.1658 -1.5398 -0.7963
 1679SOL    HW3 6790   4.255   3.089   2.434  1.0393  0.7207 -0.0367
 1679SOL    MW4 6791   4.243   3.100   2.519 -0.2546 -0.1512 -0.0923
 1680SOL     OW 6792   4.031   3.207   2.639 -0.1356 -0.0374  0.2987
 1680SOL    HW2 6793   4.055   3.279   2.582 -0.5804  0.4722  0.7459
 1680SOL    HW3 6794   3.945   3.180   2.609  0.1237 -0.5293 -0.0088
 1680SOL    MW4 6795   4.023   3.213   2.628 -0.1602 -0.0348  0.3171
 1681SOL     OW 6796   4.026   3.443   2.508  0.4049  0.0946  0.0031
 1681SOL    HW2 6797   4.090   3.506   2.540  1.5609 -1.2430  0.3924
 1681SOL    HW3 6798   4.025   3.456   2.413  0.5516  0.7637  0.0889
 1681SOL    MW4 6799   4.034   3.453   2.500  0.5770  0.0062  0.0656
 1682SOL     OW 6800   4.239   3.620   2.619  0.1083  0.2533 -0.0851
 1682SOL    HW2 6801   4.245   3.633   2.714 -1.0314  1.1366 -0.1269
 1682SOL    HW3 6802   4.318   3.570   2.597  1.8232  2.4041  0.9348
 1682SOL    MW4 6803   4.250   3.615   2.628  0.1845  0.6535  0.0436
 1683SOL     OW 6804   4.244   3.880   2.521  0.3375 -0.0055  0.4167
 1683SOL    HW2 6805   4.243   3.797   2.569  0.0979 -0.6513 -0.6978
 1683SOL    HW3 6806   4.314   3.931   2.562  0.8636 -0.9779  0.7270
 1683SOL    MW4 6807   4.253   3.876   2.533  0.3753 -0.2193  0.3107
 1684SOL     OW 6808   4.001   3.965   2.598  0.4213  0.0711  0.0049
 1684SOL    HW2 6809   4.017   3.972   2.692  0.0979 -1.3746  0.1811
 1684SOL    HW3 6810   4.079   3.924   2.563 -0.7212 -2.2534  0.1095
 1684SOL    MW4 6811   4.013   3.961   2.606  0.2275 -0.4263  0.0422
 1685SOL     OW 6812   4.052   4.244   2.539  0.0044 -0.4534 -0.6874
 1685SOL    HW2 6813   4.041   4.152   2.563 -0.7900 -0.1593  0.0945
 1685SOL    HW3 6814   3.973   4.287   2.571  0.6962  0.6321 -0.3849
 1685SOL    MW4 6815   4.040   4.237   2.547 -0.0095 -0.2718 -0.5443
 1686SOL     OW 6816   4.246   4.388   2.680  0.0257  0.1204  0.4965
 1686SOL    HW2 6817   4.169   4.339   2.652 -0.2793 -0.0091  1.5284
 1686SOL    HW3 6818   4.251   4.462   2.619 -1.1039  0.3038  0.6149
 1686SOL    MW4 6819   4.237   4.391   2.668 -0.1640  0.1273  0.6483
 1687SOL     OW 6820   0.210   0.010   2.995 -0.3501  0.0058 -0.0958
 1687SOL    HW2 6821   0.200   0.025   3.089 -0.2358 -2.7561  0.4006
 1687SOL    HW3 6822   0.126   0.038   2.957  0.3188  3.0625  0.5075
 1687SOL    MW4 6823   0.197   0.016   3.002 -0.2467  0.0447  0.0494
 1688SOL     OW 6824   4.468   0.093   2.880  0.2687  0.4735  0.0432
 1688SOL    HW2 6825   4.403   0.039   2.925  1.6642 -0.8649  0.5221
 1688SOL    HW3 6826   4.447   0.182   2.906  0.3357 -0.1749  2.4543
 1688SOL    MW4 6827   4.457   0.097   2.890  0.4611  0.2114  0.4246
 1689SOL     OW 6828   0.017   0.365   2.941 -0.3464 -0.2179  0.0482
 1689SOL    HW2 6829   0.030   0.339   3.033 -0.3280 -1.2789 -0.2482
 1689SOL    HW3 6830  -0.066   0.412   2.941  0.0225  0.4527  0.7410
 1689SOL    MW4 6831   0.008   0.368   2.953 -0.2956 -0.2694  0.1001
 1690SOL     OW 6832   0.203   0.542   2.870 -0.3668  0.0431 -0.5093
 1690SOL    HW2 6833   0.291   0.513   2.894  0.0447  1.7304  0.1434
 1690SOL    HW3 6834   0.145   0.471   2.899  0.6593 -0.4835  0.2975
 1690SOL    MW4 6835   0.207   0.529   2.877 -0.1772  0.1962 -0.3169
 1691SOL     OW 6836   0.217   0.787   3.017 -0.0009  0.6110  0.3947
 1691SOL    HW2 6837   0.220   0.770   3.111 -0.6440 -0.6746  0.1966
 1691SOL    HW3 6838   0.203   0.701   2.977 -0.8785  1.2875 -0.8118
 1691SOL    MW4 6839   0.216   0.773   3.024 -0.2016  0.5307  0.2093
 1692SOL     OW 6840   4.460   0.901   2.943  0.3673  0.2017  0.0443
 1692SOL    HW2 6841   4.543   0.858   2.960  0.0155 -0.2499  0.6235
 1692SOL    HW3 6842   4.450   0.898   2.848  0.0069 -1.6387  0.1199
 1692SOL    MW4 6843   4.469   0.895   2.933  0.2728 -0.1007  0.1307
 1693SOL     OW 6844   4.457   1.218   3.081  0.2056  0.1866 -0.0642
 1693SOL    HW2 6845   4.386   1.261   3.034 -0.6068 -0.4356  0.5749
 1693SOL    HW3 6846   4.468   1.135   3.034 -0.0387 -0.0682  0.3308
 1693SOL    MW4 6847   4.449   1.212   3.068  0.0658  0.0709  0.0722
 1694SOL     OW 6848   0.206   1.310   2.972  0.1796 -0.4883  0.3686
 1694SOL    HW2 6849   0.124   1.276   3.006 -0.3780 -0.7404 -1.1904
 1694SOL    HW3 6850   0.199   1.300   2.877  1.3472  0.9595  0.1052
 1694SOL    MW4 6851   0.194   1.304   2.964  0.2601 -0.3306  0.1280
 1695SOL     OW 6852   0.189   1.611   3.055  0.0078 -0.1337  0.3674
 1695SOL    HW2 6853   0.109   1.645   3.016  0.4466 -0.4283 -0.8176
 1695SOL    HW3 6854   0.196   1.522   3.021  1.3265  0.2109 -0.2900
 1695SOL    MW4 6855   0.180   1.604   3.045  0.2397 -0.1271  0.1242
 1696SOL     OW 6856   4.431   1.682   2.921  0.0208  0.1929  0.4621
 1696SOL    HW2 6857   4.358   1.641   2.969 -0.2992  0.0215 -0.1572
 1696SOL    HW3 6858   4.434   1.772   2.954  0.3994 -0.1869  1.4696
 1696SOL    MW4 6859   4.422   1.688   2.932  0.0281  0.1202  0.5136
 1697SOL     OW 6860   0.000   1.944   3.012  0.0076 -0.0380  0.1569
 1697SOL    HW2 6861  -0.080   1.996   3.002  0.5607  0.8968  0.5440
 1697SOL    HW3 6862   0.070   1.999   2.976  0.5665 -0.6048  0.3647
 1697SOL    MW4 6863  -0.001   1.958   3.006  0.1545  0.0106  0.2353
 1698SOL     OW 6864   0.216   2.100   2.949 -0.1033  0.2966  0.2849
 1698SOL    HW2 6865   0.210   2.196   2.957 -0.0932  0.4461 -1.4200
 1698SOL    HW3 6866   0.214   2.084   2.855  0.8795 -1.3280  0.5361
 1698SOL    MW4 6867   0.215   2.111   2.938  0.0277  0.1018  0.0935
 1699SOL     OW 6868   0.206   2.376   3.018  0.1485 -0.2727 -0.4489
 1699SOL    HW2 6869   0.214   2.365   3.112 -0.9712  1.2069 -0.1645
 1699SOL    HW3 6870   0.285   2.422   2.992  0.3119 -0.4029 -0.1769
 1699SOL    MW4 6871   0.217   2.381   3.027  0.0224 -0.0947 -0.3755
 1700SOL     OW 6872   4.476   2.475   2.895 -0.0044  0.4149 -0.1398
 1700SOL    HW2 6873   4.470   2.562   2.934 -0.0075  0.3225  0.0680
 1700SOL    HW3 6874   4.553   2.435   2.936 -0.2447  0.1685  0.0781
 1700SOL    MW4 6875   4.485   2.481   2.906 -0.0367  0.3700 -0.0837
 1701SOL     OW 6876   4.476   2.716   3.021 -0.2725 -0.3167 -0.0546
 1701SOL    HW2 6877   4.475   2.740   3.113 -1.4124 -0.1058 -0.1131
 1701SOL    HW3 6878   4.552   2.761   2.985  0.8739 -1.3481  1.0192
 1701SOL    MW4 6879   4.486   2.725   3.028 -0.2716 -0.4251  0.0794
 1702SOL     OW 6880   0.210   2.817   2.906  0.3179  0.2654  0.1233
 1702SOL    HW2 6881   0.294   2.784   2.939  0.6051 -0.4687 -1.2812
 1702SOL    HW3 6882   0.217   2.807   2.811 -0.9534  1.1918 -0.0730
 1702SOL    MW4 6883   0.222   2.811   2.898  0.1881  0.2906 -0.0880
 1703SOL     OW 6884   0.200   3.077   3.008 -0.5168 -0.3525 -0.2081
 1703SOL    HW2 6885   0.136   3.118   2.949  0.2917 -0.1353 -0.9391
 1703SOL    HW3 6886   0.213   2.989   2.972  1.0939  0.2858 -1.2351
 1703SOL    MW4 6887   0.193   3.071   2.996 -0.1976 -0.2396 -0.4399
 1704SOL     OW 6888   0.010   3.260   2.871 -0.1340  0.5867  0.2381
 1704SOL    HW2 6889  -0.059   3.211   2.916 -1.9409  1.0930 -1.8498
 1704SOL    HW3 6890   0.012   3.345   2.916 -0.2150  0.2408  0.9030
 1704SOL    MW4 6891   0.001   3.265   2.883 -0.3830  0.6080  0.0503
 1705SOL     OW 6892   0.040   3.515   3.008 -0.1977 -0.0562  0.3801
 1705SOL    HW2 6893  -0.033   3.569   2.980 -0.9652 -1.9577 -1.3460
 1705SOL    HW3 6894   0.023   3.499   3.101 -1.4467  0.3269  0.2284
 1705SOL    MW4 6895   0.028   3.520   3.017 -0.4640 -0.2565  0.1323
 1706SOL     OW 6896   0.271   3.621   2.905  0.4680  0.0046  0.3307
 1706SOL    HW2 6897   0.273   3.707   2.947 -1.4183  0.3301 -0.1858
 1706SOL    HW3 6898   0.197   3.576   2.946 -0.1836 -0.3834 -1.2382
 1706SOL    MW4 6899   0.262   3.626   2.916  0.1332 -0.0036  0.0553
 1707SOL     OW 6900   0.215   3.865   3.021 -0.1973  0.1859  0.1144
 1707SOL    HW2 6901   0.226   3.860   3.116  2.1440 -0.6365 -0.1528
 1707SOL    HW3 6902   0.268   3.940   2.994 -0.2121 -0.0559 -0.6179
 1707SOL    MW4 6903   0.224   3.874   3.030  0.1097  0.0455 -0.0176
 1708SOL     OW 6904   4.481   3.995   2.931 -0.2100  0.1085 -0.5358
 1708SOL    HW2 6905   4.564   3.951   2.948 -0.1195  0.1281 -0.9114
 1708SOL    HW3 6906   4.468   3.985   2.836 -1.7214 -1.8065 -0.1681
 1708SOL    MW4 6907   4.490   3.988   2.921 -0.3967 -0.1414 -0.5372
 1709SOL     OW 6908   4.489   4.259   3.033  0.2002  0.5255 -0.4473
 1709SOL    HW2 6909   4.500   4.256   3.128  0.2816 -0.2056 -0.4797
 1709SOL    HW3 6910   4.499   4.169   3.005 -2.0252  0.3850 -0.9152
 1709SOL    MW4 6911   4.491   4.247   3.042 -0.0830  0.4101 -0.5133
 1710SOL     OW 6912   0.211   4.406   2.920  0.2676 -0.0345 -0.0181
 1710SOL    HW2 6913   0.143   4.357   2.967  0.8744  0.1786  1.0926
 1710SOL    HW3 6914   0.202   4.496   2.952  1.3865 -0.0998  0.5196
 1710SOL    MW4 6915   0.201   4.411   2.931  0.4953 -0.0148  0.1993
 1711SOL     OW 6916   0.684   4.649   2.990  0.2504  0.1747 -0.0266
 1711SOL    HW2 6917   0.674   4.559   2.958  0.0646  0.2095 -0.0655
 1711SOL    HW3 6918   0.603   4.693   2.964  0.0926  0.1968  0.5031
 1711SOL    MW4 6919   0.672   4.643   2.982  0.2052  0.1826  0.0379
 1712SOL     OW 6920   0.445   0.113   2.896 -0.3657 -0.4750 -0.4291
 1712SOL    HW2 6921   0.438   0.207   2.915 -0.3547 -0.6115  0.2809
 1712SOL    HW3 6922   0.371   0.074   2.943 -0.7874 -0.7358 -1.3098
 1712SOL    MW4 6923   0.434   0.120   2.905 -0.4199 -0.5274 -0.4516
 1713SOL     OW 6924   0.434   0.389   2.949 -0.0341 -0.0454  0.2932
 1713SOL    HW2 6925   0.445   0.376   3.044  0.4572  0.2364  0.2765
 1713SOL    HW3 6926   0.509   0.442   2.923 -0.6266  0.5919 -0.1124
 1713SOL    MW4 6927   0.445   0.394   2.958 -0.0475  0.0759  0.2372
 1714SOL     OW 6928   0.698   0.509   2.907  0.4655 -0.0717  0.2721
 1714SOL    HW2 6929   0.770   0.461   2.948 -1.4140 -1.8099  1.6642
 1714SOL    HW3 6930   0.691   0.590   2.958 -0.3339 -1.1536  1.9342
 1714SOL    MW4 6931   0.707   0.513   2.919  0.1121 -0.4438  0.6754
 1715SOL     OW 6932   0.654   0.761   3.023  0.4842  0.5123  0.0674
 1715SOL    HW2 6933   0.657   0.780   3.117 -1.1544 -1.1807  0.5171
 1715SOL    HW3 6934   0.581   0.814   2.990  0.3516  0.2819 -0.0159
 1715SOL    MW4 6935   0.645   0.770   3.031  0.2505  0.2585  0.1159
 1716SOL     OW 6936   0.437   0.898   2.913  0.2670 -0.0694  0.8743
 1716SOL    HW2 6937   0.354   0.871   2.951  0.3879  1.0323  1.9356
 1716SOL    HW3 6938   0.432   0.871   2.821 -0.1167 -2.5713  1.5861
 1716SOL    MW4 6939   0.426   0.891   2.906  0.2323 -0.2542  1.1082
 1717SOL     OW 6940   0.409   1.140   3.046 -0.1360 -0.2834  0.1662
 1717SOL    HW2 6941   0.409   1.063   2.990  0.4838  0.0472 -0.2841
 1717SOL    HW3 6942   0.344   1.198   3.007  0.7369  0.2040 -0.5578
 1717SOL    MW4 6943   0.400   1.137   3.034  0.0610 -0.1756  0.0114
 1718SOL     OW 6944   0.659   1.257   2.950  0.2909 -0.2643 -0.0413
 1718SOL    HW2 6945   0.737   1.221   2.993 -0.3194  0.4109  1.6702
 1718SOL    HW3 6946   0.588   1.199   2.979 -0.3679  1.0985  1.0951
 1718SOL    MW4 6947   0.660   1.244   2.959  0.1234  0.0045  0.3345
 1719SOL     OW 6948   0.653   1.530   3.007 -0.3229  0.4058 -0.0453
 1719SOL    HW2 6949   0.646   1.535   3.102  1.0256  1.0003  0.0283
 1719SOL    HW3 6950   0.664   1.436   2.989 -0.2108  0.3336  0.4035
 1719SOL    MW4 6951   0.654   1.518   3.017 -0.1302  0.4747  0.0236
 1720SOL     OW 6952   0.430   1.713   2.956 -0.0364  0.5623  0.1338
 1720SOL    HW2 6953   0.498   1.652   2.985 -1.0525 -0.6187  0.0836
 1720SOL    HW3 6954   0.349   1.679   2.995 -0.8948  0.8315 -1.3699
 1720SOL    MW4 6955   0.428   1.700   2.965 -0.2837  0.4420 -0.0710
 1721SOL     OW 6956   0.456   2.002   3.035  0.1905  0.0915  0.4707
 1721SOL    HW2 6957   0.454   1.919   2.988 -0.2664  0.2433  0.2226
 1721SOL    HW3 6958   0.371   2.042   3.017  1.2095  1.6067 -1.2344
 1721SOL    MW4 6959   0.445   1.997   3.026  0.2646  0.3115  0.2129
 1722SOL     OW 6960   0.673   2.089   2.919 -0.2485  0.1910  0.0242
 1722SOL    HW2 6961   0.742   2.024   2.934  0.0122  0.2684 -0.7946
 1722SOL    HW3 6962   0.600   2.060   2.973  0.2099 -0.2430  0.4151
 1722SOL    MW4 6963   0.673   2.077   2.928 -0.1536  0.1438 -0.0322
 1723SOL     OW 6964   0.662   2.351   3.020 -0.0924 -0.4459 -0.1021
 1723SOL    HW2 6965   0.662   2.354   3.116  0.9374 -1.2137 -0.0709
 1723SOL    HW3 6966   0.673   2.258   3.000 -0.2430 -0.2757 -0.9693
 1723SOL    MW4 6967   0.663   2.339   3.030  0.0236 -0.5248 -0.2122
 1724SOL     OW 6968   0.450   2.487   2.937  0.6929 -0.1960 -0.0507
 1724SOL    HW2 6969   0.522   2.429   2.964  1.1600 -0.7551 -2.3747
 1724SOL    HW3 6970   0.441   2.471   2.843 -1.8788  0.5454  0.0343
 1724SOL    MW4 6971   0.458   2.477   2.928  0.4152 -0.1721 -0.3462
 1725SOL     OW 6972   0.429   2.734   3.037 -0.2102  0.2222 -0.3894
 1725SOL    HW2 6973   0.510   2.783   3.027 -1.0536  1.2808 -2.2767
 1725SOL    HW3 6974   0.448   2.647   3.002  0.3234  0.2270 -0.1113
 1725SOL    MW4 6975   0.442   2.729   3.031 -0.2511  0.3626 -0.6018
 1726SOL     OW 6976   0.676   2.836   2.946  0.1777 -0.4567  0.1973
 1726SOL    HW2 6977   0.764   2.797   2.950  0.3382 -0.0025  1.6718
 1726SOL    HW3 6978   0.691   2.930   2.955 -0.5139 -0.4618  1.6352
 1726SOL    MW4 6979   0.690   2.843   2.948  0.1076 -0.3974  0.5817
 1727SOL     OW 6980   0.687   3.092   2.980  0.2128 -0.9713  0.0207
 1727SOL    HW2 6981   0.674   3.085   3.075  0.9862  0.4834  0.2619
 1727SOL    HW3 6982   0.610   3.141   2.950  1.5213  1.3896  0.3961
 1727SOL    MW4 6983   0.675   3.098   2.989  0.4875 -0.4680  0.1020
 1728SOL     OW 6984   0.445   3.205   2.919  0.1728 -0.2563 -0.2626
 1728SOL    HW2 6985   0.438   3.297   2.944  1.6295 -0.8607  2.5335
 1728SOL    HW3 6986   0.362   3.166   2.946  0.1918 -0.0911  0.0386
 1728SOL    MW4 6987   0.433   3.212   2.926  0.3675 -0.3142  0.1457
 1729SOL     OW 6988   0.476   3.467   2.982 -0.3072  0.4664  0.0464
 1729SOL    HW2 6989   0.484   3.485   3.076  0.9696  0.5069 -0.0652
 1729SOL    HW3 6990   0.404   3.524   2.954  0.4294  1.7517  0.6751
 1729SOL    MW4 6991   0.467   3.477   2.991 -0.0415  0.6411  0.1149
 1730SOL     OW 6992   0.669   3.636   2.890 -0.3293 -0.3284  0.2765
 1730SOL    HW2 6993   0.738   3.587   2.935  1.2968  0.9274 -0.7866
 1730SOL    HW3 6994   0.588   3.594   2.918  0.8103 -1.4105  2.0893
 1730SOL    MW4 6995   0.667   3.624   2.900  0.0356 -0.3057  0.3753
 1731SOL     OW 6996   0.656   3.894   3.012  0.2142 -0.5307  0.2616
 1731SOL    HW2 6997   0.658   3.903   3.107 -0.6052  0.0105  0.2360
 1731SOL    HW3 6998   0.678   3.802   2.996 -1.7112 -1.1625  1.0881
 1731SOL    MW4 6999   0.659   3.883   3.022 -0.1479 -0.5426  0.3674
 1732SOL     OW 7000   0.427   4.030   2.915 -0.3525  0.5521 -0.4722
 1732SOL    HW2 7001   0.489   3.967   2.952 -1.1930  0.3934  0.6825
 1732SOL    HW3 7002   0.429   4.012   2.821  1.1594  0.3859 -0.4326
 1732SOL    MW4 7003   0.436   4.019   2.907 -0.2639  0.5097 -0.3147
 1733SOL     OW 7004   0.443   4.293   3.003  0.2325 -0.0198 -0.0838
 1733SOL    HW2 7005   0.437   4.204   2.969  0.7011 -0.8291  1.8954
 1733SOL    HW3 7006   0.359   4.333   2.981  0.2714 -0.7243 -1.5649
 1733SOL    MW4 7007   0.432   4.287   2.996  0.2994 -0.2193 -0.0179
 1734SOL     OW 7008   0.689   4.384   2.898  0.2536 -0.0244  0.0842
 1734SOL    HW2 7009   0.602   4.353   2.923 -0.5730  1.7963 -0.4779
 1734SOL    HW3 7010   0.686   4.391   2.803  1.3551 -0.9266 -0.0288
 1734SOL    MW4 7011   0.677   4.381   2.889  0.2899  0.0973 -0.0048
 1735SOL     OW 7012   1.124   4.650   3.010 -0.1782  0.0703  0.0839
 1735SOL    HW2 7013   1.201   4.695   2.975 -0.4318  0.2142 -0.2953
 1735SOL    HW3 7014   1.050   4.701   2.978 -0.4067  0.3523  1.0511
 1735SOL    MW4 7015   1.125   4.663   3.001 -0.2419  0.1264  0.1614
 1736SOL     OW 7016   0.901   0.145   2.905  0.2515  0.4252 -0.3439
 1736SOL    HW2 7017   0.899   0.232   2.945  1.3614  0.7232 -0.9356
 1736SOL    HW3 7018   0.833   0.096   2.952  0.4435  1.2477  0.8227
 1736SOL    MW4 7019   0.892   0.150   2.917  0.4233  0.5731 -0.2682
 1737SOL     OW 7020   0.948   0.411   2.997 -0.2640 -0.3821 -0.0290
 1737SOL    HW2 7021   0.955   0.411   3.093 -1.6339  2.0299  0.1106
 1737SOL    HW3 7022   1.015   0.473   2.968  0.2187 -1.1876 -0.6447
 1737SOL    MW4 7023   0.958   0.419   3.006 -0.3811 -0.1702 -0.0918
 1738SOL     OW 7024   1.173   0.556   2.905  0.1370 -0.0199 -0.0803
 1738SOL    HW2 7025   1.239   0.492   2.932 -0.5546 -1.1186 -0.9367
 1738SOL    HW3 7026   1.166   0.546   2.810 -0.2294  1.0854 -0.1792
 1738SOL    MW4 7027   1.180   0.546   2.896 -0.0026 -0.0191 -0.2065
 1739SOL     OW 7028   1.112   0.796   3.030 -0.8849 -0.2743 -0.0056
 1739SOL    HW2 7029   1.108   0.782   3.125  0.2309 -0.4002  0.0269
 1739SOL    HW3 7030   1.126   0.709   2.994  0.1176 -0.0411 -0.1898
 1739SOL    MW4 7031   1.113   0.783   3.038 -0.6056 -0.2602 -0.0255
 1740SOL     OW 7032   0.875   0.899   2.920  0.3877 -0.2808  0.0722
 1740SOL    HW2 7033   0.952   0.857   2.959  0.1889  0.1330  0.9259
 1740SOL    HW3 7034   0.801   0.850   2.954  0.2080  0.1036  0.2300
 1740SOL    MW4 7035   0.875   0.887   2.929  0.3378 -0.1754  0.2058
 1741SOL     OW 7036   0.892   1.153   3.047 -0.5333 -0.6058 -0.0437
 1741SOL    HW2 7037   0.966   1.197   3.003 -0.9455  0.7934  0.6477
 1741SOL    HW3 7038   0.890   1.066   3.007  0.1909  0.0450 -1.5751
 1741SOL    MW4 7039   0.902   1.148   3.036 -0.4921 -0.3352 -0.1547
 1742SOL     OW 7040   1.090   1.305   2.911  0.5036 -0.3970  0.1073
 1742SOL    HW2 7041   1.164   1.271   2.962 -0.4452 -1.9147  0.5131
 1742SOL    HW3 7042   1.077   1.393   2.946  0.1651 -1.2354  2.2172
 1742SOL    MW4 7043   1.098   1.312   2.923  0.3339 -0.7080  0.4392
 1743SOL     OW 7044   1.093   1.565   2.993 -0.3602 -0.0410  0.3006
 1743SOL    HW2 7045   1.104   1.555   3.088 -0.5834  0.7149  0.4105
 1743SOL    HW3 7046   1.169   1.616   2.966 -0.4284 -0.0428  0.1066
 1743SOL    MW4 7047   1.105   1.570   3.002 -0.3986  0.0585  0.2897
 1744SOL     OW 7048   0.851   1.671   2.886 -0.4262 -0.5309  0.0570
 1744SOL    HW2 7049   0.928   1.626   2.921 -0.7578  0.7067  2.4951
 1744SOL    HW3 7050   0.777   1.621   2.919 -0.7115 -1.4378 -1.8935
 1744SOL    MW4 7051   0.852   1.659   2.895 -0.5075 -0.4873  0.1211
 1745SOL     OW 7052   0.881   1.933   3.003  0.5322  0.4118  0.1438
 1745SOL    HW2 7053   0.873   1.920   3.097 -0.0909  1.3913  0.2275
 1745SOL    HW3 7054   0.879   1.845   2.966 -0.2374  0.0852  0.9686
 1745SOL    MW4 7055   0.880   1.920   3.010  0.3484  0.4979  0.2637
 1746SOL     OW 7056   1.128   2.055   2.909  0.5430  0.1920 -0.0801
 1746SOL    HW2 7057   1.049   2.017   2.947 -0.8565  2.4252 -0.6456
 1746SOL    HW3 7058   1.120   2.039   2.815  0.5622  0.7187 -0.1770
 1746SOL    MW4 7059   1.116   2.048   2.902  0.3608  0.5558 -0.1676
 1747SOL     OW 7060   1.146   2.319   2.973 -0.2897  0.4999 -0.3637
 1747SOL    HW2 7061   1.065   2.363   2.949 -0.6423 -0.1932 -0.4534
 1747SOL    HW3 7062   1.133   2.228   2.947 -0.2006 -0.0018  1.3205
 1747SOL    MW4 7063   1.134   2.313   2.966 -0.3244  0.3424 -0.1535
 1748SOL     OW 7064   0.901   2.445   2.937  0.4851 -0.4714 -0.1977
 1748SOL    HW2 7065   0.813   2.428   2.968 -0.0337  0.9717 -0.8235
 1748SOL    HW3 7066   0.891   2.463   2.844  1.1798  1.5660  0.0971
 1748SOL    MW4 7067   0.888   2.445   2.929  0.5084 -0.0124 -0.2410
 1749SOL     OW 7068   0.929   2.717   2.983  0.4658  0.3073 -0.1578
 1749SOL    HW2 7069   0.923   2.725   3.078 -0.0043  0.4090 -0.1938
 1749SOL    HW3 7070   0.932   2.622   2.967  1.8051  0.3065  0.0243
 1749SOL    MW4 7071   0.929   2.706   2.993  0.5805  0.3209 -0.1385
 1750SOL     OW 7072   1.160   2.829   2.887 -0.0182 -0.3155  0.6191
 1750SOL    HW2 7073   1.165   2.918   2.923 -0.1376 -0.0436 -0.0278
 1750SOL    HW3 7074   1.092   2.786   2.939  0.5515 -0.2610  1.4157
 1750SOL    MW4 7075   1.151   2.835   2.899  0.0410 -0.2728  0.6390
 1751SOL     OW 7076   1.139   3.074   3.033 -0.1384 -0.3120  0.3722
 1751SOL    HW2 7077   1.217   3.130   3.029 -1.2895  1.2950 -0.0768
 1751SOL    HW3 7078   1.078   3.114   2.970 -1.3983 -1.4321  0.8682
 1751SOL    MW4 7079   1.141   3.087   3.024 -0.4566 -0.2477  0.3786
 1752SOL     OW 7080   0.922   3.222   2.920 -0.3748 -0.4898  0.3743
 1752SOL    HW2 7081   0.843   3.169   2.937 -0.8938  0.1051 -0.1511
 1752SOL    HW3 7082   0.914   3.247   2.828 -0.1458  0.5228  0.6235
 1752SOL    MW4 7083   0.910   3.218   2.910 -0.4131 -0.2778  0.3381
 1753SOL     OW 7084   0.890   3.518   3.005 -0.0658 -0.4572 -0.6608
 1753SOL    HW2 7085   0.973   3.559   2.982  0.5731 -0.2996  1.7559
 1753SOL    HW3 7086   0.901   3.426   2.981  0.7545 -0.4009 -0.5075
 1753SOL    MW4 7087   0.902   3.511   2.999  0.1267 -0.4289 -0.3216
 1754SOL     OW 7088   1.148   3.627   2.917  0.5011 -0.0670  0.7121
 1754SOL    HW2 7089   1.237   3.596   2.933  1.2548  1.3122 -0.6891
 1754SOL    HW3 7090   1.146   3.716   2.953 -0.0421  0.2371 -0.0448
 1754SOL    MW4 7091   1.159   3.635   2.924  0.5289  0.1552  0.4272
 1755SOL     OW 7092   1.116   3.873   3.029 -0.0921  0.0134 -0.0002
 1755SOL    HW2 7093   1.105   3.897   3.121  0.5910 -1.0240  0.3588
 1755SOL    HW3 7094   1.044   3.917   2.984 -0.8902 -0.0906  1.1525
 1755SOL    MW4 7095   1.105   3.882   3.035 -0.1073 -0.1369  0.1993
 1756SOL     OW 7096   0.909   4.017   2.913  0.3037  0.2092  0.4837
 1756SOL    HW2 7097   0.830   3.978   2.950  0.2274 -0.1776 -0.0846
 1756SOL    HW3 7098   0.899   4.008   2.818  1.0118  0.1967  0.4027
 1756SOL    MW4 7099   0.897   4.011   2.905  0.3870  0.1564  0.3982
 1757SOL     OW 7100   0.906   4.272   3.013  0.0464 -0.1064  0.1730
 1757SOL    HW2 7101   0.912   4.186   2.972 -0.3964 -0.0296 -0.0552
 1757SOL    HW3 7102   0.829   4.312   2.974 -0.6405 -0.2052  1.4014
 1757SOL    MW4 7103   0.897   4.266   3.003 -0.1026 -0.1087  0.3049
 1758SOL     OW 7104   1.126   4.393   2.895  0.1621  0.2937 -0.0271
 1758SOL    HW2 7105   1.058   4.341   2.938  0.0801  0.4165 -0.0071
 1758SOL    HW3 7106   1.113   4.482   2.930 -0.3564  0.5508 -0.8316
 1758SOL    MW4 7107   1.115   4.398   2.905  0.0830  0.3438 -0.1307
 1759SOL     OW 7108   1.569   4.634   3.004 -0.4783 -0.2574  0.2029
 1759SOL    HW2 7109   1.562   4.638   3.099 -0.1053  0.6864  0.1941
 1759SOL    HW3 7110   1.495   4.686   2.972 -0.0029  0.2894 -0.0108
 1759SOL    MW4 7111   1.558   4.642   3.012 -0.3663 -0.0610  0.1736
 1760SOL     OW 7112   1.356   0.113   2.908  0.2054 -0.3692  0.6601
 1760SOL    HW2 7113   1.351   0.207   2.929 -0.7003 -0.2552 -0.0619
 1760SOL    HW3 7114   1.370   0.110   2.814 -3.0742 -1.0006  0.1404
 1760SOL    MW4 7115   1.357   0.125   2.899 -0.3468 -0.4375  0.4964
 1761SOL     OW 7116   1.365   0.366   2.998  0.0429  0.0794 -0.1501
 1761SOL    HW2 7117   1.361   0.372   3.093 -0.5501  0.6258 -0.2088
 1761SOL    HW3 7118   1.438   0.423   2.974 -1.0504  1.5161 -0.1606
 1761SOL    MW4 7119   1.374   0.375   3.007 -0.1796  0.3410 -0.1593
 1762SOL     OW 7120   1.567   0.527   2.904 -0.3729  0.4688 -0.0013
 1762SOL    HW2 7121   1.551   0.618   2.931  0.2142  0.4141  0.5369
 1762SOL    HW3 7122   1.566   0.531   2.808  0.3468  1.1744  0.0109
 1762SOL    MW4 7123   1.565   0.540   2.895 -0.2005  0.5547  0.0713
 1763SOL     OW 7124   1.546   0.787   2.997 -0.0660 -0.1614  0.5813
 1763SOL    HW2 7125   1.560   0.795   3.092  0.1831 -0.9689  0.6197
 1763SOL    HW3 7126   1.483   0.855   2.976  0.6571  0.6935  1.1578
 1763SOL    MW4 7127   1.540   0.797   3.007  0.0622 -0.1551  0.6623
 1764SOL     OW 7128   1.323   0.955   2.916 -0.3086 -0.3176  0.1392
 1764SOL    HW2 7129   1.305   1.036   2.964  0.8409  0.2660 -0.3834
 1764SOL    HW3 7130   1.259   0.892   2.950 -0.8859  0.6631  0.9146
 1764SOL    MW4 7131   1.312   0.958   2.927 -0.2331 -0.1112  0.1726
 1765SOL     OW 7132   1.311   1.201   3.035  0.7368  0.6718 -0.2631
 1765SOL    HW2 7133   1.325   1.215   3.129 -0.0229  0.2972 -0.0906
 1765SOL    HW3 7134   1.397   1.215   2.996  0.8602  1.7275  0.3784
 1765SOL    MW4 7135   1.324   1.205   3.042  0.6528  0.7616 -0.1559
 1766SOL     OW 7136   1.571   1.287   2.959 -0.4540  0.8434 -0.1024
 1766SOL    HW2 7137   1.636   1.233   3.004 -0.9388  0.1078 -0.2649
 1766SOL    HW3 7138   1.562   1.365   3.013  1.2225  1.3731 -0.5500
 1766SOL    MW4 7139   1.578   1.290   2.972 -0.2967  0.8162 -0.1829
 1767SOL     OW 7140   1.555   1.535   3.064 -0.3191 -0.2700 -0.0270
 1767SOL    HW2 7141   1.624   1.570   3.008  0.3783  0.7367  1.4150
 1767SOL    HW3 7142   1.478   1.587   3.041  0.7343  2.4321  2.1900
 1767SOL    MW4 7143   1.554   1.547   3.054 -0.0882  0.2193  0.4556
 1768SOL     OW 7144   1.350   1.695   2.943  0.4978 -0.4365  0.2443
 1768SOL    HW2 7145   1.350   1.788   2.965  0.6992  0.0196 -1.5756
 1768SOL    HW3 7146   1.359   1.693   2.847 -1.8203 -2.2852  0.0226
 1768SOL    MW4 7147   1.351   1.707   2.933  0.2186 -0.6202 -0.0248
 1769SOL     OW 7148   1.360   1.975   3.030  0.4488 -0.5234 -0.1924
 1769SOL    HW2 7149   1.335   1.964   3.122 -0.0997 -0.7416 -0.3653
 1769SOL    HW3 7150   1.285   2.018   2.989  0.6402 -0.5401 -0.5654
 1769SOL    MW4 7151   1.347   1.979   3.037  0.4019 -0.5544 -0.2644
 1770SOL     OW 7152   1.595   2.078   2.943  0.1364  0.3729  0.3205
 1770SOL    HW2 7153   1.515   2.039   2.978  1.0360  0.0988  2.1291
 1770SOL    HW3 7154   1.581   2.079   2.849 -1.3226 -1.1860  0.4807
 1770SOL    MW4 7155   1.582   2.073   2.936  0.0627  0.1311  0.5803
 1771SOL     OW 7156   1.582   2.332   3.038  0.0129  0.1501  0.0565
 1771SOL    HW2 7157   1.509   2.361   2.983  0.0057  0.7934  0.4049
 1771SOL    HW3 7158   1.594   2.240   3.015 -1.1557 -0.0591  0.2758
 1771SOL    MW4 7159   1.574   2.324   3.027 -0.1422  0.2074  0.1314
 1772SOL     OW 7160   1.385   2.430   2.893 -0.5448  0.7297 -0.4711
 1772SOL    HW2 7161   1.304   2.387   2.920 -0.4196 -0.4202 -1.8938
 1772SOL    HW3 7162   1.374   2.446   2.799  0.2225  2.0425 -0.3500
 1772SOL    MW4 7163   1.373   2.427   2.884 -0.4269  0.7515 -0.6428
 1773SOL     OW 7164   1.374   2.681   2.986  0.3421  0.6929 -0.4791
 1773SOL    HW2 7165   1.365   2.590   2.960  0.9011  0.6571 -0.5618
 1773SOL    HW3 7166   1.301   2.726   2.944 -0.3793  0.1528  0.1973
 1773SOL    MW4 7167   1.363   2.675   2.977  0.3207  0.6168 -0.4008
 1774SOL     OW 7168   1.603   2.818   2.902 -0.3080  0.2299  0.0607
 1774SOL    HW2 7169   1.681   2.770   2.927 -0.0413  0.2908 -0.6586
 1774SOL    HW3 7170   1.530   2.768   2.939 -0.0330 -0.7183 -0.6920
 1774SOL    MW4 7171   1.603   2.805   2.910 -0.2366  0.1125 -0.1340
 1775SOL     OW 7172   1.603   3.085   3.035 -0.2761 -0.4503  0.0788
 1775SOL    HW2 7173   1.563   3.077   3.122 -1.8246 -0.3085 -0.6010
 1775SOL    HW3 7174   1.595   2.998   2.997  0.6814 -0.5903  0.1950
 1775SOL    MW4 7175   1.597   3.073   3.042 -0.3542 -0.4504  0.0045
 1776SOL     OW 7176   1.365   3.213   2.929  0.0397 -0.1381 -0.6298
 1776SOL    HW2 7177   1.451   3.171   2.942  0.5834  0.7699 -1.2629
 1776SOL    HW3 7178   1.354   3.217   2.834 -0.5382  0.1055 -0.5532
 1776SOL    MW4 7179   1.375   3.208   2.918  0.0352  0.0138 -0.7031
 1777SOL     OW 7180   1.398   3.487   2.997  0.0958 -0.4199 -0.1877
 1777SOL    HW2 7181   1.394   3.493   3.092 -0.1375 -0.2725 -0.2051
 1777SOL    HW3 7182   1.376   3.396   2.977  0.9982 -0.6724 -0.0575
 1777SOL    MW4 7183   1.394   3.476   3.007  0.1842 -0.4337 -0.1726
 1778SOL     OW 7184   1.604   3.642   2.924 -0.2933  0.0969  0.1512
 1778SOL    HW2 7185   1.547   3.582   2.972  1.9221 -2.8947 -0.8088
 1778SOL    HW3 7186   1.572   3.639   2.834  0.3029 -0.2640 -0.0521
 1778SOL    MW4 7187   1.593   3.634   2.919  0.0776 -0.3452 -0.0024
 1779SOL     OW 7188   1.547   3.892   3.028  0.4914 -0.1343  0.2062
 1779SOL    HW2 7189   1.628   3.937   3.003  0.8993 -0.8487  0.2256
 1779SOL    HW3 7190   1.549   3.810   2.979 -0.0787 -0.2866  0.4357
 1779SOL    MW4 7191   1.558   3.887   3.018  0.4700 -0.2484  0.2389
 1780SOL     OW 7192   1.327   4.006   2.923  0.1534  0.0562 -0.0242
 1780SOL    HW2 7193   1.405   3.959   2.955 -0.4026 -0.2006  0.9843
 1780SOL    HW3 7194   1.253   3.961   2.965 -0.3777  2.0521  1.2772
 1780SOL    MW4 7195   1.328   3.994   2.933  0.0100  0.2856  0.2806
 1781SOL     OW 7196   1.321   4.275   3.025 -0.6149  0.0701 -0.0327
 1781SOL    HW2 7197   1.330   4.196   2.972 -0.5957 -0.6051  0.9548
 1781SOL    HW3 7198   1.256   4.327   2.979 -0.4206 -0.3936 -0.8493
 1781SOL    MW4 7199   1.314   4.271   3.012 -0.5867 -0.0801 -0.0103
 1782SOL     OW 7200   1.566   4.391   2.894  0.5559  0.3781 -0.0686
 1782SOL    HW2 7201   1.485   4.358   2.933 -0.4871  1.7848 -1.0061
 1782SOL    HW3 7202   1.571   4.482   2.922  0.7553  0.8777 -1.6866
 1782SOL    MW4 7203   1.556   4.398   2.902  0.4444  0.6299 -0.4058
 1783SOL     OW 7204   2.055   0.031   2.999 -0.0950  0.4598  0.0637
 1783SOL    HW2 7205   2.051   0.005   3.091  0.1760 -0.0488 -0.0644
 1783SOL    HW3 7206   1.969   0.067   2.979 -0.7399 -1.0770  0.0329
 1783SOL    MW4 7207   2.043   0.033   3.008 -0.1442  0.1898  0.0427
 1784SOL     OW 7208   1.808   0.126   2.925  0.5360  0.1026 -0.7001
 1784SOL    HW2 7209   1.741   0.066   2.959  3.1181 -1.0082  2.6964
 1784SOL    HW3 7210   1.796   0.124   2.830 -2.4717 -2.1134 -0.3509
 1784SOL    MW4 7211   1.797   0.118   2.917  0.4798 -0.3363 -0.2055
 1785SOL     OW 7212   1.799   0.390   3.019 -0.5077  0.2183  0.3076
 1785SOL    HW2 7213   1.797   0.295   3.004 -0.7887  0.4743 -1.3658
 1785SOL    HW3 7214   1.723   0.423   2.972  0.0809  1.3707  0.1639
 1785SOL    MW4 7215   1.789   0.382   3.011 -0.4672  0.4041  0.0679
 1786SOL     OW 7216   2.046   0.519   2.948 -0.3847  0.6342 -0.2385
 1786SOL    HW2 7217   1.964   0.476   2.974  0.2297 -0.4038  0.0254
 1786SOL    HW3 7218   2.051   0.505   2.853  0.0919 -0.4023 -0.0738
 1786SOL    MW4 7219   2.036   0.511   2.939 -0.2410  0.3605 -0.1817
 1787SOL     OW 7220   2.032   0.782   3.038  0.1923  0.4457 -0.2867
 1787SOL    HW2 7221   1.952   0.821   3.003 -0.2085 -0.8877 -0.8779
 1787SOL    HW3 7222   2.030   0.691   3.008  1.3486  0.0877  0.6773
 1787SOL    MW4 7223   2.021   0.775   3.029  0.2921  0.2226 -0.2379
 1788SOL     OW 7224   1.791   0.904   2.944 -0.2683  0.3118  0.2802
 1788SOL    HW2 7225   1.724   0.837   2.956 -0.3269  0.3894  0.3864
 1788SOL    HW3 7226   1.814   0.898   2.851 -0.6552  0.5017  0.1681
 1788SOL    MW4 7227   1.785   0.894   2.933 -0.3271  0.3471  0.2794
 1789SOL     OW 7228   1.793   1.157   3.049 -0.2058  0.0513 -0.0503
 1789SOL    HW2 7229   1.767   1.142   3.140 -1.0281  0.8365 -0.1503
 1789SOL    HW3 7230   1.791   1.070   3.009 -2.9438  0.1163 -0.1149
 1789SOL    MW4 7231   1.789   1.143   3.056 -0.6754  0.1633 -0.0722
 1790SOL     OW 7232   2.017   1.277   2.924  0.2942 -0.0107 -0.4333
 1790SOL    HW2 7233   2.094   1.227   2.952  0.8893  2.7829  3.1441
 1790SOL    HW3 7234   1.947   1.249   2.983 -0.0083  1.5754 -0.0400
 1790SOL    MW4 7235   2.018   1.267   2.935  0.3328  0.5672  0.0908
 1791SOL     OW 7236   2.012   1.536   3.033  0.0815  0.6067  0.0145
 1791SOL    HW2 7237   2.029   1.529   3.127  0.0470 -0.4472 -0.0483
 1791SOL    HW3 7238   2.014   1.445   3.002 -1.9071  0.7762 -0.6604
 1791SOL    MW4 7239   2.014   1.523   3.041 -0.1855  0.4898 -0.0827
 1792SOL     OW 7240   1.780   1.635   2.922 -0.2061  0.0366  0.0887
 1792SOL    HW2 7241   1.773   1.730   2.931  1.1774  0.0208  1.5166
 1792SOL    HW3 7242   1.862   1.613   2.965 -0.5304 -1.8171 -0.2101
 1792SOL    MW4 7243   1.790   1.645   2.929 -0.0663 -0.2102  0.2377
 1793SOL     OW 7244   1.813   1.908   3.029 -0.0555 -0.3153  0.0177
 1793SOL    HW2 7245   1.882   1.950   2.978 -0.0656 -0.1460  0.1437
 1793SOL    HW3 7246   1.734   1.958   3.008 -0.1225 -0.4514 -0.0539
 1793SOL    MW4 7247   1.812   1.920   3.019 -0.0657 -0.3109  0.0250
 1794SOL     OW 7248   2.030   2.044   2.913 -0.2202 -0.3607 -0.4302
 1794SOL    HW2 7249   2.091   1.989   2.961 -0.9144 -1.6884 -1.0425
 1794SOL    HW3 7250   2.023   2.124   2.965  1.4341 -0.5117  0.0367
 1794SOL    MW4 7251   2.037   2.047   2.926 -0.0937 -0.5560 -0.4494
 1795SOL     OW 7252   2.033   2.312   3.030  0.6120 -0.1966 -0.1428
 1795SOL    HW2 7253   2.103   2.374   3.012 -0.1080  0.3632 -1.0516
 1795SOL    HW3 7254   1.956   2.349   2.986 -0.0824 -1.1726  0.2299
 1795SOL    MW4 7255   2.032   2.325   3.022  0.4258 -0.2515 -0.2134
 1796SOL     OW 7256   1.819   2.419   2.925  0.3531  0.0638  0.1063
 1796SOL    HW2 7257   1.825   2.511   2.950  0.4989  0.3090 -0.8353
 1796SOL    HW3 7258   1.742   2.387   2.972 -0.8226  1.1507 -1.0502
 1796SOL    MW4 7259   1.809   2.427   2.935  0.2171  0.2396 -0.1707
 1797SOL     OW 7260   1.824   2.691   3.012  0.2160  0.0649  0.4140
 1797SOL    HW2 7261   1.815   2.706   3.106  1.0852 -0.1310  0.5312
 1797SOL    HW3 7262   1.905   2.737   2.988  0.2070 -0.2148 -0.1639
 1797SOL    MW4 7263   1.834   2.699   3.021  0.3294  0.0021  0.3531
 1798SOL     OW 7264   2.024   2.851   2.923 -0.6461 -0.7074 -0.0949
 1798SOL    HW2 7265   2.031   2.938   2.964 -1.1924 -1.1587  0.9670
 1798SOL    HW3 7266   2.109   2.811   2.939 -1.1504 -1.2178  1.3916
 1798SOL    MW4 7267   2.036   2.857   2.931 -0.7846 -0.8345  0.2415
 1799SOL     OW 7268   2.057   3.102   3.050 -0.2699 -0.1904  0.1000
 1799SOL    HW2 7269   2.035   3.112   3.143 -0.3017  2.6370 -0.1610
 1799SOL    HW3 7270   1.998   3.162   3.005 -0.1885 -1.4752 -1.7529
 1799SOL    MW4 7271   2.046   3.112   3.056 -0.2635  0.0131 -0.1788
 1800SOL     OW 7272   1.822   3.254   2.937 -0.5889  0.1932  0.4619
 1800SOL    HW2 7273   1.751   3.210   2.983 -0.3339 -1.6195 -0.8430
 1800SOL    HW3 7274   1.803   3.241   2.844  0.2063  1.7164  0.0696
 1800SOL    MW4 7275   1.810   3.246   2.931 -0.4504  0.1552  0.2379
 1801SOL     OW 7276   1.833   3.503   3.047  0.0865 -0.4163  0.4078
 1801SOL    HW2 7277   1.829   3.418   3.004  1.4183 -0.2484 -0.0507
 1801SOL    HW3 7278   1.761   3.552   3.008 -0.7600 -1.3657  0.7540
 1801SOL    MW4 7279   1.823   3.498   3.036  0.1504 -0.5195  0.3927
 1802SOL     OW 7280   2.074   3.589   2.957  0.1227  0.1916  0.0129
 1802SOL    HW2 7281   2.063   3.684   2.961 -1.1208  0.1277 -1.3919
 1802SOL    HW3 7282   1.991   3.553   2.990  1.2897 -0.4327  2.3401
 1802SOL    MW4 7283   2.062   3.596   2.961  0.1128  0.1006  0.1345
 1803SOL     OW 7284   2.015   3.856   2.979 -0.2178 -0.3250  0.2388
 1803SOL    HW2 7285   2.012   3.870   3.073 -1.3089  0.8954  0.0412
 1803SOL    HW3 7286   1.938   3.903   2.945  0.5190 -0.2037 -1.3170
 1803SOL    MW4 7287   2.004   3.864   2.987 -0.2646 -0.1481  0.0074
 1804SOL     OW 7288   1.781   4.011   2.924  0.8585  0.1929 -0.2415
 1804SOL    HW2 7289   1.796   4.101   2.954 -3.2267  0.7596  0.3923
 1804SOL    HW3 7290   1.761   4.021   2.830  0.3413 -0.0062 -0.1568
 1804SOL    MW4 7291   1.780   4.024   2.915  0.2512  0.2408 -0.1469
 1805SOL     OW 7292   1.800   4.279   2.993  0.0375 -0.0199  0.2116
 1805SOL    HW2 7293   1.867   4.327   2.944 -0.2676  1.2166  0.9916
 1805SOL    HW3 7294   1.717   4.305   2.951 -0.1464  0.3082  0.7804
 1805SOL    MW4 7295   1.798   4.288   2.981 -0.0271  0.1864  0.3896
 1806SOL     OW 7296   2.024   4.423   2.890  0.0932  0.1112 -0.0159
 1806SOL    HW2 7297   2.027   4.518   2.906  0.2147  0.2300 -0.7451
 1806SOL    HW3 7298   2.033   4.414   2.796 -0.2163 -0.6199  0.0214
 1806SOL    MW4 7299   2.026   4.435   2.880  0.0684  0.0305 -0.1075
 1807SOL     OW 7300   2.500   4.643   3.049  0.4556 -0.5826  0.2655
 1807SOL    HW2 7301   2.498   4.554   3.013  1.3878  0.9942 -4.0400
 1807SOL    HW3 7302   2.423   4.685   3.011  0.9855  0.9481  0.8669
 1807SOL    MW4 7303   2.489   4.636   3.039  0.6485 -0.1721 -0.2232
 1808SOL     OW 7304   2.299   0.117   2.887 -0.4646  0.6156  0.0110
 1808SOL    HW2 7305   2.293   0.207   2.919 -1.5888  1.4236 -2.3227
 1808SOL    HW3 7306   2.217   0.076   2.916  0.3949  0.0864  1.7497
 1808SOL    MW4 7307   2.287   0.123   2.895 -0.5000  0.6524 -0.0675
 1809SOL     OW 7308   2.278   0.385   3.015  0.5446  0.4229 -0.2816
 1809SOL    HW2 7309   2.285   0.393   3.110  0.5153 -0.6572 -0.1797
 1809SOL    HW3 7310   2.186   0.404   2.997  0.2507 -0.6209  0.0550
 1809SOL    MW4 7311   2.267   0.388   3.025  0.5019  0.1427 -0.2239
 1810SOL     OW 7312   2.497   0.540   2.938 -0.1844  0.4285 -0.3508
 1810SOL    HW2 7313   2.421   0.492   2.972 -0.0143  1.7778  2.0363
 1810SOL    HW3 7314   2.482   0.543   2.844 -1.1882 -2.5748 -0.3517
 1810SOL    MW4 7315   2.485   0.534   2.930 -0.2944  0.2102 -0.0362
 1811SOL     OW 7316   2.464   0.800   3.032  0.4046  0.3240  0.5608
 1811SOL    HW2 7317   2.537   0.845   2.989  0.3157 -0.2313 -0.1877
 1811SOL    HW3 7318   2.477   0.707   3.011  0.2889  0.0556  1.6343
 1811SOL    MW4 7319   2.475   0.794   3.024  0.3774  0.2153  0.6037
 1812SOL     OW 7320   2.244   0.911   2.897  0.0767 -0.2862 -0.0907
 1812SOL    HW2 7321   2.322   0.859   2.919 -0.1440 -0.0689  1.3010
 1812SOL    HW3 7322   2.176   0.877   2.954 -0.9106 -0.5924 -1.4410
 1812SOL    MW4 7323   2.245   0.900   2.908 -0.0827 -0.2980 -0.0854
 1813SOL     OW 7324   2.233   1.149   3.030 -0.0301  0.0429  0.5018
 1813SOL    HW2 7325   2.229   1.132   3.125  0.7531 -0.1639  0.5011
 1813SOL    HW3 7326   2.242   1.063   2.991 -0.0740  0.1528  0.2503
 1813SOL    MW4 7327   2.234   1.136   3.038  0.0675  0.0302  0.4687
 1814SOL     OW 7328   2.470   1.275   2.964 -0.3630 -0.1056  0.6381
 1814SOL    HW2 7329   2.388   1.237   2.996 -0.1246  0.3224  1.7818
 1814SOL    HW3 7330   2.468   1.260   2.870 -0.1875 -3.1136  1.0689
 1814SOL    MW4 7331   2.459   1.268   2.956 -0.3085 -0.4460  0.8461
 1815SOL     OW 7332   2.460   1.529   3.028 -0.2353  0.3029 -0.1351
 1815SOL    HW2 7333   2.387   1.566   2.978  0.7711  0.2734 -1.6356
 1815SOL    HW3 7334   2.459   1.436   3.007 -0.3123  0.1476  0.5477
 1815SOL    MW4 7335   2.450   1.522   3.019 -0.1125  0.2785 -0.2429
 1816SOL     OW 7336   2.239   1.645   2.911  0.5490 -0.3496 -0.3320
 1816SOL    HW2 7337   2.163   1.606   2.955  0.6835  0.5002  0.6873
 1816SOL    HW3 7338   2.209   1.662   2.822 -0.4469 -0.0713  0.0453
 1816SOL    MW4 7339   2.225   1.642   2.905  0.4354 -0.2007 -0.1478
 1817SOL     OW 7340   2.231   1.912   3.015 -0.0670 -0.2158 -0.1403
 1817SOL    HW2 7341   2.300   1.973   2.988 -0.0964 -0.2940 -0.3875
 1817SOL    HW3 7342   2.256   1.828   2.977 -0.5279 -0.1481 -0.6022
 1817SOL    MW4 7343   2.244   1.909   3.007 -0.1318 -0.2171 -0.2339
 1818SOL     OW 7344   2.446   2.074   2.928 -0.9210 -0.0461  0.1614
 1818SOL    HW2 7345   2.514   2.012   2.955  1.1681  2.1530  0.0856
 1818SOL    HW3 7346   2.441   2.065   2.832  1.1074  1.5898 -0.1222
 1818SOL    MW4 7347   2.454   2.065   2.919 -0.3777  0.4599  0.1140
 1819SOL     OW 7348   2.504   2.340   2.998 -0.0787 -0.1070  0.3559
 1819SOL    HW2 7349   2.491   2.354   3.092  1.6850  0.0663  0.5888
 1819SOL    HW3 7350   2.469   2.252   2.982 -2.3055  0.6831  0.7523
 1819SOL    MW4 7351   2.498   2.330   3.009 -0.1400  0.0198  0.4389
 1820SOL     OW 7352   2.248   2.461   2.933  0.0451 -0.4422 -0.4058
 1820SOL    HW2 7353   2.245   2.553   2.962  0.8085 -0.7662  0.7466
 1820SOL    HW3 7354   2.334   2.431   2.960 -0.1454 -1.4698 -0.9252
 1820SOL    MW4 7355   2.259   2.469   2.940  0.1206 -0.6206 -0.3221
 1821SOL     OW 7356   2.259   2.730   3.008  0.1950  0.1203  0.0034
 1821SOL    HW2 7357   2.344   2.766   2.983  0.5955 -0.0750  1.0822
 1821SOL    HW3 7358   2.253   2.743   3.102 -0.7219 -0.4009  0.0269
 1821SOL    MW4 7359   2.269   2.736   3.017  0.1271  0.0260  0.1488
 1822SOL     OW 7360   2.488   2.843   2.912 -0.5160  0.1979 -0.1766
 1822SOL    HW2 7361   2.512   2.932   2.939  1.0229  0.4020 -2.1217
 1822SOL    HW3 7362   2.455   2.853   2.823  0.6356 -1.3314 -0.7871
 1822SOL    MW4 7363   2.487   2.856   2.904 -0.1612  0.0229 -0.5138
 1823SOL     OW 7364   2.512   3.098   2.978 -0.0506  0.1801  0.4116
 1823SOL    HW2 7365   2.584   3.158   2.958 -0.3953  0.4515 -0.0347
 1823SOL    HW3 7366   2.436   3.135   2.932 -0.3907 -0.3025  0.5742
 1823SOL    MW4 7367   2.511   3.111   2.969 -0.1404  0.1521  0.3743
 1824SOL     OW 7368   2.272   3.202   2.895 -0.6954  0.2884 -0.0513
 1824SOL    HW2 7369   2.281   3.294   2.918 -2.0486  0.0409  1.5738
 1824SOL    HW3 7370   2.221   3.164   2.967 -2.5483 -1.1255 -2.0449
 1824SOL    MW4 7371   2.266   3.209   2.907 -1.1184  0.0691 -0.0999
 1825SOL     OW 7372   2.319   3.453   3.008  0.2729 -0.1057  0.3091
 1825SOL    HW2 7373   2.381   3.515   2.969  2.2079 -1.3347  1.3324
 1825SOL    HW3 7374   2.233   3.493   2.995  1.5051  3.1361  1.5675
 1825SOL    MW4 7375   2.316   3.467   3.001  0.6907  0.1597  0.6101
 1826SOL     OW 7376   2.489   3.618   2.899  0.1003 -0.1856  0.6539
 1826SOL    HW2 7377   2.559   3.587   2.957  0.9907  0.2163 -0.1840
 1826SOL    HW3 7378   2.470   3.707   2.929  0.7963  0.1462  0.1260
 1826SOL    MW4 7379   2.496   3.625   2.911  0.3099 -0.0887  0.4737
 1827SOL     OW 7380   2.446   3.879   2.987 -0.3086  0.0166  0.0377
 1827SOL    HW2 7381   2.447   3.878   3.082 -0.1245 -0.6905  0.0318
 1827SOL    HW3 7382   2.535   3.905   2.962  0.1382 -1.4384  0.0517
 1827SOL    MW4 7383   2.458   3.882   2.996 -0.2255 -0.2685  0.0391
 1828SOL     OW 7384   2.237   4.019   2.863  0.1527  0.6999  0.6680
 1828SOL    HW2 7385   2.304   3.967   2.907 -0.7758 -0.8523  0.2553
 1828SOL    HW3 7386   2.156   3.997   2.908 -0.4398  0.8542 -0.3068
 1828SOL    MW4 7387   2.235   4.010   2.875 -0.0479  0.5155  0.4847
 1829SOL     OW 7388   2.218   4.251   3.005 -0.3578 -0.3948  0.2687
 1829SOL    HW2 7389   2.217   4.173   2.948 -0.8603 -0.8917  0.9438
 1829SOL    HW3 7390   2.143   4.302   2.976  1.0129  0.7331 -1.3765
 1829SOL    MW4 7391   2.208   4.247   2.994 -0.2432 -0.3114  0.1404
 1830SOL     OW 7392   2.464   4.401   2.930 -0.2267  0.0545 -0.3861
 1830SOL    HW2 7393   2.376   4.373   2.955 -0.7455  1.1768 -0.9053
 1830SOL    HW3 7394   2.465   4.393   2.834  0.3128 -0.1540 -0.3651
 1830SOL    MW4 7395   2.452   4.396   2.921 -0.2241  0.1745 -0.4518
 1831SOL     OW 7396   2.906   4.666   3.073 -0.6806  0.1271  0.2937
 1831SOL    HW2 7397   2.909   4.672   3.168 -0.2894 -0.3290  0.3121
 1831SOL    HW3 7398   2.884   4.574   3.055  0.7046 -0.1480 -0.0701
 1831SOL    MW4 7399   2.903   4.655   3.083 -0.4463  0.0310  0.2482
 1832SOL     OW 7400   2.688   0.126   2.908 -0.2197 -0.0507  0.0925
 1832SOL    HW2 7401   2.766   0.082   2.941  0.0429 -0.6548 -1.3254
 1832SOL    HW3 7402   2.615   0.077   2.946  0.0756 -1.1182 -0.7122
 1832SOL    MW4 7403   2.688   0.114   2.918 -0.1464 -0.2713 -0.2007
 1833SOL     OW 7404   2.727   0.374   3.029 -0.2125 -0.0615 -0.3489
 1833SOL    HW2 7405   2.697   0.285   3.009  0.3733 -0.2303 -0.4857
 1833SOL    HW3 7406   2.654   0.430   3.004 -2.0315 -0.7513  3.1100
 1833SOL    MW4 7407   2.713   0.370   3.023 -0.3753 -0.1748  0.0894
 1834SOL     OW 7408   2.949   0.479   2.905  0.1620  0.6514  0.5406
 1834SOL    HW2 7409   2.868   0.444   2.943 -0.2029  0.5251 -0.3542
 1834SOL    HW3 7410   2.933   0.480   2.811  1.3954  0.1415  0.3228
 1834SOL    MW4 7411   2.936   0.474   2.898  0.2766  0.5675  0.3936
 1835SOL     OW 7412   2.937   0.751   2.981  0.2631  0.3821 -0.7934
 1835SOL    HW2 7413   2.964   0.743   3.073  0.0853  0.9582 -0.6860
 1835SOL    HW3 7414   2.947   0.663   2.945 -0.3489 -0.0048 -0.0363
 1835SOL    MW4 7415   2.942   0.739   2.989  0.1588  0.4070 -0.6795
 1836SOL     OW 7416   2.688   0.915   2.898 -0.1638  0.3122  0.5181
 1836SOL    HW2 7417   2.702   1.000   2.939 -0.3325  0.7262 -0.2966
 1836SOL    HW3 7418   2.766   0.864   2.921  0.6369  1.1736 -0.2731
 1836SOL    MW4 7419   2.700   0.919   2.907 -0.0803  0.4805  0.3061
 1837SOL     OW 7420   2.719   1.154   3.016  0.1708  0.4086 -0.9703
 1837SOL    HW2 7421   2.788   1.216   2.994  0.5431  0.3244 -0.0645
 1837SOL    HW3 7422   2.638   1.201   2.998  0.4274  1.6618  0.9647
 1837SOL    MW4 7423   2.717   1.169   3.011  0.2537  0.5629 -0.5956
 1838SOL     OW 7424   2.942   1.307   2.907 -0.0882 -0.2339  0.0047
 1838SOL    HW2 7425   3.020   1.267   2.945  0.2452 -0.3204 -0.7630
 1838SOL    HW3 7426   2.944   1.397   2.938  1.0006  0.1078 -1.0381
 1838SOL    MW4 7427   2.952   1.313   2.916  0.0994 -0.2003 -0.2341
 1839SOL     OW 7428   2.950   1.567   3.013 -0.2780 -0.3140 -0.2120
 1839SOL    HW2 7429   2.958   1.571   3.108 -1.2600  1.8527 -0.1723
 1839SOL    HW3 7430   3.020   1.625   2.981 -0.2529 -0.6582 -0.7784
 1839SOL    MW4 7431   2.961   1.575   3.021 -0.4044 -0.0736 -0.2816
 1840SOL     OW 7432   2.690   1.652   2.919 -0.2733 -0.3450  0.1979
 1840SOL    HW2 7433   2.770   1.615   2.954 -1.4469 -2.2126  1.0179
 1840SOL    HW3 7434   2.620   1.605   2.965 -1.8275  0.9949 -0.7406
 1840SOL    MW4 7435   2.691   1.641   2.930 -0.6330 -0.4146  0.1826
 1841SOL     OW 7436   2.663   1.916   3.024  0.3121 -0.0857 -0.3546
 1841SOL    HW2 7437   2.749   1.951   3.001  1.4384 -0.3109  3.1880
 1841SOL    HW3 7438   2.671   1.822   3.008  0.6482 -0.0677 -0.2974
 1841SOL    MW4 7439   2.675   1.908   3.019  0.5052 -0.1130  0.1204
 1842SOL     OW 7440   2.899   2.002   2.928  0.2608  0.4559  0.0217
 1842SOL    HW2 7441   2.907   2.091   2.964  0.7415  0.2716  0.3748
 1842SOL    HW3 7442   2.895   2.015   2.834  1.0865  0.8012  0.0366
 1842SOL    MW4 7443   2.899   2.016   2.921  0.4332  0.4771  0.0701
 1843SOL     OW 7444   2.909   2.258   3.023 -0.0747 -0.2920  0.2038
 1843SOL    HW2 7445   2.899   2.256   3.119  1.0535 -0.8523  0.3200
 1843SOL    HW3 7446   2.847   2.325   2.994 -0.9328 -0.5918  1.2644
 1843SOL    MW4 7447   2.899   2.266   3.032 -0.0391 -0.4055  0.3591
 1844SOL     OW 7448   2.760   2.440   2.912 -0.3347 -0.2407 -0.3043
 1844SOL    HW2 7449   2.763   2.530   2.945  1.5305 -1.0709  1.9589
 1844SOL    HW3 7450   2.674   2.408   2.939 -0.4350  0.4064  0.1675
 1844SOL    MW4 7451   2.749   2.448   2.920 -0.1020 -0.2649  0.0567
 1845SOL     OW 7452   2.698   2.698   2.997  0.4611 -0.2508 -0.1583
 1845SOL    HW2 7453   2.691   2.718   3.091  1.1759  0.1349 -0.1812
 1845SOL    HW3 7454   2.621   2.741   2.958 -0.0066 -0.6765  0.2904
 1845SOL    MW4 7455   2.687   2.706   3.004  0.4938 -0.2563 -0.1020
 1846SOL     OW 7456   2.924   2.826   2.912  0.2352  0.5022  0.2939
 1846SOL    HW2 7457   2.985   2.762   2.949  1.6755  1.2340 -0.7466
 1846SOL    HW3 7458   2.838   2.796   2.939  0.9665 -1.3220  0.6530
 1846SOL    MW4 7459   2.921   2.814   2.921  0.5214  0.3579  0.2038
 1847SOL     OW 7460   2.966   3.109   3.013 -0.0483  0.7901 -0.1699
 1847SOL    HW2 7461   2.882   3.145   2.984 -0.9294  0.0454  1.4207
 1847SOL    HW3 7462   2.953   3.015   3.012  0.4067  0.7027  1.1212
 1847SOL    MW4 7463   2.953   3.102   3.009 -0.1047  0.6802  0.2103
 1848SOL     OW 7464   2.735   3.243   2.933  0.5949  0.3105 -0.2171
 1848SOL    HW2 7465   2.720   3.329   2.972 -2.0071  0.5885 -1.7049
 1848SOL    HW3 7466   2.767   3.262   2.844 -0.0583 -0.2503 -0.5759
 1848SOL    MW4 7467   2.737   3.257   2.926  0.1652  0.2730 -0.4604
 1849SOL     OW 7468   2.724   3.493   3.037 -0.1623 -0.1190 -0.0427
 1849SOL    HW2 7469   2.753   3.492   3.128  0.8253 -0.1535 -0.3417
 1849SOL    HW3 7470   2.801   3.525   2.989 -0.5199 -0.5625 -0.9128
 1849SOL    MW4 7471   2.738   3.497   3.042 -0.0792 -0.1819 -0.1969
 1850SOL     OW 7472   2.973   3.602   2.926  0.2099 -0.2832  0.5662
 1850SOL    HW2 7473   3.043   3.553   2.968  0.9625 -0.4463 -0.8414
 1850SOL    HW3 7474   2.978   3.690   2.965 -0.7024 -1.1041  2.5864
 1850SOL    MW4 7475   2.982   3.607   2.936  0.1886 -0.4129  0.6471
 1851SOL     OW 7476   2.960   3.866   3.026 -0.6059  0.3767  0.0127
 1851SOL    HW2 7477   2.964   3.865   3.121  1.6724  1.2820 -0.0368
 1851SOL    HW3 7478   2.869   3.886   3.006 -1.3385 -0.8761  1.9816
 1851SOL    MW4 7479   2.949   3.868   3.036 -0.4020  0.3307  0.2658
 1852SOL     OW 7480   2.704   3.951   2.929 -0.1831 -0.1471 -0.5696
 1852SOL    HW2 7481   2.705   4.043   2.954  0.1514 -0.4057  0.3993
 1852SOL    HW3 7482   2.700   3.952   2.834  0.9302  0.8879 -0.6225
 1852SOL    MW4 7483   2.704   3.963   2.920  0.0079 -0.0446 -0.4489
 1853SOL     OW 7484   2.667   4.220   2.995 -0.0866 -0.2464 -0.4852
 1853SOL    HW2 7485   2.669   4.257   3.083 -0.8015 -0.4550 -0.3819
 1853SOL    HW3 7486   2.595   4.265   2.951  0.4480  0.0632 -1.0598
 1853SOL    MW4 7487   2.658   4.231   3.001 -0.1106 -0.2327 -0.5474
 1854SOL     OW 7488   2.876   4.406   2.955  0.4769 -0.1334  0.1769
 1854SOL    HW2 7489   2.960   4.386   2.996 -0.3677  2.1929  3.2327
 1854SOL    HW3 7490   2.820   4.332   2.977  0.9756 -0.4486  0.3883
 1854SOL    MW4 7491   2.880   4.393   2.963  0.4311  0.1321  0.6080
 1855SOL     OW 7492   3.332   0.006   3.055  0.3851 -0.6041  0.3012
 1855SOL    HW2 7493   3.264   0.054   3.007  0.1489 -0.5229  0.7131
 1855SOL    HW3 7494   3.415   0.038   3.019  0.2002 -0.8373 -0.3297
 1855SOL    MW4 7495   3.334   0.017   3.044  0.3295 -0.6242  0.2723
 1856SOL     OW 7496   3.122   0.108   2.926  0.7975 -0.1306  0.0407
 1856SOL    HW2 7497   3.048   0.076   2.977  0.1793 -0.7263 -1.2070
 1856SOL    HW3 7498   3.141   0.194   2.962 -2.9818  1.7163 -2.1247
 1856SOL    MW4 7499   3.115   0.115   2.938  0.2172  0.0345 -0.4096
 1857SOL     OW 7500   3.174   0.368   3.044 -0.0841  0.2113  0.0351
 1857SOL    HW2 7501   3.251   0.419   3.022 -0.3736 -0.5053 -2.8810
 1857SOL    HW3 7502   3.104   0.405   2.989 -1.4542 -0.1473  1.4889
 1857SOL    MW4 7503   3.175   0.379   3.034 -0.3030  0.0695 -0.1576
 1858SOL     OW 7504   3.364   0.529   2.934  0.1940 -0.3376 -0.0883
 1858SOL    HW2 7505   3.438   0.471   2.956  0.7087  0.8086  1.3152
 1858SOL    HW3 7506   3.367   0.537   2.839  2.6826  0.7251  0.0446
 1858SOL    MW4 7507   3.374   0.522   2.925  0.5901 -0.0461  0.1144
 1859SOL     OW 7508   3.399   0.793   2.995  0.3075  0.0029  0.0821
 1859SOL    HW2 7509   3.380   0.790   3.089 -1.8126 -0.4195 -0.3410
 1859SOL    HW3 7510   3.407   0.701   2.970  0.0361  0.0889 -0.3171
 1859SOL    MW4 7511   3.397   0.780   3.004 -0.0081 -0.0415 -0.0262
 1860SOL     OW 7512   3.144   0.917   2.904 -0.4754 -0.1770 -0.1900
 1860SOL    HW2 7513   3.225   0.876   2.933 -0.8078 -2.1484 -1.9496
 1860SOL    HW3 7514   3.075   0.857   2.933 -1.3129  1.4008  1.1521
 1860SOL    MW4 7515   3.145   0.904   2.912 -0.6299 -0.2290 -0.2451
 1861SOL     OW 7516   3.186   1.179   3.021 -0.2240  0.2634  0.1722
 1861SOL    HW2 7517   3.261   1.199   2.965 -0.5503  0.6669 -0.1207
 1861SOL    HW3 7518   3.153   1.095   2.988  0.1365  0.0512  0.3449
 1861SOL    MW4 7519   3.192   1.170   3.009 -0.2196  0.2887  0.1564
 1862SOL     OW 7520   3.409   1.262   2.873  0.0915  0.3610 -0.5663
 1862SOL    HW2 7521   3.473   1.209   2.920 -2.0117 -2.5416 -0.8301
 1862SOL    HW3 7522   3.401   1.342   2.926  1.4177 -0.6900  1.2969
 1862SOL    MW4 7523   3.416   1.266   2.886 -0.0110 -0.1607 -0.3555
 1863SOL     OW 7524   3.366   1.499   3.009  0.0238 -0.0183  0.1371
 1863SOL    HW2 7525   3.367   1.522   3.102 -0.5430 -0.1380  0.1706
 1863SOL    HW3 7526   3.443   1.544   2.973  0.0522  0.3040  0.5942
 1863SOL    MW4 7527   3.376   1.508   3.016 -0.0472  0.0086  0.2019
 1864SOL     OW 7528   3.182   1.680   2.894 -0.0666 -0.2947 -0.2753
 1864SOL    HW2 7529   3.252   1.620   2.921  0.4262  0.0926 -0.6869
 1864SOL    HW3 7530   3.171   1.663   2.800 -0.9914 -0.8333 -0.0737
 1864SOL    MW4 7531   3.190   1.670   2.885 -0.1233 -0.3146 -0.3033
 1865SOL     OW 7532   3.152   1.930   3.038  0.2463 -0.1733  0.4306
 1865SOL    HW2 7533   3.157   1.841   3.004  0.0231  0.6859 -1.9312
 1865SOL    HW3 7534   3.082   1.971   2.987  0.2053  1.3148  1.6391
 1865SOL    MW4 7535   3.143   1.923   3.027  0.2115  0.1364  0.2782
 1866SOL     OW 7536   3.374   2.035   2.896  0.3901 -0.1112 -0.4045
 1866SOL    HW2 7537   3.450   1.989   2.933  1.6141  0.8924 -1.6111
 1866SOL    HW3 7538   3.301   2.008   2.951  1.4729 -1.7527  0.2805
 1866SOL    MW4 7539   3.374   2.025   2.909  0.6945 -0.1953 -0.4735
 1867SOL     OW 7540   3.362   2.284   3.040 -0.0073  0.0437  0.2232
 1867SOL    HW2 7541   3.365   2.277   3.135 -1.6299  0.9947  0.3457
 1867SOL    HW3 7542   3.375   2.194   3.009 -0.2660 -0.3836  1.3463
 1867SOL    MW4 7543   3.364   2.271   3.049 -0.2553  0.1130  0.3877
 1868SOL     OW 7544   3.138   2.388   2.926 -0.2036 -0.2693 -0.0548
 1868SOL    HW2 7545   3.208   2.354   2.982  0.5461  1.6662  0.2575
 1868SOL    HW3 7546   3.058   2.351   2.962  0.4993 -1.0214  0.7560
 1868SOL    MW4 7547   3.137   2.379   2.938 -0.0119 -0.1132  0.0932
 1869SOL     OW 7548   3.109   2.657   3.026  0.1191  0.0599 -0.1651
 1869SOL    HW2 7549   3.116   2.656   3.121 -1.8507  0.6854  0.0151
 1869SOL    HW3 7550   3.123   2.567   2.999  2.6776  0.2135  0.5381
 1869SOL    MW4 7551   3.111   2.645   3.035  0.1969  0.1626 -0.0484
 1870SOL     OW 7552   3.319   2.827   2.886 -0.1819  0.0588  0.0852
 1870SOL    HW2 7553   3.310   2.916   2.921 -1.8303  1.0922 -2.8412
 1870SOL    HW3 7554   3.248   2.778   2.926 -0.3461  0.5060  0.3433
 1870SOL    MW4 7555   3.309   2.833   2.896 -0.4213  0.2542 -0.2670
 1871SOL     OW 7556   3.374   3.079   2.993  0.0916  0.3306  0.0526
 1871SOL    HW2 7557   3.376   3.099   3.087 -0.0719  0.6961 -0.0210
 1871SOL    HW3 7558   3.306   3.136   2.958  0.7512  0.8168 -0.4328
 1871SOL    MW4 7559   3.366   3.089   3.001  0.1571  0.4432 -0.0212
 1872SOL     OW 7560   3.185   3.238   2.889  0.0435  0.0796  0.5684
 1872SOL    HW2 7561   3.112   3.196   2.935  0.3015  0.1144  1.0097
 1872SOL    HW3 7562   3.158   3.237   2.797  0.4394 -1.9010  0.4427
 1872SOL    MW4 7563   3.172   3.232   2.883  0.1297 -0.1771  0.6099
 1873SOL     OW 7564   3.184   3.477   3.044 -0.0677  0.3622  0.4604
 1873SOL    HW2 7565   3.243   3.543   3.009 -0.6195 -0.3073 -1.8282
 1873SOL    HW3 7566   3.197   3.401   2.988 -2.4221 -0.0886  0.4543
 1873SOL    MW4 7567   3.193   3.476   3.032 -0.4511  0.2143  0.1576
 1874SOL     OW 7568   3.403   3.596   2.930  0.2487  0.0406 -0.2360
 1874SOL    HW2 7569   3.485   3.562   2.965  0.3822  0.6247  0.0297
 1874SOL    HW3 7570   3.392   3.681   2.973 -0.7948 -0.2917  0.1870
 1874SOL    MW4 7571   3.412   3.602   2.940  0.1283  0.0739 -0.1450
 1875SOL     OW 7572   3.397   3.887   3.017  0.0384 -0.5615 -0.3242
 1875SOL    HW2 7573   3.403   3.905   3.110 -0.3560  0.2749 -0.4668
 1875SOL    HW3 7574   3.331   3.947   2.983 -0.2924 -1.3000 -1.0312
 1875SOL    MW4 7575   3.389   3.897   3.025 -0.0572 -0.5486 -0.4363
 1876SOL     OW 7576   3.174   4.044   2.951  0.3906 -0.2765  0.3955
 1876SOL    HW2 7577   3.119   3.978   2.992  0.8557 -1.5245 -0.9427
 1876SOL    HW3 7578   3.163   4.029   2.857  1.6245  0.6104  0.0922
 1876SOL    MW4 7579   3.165   4.033   2.944  0.6146 -0.3238  0.1788
 1877SOL     OW 7580   3.117   4.308   3.050  0.2768 -0.1573 -0.1273
 1877SOL    HW2 7581   3.121   4.300   3.145 -0.7478  1.0691  0.0432
 1877SOL    HW3 7582   3.121   4.218   3.018  1.4238 -0.5355  1.0375
 1877SOL    MW4 7583   3.118   4.295   3.058  0.2928 -0.0458  0.0491
 1878SOL     OW 7584   3.351   4.412   2.950 -0.5903  0.6117 -0.0068
 1878SOL    HW2 7585   3.344   4.502   2.982 -0.2762  0.0998  1.5371
 1878SOL    HW3 7586   3.270   4.370   2.977 -0.7759  0.4429 -0.8021
 1878SOL    MW4 7587   3.340   4.418   2.958 -0.5734  0.5217  0.0918
 1879SOL     OW 7588   3.801   0.006   3.021 -0.0323 -0.0765 -0.0298
 1879SOL    HW2 7589   3.796  -0.087   2.997  1.6936  0.1929 -1.5028
 1879SOL    HW3 7590   3.721   0.045   2.985 -0.8807 -1.0207  0.8005
 1879SOL    MW4 7591   3.790  -0.001   3.013  0.0834 -0.1656 -0.1147
 1880SOL     OW 7592   3.554   0.111   2.938  0.0277 -0.3329 -0.2656
 1880SOL    HW2 7593   3.563   0.205   2.953 -1.3532 -0.1316 -0.6966
 1880SOL    HW3 7594   3.569   0.100   2.844  2.0665 -0.7900  0.0877
 1880SOL    MW4 7595   3.557   0.122   2.928  0.1144 -0.3666 -0.2759
 1881SOL     OW 7596   3.570   0.378   3.003 -0.1028 -0.0665  0.2886
 1881SOL    HW2 7597   3.584   0.375   3.098  0.2576  0.5451  0.2627
 1881SOL    HW3 7598   3.656   0.401   2.968 -0.6586  1.5218 -0.0539
 1881SOL    MW4 7599   3.583   0.381   3.011 -0.1287  0.2237  0.2401
 1882SOL     OW 7600   3.811   0.465   2.903  0.2360  0.4524 -0.4287
 1882SOL    HW2 7601   3.900   0.433   2.917  0.4259  1.0686 -0.2099
 1882SOL    HW3 7602   3.810   0.553   2.941 -1.0102 -0.2650  1.2530
 1882SOL    MW4 7603   3.823   0.472   2.910  0.0968  0.4391 -0.1779
 1883SOL     OW 7604   3.822   0.718   3.004 -0.0732  0.1722 -0.2841
 1883SOL    HW2 7605   3.826   0.733   3.098  0.7476  1.7451 -0.5406
 1883SOL    HW3 7606   3.890   0.776   2.968 -1.1126  0.4163 -1.9218
 1883SOL    MW4 7607   3.831   0.728   3.012 -0.1018  0.4120 -0.5341
 1884SOL     OW 7608   3.633   0.882   2.906 -0.0478  0.1022 -0.2238
 1884SOL    HW2 7609   3.702   0.824   2.937  1.5891  2.6306  0.9701
 1884SOL    HW3 7610   3.554   0.851   2.950  0.8561 -0.9986  0.6488
 1884SOL    MW4 7611   3.632   0.871   2.916  0.2873  0.2905  0.0489
 1885SOL     OW 7612   3.605   1.133   3.008 -0.3036 -0.1065  0.2115
 1885SOL    HW2 7613   3.679   1.176   2.967  0.1839 -0.3530  0.8138
 1885SOL    HW3 7614   3.610   1.042   2.977  0.3698 -0.4161  1.2194
 1885SOL    MW4 7615   3.615   1.126   2.999 -0.1504 -0.1800  0.4241
 1886SOL     OW 7616   3.817   1.266   2.914 -0.1518 -0.0763 -0.0948
 1886SOL    HW2 7617   3.810   1.356   2.945 -1.8257 -0.1910 -0.1210
 1886SOL    HW3 7618   3.855   1.275   2.826  0.0721  0.5635  0.0608
 1886SOL    MW4 7619   3.821   1.279   2.906 -0.3431 -0.0070 -0.0780
 1887SOL     OW 7620   3.827   1.537   2.972 -0.1010 -0.0029 -0.1540
 1887SOL    HW2 7621   3.816   1.541   3.067  0.2398  0.6963 -0.1441
 1887SOL    HW3 7622   3.750   1.581   2.937 -0.3735 -0.5252 -0.2053
 1887SOL    MW4 7623   3.816   1.543   2.980 -0.0920  0.0204 -0.1593
 1888SOL     OW 7624   3.578   1.618   2.874  0.1033  0.6323 -0.3605
 1888SOL    HW2 7625   3.589   1.710   2.897  0.0961  0.2382  1.2995
 1888SOL    HW3 7626   3.581   1.617   2.779 -0.9607  2.4911 -0.4455
 1888SOL    MW4 7627   3.580   1.630   2.865 -0.0384  0.8255 -0.1526
 1889SOL     OW 7628   3.616   1.867   3.001  0.3000 -0.1330  0.2934
 1889SOL    HW2 7629   3.603   1.870   3.096 -0.2249  0.6674  0.2017
 1889SOL    HW3 7630   3.690   1.926   2.985  1.7924 -1.9034  0.4209
 1889SOL    MW4 7631   3.624   1.875   3.011  0.4275 -0.2609  0.2983
 1890SOL     OW 7632   3.816   2.084   2.922  0.2572  0.2854  0.1845
 1890SOL    HW2 7633   3.812   2.179   2.936  0.4705  0.2900  0.2156
 1890SOL    HW3 7634   3.806   2.074   2.827  0.1227  0.3312  0.1925
 1890SOL    MW4 7635   3.814   2.096   2.911  0.2675  0.2923  0.1895
 1891SOL     OW 7636   3.786   2.354   2.983 -0.1384  0.4943 -0.1210
 1891SOL    HW2 7637   3.780   2.336   3.077  0.3633  0.3304 -0.1192
 1891SOL    HW3 7638   3.697   2.378   2.957 -0.1128  1.3523  0.5644
 1891SOL    MW4 7639   3.773   2.355   2.992 -0.0684  0.5860 -0.0305
 1892SOL     OW 7640   3.533   2.451   2.899  0.3808 -0.6696  0.0127
 1892SOL    HW2 7641   3.544   2.537   2.939  1.2927 -0.5630 -0.4668
 1892SOL    HW3 7642   3.468   2.407   2.954 -0.6500  0.5866 -0.1651
 1892SOL    MW4 7643   3.526   2.456   2.911  0.3650 -0.4900 -0.0741
 1893SOL     OW 7644   3.554   2.717   2.989 -0.4105 -0.2664 -0.0952
 1893SOL    HW2 7645   3.630   2.755   2.945 -1.3243  0.6714 -0.8874
 1893SOL    HW3 7646   3.480   2.765   2.954 -1.2042  0.2750  2.2426
 1893SOL    MW4 7647   3.555   2.728   2.979 -0.6356 -0.0713  0.1087
 1894SOL     OW 7648   3.802   2.817   2.886 -0.2485  0.2098 -0.6135
 1894SOL    HW2 7649   3.770   2.906   2.899  0.1376  0.2005  0.4463
 1894SOL    HW3 7650   3.830   2.815   2.795  0.0687  1.2821 -0.5462
 1894SOL    MW4 7651   3.802   2.828   2.876 -0.1554  0.3502 -0.4647
 1895SOL     OW 7652   3.785   3.093   3.005  0.0390 -0.3098  0.9951
 1895SOL    HW2 7653   3.875   3.122   2.995 -0.3713  0.9283  0.8272
 1895SOL    HW3 7654   3.769   3.097   3.100 -0.4259  1.2985  0.8608
 1895SOL    MW4 7655   3.795   3.097   3.016 -0.0765  0.0656  0.9553
 1896SOL     OW 7656   3.581   3.253   2.902  0.3299 -0.2367 -0.1249
 1896SOL    HW2 7657   3.506   3.201   2.932  0.2307  0.8421  1.5372
 1896SOL    HW3 7658   3.658   3.200   2.925  0.2030  0.0795  1.0764
 1896SOL    MW4 7659   3.581   3.239   2.909  0.3002 -0.0527  0.2530
 1897SOL     OW 7660   3.623   3.497   3.049  0.3484  0.4167 -0.3821
 1897SOL    HW2 7661   3.709   3.523   3.014 -0.3126  0.7397 -1.8104
 1897SOL    HW3 7662   3.602   3.416   3.003  0.3179 -0.1895  0.6875
 1897SOL    MW4 7663   3.632   3.490   3.038  0.2573  0.3793 -0.4292
 1898SOL     OW 7664   3.857   3.612   2.938 -0.3214  0.1554  0.4949
 1898SOL    HW2 7665   3.852   3.701   2.972 -1.4885  0.0802  0.5254
 1898SOL    HW3 7666   3.856   3.621   2.843  1.3057  0.2646  0.4626
 1898SOL    MW4 7667   3.856   3.625   2.930 -0.2608  0.1597  0.4947
 1899SOL     OW 7668   3.845   3.881   3.028  0.4722 -0.1584 -0.0540
 1899SOL    HW2 7669   3.836   3.876   3.123  2.4473 -0.0199  0.1484
 1899SOL    HW3 7670   3.767   3.930   3.000 -0.7808 -1.3119  1.3419
 1899SOL    MW4 7671   3.833   3.887   3.037  0.5677 -0.2921  0.1569
 1900SOL     OW 7672   3.623   4.030   2.932  0.1379  0.1922  0.0805
 1900SOL    HW2 7673   3.556   3.965   2.953  0.3651  0.1795  0.7817
 1900SOL    HW3 7674   3.652   4.007   2.843  0.4406 -0.8592  0.4502
 1900SOL    MW4 7675   3.618   4.018   2.923  0.2079  0.0520  0.2220
 1901SOL     OW 7676   3.585   4.305   3.042 -0.5956 -0.0461  0.4685
 1901SOL    HW2 7677   3.498   4.335   3.016 -0.9822 -2.4412 -1.1673
 1901SOL    HW3 7678   3.587   4.213   3.017  2.5391  0.0454  0.1556
 1901SOL    MW4 7679   3.574   4.297   3.035 -0.2332 -0.3500  0.2115
 1902SOL     OW 7680   3.798   4.417   2.905  0.5965 -0.8515  0.0828
 1902SOL    HW2 7681   3.875   4.366   2.931 -0.1454 -1.7164  0.5961
 1902SOL    HW3 7682   3.724   4.370   2.942 -0.2712 -0.6006 -1.3066
 1902SOL    MW4 7683   3.799   4.404   2.913  0.3843 -0.9332 -0.0327
 1903SOL     OW 7684   4.235   4.656   3.020 -0.3247 -0.1629  0.0496
 1903SOL    HW2 7685   4.254   4.670   3.113 -0.1544  1.0573 -0.1564
 1903SOL    HW3 7686   4.236   4.561   3.009  2.3462 -0.2332  0.7388
 1903SOL    MW4 7687   4.237   4.645   3.031  0.0501 -0.0110  0.1132
 1904SOL     OW 7688   4.009   0.086   2.866  0.0269 -0.0593 -0.1053
 1904SOL    HW2 7689   4.081   0.053   2.919  1.7874  0.9929 -1.7955
 1904SOL    HW3 7690   3.930   0.059   2.914  1.5219 -0.1849  2.3905
 1904SOL    MW4 7691   4.008   0.078   2.879  0.4563  0.0629  0.0007
 1905SOL     OW 7692   4.040   0.352   2.994 -0.1723  0.1005 -0.5178
 1905SOL    HW2 7693   4.112   0.403   2.958 -0.4935  1.0117  0.0865
 1905SOL    HW3 7694   4.048   0.266   2.954  0.8401  0.4022 -0.9739
 1905SOL    MW4 7695   4.050   0.348   2.984 -0.0811  0.2605 -0.4983
 1906SOL     OW 7696   4.276   0.495   2.888  0.2777 -0.4013  0.3414
 1906SOL    HW2 7697   4.280   0.589   2.904  0.4188 -0.3487  0.0081
 1906SOL    HW3 7698   4.274   0.487   2.792  2.2517 -0.8082  0.3164
 1906SOL    MW4 7699   4.276   0.506   2.877  0.5569 -0.4480  0.2942
 1907SOL     OW 7700   4.243   0.758   3.020 -0.1077  0.3986  0.3080
 1907SOL    HW2 7701   4.174   0.815   2.987 -0.3631 -0.8289 -1.3928
 1907SOL    HW3 7702   4.325   0.804   2.998 -0.3421  0.7337  0.1286
 1907SOL    MW4 7703   4.245   0.771   3.013 -0.1726  0.2809  0.0601
 1908SOL     OW 7704   4.024   0.898   2.926  0.1967 -0.2268 -0.1783
 1908SOL    HW2 7705   4.037   0.984   2.966 -0.6408  0.2642 -0.9536
 1908SOL    HW3 7706   4.032   0.914   2.832  0.9043 -1.1544 -0.2859
 1908SOL    MW4 7707   4.027   0.911   2.919  0.1793 -0.2844 -0.2947
 1909SOL     OW 7708   4.041   1.153   3.021 -0.3209 -0.4209  0.3147
 1909SOL    HW2 7709   4.032   1.148   3.116 -0.1022 -0.4201  0.3365
 1909SOL    HW3 7710   3.960   1.193   2.991 -1.4458 -2.6111  0.2921
 1909SOL    MW4 7711   4.029   1.157   3.029 -0.4396 -0.7098  0.3147
 1910SOL     OW 7712   4.249   1.295   2.931  0.1779  0.0837 -0.5351
 1910SOL    HW2 7713   4.172   1.248   2.964 -1.3829  1.6708 -1.7670
 1910SOL    HW3 7714   4.258   1.265   2.840  1.2149 -0.3287 -0.3027
 1910SOL    MW4 7715   4.240   1.285   2.923  0.1087  0.2387 -0.6671
 1911SOL     OW 7716   4.213   1.546   3.032 -0.0841  0.2236  0.7268
 1911SOL    HW2 7717   4.141   1.591   2.988 -0.5383 -0.5344  0.6949
 1911SOL    HW3 7718   4.224   1.464   2.984  0.1968 -0.0746  1.2907
 1911SOL    MW4 7719   4.205   1.541   3.020 -0.1073  0.0843  0.7970
 1912SOL     OW 7720   4.035   1.711   2.902  0.0728  0.1164 -0.7674
 1912SOL    HW2 7721   4.029   1.797   2.942  1.7294  0.0601 -0.3583
 1912SOL    HW3 7722   3.957   1.665   2.932 -0.5024  1.2580 -0.4879
 1912SOL    MW4 7723   4.024   1.716   2.911  0.2155  0.2596 -0.6766
 1913SOL     OW 7724   4.041   1.950   3.035 -0.6564 -0.7132 -0.1634
 1913SOL    HW2 7725   4.128   1.988   3.021 -0.7829  0.0497  0.9811
 1913SOL    HW3 7726   3.982   2.006   2.986 -0.5823 -0.8001 -0.3522
 1913SOL    MW4 7727   4.045   1.962   3.027 -0.6638 -0.6242 -0.0372
 1914SOL     OW 7728   4.268   2.082   2.958  0.3625 -0.1917  0.2821
 1914SOL    HW2 7729   4.264   2.175   2.978  0.3369 -0.2576  0.5977
 1914SOL    HW3 7730   4.257   2.076   2.863  1.6579  0.2138  0.1034
 1914SOL    MW4 7731   4.266   2.093   2.948  0.5298 -0.1469  0.3002
 1915SOL     OW 7732   4.282   2.339   3.029  0.0168 -0.5037  0.1496
 1915SOL    HW2 7733   4.199   2.379   3.002  0.9184  0.8032 -0.7399
 1915SOL    HW3 7734   4.349   2.396   2.992  1.3197 -1.1382  1.4831
 1915SOL    MW4 7735   4.280   2.352   3.021  0.3076 -0.4151  0.2084
 1916SOL     OW 7736   4.042   2.460   2.909  0.4768 -0.0077  0.2034
 1916SOL    HW2 7737   4.040   2.554   2.924 -0.7057 -0.0057  0.0633
 1916SOL    HW3 7738   3.966   2.426   2.956  1.1256 -0.9465  0.5919
 1916SOL    MW4 7739   4.032   2.468   2.917  0.4067 -0.1314  0.2360
 1917SOL     OW 7740   4.051   2.724   2.994  0.3303 -0.4841  0.2867
 1917SOL    HW2 7741   4.049   2.724   3.089 -0.3002  0.2828  0.2754
 1917SOL    HW3 7742   3.967   2.762   2.968  0.9793  0.3839 -0.5600
 1917SOL    MW4 7743   4.040   2.729   3.003  0.3324 -0.2685  0.1733
 1918SOL     OW 7744   4.270   2.844   2.884 -0.5319 -0.4544 -0.4780
 1918SOL    HW2 7745   4.189   2.797   2.906  0.5708 -1.8186  0.7762
 1918SOL    HW3 7746   4.338   2.797   2.931  0.5734  2.7566  1.2403
 1918SOL    MW4 7747   4.268   2.831   2.893 -0.2403 -0.2108 -0.0861
 1919SOL     OW 7748   4.302   3.095   2.987  0.1801  0.2375  0.2367
 1919SOL    HW2 7749   4.215   3.127   2.965 -0.4996  0.4331  2.9972
 1919SOL    HW3 7750   4.305   3.007   2.951 -0.6959  0.6704 -0.9264
 1919SOL    MW4 7751   4.291   3.088   2.980 -0.0248  0.3204  0.4473
 1920SOL     OW 7752   4.054   3.206   2.915 -0.0102  0.2530 -0.2631
 1920SOL    HW2 7753   4.068   3.296   2.945 -0.7620  1.0917 -2.3623
 1920SOL    HW3 7754   4.042   3.213   2.821 -0.2929 -2.0452 -0.4373
 1920SOL    MW4 7755   4.054   3.219   2.907 -0.1464  0.0606 -0.5629
 1921SOL     OW 7756   4.099   3.470   3.009  0.1106 -0.0885 -0.2495
 1921SOL    HW2 7757   4.077   3.471   3.102  1.2352 -0.2693  0.0345
 1921SOL    HW3 7758   4.019   3.496   2.964 -0.5279 -0.3190  0.7528
 1921SOL    MW4 7759   4.086   3.474   3.015  0.1745 -0.1431 -0.0801
 1922SOL     OW 7760   4.278   3.658   2.891 -0.2920 -0.3022 -0.1836
 1922SOL    HW2 7761   4.281   3.738   2.944  1.8858 -0.8631  0.5948
 1922SOL    HW3 7762   4.215   3.601   2.936 -1.2959  0.6697 -0.3294
 1922SOL    MW4 7763   4.270   3.661   2.904 -0.1369 -0.2477 -0.1001
 1923SOL     OW 7764   4.241   3.893   3.045  0.1226 -0.3396 -0.4300
 1923SOL    HW2 7765   4.170   3.924   2.989  1.0112  1.5522 -0.5626
 1923SOL    HW3 7766   4.321   3.927   3.004  1.1373 -2.7122 -0.4674
 1923SOL    MW4 7767   4.242   3.902   3.032  0.3738 -0.4029 -0.4523
 1924SOL     OW 7768   4.046   4.006   2.877  0.1451  0.3489  0.6094
 1924SOL    HW2 7769   4.030   4.099   2.895  0.9544  0.2627  1.8596
 1924SOL    HW3 7770   3.979   3.960   2.926 -2.5463  0.3508 -2.8642
 1924SOL    MW4 7771   4.035   4.012   2.886 -0.1030  0.3381  0.3161
 1925SOL     OW 7772   4.018   4.261   3.004  0.1036 -0.1739  0.1329
 1925SOL    HW2 7773   4.006   4.256   3.099  0.8149 -1.7229  0.1571
 1925SOL    HW3 7774   4.106   4.297   2.992  0.6611 -1.5393  0.0824
 1925SOL    MW4 7775   4.028   4.265   3.015  0.2713 -0.5584  0.1297
 1926SOL     OW 7776   4.261   4.371   2.961 -0.2171 -0.5723  0.4511
 1926SOL    HW2 7777   4.344   4.331   2.985 -0.6176 -1.0298  1.1020
 1926SOL    HW3 7778   4.263   4.375   2.865  0.7740 -0.0824  0.4843
 1926SOL    MW4 7779   4.272   4.366   2.951 -0.1397 -0.5674  0.5414
 1927SOL     OW 7780   0.194   0.010   3.263  0.3217 -0.1441 -0.1960
 1927SOL    HW2 7781   0.276   0.057   3.281 -0.6341  1.1247  0.8702
 1927SOL    HW3 7782   0.208  -0.078   3.300  0.3948  0.7539  1.9950
 1927SOL    MW4 7783   0.207   0.004   3.270  0.2052  0.1418  0.2337
 1928SOL     OW 7784   4.470   0.142   3.380  0.0933 -0.4949  0.1698
 1928SOL    HW2 7785   4.482   0.229   3.343  1.9998 -0.8378 -0.1163
 1928SOL    HW3 7786   4.549   0.094   3.353 -0.8737 -2.2748  0.4007
 1928SOL    MW4 7787   4.482   0.147   3.371  0.2170 -0.7750  0.1628
 1929SOL     OW 7788   0.009   0.370   3.234  0.2531 -0.2023 -0.1669
 1929SOL    HW2 7789  -0.065   0.425   3.261  0.1291 -0.2556 -0.3989
 1929SOL    HW3 7790   0.080   0.396   3.292 -0.2630 -0.9376  0.8251
 1929SOL    MW4 7791   0.009   0.380   3.246  0.1683 -0.3064 -0.0668
 1930SOL     OW 7792   0.252   0.477   3.348  0.1872  0.4454  0.2201
 1930SOL    HW2 7793   0.340   0.445   3.330 -0.0698 -1.0765  1.6190
 1930SOL    HW3 7794   0.258   0.572   3.336  1.7419  0.2414 -0.7346
 1930SOL    MW4 7795   0.264   0.485   3.344  0.3584  0.2177  0.2787
 1931SOL     OW 7796   0.229   0.752   3.293  0.0862 -0.4179 -0.4059
 1931SOL    HW2 7797   0.304   0.800   3.330  0.1637  0.2171 -1.3636
 1931SOL    HW3 7798   0.152   0.794   3.331  0.1670  0.2312 -0.9443
 1931SOL    MW4 7799   0.229   0.764   3.303  0.1071 -0.2486 -0.6032
 1932SOL     OW 7800   0.008   0.876   3.398  0.4026  0.7349  0.3357
 1932SOL    HW2 7801  -0.000   0.863   3.493 -0.3126 -1.0988  0.0352
 1932SOL    HW3 7802   0.013   0.971   3.388  1.3415  0.9210  2.2778
 1932SOL    MW4 7803   0.007   0.887   3.409  0.4320  0.5175  0.5522
 1933SOL     OW 7804   4.464   1.159   3.350 -0.3472  0.1458 -0.1697
 1933SOL    HW2 7805   4.547   1.198   3.380 -0.4969 -0.0644  0.5286
 1933SOL    HW3 7806   4.465   1.172   3.255 -0.1472  1.3731 -0.0124
 1933SOL    MW4 7807   4.475   1.166   3.341 -0.3409  0.2801 -0.0567
 1934SOL     OW 7808   0.203   1.271   3.424  0.3882  0.4689 -0.2591
 1934SOL    HW2 7809   0.272   1.225   3.375  1.2347  1.5332 -0.0794
 1934SOL    HW3 7810   0.210   1.362   3.396 -1.4537  0.4688 -0.8012
 1934SOL    MW4 7811   0.213   1.277   3.414  0.2569  0.6093 -0.3068
 1935SOL     OW 7812   0.229   1.544   3.343 -0.3746 -0.3843  0.1977
 1935SOL    HW2 7813   0.306   1.600   3.353 -1.3635  0.6329  2.6987
 1935SOL    HW3 7814   0.203   1.556   3.252  0.4682  1.8885  0.2063
 1935SOL    MW4 7815   0.236   1.553   3.332 -0.3939  0.0498  0.5288
 1936SOL     OW 7816   0.008   1.684   3.451  0.1591  0.5187 -0.3025
 1936SOL    HW2 7817  -0.059   1.631   3.409  0.2504 -0.9260  1.3004
 1936SOL    HW3 7818   0.091   1.643   3.425  0.2262 -0.2187  1.0438
 1936SOL    MW4 7819   0.010   1.672   3.442  0.1798  0.2308  0.0868
 1937SOL     OW 7820   0.003   1.916   3.300  0.2974  0.3723  0.5290
 1937SOL    HW2 7821   0.011   1.831   3.343  1.0363  0.7653  1.1796
 1937SOL    HW3 7822  -0.001   1.895   3.206  1.4961 -0.3349  0.6239
 1937SOL    MW4 7823   0.004   1.902   3.293  0.5527  0.3309  0.6273
 1938SOL     OW 7824   0.203   2.086   3.401  0.4182 -0.2128 -0.2791
 1938SOL    HW2 7825   0.184   2.082   3.494 -0.4742 -0.0023 -0.4424
 1938SOL    HW3 7826   0.130   2.039   3.360  0.1099  0.8393 -0.9473
 1938SOL    MW4 7827   0.191   2.079   3.408  0.2598 -0.0463 -0.3886
 1939SOL     OW 7828   0.236   2.348   3.303 -0.0108 -0.0924 -0.6798
 1939SOL    HW2 7829   0.154   2.376   3.343  0.9798  0.8937  0.6768
 1939SOL    HW3 7830   0.248   2.258   3.333  0.3918  0.4204  0.6878
 1939SOL    MW4 7831   0.227   2.340   3.312  0.1730  0.1054 -0.3204
 1940SOL     OW 7832   0.006   2.472   3.400 -0.3742 -0.5358 -0.1581
 1940SOL    HW2 7833   0.003   2.458   3.495 -0.1939  1.5544  0.1823
 1940SOL    HW3 7834  -0.079   2.444   3.368 -0.5531 -0.9487  0.6817
 1940SOL    MW4 7835  -0.005   2.467   3.408 -0.3743 -0.3142 -0.0021
 1941SOL     OW 7836   4.487   2.747   3.294 -0.6664 -0.2535  0.0362
 1941SOL    HW2 7837   4.560   2.796   3.333  1.3809 -1.2733 -2.3445
 1941SOL    HW3 7838   4.488   2.663   3.340 -1.6711  0.4472  1.3926
 1941SOL    MW4 7839   4.497   2.743   3.305 -0.5289 -0.2959 -0.0992
 1942SOL     OW 7840   0.208   2.863   3.454  0.2671 -0.7289 -0.4679
 1942SOL    HW2 7841   0.282   2.815   3.415 -0.3649 -0.7394 -1.6594
 1942SOL    HW3 7842   0.203   2.944   3.404  0.3471 -0.0970  0.5354
 1942SOL    MW4 7843   0.217   2.867   3.442  0.1943 -0.6468 -0.4926
 1943SOL     OW 7844   0.204   3.093   3.300  0.3084  0.2421 -0.0493
 1943SOL    HW2 7845   0.137   3.154   3.334  0.4466  0.5668 -0.3578
 1943SOL    HW3 7846   0.179   3.079   3.209 -0.5215 -1.2601  0.4001
 1943SOL    MW4 7847   0.191   3.099   3.293  0.2172  0.0865 -0.0308
 1944SOL     OW 7848   4.490   3.240   3.434  0.0921 -0.0315  0.0958
 1944SOL    HW2 7849   4.419   3.190   3.391  0.9913 -1.0445 -0.2373
 1944SOL    HW3 7850   4.489   3.325   3.390 -0.3461 -0.3493 -0.5215
 1944SOL    MW4 7851   4.480   3.245   3.422  0.1526 -0.2069 -0.0298
 1945SOL     OW 7852   0.008   3.485   3.296 -0.3332 -0.2978 -0.0454
 1945SOL    HW2 7853  -0.065   3.535   3.331 -0.8715 -0.4306 -0.9699
 1945SOL    HW3 7854   0.086   3.530   3.329 -0.8215 -0.2357  1.0577
 1945SOL    MW4 7855   0.009   3.497   3.305 -0.4687 -0.3071 -0.0219
 1946SOL     OW 7856   0.233   3.607   3.384 -0.0182 -0.0930  0.1642
 1946SOL    HW2 7857   0.232   3.615   3.479  1.0106  0.7832  0.1114
 1946SOL    HW3 7858   0.234   3.697   3.352 -0.5437 -0.3779 -0.6873
 1946SOL    MW4 7859   0.233   3.620   3.392  0.0482 -0.0150  0.0451
 1947SOL     OW 7860   0.201   3.868   3.299  0.0860 -0.2448  0.1679
 1947SOL    HW2 7861   0.128   3.925   3.325 -1.1908 -2.2275  1.0396
 1947SOL    HW3 7862   0.279   3.914   3.329 -1.0204  0.2312  2.4526
 1947SOL    MW4 7863   0.201   3.882   3.306 -0.2284 -0.4439  0.5846
 1948SOL     OW 7864   4.474   4.029   3.399 -0.1873  0.4716 -0.1738
 1948SOL    HW2 7865   4.482   4.036   3.494  0.1165  0.6052 -0.2090
 1948SOL    HW3 7866   4.478   4.120   3.368 -1.5207  0.5256 -0.2164
 1948SOL    MW4 7867   4.475   4.042   3.407 -0.3231  0.4964 -0.1841
 1949SOL     OW 7868   0.013   4.295   3.302  0.4604 -0.3538  0.0276
 1949SOL    HW2 7869  -0.066   4.343   3.330 -0.3787 -0.3833 -2.1796
 1949SOL    HW3 7870   0.085   4.349   3.333 -0.4639  1.3406 -0.6967
 1949SOL    MW4 7871   0.012   4.309   3.310  0.2278 -0.1340 -0.3593
 1950SOL     OW 7872   0.248   4.419   3.379 -0.3511 -0.2120 -0.0762
 1950SOL    HW2 7873   0.246   4.399   3.473 -0.5244  0.0921 -0.0161
 1950SOL    HW3 7874   0.321   4.366   3.346  0.6567  0.7842  0.4925
 1950SOL    MW4 7875   0.258   4.409   3.387 -0.2410 -0.0401  0.0067
 1951SOL     OW 7876   0.687   4.641   3.269  0.4028  0.2275 -0.1175
 1951SOL    HW2 7877   0.763   4.692   3.298  0.0837  1.3371 -1.2065
 1951SOL    HW3 7878   0.698   4.634   3.174 -0.0299 -0.9773 -0.0786
 1951SOL    MW4 7879   0.699   4.647   3.260  0.3036  0.2151 -0.2561
 1952SOL     OW 7880   0.454   0.113   3.339  0.1555  0.2268  0.2158
 1952SOL    HW2 7881   0.455   0.085   3.430 -0.3107 -0.0515  0.1408
 1952SOL    HW3 7882   0.532   0.074   3.301  0.0331 -0.1598  0.3549
 1952SOL    MW4 7883   0.464   0.104   3.346  0.0778  0.1391  0.2244
 1953SOL     OW 7884   0.478   0.360   3.225  0.1829  0.4321 -0.4585
 1953SOL    HW2 7885   0.549   0.400   3.276 -0.8313  0.2934  1.1017
 1953SOL    HW3 7886   0.456   0.281   3.273  0.1934 -0.4819 -1.9416
 1953SOL    MW4 7887   0.484   0.355   3.238  0.0505  0.2932 -0.4485
 1954SOL     OW 7888   0.684   0.510   3.349 -0.1672 -0.0680  0.0264
 1954SOL    HW2 7889   0.712   0.505   3.440 -0.4273  0.4353  0.1356
 1954SOL    HW3 7890   0.758   0.475   3.299  0.1140 -0.0184  0.4046
 1954SOL    MW4 7891   0.698   0.504   3.354 -0.1644  0.0049  0.0906
 1955SOL     OW 7892   0.664   0.785   3.294  0.0157 -0.0225  0.1118
 1955SOL    HW2 7893   0.581   0.809   3.336 -0.2478  0.5242 -0.7004
 1955SOL    HW3 7894   0.679   0.694   3.320 -0.3961  0.1501  0.9696
 1955SOL    MW4 7895   0.655   0.776   3.303 -0.0734  0.0724  0.1180
 1956SOL     OW 7896   0.439   0.876   3.431  0.6023 -0.4479  0.3923
 1956SOL    HW2 7897   0.430   0.970   3.413 -2.0670 -0.7094  0.0717
 1956SOL    HW3 7898   0.458   0.871   3.524 -0.9339  0.3819  0.7730
 1956SOL    MW4 7899   0.440   0.888   3.441  0.0475 -0.3729  0.4001
 1957SOL     OW 7900   0.431   1.127   3.322  0.8189  0.4689  0.1563
 1957SOL    HW2 7901   0.493   1.191   3.357 -1.1875  1.5005  1.9756
 1957SOL    HW3 7902   0.410   1.158   3.234  2.1974  0.5922 -0.1353
 1957SOL    MW4 7903   0.437   1.139   3.315  0.7361  0.6212  0.3574
 1958SOL     OW 7904   0.636   1.289   3.412 -0.6434 -0.5406 -0.1185
 1958SOL    HW2 7905   0.716   1.239   3.393 -1.2643 -1.5329 -0.1527
 1958SOL    HW3 7906   0.644   1.368   3.358  0.0267 -0.9225 -0.5930
 1958SOL    MW4 7907   0.648   1.293   3.402 -0.6369 -0.7219 -0.1857
 1959SOL     OW 7908   0.650   1.544   3.285  0.3445  0.1345  0.1603
 1959SOL    HW2 7909   0.733   1.576   3.320  0.0149  0.8632  0.2854
 1959SOL    HW3 7910   0.583   1.600   3.326 -0.2471 -0.7509  0.4325
 1959SOL    MW4 7911   0.652   1.555   3.295  0.2229  0.1138  0.2129
 1960SOL     OW 7912   0.442   1.690   3.380 -0.1248 -0.4147 -0.4957
 1960SOL    HW2 7913   0.452   1.703   3.475 -0.5834 -0.4740 -0.4390
 1960SOL    HW3 7914   0.451   1.778   3.343 -0.9311 -0.2560 -0.3113
 1960SOL    MW4 7915   0.445   1.703   3.388 -0.2916 -0.4015 -0.4640
 1961SOL     OW 7916   0.440   1.949   3.293 -0.3140  0.5211 -0.0696
 1961SOL    HW2 7917   0.352   1.976   3.318 -0.5727  0.4125 -0.8567
 1961SOL    HW3 7918   0.442   1.956   3.198 -0.1538 -1.5118 -0.2553
 1961SOL    MW4 7919   0.429   1.953   3.284 -0.3270  0.2388 -0.1979
 1962SOL     OW 7920   0.660   2.088   3.362 -0.2312  0.7347  0.2405
 1962SOL    HW2 7921   0.657   2.088   3.458  2.3120 -0.2556  0.3540
 1962SOL    HW3 7922   0.574   2.055   3.336 -1.1086  1.3930  2.1587
 1962SOL    MW4 7923   0.648   2.084   3.371 -0.0114  0.6909  0.5085
 1963SOL     OW 7924   0.636   2.347   3.331 -0.0625  0.4819 -0.4373
 1963SOL    HW2 7925   0.725   2.373   3.353 -0.5146  1.3203  0.4283
 1963SOL    HW3 7926   0.633   2.253   3.348  0.1157  0.7868  1.3861
 1963SOL    MW4 7927   0.647   2.338   3.336 -0.0986  0.6328 -0.0825
 1964SOL     OW 7928   0.418   2.492   3.441 -0.4599 -0.0764 -0.0119
 1964SOL    HW2 7929   0.500   2.449   3.415 -0.7567 -0.5791 -0.1418
 1964SOL    HW3 7930   0.350   2.428   3.418 -0.8952  0.3874 -0.0146
 1964SOL    MW4 7931   0.420   2.478   3.434 -0.5564 -0.0818 -0.0291
 1965SOL     OW 7932   0.396   2.742   3.315  0.0481  0.2525  0.2014
 1965SOL    HW2 7933   0.397   2.651   3.343 -0.6069  0.2579  0.2512
 1965SOL    HW3 7934   0.394   2.738   3.220 -1.2792  0.1948  0.2198
 1965SOL    MW4 7935   0.396   2.730   3.306 -0.2134  0.2456  0.2105
 1966SOL     OW 7936   0.660   2.831   3.399  0.3686  0.0192 -0.0897
 1966SOL    HW2 7937   0.728   2.781   3.353  0.3766  0.6449 -0.7578
 1966SOL    HW3 7938   0.578   2.797   3.366  0.3725  0.3393 -0.4291
 1966SOL    MW4 7939   0.658   2.820   3.389  0.3701  0.1440 -0.2227
 1967SOL     OW 7940   0.669   3.074   3.275  0.5805  0.6241  0.1538
 1967SOL    HW2 7941   0.581   3.112   3.281  0.0092 -0.5249 -0.7133
 1967SOL    HW3 7942   0.662   2.990   3.320  1.6717  1.2510  1.5180
 1967SOL    MW4 7943   0.657   3.068   3.281  0.6490  0.5553  0.2196
 1968SOL     OW 7944   0.441   3.202   3.378  0.3692  0.1739 -0.1291
 1968SOL    HW2 7945   0.440   3.206   3.474  1.7815 -0.1542 -0.0989
 1968SOL    HW3 7946   0.355   3.164   3.356  0.0224  0.2692  0.9985
 1968SOL    MW4 7947   0.429   3.197   3.388  0.5098  0.1431  0.0236
 1969SOL     OW 7948   0.454   3.474   3.269 -0.0714  0.4865  0.2823
 1969SOL    HW2 7949   0.447   3.385   3.301  1.8884  0.6139  1.1333
 1969SOL    HW3 7950   0.377   3.519   3.304 -1.3733 -0.9872 -0.6285
 1969SOL    MW4 7951   0.443   3.468   3.278  0.0155  0.3090  0.2744
 1970SOL     OW 7952   0.676   3.626   3.386  0.1583  0.2130  0.2503
 1970SOL    HW2 7953   0.761   3.591   3.359  0.2200 -1.2882  2.2803
 1970SOL    HW3 7954   0.613   3.577   3.334  0.4699  0.3273 -0.2384
 1970SOL    MW4 7955   0.679   3.615   3.375  0.2076  0.0300  0.4535
 1971SOL     OW 7956   0.673   3.866   3.275  0.2076  0.3608  0.1395
 1971SOL    HW2 7957   0.589   3.904   3.301  0.1189  0.7069 -0.6319
 1971SOL    HW3 7958   0.673   3.779   3.313 -0.6764  0.2103 -0.1975
 1971SOL    MW4 7959   0.662   3.860   3.284  0.0793  0.3862 -0.0067
 1972SOL     OW 7960   0.448   3.991   3.372  0.3170  0.2405  0.0960
 1972SOL    HW2 7961   0.441   4.087   3.366 -2.0995 -0.0185 -2.1617
 1972SOL    HW3 7962   0.430   3.971   3.464 -1.9913  1.7764  0.0129
 1972SOL    MW4 7963   0.445   4.001   3.383 -0.3064  0.4086 -0.2129
 1973SOL     OW 7964   0.460   4.243   3.280  0.0049 -0.0281  0.6136
 1973SOL    HW2 7965   0.537   4.285   3.319  0.8012 -1.4507  0.5728
 1973SOL    HW3 7966   0.470   4.256   3.186 -0.6101  1.1326  0.6881
 1973SOL    MW4 7967   0.471   4.250   3.273  0.0288 -0.0625  0.6180
 1974SOL     OW 7968   0.667   4.388   3.377 -0.4991  0.0311  0.0218
 1974SOL    HW2 7969   0.746   4.339   3.354  0.4017 -0.4970  3.8827
 1974SOL    HW3 7970   0.681   4.475   3.338  1.4571 -0.4176 -0.3213
 1974SOL    MW4 7971   0.679   4.393   3.369 -0.1222 -0.0978  0.4861
 1975SOL     OW 7972   1.125   4.639   3.291 -0.4271  0.5575  0.5424
 1975SOL    HW2 7973   1.206   4.684   3.317 -0.5797  1.3289 -0.2919
 1975SOL    HW3 7974   1.127   4.641   3.196 -0.8422 -0.5039  0.5094
 1975SOL    MW4 7975   1.136   4.645   3.282 -0.5021  0.5198  0.4282
 1976SOL     OW 7976   0.914   0.111   3.380 -0.2698  0.0304 -0.6464
 1976SOL    HW2 7977   0.915   0.097   3.475  0.1348  0.4256 -0.5889
 1976SOL    HW3 7978   0.982   0.054   3.346 -0.2867  0.0296 -0.6788
 1976SOL    MW4 7979   0.923   0.102   3.388 -0.2186  0.0825 -0.6430
 1977SOL     OW 7980   0.948   0.366   3.271  0.2842  0.0104 -0.7283
 1977SOL    HW2 7981   0.933   0.277   3.304 -0.1361 -0.3429 -1.8407
 1977SOL    HW3 7982   1.024   0.397   3.319 -0.4722 -0.3834  0.7673
 1977SOL    MW4 7983   0.956   0.358   3.281  0.1289 -0.0882 -0.6776
 1978SOL     OW 7984   1.144   0.511   3.392  0.4584  0.0491  0.1817
 1978SOL    HW2 7985   1.134   0.522   3.486  1.1014  0.1396  0.2419
 1978SOL    HW3 7986   1.132   0.599   3.356 -0.1131 -0.0410  0.1482
 1978SOL    MW4 7987   1.141   0.524   3.400  0.4677  0.0492  0.1857
 1979SOL     OW 7988   1.111   0.780   3.312 -0.2547  0.1678  0.3778
 1979SOL    HW2 7989   1.189   0.831   3.335 -0.2499  0.3313  0.0076
 1979SOL    HW3 7990   1.040   0.826   3.356 -0.3743  1.0319 -0.6848
 1979SOL    MW4 7991   1.112   0.793   3.321 -0.2697  0.3034  0.1888
 1980SOL     OW 7992   0.888   0.884   3.424 -0.3778 -0.0287 -0.5965
 1980SOL    HW2 7993   0.888   0.901   3.518 -0.9453  1.9175 -0.9175
 1980SOL    HW3 7994   0.799   0.854   3.405 -1.0034  1.8899 -0.8604
 1980SOL    MW4 7995   0.876   0.883   3.434 -0.5352  0.4812 -0.6735
 1981SOL     OW 7996   0.876   1.142   3.332  0.2580  0.1708  0.2341
 1981SOL    HW2 7997   0.880   1.049   3.355  0.0173  0.0661 -0.1407
 1981SOL    HW3 7998   0.877   1.143   3.236 -2.0125  0.4392  0.1924
 1981SOL    MW4 7999   0.877   1.130   3.322 -0.0734  0.1924  0.1793
 1982SOL     OW 8000   1.096   1.294   3.423  0.1288  0.0362  0.4974
 1982SOL    HW2 8001   1.090   1.287   3.518 -0.5388 -0.1967  0.4434
 1982SOL    HW3 8002   1.025   1.239   3.390 -0.2720  0.8980 -0.1167
 1982SOL    MW4 8003   1.086   1.286   3.431 -0.0120  0.1191  0.4094
 1983SOL     OW 8004   1.119   1.523   3.270 -0.6301  0.4804  0.4594
 1983SOL    HW2 8005   1.182   1.576   3.318 -0.3370  0.5689 -0.0306
 1983SOL    HW3 8006   1.108   1.445   3.325 -0.2537  0.5593  0.6499
 1983SOL    MW4 8007   1.126   1.519   3.284 -0.5417  0.5025  0.4196
 1984SOL     OW 8008   0.899   1.635   3.384  0.3062 -0.7709  0.2066
 1984SOL    HW2 8009   0.897   1.721   3.342 -1.2656 -0.3469  1.0907
 1984SOL    HW3 8010   0.984   1.598   3.360  0.8943  0.9236 -0.3901
 1984SOL    MW4 8011   0.910   1.641   3.375  0.1764 -0.4915  0.2446
 1985SOL     OW 8012   0.867   1.899   3.288  0.0637 -0.2071 -0.0773
 1985SOL    HW2 8013   0.946   1.950   3.302 -0.1418 -0.0357  0.4653
 1985SOL    HW3 8014   0.796   1.956   3.317 -0.2551 -0.3932 -0.4812
 1985SOL    MW4 8015   0.868   1.913   3.294 -0.0055 -0.2090 -0.0589
 1986SOL     OW 8016   1.060   2.063   3.345  0.0704  0.5791 -0.3213
 1986SOL    HW2 8017   1.147   2.023   3.336 -0.3467 -0.4780  0.2240
 1986SOL    HW3 8018   1.070   2.151   3.309  1.5306  0.6879  0.3079
 1986SOL    MW4 8019   1.073   2.069   3.339  0.2080  0.4542 -0.1667
 1987SOL     OW 8020   1.107   2.336   3.254 -0.2916 -0.0291 -0.0648
 1987SOL    HW2 8021   1.179   2.378   3.301  1.7092 -1.0493 -2.1362
 1987SOL    HW3 8022   1.139   2.328   3.164 -2.4433 -1.8076 -0.7024
 1987SOL    MW4 8023   1.121   2.340   3.249 -0.3117 -0.3984 -0.4225
 1988SOL     OW 8024   0.885   2.473   3.359  0.3031  0.0865 -0.0962
 1988SOL    HW2 8025   0.884   2.476   3.455  0.8217  1.9280 -0.1448
 1988SOL    HW3 8026   0.973   2.444   3.337  0.3583  0.2005 -0.0266
 1988SOL    MW4 8027   0.897   2.469   3.369  0.3788  0.3445 -0.0935
 1989SOL     OW 8028   0.900   2.735   3.287 -0.9735 -0.0001  0.1241
 1989SOL    HW2 8029   0.972   2.776   3.335 -1.8496  1.2943  0.3773
 1989SOL    HW3 8030   0.903   2.643   3.311  1.6601 -0.3115 -1.2065
 1989SOL    MW4 8031   0.910   2.729   3.296 -0.7417  0.1295 -0.0181
 1990SOL     OW 8032   1.119   2.856   3.398  0.4522 -0.0912 -0.6687
 1990SOL    HW2 8033   1.128   2.835   3.491  1.2842 -0.5253 -0.8396
 1990SOL    HW3 8034   1.184   2.801   3.354  1.2933  1.3853 -1.3258
 1990SOL    MW4 8035   1.129   2.846   3.404  0.6729  0.0465 -0.7782
 1991SOL     OW 8036   1.093   3.121   3.312 -0.1911 -0.0710  0.5186
 1991SOL    HW2 8037   1.095   3.034   3.351 -0.6839 -0.3932 -0.1600
 1991SOL    HW3 8038   1.101   3.106   3.218 -1.8380  0.4936  0.2561
 1991SOL    MW4 8039   1.094   3.108   3.305 -0.4734 -0.0389  0.3943
 1992SOL     OW 8040   0.869   3.240   3.376 -0.0959 -0.2196  0.4350
 1992SOL    HW2 8041   0.944   3.190   3.344  0.1115  1.0795 -1.1495
 1992SOL    HW3 8042   0.793   3.194   3.341  0.0305 -0.5635  0.6158
 1992SOL    MW4 8043   0.869   3.228   3.367 -0.0519 -0.0932  0.2496
 1993SOL     OW 8044   0.905   3.503   3.291 -0.2955  0.0769 -0.1920
 1993SOL    HW2 8045   0.881   3.414   3.317 -1.2380  0.3549 -0.0604
 1993SOL    HW3 8046   0.895   3.504   3.196  0.6736 -0.2301 -0.2992
 1993SOL    MW4 8047   0.900   3.491   3.282 -0.2919  0.0730 -0.1886
 1994SOL     OW 8048   1.110   3.654   3.404  0.1833  0.0851  0.8486
 1994SOL    HW2 8049   1.108   3.632   3.497 -0.2096 -0.5973  0.6868
 1994SOL    HW3 8050   1.032   3.612   3.368  1.5192 -1.5642 -0.1960
 1994SOL    MW4 8051   1.099   3.646   3.412  0.3077 -0.2224  0.6895
 1995SOL     OW 8052   1.128   3.903   3.302 -0.5425  0.3480  0.2652
 1995SOL    HW2 8053   1.200   3.947   3.348 -0.1318  0.2715 -0.2958
 1995SOL    HW3 8054   1.117   3.820   3.347 -3.0430  2.0430  3.0100
 1995SOL    MW4 8055   1.136   3.898   3.314 -0.8181  0.5615  0.5534
 1996SOL     OW 8056   0.885   3.995   3.383 -0.3227 -0.0702 -0.0024
 1996SOL    HW2 8057   0.964   3.963   3.338 -0.5860  0.6347 -0.9846
 1996SOL    HW3 8058   0.814   3.942   3.347 -0.3996 -0.1806  0.3142
 1996SOL    MW4 8059   0.886   3.984   3.372 -0.3676  0.0083 -0.0901
 1997SOL     OW 8060   0.913   4.261   3.307  0.2360  0.0210 -0.1050
 1997SOL    HW2 8061   0.902   4.166   3.313  0.8585 -0.1344 -1.3814
 1997SOL    HW3 8062   0.924   4.279   3.214  0.0355  1.3633  0.1123
 1997SOL    MW4 8063   0.913   4.251   3.296  0.2917  0.1774 -0.2449
 1998SOL     OW 8064   1.154   4.385   3.423 -0.1634  0.1679  0.0143
 1998SOL    HW2 8065   1.075   4.346   3.386 -1.5772  0.4878  2.5853
 1998SOL    HW3 8066   1.153   4.475   3.391 -1.0428  0.2690  0.2966
 1998SOL    MW4 8067   1.143   4.392   3.414 -0.4661  0.2236  0.3908
 1999SOL     OW 8068   1.565   4.631   3.300  0.0811 -0.5135  0.1840
 1999SOL    HW2 8069   1.582   4.550   3.349 -2.6284 -2.3949 -1.8797
 1999SOL    HW3 8070   1.480   4.660   3.331  0.8655  1.3756  0.6195
 1999SOL    MW4 8071   1.556   4.624   3.311 -0.1729 -0.5121 -0.0310
 2000SOL     OW 8072   1.334   0.096   3.405  0.4899 -0.2323  0.1091
 2000SOL    HW2 8073   1.348   0.093   3.500 -0.7186  0.8320  0.3212
 2000SOL    HW3 8074   1.340   0.189   3.382  0.4266 -0.4458 -0.8075
 2000SOL    MW4 8075   1.337   0.108   3.415  0.3221 -0.1200  0.0162
 2001SOL     OW 8076   1.342   0.354   3.292 -0.2272 -0.4205 -0.2207
 2001SOL    HW2 8077   1.424   0.397   3.316  0.2789 -1.8177  0.6590
 2001SOL    HW3 8078   1.274   0.407   3.333  0.5010 -1.5204  2.5530
 2001SOL    MW4 8079   1.344   0.367   3.301 -0.0641 -0.7500  0.2613
 2002SOL     OW 8080   1.561   0.499   3.396  0.4062  0.0610  0.1794
 2002SOL    HW2 8081   1.571   0.500   3.492  1.5453  1.3383  0.0636
 2002SOL    HW3 8082   1.647   0.470   3.364  0.2791  0.4297 -0.4830
 2002SOL    MW4 8083   1.574   0.495   3.405  0.5397  0.2782  0.0770
 2003SOL     OW 8084   1.566   0.769   3.288 -0.0813  0.2224 -0.3199
 2003SOL    HW2 8085   1.485   0.812   3.314 -0.2353 -0.4220  0.3055
 2003SOL    HW3 8086   1.560   0.682   3.329  0.7451  0.0376 -0.5925
 2003SOL    MW4 8087   1.555   0.763   3.297  0.0076  0.1130 -0.2735
 2004SOL     OW 8088   1.347   0.916   3.360 -0.5026 -0.3013  0.0830
 2004SOL    HW2 8089   1.371   0.928   3.452 -1.6122 -0.0829  0.3505
 2004SOL    HW3 8090   1.333   1.005   3.327 -0.4682 -0.3990 -0.1941
 2004SOL    MW4 8091   1.348   0.929   3.368 -0.6446 -0.2853  0.0813
 2005SOL     OW 8092   1.331   1.192   3.310 -0.5567 -0.0988  0.1794
 2005SOL    HW2 8093   1.406   1.243   3.340 -1.0999  0.1716  1.1171
 2005SOL    HW3 8094   1.256   1.228   3.359 -1.4640  0.3171 -1.4794
 2005SOL    MW4 8095   1.331   1.203   3.321 -0.7482 -0.0082  0.0844
 2006SOL     OW 8096   1.557   1.322   3.406 -0.0936 -0.5675 -0.2512
 2006SOL    HW2 8097   1.544   1.307   3.499 -1.7560  0.0995 -0.3518
 2006SOL    HW3 8098   1.630   1.265   3.382  1.0780  0.1032  1.6678
 2006SOL    MW4 8099   1.565   1.312   3.415 -0.1583 -0.3911 -0.0114
 2007SOL     OW 8100   1.584   1.588   3.346  0.4194  0.3135 -0.2930
 2007SOL    HW2 8101   1.565   1.501   3.381 -1.1568  0.2951 -1.1482
 2007SOL    HW3 8102   1.579   1.577   3.251 -0.2876  1.4374 -0.3940
 2007SOL    MW4 8103   1.581   1.575   3.338  0.1183  0.4594 -0.4191
 2008SOL     OW 8104   1.332   1.683   3.378  0.5650  0.4443 -0.4942
 2008SOL    HW2 8105   1.327   1.695   3.473  1.2950  1.4651 -0.5619
 2008SOL    HW3 8106   1.424   1.662   3.362  0.4633  0.3669 -0.9856
 2008SOL    MW4 8107   1.344   1.682   3.389  0.6480  0.5687 -0.5679
 2009SOL     OW 8108   1.320   1.948   3.309  0.1452 -0.2884 -0.2973
 2009SOL    HW2 8109   1.399   1.981   3.353  0.1005 -0.1835 -0.2953
 2009SOL    HW3 8110   1.323   1.853   3.322 -0.1083 -0.2151  0.3342
 2009SOL    MW4 8111   1.331   1.940   3.316  0.1057 -0.2649 -0.2139
 2010SOL     OW 8112   1.568   2.052   3.429  0.3183  0.1106 -0.7594
 2010SOL    HW2 8113   1.639   2.001   3.389  0.2383  0.2413 -1.0644
 2010SOL    HW3 8114   1.567   2.135   3.380  0.4928  0.4325 -0.2206
 2010SOL    MW4 8115   1.577   2.056   3.417  0.3308  0.1702 -0.7286
 2011SOL     OW 8116   1.546   2.330   3.326  0.3716  0.2016 -0.2185
 2011SOL    HW2 8117   1.462   2.367   3.354 -0.9891 -1.9749 -1.2681
 2011SOL    HW3 8118   1.547   2.343   3.231  0.7805 -0.6168 -0.3290
 2011SOL    MW4 8119   1.535   2.336   3.317  0.2460 -0.1934 -0.3717
 2012SOL     OW 8120   1.314   2.456   3.392 -0.1146 -0.9147  0.0771
 2012SOL    HW2 8121   1.331   2.455   3.487  0.4223 -0.6554 -0.0186
 2012SOL    HW3 8122   1.323   2.548   3.368 -0.7698 -0.8992 -0.1378
 2012SOL    MW4 8123   1.317   2.468   3.402 -0.1303 -0.8786  0.0360
 2013SOL     OW 8124   1.324   2.709   3.282  0.7189 -0.2825  0.3624
 2013SOL    HW2 8125   1.399   2.749   3.327  1.1136 -0.7536  0.1215
 2013SOL    HW3 8126   1.341   2.723   3.189  0.2012  0.1495  0.3233
 2013SOL    MW4 8127   1.336   2.716   3.276  0.7027 -0.2875  0.3254
 2014SOL     OW 8128   1.552   2.825   3.381  0.6317  0.6593 -0.2837
 2014SOL    HW2 8129   1.637   2.809   3.340  1.8681  2.1586  1.5324
 2014SOL    HW3 8130   1.534   2.917   3.362 -1.0430  0.1137 -1.4066
 2014SOL    MW4 8131   1.561   2.835   3.373  0.5739  0.7851 -0.1922
 2015SOL     OW 8132   1.528   3.092   3.294  0.1232  0.0510 -0.2026
 2015SOL    HW2 8133   1.610   3.137   3.314  0.4047 -1.0149  1.1306
 2015SOL    HW3 8134   1.460   3.145   3.336  0.0705  1.0698 -1.5140
 2015SOL    MW4 8135   1.530   3.105   3.302  0.1534  0.0446 -0.1996
 2016SOL     OW 8136   1.327   3.267   3.389 -0.2636  0.0977 -0.0551
 2016SOL    HW2 8137   1.325   3.267   3.485  0.3075 -0.1962 -0.0408
 2016SOL    HW3 8138   1.253   3.214   3.363  0.0691 -0.5155  0.2393
 2016SOL    MW4 8139   1.317   3.260   3.398 -0.1444 -0.0222 -0.0143
 2017SOL     OW 8140   1.338   3.519   3.270  0.1472  0.6321 -0.5115
 2017SOL    HW2 8141   1.342   3.437   3.319 -0.9205  0.0067 -1.4462
 2017SOL    HW3 8142   1.267   3.568   3.312  0.4708  0.8910 -0.2579
 2017SOL    MW4 8143   1.329   3.515   3.282  0.0490  0.5834 -0.6013
 2018SOL     OW 8144   1.567   3.649   3.390  0.0140 -0.4358  0.2497
 2018SOL    HW2 8145   1.558   3.638   3.485 -1.2230  0.7254  0.2841
 2018SOL    HW3 8146   1.489   3.606   3.355 -1.1507  1.8120 -0.0310
 2018SOL    MW4 8147   1.555   3.642   3.398 -0.3029  0.0138  0.2174
 2019SOL     OW 8148   1.580   3.911   3.310  0.3827  0.2142 -0.4383
 2019SOL    HW2 8149   1.566   3.819   3.333  1.5124 -0.2455 -1.5347
 2019SOL    HW3 8150   1.575   3.912   3.214  2.0522  1.0053 -0.5314
 2019SOL    MW4 8151   1.577   3.899   3.300  0.7522  0.2582 -0.5956
 2020SOL     OW 8152   1.366   4.039   3.423  0.0331  0.1786 -0.1509
 2020SOL    HW2 8153   1.377   4.117   3.369  0.6771 -0.2850 -0.6945
 2020SOL    HW3 8154   1.445   3.987   3.407 -0.4267 -0.6233  0.1410
 2020SOL    MW4 8155   1.378   4.042   3.414  0.0575  0.0114 -0.1843
 2021SOL     OW 8156   1.381   4.296   3.307  0.0360 -0.2693  0.2015
 2021SOL    HW2 8157   1.307   4.332   3.356 -0.0510  0.5585 -0.5090
 2021SOL    HW3 8158   1.352   4.298   3.216 -0.0854 -2.4752  0.1786
 2021SOL    MW4 8159   1.367   4.301   3.301  0.0086 -0.4506  0.1051
 2022SOL     OW 8160   1.633   4.397   3.441  0.2168 -0.0039 -0.2299
 2022SOL    HW2 8161   1.716   4.374   3.399 -0.3286  1.8500 -2.4991
 2022SOL    HW3 8162   1.567   4.349   3.391 -0.2998  0.8242 -0.3592
 2022SOL    MW4 8163   1.635   4.388   3.429  0.0767  0.3495 -0.5460
 2023SOL     OW 8164   2.034   0.017   3.283  0.0639  0.0869  0.3323
 2023SOL    HW2 8165   2.112   0.061   3.317 -0.3849  0.7419  0.5309
 2023SOL    HW3 8166   1.961   0.058   3.329 -0.3676 -0.9093  0.5500
 2023SOL    MW4 8167   2.035   0.028   3.293 -0.0520  0.0420  0.3872
 2024SOL     OW 8168   1.780   0.133   3.383  0.0674 -0.4028  0.3915
 2024SOL    HW2 8169   1.770   0.134   3.478 -0.2671  0.8247  0.3538
 2024SOL    HW3 8170   1.702   0.089   3.350  0.0165 -0.5215  0.6735
 2024SOL    MW4 8171   1.769   0.127   3.391  0.0166 -0.2565  0.4237
 2025SOL     OW 8172   1.805   0.392   3.299 -0.0490 -0.2117 -0.2160
 2025SOL    HW2 8173   1.793   0.302   3.327 -0.1030 -0.0328  0.3491
 2025SOL    HW3 8174   1.808   0.388   3.203  2.2530 -1.0968 -0.1352
 2025SOL    MW4 8175   1.804   0.380   3.290  0.2477 -0.3049 -0.1307
 2026SOL     OW 8176   2.029   0.463   3.422 -0.2185 -0.1996 -0.4248
 2026SOL    HW2 8177   2.031   0.553   3.390  1.2846 -0.5529 -1.3838
 2026SOL    HW3 8178   1.967   0.418   3.365  0.4525 -0.1960 -1.1790
 2026SOL    MW4 8179   2.021   0.469   3.410  0.0684 -0.2457 -0.6506
 2027SOL     OW 8180   2.009   0.726   3.321 -0.1459  0.2293 -0.1745
 2027SOL    HW2 8181   2.086   0.770   3.356  0.2660 -0.8941  0.3490
 2027SOL    HW3 8182   2.018   0.732   3.226  0.1215  0.8934 -0.1068
 2027SOL    MW4 8183   2.020   0.733   3.314 -0.0563  0.1687 -0.0963
 2028SOL     OW 8184   1.776   0.881   3.430 -0.2393 -0.0303  0.2831
 2028SOL    HW2 8185   1.699   0.837   3.393 -0.7064  0.2799  0.8724
 2028SOL    HW3 8186   1.850   0.838   3.388 -0.6263 -2.2299  1.7254
 2028SOL    MW4 8187   1.775   0.869   3.420 -0.3520 -0.2797  0.5512
 2029SOL     OW 8188   1.770   1.168   3.331 -0.3822 -0.1092  0.2515
 2029SOL    HW2 8189   1.783   1.081   3.369  0.2306  0.0176  0.3343
 2029SOL    HW3 8190   1.841   1.221   3.367 -0.2051  0.1921 -0.5139
 2029SOL    MW4 8191   1.781   1.163   3.341 -0.2781 -0.0528  0.1614
 2030SOL     OW 8192   1.995   1.308   3.395  0.1273  0.4487 -0.4281
 2030SOL    HW2 8193   2.005   1.316   3.490 -1.2436 -1.0210 -0.1486
 2030SOL    HW3 8194   2.005   1.398   3.363 -0.1881  1.0775  1.1758
 2030SOL    MW4 8195   1.998   1.321   3.403 -0.0951  0.3377 -0.1795
 2031SOL     OW 8196   2.040   1.556   3.320  0.8353  0.1455 -0.0734
 2031SOL    HW2 8197   2.108   1.608   3.363 -0.6312  2.0409 -0.0132
 2031SOL    HW3 8198   1.958   1.585   3.361 -0.1403 -1.2422 -0.9989
 2031SOL    MW4 8199   2.038   1.567   3.331  0.5128  0.2126 -0.1876
 2032SOL     OW 8200   1.814   1.674   3.428  0.3485 -0.2247 -0.4202
 2032SOL    HW2 8201   1.817   1.764   3.394 -0.0500  0.4192  1.2054
 2032SOL    HW3 8202   1.725   1.645   3.407 -0.0562  0.3424  0.4637
 2032SOL    MW4 8203   1.802   1.682   3.420  0.2426 -0.0650 -0.0892
 2033SOL     OW 8204   1.792   1.941   3.299 -0.3596 -0.2300 -0.1463
 2033SOL    HW2 8205   1.858   2.005   3.325 -1.3450  1.1123 -0.8621
 2033SOL    HW3 8206   1.810   1.923   3.206 -0.8873  0.0100 -0.2974
 2033SOL    MW4 8207   1.803   1.947   3.290 -0.5593 -0.0212 -0.2604
 2034SOL     OW 8208   2.004   2.073   3.441 -0.0163 -0.0330  0.5666
 2034SOL    HW2 8209   2.073   2.049   3.380 -0.6195 -0.5544  0.0943
 2034SOL    HW3 8210   1.980   2.162   3.417 -1.3475 -0.7943 -0.9722
 2034SOL    MW4 8211   2.010   2.081   3.430 -0.2716 -0.2024  0.3014
 2035SOL     OW 8212   2.001   2.349   3.348 -0.0372 -0.2033 -0.2269
 2035SOL    HW2 8213   2.080   2.391   3.382  0.1325 -0.1277 -0.7106
 2035SOL    HW3 8214   2.017   2.342   3.253  0.7365 -3.0371  0.0812
 2035SOL    MW4 8215   2.014   2.354   3.340  0.0873 -0.5670 -0.2503
 2036SOL     OW 8216   1.756   2.497   3.403  0.3194  0.1345 -0.5696
 2036SOL    HW2 8217   1.831   2.453   3.362  0.2383 -0.9616  0.4479
 2036SOL    HW3 8218   1.680   2.450   3.370  0.2211 -0.3662  0.3481
 2036SOL    MW4 8219   1.756   2.485   3.393  0.2956 -0.0763 -0.3142
 2037SOL     OW 8220   1.795   2.761   3.279 -0.2781 -0.4895  0.6899
 2037SOL    HW2 8221   1.870   2.797   3.326  0.1683  0.3267 -0.6111
 2037SOL    HW3 8222   1.788   2.671   3.310  1.6391 -0.7675  0.3396
 2037SOL    MW4 8223   1.804   2.754   3.289  0.0339 -0.4184  0.4718
 2038SOL     OW 8224   2.030   2.833   3.414  0.0126  0.6034 -0.2579
 2038SOL    HW2 8225   2.041   2.830   3.509 -0.4613 -0.7017 -0.2369
 2038SOL    HW3 8226   2.026   2.927   3.393  0.1615  0.8959  1.0001
 2038SOL    MW4 8227   2.031   2.845   3.424 -0.0300  0.4697 -0.0894
 2039SOL     OW 8228   1.976   3.112   3.317 -0.2962  0.3213  0.1024
 2039SOL    HW2 8229   2.055   3.154   3.351  0.0359  0.7115 -1.1185
 2039SOL    HW3 8230   1.905   3.170   3.343 -0.1092  0.2967  0.6659
 2039SOL    MW4 8231   1.977   3.125   3.325 -0.2277  0.3698  0.0155
 2040SOL     OW 8232   1.757   3.251   3.356  0.2310 -0.6041 -0.5392
 2040SOL    HW2 8233   1.758   3.252   3.452  1.4909 -2.3110 -0.5120
 2040SOL    HW3 8234   1.777   3.341   3.331  1.8390 -0.5584  0.8122
 2040SOL    MW4 8235   1.760   3.263   3.365  0.6094 -0.8233 -0.3574
 2041SOL     OW 8236   1.828   3.517   3.328  0.4589  0.7144  0.6566
 2041SOL    HW2 8237   1.742   3.550   3.355  0.5385  1.6297 -0.1731
 2041SOL    HW3 8238   1.822   3.510   3.233  2.3072  3.7354  0.2642
 2041SOL    MW4 8239   1.816   3.520   3.319  0.7132  1.2336  0.4954
 2042SOL     OW 8240   2.083   3.612   3.411 -0.1700 -0.4494  0.0933
 2042SOL    HW2 8241   2.149   3.572   3.356  1.0094  0.2008  1.0126
 2042SOL    HW3 8242   2.000   3.573   3.383  0.6313 -1.4173 -0.9175
 2042SOL    MW4 8243   2.081   3.601   3.400  0.0911 -0.4911  0.0811
 2043SOL     OW 8244   2.053   3.857   3.277 -0.4643  0.3172 -0.1080
 2043SOL    HW2 8245   1.981   3.909   3.312  0.6054  0.7102  1.5084
 2043SOL    HW3 8246   2.062   3.783   3.337 -0.5544 -0.6097 -1.1949
 2043SOL    MW4 8247   2.045   3.854   3.289 -0.3352  0.2468 -0.0379
 2044SOL     OW 8248   1.842   4.015   3.345 -0.3043 -0.1461  0.1254
 2044SOL    HW2 8249   1.845   4.030   3.440  2.5312  1.1119 -0.1195
 2044SOL    HW3 8250   1.752   3.987   3.329 -1.1430  0.6127  3.0412
 2044SOL    MW4 8251   1.831   4.013   3.356 -0.0408  0.1197  0.4778
 2045SOL     OW 8252   1.842   4.291   3.292  0.1468 -0.1605  0.2976
 2045SOL    HW2 8253   1.841   4.196   3.304 -0.8588 -0.2129 -0.1196
 2045SOL    HW3 8254   1.841   4.303   3.198 -0.0327  0.2576  0.3507
 2045SOL    MW4 8255   1.841   4.280   3.282 -0.0097 -0.1125  0.2496
 2046SOL     OW 8256   2.052   4.427   3.403  0.3212 -0.0809  0.1861
 2046SOL    HW2 8257   1.990   4.370   3.356 -0.0668  0.2914  0.2446
 2046SOL    HW3 8258   2.048   4.511   3.357  0.2702  0.1532  0.6094
 2046SOL    MW4 8259   2.043   4.430   3.391  0.2635 -0.0010  0.2499
 2047SOL     OW 8260   2.534   0.014   3.309 -0.1181 -0.5940 -0.1812
 2047SOL    HW2 8261   2.513  -0.075   3.338  4.2408 -1.4319  0.6340
 2047SOL    HW3 8262   2.529   0.009   3.213 -1.7402 -1.1595 -0.0951
 2047SOL    MW4 8263   2.530   0.001   3.300  0.2429 -0.7792 -0.0625
 2048SOL     OW 8264   2.282   0.126   3.397 -0.4447  0.3733  0.7390
 2048SOL    HW2 8265   2.271   0.213   3.358 -0.5129 -0.4207 -1.0987
 2048SOL    HW3 8266   2.372   0.102   3.374 -0.6949 -0.3652  0.5262
 2048SOL    MW4 8267   2.292   0.134   3.389 -0.4866  0.1711  0.4683
 2049SOL     OW 8268   2.256   0.394   3.286 -0.0308  0.1042 -0.4475
 2049SOL    HW2 8269   2.329   0.437   3.332  0.2959 -1.7107  0.7832
 2049SOL    HW3 8270   2.178   0.425   3.332  0.1876 -0.3844  0.2723
 2049SOL    MW4 8271   2.255   0.404   3.298  0.0410 -0.1997 -0.1903
 2050SOL     OW 8272   2.494   0.520   3.398  0.3296  0.0500 -0.4086
 2050SOL    HW2 8273   2.575   0.478   3.369  0.7763  0.4275  0.2738
 2050SOL    HW3 8274   2.492   0.604   3.351  1.6328  1.1763  1.4456
 2050SOL    MW4 8275   2.504   0.526   3.388  0.5605  0.2484 -0.0741
 2051SOL     OW 8276   2.463   0.772   3.291  0.3314 -0.0274  0.1317
 2051SOL    HW2 8277   2.547   0.813   3.310 -0.1537  1.2390 -0.4384
 2051SOL    HW3 8278   2.454   0.780   3.196  1.0506 -3.0428 -0.2739
 2051SOL    MW4 8279   2.473   0.778   3.281  0.3624 -0.2581  0.0029
 2052SOL     OW 8280   2.236   0.863   3.406  0.5466 -0.4082 -0.1194
 2052SOL    HW2 8281   2.212   0.943   3.361 -1.6124 -0.8742  0.1768
 2052SOL    HW3 8282   2.324   0.843   3.374  0.8575  1.7416 -0.6390
 2052SOL    MW4 8283   2.245   0.871   3.396  0.3028 -0.1860 -0.1490
 2053SOL     OW 8284   2.192   1.130   3.303 -0.3242  0.2837 -0.5460
 2053SOL    HW2 8285   2.271   1.177   3.330  0.1575 -1.7318  1.7521
 2053SOL    HW3 8286   2.120   1.182   3.338  0.1619 -0.0841  1.0518
 2053SOL    MW4 8287   2.193   1.143   3.312 -0.1965 -0.0309 -0.0319
 2054SOL     OW 8288   2.422   1.282   3.350 -0.8873 -0.0610  0.0067
 2054SOL    HW2 8289   2.424   1.266   3.444  0.4343  2.1814  0.4022
 2054SOL    HW3 8290   2.504   1.243   3.317 -1.6336 -1.3807 -0.3392
 2054SOL    MW4 8291   2.433   1.275   3.358 -0.8116  0.0608  0.0134
 2055SOL     OW 8292   2.421   1.551   3.308  0.2825 -0.3654  0.3711
 2055SOL    HW2 8293   2.421   1.460   3.339  3.0889 -0.2575  0.7729
 2055SOL    HW3 8294   2.433   1.544   3.214  0.0135 -0.4077  0.3381
 2055SOL    MW4 8295   2.422   1.538   3.300  0.6173 -0.3567  0.4199
 2056SOL     OW 8296   2.245   1.731   3.442 -0.0559 -0.0381  0.2070
 2056SOL    HW2 8297   2.267   1.732   3.535 -0.2406 -2.8526  0.3268
 2056SOL    HW3 8298   2.309   1.672   3.402 -0.9926 -0.1690 -1.1724
 2056SOL    MW4 8299   2.256   1.723   3.449 -0.2038 -0.4267  0.0410
 2057SOL     OW 8300   2.230   1.979   3.301  0.1482  0.6279 -0.2119
 2057SOL    HW2 8301   2.236   1.897   3.350  3.2798  1.4742  0.9537
 2057SOL    HW3 8302   2.233   1.952   3.209  2.8067 -0.5285  0.1581
 2057SOL    MW4 8303   2.231   1.965   3.295  0.9122  0.5871 -0.0093
 2058SOL     OW 8304   2.448   2.128   3.383  0.5165 -0.4572  0.0414
 2058SOL    HW2 8305   2.450   2.110   3.477  0.6753  1.5764  0.4497
 2058SOL    HW3 8306   2.373   2.079   3.351 -0.4203 -0.0063  1.5045
 2058SOL    MW4 8307   2.438   2.119   3.391  0.4141 -0.1295  0.2880
 2059SOL     OW 8308   2.460   2.380   3.266  0.1801  0.2546 -0.1219
 2059SOL    HW2 8309   2.532   2.421   3.315  1.7632 -0.3905 -1.8495
 2059SOL    HW3 8310   2.445   2.297   3.312 -0.5989  1.1402  1.2394
 2059SOL    MW4 8311   2.468   2.374   3.279  0.2861  0.2863 -0.1705
 2060SOL     OW 8312   2.242   2.489   3.372  0.7366  0.3181 -0.1316
 2060SOL    HW2 8313   2.322   2.453   3.334  0.9760 -0.0427  0.6986
 2060SOL    HW3 8314   2.254   2.479   3.467 -1.0107 -1.2830 -0.0507
 2060SOL    MW4 8315   2.254   2.483   3.380  0.5379  0.0594 -0.0114
 2061SOL     OW 8316   2.257   2.757   3.280  0.4988 -0.0574  0.1587
 2061SOL    HW2 8317   2.179   2.796   3.320  0.3278  0.8758 -1.0302
 2061SOL    HW3 8318   2.257   2.666   3.310 -0.3197  0.2810  1.2234
 2061SOL    MW4 8319   2.247   2.750   3.289  0.3686  0.1106  0.1426
 2062SOL     OW 8320   2.491   2.868   3.397 -0.1392 -0.5593  0.2781
 2062SOL    HW2 8321   2.480   2.957   3.363 -0.5061 -0.6620  0.1232
 2062SOL    HW3 8322   2.414   2.820   3.364 -0.9759 -0.4363  2.0038
 2062SOL    MW4 8323   2.479   2.873   3.388 -0.2983 -0.5569  0.4852
 2063SOL     OW 8324   2.479   3.109   3.269 -0.1732 -0.0134  0.0916
 2063SOL    HW2 8325   2.560   3.156   3.286  0.4362 -0.4975 -1.4151
 2063SOL    HW3 8326   2.467   3.114   3.174 -2.1709  0.4864  0.3350
 2063SOL    MW4 8327   2.488   3.115   3.259 -0.3562 -0.0114 -0.0753
 2064SOL     OW 8328   2.239   3.230   3.367 -0.3784  0.4333  0.4091
 2064SOL    HW2 8329   2.247   3.242   3.462 -1.1917  0.4567  0.4724
 2064SOL    HW3 8330   2.314   3.175   3.344  0.5063  1.4140  0.8788
 2064SOL    MW4 8331   2.250   3.224   3.376 -0.3688  0.5658  0.4797
 2065SOL     OW 8332   2.304   3.489   3.296  0.3809  0.3543 -0.3809
 2065SOL    HW2 8333   2.276   3.401   3.321  1.0308 -0.0696 -1.1038
 2065SOL    HW3 8334   2.329   3.481   3.204 -1.1529  1.6901 -0.9300
 2065SOL    MW4 8335   2.304   3.477   3.287  0.2639  0.4747 -0.5486
 2066SOL     OW 8336   2.497   3.642   3.406 -0.4341  0.0370  0.1236
 2066SOL    HW2 8337   2.487   3.726   3.361  0.6325  1.0999  1.8398
 2066SOL    HW3 8338   2.421   3.590   3.377 -0.9721  1.4903 -1.1290
 2066SOL    MW4 8339   2.485   3.646   3.396 -0.3643  0.3691  0.1845
 2067SOL     OW 8340   2.462   3.896   3.265  0.1635  0.3849  0.2395
 2067SOL    HW2 8341   2.543   3.942   3.286  0.5502 -1.0938  2.1345
 2067SOL    HW3 8342   2.397   3.933   3.326  0.0975 -0.3890  0.6509
 2067SOL    MW4 8343   2.464   3.907   3.276  0.2060  0.0877  0.5436
 2068SOL     OW 8344   2.254   3.995   3.419  0.4981  0.1301 -0.3608
 2068SOL    HW2 8345   2.272   4.082   3.385 -2.4856  0.0552 -2.3340
 2068SOL    HW3 8346   2.177   3.965   3.370  0.4243 -2.9263  1.4601
 2068SOL    MW4 8347   2.246   4.002   3.408  0.0949 -0.2828 -0.3810
 2069SOL     OW 8348   2.258   4.273   3.296  0.9374  0.2172 -0.2012
 2069SOL    HW2 8349   2.199   4.342   3.327 -1.3645 -1.4003 -0.8353
 2069SOL    HW3 8350   2.248   4.274   3.201  1.3136 -0.6145 -0.2512
 2069SOL    MW4 8351   2.249   4.283   3.288  0.6833 -0.1059 -0.2913
 2070SOL     OW 8352   2.475   4.416   3.415 -0.7247 -0.2980 -0.0395
 2070SOL    HW2 8353   2.454   4.418   3.508 -1.3030  1.0452 -0.1959
 2070SOL    HW3 8354   2.406   4.363   3.375 -1.1848  0.1880  0.1137
 2070SOL    MW4 8355   2.463   4.409   3.422 -0.8614 -0.0572 -0.0401
 2071SOL     OW 8356   2.901   0.006   3.350  0.5133  0.2050  0.1979
 2071SOL    HW2 8357   2.826   0.042   3.397  1.3016  1.5948  0.4317
 2071SOL    HW3 8358   2.904  -0.086   3.376 -1.1873  0.0950  0.0653
 2071SOL    MW4 8359   2.892  -0.001   3.359  0.3932  0.3743  0.2112
 2072SOL     OW 8360   2.695   0.151   3.475  0.5480  0.4783 -0.0117
 2072SOL    HW2 8361   2.713   0.228   3.420 -1.2552  0.7811 -0.2184
 2072SOL    HW3 8362   2.628   0.102   3.426 -1.1837  0.8132  1.9482
 2072SOL    MW4 8363   2.688   0.155   3.461  0.0813  0.5624  0.2193
 2073SOL     OW 8364   2.723   0.375   3.314  0.5317  0.4882 -0.1225
 2073SOL    HW2 8365   2.799   0.423   3.348  0.5901  0.4144 -0.1500
 2073SOL    HW3 8366   2.730   0.384   3.219 -0.9507  2.7778 -0.0664
 2073SOL    MW4 8367   2.734   0.383   3.306  0.3438  0.7805 -0.1187
 2074SOL     OW 8368   2.942   0.514   3.407 -0.3293  0.3087 -0.1846
 2074SOL    HW2 8369   2.945   0.537   3.500  1.5074  0.4200 -0.2597
 2074SOL    HW3 8370   2.945   0.598   3.361  0.8479  0.1782 -0.3671
 2074SOL    MW4 8371   2.942   0.528   3.413  0.0682  0.3062 -0.2184
 2075SOL     OW 8372   2.950   0.754   3.270 -1.0745  0.2526  0.3262
 2075SOL    HW2 8373   3.021   0.811   3.300 -1.3374  0.5285  0.4258
 2075SOL    HW3 8374   2.870   0.798   3.299 -1.2616 -0.4504  0.8922
 2075SOL    MW4 8375   2.949   0.768   3.277 -1.1337  0.1963  0.4141
 2076SOL     OW 8376   2.729   0.895   3.361 -0.1406  0.3399  0.3859
 2076SOL    HW2 8377   2.733   0.893   3.457 -0.3321  0.8336  0.4071
 2076SOL    HW3 8378   2.713   0.987   3.340 -0.3677  0.1886 -0.1086
 2076SOL    MW4 8379   2.727   0.907   3.371 -0.1957  0.3850  0.3233
 2077SOL     OW 8380   2.701   1.185   3.290 -0.1282  0.2918 -0.0922
 2077SOL    HW2 8381   2.773   1.236   3.328 -1.3316  1.8487  0.2079
 2077SOL    HW3 8382   2.718   1.184   3.196  0.2790  0.6958 -0.0241
 2077SOL    MW4 8383   2.712   1.192   3.283 -0.2332  0.5506 -0.0434
 2078SOL     OW 8384   2.938   1.301   3.378  0.0310 -0.2659  0.3558
 2078SOL    HW2 8385   2.929   1.270   3.469  2.1875 -0.6428  0.4588
 2078SOL    HW3 8386   3.019   1.262   3.347  0.3614  1.5099 -1.0846
 2078SOL    MW4 8387   2.947   1.292   3.386  0.3591 -0.0814  0.1793
 2079SOL     OW 8388   2.903   1.558   3.295 -0.1370 -0.0767  0.0245
 2079SOL    HW2 8389   2.818   1.595   3.321 -0.4887 -1.5065  0.9798
 2079SOL    HW3 8390   2.903   1.470   3.333  1.6647 -0.1868 -0.2106
 2079SOL    MW4 8391   2.892   1.551   3.304  0.0541 -0.2799  0.1192
 2080SOL     OW 8392   2.663   1.680   3.368 -0.0535 -0.9986 -0.8167
 2080SOL    HW2 8393   2.648   1.772   3.346 -1.1650 -0.5598  1.5864
 2080SOL    HW3 8394   2.580   1.636   3.344 -0.3327 -0.9748  0.1074
 2080SOL    MW4 8395   2.650   1.686   3.362 -0.2367 -0.9377 -0.3774
 2081SOL     OW 8396   2.647   1.946   3.301  0.0040 -0.0969 -0.7563
 2081SOL    HW2 8397   2.574   2.002   3.327  1.1039  0.6209  0.9495
 2081SOL    HW3 8398   2.653   1.955   3.206 -2.1802 -0.2716 -0.9280
 2081SOL    MW4 8399   2.638   1.954   3.292 -0.1390 -0.0253 -0.5538
 2082SOL     OW 8400   2.879   2.023   3.451 -0.1220  0.3391 -0.2326
 2082SOL    HW2 8401   2.862   2.013   3.545  1.0140 -0.9900 -0.1411
 2082SOL    HW3 8402   2.801   1.987   3.409 -1.1105  1.9343  0.1871
 2082SOL    MW4 8403   2.866   2.017   3.458 -0.1023  0.3738 -0.1652
 2083SOL     OW 8404   2.861   2.264   3.313 -0.7340  0.4350  0.3330
 2083SOL    HW2 8405   2.925   2.329   3.341  0.5603  0.1863 -1.9319
 2083SOL    HW3 8406   2.882   2.186   3.363  0.7792  0.3568 -0.4002
 2083SOL    MW4 8407   2.872   2.263   3.323 -0.3633  0.3917 -0.0622
 2084SOL     OW 8408   2.679   2.498   3.374 -0.1499  0.3306 -0.4231
 2084SOL    HW2 8409   2.686   2.491   3.470 -0.2905  1.6378 -0.3106
 2084SOL    HW3 8410   2.735   2.427   3.341 -0.7406 -0.6325  0.6301
 2084SOL    MW4 8411   2.688   2.487   3.383 -0.2465  0.3760 -0.2692
 2085SOL     OW 8412   2.718   2.761   3.272  0.6054 -0.7082  0.0240
 2085SOL    HW2 8413   2.720   2.670   3.302 -0.4157 -0.5761  0.5187
 2085SOL    HW3 8414   2.640   2.798   3.314  0.8259  0.3010 -0.4471
 2085SOL    MW4 8415   2.708   2.754   3.282  0.4997 -0.5574  0.0269
 2086SOL     OW 8416   2.957   2.847   3.385  0.3404 -0.0990 -0.0777
 2086SOL    HW2 8417   2.936   2.853   3.478 -0.2073 -0.2791 -0.1881
 2086SOL    HW3 8418   2.875   2.819   3.343  0.5507  0.0914 -0.6269
 2086SOL    MW4 8419   2.943   2.844   3.391  0.2956 -0.0975 -0.1647
 2087SOL     OW 8420   2.904   3.099   3.281 -0.1908 -0.5708  0.2326
 2087SOL    HW2 8421   2.942   3.024   3.328 -0.6871 -1.5655 -0.9145
 2087SOL    HW3 8422   2.917   3.078   3.189 -1.6453  0.0608 -0.1328
 2087SOL    MW4 8423   2.911   3.086   3.275 -0.4482 -0.6189  0.0329
 2088SOL     OW 8424   2.692   3.266   3.349  0.3002 -0.5055 -0.1320
 2088SOL    HW2 8425   2.688   3.268   3.445  1.6045  0.8923 -0.0944
 2088SOL    HW3 8426   2.758   3.199   3.330 -0.0013 -0.8260 -0.0657
 2088SOL    MW4 8427   2.700   3.257   3.359  0.4327 -0.3633 -0.1185
 2089SOL     OW 8428   2.737   3.527   3.315 -0.2197 -0.5156  0.2921
 2089SOL    HW2 8429   2.717   3.433   3.314 -1.4360 -0.2548 -1.6368
 2089SOL    HW3 8430   2.663   3.567   3.360 -0.4269 -0.3347 -0.2037
 2089SOL    MW4 8431   2.724   3.520   3.321 -0.4072 -0.4573 -0.0279
 2090SOL     OW 8432   2.956   3.637   3.439  0.0826 -0.3599 -0.2718
 2090SOL    HW2 8433   2.961   3.731   3.420  0.0093 -0.0992  0.9502
 2090SOL    HW3 8434   2.880   3.606   3.391 -0.1282  0.2875 -0.3558
 2090SOL    MW4 8435   2.947   3.645   3.430  0.0448 -0.2403 -0.1216
 2091SOL     OW 8436   2.930   3.884   3.308  0.1632  0.5168  0.0680
 2091SOL    HW2 8437   2.999   3.933   3.353  0.0625  0.6571  0.0698
 2091SOL    HW3 8438   2.849   3.924   3.337  0.0682  0.1885  0.2580
 2091SOL    MW4 8439   2.929   3.896   3.318  0.1371  0.4921  0.0932
 2092SOL     OW 8440   2.688   4.029   3.380 -0.1909  0.2806  0.2419
 2092SOL    HW2 8441   2.687   4.031   3.476  0.4297  0.5288  0.2433
 2092SOL    HW3 8442   2.686   4.121   3.354 -1.2372  0.2000  0.0004
 2092SOL    MW4 8443   2.688   4.041   3.389 -0.2470  0.3028  0.2100
 2093SOL     OW 8444   2.686   4.297   3.254  0.3217  0.6180 -0.0524
 2093SOL    HW2 8445   2.770   4.326   3.289 -0.3395  0.8234  1.3693
 2093SOL    HW3 8446   2.621   4.348   3.301 -0.6588 -0.2903 -0.4079
 2093SOL    MW4 8447   2.689   4.307   3.265  0.1049  0.5245  0.0885
 2094SOL     OW 8448   2.886   4.399   3.440  0.0216 -0.1807 -0.2859
 2094SOL    HW2 8449   2.974   4.362   3.426 -0.6281 -1.0143 -2.3771
 2094SOL    HW3 8450   2.877   4.403   3.535  1.3832 -2.3886 -0.0119
 2094SOL    MW4 8451   2.897   4.395   3.450  0.1156 -0.5817 -0.5260
 2095SOL     OW 8452   3.390   4.643   3.311  0.5776 -0.3882  0.3440
 2095SOL    HW2 8453   3.317   4.690   3.351 -0.2246 -0.6521 -0.7866
 2095SOL    HW3 8454   3.375   4.649   3.217  1.2504 -1.6496  0.1333
 2095SOL    MW4 8455   3.379   4.650   3.304  0.5608 -0.5895  0.1671
 2096SOL     OW 8456   3.170   0.084   3.419  0.1008 -0.1224 -0.4768
 2096SOL    HW2 8457   3.162   0.176   3.395 -1.8517 -0.0117  0.4944
 2096SOL    HW3 8458   3.081   0.049   3.411  0.5516 -1.5567  0.5798
 2096SOL    MW4 8459   3.157   0.092   3.415 -0.0975 -0.2970 -0.2091
 2097SOL     OW 8460   3.164   0.353   3.327 -0.4045 -0.5663 -0.1996
 2097SOL    HW2 8461   3.090   0.404   3.362  0.9238  1.3881 -0.1538
 2097SOL    HW3 8462   3.146   0.346   3.233  0.4784  1.9291 -0.5900
 2097SOL    MW4 8463   3.152   0.359   3.319 -0.1128  0.0208 -0.2451
 2098SOL     OW 8464   3.389   0.515   3.379 -0.0244 -0.1940  0.0650
 2098SOL    HW2 8465   3.405   0.502   3.473 -1.3488 -0.1301  0.3185
 2098SOL    HW3 8466   3.310   0.465   3.361  2.0114 -2.8848 -1.7525
 2098SOL    MW4 8467   3.380   0.507   3.389  0.0694 -0.5406 -0.1414
 2099SOL     OW 8468   3.380   0.783   3.277 -0.2032  0.4036  0.4663
 2099SOL    HW2 8469   3.462   0.817   3.312  0.3679 -0.9841  0.5401
 2099SOL    HW3 8470   3.378   0.691   3.306 -0.9442 -0.0587 -0.9747
 2099SOL    MW4 8471   3.391   0.775   3.285 -0.2258  0.1596  0.2859
 2100SOL     OW 8472   3.162   0.911   3.377  0.6729  0.1460 -0.1256
 2100SOL    HW2 8473   3.154   0.999   3.339 -0.7654 -0.1563 -0.5778
 2100SOL    HW3 8474   3.243   0.876   3.341  1.3788  1.3881  0.2464
 2100SOL    MW4 8475   3.171   0.918   3.367  0.5763  0.2699 -0.1361
 2101SOL     OW 8476   3.167   1.186   3.294 -0.6036 -0.1075 -0.2890
 2101SOL    HW2 8477   3.244   1.234   3.326 -1.1217  0.0815  0.6688
 2101SOL    HW3 8478   3.175   1.191   3.199  0.6744 -0.2418 -0.2042
 2101SOL    MW4 8479   3.178   1.193   3.286 -0.5031 -0.1003 -0.1516
 2102SOL     OW 8480   3.385   1.308   3.418 -0.4173  0.2205  0.3059
 2102SOL    HW2 8481   3.458   1.274   3.367 -0.7983 -0.8458  0.4606
 2102SOL    HW3 8482   3.370   1.396   3.383 -1.7573 -1.0783 -2.6240
 2102SOL    MW4 8483   3.392   1.315   3.406 -0.6442 -0.0914 -0.0603
 2103SOL     OW 8484   3.336   1.556   3.315 -0.0621 -0.0192  0.0109
 2103SOL    HW2 8485   3.409   1.607   3.349 -0.8876  1.3306 -0.1869
 2103SOL    HW3 8486   3.259   1.592   3.360 -0.7035 -0.8102 -0.4370
 2103SOL    MW4 8487   3.335   1.567   3.326 -0.2556  0.0545 -0.0744
 2104SOL     OW 8488   3.133   1.676   3.452  0.3748  0.3161  0.4160
 2104SOL    HW2 8489   3.128   1.764   3.415  1.7347  0.0014 -0.5537
 2104SOL    HW3 8490   3.055   1.632   3.419 -0.2117  1.0948  0.7461
 2104SOL    MW4 8491   3.122   1.682   3.443  0.4771  0.3774  0.3319
 2105SOL     OW 8492   3.112   1.919   3.349 -0.2365 -0.3776 -0.0747
 2105SOL    HW2 8493   3.028   1.940   3.388 -0.2273  1.1182 -0.8218
 2105SOL    HW3 8494   3.099   1.931   3.255  0.8553  0.0669 -0.1840
 2105SOL    MW4 8495   3.099   1.923   3.342 -0.0913 -0.1216 -0.1876
 2106SOL     OW 8496   3.363   2.029   3.384  0.2655  0.6465  0.3561
 2106SOL    HW2 8497   3.344   2.119   3.357  0.4380 -0.0379 -2.1038
 2106SOL    HW3 8498   3.279   1.984   3.376  0.4593  0.2834  0.3781
 2106SOL    MW4 8499   3.349   2.035   3.380  0.3138  0.5083  0.0343
 2107SOL     OW 8500   3.308   2.293   3.316  0.4850 -0.0288  0.1810
 2107SOL    HW2 8501   3.376   2.351   3.349 -0.6433  1.9423 -0.7874
 2107SOL    HW3 8502   3.227   2.330   3.350 -0.2484 -1.1237 -0.3537
 2107SOL    MW4 8503   3.306   2.306   3.325  0.2394  0.0870 -0.0174
 2108SOL     OW 8504   3.067   2.414   3.379  0.1043  0.0115 -0.2754
 2108SOL    HW2 8505   3.065   2.430   3.473 -0.5076 -0.4032 -0.2099
 2108SOL    HW3 8506   3.101   2.495   3.341  2.1864 -0.4943  0.4415
 2108SOL    MW4 8507   3.071   2.427   3.386  0.2983 -0.1097 -0.1724
 2109SOL     OW 8508   3.149   2.667   3.302 -0.2967 -0.0646  0.3363
 2109SOL    HW2 8509   3.240   2.695   3.308 -0.7041  1.0833  1.4814
 2109SOL    HW3 8510   3.099   2.741   3.338 -1.7036 -0.4980 -0.6981
 2109SOL    MW4 8511   3.154   2.681   3.308 -0.5364  0.0298  0.3507
 2110SOL     OW 8512   3.359   2.890   3.390 -0.4731 -0.1465  0.2854
 2110SOL    HW2 8513   3.424   2.823   3.371  0.2970  0.6372  0.1340
 2110SOL    HW3 8514   3.351   2.889   3.485 -0.8751 -0.8380  0.2449
 2110SOL    MW4 8515   3.366   2.881   3.400 -0.4241 -0.1342  0.2604
 2111SOL     OW 8516   3.312   3.131   3.269  0.7424 -0.1154 -0.4237
 2111SOL    HW2 8517   3.321   3.045   3.310 -0.3732 -0.3336 -0.6200
 2111SOL    HW3 8518   3.237   3.171   3.313  1.3253  0.8059 -0.2552
 2111SOL    MW4 8519   3.304   3.125   3.280  0.6721 -0.0226 -0.4275
 2112SOL     OW 8520   3.108   3.228   3.420  0.1701 -0.0257  0.4251
 2112SOL    HW2 8521   3.127   3.318   3.393 -0.3199  0.1934  0.7878
 2112SOL    HW3 8522   3.031   3.204   3.368  0.2035 -0.1752  0.4464
 2112SOL    MW4 8523   3.100   3.237   3.410  0.1099 -0.0165  0.4756
 2113SOL     OW 8524   3.172   3.488   3.308 -0.0696 -0.6284 -0.1789
 2113SOL    HW2 8525   3.091   3.530   3.338 -0.1922  0.1809 -1.6170
 2113SOL    HW3 8526   3.175   3.506   3.214  2.9802  1.4375  0.2419
 2113SOL    MW4 8527   3.162   3.496   3.300  0.3166 -0.2491 -0.3130
 2114SOL     OW 8528   3.393   3.670   3.365 -0.0369  0.1337  0.2643
 2114SOL    HW2 8529   3.467   3.611   3.356  0.3676  0.7578 -0.4358
 2114SOL    HW3 8530   3.316   3.614   3.348  0.3564 -0.1238 -0.6734
 2114SOL    MW4 8531   3.392   3.655   3.362  0.0682  0.1817  0.0484
 2115SOL     OW 8532   3.368   3.939   3.297  0.5959  0.1058  0.5247
 2115SOL    HW2 8533   3.444   3.978   3.341 -0.2327  0.1199  1.9811
 2115SOL    HW3 8534   3.374   3.846   3.316  1.3990 -0.2096 -1.1600
 2115SOL    MW4 8535   3.379   3.932   3.305  0.5925  0.0658  0.4942
 2116SOL     OW 8536   3.141   4.020   3.416 -0.7738  0.0776 -0.0989
 2116SOL    HW2 8537   3.148   3.996   3.508 -0.5143  0.7193  0.0507
 2116SOL    HW3 8538   3.226   3.995   3.379 -0.8513 -0.1125 -0.1488
 2116SOL    MW4 8539   3.153   4.014   3.423 -0.7496  0.1369 -0.0858
 2117SOL     OW 8540   3.119   4.281   3.331 -0.2100 -0.1752 -0.4289
 2117SOL    HW2 8541   3.208   4.315   3.342 -0.0310 -0.3007 -1.3856
 2117SOL    HW3 8542   3.120   4.197   3.376 -0.0831  0.1959  0.2662
 2117SOL    MW4 8543   3.131   4.274   3.338 -0.1695 -0.1421 -0.4635
 2118SOL     OW 8544   3.363   4.382   3.387 -0.1756 -0.5105 -0.3872
 2118SOL    HW2 8545   3.370   4.391   3.482  0.1582 -0.1774 -0.4440
 2118SOL    HW3 8546   3.363   4.472   3.355 -1.4876 -0.5799 -0.6140
 2118SOL    MW4 8547   3.364   4.395   3.396 -0.3045 -0.4754 -0.4244
 2119SOL     OW 8548   3.821   4.629   3.286  0.0389 -0.0112  0.0746
 2119SOL    HW2 8549   3.742   4.669   3.322 -0.3007 -0.7265  0.1352
 2119SOL    HW3 8550   3.816   4.646   3.192  0.4765  1.0814  0.2437
 2119SOL    MW4 8551   3.810   4.636   3.278  0.0517  0.0386  0.1051
 2120SOL     OW 8552   3.616   0.108   3.406 -0.0883  0.0229  0.0636
 2120SOL    HW2 8553   3.606   0.194   3.364 -0.3642 -0.3159 -0.5792
 2120SOL    HW3 8554   3.538   0.060   3.380 -0.0952 -0.3125  0.6976
 2120SOL    MW4 8555   3.605   0.113   3.397 -0.1256 -0.0660  0.0627
 2121SOL     OW 8556   3.608   0.356   3.279 -0.3547 -0.0155 -0.3803
 2121SOL    HW2 8557   3.680   0.411   3.310 -0.5517 -0.9250  1.7750
 2121SOL    HW3 8558   3.529   0.397   3.315 -0.4279 -2.1923  1.9868
 2121SOL    MW4 8559   3.607   0.369   3.288 -0.3903 -0.4227  0.2165
 2122SOL     OW 8560   3.817   0.525   3.399  0.1091 -0.3340  0.1406
 2122SOL    HW2 8561   3.825   0.530   3.494  0.1991 -0.6078  0.1479
 2122SOL    HW3 8562   3.896   0.479   3.371  0.5098  0.5179 -0.1446
 2122SOL    MW4 8563   3.829   0.519   3.408  0.1738 -0.2577  0.1037
 2123SOL     OW 8564   3.831   0.767   3.282  0.1787 -0.7303  0.4840
 2123SOL    HW2 8565   3.898   0.805   3.340 -2.1142  2.0521  1.3850
 2123SOL    HW3 8566   3.812   0.682   3.321 -0.1630  0.4258  2.9534
 2123SOL    MW4 8567   3.838   0.761   3.295 -0.1690 -0.2107  0.9284
 2124SOL     OW 8568   3.615   0.907   3.390  0.3592  0.2302 -0.2360
 2124SOL    HW2 8569   3.635   0.910   3.484 -0.1331  1.2241 -0.1581
 2124SOL    HW3 8570   3.690   0.862   3.351  1.1762  0.9627  0.4727
 2124SOL    MW4 8571   3.627   0.902   3.397  0.4017  0.4580 -0.1323
 2125SOL     OW 8572   3.568   1.155   3.277  0.1655  0.1761  0.1504
 2125SOL    HW2 8573   3.567   1.067   3.314 -0.4829 -0.2112 -0.7528
 2125SOL    HW3 8574   3.567   1.141   3.182 -0.3414  1.1547  0.0010
 2125SOL    MW4 8575   3.568   1.142   3.269  0.0129  0.2540  0.0117
 2126SOL     OW 8576   3.792   1.261   3.380 -0.5807 -0.0389 -0.0408
 2126SOL    HW2 8577   3.785   1.264   3.476  1.2867 -1.9986  0.1957
 2126SOL    HW3 8578   3.715   1.211   3.353  0.4529 -2.1267  0.7212
 2126SOL    MW4 8579   3.781   1.255   3.389 -0.1981 -0.5729  0.0911
 2127SOL     OW 8580   3.784   1.508   3.263  0.2253 -0.6563 -0.0091
 2127SOL    HW2 8581   3.860   1.547   3.307 -0.4752  1.2151 -0.3774
 2127SOL    HW3 8582   3.777   1.421   3.301  1.1761 -0.0227  1.7267
 2127SOL    MW4 8583   3.793   1.502   3.274  0.2584 -0.3258  0.1714
 2128SOL     OW 8584   3.599   1.638   3.410 -0.1664  0.1640 -0.1396
 2128SOL    HW2 8585   3.592   1.728   3.377  0.1381  0.5954  0.9524
 2128SOL    HW3 8586   3.673   1.601   3.361 -0.7071  0.2916 -1.0672
 2128SOL    MW4 8587   3.608   1.645   3.399 -0.1981  0.2379 -0.1180
 2129SOL     OW 8588   3.567   1.881   3.274  0.4887 -0.5765 -0.4116
 2129SOL    HW2 8589   3.634   1.937   3.313 -0.0077 -0.6902  0.6069
 2129SOL    HW3 8590   3.484   1.920   3.302  0.1352 -1.1334 -0.6749
 2129SOL    MW4 8591   3.565   1.894   3.283  0.3765 -0.6651 -0.3119
 2130SOL     OW 8592   3.793   2.031   3.371 -0.1276  0.1455 -0.1015
 2130SOL    HW2 8593   3.787   2.064   3.461 -0.5846 -0.0026 -0.0783
 2130SOL    HW3 8594   3.879   1.988   3.366 -0.3939 -0.4493  0.4622
 2130SOL    MW4 8595   3.804   2.030   3.382 -0.2229  0.0474 -0.0238
 2131SOL     OW 8596   3.739   2.290   3.247 -0.3724 -0.2335 -0.2903
 2131SOL    HW2 8597   3.823   2.321   3.281 -0.4657 -0.3391  0.0383
 2131SOL    HW3 8598   3.735   2.198   3.273 -0.1201 -0.5170 -1.2173
 2131SOL    MW4 8599   3.749   2.282   3.255 -0.3512 -0.2849 -0.3691
 2132SOL     OW 8600   3.519   2.456   3.371 -0.0771 -0.1051  0.2150
 2132SOL    HW2 8601   3.529   2.545   3.338 -1.4996 -0.3023 -0.8000
 2132SOL    HW3 8602   3.603   2.414   3.354  0.0449  0.5517 -0.8262
 2132SOL    MW4 8603   3.531   2.462   3.364 -0.2487 -0.0446 -0.0565
 2133SOL     OW 8604   3.555   2.713   3.274  0.1962  0.4751  0.5149
 2133SOL    HW2 8605   3.627   2.758   3.317  0.9703 -0.7054  0.4853
 2133SOL    HW3 8606   3.574   2.722   3.180 -0.0220  0.6996  0.4935
 2133SOL    MW4 8607   3.567   2.720   3.267  0.2692  0.3488  0.5083
 2134SOL     OW 8608   3.787   2.847   3.384  0.0699  0.0069 -0.1871
 2134SOL    HW2 8609   3.825   2.840   3.472 -0.7072 -1.1040  0.0703
 2134SOL    HW3 8610   3.777   2.942   3.370  1.5860  0.2598  0.3019
 2134SOL    MW4 8611   3.791   2.859   3.394  0.1676 -0.1063 -0.0885
 2135SOL     OW 8612   3.807   3.113   3.312  0.2124 -0.1950  0.1642
 2135SOL    HW2 8613   3.879   3.166   3.346 -0.2500  1.0070 -0.6927
 2135SOL    HW3 8614   3.728   3.160   3.340 -0.2803 -2.0623  2.0120
 2135SOL    MW4 8615   3.806   3.127   3.321  0.0865 -0.2825  0.2947
 2136SOL     OW 8616   3.552   3.205   3.402  0.5050  0.4166  0.0292
 2136SOL    HW2 8617   3.458   3.192   3.393  0.8089 -0.7602 -1.6875
 2136SOL    HW3 8618   3.569   3.197   3.496 -0.4969 -3.7886 -0.0541
 2136SOL    MW4 8619   3.542   3.203   3.413  0.4129 -0.2937 -0.2081
 2137SOL     OW 8620   3.624   3.474   3.323 -0.3878  0.0699  1.1369
 2137SOL    HW2 8621   3.579   3.393   3.345 -3.6583  0.8983 -2.0315
 2137SOL    HW3 8622   3.621   3.478   3.228  1.9292  2.7074  1.1228
 2137SOL    MW4 8623   3.618   3.464   3.314 -0.5136  0.5269  0.7172
 2138SOL     OW 8624   3.832   3.613   3.438  0.0123  0.1283 -0.5952
 2138SOL    HW2 8625   3.834   3.598   3.532 -0.1429  1.7607 -0.3202
 2138SOL    HW3 8626   3.755   3.564   3.408 -0.6733  0.6284  0.3188
 2138SOL    MW4 8627   3.822   3.605   3.446 -0.0987  0.4098 -0.4382
 2139SOL     OW 8628   3.809   3.880   3.310 -0.1540 -0.0421  0.3677
 2139SOL    HW2 8629   3.731   3.929   3.340 -0.8555  0.3518 -2.0268
 2139SOL    HW3 8630   3.798   3.793   3.349 -0.5914  0.6827  1.9466
 2139SOL    MW4 8631   3.797   3.875   3.319 -0.3042  0.1056  0.2601
 2140SOL     OW 8632   3.596   4.035   3.406  0.3643 -0.4520  0.2645
 2140SOL    HW2 8633   3.571   4.039   3.498  1.7799 -0.0745  0.6532
 2140SOL    HW3 8634   3.611   4.127   3.381  0.3508 -0.5844 -0.2389
 2140SOL    MW4 8635   3.595   4.048   3.414  0.5493 -0.4196  0.2494
 2141SOL     OW 8636   3.632   4.296   3.320 -0.3212 -0.0392 -0.6339
 2141SOL    HW2 8637   3.551   4.342   3.340  0.1558  1.2255 -1.5424
 2141SOL    HW3 8638   3.642   4.306   3.225  0.0954 -1.5146 -0.7495
 2141SOL    MW4 8639   3.623   4.303   3.310 -0.2034 -0.0672 -0.7691
 2142SOL     OW 8640   3.862   4.412   3.447 -0.2704  0.2118  0.3115
 2142SOL    HW2 8641   3.781   4.378   3.409 -0.0554 -2.1267  1.7964
 2142SOL    HW3 8642   3.882   4.490   3.396 -2.5237 -0.1468 -1.2060
 2142SOL    MW4 8643   3.854   4.418   3.436 -0.5393 -0.1445  0.3073
 2143SOL     OW 8644   4.242   0.007   3.309  0.2777 -0.0724  0.1419
 2143SOL    HW2 8645   4.266  -0.082   3.336  1.2059 -0.5095 -2.0388
 2143SOL    HW3 8646   4.321   0.059   3.327  0.0562  0.1186  0.5508
 2143SOL    MW4 8647   4.256   0.002   3.315  0.3705 -0.1049 -0.0918
 2144SOL     OW 8648   4.011   0.142   3.382  0.0053  0.1375  0.0309
 2144SOL    HW2 8649   4.074   0.075   3.353  0.8852  1.5132 -1.2892
 2144SOL    HW3 8650   3.926   0.105   3.358  0.5902  0.2556 -2.3467
 2144SOL    MW4 8651   4.008   0.128   3.375  0.1979  0.3346 -0.4568
 2145SOL     OW 8652   4.035   0.393   3.275  0.1772 -0.2085  0.3439
 2145SOL    HW2 8653   4.029   0.305   3.311 -0.1281 -0.6372 -0.7158
 2145SOL    HW3 8654   4.019   0.381   3.181  1.0544  0.8581  0.0538
 2145SOL    MW4 8655   4.032   0.380   3.267  0.2527 -0.1244  0.1655
 2146SOL     OW 8656   4.275   0.495   3.373 -0.0747  0.0409  0.2360
 2146SOL    HW2 8657   4.257   0.584   3.341  1.4841 -0.1061 -1.1096
 2146SOL    HW3 8658   4.205   0.441   3.337  0.9122  0.1209 -1.8550
 2146SOL    MW4 8659   4.263   0.500   3.364  0.2608  0.0321 -0.2177
 2147SOL     OW 8660   4.261   0.762   3.312 -0.4645  0.5161  0.1124
 2147SOL    HW2 8661   4.344   0.808   3.319  0.4192 -0.9848 -0.1981
 2147SOL    HW3 8662   4.245   0.755   3.218 -0.5269  0.0738  0.1550
 2147SOL    MW4 8663   4.270   0.767   3.301 -0.3557  0.2597  0.0772
 2148SOL     OW 8664   4.031   0.883   3.411 -0.1171  0.0633  0.5647
 2148SOL    HW2 8665   4.044   0.971   3.375 -0.5438 -0.1461 -0.1082
 2148SOL    HW3 8666   4.098   0.829   3.368 -2.8762 -0.9633 -2.7171
 2148SOL    MW4 8667   4.042   0.887   3.400 -0.5383 -0.0998  0.0429
 2149SOL     OW 8668   4.033   1.133   3.307 -0.1162 -0.4725 -0.3743
 2149SOL    HW2 8669   4.103   1.196   3.325  0.3009 -0.7545 -0.9898
 2149SOL    HW3 8670   3.952   1.179   3.332  0.2368  0.0838 -0.2472
 2149SOL    MW4 8671   4.031   1.147   3.313 -0.0148 -0.4363 -0.4387
 2150SOL     OW 8672   4.240   1.311   3.410  0.4485 -0.0550 -0.1332
 2150SOL    HW2 8673   4.253   1.397   3.370 -1.9692 -0.1039 -1.1153
 2150SOL    HW3 8674   4.317   1.261   3.385 -0.2435  0.4233 -3.4464
 2150SOL    MW4 8675   4.252   1.316   3.401  0.0381  0.0015 -0.6998
 2151SOL     OW 8676   4.268   1.571   3.312 -0.1636  0.6269 -0.2001
 2151SOL    HW2 8677   4.207   1.609   3.376  0.8745  1.1773  0.4758
 2151SOL    HW3 8678   4.221   1.576   3.229 -1.8922 -0.9198  0.6459
 2151SOL    MW4 8679   4.254   1.577   3.310 -0.2546  0.4954  0.0007
 2152SOL     OW 8680   4.001   1.631   3.388  0.2926  0.2895  0.0797
 2152SOL    HW2 8681   3.994   1.638   3.484 -0.6627  1.4371 -0.0599
 2152SOL    HW3 8682   4.008   1.721   3.358  3.3452 -0.1931 -0.7558
 2152SOL    MW4 8683   4.001   1.644   3.397  0.5693  0.3773 -0.0494
 2153SOL     OW 8684   4.034   1.897   3.303  0.1356 -0.1070  0.1273
 2153SOL    HW2 8685   4.112   1.945   3.331 -0.4509  0.4766  0.7567
 2153SOL    HW3 8686   4.029   1.914   3.209  2.5339 -2.7013 -0.5508
 2153SOL    MW4 8687   4.044   1.906   3.294  0.3738 -0.3722  0.1209
 2154SOL     OW 8688   4.257   2.042   3.392 -0.5722 -0.5127  0.0591
 2154SOL    HW2 8689   4.253   2.135   3.368 -1.1708 -0.0881  1.7788
 2154SOL    HW3 8690   4.337   2.010   3.350 -0.4069  0.7514 -0.6118
 2154SOL    MW4 8691   4.267   2.050   3.383 -0.6294 -0.2899  0.1976
 2155SOL     OW 8692   4.252   2.316   3.312 -0.6256  0.1585 -0.0961
 2155SOL    HW2 8693   4.162   2.348   3.314 -0.1518  1.7859 -2.7191
 2155SOL    HW3 8694   4.273   2.311   3.219  1.9157 -0.4736  0.4851
 2155SOL    MW4 8695   4.243   2.319   3.300 -0.2284  0.2899 -0.3655
 2156SOL     OW 8696   3.975   2.411   3.350 -0.3638 -0.1025  0.1802
 2156SOL    HW2 8697   3.952   2.398   3.443  0.7651 -0.6254  0.3989
 2156SOL    HW3 8698   3.982   2.505   3.340  0.6523 -0.0834  0.9289
 2156SOL    MW4 8699   3.973   2.421   3.361 -0.0806 -0.1690  0.3078
 2157SOL     OW 8700   4.003   2.688   3.264  0.4717 -0.6273  0.2282
 2157SOL    HW2 8701   4.079   2.737   3.296  1.6218 -0.5237 -2.4989
 2157SOL    HW3 8702   3.927   2.735   3.299  1.5884  2.0037 -0.7590
 2157SOL    MW4 8703   4.003   2.701   3.273  0.7706 -0.2666 -0.2620
 2158SOL     OW 8704   4.212   2.864   3.340 -0.5441 -0.6060  0.1543
 2158SOL    HW2 8705   4.241   2.882   3.430 -0.7891 -0.3369  0.1767
 2158SOL    HW3 8706   4.291   2.834   3.296 -0.0719  0.7728  0.0385
 2158SOL    MW4 8707   4.226   2.862   3.346 -0.5145 -0.3886  0.1421
 2159SOL     OW 8708   4.282   3.123   3.281 -0.1126  0.8611 -0.1204
 2159SOL    HW2 8709   4.263   3.032   3.305  2.4154  0.5116  0.7309
 2159SOL    HW3 8710   4.298   3.119   3.186  1.9468  0.0026  0.2189
 2159SOL    MW4 8711   4.282   3.111   3.272  0.4926  0.7017  0.0370
 2160SOL     OW 8712   4.047   3.249   3.412 -0.7751  0.2214  0.2576
 2160SOL    HW2 8713   4.051   3.340   3.380 -2.3547  0.0971 -0.3236
 2160SOL    HW3 8714   4.106   3.201   3.354 -0.2009  0.8138  0.3455
 2160SOL    MW4 8715   4.055   3.255   3.400 -0.9079  0.2832  0.1924
 2161SOL     OW 8716   4.043   3.505   3.279  0.5537  0.3074  0.0796
 2161SOL    HW2 8717   4.119   3.521   3.335 -0.1300 -0.7165  1.3049
 2161SOL    HW3 8718   3.971   3.551   3.322  0.0531 -0.3723 -0.0350
 2161SOL    MW4 8719   4.044   3.513   3.292  0.3972  0.0827  0.2260
 2162SOL     OW 8720   4.275   3.594   3.414  0.3919 -0.1731 -0.0441
 2162SOL    HW2 8721   4.261   3.591   3.509  3.5238  0.3967  0.4857
 2162SOL    HW3 8722   4.258   3.685   3.390 -0.4761 -0.3347 -0.0375
 2162SOL    MW4 8723   4.271   3.606   3.424  0.6905 -0.1194  0.0267
 2163SOL     OW 8724   4.267   3.857   3.331 -0.0367 -0.3844  0.1424
 2163SOL    HW2 8725   4.349   3.904   3.346  0.9851 -2.3868  0.9895
 2163SOL    HW3 8726   4.251   3.866   3.237  0.9128  0.3972  0.0492
 2163SOL    MW4 8727   4.276   3.865   3.321  0.2236 -0.5457  0.2418
 2164SOL     OW 8728   4.037   4.012   3.400 -0.1501  0.0360 -0.3832
 2164SOL    HW2 8729   4.111   3.956   3.376 -0.0282 -0.6254  1.4020
 2164SOL    HW3 8730   3.959   3.959   3.382 -0.0865 -0.2093  0.0609
 2164SOL    MW4 8731   4.036   3.998   3.395 -0.1254 -0.0839 -0.0892
 2165SOL     OW 8732   4.042   4.263   3.290  0.3354  0.2729 -0.0074
 2165SOL    HW2 8733   4.050   4.171   3.315 -1.9050 -0.3858 -1.5190
 2165SOL    HW3 8734   3.993   4.303   3.362  0.3166  0.0121  0.1254
 2165SOL    MW4 8735   4.036   4.257   3.303  0.0372  0.1512 -0.1893
 2166SOL     OW 8736   4.287   4.410   3.394  0.0052  0.1055 -0.4615
 2166SOL    HW2 8737   4.307   4.412   3.488  0.5618 -2.5978 -0.4881
 2166SOL    HW3 8738   4.207   4.359   3.388  0.4955 -0.5436 -1.5443
 2166SOL    MW4 8739   4.279   4.404   3.406  0.1431 -0.3366 -0.6080
 2167SOL     OW 8740   0.221   0.023   3.741 -0.2035  0.3941 -0.3822
 2167SOL    HW2 8741   0.238   0.054   3.830 -0.3080  1.7647 -0.8262
 2167SOL    HW3 8742   0.135   0.060   3.719  1.1873  2.7319 -2.1975
 2167SOL    MW4 8743   0.212   0.032   3.750 -0.0338  0.8841 -0.6802
 2168SOL     OW 8744   4.465   0.122   3.671 -0.3939 -0.1379 -0.3127
 2168SOL    HW2 8745   4.487   0.211   3.700  1.4558 -0.6094 -0.2182
 2168SOL    HW3 8746   4.481   0.124   3.576 -1.0135 -0.1715 -0.4160
 2168SOL    MW4 8747   4.470   0.134   3.662 -0.2315 -0.2045 -0.3140
 2169SOL     OW 8748   0.066   0.362   3.760 -0.2717  0.2815 -0.2676
 2169SOL    HW2 8749  -0.008   0.411   3.725 -0.0448  1.1456  0.4574
 2169SOL    HW3 8750   0.143   0.402   3.719 -0.1928 -0.6481 -1.0605
 2169SOL    MW4 8751   0.066   0.374   3.750 -0.2314  0.2728 -0.2766
 2170SOL     OW 8752   0.304   0.462   3.609  0.3034  0.6056 -0.7932
 2170SOL    HW2 8753   0.303   0.552   3.641  4.2796  1.2149 -2.1261
 2170SOL    HW3 8754   0.283   0.470   3.516 -0.8741 -0.0304 -0.5857
 2170SOL    MW4 8755   0.301   0.475   3.601  0.6727  0.6021 -0.9415
 2171SOL     OW 8756   0.248   0.710   3.739  0.4934 -0.1100  0.2322
 2171SOL    HW2 8757   0.228   0.699   3.832 -0.5003 -3.5322 -0.3150
 2171SOL    HW3 8758   0.171   0.754   3.703 -0.6451 -1.8722  0.4409
 2171SOL    MW4 8759   0.235   0.714   3.747  0.2121 -0.7940  0.1874
 2172SOL     OW 8760   0.005   0.856   3.665 -0.2125  0.3705  0.2316
 2172SOL    HW2 8761  -0.067   0.798   3.692 -1.6145  1.0050 -2.0712
 2172SOL    HW3 8762  -0.022   0.943   3.694 -0.3793  0.6103 -0.6406
 2172SOL    MW4 8763  -0.008   0.860   3.672 -0.4201  0.4858 -0.1876
 2173SOL     OW 8764   4.439   1.124   3.800 -0.0080 -0.1810  0.2085
 2173SOL    HW2 8765   4.374   1.184   3.763  0.2459  0.8287  1.3476
 2173SOL    HW3 8766   4.523   1.167   3.783  0.1711 -0.1873  1.0651
 2173SOL    MW4 8767   4.442   1.138   3.793  0.0491 -0.0486  0.4716
 2174SOL     OW 8768   0.209   1.273   3.695 -0.0480 -0.1558  0.4216
 2174SOL    HW2 8769   0.217   1.362   3.731 -0.2746 -0.2507  0.7143
 2174SOL    HW3 8770   0.219   1.284   3.601  1.3943 -0.0050  0.5695
 2174SOL    MW4 8771   0.212   1.286   3.688  0.1124 -0.1484  0.4799
 2175SOL     OW 8772   0.240   1.549   3.762 -0.1371  0.1092 -0.2043
 2175SOL    HW2 8773   0.255   1.557   3.857  0.0476 -0.6161 -0.1744
 2175SOL    HW3 8774   0.152   1.585   3.750  0.2229  1.1322  0.0977
 2175SOL    MW4 8775   0.230   1.555   3.773 -0.0652  0.1485 -0.1607
 2176SOL     OW 8776   4.485   1.670   3.727  0.1072  0.1815 -0.6428
 2176SOL    HW2 8777   4.488   1.762   3.756  0.8388  0.1907 -0.7243
 2176SOL    HW3 8778   4.490   1.675   3.632  1.4197  0.0221 -0.5986
 2176SOL    MW4 8779   4.486   1.683   3.718  0.3762  0.1616 -0.6478
 2177SOL     OW 8780   4.468   1.939   3.758  0.1011 -0.2979 -0.2057
 2177SOL    HW2 8781   4.466   1.977   3.846 -0.8033  0.7964 -0.6740
 2177SOL    HW3 8782   4.382   1.961   3.721 -0.8699 -3.7136 -0.1462
 2177SOL    MW4 8783   4.456   1.947   3.765 -0.1459 -0.6042 -0.2596
 2178SOL     OW 8784   0.218   2.050   3.682  0.0208  0.0985 -0.2186
 2178SOL    HW2 8785   0.219   2.142   3.711  0.8951  0.0025  0.0852
 2178SOL    HW3 8786   0.143   2.011   3.727  0.0468  0.5024  0.1763
 2178SOL    MW4 8787   0.208   2.057   3.692  0.1396  0.1392 -0.1266
 2179SOL     OW 8788   0.217   2.310   3.774  0.1095  0.2363  0.2824
 2179SOL    HW2 8789   0.198   2.306   3.867 -0.2258 -0.7387  0.1839
 2179SOL    HW3 8790   0.141   2.354   3.735  0.0690  0.2901  0.4245
 2179SOL    MW4 8791   0.205   2.315   3.781  0.0599  0.1144  0.2880
 2180SOL     OW 8792   4.475   2.426   3.673  0.0053 -0.0141 -0.4120
 2180SOL    HW2 8793   4.388   2.386   3.684  0.1769 -0.5009 -0.7825
 2180SOL    HW3 8794   4.467   2.512   3.713 -0.8628  0.2135 -1.0444
 2180SOL    MW4 8795   4.462   2.432   3.679 -0.0873 -0.0479 -0.5441
 2181SOL     OW 8796   4.436   2.710   3.719  0.2779  0.3256 -0.2010
 2181SOL    HW2 8797   4.429   2.736   3.811  0.7511 -1.1064  0.2515
 2181SOL    HW3 8798   4.510   2.760   3.685  0.1102  0.8486  0.2084
 2181SOL    MW4 8799   4.445   2.720   3.726  0.3185  0.2058 -0.0873
 2182SOL     OW 8800   0.202   2.858   3.722 -0.1909 -0.4450 -0.6779
 2182SOL    HW2 8801   0.271   2.795   3.743 -0.7842 -1.1071 -0.7216
 2182SOL    HW3 8802   0.208   2.870   3.628  0.3361  0.0535 -0.5874
 2182SOL    MW4 8803   0.212   2.851   3.712 -0.1996 -0.4666 -0.6716
 2183SOL     OW 8804   0.238   3.129   3.807 -0.0485 -0.5694  0.3156
 2183SOL    HW2 8805   0.214   3.131   3.900 -0.4542  0.1372  0.1952
 2183SOL    HW3 8806   0.216   3.040   3.779 -1.7275 -0.2132  0.4272
 2183SOL    MW4 8807   0.232   3.118   3.816 -0.3236 -0.4292  0.3142
 2184SOL     OW 8808   4.489   3.237   3.720  0.0492 -0.3755  0.5856
 2184SOL    HW2 8809   4.577   3.206   3.742  0.8905  1.9882  0.6251
 2184SOL    HW3 8810   4.486   3.235   3.624 -0.6306 -2.4963  0.6245
 2184SOL    MW4 8811   4.500   3.232   3.710  0.0710 -0.3436  0.5958
 2185SOL     OW 8812   0.005   3.503   3.739 -0.3756  0.4613  0.1895
 2185SOL    HW2 8813   0.089   3.539   3.711 -0.3879  0.9474  0.7724
 2185SOL    HW3 8814   0.011   3.410   3.718  0.7158  0.3027  1.1584
 2185SOL    MW4 8815   0.017   3.495   3.733 -0.2332  0.5045  0.3941
 2186SOL     OW 8816   0.238   3.616   3.646  1.0570 -0.0327  0.3971
 2186SOL    HW2 8817   0.320   3.586   3.685  1.1667  1.4306  1.3580
 2186SOL    HW3 8818   0.218   3.697   3.694 -0.0210  0.5616 -1.0438
 2186SOL    MW4 8819   0.246   3.623   3.658  0.9292  0.2389  0.3338
 2187SOL     OW 8820   0.208   3.866   3.784  0.0120 -0.1348 -0.0467
 2187SOL    HW2 8821   0.223   3.855   3.878  0.7669  0.7406 -0.0621
 2187SOL    HW3 8822   0.291   3.900   3.750 -0.2612 -0.4298 -1.0297
 2187SOL    MW4 8823   0.221   3.869   3.792  0.0755 -0.0582 -0.1786
 2188SOL     OW 8824   4.489   4.033   3.670 -0.2385 -0.1535 -0.1197
 2188SOL    HW2 8825   4.410   3.991   3.704 -1.3974  1.5236 -0.6848
 2188SOL    HW3 8826   4.561   3.991   3.717 -1.5626 -0.6997  1.4404
 2188SOL    MW4 8827   4.488   4.022   3.681 -0.5662 -0.0038  0.0117
 2189SOL     OW 8828   0.205   4.398   3.644  0.1788  0.1569  0.2125
 2189SOL    HW2 8829   0.215   4.481   3.689  0.5488  0.5665 -0.6224
 2189SOL    HW3 8830   0.131   4.355   3.688 -0.1095  0.9873  0.5358
 2189SOL    MW4 8831   0.197   4.403   3.656  0.1896  0.3209  0.1450
 2190SOL     OW 8832   0.434   4.242   3.751 -0.4019  0.2754  0.1021
 2190SOL    HW2 8833   0.519   4.286   3.740 -0.5404  0.3944 -0.5176
 2190SOL    HW3 8834   0.370   4.309   3.726 -0.7262  0.4514  1.3377
 2190SOL    MW4 8835   0.437   4.257   3.746 -0.4629  0.3142  0.1833
 2191SOL     OW 8836   0.668   4.658   3.783  0.0389 -0.1561 -0.4718
 2191SOL    HW2 8837   0.673   4.572   3.740  0.4257 -0.0810 -0.5686
 2191SOL    HW3 8838   0.611   4.710   3.725 -0.1483 -0.3264 -0.4433
 2191SOL    MW4 8839   0.661   4.653   3.769  0.0653 -0.1688 -0.4807
 2192SOL     OW 8840   0.462   0.103   3.616  0.0028 -0.7526  0.3269
 2192SOL    HW2 8841   0.474   0.191   3.650 -0.8147 -0.6962  0.4684
 2192SOL    HW3 8842   0.388   0.068   3.665  0.6653 -1.7191  0.6615
 2192SOL    MW4 8843   0.454   0.110   3.627 -0.0176 -0.8727  0.3896
 2193SOL     OW 8844   0.519   0.343   3.745 -0.2179  0.1454 -0.4705
 2193SOL    HW2 8845   0.605   0.377   3.720  0.4529 -0.6216  0.7249
 2193SOL    HW3 8846   0.457   0.393   3.692  1.0669 -0.7344 -2.8715
 2193SOL    MW4 8847   0.522   0.354   3.735  0.0402 -0.0719 -0.6297
 2194SOL     OW 8848   0.941   0.337   3.744 -0.6176  0.6788  0.1679
 2194SOL    HW2 8849   0.916   0.248   3.719  0.9752  0.4330 -0.5869
 2194SOL    HW3 8850   0.919   0.343   3.837 -0.3200 -0.6568  0.3284
 2194SOL    MW4 8851   0.935   0.326   3.753 -0.3682  0.4701  0.0894
 2195SOL     OW 8852   0.687   0.679   3.811  0.0765  0.0915 -0.8674
 2195SOL    HW2 8853   0.610   0.726   3.780 -0.0681  0.0779 -0.5264
 2195SOL    HW3 8854   0.693   0.700   3.905  0.3392 -0.1096 -0.8361
 2195SOL    MW4 8855   0.678   0.688   3.820  0.0920  0.0632 -0.8183
 2196SOL     OW 8856   0.482   0.838   3.699 -0.1160 -0.1593 -0.1014
 2196SOL    HW2 8857   0.459   0.928   3.721 -0.8352 -0.2153 -0.5940
 2196SOL    HW3 8858   0.406   0.786   3.727 -0.1023 -0.4926 -0.6752
 2196SOL    MW4 8859   0.469   0.843   3.705 -0.2091 -0.2106 -0.2420
 2197SOL     OW 8860   0.449   1.129   3.778 -0.1089  0.3997  0.4600
 2197SOL    HW2 8861   0.523   1.182   3.750 -0.8330  0.5067 -1.2666
 2197SOL    HW3 8862   0.372   1.185   3.764 -0.6615 -0.2504  0.8396
 2197SOL    MW4 8863   0.449   1.144   3.773 -0.2774  0.3281  0.2823
 2198SOL     OW 8864   0.672   1.279   3.686 -0.0929  0.3988  0.0478
 2198SOL    HW2 8865   0.754   1.234   3.704 -0.0382  0.7321  0.6773
 2198SOL    HW3 8866   0.661   1.274   3.591  1.6627  2.0811 -0.2724
 2198SOL    MW4 8867   0.681   1.272   3.676  0.1460  0.6647  0.0887
 2199SOL     OW 8868   0.657   1.531   3.788  0.1304  0.1313  0.0106
 2199SOL    HW2 8869   0.730   1.575   3.744  0.6453 -0.3364  0.3875
 2199SOL    HW3 8870   0.647   1.449   3.740  0.3404 -0.1368  0.4228
 2199SOL    MW4 8871   0.665   1.526   3.776  0.2260  0.0342  0.1147
 2200SOL     OW 8872   0.457   1.712   3.658 -0.3215  0.3695 -0.2821
 2200SOL    HW2 8873   0.525   1.652   3.687 -1.1079 -1.0368 -1.3145
 2200SOL    HW3 8874   0.376   1.675   3.691 -0.7582  1.2274 -0.3731
 2200SOL    MW4 8875   0.455   1.699   3.666 -0.4829  0.2973 -0.4303
 2201SOL     OW 8876   0.473   1.960   3.782 -0.1610 -0.5403 -0.1354
 2201SOL    HW2 8877   0.480   1.870   3.750  0.8657 -0.2651 -0.7216
 2201SOL    HW3 8878   0.394   1.994   3.741 -0.3399 -1.0528 -0.2228
 2201SOL    MW4 8879   0.464   1.952   3.773 -0.0491 -0.5717 -0.2246
 2202SOL     OW 8880   0.669   2.057   3.635 -0.0855  0.8396  0.0711
 2202SOL    HW2 8881   0.690   2.137   3.684 -0.8395 -0.0363  1.8861
 2202SOL    HW3 8882   0.605   2.012   3.690 -0.1256 -0.7169 -1.2256
 2202SOL    MW4 8883   0.664   2.062   3.649 -0.1904  0.5186  0.1400
 2203SOL     OW 8884   0.691   2.329   3.715  0.6551 -0.6841  0.3544
 2203SOL    HW2 8885   0.762   2.378   3.673  1.2799 -1.9618 -0.1051
 2203SOL    HW3 8886   0.612   2.374   3.687  1.2772  0.7905  0.9093
 2203SOL    MW4 8887   0.690   2.341   3.706  0.8196 -0.6583  0.3672
 2204SOL     OW 8888   0.445   2.453   3.726  0.1848  0.0744  0.5769
 2204SOL    HW2 8889   0.363   2.408   3.748  0.5506 -1.0757 -0.4244
 2204SOL    HW3 8890   0.432   2.484   3.636  1.2335 -0.9812  0.0607
 2204SOL    MW4 8891   0.432   2.451   3.717  0.3714 -0.2162  0.3769
 2205SOL     OW 8892   0.428   2.734   3.811 -0.0521  0.2830 -0.6357
 2205SOL    HW2 8893   0.502   2.771   3.762  1.2155 -0.1477  0.9150
 2205SOL    HW3 8894   0.431   2.641   3.793 -0.7862  0.3764 -1.2892
 2205SOL    MW4 8895   0.438   2.727   3.802  0.0183  0.2384 -0.5174
 2206SOL     OW 8896   0.642   2.852   3.691 -0.4292  0.0608  0.3512
 2206SOL    HW2 8897   0.724   2.812   3.720  0.3603  0.7565 -0.8478
 2206SOL    HW3 8898   0.645   2.844   3.595 -1.5734  0.4582  0.2783
 2206SOL    MW4 8899   0.654   2.845   3.682 -0.4760  0.2050  0.1836
 2207SOL     OW 8900   0.668   3.126   3.757 -0.1930  0.2697  0.5222
 2207SOL    HW2 8901   0.653   3.147   3.849  0.6450 -0.0753  0.7355
 2207SOL    HW3 8902   0.652   3.031   3.751  1.7338 -0.0705  0.7119
 2207SOL    MW4 8903   0.664   3.116   3.768  0.1718  0.1793  0.5753
 2208SOL     OW 8904   0.438   3.244   3.655  0.1399  0.3242 -0.1524
 2208SOL    HW2 8905   0.521   3.204   3.682 -0.8041 -1.2296  0.5373
 2208SOL    HW3 8906   0.371   3.198   3.706 -1.1120  1.9670 -0.2507
 2208SOL    MW4 8907   0.440   3.233   3.665 -0.1498  0.3359 -0.0744
 2209SOL     OW 8908   0.452   3.491   3.765 -0.2486 -0.4486 -0.4186
 2209SOL    HW2 8909   0.531   3.535   3.733 -1.3020  1.2530 -0.7520
 2209SOL    HW3 8910   0.449   3.408   3.717 -0.2395  0.7779 -2.5815
 2209SOL    MW4 8911   0.462   3.486   3.754 -0.3864 -0.0622 -0.7477
 2210SOL     OW 8912   0.688   3.574   3.651 -0.3970  0.4671 -0.4050
 2210SOL    HW2 8913   0.670   3.663   3.681 -2.2911  0.4334 -1.3394
 2210SOL    HW3 8914   0.678   3.579   3.556 -0.6010 -0.7746 -0.4502
 2210SOL    MW4 8915   0.684   3.587   3.642 -0.6738  0.2990 -0.5341
 2211SOL     OW 8916   0.633   3.847   3.756 -0.0312  0.3161 -0.0114
 2211SOL    HW2 8917   0.640   3.803   3.841  1.1489 -0.6820 -0.6127
 2211SOL    HW3 8918   0.712   3.900   3.750  0.4373 -0.4757 -0.9583
 2211SOL    MW4 8919   0.644   3.848   3.767  0.1863  0.0801 -0.2158
 2212SOL     OW 8920   0.429   3.989   3.652 -0.0775 -0.5517  0.2203
 2212SOL    HW2 8921   0.509   3.949   3.685  1.1545 -0.1064 -2.1419
 2212SOL    HW3 8922   0.434   4.080   3.682  1.3054 -0.0056 -1.5419
 2212SOL    MW4 8923   0.440   3.996   3.660  0.2676 -0.4208 -0.3238
 2213SOL     OW 8924   4.439   2.802   4.004 -0.1718  0.3143 -0.1390
 2213SOL    HW2 8925   4.515   2.857   4.023 -0.8853  0.8608  1.1906
 2213SOL    HW3 8926   4.456   2.721   4.052  0.0440  0.0306 -0.6816
 2213SOL    MW4 8927   4.451   2.799   4.013 -0.2370  0.3488 -0.0353
 2214SOL     OW 8928   0.672   4.398   3.684  0.0592  0.3753 -0.6127
 2214SOL    HW2 8929   0.756   4.358   3.708 -2.4605 -4.0072  1.5462
 2214SOL    HW3 8930   0.664   4.382   3.590  1.1404 -0.1406 -0.6261
 2214SOL    MW4 8931   0.682   4.391   3.674 -0.1306 -0.2713 -0.3297
 2215SOL     OW 8932   1.133   4.646   3.833 -0.1462 -0.8311 -0.0145
 2215SOL    HW2 8933   1.145   4.558   3.797 -0.4933 -0.0269 -2.1569
 2215SOL    HW3 8934   1.212   4.693   3.807  0.6275 -0.8151  2.2151
 2215SOL    MW4 8935   1.145   4.640   3.825 -0.0899 -0.7229 -0.0031
 2216SOL     OW 8936   0.908   0.074   3.659 -0.0568 -0.1573 -0.1900
 2216SOL    HW2 8937   0.981   0.030   3.703 -0.5994 -2.8202 -1.8137
 2216SOL    HW3 8938   0.830   0.042   3.704 -0.2884  2.0895  1.0463
 2216SOL    MW4 8939   0.907   0.064   3.670 -0.1589 -0.2122 -0.2413
 2217SOL     OW 8940   0.734   0.472   3.632  0.3699  0.4943  0.3246
 2217SOL    HW2 8941   0.710   0.550   3.682  2.0360  1.2726 -0.0682
 2217SOL    HW3 8942   0.810   0.437   3.679  0.5231 -0.0759 -0.3508
 2217SOL    MW4 8943   0.740   0.478   3.645  0.6099  0.5217  0.1836
 2218SOL     OW 8944   1.134   0.502   3.678 -0.1912  0.0344  0.4668
 2218SOL    HW2 8945   1.212   0.465   3.718 -0.7803  0.3251  1.9185
 2218SOL    HW3 8946   1.065   0.439   3.698 -0.4878  0.1690 -0.1235
 2218SOL    MW4 8947   1.135   0.489   3.686 -0.3080  0.0905  0.5803
 2219SOL     OW 8948   1.147   0.770   3.781 -0.0331 -0.2485  0.0208
 2219SOL    HW2 8949   1.132   0.770   3.875 -1.1000 -0.4177 -0.1418
 2219SOL    HW3 8950   1.143   0.678   3.756  1.5137 -0.3132  0.0034
 2219SOL    MW4 8951   1.144   0.758   3.790  0.0302 -0.2793 -0.0031
 2220SOL     OW 8952   0.889   0.851   3.711 -0.0625  0.0760 -0.1144
 2220SOL    HW2 8953   0.824   0.793   3.749  0.4242 -1.1397 -1.1229
 2220SOL    HW3 8954   0.973   0.818   3.743  0.3256 -0.7313 -1.9249
 2220SOL    MW4 8955   0.891   0.839   3.720  0.0529 -0.1909 -0.4864
 2221SOL     OW 8956   0.906   1.142   3.768  0.1949  0.2624 -0.0286
 2221SOL    HW2 8957   0.893   1.150   3.862 -0.7549 -0.5194 -0.0929
 2221SOL    HW3 8958   0.893   1.049   3.749  1.3860  0.2395 -0.7833
 2221SOL    MW4 8959   0.902   1.131   3.778  0.2267  0.1563 -0.1364
 2222SOL     OW 8960   1.144   1.293   3.698  0.4067 -0.3181 -0.5019
 2222SOL    HW2 8961   1.132   1.386   3.718  2.0773 -0.2463  0.2415
 2222SOL    HW3 8962   1.067   1.250   3.735 -0.2567  0.7400 -0.6430
 2222SOL    MW4 8963   1.132   1.300   3.706  0.5395 -0.1690 -0.4222
 2223SOL     OW 8964   1.087   1.578   3.729  0.3033  0.0927 -0.7536
 2223SOL    HW2 8965   1.083   1.604   3.822 -1.0507 -0.3545 -0.6720
 2223SOL    HW3 8966   1.164   1.622   3.695  0.3850  0.8708  0.4129
 2223SOL    MW4 8967   1.097   1.587   3.737  0.1354  0.1364 -0.5891
 2224SOL     OW 8968   0.853   1.678   3.661  0.3508  0.1453 -0.0649
 2224SOL    HW2 8969   0.936   1.642   3.695  1.2076  1.0506 -1.1621
 2224SOL    HW3 8970   0.852   1.652   3.569 -0.6825  0.0034 -0.0177
 2224SOL    MW4 8971   0.864   1.669   3.653  0.3276  0.2460 -0.2034
 2225SOL     OW 8972   0.895   1.961   3.748 -0.1272 -0.4814 -0.0327
 2225SOL    HW2 8973   0.905   1.866   3.738  0.7444 -0.3511 -0.4308
 2225SOL    HW3 8974   0.819   1.982   3.693  0.0655 -0.8611 -0.4547
 2225SOL    MW4 8975   0.886   1.951   3.739  0.0132 -0.5144 -0.1409
 2226SOL     OW 8976   1.116   2.063   3.638  0.1017 -0.0046  0.1029
 2226SOL    HW2 8977   1.050   2.021   3.693  0.1301 -0.6484 -0.3501
 2226SOL    HW3 8978   1.078   2.063   3.550  0.3268  0.4466  0.0017
 2226SOL    MW4 8979   1.102   2.058   3.633  0.1352 -0.0300  0.0298
 2227SOL     OW 8980   1.133   2.337   3.758  0.3710 -0.0024  0.0410
 2227SOL    HW2 8981   1.110   2.329   3.850 -0.4720 -0.0858 -0.1750
 2227SOL    HW3 8982   1.120   2.249   3.722  1.5282 -0.1800  0.0238
 2227SOL    MW4 8983   1.129   2.325   3.765  0.4123 -0.0367  0.0100
 2228SOL     OW 8984   0.897   2.479   3.625  0.0664 -0.8057 -0.2833
 2228SOL    HW2 8985   0.888   2.560   3.676 -0.3980  0.0155 -1.6315
 2228SOL    HW3 8986   0.979   2.441   3.655  0.2990  0.1750  0.3710
 2228SOL    MW4 8987   0.907   2.485   3.635  0.0358 -0.5682 -0.3748
 2229SOL     OW 8988   0.894   2.738   3.769 -0.6563  0.1834 -0.1139
 2229SOL    HW2 8989   0.903   2.735   3.864 -0.9118 -1.7151 -0.1139
 2229SOL    HW3 8990   0.983   2.753   3.737 -0.4012 -0.1997  0.4007
 2229SOL    MW4 8991   0.907   2.739   3.777 -0.6564 -0.1175 -0.0460
 2230SOL     OW 8992   1.150   2.805   3.673 -0.5742 -0.1935  0.3936
 2230SOL    HW2 8993   1.234   2.778   3.710 -1.5399 -0.5067  2.4263
 2230SOL    HW3 8994   1.140   2.896   3.702 -0.3343  0.2647 -0.9482
 2230SOL    MW4 8995   1.160   2.814   3.682 -0.6701 -0.1743  0.4847
 2231SOL     OW 8996   1.140   3.059   3.758 -0.5087 -0.5817 -0.0262
 2231SOL    HW2 8997   1.222   3.109   3.751 -1.2736  0.8827  1.0889
 2231SOL    HW3 8998   1.074   3.116   3.717 -0.9702 -1.7770 -0.9662
 2231SOL    MW4 8999   1.142   3.073   3.752 -0.6704 -0.5460 -0.0029
 2232SOL     OW 9000   0.922   3.212   3.654  0.3064 -0.2074  0.1309
 2232SOL    HW2 9001   0.837   3.178   3.681 -0.1422 -0.0941 -1.1029
 2232SOL    HW3 9002   0.914   3.222   3.559  0.9611  1.8155  0.2701
 2232SOL    MW4 9003   0.910   3.209   3.645  0.3336  0.0744 -0.0136
 2233SOL     OW 9004   0.914   3.444   3.785  0.0212  0.0702 -0.0610
 2233SOL    HW2 9005   0.932   3.361   3.742 -0.2277  0.2068 -0.4349
 2233SOL    HW3 9006   0.830   3.471   3.749 -0.1454  0.2281  0.4508
 2233SOL    MW4 9007   0.905   3.437   3.775 -0.0336  0.1090 -0.0427
 2234SOL     OW 9008   1.106   3.610   3.685 -0.3290 -0.1720  0.2777
 2234SOL    HW2 9009   1.086   3.697   3.721 -0.1317 -0.8919  2.1501
 2234SOL    HW3 9010   1.035   3.555   3.717  0.3490 -1.0229  0.3162
 2234SOL    MW4 9011   1.094   3.614   3.694 -0.2135 -0.3793  0.5298
 2235SOL     OW 9012   1.084   3.861   3.767  0.4408  0.1352 -0.0874
 2235SOL    HW2 9013   1.165   3.896   3.729 -0.3626  1.1267 -0.9173
 2235SOL    HW3 9014   1.102   3.855   3.861  1.3626  0.6765 -0.2179
 2235SOL    MW4 9015   1.097   3.865   3.774  0.4565  0.3374 -0.2141
 2236SOL     OW 9016   0.855   3.996   3.693 -0.0241 -0.1867  0.0296
 2236SOL    HW2 9017   0.932   3.952   3.729 -0.7094 -2.6142 -1.3777
 2236SOL    HW3 9018   0.862   3.984   3.599 -1.3322  0.9174 -0.2298
 2236SOL    MW4 9019   0.866   3.988   3.685 -0.2871 -0.3612 -0.1907
 2237SOL     OW 9020   0.898   4.271   3.765 -0.9673  0.2901 -0.1227
 2237SOL    HW2 9021   0.874   4.279   3.857 -2.5273  0.5872 -0.5370
 2237SOL    HW3 9022   0.877   4.181   3.742  0.4818 -0.1104  0.0971
 2237SOL    MW4 9023   0.892   4.260   3.774 -0.9820  0.2766 -0.1488
 2238SOL     OW 9024   1.132   4.379   3.699 -0.1193  0.1376 -0.1050
 2238SOL    HW2 9025   1.045   4.339   3.705 -0.2367  0.1925 -1.2607
 2238SOL    HW3 9026   1.144   4.394   3.605  0.7518  0.9833  0.1406
 2238SOL    MW4 9027   1.122   4.376   3.687 -0.0198  0.2570 -0.2251
 2239SOL     OW 9028   1.353   0.090   3.688 -0.2953  0.0772  0.3017
 2239SOL    HW2 9029   1.341   0.178   3.724 -0.8164  0.1093  0.0584
 2239SOL    HW3 9030   1.436   0.060   3.725 -0.8488  0.0821  1.5867
 2239SOL    MW4 9031   1.362   0.098   3.698 -0.4370  0.0820  0.4394
 2240SOL     OW 9032   1.374   0.376   3.788 -0.5851  0.1249  0.2510
 2240SOL    HW2 9033   1.444   0.424   3.744 -0.5220  0.4639  0.7146
 2240SOL    HW3 9034   1.383   0.400   3.880  0.5662 -2.1719  0.7633
 2240SOL    MW4 9035   1.384   0.386   3.794 -0.4249 -0.1334  0.3796
 2241SOL     OW 9036   1.390   0.462   4.075 -0.0873 -0.9926 -0.0995
 2241SOL    HW2 9037   1.373   0.554   4.094 -1.7874 -1.8491  2.8845
 2241SOL    HW3 9038   1.474   0.444   4.117  0.1524 -0.8541 -0.5178
 2241SOL    MW4 9039   1.399   0.472   4.083 -0.2799 -1.0873  0.2394
 2242SOL     OW 9040   1.606   0.514   3.684 -0.1202  0.4579  0.2122
 2242SOL    HW2 9041   1.672   0.461   3.730 -0.2337  0.3710  0.2767
 2242SOL    HW3 9042   1.615   0.601   3.723 -0.6819  0.2187  0.8906
 2242SOL    MW4 9043   1.616   0.518   3.695 -0.2093  0.4148  0.3102
 2243SOL     OW 9044   1.591   0.780   3.776 -0.0074  0.4287 -0.3547
 2243SOL    HW2 9045   1.664   0.837   3.754 -0.1687  0.0611 -1.8821
 2243SOL    HW3 9046   1.517   0.814   3.725 -0.1815 -0.9213 -1.0291
 2243SOL    MW4 9047   1.591   0.792   3.766 -0.0516  0.2021 -0.6452
 2244SOL     OW 9048   1.368   0.924   3.656 -0.0616 -0.5184 -0.1927
 2244SOL    HW2 9049   1.369   0.995   3.721  1.7286 -0.1891 -0.5577
 2244SOL    HW3 9050   1.286   0.877   3.673 -1.6557  2.0656 -0.4171
 2244SOL    MW4 9051   1.357   0.927   3.667 -0.0358 -0.1340 -0.2706
 2245SOL     OW 9052   1.364   1.173   3.837  0.3764 -0.6186 -0.2531
 2245SOL    HW2 9053   1.438   1.204   3.784  0.0162  1.0441  0.1760
 2245SOL    HW3 9054   1.287   1.211   3.794 -0.0585 -0.6813  0.4697
 2245SOL    MW4 9055   1.364   1.182   3.824  0.2716 -0.4075 -0.1011
 2246SOL     OW 9056   1.574   1.277   3.675 -0.1852 -0.1556  0.2801
 2246SOL    HW2 9057   1.650   1.255   3.728  0.6097 -0.5658 -0.9959
 2246SOL    HW3 9058   1.557   1.370   3.693 -0.4373 -0.4971  1.8526
 2246SOL    MW4 9059   1.582   1.287   3.684 -0.1137 -0.2548  0.3195
 2247SOL     OW 9060   1.509   1.539   3.729 -0.1767  0.7063  0.1664
 2247SOL    HW2 9061   1.490   1.549   3.822  0.7922 -1.4175  0.6062
 2247SOL    HW3 9062   1.599   1.570   3.719 -0.2310  0.8004 -0.0519
 2247SOL    MW4 9063   1.519   1.545   3.740 -0.0561  0.4387  0.1955
 2248SOL     OW 9064   1.312   1.702   3.647  0.2510 -0.4727  0.0039
 2248SOL    HW2 9065   1.332   1.784   3.690  1.7062 -0.5385 -0.5245
 2248SOL    HW3 9066   1.377   1.640   3.680  0.5296 -0.8627 -1.2410
 2248SOL    MW4 9067   1.323   1.704   3.657  0.4797 -0.5327 -0.2298
 2249SOL     OW 9068   1.338   1.942   3.777  0.1127  0.1443 -0.1205
 2249SOL    HW2 9069   1.313   1.931   3.869  1.2730  0.4938  0.2580
 2249SOL    HW3 9070   1.264   1.987   3.737 -0.7689 -0.7741  0.4409
 2249SOL    MW4 9071   1.325   1.946   3.784  0.1494  0.0691  0.0033
 2250SOL     OW 9072   1.590   2.024   3.706 -0.1228 -0.4154 -0.3596
 2250SOL    HW2 9073   1.499   2.012   3.732  0.4478 -1.8347  1.0693
 2250SOL    HW3 9074   1.587   2.027   3.610 -1.7198  0.0344 -0.3028
 2250SOL    MW4 9075   1.578   2.023   3.697 -0.2581 -0.5431 -0.1633
 2251SOL     OW 9076   1.579   2.303   3.755  0.4635 -0.2313  0.1438
 2251SOL    HW2 9077   1.659   2.347   3.727 -0.2688  0.2506 -1.2749
 2251SOL    HW3 9078   1.586   2.214   3.719  0.0729  0.0152 -0.5574
 2251SOL    MW4 9079   1.590   2.297   3.746  0.3153 -0.1352 -0.1359
 2252SOL     OW 9080   1.366   2.464   3.672 -0.2186  0.2355 -0.4297
 2252SOL    HW2 9081   1.440   2.409   3.699 -0.1802 -0.1880 -1.3725
 2252SOL    HW3 9082   1.290   2.423   3.713 -0.0488  0.1374 -0.2083
 2252SOL    MW4 9083   1.366   2.451   3.681 -0.1912  0.1669 -0.5250
 2253SOL     OW 9084   1.407   2.719   3.762  0.5310  0.1305  0.6640
 2253SOL    HW2 9085   1.407   2.718   3.858 -1.0140 -1.1305  0.6739
 2253SOL    HW3 9086   1.389   2.628   3.737 -0.2510  0.6658 -0.8026
 2253SOL    MW4 9087   1.404   2.707   3.771  0.2240  0.0346  0.4718
 2254SOL     OW 9088   1.615   2.848   3.651 -0.2666 -0.0713 -0.5243
 2254SOL    HW2 9089   1.542   2.800   3.689  0.2833 -0.2567  0.3203
 2254SOL    HW3 9090   1.608   2.833   3.557 -0.5051 -1.2411 -0.3275
 2254SOL    MW4 9091   1.605   2.839   3.644 -0.2257 -0.2501 -0.3867
 2255SOL     OW 9092   1.554   3.085   3.768  0.4072 -0.0930 -0.5515
 2255SOL    HW2 9093   1.565   3.065   3.861 -1.0700 -1.0120 -0.5638
 2255SOL    HW3 9094   1.560   3.000   3.724  1.2149  0.3513 -1.3234
 2255SOL    MW4 9095   1.556   3.071   3.775  0.3188 -0.1557 -0.6549
 2256SOL     OW 9096   1.353   3.249   3.668 -0.0548 -0.1727  0.4266
 2256SOL    HW2 9097   1.349   3.324   3.726 -1.1678 -0.2291  0.4178
 2256SOL    HW3 9098   1.429   3.199   3.699  0.7785  1.0189  0.3320
 2256SOL    MW4 9099   1.363   3.252   3.680 -0.0917 -0.0229  0.4129
 2257SOL     OW 9100   1.346   3.497   3.778  0.6105  0.2284  0.0152
 2257SOL    HW2 9101   1.413   3.548   3.732  0.7081  0.3507  0.2904
 2257SOL    HW3 9102   1.263   3.533   3.747  0.6422 -0.7750 -1.3010
 2257SOL    MW4 9103   1.344   3.508   3.768  0.6275  0.1118 -0.1221
 2258SOL     OW 9104   1.554   3.648   3.658  0.1611  0.4048  0.0034
 2258SOL    HW2 9105   1.633   3.598   3.676  0.1979  0.5011  0.1087
 2258SOL    HW3 9106   1.577   3.738   3.682 -0.0840  0.3793  0.3286
 2258SOL    MW4 9107   1.568   3.653   3.663  0.1336  0.4144  0.0603
 2259SOL     OW 9108   1.577   3.902   3.732 -0.2182 -0.1210  0.0466
 2259SOL    HW2 9109   1.594   3.938   3.819  1.1822 -0.3601 -0.1174
 2259SOL    HW3 9110   1.485   3.923   3.715  0.1747  2.1832  0.5297
 2259SOL    MW4 9111   1.567   3.910   3.742  0.0185  0.1516  0.0889
 2260SOL     OW 9112   1.309   3.998   3.693 -0.3195  0.0138  0.1524
 2260SOL    HW2 9113   1.323   4.086   3.729 -0.4187  0.1892 -0.2244
 2260SOL    HW3 9114   1.334   4.007   3.601 -1.8958  0.0695 -0.2772
 2260SOL    MW4 9115   1.314   4.011   3.686 -0.5405  0.0439  0.0458
 2261SOL     OW 9116   1.552   4.435   3.710 -0.1327  0.3117 -0.7644
 2261SOL    HW2 9117   1.629   4.390   3.744  1.4848  1.9541 -2.1519
 2261SOL    HW3 9118   1.557   4.424   3.615 -1.7691  0.1920 -0.8552
 2261SOL    MW4 9119   1.563   4.428   3.702 -0.1352  0.5131 -0.9592
 2262SOL     OW 9120   1.593   0.017   3.810 -0.3999  0.1015  0.0707
 2262SOL    HW2 9121   1.580   0.013   3.904 -0.1655  1.0692  0.1490
 2262SOL    HW3 9122   1.587  -0.074   3.781 -0.3374 -0.2143  1.0329
 2262SOL    MW4 9123   1.590   0.004   3.818 -0.3607  0.1874  0.2077
 2263SOL     OW 9124   2.010   0.019   3.802 -0.0558  0.2805  0.4048
 2263SOL    HW2 9125   2.088   0.054   3.759 -0.1410  0.3341  0.2917
 2263SOL    HW3 9126   1.998  -0.068   3.764 -0.1478  0.3394  0.2974
 2263SOL    MW4 9127   2.018   0.012   3.791 -0.0789  0.2953  0.3757
 2264SOL     OW 9128   1.796   0.118   3.651 -0.3010  0.6172  0.3726
 2264SOL    HW2 9129   1.874   0.084   3.694 -0.3800 -1.1183 -0.8116
 2264SOL    HW3 9130   1.723   0.091   3.708 -0.2905 -0.4954 -0.1292
 2264SOL    MW4 9131   1.796   0.110   3.664 -0.3099  0.2414  0.1502
 2265SOL     OW 9132   1.779   0.354   3.812  0.6127  0.1812  0.6880
 2265SOL    HW2 9133   1.802   0.324   3.900  0.8129 -0.1205  0.5346
 2265SOL    HW3 9134   1.756   0.274   3.764  0.9767  0.2876  0.3265
 2265SOL    MW4 9135   1.779   0.339   3.817  0.6871  0.1554  0.6201
 2266SOL     OW 9136   2.006   0.504   3.695  0.4661  0.5290  0.2219
 2266SOL    HW2 9137   1.947   0.437   3.729  0.5299 -0.0500 -0.7890
 2266SOL    HW3 9138   2.010   0.487   3.601  1.2108  1.3819  0.0911
 2266SOL    MW4 9139   1.999   0.493   3.687  0.5727  0.5651  0.0713
 2267SOL     OW 9140   2.022   0.767   3.779  0.3634  0.1123  0.1202
 2267SOL    HW2 9141   2.036   0.759   3.873  1.0305  0.1592  0.0331
 2267SOL    HW3 9142   2.003   0.678   3.750 -0.8852  0.2628  0.4513
 2267SOL    MW4 9143   2.022   0.754   3.788  0.2866  0.1383  0.1523
 2268SOL     OW 9144   1.802   0.938   3.717 -0.0806 -0.2129 -0.3118
 2268SOL    HW2 9145   1.879   0.883   3.730 -0.6407 -1.1869 -1.1048
 2268SOL    HW3 9146   1.786   0.935   3.623 -0.9728  0.1548 -0.1737
 2268SOL    MW4 9147   1.810   0.930   3.706 -0.2723 -0.2929 -0.3984
 2269SOL     OW 9148   1.809   1.197   3.812  0.3287  0.0597  0.2639
 2269SOL    HW2 9149   1.811   1.104   3.789 -0.2910 -0.0407  0.5936
 2269SOL    HW3 9150   1.835   1.199   3.904 -0.6243  0.1132  0.5339
 2269SOL    MW4 9151   1.813   1.185   3.821  0.1212  0.0535  0.3431
 2270SOL     OW 9152   2.057   1.316   3.693  0.3984  0.8728  0.1389
 2270SOL    HW2 9153   2.129   1.266   3.730 -0.3192  0.3149  0.7890
 2270SOL    HW3 9154   1.978   1.277   3.731 -0.2696  1.1775 -0.9200
 2270SOL    MW4 9155   2.056   1.304   3.703  0.2155  0.8394  0.0849
 2271SOL     OW 9156   2.033   1.570   3.783 -0.3676 -0.4404  0.0859
 2271SOL    HW2 9157   1.940   1.592   3.774 -0.6054 -1.6511 -0.5275
 2271SOL    HW3 9158   2.039   1.479   3.753  1.1645 -0.0795 -0.7434
 2271SOL    MW4 9159   2.022   1.561   3.778 -0.1967 -0.5525 -0.1047
 2272SOL     OW 9160   1.777   1.642   3.703 -0.4611 -0.2180 -0.0318
 2272SOL    HW2 9161   1.787   1.731   3.738 -0.7513 -0.7427  1.4261
 2272SOL    HW3 9162   1.804   1.649   3.612  0.2860  1.2099  0.2810
 2272SOL    MW4 9163   1.782   1.655   3.696 -0.4008 -0.0988  0.2019
 2273SOL     OW 9164   1.810   1.892   3.804  0.5006 -0.1442 -0.1615
 2273SOL    HW2 9165   1.815   1.887   3.900 -1.1203 -1.4335 -0.1279
 2273SOL    HW3 9166   1.730   1.941   3.786  0.6962 -0.0741 -0.8656
 2273SOL    MW4 9167   1.800   1.898   3.814  0.3127 -0.3051 -0.2499
 2274SOL     OW 9168   1.981   2.094   3.715  0.4215 -0.0140 -0.3382
 2274SOL    HW2 9169   1.911   2.031   3.732 -0.2821  0.7005 -0.5837
 2274SOL    HW3 9170   2.002   2.084   3.622 -0.2053  0.6317 -0.5528
 2274SOL    MW4 9171   1.975   2.084   3.705  0.2460  0.1652 -0.3989
 2275SOL     OW 9172   1.797   2.472   3.690  0.2282 -0.1837  0.2406
 2275SOL    HW2 9173   1.804   2.493   3.597  1.3004  1.4464  0.6752
 2275SOL    HW3 9174   1.799   2.557   3.735 -0.5023 -0.9341  1.7437
 2275SOL    MW4 9175   1.798   2.486   3.684  0.2732 -0.0675  0.4961
 2276SOL     OW 9176   2.021   2.346   3.793 -0.0870  0.0377  0.0523
 2276SOL    HW2 9177   2.022   2.252   3.776 -0.1639 -0.2658  1.6430
 2276SOL    HW3 9178   1.947   2.379   3.742 -0.6046 -0.9176  0.1724
 2276SOL    MW4 9179   2.011   2.338   3.784 -0.1652 -0.1285  0.2782
 2277SOL     OW 9180   1.829   2.745   3.771 -0.3302 -0.3582 -0.0736
 2277SOL    HW2 9181   1.812   2.739   3.864 -0.3492  0.4851 -0.0205
 2277SOL    HW3 9182   1.753   2.790   3.735 -0.3238 -0.6806 -0.4943
 2277SOL    MW4 9183   1.817   2.750   3.778 -0.3319 -0.2894 -0.1221
 2278SOL     OW 9184   2.083   2.842   3.711 -0.6135  0.8938 -0.0190
 2278SOL    HW2 9185   2.157   2.782   3.719  0.7026  2.5221  0.2760
 2278SOL    HW3 9186   2.008   2.792   3.743  0.6536 -0.2035  1.2795
 2278SOL    MW4 9187   2.083   2.828   3.716 -0.2728  0.9639  0.1912
 2279SOL     OW 9188   2.033   3.114   3.747  0.2926 -0.5077  0.2679
 2279SOL    HW2 9189   2.112   3.158   3.715 -0.0560 -0.6521 -0.7910
 2279SOL    HW3 9190   2.045   3.022   3.724 -1.2784 -0.1528 -2.1247
 2279SOL    MW4 9191   2.045   3.108   3.740  0.0391 -0.4799 -0.1874
 2280SOL     OW 9192   1.782   3.238   3.648  0.2744 -0.4982 -0.0130
 2280SOL    HW2 9193   1.865   3.191   3.663  0.8264  0.6757  0.7024
 2280SOL    HW3 9194   1.722   3.200   3.713  0.2768 -1.2608 -0.4441
 2280SOL    MW4 9195   1.785   3.226   3.658  0.3476 -0.4437  0.0246
 2281SOL     OW 9196   1.774   3.507   3.728  0.0404  0.5696 -0.0260
 2281SOL    HW2 9197   1.862   3.543   3.713  0.8630 -0.6651  1.7057
 2281SOL    HW3 9198   1.777   3.421   3.686 -0.1865  0.3168  0.4796
 2281SOL    MW4 9199   1.786   3.500   3.720  0.1189  0.3734  0.2689
 2282SOL     OW 9200   2.022   3.622   3.676  0.3943 -0.2133  0.0225
 2282SOL    HW2 9201   2.093   3.584   3.726  1.0058  0.2359 -0.4963
 2282SOL    HW3 9202   2.050   3.615   3.584  1.3794  3.1172 -0.0074
 2282SOL    MW4 9203   2.035   3.616   3.670  0.6051  0.2856 -0.0498
 2283SOL     OW 9204   1.970   3.880   3.779 -0.1830 -0.0780  0.1676
 2283SOL    HW2 9205   2.047   3.929   3.749 -0.3633 -0.0765 -0.2983
 2283SOL    HW3 9206   1.984   3.791   3.746 -0.7618  0.1079 -0.6185
 2283SOL    MW4 9207   1.982   3.875   3.770 -0.2830 -0.0532  0.0024
 2284SOL     OW 9208   1.796   4.047   3.626  0.7908  0.0885  0.2254
 2284SOL    HW2 9209   1.868   3.997   3.664  0.4372  0.6486  1.6940
 2284SOL    HW3 9210   1.718   3.995   3.647  0.1776  2.2254  3.6666
 2284SOL    MW4 9211   1.795   4.033   3.634  0.6634  0.4444  0.8736
 2285SOL     OW 9212   1.784   4.286   3.771  0.7304 -0.2453 -0.1720
 2285SOL    HW2 9213   1.862   4.332   3.741  1.7310 -1.1556  0.9487
 2285SOL    HW3 9214   1.784   4.204   3.721  1.3608 -0.9336  0.9496
 2285SOL    MW4 9215   1.794   4.281   3.760  0.9456 -0.4563  0.1237
 2286SOL     OW 9216   2.036   4.417   3.701 -0.3830 -0.0084 -0.2907
 2286SOL    HW2 9217   2.110   4.376   3.746 -1.1076 -1.6340 -0.5502
 2286SOL    HW3 9218   2.054   4.403   3.608  0.5744  2.4115 -0.5077
 2286SOL    MW4 9219   2.048   4.409   3.694 -0.3521  0.0958 -0.3536
 2287SOL     OW 9220   2.456   4.660   3.774 -0.3180 -0.4472 -0.5496
 2287SOL    HW2 9221   2.444   4.653   3.869  0.0129 -2.1840 -0.6185
 2287SOL    HW3 9222   2.536   4.711   3.763 -0.1526 -0.5626  0.1196
 2287SOL    MW4 9223   2.465   4.666   3.785 -0.2525 -0.6915 -0.4702
 2288SOL     OW 9224   2.236   0.127   3.681 -0.4268  0.0645  0.5004
 2288SOL    HW2 9225   2.314   0.080   3.709 -1.0913 -1.4427 -0.1371
 2288SOL    HW3 9226   2.241   0.127   3.586 -1.7764 -1.0378  0.4177
 2288SOL    MW4 9227   2.247   0.121   3.672 -0.6926 -0.2798  0.4053
 2289SOL     OW 9228   2.231   0.393   3.794 -0.0874  0.2429  0.2731
 2289SOL    HW2 9229   2.156   0.433   3.749  0.4048  1.0231  0.1293
 2289SOL    HW3 9230   2.234   0.303   3.761 -0.8724  0.2512  0.1708
 2289SOL    MW4 9231   2.221   0.386   3.784 -0.1261  0.3469  0.2406
 2290SOL     OW 9232   2.474   0.515   3.686 -0.0523 -0.6591 -0.1673
 2290SOL    HW2 9233   2.389   0.478   3.710 -0.0444 -0.2714  0.4786
 2290SOL    HW3 9234   2.473   0.518   3.591 -0.0832 -2.2447 -0.2356
 2290SOL    MW4 9235   2.463   0.511   3.677 -0.0553 -0.8172 -0.0908
 2291SOL     OW 9236   2.487   0.767   3.787 -0.3070 -0.1353  0.2538
 2291SOL    HW2 9237   2.408   0.815   3.760 -0.8637 -1.9534 -1.3905
 2291SOL    HW3 9238   2.483   0.684   3.739  2.2244 -0.5688  0.7281
 2291SOL    MW4 9239   2.476   0.763   3.777 -0.0465 -0.4323  0.0997
 2292SOL     OW 9240   2.252   0.848   3.669  0.1378  0.1341 -0.0706
 2292SOL    HW2 9241   2.166   0.826   3.707 -0.0226  1.3606  0.2964
 2292SOL    HW3 9242   2.234   0.857   3.575  0.1274 -0.8859 -0.1731
 2292SOL    MW4 9243   2.238   0.846   3.662  0.1152  0.1613 -0.0358
 2293SOL     OW 9244   2.255   1.116   3.766  0.6155 -0.0343 -0.1582
 2293SOL    HW2 9245   2.269   1.101   3.859  1.7472 -0.1916 -0.3448
 2293SOL    HW3 9246   2.229   1.031   3.731  1.3580 -0.2500 -0.1929
 2293SOL    MW4 9247   2.253   1.103   3.773  0.8626 -0.0836 -0.1876
 2294SOL     OW 9248   2.456   1.251   3.635  0.1812 -0.1044 -0.4163
 2294SOL    HW2 9249   2.466   1.329   3.689  2.2029 -1.1163  0.7217
 2294SOL    HW3 9250   2.391   1.198   3.680 -0.5839  0.5194 -0.7600
 2294SOL    MW4 9251   2.449   1.254   3.648  0.3467 -0.1556 -0.3116
 2295SOL     OW 9252   2.494   1.506   3.750 -0.5179  0.3585  0.4454
 2295SOL    HW2 9253   2.565   1.550   3.704  0.0853 -0.7636  0.2902
 2295SOL    HW3 9254   2.415   1.556   3.727 -0.1544  0.0987 -1.4161
 2295SOL    MW4 9255   2.493   1.519   3.741 -0.3903  0.1762  0.1791
 2296SOL     OW 9256   2.274   1.680   3.726  0.0285  0.1029  0.0454
 2296SOL    HW2 9257   2.266   1.764   3.771 -0.1040 -0.0484  0.3081
 2296SOL    HW3 9258   2.190   1.637   3.741 -0.2539  0.3225 -0.9055
 2296SOL    MW4 9259   2.262   1.685   3.734 -0.0262  0.1118 -0.0453
 2297SOL     OW 9260   2.248   1.955   3.825  0.1184 -0.0424  0.3886
 2297SOL    HW2 9261   2.274   2.001   3.905 -2.2389  1.2220  0.4834
 2297SOL    HW3 9262   2.160   1.989   3.806  0.0053 -1.5152 -1.8462
 2297SOL    MW4 9263   2.240   1.965   3.833 -0.2074 -0.0699  0.1061
 2298SOL     OW 9264   2.433   2.062   3.659 -0.4904  0.3019 -0.7260
 2298SOL    HW2 9265   2.466   2.134   3.713  1.6119 -1.0827 -0.1159
 2298SOL    HW3 9266   2.368   2.019   3.713 -0.4080  0.6135 -0.3800
 2298SOL    MW4 9267   2.429   2.066   3.673 -0.2019  0.1605 -0.5999
 2299SOL     OW 9268   2.476   2.316   3.794 -0.2224  0.4061 -0.2972
 2299SOL    HW2 9269   2.471   2.337   3.887  2.0012 -0.6441  0.1188
 2299SOL    HW3 9270   2.560   2.353   3.765 -0.4269 -0.1195 -1.6288
 2299SOL    MW4 9271   2.487   2.323   3.802  0.0439  0.1984 -0.4179
 2300SOL     OW 9272   2.260   2.421   3.661  0.1020  0.0383 -0.2278
 2300SOL    HW2 9273   2.335   2.383   3.707 -0.5178  1.5358  2.1296
 2300SOL    HW3 9274   2.184   2.394   3.712 -0.8049  0.1095 -1.5179
 2300SOL    MW4 9275   2.260   2.413   3.674 -0.0997  0.2456 -0.0870
 2301SOL     OW 9276   2.321   2.672   3.738 -0.1675  0.1019  0.2193
 2301SOL    HW2 9277   2.326   2.675   3.833 -1.2202  0.9355  0.2577
 2301SOL    HW3 9278   2.299   2.581   3.718  1.4683 -0.4202  0.6813
 2301SOL    MW4 9279   2.319   2.660   3.748 -0.0906  0.1428  0.2854
 2302SOL     OW 9280   2.518   2.842   3.676  0.1849 -0.0062 -0.0350
 2302SOL    HW2 9281   2.444   2.785   3.695 -0.3133  0.9988  1.1538
 2302SOL    HW3 9282   2.522   2.846   3.580 -1.8393  0.5760 -0.1178
 2302SOL    MW4 9283   2.509   2.835   3.666 -0.1478  0.2036  0.1106
 2303SOL     OW 9284   2.497   3.121   3.729 -0.1127 -0.5441 -0.2280
 2303SOL    HW2 9285   2.491   3.116   3.824  2.3050 -0.6855 -0.0719
 2303SOL    HW3 9286   2.510   3.031   3.700  0.8212 -0.3003 -0.5718
 2303SOL    MW4 9287   2.498   3.108   3.738  0.3295 -0.5307 -0.2527
 2304SOL     OW 9288   2.264   3.261   3.642  0.3615  0.3175  0.1903
 2304SOL    HW2 9289   2.263   3.345   3.689  1.3959  0.6838 -0.4333
 2304SOL    HW3 9290   2.344   3.218   3.671 -0.1176 -0.4166  0.4315
 2304SOL    MW4 9291   2.274   3.267   3.652  0.4349  0.2689  0.1397
 2305SOL     OW 9292   2.255   3.511   3.785 -0.1492 -0.6520 -0.0671
 2305SOL    HW2 9293   2.262   3.524   3.879  0.1850 -0.9529 -0.0455
 2305SOL    HW3 9294   2.342   3.533   3.751  0.1662 -1.9541 -0.1253
 2305SOL    MW4 9295   2.267   3.515   3.793 -0.0634 -0.8636 -0.0718
 2306SOL     OW 9296   2.497   3.610   3.692 -0.2502  0.6504  0.2512
 2306SOL    HW2 9297   2.584   3.586   3.724  0.0848  1.8836  0.3165
 2306SOL    HW3 9298   2.510   3.626   3.598 -0.5972 -0.0617  0.0850
 2306SOL    MW4 9299   2.510   3.609   3.683 -0.2518  0.7191  0.2379
 2307SOL     OW 9300   2.461   3.871   3.788  0.3354 -0.2780 -0.0174
 2307SOL    HW2 9301   2.528   3.925   3.745 -0.5341 -0.3225 -1.4638
 2307SOL    HW3 9302   2.477   3.783   3.754  1.7290 -0.9589  2.3038
 2307SOL    MW4 9303   2.472   3.867   3.778  0.4046 -0.3738  0.0980
 2308SOL     OW 9304   2.228   4.019   3.705 -0.0430  0.4796 -0.7774
 2308SOL    HW2 9305   2.299   3.960   3.730 -1.4887 -0.6323  0.8060
 2308SOL    HW3 9306   2.220   4.008   3.610  0.7996 -0.6306 -0.7303
 2308SOL    MW4 9307   2.236   4.010   3.696 -0.1228  0.1864 -0.5620
 2309SOL     OW 9308   2.234   4.281   3.839  0.5172  0.0038 -0.3427
 2309SOL    HW2 9309   2.216   4.259   3.930  0.0508  0.5983 -0.2898
 2309SOL    HW3 9310   2.222   4.199   3.791  0.5389 -0.2568  0.0943
 2309SOL    MW4 9311   2.230   4.268   3.844  0.4587  0.0482 -0.2782
 2310SOL     OW 9312   2.440   4.404   3.686  0.5022 -0.2230  0.0102
 2310SOL    HW2 9313   2.380   4.366   3.751  1.5747  0.2694  1.3089
 2310SOL    HW3 9314   2.454   4.494   3.716  1.3390 -0.1180 -0.6762
 2310SOL    MW4 9315   2.434   4.411   3.699  0.7539 -0.1445  0.0908
 2311SOL     OW 9316   2.936   4.658   3.848 -0.2102  0.3757  0.4650
 2311SOL    HW2 9317   2.966   4.663   3.938  0.3596  0.7460  0.2557
 2311SOL    HW3 9318   2.990   4.722   3.801 -1.0321  0.7441  0.0084
 2311SOL    MW4 9319   2.947   4.667   3.853 -0.2432  0.4725  0.3774
 2312SOL     OW 9320   2.715   0.120   3.764  0.0789 -0.0582  0.0334
 2312SOL    HW2 9321   2.792   0.073   3.796  0.2339  1.1372  1.5095
 2312SOL    HW3 9322   2.724   0.120   3.669  2.9288  1.7200  0.2493
 2312SOL    MW4 9323   2.726   0.114   3.756  0.4752  0.3342  0.2565
 2313SOL     OW 9324   2.690   0.386   3.810 -0.2398 -0.0344 -0.1355
 2313SOL    HW2 9325   2.692   0.290   3.805 -0.2441 -0.0771  0.6251
 2313SOL    HW3 9326   2.606   0.410   3.770  0.7095 -0.2108 -2.2943
 2313SOL    MW4 9327   2.679   0.376   3.804 -0.1149 -0.0633 -0.3200
 2314SOL     OW 9328   2.931   0.500   3.700 -0.0364  0.3959  0.0925
 2314SOL    HW2 9329   3.006   0.458   3.741  0.6374  0.8693 -0.6171
 2314SOL    HW3 9330   2.855   0.453   3.733  0.5744 -0.0762  0.8397
 2314SOL    MW4 9331   2.931   0.489   3.710  0.1330  0.3960  0.0973
 2315SOL     OW 9332   2.925   0.771   3.759 -0.0835  0.2827  0.2336
 2315SOL    HW2 9333   3.006   0.800   3.718  0.8264 -0.7660  1.2772
 2315SOL    HW3 9334   2.923   0.676   3.744  0.0932 -0.0701  2.3171
 2315SOL    MW4 9335   2.935   0.762   3.751  0.0598  0.0978  0.6464
 2316SOL     OW 9336   2.697   0.895   3.644  0.7020  0.4530 -0.1383
 2316SOL    HW2 9337   2.767   0.848   3.688 -0.0095  0.6961  1.2903
 2316SOL    HW3 9338   2.617   0.862   3.685  0.0691  1.2410 -0.7193
 2316SOL    MW4 9339   2.695   0.884   3.655  0.5245  0.5891 -0.0267
 2317SOL     OW 9340   2.696   1.140   3.748  0.1195 -0.2783  0.6617
 2317SOL    HW2 9341   2.699   1.048   3.720  1.5173 -0.0748  0.1247
 2317SOL    HW3 9342   2.611   1.171   3.717  0.8347 -0.5879 -1.7389
 2317SOL    MW4 9343   2.685   1.132   3.740  0.3982 -0.2923  0.2742
 2318SOL     OW 9344   2.934   1.250   3.658  0.1913  0.3795 -0.1959
 2318SOL    HW2 9345   2.919   1.340   3.686  1.7225  0.3044  0.9902
 2318SOL    HW3 9346   2.855   1.203   3.684  0.0106  1.0914  0.5696
 2318SOL    MW4 9347   2.922   1.255   3.665  0.3698  0.4635  0.0613
 2319SOL     OW 9348   2.895   1.530   3.749  0.2774 -0.0225  0.7385
 2319SOL    HW2 9349   2.870   1.530   3.841  0.6751 -1.5581  0.8583
 2319SOL    HW3 9350   2.988   1.554   3.750  0.8480 -2.1394  0.9262
 2319SOL    MW4 9351   2.904   1.533   3.761  0.4048 -0.5044  0.7789
 2320SOL     OW 9352   2.672   1.669   3.642 -0.5424 -0.6193  0.0169
 2320SOL    HW2 9353   2.753   1.624   3.665  0.2098  1.3158  1.2780
 2320SOL    HW3 9354   2.671   1.671   3.546  0.6700 -1.0578 -0.0063
 2320SOL    MW4 9355   2.682   1.664   3.632 -0.2832 -0.4219  0.1800
 2321SOL     OW 9356   2.635   1.898   3.785  0.3817  0.0551 -0.3579
 2321SOL    HW2 9357   2.642   1.806   3.759 -0.9129  0.3384 -1.7331
 2321SOL    HW3 9358   2.570   1.936   3.726 -0.7440  1.3369  1.6068
 2321SOL    MW4 9359   2.627   1.891   3.774  0.0620  0.2617 -0.2804
 2322SOL     OW 9360   2.885   2.024   3.733 -0.0405  0.4474  0.0217
 2322SOL    HW2 9361   2.959   1.980   3.774 -0.6413  0.4629  1.1384
 2322SOL    HW3 9362   2.810   1.968   3.752 -0.2541  0.1881 -1.5063
 2322SOL    MW4 9363   2.885   2.011   3.741 -0.1481  0.4156 -0.0327
 2323SOL     OW 9364   2.843   2.289   3.781  0.0770 -0.2414 -0.4579
 2323SOL    HW2 9365   2.853   2.270   3.875  2.2361 -0.1315 -0.6365
 2323SOL    HW3 9366   2.857   2.204   3.739  1.1367  0.0987 -0.7892
 2323SOL    MW4 9367   2.846   2.275   3.788  0.5016 -0.1819 -0.5252
 2324SOL     OW 9368   2.684   2.470   3.673 -0.0614  0.0842  0.6241
 2324SOL    HW2 9369   2.690   2.548   3.729 -0.8969 -0.6562  1.7803
 2324SOL    HW3 9370   2.747   2.409   3.710  1.0155  0.4182 -0.6424
 2324SOL    MW4 9371   2.693   2.472   3.686 -0.0298  0.0305  0.6096
 2325SOL     OW 9372   2.743   2.694   3.804 -0.2061 -0.2045 -0.2621
 2325SOL    HW2 9373   2.743   2.693   3.900  2.3047 -0.5846 -0.2223
 2325SOL    HW3 9374   2.677   2.758   3.780  0.6480  1.4907  1.7773
 2325SOL    MW4 9375   2.735   2.702   3.814  0.2382 -0.0310  0.0119
 2326SOL     OW 9376   2.869   2.904   3.649  0.1407 -0.3706  0.3037
 2326SOL    HW2 9377   2.832   2.829   3.695 -1.3787 -0.7232 -1.4288
 2326SOL    HW3 9378   2.872   2.974   3.714 -1.3887 -1.0273  1.0918
 2326SOL    MW4 9379   2.865   2.903   3.663 -0.2615 -0.5035  0.1791
 2327SOL     OW 9380   2.891   3.147   3.792  0.1719 -0.1359 -0.3589
 2327SOL    HW2 9381   2.830   3.195   3.736 -0.3854 -1.1966 -0.6737
 2327SOL    HW3 9382   2.977   3.161   3.751  0.0966  1.0753 -0.1090
 2327SOL    MW4 9383   2.895   3.155   3.779  0.0882 -0.1159 -0.3674
 2328SOL     OW 9384   2.705   3.273   3.625  0.5163 -0.4272 -0.2875
 2328SOL    HW2 9385   2.711   3.351   3.680  0.2244  0.2572 -1.2028
 2328SOL    HW3 9386   2.629   3.225   3.658  1.3887 -0.9234  1.0265
 2328SOL    MW4 9387   2.696   3.277   3.637  0.5925 -0.4022 -0.2348
 2329SOL     OW 9388   2.742   3.493   3.788 -0.1468 -0.1402 -0.2906
 2329SOL    HW2 9389   2.747   3.443   3.870  0.3925 -0.7588 -0.6971
 2329SOL    HW3 9390   2.833   3.514   3.767 -0.2757 -0.0832 -0.7931
 2329SOL    MW4 9391   2.754   3.489   3.796 -0.0927 -0.2143 -0.4103
 2330SOL     OW 9392   2.981   3.603   3.724 -0.1838  0.1401 -0.3636
 2330SOL    HW2 9393   3.065   3.557   3.726  0.1807  0.8187  0.5574
 2330SOL    HW3 9394   2.960   3.611   3.631  1.1169  0.5750 -0.6254
 2330SOL    MW4 9395   2.990   3.598   3.712  0.0358  0.2868 -0.2766
 2331SOL     OW 9396   2.887   3.878   3.816 -0.3948 -0.1042  0.3767
 2331SOL    HW2 9397   2.864   3.900   3.906 -1.2681 -1.0196  0.3822
 2331SOL    HW3 9398   2.905   3.784   3.818 -0.1636 -0.0768 -0.3481
 2331SOL    MW4 9399   2.886   3.868   3.828 -0.4797 -0.2215  0.2818
 2332SOL     OW 9400   2.669   4.029   3.698  0.2040  0.3783 -0.5756
 2332SOL    HW2 9401   2.666   4.118   3.732 -1.1847  0.0726  0.1155
 2332SOL    HW3 9402   2.747   3.990   3.738 -0.3131  0.6540  0.6962
 2332SOL    MW4 9403   2.679   4.035   3.707 -0.0474  0.3743 -0.3166
 2333SOL     OW 9404   2.657   4.286   3.825  0.0882 -0.0573 -0.1282
 2333SOL    HW2 9405   2.736   4.331   3.796  0.6095 -0.9950 -0.1805
 2333SOL    HW3 9406   2.585   4.334   3.784  0.6554  0.4513 -0.5335
 2333SOL    MW4 9407   2.658   4.299   3.816  0.2317 -0.1140 -0.1886
 2334SOL     OW 9408   2.903   4.402   3.732 -0.4616  0.6824 -0.1531
 2334SOL    HW2 9409   2.974   4.347   3.765 -1.7600 -1.5759 -1.0288
 2334SOL    HW3 9410   2.921   4.489   3.768  1.5489 -0.3349  1.3757
 2334SOL    MW4 9411   2.915   4.407   3.741 -0.3674  0.2503 -0.0670
 2335SOL     OW 9412   3.374   0.006   3.800 -0.2482 -0.1336  0.0798
 2335SOL    HW2 9413   3.401  -0.015   3.890  0.7456  0.1020 -0.1512
 2335SOL    HW3 9414   3.452   0.047   3.762 -1.4270  1.9534 -0.1380
 2335SOL    MW4 9415   3.388   0.009   3.807 -0.2728  0.1728  0.0207
 2336SOL     OW 9416   3.140   0.115   3.686 -0.0798 -0.5907 -0.2801
 2336SOL    HW2 9417   3.211   0.067   3.729  1.3852  1.1367 -0.6955
 2336SOL    HW3 9418   3.147   0.091   3.594  0.6553  0.3905 -0.4883
 2336SOL    MW4 9419   3.151   0.106   3.680  0.2105 -0.2333 -0.3622
 2337SOL     OW 9420   3.150   0.363   3.815 -0.2915 -0.1410  0.1297
 2337SOL    HW2 9421   3.155   0.345   3.908 -0.4073  1.0320  0.3740
 2337SOL    HW3 9422   3.158   0.277   3.773  0.4357 -0.6028  1.1904
 2337SOL    MW4 9423   3.152   0.349   3.821 -0.2108 -0.0472  0.3016
 2338SOL     OW 9424   3.378   0.491   3.667  0.3022  0.3376 -0.4986
 2338SOL    HW2 9425   3.455   0.464   3.718 -0.2462 -0.0187  0.1467
 2338SOL    HW3 9426   3.304   0.453   3.714 -0.4730  2.6904  0.2503
 2338SOL    MW4 9427   3.379   0.482   3.680  0.1276  0.6010 -0.3145
 2339SOL     OW 9428   3.418   0.754   3.739  0.5024 -0.1441 -0.4462
 2339SOL    HW2 9429   3.402   0.765   3.833  1.6026 -2.6095  0.0763
 2339SOL    HW3 9430   3.396   0.662   3.722 -1.4998  0.7571 -3.0152
 2339SOL    MW4 9431   3.413   0.743   3.750  0.3834 -0.3505 -0.7162
 2340SOL     OW 9432   3.168   0.860   3.682 -0.4388 -0.5479 -0.1076
 2340SOL    HW2 9433   3.246   0.807   3.698 -0.3146 -0.2620  0.2386
 2340SOL    HW3 9434   3.166   0.871   3.587 -0.1712 -0.7266 -0.1353
 2340SOL    MW4 9435   3.178   0.854   3.671 -0.3872 -0.5338 -0.0656
 2341SOL     OW 9436   3.154   1.114   3.773  0.0007 -0.3015  0.0736
 2341SOL    HW2 9437   3.149   1.022   3.745 -0.7339  0.5255 -2.7082
 2341SOL    HW3 9438   3.076   1.154   3.736  0.0613  1.3593  1.6919
 2341SOL    MW4 9439   3.143   1.107   3.764 -0.0882  0.0267 -0.0796
 2342SOL     OW 9440   3.363   1.270   3.702  0.4015 -0.4059 -0.3865
 2342SOL    HW2 9441   3.295   1.204   3.714 -0.2719  0.1492 -1.1274
 2342SOL    HW3 9442   3.386   1.264   3.609  0.7215  0.0401 -0.3400
 2342SOL    MW4 9443   3.357   1.261   3.691  0.3548 -0.2737 -0.4783
 2343SOL     OW 9444   3.373   1.509   3.850  0.0607 -0.1438  0.3777
 2343SOL    HW2 9445   3.310   1.566   3.807  2.2936  1.3333 -1.0408
 2343SOL    HW3 9446   3.358   1.423   3.811  0.6028  0.7315 -1.8186
 2343SOL    MW4 9447   3.363   1.505   3.840  0.4268  0.1667 -0.0994
 2344SOL     OW 9448   3.173   1.639   3.718  0.5294  0.4435  0.1540
 2344SOL    HW2 9449   3.140   1.718   3.762  2.0537  0.8357  0.6154
 2344SOL    HW3 9450   3.170   1.661   3.625 -0.5120  0.4717  0.1906
 2344SOL    MW4 9451   3.168   1.653   3.712  0.5932  0.4990  0.2196
 2345SOL     OW 9452   3.065   1.834   3.858  0.4803  0.1070  0.3623
 2345SOL    HW2 9453   3.135   1.872   3.911 -0.3207  1.3285  0.5506
 2345SOL    HW3 9454   2.993   1.821   3.919  0.0656  0.1483 -0.1140
 2345SOL    MW4 9455   3.064   1.837   3.873  0.3200  0.2736  0.3240
 2346SOL     OW 9456   3.466   2.093   3.634  0.0438 -0.2359  0.2484
 2346SOL    HW2 9457   3.416   2.058   3.560  2.4065 -1.2411 -0.9365
 2346SOL    HW3 9458   3.423   2.176   3.655 -1.6102 -0.6830 -1.2490
 2346SOL    MW4 9459   3.454   2.100   3.627  0.1376 -0.4275 -0.1054
 2347SOL     OW 9460   3.235   2.190   3.944  0.0640 -0.1413  0.5319
 2347SOL    HW2 9461   3.210   2.263   4.000  0.0650 -0.2417  0.6623
 2347SOL    HW3 9462   3.267   2.231   3.864 -1.0541 -0.0128  0.1354
 2347SOL    MW4 9463   3.236   2.205   3.941 -0.0837 -0.1378  0.4971
 2348SOL     OW 9464   3.064   2.446   3.655  0.2679 -0.6755 -0.0145
 2348SOL    HW2 9465   2.994   2.399   3.700  0.9296 -0.5834  1.1354
 2348SOL    HW3 9466   3.074   2.527   3.705 -0.0632  0.1644 -1.2821
 2348SOL    MW4 9467   3.056   2.451   3.668  0.3116 -0.5527 -0.0296
 2349SOL     OW 9468   3.376   3.062   3.780 -0.4787 -0.5870 -0.5443
 2349SOL    HW2 9469   3.375   3.055   3.875 -0.4780  1.1242 -0.4059
 2349SOL    HW3 9470   3.379   2.972   3.749  0.7200 -1.1224  1.0908
 2349SOL    MW4 9471   3.376   3.049   3.789 -0.3204 -0.4320 -0.3104
 2350SOL     OW 9472   2.975   2.809   4.001 -0.3136  0.1014 -0.1185
 2350SOL    HW2 9473   3.048   2.788   4.059  0.2471  0.9668 -0.4923
 2350SOL    HW3 9474   2.903   2.753   4.031 -0.0891  0.6560  1.5206
 2350SOL    MW4 9475   2.975   2.799   4.013 -0.2098  0.2887  0.0482
 2351SOL     OW 9476   3.361   2.790   3.666  0.1759 -0.7160 -0.0664
 2351SOL    HW2 9477   3.280   2.754   3.702  0.0881 -0.6764 -0.2248
 2351SOL    HW3 9478   3.420   2.715   3.660  0.2166 -0.7091  0.2318
 2351SOL    MW4 9479   3.358   2.775   3.670  0.1698 -0.7098 -0.0479
 2352SOL     OW 9480   3.149   3.181   3.686  0.5949  0.7900  0.2154
 2352SOL    HW2 9481   3.233   3.138   3.698  1.5042  2.4475 -0.0382
 2352SOL    HW3 9482   3.146   3.202   3.593  0.3699  1.6605  0.4119
 2352SOL    MW4 9483   3.160   3.178   3.675  0.6855  1.1237  0.2079
 2353SOL     OW 9484   3.188   3.436   3.763  0.0296 -0.5053 -0.5504
 2353SOL    HW2 9485   3.260   3.473   3.712  0.4998 -0.3453  0.2343
 2353SOL    HW3 9486   3.193   3.342   3.746  1.7397 -0.7520  1.1629
 2353SOL    MW4 9487   3.198   3.428   3.754  0.3171 -0.5169 -0.2205
 2354SOL     OW 9488   3.393   3.591   3.637  0.0528 -0.2706  0.1900
 2354SOL    HW2 9489   3.388   3.676   3.680 -0.6662  0.5343 -1.4177
 2354SOL    HW3 9490   3.370   3.609   3.546  2.9295 -1.6606 -0.8856
 2354SOL    MW4 9491   3.389   3.604   3.630  0.3374 -0.3474 -0.1640
 2355SOL     OW 9492   3.345   3.846   3.778  0.3866 -0.2238  0.6167
 2355SOL    HW2 9493   3.416   3.892   3.733  0.1564 -1.8565 -1.5560
 2355SOL    HW3 9494   3.266   3.896   3.756  0.3973 -0.5076 -0.1016
 2355SOL    MW4 9495   3.344   3.858   3.769  0.3579 -0.4768  0.2353
 2356SOL     OW 9496   3.125   3.992   3.691 -0.0397  0.1559 -0.5302
 2356SOL    HW2 9497   3.131   4.080   3.728 -0.4335 -0.7535  1.8186
 2356SOL    HW3 9498   3.045   3.955   3.730 -0.2928 -0.9845 -2.0698
 2356SOL    MW4 9499   3.115   3.999   3.701 -0.1252 -0.1142 -0.4234
 2357SOL     OW 9500   3.130   4.253   3.785  0.1976 -0.3839  0.6428
 2357SOL    HW2 9501   3.161   4.277   3.872  0.5597  0.2420  0.3515
 2357SOL    HW3 9502   3.166   4.321   3.728 -0.6362 -0.3834  0.1093
 2357SOL    MW4 9503   3.139   4.265   3.789  0.1352 -0.3014  0.5343
 2358SOL     OW 9504   3.354   4.417   3.669  0.9640 -0.2390  0.3511
 2358SOL    HW2 9505   3.438   4.376   3.690  0.8253 -0.1177  1.1991
 2358SOL    HW3 9506   3.360   4.504   3.709  0.9524  0.2621 -0.7482
 2358SOL    MW4 9507   3.366   4.423   3.677  0.9441 -0.1564  0.3178
 2359SOL     OW 9508   3.832   0.003   3.757 -0.7697  0.5773  0.3412
 2359SOL    HW2 9509   3.909   0.040   3.714  0.1243  0.8201  2.1214
 2359SOL    HW3 9510   3.830  -0.089   3.730  0.1415  0.5758  0.2863
 2359SOL    MW4 9511   3.842  -0.004   3.748 -0.5317  0.6092  0.5689
 2360SOL     OW 9512   3.585   0.132   3.688  0.4536 -0.0629  0.0106
 2360SOL    HW2 9513   3.666   0.084   3.708 -0.2226 -1.1518  0.1448
 2360SOL    HW3 9514   3.581   0.133   3.592 -0.2813 -1.5321  0.0285
 2360SOL    MW4 9515   3.595   0.126   3.678  0.2675 -0.4004  0.0308
 2361SOL     OW 9516   3.598   0.384   3.805 -0.2923 -0.4481  0.5028
 2361SOL    HW2 9517   3.683   0.423   3.784 -0.7356  1.3716  1.9124
 2361SOL    HW3 9518   3.601   0.297   3.766  1.9230 -0.1282 -0.1203
 2361SOL    MW4 9519   3.609   0.378   3.797 -0.0584 -0.1658  0.6068
 2362SOL     OW 9520   3.836   0.518   3.695 -0.0068  0.0571  0.1715
 2362SOL    HW2 9521   3.911   0.481   3.742 -0.2601  0.2647  0.7382
 2362SOL    HW3 9522   3.834   0.609   3.722  0.5125  0.4650 -1.0923
 2362SOL    MW4 9523   3.846   0.525   3.704  0.0284  0.1382  0.0792
 2363SOL     OW 9524   3.867   0.795   3.786 -0.6100 -0.3119  0.2157
 2363SOL    HW2 9525   3.800   0.861   3.766  0.1555 -0.5082 -3.3278
 2363SOL    HW3 9526   3.948   0.834   3.755  0.6123 -0.9901  2.4685
 2363SOL    MW4 9527   3.869   0.809   3.779 -0.3479 -0.4272  0.0455
 2364SOL     OW 9528   3.639   0.912   3.662  0.5087  0.2944  0.5933
 2364SOL    HW2 9529   3.611   0.991   3.707 -0.7330  0.8824 -1.1522
 2364SOL    HW3 9530   3.573   0.847   3.686  1.6650 -0.3189  2.2279
 2364SOL    MW4 9531   3.626   0.914   3.671  0.4976  0.2910  0.5784
 2365SOL     OW 9532   3.589   1.144   3.787 -0.1063  0.4819 -0.1850
 2365SOL    HW2 9533   3.656   1.202   3.751  0.2053  2.0447  2.8254
 2365SOL    HW3 9534   3.506   1.184   3.761  0.0840  0.2589 -1.1858
 2365SOL    MW4 9535   3.587   1.157   3.779 -0.0403  0.6588  0.0801
 2366SOL     OW 9536   3.797   1.306   3.655 -0.3710  1.0512  0.1645
 2366SOL    HW2 9537   3.874   1.256   3.684 -2.3464 -1.1412  1.8494
 2366SOL    HW3 9538   3.799   1.385   3.709  0.5879  0.9211  0.3323
 2366SOL    MW4 9539   3.808   1.310   3.666 -0.5050  0.7446  0.4089
 2367SOL     OW 9540   3.805   1.535   3.812  0.4851 -0.3817 -0.1951
 2367SOL    HW2 9541   3.807   1.570   3.901  0.1217  0.9208 -0.6985
 2367SOL    HW3 9542   3.729   1.575   3.771  2.0226  0.9618 -1.8652
 2367SOL    MW4 9543   3.796   1.545   3.818  0.6399 -0.0327 -0.4816
 2368SOL     OW 9544   3.588   1.650   3.693  0.1266  0.1739  0.3370
 2368SOL    HW2 9545   3.524   1.596   3.740  0.9584  0.4690  1.8620
 2368SOL    HW3 9546   3.576   1.627   3.601 -0.9525 -1.0804  0.7697
 2368SOL    MW4 9547   3.578   1.639   3.687  0.0942  0.0472  0.5951
 2369SOL     OW 9548   3.547   1.547   4.056 -0.2570  0.6096  0.5457
 2369SOL    HW2 9549   3.517   1.630   4.093 -0.5830  0.8541 -0.2584
 2369SOL    HW3 9550   3.492   1.533   3.980 -0.7363 -0.7495  1.1163
 2369SOL    MW4 9551   3.536   1.556   4.051 -0.3631  0.4624  0.5150
 2370SOL     OW 9552   3.754   2.155   3.638  0.0297 -0.1567  0.2086
 2370SOL    HW2 9553   3.779   2.105   3.716  0.1191  0.4000  0.5448
 2370SOL    HW3 9554   3.659   2.163   3.644 -0.1523 -1.6080 -0.6598
 2370SOL    MW4 9555   3.745   2.149   3.649  0.0176 -0.2749  0.1380
 2371SOL     OW 9556   3.896   2.197   4.066 -0.3199  0.2368  0.0834
 2371SOL    HW2 9557   3.909   2.148   4.148 -1.1595 -1.4502 -0.7463
 2371SOL    HW3 9558   3.847   2.136   4.010  0.7385  1.1493 -1.8856
 2371SOL    MW4 9559   3.891   2.182   4.069 -0.2909  0.1347 -0.2856
 2372SOL     OW 9560   3.330   2.317   3.716 -0.1780  0.2085 -0.0848
 2372SOL    HW2 9561   3.405   2.377   3.715 -0.7572  0.9292 -1.6273
 2372SOL    HW3 9562   3.253   2.374   3.711 -0.8278 -0.5447  1.2201
 2372SOL    MW4 9563   3.330   2.333   3.715 -0.3400  0.2041 -0.1159
 2373SOL     OW 9564   3.164   2.665   3.831 -0.0550  0.4624  0.7439
 2373SOL    HW2 9565   3.232   2.644   3.894  0.9734  2.4483  0.3254
 2373SOL    HW3 9566   3.101   2.718   3.879 -0.0551  0.6831  0.5038
 2373SOL    MW4 9567   3.165   2.669   3.845  0.0808  0.7536  0.6571
 2374SOL     OW 9568   3.943   2.843   3.625  0.3306  0.1157  0.4413
 2374SOL    HW2 9569   3.898   2.907   3.681  0.7563  0.5311  0.3146
 2374SOL    HW3 9570   4.036   2.859   3.640  0.4408 -0.4034  0.3217
 2374SOL    MW4 9571   3.949   2.854   3.634  0.4010  0.1018  0.4089
 2375SOL     OW 9572   3.816   3.052   3.763  0.4206 -0.2519 -0.3430
 2375SOL    HW2 9573   3.751   3.109   3.721 -0.0056 -0.1947  0.3964
 2375SOL    HW3 9574   3.794   3.055   3.856  1.3059 -0.4650 -0.1285
 2375SOL    MW4 9575   3.804   3.060   3.769  0.4814 -0.2725 -0.2170
 2376SOL     OW 9576   3.594   3.199   3.663 -0.1866  0.5959 -0.2102
 2376SOL    HW2 9577   3.588   3.280   3.713  0.1353  0.0023  0.8218
 2376SOL    HW3 9578   3.522   3.145   3.695  0.0011  0.2248 -0.4018
 2376SOL    MW4 9579   3.584   3.203   3.674 -0.1197  0.4685 -0.0989
 2377SOL     OW 9580   3.556   3.433   3.806 -0.3521  0.2864 -0.0685
 2377SOL    HW2 9581   3.536   3.422   3.899 -2.4384  0.8421 -0.4123
 2377SOL    HW3 9582   3.480   3.479   3.771  0.2853 -0.1606 -2.1114
 2377SOL    MW4 9583   3.543   3.438   3.814 -0.5434  0.3011 -0.3836
 2378SOL     OW 9584   3.805   3.588   3.709  0.2716  0.2885  0.6854
 2378SOL    HW2 9585   3.787   3.680   3.730 -0.0676  0.5606 -0.6992
 2378SOL    HW3 9586   3.726   3.541   3.734 -0.5363  0.7610 -0.9156
 2378SOL    MW4 9587   3.792   3.594   3.715  0.1202  0.3867  0.2916
 2379SOL     OW 9588   3.822   3.881   3.749  0.5140  0.0934 -0.1623
 2379SOL    HW2 9589   3.834   3.867   3.843  0.8870 -0.3537 -0.2675
 2379SOL    HW3 9590   3.892   3.942   3.724  1.4692 -1.0828 -0.4428
 2379SOL    MW4 9591   3.833   3.887   3.758  0.6895 -0.1206 -0.2131
 2380SOL     OW 9592   3.565   3.992   3.689  0.2647  0.3567  0.4342
 2380SOL    HW2 9593   3.555   4.079   3.728 -0.3870  0.3087  0.3784
 2380SOL    HW3 9594   3.642   3.955   3.733 -1.7137 -0.5494  3.3030
 2380SOL    MW4 9595   3.574   3.999   3.700 -0.0823  0.2310  0.8054
 2381SOL     OW 9596   3.565   4.259   3.765  0.0150 -0.4445 -0.1239
 2381SOL    HW2 9597   3.569   4.256   3.861 -2.0486 -1.6106 -0.0497
 2381SOL    HW3 9598   3.650   4.296   3.739  0.4458  0.2834  2.1550
 2381SOL    MW4 9599   3.577   4.264   3.774 -0.2003 -0.5021  0.1864
 2382SOL     OW 9600   3.802   4.395   3.722 -0.1375  0.0824 -0.0481
 2382SOL    HW2 9601   3.883   4.355   3.754 -0.5440 -1.7451 -1.2217
 2382SOL    HW3 9602   3.814   4.403   3.628 -1.0779  0.3953 -0.1522
 2382SOL    MW4 9603   3.814   4.391   3.714 -0.3150 -0.1173 -0.2165
 2383SOL     OW 9604   4.265   4.612   3.752 -0.1206 -0.2009 -0.2908
 2383SOL    HW2 9605   4.267   4.619   3.847  0.2449  0.5185 -0.3405
 2383SOL    HW3 9606   4.341   4.664   3.723  0.2117 -1.0341 -0.9353
 2383SOL    MW4 9607   4.275   4.620   3.760 -0.0281 -0.2155 -0.3819
 2384SOL     OW 9608   4.076   0.131   3.673 -0.4098  0.0404 -0.1028
 2384SOL    HW2 9609   4.141   0.062   3.688  0.4829  0.3885 -2.1484
 2384SOL    HW3 9610   4.076   0.144   3.578 -0.2773  3.0916  0.2473
 2384SOL    MW4 9611   4.085   0.124   3.663 -0.2742  0.4889 -0.3266
 2385SOL     OW 9612   4.060   0.401   3.775 -0.1792 -0.2689 -0.1234
 2385SOL    HW2 9613   4.090   0.392   3.866 -0.1432 -0.7242 -0.1781
 2385SOL    HW3 9614   4.051   0.311   3.744  0.5636 -0.1008 -0.8238
 2385SOL    MW4 9615   4.063   0.388   3.783 -0.0763 -0.3068 -0.2232
 2386SOL     OW 9616   4.305   0.442   3.661 -0.1918  0.4618  0.0679
 2386SOL    HW2 9617   4.218   0.426   3.699 -0.0965  1.0885  0.5518
 2386SOL    HW3 9618   4.288   0.455   3.568 -0.3147 -2.1566 -0.3328
 2386SOL    MW4 9619   4.291   0.441   3.654 -0.1955  0.1990  0.0792
 2387SOL     OW 9620   4.284   0.734   3.774  0.0002  0.2181  0.0743
 2387SOL    HW2 9621   4.203   0.773   3.740 -0.1728 -0.5148 -0.3563
 2387SOL    HW3 9622   4.278   0.642   3.751  1.4839  0.3698 -0.9779
 2387SOL    MW4 9623   4.272   0.727   3.766  0.1726  0.1414 -0.1214
 2388SOL     OW 9624   4.108   0.907   3.672  0.3134  0.1724 -0.5682
 2388SOL    HW2 9625   4.079   0.988   3.715  0.7697  0.3548 -0.6034
 2388SOL    HW3 9626   4.089   0.921   3.579 -1.3345 -0.5023 -0.3634
 2388SOL    MW4 9627   4.101   0.919   3.665  0.1564  0.1075 -0.5460
 2389SOL     OW 9628   4.016   1.170   3.756  0.0485  0.3377  0.0005
 2389SOL    HW2 9629   3.999   1.187   3.848 -0.9101  1.6528 -0.4090
 2389SOL    HW3 9630   4.100   1.214   3.739  2.3447 -3.3483  1.2030
 2389SOL    MW4 9631   4.025   1.178   3.766  0.2255  0.0252  0.1049
 2390SOL     OW 9632   4.272   1.295   3.689  0.0921 -0.3371  0.0616
 2390SOL    HW2 9633   4.272   1.387   3.718 -0.1021 -0.6481  1.0786
 2390SOL    HW3 9634   4.271   1.300   3.594  0.8443  0.7234  0.1012
 2390SOL    MW4 9635   4.272   1.308   3.680  0.1655 -0.2382  0.2012
 2391SOL     OW 9636   4.238   1.546   3.800 -0.3043  0.3318 -0.0341
 2391SOL    HW2 9637   4.168   1.593   3.755 -0.7562 -0.5917 -0.3211
 2391SOL    HW3 9638   4.316   1.601   3.790 -0.6527  0.6503 -1.0186
 2391SOL    MW4 9639   4.239   1.559   3.792 -0.4101  0.2521 -0.2017
 2392SOL     OW 9640   4.027   1.679   3.667  0.3971 -0.3333  0.0918
 2392SOL    HW2 9641   4.022   1.766   3.706 -0.3111  0.5117 -1.7987
 2392SOL    HW3 9642   3.963   1.627   3.715  0.6060  0.2758  1.0275
 2392SOL    MW4 9643   4.018   1.683   3.678  0.3314 -0.1414 -0.0341
 2393SOL     OW 9644   4.026   1.926   3.799 -0.1373 -0.3392  0.1798
 2393SOL    HW2 9645   4.067   1.889   3.877 -1.0619  0.9989  1.3359
 2393SOL    HW3 9646   4.097   1.968   3.752  0.3606 -0.7838  0.5279
 2393SOL    MW4 9647   4.041   1.927   3.803 -0.1936 -0.2213  0.3781
 2394SOL     OW 9648   4.220   2.041   3.671 -0.1809  0.1418 -0.7765
 2394SOL    HW2 9649   4.202   2.134   3.683 -2.1282 -0.1194 -1.5355
 2394SOL    HW3 9650   4.243   2.033   3.579  1.4473  0.0829 -0.3792
 2394SOL    MW4 9651   4.221   2.052   3.661 -0.2227  0.0997 -0.8245
 2395SOL     OW 9652   4.204   2.321   3.747 -0.5667 -0.6346  0.3007
 2395SOL    HW2 9653   4.193   2.315   3.842 -0.5974  1.3794  0.4413
 2395SOL    HW3 9654   4.122   2.359   3.715 -0.3619 -0.8307 -0.4796
 2395SOL    MW4 9655   4.192   2.325   3.755 -0.5441 -0.3948  0.2162
 2396SOL     OW 9656   3.938   2.374   3.623 -0.0833  0.2485  0.0497
 2396SOL    HW2 9657   3.890   2.452   3.652  0.1745  0.3903  0.0970
 2396SOL    HW3 9658   3.875   2.302   3.632 -1.0022  0.7725 -1.9786
 2396SOL    MW4 9659   3.923   2.375   3.628 -0.1705  0.3362 -0.2120
 2397SOL     OW 9660   4.048   2.622   3.867  0.1882 -0.0101 -0.4043
 2397SOL    HW2 9661   4.003   2.539   3.883  1.6735 -0.7469  0.0773
 2397SOL    HW3 9662   4.072   2.619   3.775  0.6949 -0.3459 -0.2622
 2397SOL    MW4 9663   4.045   2.611   3.857  0.4511 -0.1514 -0.3221
 2398SOL     OW 9664   4.230   2.895   3.621  0.3414 -0.5271 -0.2913
 2398SOL    HW2 9665   4.245   2.969   3.679 -0.0912  0.1513 -1.0388
 2398SOL    HW3 9666   4.294   2.829   3.649 -0.3086 -0.4871  1.4116
 2398SOL    MW4 9667   4.240   2.896   3.633  0.1993 -0.4325 -0.1655
 2399SOL     OW 9668   4.253   3.107   3.795 -0.5018  0.2060  0.3973
 2399SOL    HW2 9669   4.175   3.159   3.772 -0.3566  0.3352  0.1944
 2399SOL    HW3 9670   4.325   3.169   3.791 -0.4511  0.1918  1.0513
 2399SOL    MW4 9671   4.252   3.122   3.791 -0.4764  0.2213  0.4568
 2400SOL     OW 9672   4.020   3.219   3.676 -0.1239  0.1977  0.1997
 2400SOL    HW2 9673   3.963   3.143   3.682 -1.2387  1.0353  0.3290
 2400SOL    HW3 9674   4.030   3.235   3.582 -1.8797  1.3593  0.1941
 2400SOL    MW4 9675   4.014   3.211   3.665 -0.5026  0.4613  0.2160
 2401SOL     OW 9676   4.025   3.449   3.826  0.2346  0.4843 -0.4280
 2401SOL    HW2 9677   4.012   3.373   3.770 -0.9098 -1.3100  2.1496
 2401SOL    HW3 9678   3.950   3.506   3.808  0.8143  0.7944 -1.9692
 2401SOL    MW4 9679   4.014   3.447   3.816  0.1602  0.2885 -0.2911
 2402SOL     OW 9680   4.227   3.584   3.698 -0.1940 -0.0489  0.1160
 2402SOL    HW2 9681   4.157   3.535   3.740 -0.0320 -1.8661 -1.6543
 2402SOL    HW3 9682   4.307   3.546   3.733 -0.0710  0.4602  0.3961
 2402SOL    MW4 9683   4.228   3.573   3.708 -0.1564 -0.2215 -0.0806
 2403SOL     OW 9684   4.277   3.841   3.773 -0.7254 -0.4070 -0.3630
 2403SOL    HW2 9685   4.198   3.886   3.743 -0.1172  0.0581 -1.2659
 2403SOL    HW3 9686   4.262   3.749   3.752 -1.6452 -0.5467  0.7966
 2403SOL    MW4 9687   4.264   3.835   3.767 -0.7672 -0.3643 -0.3290
 2404SOL     OW 9688   4.066   4.016   3.692 -0.5049  0.0645 -0.2486
 2404SOL    HW2 9689   4.068   4.101   3.736  0.7353 -1.0158  1.8860
 2404SOL    HW3 9690   4.056   4.037   3.599 -1.3850  2.4797  0.3544
 2404SOL    MW4 9691   4.065   4.030   3.685 -0.4578  0.2408  0.1128
 2405SOL     OW 9692   4.046   4.277   3.777 -0.4727 -0.1966  0.2653
 2405SOL    HW2 9693   4.036   4.304   3.869 -1.3337 -0.1641  0.1639
 2405SOL    HW3 9694   4.131   4.312   3.751 -0.0183 -0.5900  1.1887
 2405SOL    MW4 9695   4.056   4.285   3.786 -0.5264 -0.2441  0.3738
 2406SOL     OW 9696   4.285   4.363   3.680 -0.4581  0.4557  0.0855
 2406SOL    HW2 9697   4.273   4.455   3.704 -0.7847  0.2414  0.7542
 2406SOL    HW3 9698   4.362   4.335   3.729  0.5124  0.7666 -1.2408
 2406SOL    MW4 9699   4.293   4.371   3.689 -0.3734  0.4683 -0.0014
 2407SOL     OW 9700   0.132   4.234   4.073  0.1202  0.2007  0.2571
 2407SOL    HW2 9701   0.206   4.264   4.127 -0.3625  1.5440  0.1904
 2407SOL    HW3 9702   0.126   4.140   4.091  1.4993  0.1824  0.6825
 2407SOL    MW4 9703   0.141   4.225   4.082  0.2385  0.3753  0.3037
 2408SOL     OW 9704   0.365   4.307   4.209  0.5775  0.3103  0.4385
 2408SOL    HW2 9705   0.429   4.264   4.152 -0.7576 -0.8970 -0.1700
 2408SOL    HW3 9706   0.368   4.399   4.183  2.1557  0.2921  0.5095
 2408SOL    MW4 9707   0.374   4.313   4.198  0.6095  0.1488  0.3672
 2409SOL     OW 9708   4.462   0.478   3.998  0.6515 -0.1024  0.5201
 2409SOL    HW2 9709   4.525   0.548   4.015  1.5321 -1.5290  3.4793
 2409SOL    HW3 9710   4.497   0.432   3.922  1.4768  1.0161  0.2102
 2409SOL    MW4 9711   4.475   0.481   3.990  0.8764 -0.1431  0.8695
 2410SOL     OW 9712   0.285   0.108   3.987 -0.2347 -0.1307  0.6735
 2410SOL    HW2 9713   0.347   0.176   4.015  0.5136 -0.2528 -0.6406
 2410SOL    HW3 9714   0.225   0.098   4.061  1.8964 -0.6879  2.3679
 2410SOL    MW4 9715   0.285   0.116   4.000  0.1452 -0.2203  0.7238
 2411SOL     OW 9716   0.190   0.907   4.160  0.0437 -0.2716  0.0491
 2411SOL    HW2 9717   0.260   0.956   4.116  0.1891 -0.9310 -0.4493
 2411SOL    HW3 9718   0.112   0.960   4.145  0.1284 -0.3912 -0.8426
 2411SOL    MW4 9719   0.189   0.921   4.152  0.0740 -0.3743 -0.1340
 2412SOL     OW 9720   0.190   0.666   3.999  0.3184 -0.3693  0.4242
 2412SOL    HW2 9721   0.183   0.749   4.046 -0.9354 -0.7053  0.8623
 2412SOL    HW3 9722   0.267   0.623   4.036  2.1675  1.4678 -1.2168
 2412SOL    MW4 9723   0.199   0.671   4.010  0.3969 -0.1712  0.2656
 2413SOL     OW 9724   4.436   0.998   4.049  0.1766  0.1472 -0.2518
 2413SOL    HW2 9725   4.443   1.045   3.966 -0.8780 -0.2838 -0.6034
 2413SOL    HW3 9726   4.406   1.064   4.111  1.0305  0.4867 -0.1997
 2413SOL    MW4 9727   4.433   1.013   4.046  0.1497  0.1352 -0.2909
 2414SOL     OW 9728   0.091   1.246   4.376  0.3713  0.4761 -0.4435
 2414SOL    HW2 9729   0.014   1.216   4.327 -1.1886  0.0386  2.1486
 2414SOL    HW3 9730   0.107   1.177   4.440  1.2659  1.8056  0.8072
 2414SOL    MW4 9731   0.083   1.233   4.378  0.2835  0.5938  0.0634
 2415SOL     OW 9732   0.423   0.570   4.120 -0.4389  0.5366  0.2992
 2415SOL    HW2 9733   0.494   0.632   4.109 -0.3285  0.5461  1.0171
 2415SOL    HW3 9734   0.425   0.548   4.213 -0.8558 -0.0828  0.1655
 2415SOL    MW4 9735   0.433   0.575   4.131 -0.4794  0.4562  0.3767
 2416SOL     OW 9736   0.510   1.278   4.372  0.2347  0.3459  0.1478
 2416SOL    HW2 9737   0.452   1.290   4.297  2.1220 -0.0514 -1.4228
 2416SOL    HW3 9738   0.525   1.366   4.405 -0.4317  0.5517 -0.0926
 2416SOL    MW4 9739   0.505   1.291   4.366  0.3958  0.3206 -0.0911
 2417SOL     OW 9740   0.456   2.461   4.134 -0.5816 -0.5148  0.8630
 2417SOL    HW2 9741   0.441   2.555   4.128 -1.9485 -0.7069  1.0159
 2417SOL    HW3 9742   0.495   2.448   4.220 -0.6386 -0.1133  0.9487
 2417SOL    MW4 9743   0.459   2.472   4.144 -0.7695 -0.4871  0.8941
 2418SOL     OW 9744   0.117   2.605   4.394 -0.3730  0.2069  0.2251
 2418SOL    HW2 9745   0.177   2.539   4.430  0.2090  0.8419  0.4138
 2418SOL    HW3 9746   0.038   2.597   4.448 -0.9728 -1.5317 -0.8556
 2418SOL    MW4 9747   0.114   2.595   4.406 -0.3753  0.0613  0.1073
 2419SOL     OW 9748   0.917   3.061   4.350 -0.0665 -0.4284  0.4789
 2419SOL    HW2 9749   1.006   3.094   4.338 -0.5654  0.1423 -1.8753
 2419SOL    HW3 9750   0.925   2.997   4.421  2.0479  0.2295  0.8807
 2419SOL    MW4 9751   0.930   3.057   4.358  0.1466 -0.2663  0.2208
 2420SOL     OW 9752   4.148   2.660   4.646  0.0024 -0.0555  0.2143
 2420SOL    HW2 9753   4.177   2.747   4.617  0.9218 -0.7000 -0.8193
 2420SOL    HW3 9754   4.108   2.676   4.731  0.2006  1.3844  0.0556
 2420SOL    MW4 9755   4.146   2.674   4.653  0.1493  0.0496  0.0572
 2421SOL     OW 9756   0.018   2.540   4.135 -0.3939  0.0133 -0.1698
 2421SOL    HW2 9757   0.066   2.562   4.215 -0.5514  1.0599 -0.3510
 2421SOL    HW3 9758   0.070   2.471   4.094 -0.4833 -0.7413  0.9921
 2421SOL    MW4 9759   0.031   2.534   4.140 -0.4265  0.0517 -0.0410
 2422SOL     OW 9760   0.224   3.201   4.328 -0.0597  0.2939  0.2246
 2422SOL    HW2 9761   0.165   3.140   4.373 -0.4915  0.3457 -0.2571
 2422SOL    HW3 9762   0.306   3.195   4.376  0.0653 -1.0585 -0.1234
 2422SOL    MW4 9763   0.227   3.192   4.340 -0.1002  0.1223  0.1154
 2423SOL     OW 9764   1.317   3.668   4.182  0.2915 -0.2603  0.0319
 2423SOL    HW2 9765   1.401   3.714   4.185  0.5240 -0.6080 -1.1034
 2423SOL    HW3 9766   1.259   3.725   4.132  0.4554 -0.9883 -1.0046
 2423SOL    MW4 9767   1.320   3.681   4.176  0.3438 -0.4020 -0.2551
 2424SOL     OW 9768   0.126   3.190   4.054 -0.1699 -0.0353  0.3919
 2424SOL    HW2 9769   0.081   3.272   4.035  0.0530  0.2366  1.0069
 2424SOL    HW3 9770   0.176   3.209   4.134  1.7023 -0.0713 -0.7578
 2424SOL    MW4 9771   0.126   3.203   4.062  0.1065 -0.0043  0.3214
 2425SOL     OW 9772   0.884   3.291   4.061 -0.1090  0.2595  0.2249
 2425SOL    HW2 9773   0.895   3.332   3.975 -1.0162 -0.3096 -0.1628
 2425SOL    HW3 9774   0.790   3.275   4.068  0.0438 -0.2812  1.0627
 2425SOL    MW4 9775   0.873   3.295   4.051 -0.2085  0.1130  0.2842
 2426SOL     OW 9776   0.202   2.354   4.034  0.1455 -0.7747 -0.1978
 2426SOL    HW2 9777   0.205   2.269   4.079 -0.1135 -0.4911  0.3635
 2426SOL    HW3 9778   0.280   2.400   4.066 -0.4224 -0.3002  0.5116
 2426SOL    MW4 9779   0.213   2.349   4.044  0.0364 -0.6750 -0.0305
 2427SOL     OW 9780   0.617   3.922   4.375 -0.0894  0.0602  0.1670
 2427SOL    HW2 9781   0.581   3.931   4.287 -0.6897 -1.8862  0.1910
 2427SOL    HW3 9782   0.712   3.926   4.363 -0.2020  0.8379 -0.4417
 2427SOL    MW4 9783   0.625   3.924   4.362 -0.1835 -0.0937  0.0896
 2428SOL     OW 9784   0.245   3.823   4.052 -0.1509  0.8044 -0.3133
 2428SOL    HW2 9785   0.163   3.861   4.083 -0.9854 -0.1011 -1.3979
 2428SOL    HW3 9786   0.238   3.730   4.072  0.0503  0.5052 -1.5925
 2428SOL    MW4 9787   0.233   3.816   4.059 -0.2345  0.6454 -0.6251
 2429SOL     OW 9788   1.229   4.190   4.572  0.2789 -0.2459 -0.2033
 2429SOL    HW2 9789   1.141   4.191   4.535  0.0349  0.2970  0.3883
 2429SOL    HW3 9790   1.254   4.282   4.578  1.2481 -0.4364 -1.2102
 2429SOL    MW4 9791   1.221   4.202   4.568  0.3746 -0.1993 -0.2575
 2430SOL     OW 9792   0.647   3.698   4.016 -0.1389  0.0036  0.0768
 2430SOL    HW2 9793   0.624   3.613   4.053  0.0996 -0.6858 -1.3411
 2430SOL    HW3 9794   0.576   3.756   4.044 -0.1847 -0.5966  1.2457
 2430SOL    MW4 9795   0.635   3.694   4.024 -0.1134 -0.1664  0.0443
 2431SOL     OW 9796   1.233   0.026   4.077  0.2688 -0.4570 -0.8551
 2431SOL    HW2 9797   1.233  -0.048   4.138  1.5765 -0.8109 -1.2578
 2431SOL    HW3 9798   1.181  -0.004   4.002 -2.2151  0.3538  0.4881
 2431SOL    MW4 9799   1.226   0.012   4.075  0.1137 -0.3968 -0.7310
 2432SOL     OW 9800   1.923   0.064   4.629  0.0821  0.0536 -0.1436
 2432SOL    HW2 9801   2.014   0.064   4.600 -0.3072 -0.6492 -1.4385
 2432SOL    HW3 9802   1.923   0.016   4.712  0.6038 -1.7580 -1.1572
 2432SOL    MW4 9803   1.935   0.058   4.636  0.0998 -0.2781 -0.4482
 2433SOL     OW 9804   0.730   0.950   4.408 -0.1379 -0.2635 -0.1962
 2433SOL    HW2 9805   0.739   0.856   4.390 -1.0173 -0.6727  1.4437
 2433SOL    HW3 9806   0.819   0.979   4.429  0.4988 -0.2793 -2.6946
 2433SOL    MW4 9807   0.743   0.941   4.408 -0.1699 -0.3195 -0.3090
 2434SOL     OW 9808   4.032   4.018   4.087  0.1941  0.5049 -0.3183
 2434SOL    HW2 9809   4.025   4.011   4.182  0.2982 -1.3064 -0.4264
 2434SOL    HW3 9810   4.110   3.968   4.065 -0.6949 -0.3863 -1.4934
 2434SOL    MW4 9811   4.041   4.010   4.097  0.0906  0.1483 -0.4873
 2435SOL     OW 9812   1.338   0.739   4.156 -0.7424 -0.3644  0.3741
 2435SOL    HW2 9813   1.344   0.749   4.251  0.8517 -0.8824  0.3436
 2435SOL    HW3 9814   1.404   0.800   4.122 -1.3305 -0.1626 -0.3974
 2435SOL    MW4 9815   1.348   0.749   4.164 -0.6096 -0.4061  0.2680
 2436SOL     OW 9816   0.641   0.746   4.081 -0.0734 -0.1212 -0.1742
 2436SOL    HW2 9817   0.716   0.724   4.135  0.6308  0.0686 -1.0590
 2436SOL    HW3 9818   0.618   0.835   4.107  0.7303  0.2479 -0.6985
 2436SOL    MW4 9819   0.648   0.755   4.091  0.1256 -0.0474 -0.3600
 2437SOL     OW 9820   0.778   1.335   4.232  0.2755 -0.2641 -0.3431
 2437SOL    HW2 9821   0.742   1.399   4.170  1.2401  0.6974  0.0731
 2437SOL    HW3 9822   0.701   1.298   4.276 -0.2386  1.5801  0.3466
 2437SOL    MW4 9823   0.763   1.338   4.230  0.3350  0.1061 -0.1974
 2438SOL     OW 9824   0.718   1.554   4.069  0.0203  0.1599  0.5732
 2438SOL    HW2 9825   0.631   1.586   4.092  0.0191  0.1379  0.5998
 2438SOL    HW3 9826   0.714   1.541   3.974  0.1343  0.5740  0.5140
 2438SOL    MW4 9827   0.706   1.556   4.060  0.0352  0.2116  0.5689
 2439SOL     OW 9828   0.587   1.577   4.414  0.0314  0.5684  0.1407
 2439SOL    HW2 9829   0.672   1.620   4.425  0.8148 -0.6539 -1.0392
 2439SOL    HW3 9830   0.547   1.623   4.340 -0.7950  1.8216  1.3322
 2439SOL    MW4 9831   0.593   1.589   4.406  0.0256  0.5726  0.1416
 2440SOL     OW 9832   0.024   1.690   4.130 -0.1774 -0.3875 -0.5200
 2440SOL    HW2 9833  -0.066   1.659   4.139 -0.3477 -0.5873 -2.7090
 2440SOL    HW3 9834   0.055   1.698   4.220 -3.2276  2.2715  0.3863
 2440SOL    MW4 9835   0.016   1.687   4.143 -0.6023 -0.0631 -0.6890
 2441SOL     OW 9836   0.418   1.942   4.070  0.1343 -0.6819  0.6769
 2441SOL    HW2 9837   0.495   1.994   4.094  0.1847 -0.6064  0.3564
 2441SOL    HW3 9838   0.419   1.940   3.974 -0.4133 -0.4533  0.6618
 2441SOL    MW4 9839   0.428   1.948   4.060  0.0687 -0.6418  0.6328
 2442SOL     OW 9840   1.465   3.230   4.437  0.2739  0.8706 -0.1560
 2442SOL    HW2 9841   1.521   3.159   4.467 -1.4103 -0.2913  0.2763
 2442SOL    HW3 9842   1.417   3.194   4.363 -1.2380  1.2570  0.6140
 2442SOL    MW4 9843   1.466   3.216   4.431 -0.1478  0.7684  0.0024
 2443SOL     OW 9844   0.671   2.386   3.976  0.4995 -0.4460 -0.4219
 2443SOL    HW2 9845   0.578   2.402   3.989  0.5480  0.2783 -0.9262
 2443SOL    HW3 9846   0.680   2.373   3.881  1.0691  0.6318 -0.5333
 2443SOL    MW4 9847   0.660   2.387   3.965  0.5810 -0.2081 -0.5031
 2444SOL     OW 9848   0.644   2.705   4.421  0.1170 -0.8167  0.2094
 2444SOL    HW2 9849   0.587   2.768   4.465 -0.6375 -0.6080 -1.0346
 2444SOL    HW3 9850   0.680   2.753   4.347  0.9071 -1.3341  0.2581
 2444SOL    MW4 9851   0.641   2.719   4.417  0.1217 -0.8574  0.0515
 2445SOL     OW 9852   0.375   2.730   4.084 -0.2815  0.0558  0.6501
 2445SOL    HW2 9853   0.298   2.785   4.094 -1.3689 -1.4560  0.8052
 2445SOL    HW3 9854   0.397   2.735   3.991 -1.1964 -0.3114  0.4072
 2445SOL    MW4 9855   0.368   2.738   4.073 -0.5457 -0.1917  0.6385
 2446SOL     OW 9856   0.705   3.272   4.385  0.3846 -0.4819  0.0359
 2446SOL    HW2 9857   0.770   3.202   4.375  1.2585  0.2216  0.7195
 2446SOL    HW3 9858   0.750   3.340   4.435 -0.9446 -0.0641  0.6957
 2446SOL    MW4 9859   0.719   3.271   4.390  0.3245 -0.3338  0.2131
 2447SOL     OW 9860   0.924   2.731   4.039 -0.0550  0.0728 -0.1264
 2447SOL    HW2 9861   1.013   2.739   4.073 -0.0972  0.6612 -0.1516
 2447SOL    HW3 9862   0.871   2.783   4.100 -0.3338 -0.0210 -0.2902
 2447SOL    MW4 9863   0.929   2.739   4.052 -0.0974  0.1380 -0.1512
 2448SOL     OW 9864   0.461   3.214   4.486  0.1014 -0.2718 -0.3801
 2448SOL    HW2 9865   0.546   3.228   4.446 -0.1800  2.3223 -0.1943
 2448SOL    HW3 9866   0.468   3.252   4.573 -1.6259  1.2337 -0.8526
 2448SOL    MW4 9867   0.473   3.221   4.492 -0.1636  0.2692 -0.4172
 2449SOL     OW 9868   0.416   3.381   4.024  0.1107  0.2802  0.2137
 2449SOL    HW2 9869   0.483   3.422   4.079 -1.3214  1.8738  0.8108
 2449SOL    HW3 9870   0.430   3.420   3.937 -0.3561  0.9902  0.4547
 2449SOL    MW4 9871   0.427   3.391   4.020 -0.1399  0.5844  0.3238
 2450SOL     OW 9872   1.425   2.762   4.066 -0.2294 -0.2533 -0.0178
 2450SOL    HW2 9873   1.470   2.694   4.115  0.7606 -0.4430 -1.1597
 2450SOL    HW3 9874   1.480   2.839   4.076 -2.0934  0.8295  2.4906
 2450SOL    MW4 9875   1.438   2.763   4.074 -0.3448 -0.1352  0.1621
 2451SOL     OW 9876   0.297   2.402   4.525 -0.0019 -0.2464 -0.1262
 2451SOL    HW2 9877   0.267   2.403   4.616 -2.4490  0.4373 -0.8893
 2451SOL    HW3 9878   0.273   2.315   4.493  3.6670 -1.6451  0.7131
 2451SOL    MW4 9879   0.290   2.391   4.533  0.1593 -0.3407 -0.1163
 2452SOL     OW 9880   0.983   3.457   4.264  0.1055 -0.1160 -0.1817
 2452SOL    HW2 9881   0.932   3.441   4.343  0.5800  0.5955  0.2690
 2452SOL    HW3 9882   0.947   3.395   4.200 -0.6218 -0.3402  0.4332
 2452SOL    MW4 9883   0.971   3.447   4.266  0.0722 -0.0515 -0.0410
 2453SOL     OW 9884   2.566   0.927   4.346 -0.1246  0.0660  0.0896
 2453SOL    HW2 9885   2.474   0.904   4.332  0.0362 -0.1094 -0.7146
 2453SOL    HW3 9886   2.566   0.979   4.427 -0.8442 -0.4572  0.4311
 2453SOL    MW4 9887   2.554   0.931   4.355 -0.1984 -0.0262  0.0291
 2454SOL     OW 9888   0.420   0.290   4.507 -0.0374  0.4679  0.3455
 2454SOL    HW2 9889   0.359   0.359   4.482  0.1641 -0.1524 -2.0694
 2454SOL    HW3 9890   0.506   0.332   4.507 -0.0406  0.4830 -0.0941
 2454SOL    MW4 9891   0.424   0.304   4.504 -0.0112  0.3881 -0.0310
 2455SOL     OW 9892   0.986   0.523   4.695  0.0630 -0.4147 -0.6045
 2455SOL    HW2 9893   1.018   0.476   4.772  0.6645  1.0428  0.0625
 2455SOL    HW3 9894   0.914   0.469   4.662 -0.2311 -1.0343  1.0011
 2455SOL    MW4 9895   0.980   0.510   4.701  0.1035 -0.3041 -0.3042
 2456SOL     OW 9896   3.563   3.925   4.453  0.3633 -0.0633  0.5831
 2456SOL    HW2 9897   3.469   3.914   4.466  0.3405 -0.3010  0.2421
 2456SOL    HW3 9898   3.597   3.836   4.453  0.3788 -0.0819 -0.7663
 2456SOL    MW4 9899   3.555   3.912   4.454  0.3624 -0.0970  0.3600
 2457SOL     OW 9900   0.527   0.064   4.325  0.4373 -0.0923  0.8998
 2457SOL    HW2 9901   0.592   0.035   4.389  0.7498 -0.1904  0.5353
 2457SOL    HW3 9902   0.487   0.141   4.366  0.9487  0.1129  1.0196
 2457SOL    MW4 9903   0.530   0.071   4.339  0.5460 -0.0782  0.8674
 2458SOL     OW 9904   0.972   1.080   4.449 -0.3859  0.0888  0.6265
 2458SOL    HW2 9905   0.999   1.069   4.357 -1.8473 -1.5523  0.3756
 2458SOL    HW3 9906   0.939   1.170   4.453 -0.8960 -0.0305 -0.6193
 2458SOL    MW4 9907   0.971   1.090   4.437 -0.6460 -0.1434  0.4292
 2459SOL     OW 9908   1.502   0.945   4.013  0.3878  0.1914 -0.2863
 2459SOL    HW2 9909   1.531   0.908   3.930 -0.5301  0.5467 -0.7577
 2459SOL    HW3 9910   1.584   0.970   4.057  0.9782 -1.6102 -0.3148
 2459SOL    MW4 9911   1.517   0.943   4.008  0.3445  0.0005 -0.3524
 2460SOL     OW 9912   1.047   1.025   4.177 -0.2114 -0.3759  0.0403
 2460SOL    HW2 9913   1.064   0.935   4.151 -0.2506 -0.8181  1.5193
 2460SOL    HW3 9914   1.125   1.073   4.150  0.4182 -1.1129  0.5506
 2460SOL    MW4 9915   1.060   1.020   4.170 -0.1335 -0.5314  0.3028
 2461SOL     OW 9916   0.861   1.161   4.034  0.4434  0.1399  0.1785
 2461SOL    HW2 9917   0.931   1.108   4.072  0.7127  0.0166 -0.4823
 2461SOL    HW3 9918   0.836   1.222   4.104  0.9143 -0.1023  0.5588
 2461SOL    MW4 9919   0.867   1.162   4.048  0.5410  0.0917  0.1416
 2462SOL     OW 9920   1.210   1.460   4.426 -0.4671 -0.4293  0.1959
 2462SOL    HW2 9921   1.201   1.554   4.414 -0.8524 -0.4844  0.0714
 2462SOL    HW3 9922   1.121   1.427   4.431 -0.3354 -0.8310 -0.0716
 2462SOL    MW4 9923   1.197   1.468   4.425 -0.5006 -0.4894  0.1440
 2463SOL     OW 9924   1.085   1.599   4.020  0.0013  0.2882 -0.1090
 2463SOL    HW2 9925   1.029   1.640   4.086 -0.5966  0.0383 -0.4525
 2463SOL    HW3 9926   1.140   1.538   4.069 -1.0801 -0.5767  0.0536
 2463SOL    MW4 9927   1.085   1.596   4.035 -0.2202  0.1411 -0.1330
 2464SOL     OW 9928   0.893   1.727   4.168  0.0260  0.1505 -0.0714
 2464SOL    HW2 9929   0.817   1.671   4.150 -0.2431  0.6358 -0.4425
 2464SOL    HW3 9930   0.872   1.810   4.126  0.5254  0.4606  0.2944
 2464SOL    MW4 9931   0.880   1.730   4.160  0.0563  0.2555 -0.0715
 2465SOL     OW 9932   0.849   1.977   4.028  0.4247 -0.1608  0.3936
 2465SOL    HW2 9933   0.761   2.008   4.049  0.3336 -0.9657  1.2554
 2465SOL    HW3 9934   0.858   1.991   3.934 -0.4274  0.4210  0.3939
 2465SOL    MW4 9935   0.839   1.983   4.018  0.3002 -0.1903  0.5074
 2466SOL     OW 9936   1.057   2.268   4.030  0.1943  0.0534  0.2354
 2466SOL    HW2 9937   0.977   2.314   4.056  0.1315 -0.0176  0.1663
 2466SOL    HW3 9938   1.064   2.196   4.092  0.3091  0.1738  0.3622
 2466SOL    MW4 9939   1.047   2.265   4.042  0.2011  0.0596  0.2432
 2467SOL     OW 9940   1.622   2.997   4.501 -0.0770 -0.5864  0.1375
 2467SOL    HW2 9941   1.579   2.913   4.487  0.0035 -0.5827 -0.1468
 2467SOL    HW3 9942   1.713   2.982   4.473  0.3174 -0.8348  1.5363
 2467SOL    MW4 9943   1.628   2.984   4.495 -0.0143 -0.6185  0.2847
 2468SOL     OW 9944   1.213   2.473   4.414 -0.0576  0.0868  0.6679
 2468SOL    HW2 9945   1.209   2.566   4.432  0.9751  0.2153  0.2849
 2468SOL    HW3 9946   1.226   2.466   4.320 -1.1981 -0.4723  0.5467
 2468SOL    MW4 9947   1.214   2.484   4.404 -0.0719  0.0298  0.6013
 2469SOL     OW 9948   0.618   3.202   4.018 -0.1827  0.1906  0.1609
 2469SOL    HW2 9949   0.587   3.123   4.062 -1.6712 -1.1640 -3.1177
 2469SOL    HW3 9950   0.540   3.254   4.003  0.0229 -0.0899 -2.1255
 2469SOL    MW4 9951   0.604   3.198   4.021 -0.3519 -0.0253 -0.5736
 2470SOL     OW 9952   1.035   2.049   4.206 -0.0902  0.2230 -0.7482
 2470SOL    HW2 9953   0.958   2.027   4.153 -0.4511 -0.1128 -0.1023
 2470SOL    HW3 9954   1.000   2.055   4.296  0.5653  0.4710 -0.5077
 2470SOL    MW4 9955   1.020   2.047   4.211 -0.0515  0.2117 -0.6309
 2471SOL     OW 9956   1.256   3.458   4.832 -0.1771 -0.2763 -0.0028
 2471SOL    HW2 9957   1.252   3.381   4.776 -1.0903  0.3405 -0.7859
 2471SOL    HW3 9958   1.332   3.507   4.801 -1.0651  0.3969 -1.1452
 2471SOL    MW4 9959   1.266   3.454   4.821 -0.4146 -0.1061 -0.2570
 2472SOL     OW 9960   1.451   3.604   4.670  0.5092  0.2027 -0.0102
 2472SOL    HW2 9961   1.511   3.533   4.647 -0.1886 -0.7132  0.9927
 2472SOL    HW3 9962   1.417   3.635   4.586  0.7491 -0.7049 -0.4439
 2472SOL    MW4 9963   1.455   3.599   4.656  0.4489 -0.0379  0.0653
 2473SOL     OW 9964   1.206   4.025   4.184 -0.0573 -0.5688 -0.1782
 2473SOL    HW2 9965   1.274   4.075   4.139 -0.6024  1.6415  1.3831
 2473SOL    HW3 9966   1.248   3.993   4.264 -0.4953 -0.2433  0.1838
 2473SOL    MW4 9967   1.220   4.027   4.189 -0.1870 -0.2341  0.0753
 2474SOL     OW 9968   1.314   2.075   4.460 -0.5386 -0.2017 -0.6047
 2474SOL    HW2 9969   1.352   2.163   4.466 -1.0001 -0.0498  0.1552
 2474SOL    HW3 9970   1.231   2.089   4.413 -0.4254 -0.2903 -0.8314
 2474SOL    MW4 9971   1.308   2.088   4.454 -0.5846 -0.1934 -0.5345
 2475SOL     OW 9972   1.417   4.158   4.053 -0.1432 -0.2576 -0.1444
 2475SOL    HW2 9973   1.497   4.106   4.059  0.4466  0.7221  0.5345
 2475SOL    HW3 9974   1.402   4.167   3.959 -0.6379 -2.2296 -0.2853
 2475SOL    MW4 9975   1.426   4.152   4.042 -0.1307 -0.3881 -0.0730
 2476SOL     OW 9976   1.854   4.134   4.422 -0.6855 -0.1292 -0.0665
 2476SOL    HW2 9977   1.788   4.167   4.482  0.1569 -0.8446  1.2852
 2476SOL    HW3 9978   1.869   4.044   4.449  1.5806  0.3205  0.3302
 2476SOL    MW4 9979   1.847   4.127   4.433 -0.2754 -0.1645  0.1640
 2477SOL     OW 9980   2.065   4.324   4.331 -0.3757  0.3062  0.2300
 2477SOL    HW2 9981   2.005   4.263   4.372 -1.0104 -0.1518 -1.3824
 2477SOL    HW3 9982   2.141   4.326   4.391 -1.4010 -0.1225  1.5675
 2477SOL    MW4 9983   2.067   4.316   4.344 -0.5951  0.1898  0.1941
 2478SOL     OW 9984   0.420   4.016   4.565 -0.3714 -0.3442 -0.7827
 2478SOL    HW2 9985   0.470   3.997   4.644 -1.2367 -1.0278 -0.3902
 2478SOL    HW3 9986   0.481   3.997   4.493 -0.4101 -2.2549 -0.3340
 2478SOL    MW4 9987   0.435   4.011   4.566 -0.4907 -0.6866 -0.6719
 2479SOL     OW 9988   2.269   3.929   4.449  0.0234 -0.6104  0.2273
 2479SOL    HW2 9989   2.336   3.976   4.498  1.2165 -1.1874 -0.8211
 2479SOL    HW3 9990   2.291   3.944   4.357 -1.5858 -0.3797 -0.1398
 2479SOL    MW4 9991   2.281   3.937   4.443 -0.0312 -0.6561  0.0410
 2480SOL     OW 9992   1.299   3.961   4.434 -0.0450 -0.0564 -0.0345
 2480SOL    HW2 9993   1.265   4.044   4.466  1.5599  1.3695 -1.8506
 2480SOL    HW3 9994   1.391   3.960   4.462 -0.0587 -1.2433  0.0082
 2480SOL    MW4 9995   1.307   3.972   4.442  0.1650 -0.0250 -0.2680
 2481SOL     OW 9996   1.515   4.643   4.082  0.3199  0.4572 -0.2084
 2481SOL    HW2 9997   1.425   4.674   4.068 -0.4066 -1.1040  0.8206
 2481SOL    HW3 9998   1.543   4.688   4.162  0.9912  2.0471 -1.3212
 2481SOL    MW4 9999   1.507   4.653   4.091  0.3127  0.4611 -0.2193
 2482SOL     OW10000   0.927   0.397   4.020 -0.2692  0.0284  0.1021
 2482SOL    HW210001   0.864   0.366   4.085 -0.3724 -2.7260 -1.2282
 2482SOL    HW310002   1.013   0.376   4.058 -0.1573  2.3483  1.2144
 2482SOL    MW410003   0.930   0.390   4.034 -0.2680 -0.0290  0.0739
 2483SOL     OW10004   1.791   0.945   4.081 -0.2927 -0.0215  0.0734
 2483SOL    HW210005   1.829   1.032   4.066  0.3592  0.1972  2.7955
 2483SOL    HW310006   1.867   0.887   4.089 -0.7091 -0.6952 -0.7646
 2483SOL    MW410007   1.806   0.949   4.080 -0.2615 -0.0815  0.3219
 2484SOL     OW10008   1.703   1.255   4.504 -0.0624  0.1545 -0.0846
 2484SOL    HW210009   1.739   1.329   4.455  0.1434  0.1727  0.0959
 2484SOL    HW310010   1.643   1.295   4.567 -0.1741  0.1444 -0.1827
 2484SOL    MW410011   1.700   1.270   4.506 -0.0499  0.1556 -0.0734
 2485SOL     OW10012   1.291   1.159   4.109 -0.2423 -0.1973  0.1795
 2485SOL    HW210013   1.310   1.172   4.016 -0.9360 -0.7226 -0.0335
 2485SOL    HW310014   1.372   1.120   4.144 -0.5519 -1.5403 -0.5436
 2485SOL    MW410015   1.304   1.155   4.102 -0.3747 -0.4438  0.0563
 2486SOL     OW10016   1.298   1.440   4.158  0.3399  0.1757  0.0102
 2486SOL    HW210017   1.287   1.445   4.253 -1.7768 -1.3533 -0.1396
 2486SOL    HW310018   1.285   1.348   4.137 -1.3203  0.8444 -2.0105
 2486SOL    MW410019   1.295   1.429   4.168 -0.1585  0.0623 -0.2766
 2487SOL     OW10020   2.202   1.699   4.191  0.0362  0.4827 -0.0758
 2487SOL    HW210021   2.294   1.725   4.187  0.4883 -1.0876 -0.1447
 2487SOL    HW310022   2.157   1.776   4.227  1.2838  1.4517 -0.5511
 2487SOL    MW410023   2.208   1.713   4.196  0.2606  0.4034 -0.1473
 2488SOL     OW10024   1.739   1.454   4.092  0.3162  0.2507 -0.1253
 2488SOL    HW210025   1.661   1.502   4.063  0.3546  1.0352  1.0271
 2488SOL    HW310026   1.812   1.509   4.064  0.4678 -0.5274 -1.2823
 2488SOL    MW410027   1.738   1.468   4.084  0.3412  0.2515 -0.1259
 2489SOL     OW10028   1.261   2.444   4.151  0.4597  0.7902 -0.1199
 2489SOL    HW210029   1.343   2.427   4.104  0.4105  0.3238 -0.0360
 2489SOL    HW310030   1.199   2.381   4.114  0.5226  0.1539  0.8482
 2489SOL    MW410031   1.264   2.434   4.140  0.4616  0.6449  0.0191
 2490SOL     OW10032   2.224   1.440   4.306  0.2501  0.1650  0.1567
 2490SOL    HW210033   2.150   1.447   4.367 -0.8958 -0.1402 -1.1863
 2490SOL    HW310034   2.222   1.522   4.257  0.5077 -0.0644 -0.2330
 2490SOL    MW410035   2.214   1.452   4.308  0.1328  0.0944 -0.0715
 2491SOL     OW10036   1.214   2.745   4.448  0.2242 -0.2828  0.2068
 2491SOL    HW210037   1.139   2.785   4.494  1.3039 -0.5741  2.2824
 2491SOL    HW310038   1.193   2.755   4.355 -1.6887  0.9877  0.7408
 2491SOL    MW410039   1.201   2.751   4.442  0.1143 -0.1535  0.5512
 2492SOL     OW10040   0.187   2.887   4.418  0.0086 -0.2363 -0.0354
 2492SOL    HW210041   0.101   2.919   4.443  0.3319  1.3019 -0.8429
 2492SOL    HW310042   0.181   2.792   4.426 -1.4707 -0.0738  0.8060
 2492SOL    MW410043   0.175   2.878   4.422 -0.1439 -0.0119 -0.0310
 2493SOL     OW10044   1.115   3.116   4.021 -0.7601  0.3817  0.1418
 2493SOL    HW210045   1.024   3.143   4.028 -0.9377 -0.3842  0.9076
 2493SOL    HW310046   1.122   3.078   3.933 -1.7139 -1.4426  0.8251
 2493SOL    MW410047   1.104   3.114   4.010 -0.9093  0.0401  0.3328
 2494SOL     OW10048   2.328   2.673   4.023  0.0294 -0.4804  0.2059
 2494SOL    HW210049   2.269   2.738   4.062 -1.8525 -1.6969 -0.5625
 2494SOL    HW310050   2.392   2.656   4.092 -0.1293  1.3196  0.8412
 2494SOL    MW410051   2.328   2.679   4.037 -0.2398 -0.4032  0.1884
 2495SOL     OW10052   1.431   2.327   4.492  0.4710  0.1257  0.2873
 2495SOL    HW210053   1.354   2.380   4.473 -0.3113 -0.3024  2.1313
 2495SOL    HW310054   1.506   2.382   4.469 -0.3879  0.7034 -1.0982
 2495SOL    MW410055   1.431   2.341   4.487  0.2544  0.1452  0.3481
 2496SOL     OW10056   2.064   2.303   4.454 -0.0647 -0.2803 -0.0466
 2496SOL    HW210057   1.969   2.288   4.447 -0.3494  1.3958  0.1848
 2496SOL    HW310058   2.093   2.237   4.517 -1.3314  0.2347  1.0942
 2496SOL    MW410059   2.055   2.292   4.461 -0.2697  0.0088  0.1345
 2497SOL     OW10060   1.398   3.431   4.049  0.1963 -0.1943 -0.1421
 2497SOL    HW210061   1.368   3.505   4.101 -0.8443 -1.5793  1.2772
 2497SOL    HW310062   1.357   3.443   3.964 -0.2747  0.6461  0.2030
 2497SOL    MW410063   1.389   3.442   4.045 -0.0031 -0.2661  0.0901
 2498SOL     OW10064   0.978   2.889   4.563  0.0241  0.0476  0.4556
 2498SOL    HW210065   0.943   2.800   4.575 -0.3576  0.2979  1.2514
 2498SOL    HW310066   1.012   2.912   4.649  2.2953 -0.2397 -0.3392
 2498SOL    MW410067   0.978   2.880   4.576  0.2735  0.0429  0.4563
 2499SOL     OW10068   2.529   3.891   4.054 -0.2104 -0.5490 -0.2852
 2499SOL    HW210069   2.533   3.797   4.074 -1.8768 -0.8397 -1.1937
 2499SOL    HW310070   2.511   3.894   3.960  3.9294  0.7361 -1.1242
 2499SOL    MW410071   2.527   3.879   4.044  0.1161 -0.4177 -0.5159
 2500SOL     OW10072   1.565   4.494   4.448  0.6154  0.0139  0.1223
 2500SOL    HW210073   1.636   4.558   4.440 -0.2041  0.9467  0.1882
 2500SOL    HW310074   1.557   4.457   4.360  0.8903  0.2151  0.0098
 2500SOL    MW410075   1.573   4.498   4.435  0.5435  0.1636  0.1163
 2501SOL     OW10076   1.544   4.388   4.191  0.2358  0.2363  0.0184
 2501SOL    HW210077   1.514   4.472   4.156 -1.2797  0.3152  1.4552
 2501SOL    HW310078   1.499   4.322   4.138 -0.7152  0.3483  0.6808
 2501SOL    MW410079   1.534   4.391   4.179 -0.0896  0.2613  0.2947
 2502SOL     OW10080   0.754   0.006   4.514 -0.8739  0.1396 -0.0033
 2502SOL    HW210081   0.810  -0.024   4.442 -0.0359  1.2611  0.1539
 2502SOL    HW310082   0.762  -0.061   4.581  1.4964  0.9783  0.6187
 2502SOL    MW410083   0.763  -0.007   4.513 -0.4506  0.3982  0.0997
 2503SOL     OW10084   2.262   0.183   4.157  0.2259  0.0754 -0.1255
 2503SOL    HW210085   2.174   0.146   4.148  0.2556 -0.1634  0.5430
 2503SOL    HW310086   2.275   0.192   4.251  0.6807  0.6893 -0.2443
 2503SOL    MW410087   2.252   0.179   4.168  0.2899  0.1249 -0.0529
 2504SOL     OW10088   0.792   4.292   4.025 -0.5450 -0.0874  0.0486
 2504SOL    HW210089   0.858   4.264   4.088 -1.2505  0.8298  1.1885
 2504SOL    HW310090   0.771   4.382   4.049 -2.1485 -0.3342 -0.3512
 2504SOL    MW410091   0.798   4.300   4.036 -0.8497  0.0010  0.1459
 2505SOL     OW10092   1.611   0.386   4.214 -0.3981 -0.3553 -0.1688
 2505SOL    HW210093   1.634   0.466   4.262 -0.5874  0.5092 -1.5140
 2505SOL    HW310094   1.695   0.348   4.188 -0.2864 -0.9149  0.9579
 2505SOL    MW410095   1.625   0.391   4.217 -0.4083 -0.3150 -0.1979
 2506SOL     OW10096   2.411   4.542   4.419  0.4883  0.6332  0.3003
 2506SOL    HW210097   2.479   4.487   4.458  0.6547  0.0326 -0.8305
 2506SOL    HW310098   2.401   4.510   4.329 -1.0041  0.9792  0.3181
 2506SOL    MW410099   2.419   4.531   4.412  0.3133  0.5999  0.1535
 2507SOL     OW10100   2.022   0.775   4.080  0.0628 -0.0750 -0.0584
 2507SOL    HW210101   2.013   0.680   4.084  0.9477 -0.1256  0.9270
 2507SOL    HW310102   2.112   0.792   4.109  0.0739  1.0264 -0.7164
 2507SOL    MW410103   2.033   0.765   4.084  0.1812  0.0636 -0.0153
 2508SOL     OW10104   2.115   1.203   4.215 -0.2875  0.0683 -0.1173
 2508SOL    HW210105   2.166   1.282   4.233  1.0621 -1.0946  1.3311
 2508SOL    HW310106   2.108   1.160   4.300 -1.7749 -0.9399 -0.7317
 2508SOL    MW410107   2.120   1.208   4.229 -0.3054 -0.2180 -0.0072
 2509SOL     OW10108   2.055   0.510   4.142  0.1240 -0.1089 -0.1261
 2509SOL    HW210109   2.145   0.479   4.157 -0.0362  0.5853  2.5452
 2509SOL    HW310110   2.015   0.510   4.229 -2.0399  0.9222 -1.0907
 2509SOL    MW410111   2.062   0.506   4.155 -0.1826  0.1187  0.0987
 2510SOL     OW10112   2.290   1.090   4.039  0.1316 -0.0920  0.6228
 2510SOL    HW210113   2.225   1.125   4.101  1.1856  0.9440  1.1555
 2510SOL    HW310114   2.372   1.131   4.065  0.3853  1.3710 -2.2252
 2510SOL    MW410115   2.292   1.100   4.050  0.3042  0.2378  0.3176
 2511SOL     OW10116   1.962   1.643   4.042 -0.0620 -0.2300 -0.1231
 2511SOL    HW210117   2.003   1.614   3.961  0.7602  1.0987 -0.1836
 2511SOL    HW310118   2.033   1.647   4.105 -0.5708 -0.5349  0.4800
 2511SOL    MW410119   1.976   1.640   4.040 -0.0206 -0.0949 -0.0515
 2512SOL     OW10120   1.932   1.891   4.703  0.1887  0.2900 -0.0436
 2512SOL    HW210121   1.963   1.969   4.750  0.0464  0.4330 -0.1840
 2512SOL    HW310122   1.885   1.927   4.627 -1.0713  0.0929  0.6232
 2512SOL    MW410123   1.930   1.906   4.699  0.0037  0.2829  0.0253
 2513SOL     OW10124   1.765   1.658   4.749 -0.4952 -0.1184 -0.0599
 2513SOL    HW210125   1.830   1.729   4.751 -1.0513  0.4174 -0.7722
 2513SOL    HW310126   1.730   1.656   4.838  0.6320 -0.5398  0.3828
 2513SOL    MW410127   1.769   1.667   4.761 -0.4197 -0.1032 -0.0954
 2514SOL     OW10128   1.996   2.721   4.260  0.2954 -0.2972 -0.2295
 2514SOL    HW210129   2.034   2.655   4.318  0.3547 -1.1673 -1.2274
 2514SOL    HW310130   1.947   2.779   4.318  1.2942 -0.4779  0.8081
 2514SOL    MW410131   1.994   2.720   4.275  0.4348 -0.4361 -0.2246
 2515SOL     OW10132   1.810   1.892   4.071  0.6818  0.5508 -0.7274
 2515SOL    HW210133   1.883   1.848   4.114  0.5688  0.9230 -0.1428
 2515SOL    HW310134   1.732   1.853   4.111  0.5300 -0.7048 -2.2099
 2515SOL    MW410135   1.809   1.881   4.082  0.6469  0.4343 -0.8459
 2516SOL     OW10136   2.209   2.873   4.570  0.2094  0.4387  0.1098
 2516SOL    HW210137   2.296   2.899   4.539 -0.2716 -0.3028 -1.9530
 2516SOL    HW310138   2.188   2.794   4.521 -1.7799  0.8112  0.3062
 2516SOL    MW410139   2.218   2.866   4.559 -0.1163  0.3901 -0.1369
 2517SOL     OW10140   1.821   3.005   4.133  0.4158 -0.1754 -0.1290
 2517SOL    HW210141   1.896   3.017   4.075 -0.4553  1.2406 -1.0259
 2517SOL    HW310142   1.806   3.091   4.171 -0.5220 -0.5186  0.3064
 2517SOL    MW410143   1.829   3.018   4.130  0.1771 -0.0341 -0.1898
 2518SOL     OW10144   2.584   2.040   4.649 -0.0091 -0.3508  0.5547
 2518SOL    HW210145   2.587   2.125   4.693  1.0624  1.1906 -2.3608
 2518SOL    HW310146   2.528   2.054   4.573 -0.0491 -2.3474  0.1828
 2518SOL    MW410147   2.577   2.053   4.645  0.1271 -0.4110  0.1206
 2519SOL     OW10148   2.091   3.089   4.021  0.1773 -0.1276  0.3261
 2519SOL    HW210149   2.073   3.108   3.929 -0.1623  0.1874  0.4585
 2519SOL    HW310150   2.125   3.171   4.057  0.4768 -0.3007  0.4392
 2519SOL    MW410151   2.093   3.102   4.013  0.1721 -0.1090  0.3591
 2520SOL     OW10152   2.193   2.882   4.172 -0.1827 -0.5438 -0.1058
 2520SOL    HW210153   2.157   2.949   4.114  0.2502 -0.9319 -0.8358
 2520SOL    HW310154   2.117   2.837   4.208 -0.4451 -1.4765 -1.7755
 2520SOL    MW410155   2.178   2.885   4.169 -0.1602 -0.7181 -0.4225
 2521SOL     OW10156   1.660   3.542   3.982 -0.1459 -0.0651  0.1120
 2521SOL    HW210157   1.582   3.487   3.988 -1.0083  1.1356  0.1242
 2521SOL    HW310158   1.686   3.537   3.890 -0.9526  0.4960 -0.1472
 2521SOL    MW410159   1.653   3.534   3.970 -0.3662  0.1671  0.0794
 2522SOL     OW10160   1.854   3.485   4.156 -0.5457  0.0808  0.1232
 2522SOL    HW210161   1.836   3.548   4.226 -0.6400  0.9569 -0.6944
 2522SOL    HW310162   1.782   3.497   4.094 -0.5796 -0.8529 -0.0212
 2522SOL    MW410163   1.842   3.495   4.157 -0.5627  0.0732 -0.0038
 2523SOL     OW10164   2.054   3.902   4.042 -0.6255 -0.0335  0.1614
 2523SOL    HW210165   2.000   3.967   4.087 -0.9531  0.4471 -0.9027
 2523SOL    HW310166   2.012   3.891   3.956  0.2892 -0.5223 -0.2340
 2523SOL    MW410167   2.042   3.909   4.036 -0.5479 -0.0346 -0.0310
 2524SOL     OW10168   1.805   3.234   4.570 -0.0117 -0.1798 -0.0174
 2524SOL    HW210169   1.764   3.147   4.577  0.8460 -0.7537 -1.8249
 2524SOL    HW310170   1.899   3.217   4.581  0.2554  0.3652 -1.3745
 2524SOL    MW410171   1.812   3.220   4.572  0.1367 -0.1836 -0.4349
 2525SOL     OW10172   2.022   0.068   4.096  0.0610 -0.0820 -0.0419
 2525SOL    HW210173   2.015   0.051   4.002 -1.3716  2.2439 -0.4073
 2525SOL    HW310174   1.966   0.003   4.137 -0.2183 -0.3728 -0.8816
 2525SOL    MW410175   2.014   0.057   4.089 -0.1650  0.1865 -0.2007
 2526SOL     OW10176   1.767   0.031   4.417 -0.0367 -0.4481  0.1423
 2526SOL    HW210177   1.820  -0.010   4.348  1.0669  2.0437 -0.5315
 2526SOL    HW310178   1.826   0.035   4.492  0.0094  0.3206  0.0653
 2526SOL    MW410179   1.782   0.026   4.418  0.1149 -0.0176  0.0434
 2527SOL     OW10180   2.758   0.109   4.586 -0.0965  0.1878  0.5640
 2527SOL    HW210181   2.812   0.037   4.555 -0.4879  0.2824 -0.3852
 2527SOL    HW310182   2.740   0.090   4.678 -0.0952 -0.8606  0.3452
 2527SOL    MW410183   2.762   0.097   4.594 -0.1478  0.0620  0.4096
 2528SOL     OW10184   2.626   4.385   4.539  0.0498 -0.5987  0.6127
 2528SOL    HW210185   2.654   4.293   4.544 -0.2290 -0.8029 -1.0951
 2528SOL    HW310186   2.707   4.434   4.527  0.0758 -0.7566  0.1410
 2528SOL    MW410187   2.640   4.379   4.538  0.0167 -0.6456  0.3252
 2529SOL     OW10188   2.022   0.397   4.617  0.7401  0.0322 -0.6477
 2529SOL    HW210189   2.111   0.369   4.636  0.6171 -0.2816 -0.5295
 2529SOL    HW310190   1.969   0.318   4.629  0.2755  0.5196  0.5295
 2529SOL    MW410191   2.026   0.383   4.621  0.6626  0.0551 -0.4773
 2530SOL     OW10192   2.335   0.448   4.063 -0.5990  0.1017 -0.2120
 2530SOL    HW210193   2.289   0.429   3.981  0.2236 -0.6785 -0.5096
 2530SOL    HW310194   2.335   0.365   4.110 -0.0035  0.2437  0.0390
 2530SOL    MW410195   2.329   0.434   4.058 -0.4122  0.0175 -0.2184
 2531SOL     OW10196   2.313   0.277   4.422 -0.1660  0.0289  0.3959
 2531SOL    HW210197   2.315   0.362   4.466  2.0602  1.0596 -1.6678
 2531SOL    HW310198   2.404   0.248   4.420 -0.5667 -1.1732 -1.3191
 2531SOL    MW410199   2.325   0.284   4.428  0.0749  0.0063 -0.1025
 2532SOL     OW10200   3.689   0.289   4.624 -0.2570 -0.4259  0.6695
 2532SOL    HW210201   3.659   0.365   4.573  2.2253  0.7087  0.8331
 2532SOL    HW310202   3.705   0.323   4.711  1.7560 -0.9058  0.5156
 2532SOL    MW410203   3.687   0.304   4.628  0.3362 -0.3395  0.6704
 2533SOL     OW10204   2.485   0.685   4.053 -0.0276  0.3944 -0.0892
 2533SOL    HW210205   2.443   0.600   4.055 -0.3720  0.5797  0.7214
 2533SOL    HW310206   2.476   0.715   3.963 -1.6552  0.4490  0.0906
 2533SOL    MW410207   2.479   0.678   4.042 -0.2875  0.4260  0.0415
 2534SOL     OW10208   1.806   1.477   4.374  0.3201  0.5451  0.3976
 2534SOL    HW210209   1.745   1.528   4.426  0.6454  0.1349  1.1907
 2534SOL    HW310210   1.768   1.476   4.286 -2.8443 -2.8545  1.6588
 2534SOL    MW410211   1.793   1.483   4.369 -0.0546  0.0424  0.6690
 2535SOL     OW10212   2.799   0.950   4.193 -0.0129  0.1358  0.4202
 2535SOL    HW210213   2.714   0.931   4.235  0.5173 -0.7770  1.1079
 2535SOL    HW310214   2.831   0.865   4.164  0.2244  0.6039 -0.7242
 2535SOL    MW410215   2.792   0.936   4.195  0.0882  0.0771  0.3605
 2536SOL     OW10216   2.517   1.503   4.021 -0.1901  0.1353 -0.1062
 2536SOL    HW210217   2.510   1.411   4.043  0.4939  0.0480 -0.2322
 2536SOL    HW310218   2.513   1.505   3.925 -0.5000  0.2657 -0.0920
 2536SOL    MW410219   2.516   1.491   4.011 -0.1404  0.1411 -0.1211
 2537SOL     OW10220   2.343   2.100   4.063  0.5617  0.0579  0.1205
 2537SOL    HW210221   2.425   2.051   4.074  0.2447 -0.1439  1.8279
 2537SOL    HW310222   2.371   2.191   4.055  1.1596 -0.3699 -3.1358
 2537SOL    MW410223   2.358   2.106   4.064  0.5987 -0.0253 -0.0839
 2538SOL     OW10224   1.603   1.590   4.543  0.0723  0.7975  0.4717
 2538SOL    HW210225   1.658   1.625   4.614  1.0916 -1.3069  0.7609
 2538SOL    HW310226   1.558   1.667   4.508  1.5853  2.2758  1.6462
 2538SOL    MW410227   1.604   1.605   4.548  0.4063  0.7148  0.6647
 2539SOL     OW10228   3.449   1.789   4.187 -0.0844 -0.0584  0.1494
 2539SOL    HW210229   3.472   1.832   4.269  0.0717 -0.3425  0.2549
 2539SOL    HW310230   3.414   1.859   4.132  0.6112  0.2897  0.1554
 2539SOL    MW410231   3.447   1.804   4.190  0.0281 -0.0501  0.1640
 2540SOL     OW10232   2.472   2.336   4.307 -0.1656 -0.7133 -0.0107
 2540SOL    HW210233   2.564   2.359   4.294 -0.3773 -0.0431 -0.3169
 2540SOL    HW310234   2.436   2.408   4.358 -1.5404  1.1318 -3.4085
 2540SOL    MW410235   2.480   2.349   4.312 -0.3750 -0.3812 -0.4988
 2541SOL     OW10236   2.469   2.906   4.217  0.2711 -0.5551  0.2763
 2541SOL    HW210237   2.373   2.901   4.224  0.2324 -1.6130 -0.8052
 2541SOL    HW310238   2.498   2.815   4.221  1.1140 -0.3401 -0.7969
 2541SOL    MW410239   2.460   2.893   4.218  0.3772 -0.6664 -0.0076
 2542SOL     OW10240   2.449   3.125   4.000 -0.1746 -0.3308  0.0261
 2542SOL    HW210241   2.453   3.043   4.049  0.1236 -0.2198  0.1862
 2542SOL    HW310242   2.380   3.175   4.043  1.2214  0.4542  1.3921
 2542SOL    MW410243   2.440   3.121   4.012  0.0489 -0.2124  0.2279
 2543SOL     OW10244   1.780   2.256   4.408 -0.3241 -0.0800 -0.2681
 2543SOL    HW210245   1.757   2.344   4.435 -0.4637 -0.3275  0.4184
 2543SOL    HW310246   1.748   2.250   4.318 -1.6970  0.0533  0.1993
 2543SOL    MW410247   1.773   2.267   4.399 -0.5237 -0.0949 -0.1159
 2544SOL     OW10248   2.249   3.290   4.123  0.2791 -0.2428  0.6681
 2544SOL    HW210249   2.250   3.385   4.109  1.3460 -0.1771  1.1493
 2544SOL    HW310250   2.258   3.280   4.218  1.0950 -0.8466  0.5259
 2544SOL    MW410251   2.250   3.301   4.134  0.5271 -0.3138  0.7129
 2545SOL     OW10252   2.301   3.552   4.051  0.6621 -0.2952  0.6204
 2545SOL    HW210253   2.236   3.600   4.103  0.6658  1.4284 -0.8887
 2545SOL    HW310254   2.385   3.573   4.091  0.6043  0.4977  0.3365
 2545SOL    MW410255   2.303   3.561   4.063  0.6549  0.0367  0.3834
 2546SOL     OW10256   2.082   3.662   4.185 -0.1931  0.1868  0.5053
 2546SOL    HW210257   2.049   3.740   4.140 -1.7631  0.3339  1.8887
 2546SOL    HW310258   2.026   3.591   4.155  0.1165 -0.1054  0.6114
 2546SOL    MW410259   2.070   3.663   4.175 -0.3595  0.1674  0.7014
 2547SOL     OW10260   2.560   3.619   4.126  0.6121  0.3464 -0.5294
 2547SOL    HW210261   2.613   3.558   4.074 -0.9748 -0.9301 -0.6543
 2547SOL    HW310262   2.553   3.578   4.212 -1.4111 -0.1952 -0.9436
 2547SOL    MW410263   2.566   3.606   4.130  0.1357  0.1068 -0.6003
 2548SOL     OW10264   1.638   4.025   4.015 -0.3208 -0.0915  0.0327
 2548SOL    HW210265   1.719   4.056   4.056  0.1586  0.1679 -1.0821
 2548SOL    HW310266   1.624   3.938   4.052  0.2532  0.0206  0.5217
 2548SOL    MW410267   1.647   4.017   4.025 -0.1819 -0.0424 -0.0501
 2549SOL     OW10268   2.203   4.244   4.102  0.1247 -0.4818 -0.2495
 2549SOL    HW210269   2.146   4.287   4.166 -0.0610 -0.9272 -0.1165
 2549SOL    HW310270   2.235   4.166   4.146  0.6737 -0.3433 -0.4020
 2549SOL    MW410271   2.199   4.239   4.116  0.1729 -0.5226 -0.2522
 2550SOL     OW10272   2.443   4.663   4.051 -0.0731  0.4372 -0.0889
 2550SOL    HW210273   2.522   4.714   4.068 -0.2555 -0.2070  3.0716
 2550SOL    HW310274   2.372   4.717   4.086 -0.5998 -0.5892  0.4429
 2550SOL    MW410275   2.444   4.677   4.058 -0.1667  0.2170  0.3982
 2551SOL     OW10276   3.032   4.596   4.108 -0.1250  0.8027 -0.3121
 2551SOL    HW210277   3.098   4.633   4.167 -0.8360  0.5209  0.6903
 2551SOL    HW310278   3.070   4.512   4.080 -0.6168 -0.0054  1.3482
 2551SOL    MW410279   3.046   4.589   4.112 -0.2837  0.6590  0.0386
 2552SOL     OW10280   2.439   4.410   4.156  0.2898  0.2553  0.0744
 2552SOL    HW210281   2.437   4.493   4.107  0.9329 -0.7445 -1.6769
 2552SOL    HW310282   2.369   4.358   4.118  0.5255 -0.3789  0.5126
 2552SOL    MW410283   2.430   4.414   4.145  0.4058  0.0401 -0.0997
 2553SOL     OW10284   2.747   0.526   4.050 -0.4081  0.9365 -0.1457
 2553SOL    HW210285   2.667   0.572   4.072 -0.7615 -0.3130  1.2241
 2553SOL    HW310286   2.724   0.475   3.972 -0.7159  1.1422 -0.1912
 2553SOL    MW410287   2.733   0.525   4.042 -0.4950  0.7987  0.0296
 2554SOL     OW10288   2.556   0.685   4.548  0.1675 -0.4385  0.3814
 2554SOL    HW210289   2.586   0.744   4.479  1.2181 -0.4773  0.7984
 2554SOL    HW310290   2.518   0.743   4.614 -1.3416 -0.4358 -0.4493
 2554SOL    MW410291   2.555   0.700   4.548  0.1070 -0.4432  0.3266
 2555SOL     OW10292   3.369   0.717   4.004  0.0592 -0.0064 -0.8091
 2555SOL    HW210293   3.368   0.630   4.042  1.9975  0.5604  0.6348
 2555SOL    HW310294   3.287   0.757   4.034 -0.0741 -0.7725 -0.1414
 2555SOL    MW410295   3.358   0.711   4.013  0.2971 -0.0327 -0.5302
 2556SOL     OW10296   2.937   0.730   4.032  0.1278 -0.6218  0.1483
 2556SOL    HW210297   2.934   0.752   3.939  0.9788  0.0003  0.2656
 2556SOL    HW310298   2.875   0.658   4.041 -0.9043  0.1428 -0.6680
 2556SOL    MW410299   2.929   0.723   4.021  0.1040 -0.4388  0.0567
 2557SOL     OW10300   2.056   1.496   4.507 -0.0526  0.2122  0.1461
 2557SOL    HW210301   2.069   1.410   4.547  1.4096  0.0854 -0.5682
 2557SOL    HW310302   1.974   1.488   4.458 -0.6426 -0.3373  1.2244
 2557SOL    MW410303   2.047   1.484   4.506  0.0629  0.1229  0.1941
 2558SOL     OW10304   3.103   1.556   4.623 -0.2971  0.0995  0.0564
 2558SOL    HW210305   3.113   1.466   4.652 -0.0513 -0.3622 -1.4117
 2558SOL    HW310306   3.044   1.551   4.548 -0.5103  1.1874  0.1443
 2558SOL    MW410307   3.097   1.544   4.617 -0.2928  0.1822 -0.1254
 2559SOL     OW10308   3.763   1.867   4.222  0.0391 -0.1811 -0.2606
 2559SOL    HW210309   3.818   1.932   4.265  0.4579  0.2056 -1.3621
 2559SOL    HW310310   3.683   1.915   4.199 -0.8863 -0.8074  1.5720
 2559SOL    MW410311   3.759   1.882   4.224 -0.0279 -0.2128 -0.1636
 2560SOL     OW10312   2.769   1.173   4.033 -0.3800  0.6150  0.1939
 2560SOL    HW210313   2.775   1.088   4.076  1.1002  0.4463 -0.3009
 2560SOL    HW310314   2.783   1.154   3.940 -0.7742  1.3156 -0.0186
 2560SOL    MW410315   2.772   1.160   4.026 -0.2370  0.6853  0.1006
 2561SOL     OW10316   2.506   1.727   4.169  0.5407 -0.2813 -0.0691
 2561SOL    HW210317   2.488   1.648   4.119  0.1773 -0.7832  0.8443
 2561SOL    HW310318   2.543   1.695   4.252 -0.6894  0.4481  0.7796
 2561SOL    MW410319   2.509   1.712   4.174  0.3307 -0.2514  0.1631
 2562SOL     OW10320   2.094   1.058   4.461  0.1225 -0.2138  0.3377
 2562SOL    HW210321   2.104   1.118   4.535  0.5366 -0.3426  0.3825
 2562SOL    HW310322   2.002   1.031   4.465 -0.0518  0.3767  0.3489
 2562SOL    MW410323   2.083   1.063   4.471  0.1545 -0.1529  0.3448
 2563SOL     OW10324   2.585   1.960   4.049  0.1058  0.4107 -0.1457
 2563SOL    HW210325   2.555   1.876   4.082  0.1706  0.1078 -0.8493
 2563SOL    HW310326   2.589   1.949   3.954  0.9367  0.9382 -0.1794
 2563SOL    MW410327   2.582   1.948   4.041  0.2239  0.4404 -0.2432
 2564SOL     OW10328   2.089   2.166   4.191 -0.4152 -0.3634  0.7856
 2564SOL    HW210329   2.167   2.144   4.139 -1.2783  1.3545 -1.2941
 2564SOL    HW310330   2.125   2.203   4.272  0.9423  0.4915 -0.1751
 2564SOL    MW410331   2.104   2.168   4.195 -0.3498 -0.0241  0.3843
 2565SOL     OW10332   1.535   1.810   4.136  0.4686 -0.0391 -0.1635
 2565SOL    HW210333   1.530   1.806   4.232 -0.7957 -0.7598 -0.2556
 2565SOL    HW310334   1.503   1.897   4.115 -0.5816 -0.3855 -0.0132
 2565SOL    MW410335   1.530   1.821   4.146  0.1632 -0.1798 -0.1564
 2566SOL     OW10336   3.345   3.045   4.070  0.1007  0.4562 -0.7065
 2566SOL    HW210337   3.267   3.101   4.075  0.6339  1.1366  0.2012
 2566SOL    HW310338   3.319   2.964   4.114 -0.2635  0.4709 -0.8915
 2566SOL    MW410339   3.331   3.042   4.077  0.1230  0.5481 -0.6113
 2567SOL     OW10340   2.904   3.069   4.047  0.0555 -0.7339 -0.2262
 2567SOL    HW210341   2.901   2.974   4.039  0.3652 -0.6486 -1.6069
 2567SOL    HW310342   2.911   3.100   3.956  0.3003  0.5856  0.2304
 2567SOL    MW410343   2.905   3.061   4.034  0.1287 -0.5488 -0.3481
 2568SOL     OW10344   2.683   3.155   4.193  0.1507 -0.3589 -0.4074
 2568SOL    HW210345   2.757   3.131   4.137  0.7098  0.8205 -0.1874
 2568SOL    HW310346   2.606   3.124   4.146  0.6863 -0.2427 -1.3710
 2568SOL    MW410347   2.683   3.148   4.180  0.2954 -0.1876 -0.5050
 2569SOL     OW10348   2.536   3.729   4.455  0.0896 -0.4595  0.1152
 2569SOL    HW210349   2.542   3.633   4.451  0.0293 -0.5790  2.3496
 2569SOL    HW310350   2.443   3.748   4.445  0.1020 -0.6379 -0.3399
 2569SOL    MW410351   2.525   3.719   4.453  0.0832 -0.4990  0.3500
 2570SOL     OW10352   2.888   3.239   4.598  0.1725 -0.3834 -0.2801
 2570SOL    HW210353   2.930   3.154   4.608 -0.8398 -0.9767 -0.9909
 2570SOL    HW310354   2.952   3.292   4.551  0.8213 -0.7341  0.1943
 2570SOL    MW410355   2.902   3.235   4.593  0.1247 -0.5083 -0.3119
 2571SOL     OW10356   2.738   4.139   4.605 -0.3192  0.4623 -0.1758
 2571SOL    HW210357   2.830   4.162   4.596  0.1744 -0.8248  1.3357
 2571SOL    HW310358   2.731   4.051   4.568 -0.9171  0.5065 -0.1848
 2571SOL    MW410359   2.749   4.130   4.599 -0.3331  0.2985  0.0229
 2572SOL     OW10360   2.734   3.912   4.464 -0.1493 -0.2453  0.7009
 2572SOL    HW210361   2.667   3.846   4.480 -0.3085 -0.5886 -1.3625
 2572SOL    HW310362   2.710   3.952   4.381  0.9897  1.1517  1.0189
 2572SOL    MW410363   2.722   3.909   4.455 -0.0200 -0.1063  0.4706
 2573SOL     OW10364   2.801   4.529   4.225 -0.2222  0.0403 -0.1964
 2573SOL    HW210365   2.882   4.530   4.174  0.6789 -1.0617  1.1924
 2573SOL    HW310366   2.752   4.454   4.192 -0.2157  0.0898 -0.3191
 2573SOL    MW410367   2.805   4.520   4.213 -0.1025 -0.0987 -0.0296
 2574SOL     OW10368   3.269   3.877   4.511 -0.4709 -0.4581  0.3248
 2574SOL    HW210369   3.230   3.947   4.564 -0.4716  0.0751 -0.3720
 2574SOL    HW310370   3.257   3.907   4.421  0.8593 -0.6626  0.0780
 2574SOL    MW410371   3.262   3.890   4.506 -0.2954 -0.4146  0.1998
 2575SOL     OW10372   3.389   4.342   4.177 -0.1762 -0.0276  0.1112
 2575SOL    HW210373   3.400   4.433   4.146 -0.9201  0.1367  0.3440
 2575SOL    HW310374   3.451   4.292   4.123 -0.0517  0.5558 -0.2960
 2575SOL    MW410375   3.399   4.348   4.166 -0.2580  0.0706  0.0887
 2576SOL     OW10376   3.213   0.069   4.262  0.2133 -0.2194  0.1539
 2576SOL    HW210377   3.173   0.086   4.347 -0.9315 -1.5358 -0.0959
 2576SOL    HW310378   3.306   0.086   4.275 -0.0269  0.0687  1.5386
 2576SOL    MW410379   3.220   0.073   4.275  0.0305 -0.3550  0.3037
 2577SOL     OW10380   3.122   0.267   4.079  0.4321 -0.2243  0.3540
 2577SOL    HW210381   3.167   0.204   4.135 -0.6217 -0.0239  1.4383
 2577SOL    HW310382   3.037   0.280   4.121  0.9426  2.5598  0.5961
 2577SOL    MW410383   3.117   0.260   4.092  0.3607  0.1695  0.5293
 2578SOL     OW10384   3.344   1.107   4.291  0.3812 -0.2389 -0.0380
 2578SOL    HW210385   3.416   1.157   4.253  0.5309 -0.8602 -0.5833
 2578SOL    HW310386   3.302   1.065   4.216  0.7782 -1.6045  0.4846
 2578SOL    MW410387   3.348   1.108   4.276  0.4535 -0.5010 -0.0410
 2579SOL     OW10388   3.661   1.080   4.043 -0.3054  0.0199 -0.0843
 2579SOL    HW210389   3.623   1.097   3.957 -3.4771 -1.8968  0.8467
 2579SOL    HW310390   3.630   1.153   4.097  3.4440  2.3865 -0.9903
 2579SOL    MW410391   3.652   1.092   4.039 -0.2294  0.0793 -0.0806
 2580SOL     OW10392   3.722   4.355   4.444  0.0728  0.1301 -0.3863
 2580SOL    HW210393   3.724   4.363   4.349  0.0508  0.2527 -0.3760
 2580SOL    HW310394   3.629   4.348   4.466  0.1473 -1.5504 -0.5186
 2580SOL    MW410395   3.710   4.355   4.434  0.0796 -0.0753 -0.4025
 2581SOL     OW10396   3.154   0.811   4.183 -0.1829  0.3515  0.0604
 2581SOL    HW210397   3.156   0.905   4.170  0.4715  0.2410 -0.7021
 2581SOL    HW310398   3.078   0.781   4.133 -0.3260  0.4604  0.2131
 2581SOL    MW410399   3.144   0.819   4.175 -0.1154  0.3514 -0.0200
 2582SOL     OW10400   3.166   0.710   4.452  0.1829 -0.3260  0.1903
 2582SOL    HW210401   3.154   0.746   4.364  2.4543  0.0754  0.0050
 2582SOL    HW310402   3.084   0.665   4.472 -0.6191  0.2141 -1.8428
 2582SOL    MW410403   3.154   0.709   4.443  0.3767 -0.2018 -0.1025
 2583SOL     OW10404   3.477   1.322   4.600 -0.0495 -0.1604 -0.1136
 2583SOL    HW210405   3.399   1.312   4.546 -0.0992  0.0803 -0.0854
 2583SOL    HW310406   3.505   1.232   4.619 -1.1700 -0.2560  1.1142
 2583SOL    MW410407   3.471   1.308   4.595 -0.2041 -0.1413  0.0525
 2584SOL     OW10408   2.597   1.124   4.535  0.0957 -0.0547 -0.2193
 2584SOL    HW210409   2.687   1.154   4.525 -0.2985  1.2402 -0.0505
 2584SOL    HW310410   2.558   1.187   4.596 -0.0205 -2.5072  2.3663
 2584SOL    MW410411   2.604   1.137   4.542  0.0286 -0.2075  0.1440
 2585SOL     OW10412   3.848   2.458   4.022 -0.0867  0.4473 -0.1916
 2585SOL    HW210413   3.857   2.365   4.047 -1.6180  0.6614  1.2411
 2585SOL    HW310414   3.856   2.505   4.105  0.2967  1.5965 -0.8667
 2585SOL    MW410415   3.850   2.452   4.037 -0.2384  0.6270 -0.0916
 2586SOL     OW10416   3.954   2.056   4.313 -0.3944  0.2220 -0.2770
 2586SOL    HW210417   3.973   2.104   4.394 -1.3844 -0.2391  0.2282
 2586SOL    HW310418   4.039   2.022   4.285  0.5050  3.0442 -1.1398
 2586SOL    MW410419   3.968   2.058   4.320 -0.4063  0.5336 -0.3238
 2587SOL     OW10420   3.206   2.823   4.156 -0.3479 -0.0414  0.1138
 2587SOL    HW210421   3.290   2.781   4.179 -0.4127 -0.1496  0.1527
 2587SOL    HW310422   3.160   2.832   4.240 -0.5174 -0.2904  0.0469
 2587SOL    MW410423   3.211   2.819   4.170 -0.3791 -0.0885  0.1097
 2588SOL     OW10424   3.658   2.648   3.908 -0.1532  0.3338  0.3538
 2588SOL    HW210425   3.689   2.574   3.960 -2.5556 -0.7230  0.3700
 2588SOL    HW310426   3.653   2.721   3.970  0.1560 -0.0562  0.8410
 2588SOL    MW410427   3.661   2.648   3.923 -0.4296  0.1431  0.4201
 2589SOL     OW10428   3.202   1.379   4.052 -0.0818 -0.2752  0.3407
 2589SOL    HW210429   3.221   1.413   3.965  3.1881 -0.5227  0.9136
 2589SOL    HW310430   3.215   1.453   4.111 -2.5558 -0.0298  0.6563
 2589SOL    MW410431   3.206   1.393   4.049  0.0231 -0.2755  0.4578
 2590SOL     OW10432   3.452   3.016   4.353  0.1137 -0.2587 -0.7799
 2590SOL    HW210433   3.487   3.005   4.442 -1.6522 -0.5375 -0.1090
 2590SOL    HW310434   3.455   2.929   4.315  1.4088 -0.0359 -1.2060
 2590SOL    MW410435   3.457   3.003   4.360  0.0517 -0.2661 -0.7477
 2591SOL     OW10436   2.936   3.810   4.285  0.5753  0.2559 -0.1589
 2591SOL    HW210437   2.928   3.715   4.283 -1.2799  0.3796  0.5362
 2591SOL    HW310438   2.884   3.837   4.361 -1.9420  2.0967 -2.4345
 2591SOL    MW410439   2.928   3.801   4.295 -0.0017  0.5152 -0.3667
 2592SOL     OW10440   3.336   3.598   4.162 -0.3951  0.1110 -0.4090
 2592SOL    HW210441   3.416   3.551   4.141 -0.2487  0.3378 -0.3623
 2592SOL    HW310442   3.266   3.545   4.124 -0.2151 -0.0300 -0.5448
 2592SOL    MW410443   3.337   3.585   4.154 -0.3521  0.1223 -0.4210
 2593SOL     OW10444   2.923   3.522   4.257  0.1868 -0.5205 -0.1451
 2593SOL    HW210445   2.967   3.498   4.339  0.3279 -0.7533 -0.2886
 2593SOL    HW310446   2.992   3.517   4.191 -0.2355 -1.7176 -0.5152
 2593SOL    MW410447   2.938   3.518   4.259  0.1497 -0.7091 -0.2131
 2594SOL     OW10448   3.189   3.926   4.247  0.1341 -0.0952 -0.0298
 2594SOL    HW210449   3.117   3.867   4.267 -1.0771  1.4463  0.2021
 2594SOL    HW310450   3.239   3.880   4.179 -1.7834 -0.6154 -1.1242
 2594SOL    MW410451   3.186   3.912   4.241 -0.2787  0.0396 -0.1435
 2595SOL     OW10452   3.552   3.455   4.077  0.0154 -0.0016 -0.1320
 2595SOL    HW210453   3.557   3.378   4.134 -0.9603  1.3704  1.8478
 2595SOL    HW310454   3.631   3.505   4.096 -0.0701  0.2155 -0.3377
 2595SOL    MW410455   3.563   3.451   4.087 -0.1247  0.2079  0.1025
 2596SOL     OW10456   3.582   3.238   4.247  0.1058 -0.3084  0.5970
 2596SOL    HW210457   3.630   3.253   4.328 -0.1646 -0.5273  0.7964
 2596SOL    HW310458   3.521   3.168   4.268  0.2005 -0.5287  0.1357
 2596SOL    MW410459   3.581   3.231   4.260  0.0827 -0.3667  0.5622
 2597SOL     OW10460   2.987   4.170   4.221  0.4724  0.3040  0.3914
 2597SOL    HW210461   3.055   4.104   4.234  1.2473  1.4110  2.1045
 2597SOL    HW310462   2.916   4.123   4.176  1.8172 -1.1794 -0.2313
 2597SOL    MW410463   2.986   4.155   4.217  0.7520  0.2537  0.5350
 2598SOL     OW10464   3.152   4.334   4.037  0.2962 -0.0087  0.2265
 2598SOL    HW210465   3.236   4.331   4.084 -0.1455  0.0990  1.0399
 2598SOL    HW310466   3.095   4.277   4.088 -0.0337 -0.3553 -0.5253
 2598SOL    MW410467   3.156   4.326   4.050  0.1943 -0.0401  0.2346
 2599SOL     OW10468   3.733   4.630   4.031 -0.4348 -0.2287  0.1261
 2599SOL    HW210469   3.792   4.681   4.088 -0.1957 -0.4788  0.1063
 2599SOL    HW310470   3.769   4.642   3.943 -0.3609 -0.4518  0.1245
 2599SOL    MW410471   3.746   4.639   4.027 -0.3936 -0.2909  0.1230
 2600SOL     OW10472   3.467   4.589   4.053 -0.7205 -0.2186 -0.1668
 2600SOL    HW210473   3.464   4.645   4.130 -1.2450  0.9112 -0.9952
 2600SOL    HW310474   3.555   4.600   4.018 -1.4291  1.7099 -1.4761
 2600SOL    MW410475   3.478   4.598   4.058 -0.8831  0.1855 -0.4492
 2601SOL     OW10476   3.360   0.472   4.133 -0.3261  0.2508  0.8044
 2601SOL    HW210477   3.292   0.404   4.137  0.8321 -0.8970  1.0680
 2601SOL    HW310478   3.439   0.426   4.106  0.2641  1.6609  0.1044
 2601SOL    MW410479   3.361   0.457   4.130 -0.0956  0.2854  0.7472
 2602SOL     OW10480   3.481   0.113   4.264 -0.1265 -0.4307 -0.1853
 2602SOL    HW210481   3.530   0.097   4.344 -1.3834 -0.4043  0.6142
 2602SOL    HW310482   3.526   0.186   4.222 -0.2883  0.5024  1.2267
 2602SOL    MW410483   3.493   0.121   4.269 -0.3135 -0.3041  0.1073
 2603SOL     OW10484   3.854   0.708   4.071  0.0067  0.0806  0.3673
 2603SOL    HW210485   3.766   0.715   4.109 -0.7847  0.6142 -1.5100
 2603SOL    HW310486   3.841   0.722   3.977  2.2288  1.0952  0.1835
 2603SOL    MW410487   3.841   0.711   4.063  0.1955  0.2849  0.0949
 2604SOL     OW10488   3.895   0.974   4.399 -0.2446  0.0315 -0.4647
 2604SOL    HW210489   3.921   0.950   4.310 -2.2529  0.4477 -1.1999
 2604SOL    HW310490   3.817   0.921   4.416 -0.6866  0.9727  0.5007
 2604SOL    MW410491   3.888   0.964   4.389 -0.5679  0.2105 -0.4339
 2605SOL     OW10492   2.999   1.049   4.351  0.7403 -0.4636 -0.1654
 2605SOL    HW210493   2.922   1.012   4.309 -0.8397  1.1800  1.2226
 2605SOL    HW310494   3.006   1.137   4.314  1.8121 -0.5179 -0.1071
 2605SOL    MW410495   2.990   1.056   4.340  0.6733 -0.2538  0.0253
 2606SOL     OW10496   3.933   1.129   4.015  0.1148 -0.2487  0.0545
 2606SOL    HW210497   3.977   1.066   4.072  0.0882 -0.0317  0.3137
 2606SOL    HW310498   3.841   1.104   4.017 -0.0492  0.4339  0.9736
 2606SOL    MW410499   3.927   1.117   4.023  0.0896 -0.1299  0.2098
 2607SOL     OW10500   3.645   0.829   4.438  0.0119 -0.0965  0.4227
 2607SOL    HW210501   3.587   0.889   4.483  0.2901 -0.2391  0.9745
 2607SOL    HW310502   3.604   0.814   4.353 -0.4083  0.3290  0.5547
 2607SOL    MW410503   3.632   0.835   4.433 -0.0069 -0.0591  0.5131
 2608SOL     OW10504   3.187   1.087   4.050  0.3017 -0.3419 -0.3688
 2608SOL    HW210505   3.155   1.070   3.961  0.7036 -0.9239 -0.4128
 2608SOL    HW310506   3.193   1.182   4.056 -0.6506 -0.2644 -0.6329
 2608SOL    MW410507   3.184   1.097   4.039  0.2291 -0.4085 -0.4091
 2609SOL     OW10508   4.252   1.610   4.157 -0.2186 -0.4910  0.2691
 2609SOL    HW210509   4.249   1.597   4.251  0.7757 -3.0358 -0.0218
 2609SOL    HW310510   4.235   1.524   4.120  0.5518  0.2421 -1.8777
 2609SOL    MW410511   4.249   1.597   4.164  0.0143 -0.7300 -0.0525
 2610SOL     OW10512   3.977   1.623   4.606  0.3782 -0.1553  0.1183
 2610SOL    HW210513   4.048   1.678   4.638 -0.2193  0.6928  0.0056
 2610SOL    HW310514   3.992   1.538   4.647  2.9326 -0.7467 -1.9003
 2610SOL    MW410515   3.989   1.619   4.616  0.6366 -0.1216 -0.1626
 2611SOL     OW10516   4.287   2.404   4.221  0.0792 -0.6755 -0.1779
 2611SOL    HW210517   4.363   2.434   4.172  0.2229  0.9387  0.9966
 2611SOL    HW310518   4.244   2.484   4.250 -0.9935 -1.5871  0.8094
 2611SOL    MW410519   4.291   2.418   4.218 -0.0434 -0.5827  0.1068
 2612SOL     OW10520   3.499   2.534   3.667 -0.5102  0.3989  0.0981
 2612SOL    HW210521   3.499   2.501   3.577 -0.5130  0.0825  0.2123
 2612SOL    HW310522   3.589   2.559   3.684 -0.6458  1.1152 -0.2294
 2612SOL    MW410523   3.511   2.533   3.657 -0.5286  0.4516  0.0699
 2613SOL     OW10524   3.902   2.834   4.809  0.1866  0.2973  1.0867
 2613SOL    HW210525   3.876   2.920   4.775 -0.7322  0.5040  2.2967
 2613SOL    HW310526   3.857   2.771   4.753  1.7619  0.5782 -0.5237
 2613SOL    MW410527   3.893   2.837   4.797  0.2735  0.3617  1.0338
 2614SOL     OW10528   3.763   3.105   4.044 -0.2292  0.3453 -0.1193
 2614SOL    HW210529   3.697   3.150   4.098 -1.8706 -0.9606 -1.0034
 2614SOL    HW310530   3.846   3.133   4.081 -1.2789  1.6639  1.3339
 2614SOL    MW410531   3.765   3.115   4.056 -0.5841  0.3469 -0.0443
 2615SOL     OW10532   3.128   3.451   4.048  0.0535 -0.1358  0.4130
 2615SOL    HW210533   3.123   3.360   4.079 -1.1563 -0.5375 -0.8880
 2615SOL    HW310534   3.141   3.443   3.953  1.3770  1.0625  0.4772
 2615SOL    MW410535   3.129   3.438   4.040  0.0682 -0.0308  0.2499
 2616SOL     OW10536   3.789   2.611   3.665 -0.6428 -0.0464 -0.1855
 2616SOL    HW210537   3.856   2.679   3.660 -2.1127  1.3826 -0.9697
 2616SOL    HW310538   3.757   2.616   3.755  1.3094 -1.7525  0.6369
 2616SOL    MW410539   3.794   2.621   3.676 -0.5791 -0.0827 -0.1805
 2617SOL     OW10540   3.394   3.845   4.062  0.1252 -0.0632 -0.3615
 2617SOL    HW210541   3.380   3.753   4.082 -1.4779  0.2311 -0.0257
 2617SOL    HW310542   3.378   3.852   3.968  0.1758 -0.1139 -0.3734
 2617SOL    MW410543   3.390   3.834   4.052 -0.0794 -0.0312 -0.3195
 2618SOL     OW10544   2.062   3.095   4.531 -0.3785 -0.0648 -0.2828
 2618SOL    HW210545   2.129   3.130   4.473  0.2500  0.2961  0.6349
 2618SOL    HW310546   2.100   3.013   4.565 -0.2873  0.2780  0.4472
 2618SOL    MW410547   2.076   3.088   4.528 -0.2835  0.0281 -0.0653
 2619SOL     OW10548   3.614   3.967   4.187 -0.2556  0.3901 -0.1651
 2619SOL    HW210549   3.580   3.980   4.276 -0.4953  0.3333 -0.2472
 2619SOL    HW310550   3.544   3.919   4.142  0.0287  0.0797 -0.2732
 2619SOL    MW410551   3.600   3.962   4.193 -0.2494  0.3414 -0.1903
 2620SOL     OW10552   0.464   2.940   4.429 -0.5571 -0.1305 -0.0000
 2620SOL    HW210553   0.471   3.030   4.460 -2.0307  0.3574 -1.0120
 2620SOL    HW310554   0.370   2.921   4.431 -0.4789 -0.8681 -1.9369
 2620SOL    MW410555   0.452   2.949   4.434 -0.7412 -0.1633 -0.3891
 2621SOL     OW10556   3.598   4.224   4.044  0.2987  0.4189  0.2627
 2621SOL    HW210557   3.608   4.138   4.085  2.0745 -0.1646 -1.3465
 2621SOL    HW310558   3.672   4.275   4.076  0.3509  0.7137 -0.3264
 2621SOL    MW410559   3.609   4.219   4.054  0.5400  0.3805 -0.0277
 2622SOL     OW10560   3.768   4.389   4.164 -0.7370 -0.6349  0.0303
 2622SOL    HW210561   3.843   4.352   4.116 -1.2597 -0.4412 -0.9456
 2622SOL    HW310562   3.756   4.476   4.126 -1.2618 -0.5468  0.3970
 2622SOL    MW410563   3.776   4.395   4.152 -0.8750 -0.5980 -0.0505
 2623SOL     OW10564   4.209   4.404   4.207 -0.0259  0.1862  0.4567
 2623SOL    HW210565   4.267   4.332   4.232 -0.8933 -0.3810  0.8663
 2623SOL    HW310566   4.174   4.436   4.290  0.8664  1.5271  0.3283
 2623SOL    MW410567   4.212   4.399   4.221 -0.0229  0.2880  0.4935
 2624SOL     OW10568   4.480   4.294   4.295  0.4399 -0.0853  0.0298
 2624SOL    HW210569   4.543   4.278   4.225  1.1587 -0.8462  0.8458
 2624SOL    HW310570   4.513   4.371   4.341 -0.6126  1.0783 -1.1179
 2624SOL    MW410571   4.492   4.302   4.292  0.3953 -0.0315 -0.0143
 2625SOL     OW10572   4.193   0.390   4.018 -0.2046  0.2617 -0.1746
 2625SOL    HW210573   4.280   0.428   4.005  0.7827 -1.8220  0.3038
 2625SOL    HW310574   4.156   0.442   4.090  1.0438  0.4971  0.3230
 2625SOL    MW410575   4.200   0.402   4.026  0.0896  0.0178 -0.0458
 2626SOL     OW10576   4.024   0.908   4.153 -0.2922  0.5542 -0.0125
 2626SOL    HW210577   4.111   0.876   4.130 -0.5571 -1.3545  1.5534
 2626SOL    HW310578   3.963   0.847   4.110 -0.8815  1.7070 -0.8599
 2626SOL    MW410579   4.027   0.896   4.144 -0.4048  0.4545  0.0820
 2627SOL     OW10580   4.263   0.783   4.058  0.1677 -0.3640 -0.0187
 2627SOL    HW210581   4.273   0.736   3.975 -1.7387  0.2427 -0.6213
 2627SOL    HW310582   4.319   0.860   4.049 -0.1412 -0.2259 -0.8203
 2627SOL    MW410583   4.272   0.787   4.046 -0.1249 -0.2657 -0.2036
 2628SOL     OW10584   3.930   1.281   4.395 -0.3924 -0.2020  0.2051
 2628SOL    HW210585   3.849   1.323   4.424 -1.2000 -1.8492  0.4018
 2628SOL    HW310586   3.911   1.187   4.399  1.7325 -0.6308  0.8647
 2628SOL    MW410587   3.916   1.274   4.400 -0.2186 -0.4760  0.3181
 2629SOL     OW10588   0.291   1.301   4.193 -0.2225 -0.6482  0.4966
 2629SOL    HW210589   0.311   1.223   4.140  0.1335 -1.3310  1.6262
 2629SOL    HW310590   0.224   1.271   4.255 -1.0978  0.3168  0.0247
 2629SOL    MW410591   0.285   1.286   4.194 -0.2910 -0.6108  0.5832
 2630SOL     OW10592   3.463   4.321   4.488  0.2866 -0.0652 -0.4031
 2630SOL    HW210593   3.409   4.260   4.538 -0.4823  0.5475 -0.4900
 2630SOL    HW310594   3.421   4.325   4.402  0.0447  0.9850 -0.2371
 2630SOL    MW410595   3.450   4.313   4.483  0.1531  0.1540 -0.3924
 2631SOL     OW10596   4.354   1.190   4.222 -0.2135  0.1125  0.1314
 2631SOL    HW210597   4.306   1.161   4.300  0.0215 -0.0984  0.1995
 2631SOL    HW310598   4.295   1.253   4.180  0.3575  1.5244  1.3868
 2631SOL    MW410599   4.340   1.194   4.227 -0.1078  0.2710  0.3061
 2632SOL     OW10600   4.182   1.369   4.024 -0.2403 -0.2849 -0.1141
 2632SOL    HW210601   4.196   1.406   3.937 -1.9328  0.4930 -0.0751
 2632SOL    HW310602   4.090   1.385   4.043  0.5846  1.4893  2.7270
 2632SOL    MW410603   4.172   1.376   4.015 -0.3552  0.0517  0.2651
 2633SOL     OW10604   4.099   1.815   4.034  0.1493  0.3076 -0.0483
 2633SOL    HW210605   4.160   1.746   4.060 -0.4691  0.3315  1.5225
 2633SOL    HW310606   4.013   1.777   4.048 -0.1953  1.2293  0.3640
 2633SOL    MW410607   4.096   1.801   4.039  0.0224  0.4325  0.2131
 2634SOL     OW10608   0.198   2.117   4.144  0.2955  0.4727  0.0374
 2634SOL    HW210609   0.112   2.075   4.147  0.6022 -0.1097  2.2196
 2634SOL    HW310610   0.260   2.045   4.132  0.7318  0.3628  2.5297
 2634SOL    MW410611   0.195   2.102   4.143  0.3935  0.3815  0.6537
 2635SOL     OW10612   4.170   2.238   4.024  0.0712  0.1253 -0.1029
 2635SOL    HW210613   4.077   2.234   4.046  0.4457 -1.0599  1.4006
 2635SOL    HW310614   4.207   2.296   4.091  0.5644 -0.1885 -0.1025
 2635SOL    MW410615   4.163   2.245   4.036  0.1855 -0.0722  0.0958
 2636SOL     OW10616   3.923   2.555   4.273 -0.3710  0.2031  0.4060
 2636SOL    HW210617   3.878   2.639   4.285 -1.0529  0.0999 -1.3437
 2636SOL    HW310618   3.926   2.517   4.361 -1.5291  1.3207  0.9439
 2636SOL    MW410619   3.917   2.561   4.286 -0.6139  0.3369  0.2465
 2637SOL     OW10620   4.195   2.674   4.311 -0.0967 -0.1118  0.0466
 2637SOL    HW210621   4.104   2.649   4.299 -0.6508  0.6462  2.4529
 2637SOL    HW310622   4.220   2.715   4.228 -1.1798 -2.4660 -1.5103
 2637SOL    MW410623   4.186   2.676   4.299 -0.3128 -0.3226  0.1588
 2638SOL     OW10624   4.161   2.796   4.064  0.1449  0.3429  0.0186
 2638SOL    HW210625   4.250   2.808   4.029  0.3121 -0.0282  0.3232
 2638SOL    HW310626   4.119   2.736   4.002 -0.0050  0.7817 -0.3124
 2638SOL    MW410627   4.167   2.790   4.051  0.1473  0.3517  0.0148
 2639SOL     OW10628   4.204   3.084   4.071  0.0003  0.3450  0.9347
 2639SOL    HW210629   4.180   2.992   4.073  0.6247  0.1784  0.8656
 2639SOL    HW310630   4.225   3.101   3.979 -0.3601  0.6244  0.9005
 2639SOL    MW410631   4.204   3.074   4.059  0.0348  0.3600  0.9212
 2640SOL     OW10632   4.038   4.000   4.373  0.2325 -0.4798 -0.4102
 2640SOL    HW210633   3.994   4.050   4.442  3.0802 -0.1217  1.2269
 2640SOL    HW310634   4.129   3.994   4.402  1.0978 -1.9788 -3.2380
 2640SOL    MW410635   4.044   4.006   4.386  0.7224 -0.6304 -0.5674
 2641SOL     OW10636   4.271   3.574   4.194  0.0667 -0.0164 -0.0693
 2641SOL    HW210637   4.186   3.539   4.168  0.4071  0.2664 -1.6232
 2641SOL    HW310638   4.333   3.537   4.130  0.8682  1.0070  0.0966
 2641SOL    MW410639   4.268   3.564   4.182  0.2170  0.1557 -0.2527
 2642SOL     OW10640   1.813   0.989   4.495 -0.1902  0.2197 -0.2683
 2642SOL    HW210641   1.751   0.945   4.438  1.3338 -0.1517 -1.6883
 2642SOL    HW310642   1.778   1.077   4.507 -0.4172  0.3718 -1.9786
 2642SOL    MW410643   1.800   0.995   4.489 -0.0191  0.1907 -0.6809
 2643SOL     OW10644   4.275   3.869   4.051 -0.2180 -0.5499 -0.4338
 2643SOL    HW210645   4.282   3.779   4.080  2.3856 -0.5781 -0.9796
 2643SOL    HW310646   4.283   3.864   3.956 -1.9855  0.0969 -0.6263
 2643SOL    MW410647   4.277   3.857   4.042 -0.1073 -0.4685 -0.5317
 2644SOL     OW10648   3.821   3.853   4.023  0.5162 -0.1271  0.2434
 2644SOL    HW210649   3.754   3.897   4.075  1.0426  0.9665  0.0170
 2644SOL    HW310650   3.902   3.900   4.044  0.6703  0.6066 -1.8861
 2644SOL    MW410651   3.823   3.865   4.033  0.6058  0.1140 -0.0677
 2645SOL     OW10652   3.995   4.292   4.046  0.6116  0.4325  0.0586
 2645SOL    HW210653   4.066   4.329   4.100  0.1060  0.1539  0.9215
 2645SOL    HW310654   4.000   4.198   4.061 -0.0936  0.4333  0.3201
 2645SOL    MW410655   4.005   4.285   4.055  0.4520  0.3958  0.2069
 2646SOL     OW10656   0.020   3.978   4.146  0.0028 -0.1935 -0.1134
 2646SOL    HW210657   0.014   3.973   4.242 -0.0357  1.5879 -0.0169
 2646SOL    HW310658  -0.069   3.959   4.116 -0.6110  1.9139  0.3248
 2646SOL    MW410659   0.007   3.975   4.155 -0.0833  0.3195 -0.0429
 2647SOL     OW10660   4.290   4.604   4.035  0.1454  0.7694 -0.1803
 2647SOL    HW210661   4.234   4.675   4.065 -0.2322  0.0396  0.8878
 2647SOL    HW310662   4.265   4.529   4.089  0.0415 -0.3685 -1.7811
 2647SOL    MW410663   4.280   4.603   4.046  0.0820  0.5231 -0.2503
 2648SOL     OW10664   1.720   0.587   4.354  0.2721 -0.0232 -0.1535
 2648SOL    HW210665   1.812   0.590   4.382 -0.3497  0.8768  1.9006
 2648SOL    HW310666   1.697   0.679   4.338 -0.9043  0.0094  1.5751
 2648SOL    MW410667   1.729   0.600   4.356  0.0348  0.0998  0.3452
 2649SOL     OW10668   0.001   3.895   4.416 -0.5931 -0.1412  0.3576
 2649SOL    HW210669  -0.069   3.829   4.416 -1.4805  0.7968  0.5439
 2649SOL    HW310670   0.061   3.865   4.485 -0.7995 -0.9479  0.1987
 2649SOL    MW410671  -0.000   3.882   4.425 -0.7374 -0.1237  0.3614
 2650SOL     OW10672   4.213   2.007   4.171 -0.1912  0.5862 -0.4263
 2650SOL    HW210673   4.216   2.080   4.110 -2.9091  0.9333 -0.1915
 2650SOL    HW310674   4.175   1.935   4.121 -0.8996  0.3924  0.3763
 2650SOL    MW410675   4.208   2.007   4.157 -0.6433  0.6063 -0.2890
 2651SOL     OW10676   0.415   4.572   4.120 -0.1825 -0.0303  0.2819
 2651SOL    HW210677   0.364   4.628   4.062 -1.3167 -0.8376  0.4873
 2651SOL    HW310678   0.443   4.630   4.191  1.2770  0.9825 -1.0928
 2651SOL    MW410679   0.412   4.587   4.121 -0.1395 -0.0024  0.1278
 2652SOL     OW10680   0.664   0.418   4.429  0.4130  0.1569  0.1490
 2652SOL    HW210681   0.675   0.362   4.353 -0.3079 -2.1846  1.7264
 2652SOL    HW310682   0.719   0.378   4.497 -0.2649  1.2476  1.3765
 2652SOL    MW410683   0.673   0.405   4.428  0.2285 -0.0082  0.5188
 2653SOL     OW10684   0.061   1.500   4.505  0.4100  0.5588 -0.5128
 2653SOL    HW210685   0.094   1.413   4.482 -0.3225 -0.0232  0.6099
 2653SOL    HW310686  -0.023   1.507   4.459  0.1922  0.4493 -0.1261
 2653SOL    MW410687   0.054   1.490   4.496  0.2851  0.4674 -0.3138
 2654SOL     OW10688   0.699   4.553   4.042  0.0994 -0.2346  0.4412
 2654SOL    HW210689   0.604   4.556   4.054 -0.0244 -2.9017  0.3857
 2654SOL    HW310690   0.714   4.591   3.955 -1.0764 -1.2232 -0.2044
 2654SOL    MW410691   0.689   4.559   4.032 -0.0721 -0.7172  0.3486
 2655SOL     OW10692   0.018   1.738   4.671  0.0978  0.0852  0.2035
 2655SOL    HW210693   0.075   1.717   4.745 -1.0365 -0.3975  0.9515
 2655SOL    HW310694   0.021   1.659   4.617  1.7193  0.8072 -0.8001
 2655SOL    MW410695   0.026   1.725   4.674  0.1621  0.1168  0.1698
 2656SOL     OW10696   3.796   3.088   4.644 -0.2415 -0.1113 -0.2739
 2656SOL    HW210697   3.703   3.068   4.652 -0.7915  2.9707  2.1928
 2656SOL    HW310698   3.798   3.174   4.601  1.2597  1.3768  2.6667
 2656SOL    MW410699   3.784   3.097   4.639 -0.1159  0.4919  0.4396
 2657SOL     OW10700   1.225   1.760   4.397 -0.2087  0.3452  0.3106
 2657SOL    HW210701   1.158   1.801   4.453  0.1555  0.9609  0.3030
 2657SOL    HW310702   1.306   1.805   4.421  0.2488 -0.5808  0.5083
 2657SOL    MW410703   1.227   1.771   4.408 -0.1001  0.3042  0.3357
 2658SOL     OW10704   0.620   2.127   4.105  0.1372  0.5284 -0.0970
 2658SOL    HW210705   0.617   2.212   4.060  1.2269  0.5743 -0.1060
 2658SOL    HW310706   0.639   2.149   4.196  0.2860  0.3044 -0.0735
 2658SOL    MW410707   0.622   2.141   4.111  0.3006  0.5052 -0.0954
 2659SOL     OW10708   2.892   1.481   4.455 -0.1907  0.5924 -0.0125
 2659SOL    HW210709   2.915   1.459   4.364  2.4613 -0.3897  0.8635
 2659SOL    HW310710   2.881   1.397   4.498  1.7788  0.9964  1.3390
 2659SOL    MW410711   2.894   1.467   4.448  0.4194  0.5162  0.2813
 2660SOL     OW10712   1.069   0.598   4.435 -0.6013 -0.0619  0.3901
 2660SOL    HW210713   1.073   0.572   4.528  0.0427  0.2416  0.4490
 2660SOL    HW310714   1.149   0.648   4.421 -0.6821 -0.1413 -0.3460
 2660SOL    MW410715   1.080   0.601   4.446 -0.5268 -0.0324  0.3004
 2661SOL     OW10716   4.467   1.969   4.072 -0.0783 -0.3688  0.0594
 2661SOL    HW210717   4.384   1.962   4.118  0.2213  0.0843  0.6810
 2661SOL    HW310718   4.503   1.880   4.072 -1.3791 -0.9334 -1.7924
 2661SOL    MW410719   4.461   1.957   4.078 -0.2103 -0.3835 -0.1030
 2662SOL     OW10720   1.224   1.894   4.047  0.4890 -0.1210  0.1940
 2662SOL    HW210721   1.150   1.926   4.098  0.5600  0.5908 -0.1365
 2662SOL    HW310722   1.220   1.799   4.055 -1.1688 -0.1490 -0.8188
 2662SOL    MW410723   1.214   1.886   4.055  0.2797 -0.0308  0.0167
 2663SOL     OW10724   0.491   1.989   4.531 -0.3305 -0.1777 -0.2045
 2663SOL    HW210725   0.405   2.027   4.513 -0.4150 -0.4260 -0.3301
 2663SOL    HW310726   0.472   1.899   4.557 -0.1366 -0.1106  0.1642
 2663SOL    MW410727   0.477   1.982   4.532 -0.3160 -0.2017 -0.1721
 2664SOL     OW10728   1.145   3.239   4.331  0.0137  0.0641  0.0399
 2664SOL    HW210729   1.224   3.212   4.284 -0.1646 -1.9291  0.8357
 2664SOL    HW310730   1.127   3.327   4.299  1.6699 -0.0612 -1.3021
 2664SOL    MW410731   1.153   3.247   4.321  0.2086 -0.2158 -0.0324
 2665SOL     OW10732   0.190   3.470   4.400  0.2137 -0.1577  0.2808
 2665SOL    HW210733   0.182   3.375   4.391  0.1251 -0.1108 -0.1176
 2665SOL    HW310734   0.107   3.497   4.439  0.2791 -0.2551  0.4884
 2665SOL    MW410735   0.178   3.461   4.404  0.2106 -0.1643  0.2556
 2666SOL     OW10736   4.169   4.298   4.607 -0.0765 -0.1230 -0.2008
 2666SOL    HW210737   4.091   4.243   4.613  1.0572 -1.6450  1.1480
 2666SOL    HW310738   4.238   4.238   4.576  0.7950  0.9374 -0.3480
 2666SOL    MW410739   4.168   4.283   4.604  0.1874 -0.1841 -0.0420
 2667SOL     OW10740   4.172   0.846   4.534  0.1699 -0.3088  0.2090
 2667SOL    HW210741   4.077   0.853   4.523  0.2106 -1.1826 -0.6705
 2667SOL    HW310742   4.203   0.799   4.457  1.3652  0.2514  0.3264
 2667SOL    MW410743   4.164   0.841   4.522  0.3333 -0.3502  0.1082
 2668SOL     OW10744   0.017   0.458   4.265 -0.1544  0.0009  0.2437
 2668SOL    HW210745  -0.028   0.378   4.295  2.0169 -1.8055 -1.2483
 2668SOL    HW310746   0.012   0.454   4.170 -0.2073  1.7845  0.1629
 2668SOL    MW410747   0.010   0.447   4.257  0.1249 -0.0021  0.0362
 2669SOL     OW10748   2.560   0.145   4.394 -0.6709  0.7994 -0.4780
 2669SOL    HW210749   2.519   0.059   4.404  0.2220  0.3738 -0.3536
 2669SOL    HW310750   2.621   0.151   4.468 -1.2628  1.8521 -0.0713
 2669SOL    MW410751   2.563   0.134   4.405 -0.6311  0.8821 -0.4077
 2670SOL     OW10752   3.795   0.376   4.278 -0.2163  0.6910  0.5148
 2670SOL    HW210753   3.879   0.419   4.265 -0.1373  0.8375  1.4971
 2670SOL    HW310754   3.758   0.418   4.355 -0.6516 -0.2138  0.8078
 2670SOL    MW410755   3.801   0.387   4.286 -0.2632  0.5909  0.6833
 2671SOL     OW10756   0.749   4.361   4.486  0.6266  0.1881  0.8590
 2671SOL    HW210757   0.813   4.290   4.490  0.3438 -0.1400 -0.1762
 2671SOL    HW310758   0.667   4.321   4.516 -0.3912 -0.9786 -3.0591
 2671SOL    MW410759   0.747   4.346   4.490  0.4550 -0.0095  0.2055
 2672SOL     OW10760   0.469   0.304   4.030  0.1696 -0.0532  0.2383
 2672SOL    HW210761   0.478   0.312   3.935 -1.4605  0.2585  0.0987
 2672SOL    HW310762   0.452   0.394   4.060 -0.7636 -0.3697  0.6622
 2672SOL    MW410763   0.468   0.317   4.021 -0.1686 -0.0538  0.2761
 2673SOL     OW10764   0.859   1.706   4.434 -0.0658  0.1642  0.1755
 2673SOL    HW210765   0.925   1.753   4.484  0.9003 -0.1018 -0.8234
 2673SOL    HW310766   0.873   1.734   4.344 -0.8705 -0.4090 -0.1340
 2673SOL    MW410767   0.870   1.716   4.429 -0.0444  0.0536  0.0029
 2674SOL     OW10768   0.805   0.665   4.321 -0.4313 -0.2172 -0.5508
 2674SOL    HW210769   0.894   0.659   4.354  0.1848 -0.1813 -2.1509
 2674SOL    HW310770   0.763   0.583   4.347  0.0846 -0.2629  0.1378
 2674SOL    MW410771   0.811   0.654   4.329 -0.2820 -0.2184 -0.6709
 2675SOL     OW10772   0.251   1.559   4.048  0.4409  0.4082  0.2934
 2675SOL    HW210773   0.229   1.470   4.074 -0.2313  0.3918 -0.3442
 2675SOL    HW310774   0.169   1.608   4.058  0.1346  0.3743 -1.9482
 2675SOL    MW410775   0.237   1.554   4.053  0.3118  0.4016 -0.0868
 2676SOL     OW10776   0.283   0.520   4.395  0.0758  0.1354  0.2620
 2676SOL    HW210777   0.267   0.612   4.418 -0.7088  0.0085  0.2439
 2676SOL    HW310778   0.204   0.493   4.348  0.8865 -0.1398 -0.9808
 2676SOL    MW410779   0.270   0.529   4.392  0.0792  0.0824  0.0963
 2677SOL     OW10780   2.799   1.491   4.007  0.1387 -0.5405  0.2997
 2677SOL    HW210781   2.705   1.478   4.007  0.1702 -0.8536 -1.4945
 2677SOL    HW310782   2.831   1.442   4.083 -1.0793 -0.7561  0.6742
 2677SOL    MW410783   2.791   1.483   4.017 -0.0179 -0.6104  0.1130
 2678SOL     OW10784   0.945   1.400   4.433 -0.5797 -0.1360  0.2246
 2678SOL    HW210785   0.905   1.380   4.348 -0.6984 -0.3657  0.3338
 2678SOL    HW310786   0.920   1.490   4.451 -1.9993 -0.6303  0.8193
 2678SOL    MW410787   0.936   1.409   4.424 -0.7827 -0.2315  0.3171
 2679SOL     OW10788   0.633   3.458   4.188 -0.1040  0.0212 -0.0737
 2679SOL    HW210789   0.622   3.518   4.262  2.0152  1.3078 -0.7824
 2679SOL    HW310790   0.665   3.377   4.228 -2.0540 -0.3772  0.7641
 2679SOL    MW410791   0.636   3.455   4.203 -0.0817  0.1383 -0.0567
 2680SOL     OW10792   0.493   1.678   4.152  0.0631 -0.3772  0.6385
 2680SOL    HW210793   0.402   1.646   4.149 -0.1798  0.4388 -0.6587
 2680SOL    HW310794   0.491   1.762   4.108  1.3554 -0.0740  1.1362
 2680SOL    MW410795   0.480   1.685   4.146  0.2016 -0.2296  0.5331
 2681SOL     OW10796   4.296   2.005   4.472 -0.1907  0.3244 -0.1197
 2681SOL    HW210797   4.294   1.982   4.379  0.2974 -0.0988 -0.0309
 2681SOL    HW310798   4.289   2.100   4.473  0.6759  0.4054 -0.6347
 2681SOL    MW410799   4.295   2.015   4.460 -0.0119  0.2792 -0.1760
 2682SOL     OW10800   1.282   3.690   4.466  0.0747 -0.2476 -0.1824
 2682SOL    HW210801   1.287   3.664   4.374 -2.8627 -0.4866 -0.3134
 2682SOL    HW310802   1.278   3.786   4.464 -1.0551 -0.2880 -0.3950
 2682SOL    MW410803   1.282   3.699   4.453 -0.4618 -0.2844 -0.2275
 2683SOL     OW10804   4.299   1.081   4.472  0.4377 -0.5350 -0.1318
 2683SOL    HW210805   4.393   1.076   4.490  0.1073 -0.5481  1.6634
 2683SOL    HW310806   4.263   1.000   4.507 -0.6247  0.7021  1.7248
 2683SOL    MW410807   4.307   1.070   4.479  0.2537 -0.3734  0.3495
 2684SOL     OW10808   1.555   3.006   4.048 -0.2011  0.2881  0.1340
 2684SOL    HW210809   1.515   3.072   4.105 -1.5862 -1.7208  1.5426
 2684SOL    HW310810   1.649   3.015   4.065 -0.2725  2.5189 -0.4210
 2684SOL    MW410811   1.562   3.016   4.058 -0.3933  0.3176  0.2470
 2685SOL     OW10812   3.755   3.317   4.484 -0.2332 -0.5665  0.2630
 2685SOL    HW210813   3.840   3.360   4.495 -0.7881  0.6621 -0.1905
 2685SOL    HW310814   3.692   3.378   4.522 -0.8390 -1.8605  1.3962
 2685SOL    MW410815   3.758   3.330   4.490 -0.3865 -0.5751  0.3524
 2686SOL     OW10816   3.548   2.957   4.605  0.2891 -0.4473 -0.1587
 2686SOL    HW210817   3.571   2.878   4.557 -0.1644 -0.3579 -0.5280
 2686SOL    HW310818   3.467   2.935   4.650  1.1685 -0.8155  1.2699
 2686SOL    MW410819   3.540   2.944   4.604  0.3455 -0.4838 -0.0191
 2687SOL     OW10820   3.539   1.298   4.179  0.0500  0.7643 -0.6548
 2687SOL    HW210821   3.539   1.374   4.120  1.2810  0.1680 -1.4538
 2687SOL    HW310822   3.594   1.325   4.253  1.9502  0.0632 -1.7671
 2687SOL    MW410823   3.546   1.312   4.181  0.4628  0.5931 -0.9069
 2688SOL     OW10824   3.445   1.015   4.538  0.0734  0.0806  0.0857
 2688SOL    HW210825   3.367   0.988   4.587  0.3645  0.2277  0.6385
 2688SOL    HW310826   3.412   1.040   4.452 -0.4784  0.0533  0.2878
 2688SOL    MW410827   3.430   1.015   4.533  0.0389  0.0964  0.1855
 2689SOL     OW10828   4.264   3.729   4.427 -0.0849  0.0956 -0.4622
 2689SOL    HW210829   4.266   3.678   4.346 -1.8534 -0.8563  0.0681
 2689SOL    HW310830   4.172   3.730   4.452  0.7322 -1.7806  2.8751
 2689SOL    MW410831   4.252   3.722   4.419 -0.2112 -0.2775  0.0486
 2690SOL     OW10832   4.352   0.011   4.569 -0.3089 -0.4086  0.3461
 2690SOL    HW210833   4.362  -0.005   4.663 -1.0706  0.4718  0.5880
 2690SOL    HW310834   4.422  -0.039   4.528  0.5345 -0.1508  1.4511
 2690SOL    MW410835   4.363   0.002   4.576 -0.2975 -0.2584  0.5240
 2691SOL     OW10836   0.509   3.939   4.114 -0.1917 -0.0640 -0.4048
 2691SOL    HW210837   0.413   3.932   4.112 -0.0869 -1.3741 -1.6525
 2691SOL    HW310838   0.528   4.023   4.073 -0.8875  1.0610  1.5584
 2691SOL    MW410839   0.499   3.949   4.108 -0.2697 -0.0882 -0.3109
 2692SOL     OW10840   0.456   4.274   4.488 -0.2429 -0.1414  0.2992
 2692SOL    HW210841   0.447   4.188   4.530 -0.9305 -0.5068 -0.5888
 2692SOL    HW310842   0.419   4.262   4.401 -1.0215  1.2661  0.4335
 2692SOL    MW410843   0.450   4.261   4.482 -0.4363 -0.0038  0.1998
 2693SOL     OW10844   1.523   0.138   4.320  0.1493 -0.1674  0.1235
 2693SOL    HW210845   1.599   0.096   4.361  0.5964 -0.3809 -0.9167
 2693SOL    HW310846   1.551   0.227   4.302  0.2440 -0.3225 -0.5018
 2693SOL    MW410847   1.537   0.144   4.323  0.2208 -0.2160 -0.0958
 2694SOL     OW10848   1.278   4.498   4.513  0.1336  0.2882 -0.0800
 2694SOL    HW210849   1.244   4.587   4.503  0.4458  0.2273 -1.8530
 2694SOL    HW310850   1.373   4.508   4.504  0.1774 -0.2136 -0.1682
 2694SOL    MW410851   1.286   4.511   4.511  0.1805  0.2141 -0.3257
 2695SOL     OW10852   2.287   3.481   4.513  0.5468 -0.6344  0.0621
 2695SOL    HW210853   2.226   3.540   4.469  0.8871 -1.5517 -1.6758
 2695SOL    HW310854   2.322   3.533   4.586 -0.5242  0.6879 -0.3414
 2695SOL    MW410855   2.283   3.496   4.517  0.4504 -0.5805 -0.2198
 2696SOL     OW10856   1.008   3.698   4.554 -0.1084 -0.4233 -0.0696
 2696SOL    HW210857   1.090   3.694   4.504  0.0656  0.6300  0.1179
 2696SOL    HW310858   1.036   3.714   4.644 -0.4448 -1.8893  0.3138
 2696SOL    MW410859   1.023   3.699   4.559 -0.1298 -0.4776  0.0057
 2697SOL     OW10860   0.859   2.639   4.577  0.1727  0.0979  0.5504
 2697SOL    HW210861   0.787   2.660   4.518  2.5241  0.6280 -2.2451
 2697SOL    HW310862   0.890   2.553   4.548  0.0814 -0.5853  2.3627
 2697SOL    MW410863   0.854   2.630   4.566  0.4709  0.0777  0.4210
 2698SOL     OW10864   1.875   2.931   4.412 -0.0494  0.4588 -0.2315
 2698SOL    HW210865   1.931   2.999   4.450 -0.2012  1.4061 -1.7014
 2698SOL    HW310866   1.863   2.957   4.321  0.0762 -1.6458 -0.8852
 2698SOL    MW410867   1.881   2.943   4.405 -0.0528  0.3061 -0.5116
 2699SOL     OW10868   1.233   1.059   4.516  0.1579 -0.0304  0.0011
 2699SOL    HW210869   1.138   1.073   4.518  0.2344  0.4429  0.3513
 2699SOL    HW310870   1.265   1.099   4.597  0.5813 -0.7627  0.1969
 2699SOL    MW410871   1.225   1.066   4.527  0.2240 -0.0647  0.0734
 2700SOL     OW10872   0.448   0.990   4.429 -0.1182  0.2708 -0.1533
 2700SOL    HW210873   0.542   0.974   4.442 -0.1449  0.5040  0.3654
 2700SOL    HW310874   0.443   1.079   4.395 -0.1804  0.4604  0.3420
 2700SOL    MW410875   0.460   0.999   4.426 -0.1299  0.3266 -0.0191
 2701SOL     OW10876   0.071   1.932   4.489 -0.3871  0.2274  0.4026
 2701SOL    HW210877   0.067   1.877   4.567 -1.3944 -0.9402 -0.4409
 2701SOL    HW310878  -0.015   1.975   4.485  0.1388  1.3251  0.6599
 2701SOL    MW410879   0.059   1.930   4.499 -0.4506  0.2183  0.3252
 2702SOL     OW10880   1.025   0.331   4.374  0.3091  0.1212  0.5180
 2702SOL    HW210881   1.060   0.302   4.290 -0.0468 -1.0250  0.7559
 2702SOL    HW310882   1.068   0.414   4.391  1.3678 -0.2831 -0.1777
 2702SOL    MW410883   1.035   0.338   4.365  0.4017 -0.0834  0.4578
 2703SOL     OW10884   1.513   1.876   4.437 -0.2697  0.5953 -0.2542
 2703SOL    HW210885   1.460   1.955   4.449  1.2221  1.4267  1.0727
 2703SOL    HW310886   1.603   1.905   4.452  0.5802 -0.8004 -2.4049
 2703SOL    MW410887   1.518   1.890   4.441  0.0393  0.5207 -0.3629
 2704SOL     OW10888   3.998   2.228   4.555  0.0274 -0.3575 -0.0842
 2704SOL    HW210889   3.927   2.182   4.601  1.1458 -0.1612  1.8880
 2704SOL    HW310890   3.977   2.321   4.567  0.0720 -0.3111 -0.3781
 2704SOL    MW410891   3.986   2.235   4.563  0.1810 -0.3257  0.1369
 2705SOL     OW10892   3.579   0.307   4.081 -0.3241  0.1966 -0.0758
 2705SOL    HW210893   3.613   0.323   3.993 -0.2183 -1.2344 -0.3046
 2705SOL    HW310894   3.654   0.321   4.139  0.1049 -0.7386 -0.3899
 2705SOL    MW410895   3.594   0.311   4.077 -0.2532 -0.1156 -0.1473
 2706SOL     OW10896   2.348   2.290   4.769  0.3137  0.1157 -0.2498
 2706SOL    HW210897   2.443   2.295   4.760  0.5751 -0.9334  1.7325
 2706SOL    HW310898   2.326   2.356   4.834 -0.3770  0.5617 -0.9144
 2706SOL    MW410899   2.358   2.299   4.776  0.2573  0.0360 -0.0758
 2707SOL     OW10900   2.526   3.466   4.377 -0.0644 -0.1892 -0.0604
 2707SOL    HW210901   2.436   3.460   4.408  0.3536  0.0630  1.2350
 2707SOL    HW310902   2.567   3.385   4.407 -0.0407 -0.6196 -1.2589
 2707SOL    MW410903   2.519   3.455   4.385 -0.0060 -0.2129 -0.0482
 2708SOL     OW10904   1.850   3.865   4.462  0.2169  0.2195 -0.2907
 2708SOL    HW210905   1.930   3.820   4.488  0.2867  0.2538 -0.4459
 2708SOL    HW310906   1.785   3.838   4.527  0.3357  0.1335 -0.2074
 2708SOL    MW410907   1.852   3.856   4.474  0.2419  0.2124 -0.3004
 2709SOL     OW10908   0.876   4.554   4.295  0.0523 -0.2148  0.3936
 2709SOL    HW210909   0.848   4.573   4.205 -0.5164  1.3691  0.9007
 2709SOL    HW310910   0.808   4.496   4.330 -0.5095  0.3972  0.3080
 2709SOL    MW410911   0.863   4.549   4.287 -0.0969  0.0749  0.4487
 2710SOL     OW10912   1.474   4.055   4.623 -0.5181 -0.4898 -0.3270
 2710SOL    HW210913   1.516   4.141   4.617 -0.4488 -0.4849  0.1371
 2710SOL    HW310914   1.383   4.074   4.645  0.2394 -0.5834  3.3387
 2710SOL    MW410915   1.468   4.069   4.625 -0.4090 -0.5016  0.2179
 2711SOL     OW10916   0.542   2.419   4.380  0.6419  0.0741  0.1692
 2711SOL    HW210917   0.571   2.508   4.400  0.1654  0.6466 -1.6134
 2711SOL    HW310918   0.461   2.409   4.430 -0.1443  1.2055 -0.8718
 2711SOL    MW410919   0.536   2.430   4.390  0.4753  0.2990 -0.2031
 2712SOL     OW10920   1.848   2.648   4.538  0.3138 -0.3924 -0.1698
 2712SOL    HW210921   1.938   2.616   4.541  0.1737 -0.7982 -0.2786
 2712SOL    HW310922   1.857   2.743   4.539  0.6919 -0.4296  1.2769
 2712SOL    MW410923   1.861   2.656   4.538  0.3452 -0.4508  0.0067
 2713SOL     OW10924   1.933   2.369   4.066 -0.3297  0.1860  0.3671
 2713SOL    HW210925   1.961   2.355   3.976  1.0636 -0.4458  0.8844
 2713SOL    HW310926   1.989   2.312   4.118 -0.5520  1.1534  1.7106
 2713SOL    MW410927   1.944   2.360   4.061 -0.1754  0.2303  0.6127
 2714SOL     OW10928   0.627   3.655   4.411  0.1031  0.3241  0.2207
 2714SOL    HW210929   0.548   3.645   4.465 -1.2614  0.6939 -1.6609
 2714SOL    HW310930   0.641   3.749   4.406 -0.2859  0.3337 -0.7752
 2714SOL    MW410931   0.618   3.666   4.417 -0.1282  0.3743 -0.1588
 2715SOL     OW10932   1.006   4.230   4.188  0.1184 -0.6688 -0.2067
 2715SOL    HW210933   1.053   4.313   4.193  0.5891 -0.9061 -0.7443
 2715SOL    HW310934   1.074   4.165   4.169 -0.0142 -1.3875  1.6688
 2715SOL    MW410935   1.021   4.232   4.186  0.1631 -0.7954 -0.0305
 2716SOL     OW10936   1.646   0.864   4.292 -0.1572 -0.0811 -0.2057
 2716SOL    HW210937   1.576   0.929   4.291  0.5549  0.7016 -0.1037
 2716SOL    HW310938   1.705   0.891   4.221  1.2065  0.5961  1.1488
 2716SOL    MW410939   1.644   0.876   4.282  0.1167  0.1115 -0.0138
 2717SOL     OW10940   0.894   3.885   4.374 -0.2302  0.1477  0.1887
 2717SOL    HW210941   0.908   3.845   4.288 -0.9694  1.0048 -0.3372
 2717SOL    HW310942   0.935   3.824   4.435  0.2572 -0.4987 -0.7644
 2717SOL    MW410943   0.901   3.872   4.371 -0.2635  0.1757 -0.0067
 2718SOL     OW10944   1.866   4.112   4.150 -0.0372  0.5748  0.3401
 2718SOL    HW210945   1.862   4.123   4.245 -0.8180  0.4633  0.3189
 2718SOL    HW310946   1.849   4.200   4.115  1.6002  0.9165  0.3132
 2718SOL    MW410947   1.863   4.125   4.158  0.0758  0.6051  0.3343
 2719SOL     OW10948   2.203   0.802   4.451  0.1770  0.0440 -0.0320
 2719SOL    HW210949   2.158   0.880   4.484 -0.2037  0.3012 -1.1455
 2719SOL    HW310950   2.224   0.823   4.360 -0.3120 -1.3014 -0.4662
 2719SOL    MW410951   2.200   0.815   4.444  0.0622 -0.0996 -0.2360
 2720SOL     OW10952   1.137   3.710   4.806  0.0687 -0.1751 -0.6267
 2720SOL    HW210953   1.209   3.730   4.747  1.4474  0.4891  1.2083
 2720SOL    HW310954   1.149   3.617   4.828  0.6230  0.0263 -0.0343
 2720SOL    MW410955   1.148   3.700   4.801  0.3237 -0.0608 -0.3066
 2721SOL     OW10956   3.864   1.672   4.053 -0.0832  0.3287  0.3529
 2721SOL    HW210957   3.873   1.604   4.120 -0.3961  0.0562  0.1223
 2721SOL    HW310958   3.819   1.744   4.098  0.1849  0.3543  0.5796
 2721SOL    MW410959   3.859   1.673   4.068 -0.0887  0.2961  0.3529
 2722SOL     OW10960   1.497   1.087   4.323  0.8782  0.1271  0.1533
 2722SOL    HW210961   1.419   1.069   4.376  1.0850 -3.3997 -0.6519
 2722SOL    HW310962   1.549   1.146   4.378 -1.1479  0.4525  1.8053
 2722SOL    MW410963   1.494   1.093   4.337  0.6382 -0.2953  0.2651
 2723SOL     OW10964   0.260   0.801   4.419 -0.1821  0.1256 -0.0348
 2723SOL    HW210965   0.343   0.848   4.428 -0.0889  0.0682 -0.5664
 2723SOL    HW310966   0.224   0.830   4.335  0.2710 -1.3570 -0.7660
 2723SOL    MW410967   0.266   0.811   4.409 -0.1101 -0.0776 -0.2012
 2724SOL     OW10968   2.015   1.915   4.279 -0.0159 -0.4997  0.0243
 2724SOL    HW210969   2.034   1.995   4.230 -3.1438  0.6891  0.6023
 2724SOL    HW310970   2.072   1.919   4.356  0.2198  0.9300 -0.2121
 2724SOL    MW410971   2.025   1.926   4.283 -0.3974 -0.1543  0.0691
 2725SOL     OW10972   1.133   4.492   4.265 -0.1327 -0.0111  0.0845
 2725SOL    HW210973   1.044   4.528   4.272 -0.1133  0.0407  0.0585
 2725SOL    HW310974   1.167   4.495   4.354 -1.1977 -2.6564  0.6365
 2725SOL    MW410975   1.126   4.497   4.278 -0.2707 -0.3533  0.1540
 2726SOL     OW10976   1.651   3.809   4.638  0.2472 -0.3429  0.5427
 2726SOL    HW210977   1.589   3.739   4.653  1.0212 -1.2763 -0.5106
 2726SOL    HW310978   1.597   3.888   4.634 -0.8639 -1.1218 -0.2703
 2726SOL    MW410979   1.636   3.810   4.639  0.2029 -0.5691  0.2966
 2727SOL     OW10980   1.631   3.449   4.503  0.2033  0.0266  0.4599
 2727SOL    HW210981   1.714   3.411   4.530  1.2065  1.4789 -0.4893
 2727SOL    HW310982   1.578   3.374   4.475  1.5584 -0.8217  0.1160
 2727SOL    MW410983   1.635   3.434   4.503  0.5143  0.1063  0.2894
 2728SOL     OW10984   1.481   2.366   4.007 -0.3242  0.0665 -0.6392
 2728SOL    HW210985   1.452   2.279   4.034 -1.8200  0.5064 -0.7680
 2728SOL    HW310986   1.525   2.351   3.923 -0.1055 -0.6317 -0.4036
 2728SOL    MW410987   1.483   2.352   3.999 -0.4928  0.0319 -0.6251
 2729SOL     OW10988   0.518   2.961   4.156  0.1866 -0.2004  0.0452
 2729SOL    HW210989   0.493   2.969   4.248 -1.2671 -1.4913 -0.2112
 2729SOL    HW310990   0.466   2.887   4.124  1.7008 -0.6487 -1.4561
 2729SOL    MW410991   0.508   2.952   4.164  0.1946 -0.4301 -0.1869
 2730SOL     OW10992   1.031   1.886   4.594 -0.2805 -0.0722  0.2653
 2730SOL    HW210993   1.007   1.970   4.555  0.5504 -0.3170 -0.8399
 2730SOL    HW310994   1.059   1.907   4.683 -0.3204  0.7915  0.0776
 2730SOL    MW410995   1.032   1.900   4.600 -0.1762  0.0095  0.0949
 2731SOL     OW10996   0.813   3.485   4.514  0.3918  0.4090  0.2779
 2731SOL    HW210997   0.885   3.543   4.537  0.9727  0.3124 -1.2600
 2731SOL    HW310998   0.742   3.544   4.488  1.3217  0.4507 -2.2913
 2731SOL    MW410999   0.813   3.500   4.514  0.5911  0.4017 -0.2637
 2732SOL     OW11000   1.577   3.778   4.116  0.8822 -0.2802  0.0159
 2732SOL    HW211001   1.586   3.711   4.048  0.2577  0.0026 -0.3509
 2732SOL    HW311002   1.624   3.743   4.191  0.0270 -1.4099  0.0366
 2732SOL    MW411003   1.585   3.765   4.117  0.6870 -0.3917 -0.0296
 2733SOL     OW11004   0.667   2.160   4.379 -0.0112  0.3053 -0.2514
 2733SOL    HW211005   0.631   2.247   4.396  0.0361 -0.0137  1.5610
 2733SOL    HW311006   0.609   2.101   4.427 -0.1339 -0.6994 -1.5993
 2733SOL    MW411007   0.654   2.164   4.387 -0.0212  0.1307 -0.1907
 2734SOL     OW11008   0.947   2.418   4.424 -0.2217 -0.0855 -0.3032
 2734SOL    HW211009   1.041   2.438   4.426 -0.3251  0.3872  0.1961
 2734SOL    HW311010   0.921   2.433   4.333  0.1155  0.1252 -0.3660
 2734SOL    MW411011   0.956   2.423   4.413 -0.1909  0.0045 -0.2456
 2735SOL     OW11012   0.922   3.723   4.120  0.2042 -0.1591  0.0026
 2735SOL    HW211013   0.937   3.631   4.142  1.0562  0.4357  2.0274
 2735SOL    HW311014   0.831   3.726   4.088 -0.5399 -1.3824  1.9037
 2735SOL    MW411015   0.912   3.712   4.119  0.2185 -0.2422  0.5202
 2736SOL     OW11016   2.278   3.212   4.398 -0.4047  0.2634 -0.0245
 2736SOL    HW211017   2.284   3.290   4.453 -0.6900 -0.0281  0.4140
 2736SOL    HW311018   2.351   3.157   4.426 -0.5507  0.1138  0.0600
 2736SOL    MW411019   2.289   3.215   4.409 -0.4613  0.2050  0.0448
 2737SOL     OW11020   1.821   2.641   4.051  0.1430  0.6349 -0.0091
 2737SOL    HW211021   1.863   2.688   4.123 -0.1928 -0.4445  0.9072
 2737SOL    HW311022   1.870   2.559   4.045 -1.2156 -0.2311  0.4517
 2737SOL    MW411023   1.833   2.636   4.060 -0.0806  0.3781  0.1726
 2738SOL     OW11024   1.443   1.366   4.608 -0.4733  0.0554 -0.4032
 2738SOL    HW211025   1.492   1.445   4.586 -2.0982  1.3481  0.4981
 2738SOL    HW311026   1.355   1.382   4.575 -0.8728 -1.2814 -0.0215
 2738SOL    MW411027   1.438   1.378   4.601 -0.7405  0.0497 -0.2346
 2739SOL     OW11028   2.379   2.382   4.043 -0.6199 -0.4063  0.4403
 2739SOL    HW211029   2.408   2.387   4.135  1.9710  1.4843 -0.4254
 2739SOL    HW311030   2.340   2.468   4.026  0.7991  0.0015 -0.8120
 2739SOL    MW411031   2.377   2.394   4.053 -0.0911 -0.1032  0.1602
 2740SOL     OW11032   3.532   3.485   4.561 -0.0047  0.0418  0.0322
 2740SOL    HW211033   3.446   3.514   4.530  0.0531 -1.1524 -1.3380
 2740SOL    HW311034   3.513   3.433   4.639 -0.3923  0.8982  0.5197
 2740SOL    MW411035   3.518   3.482   4.567 -0.0479 -0.0029 -0.0849
 2741SOL     OW11036   0.530   4.200   4.017  0.3896 -0.2355  0.0772
 2741SOL    HW211037   0.498   4.218   3.928  0.6511 -0.5589 -0.0853
 2741SOL    HW311038   0.622   4.228   4.015  0.3875 -0.2190  0.2519
 2741SOL    MW411039   0.538   4.206   4.005  0.4238 -0.2756  0.0787
 2742SOL     OW11040   2.270   4.317   4.497  0.3529  0.2473  0.5531
 2742SOL    HW211041   2.333   4.250   4.521 -0.0609 -0.5390 -0.5609
 2742SOL    HW311042   2.320   4.399   4.499  0.5109  0.1421  3.4106
 2742SOL    MW411043   2.285   4.319   4.501  0.3190  0.1297  0.7830
 2743SOL     OW11044   2.116   2.572   4.506 -0.0031  0.1622  0.1464
 2743SOL    HW211045   2.210   2.585   4.518 -0.0016  0.7913 -0.4895
 2743SOL    HW311046   2.108   2.480   4.479  0.3614 -0.0758  0.8284
 2743SOL    MW411047   2.127   2.561   4.504  0.0451  0.2139  0.1531
 2744SOL     OW11048   2.910   0.629   4.515  0.0522 -0.2219 -0.0338
 2744SOL    HW211049   2.896   0.536   4.497 -2.5726 -0.2149  1.7544
 2744SOL    HW311050   2.822   0.667   4.515  0.8778  1.7767  1.8378
 2744SOL    MW411051   2.896   0.622   4.513 -0.1853  0.0428  0.4492
 2745SOL     OW11052   1.365   4.254   3.795 -0.1957  0.0755 -0.5876
 2745SOL    HW211053   1.282   4.293   3.768 -0.1380 -0.1803 -1.1400
 2745SOL    HW311054   1.432   4.314   3.763 -0.1337 -0.1158 -0.8087
 2745SOL    MW411055   1.363   4.267   3.787 -0.1800  0.0162 -0.6895
 2746SOL     OW11056   2.882   0.364   4.460 -0.0391  0.4935 -0.4493
 2746SOL    HW211057   2.878   0.348   4.366 -0.1926 -1.0922 -0.1953
 2746SOL    HW311058   2.861   0.279   4.499  1.3845  0.7883  1.0040
 2746SOL    MW411059   2.879   0.350   4.453  0.1285  0.3232 -0.2241
 2747SOL     OW11060   1.777   4.357   4.039  0.3778 -0.3276  0.0421
 2747SOL    HW211061   1.686   4.367   4.068  0.2298 -1.6854  0.0594
 2747SOL    HW311062   1.770   4.324   3.950  0.8549  0.8377 -0.4331
 2747SOL    MW411063   1.764   4.354   4.031  0.4214 -0.3533 -0.0181
 2748SOL     OW11064   1.860   0.303   4.069  0.3278 -0.1229 -0.3089
 2748SOL    HW211065   1.915   0.225   4.078  0.9362  0.2744 -0.5611
 2748SOL    HW311066   1.920   0.376   4.084 -0.6116  0.2576  1.7879
 2748SOL    MW411067   1.875   0.302   4.072  0.2841 -0.0203 -0.0653
 2749SOL     OW11068   1.495   1.566   4.003  0.4821  0.2682 -0.1235
 2749SOL    HW211069   1.426   1.518   4.050 -0.1902  1.0741 -0.2872
 2749SOL    HW311070   1.496   1.652   4.044  0.7862  0.5435 -0.7197
 2749SOL    MW411071   1.486   1.571   4.015  0.4336  0.4107 -0.2236
 2750SOL     OW11072   0.764   2.866   4.226  0.4019  0.2959 -0.2383
 2750SOL    HW211073   0.809   2.945   4.258 -0.1959  0.3993  0.3671
 2750SOL    HW311074   0.677   2.896   4.203  0.4294 -0.0369 -0.7703
 2750SOL    MW411075   0.759   2.880   4.227  0.3267  0.2656 -0.2284
 2751SOL     OW11076   1.887   1.202   4.066  0.2450  0.2485  0.1883
 2751SOL    HW211077   1.962   1.205   4.125  0.6010  1.1226 -0.3010
 2751SOL    HW311078   1.827   1.269   4.100 -0.2926 -0.4179  0.5525
 2751SOL    MW411079   1.889   1.211   4.078  0.2210  0.2759  0.1717
 2752SOL     OW11080   1.426   2.067   4.087  0.3269  0.1497 -0.0684
 2752SOL    HW211081   1.417   2.094   4.179 -0.4761  0.3195 -0.1907
 2752SOL    HW311082   1.349   2.012   4.071 -0.2454  1.1850 -1.0045
 2752SOL    MW411083   1.414   2.063   4.097  0.1456  0.3088 -0.2074
 2753SOL     OW11084   2.146   1.739   4.630  0.4065  0.4778 -0.4550
 2753SOL    HW211085   2.117   1.649   4.613 -0.2992  0.9125 -1.5655
 2753SOL    HW311086   2.065   1.788   4.646  0.9114  0.4414  2.6473
 2753SOL    MW411087   2.131   1.733   4.630  0.3800  0.5305 -0.1926
 2754SOL     OW11088   2.402   0.898   4.641 -0.7936  0.2138  0.4192
 2754SOL    HW211089   2.352   0.861   4.569  0.1100 -0.2715  0.0318
 2754SOL    HW311090   2.435   0.981   4.607 -1.8991  0.8663  0.9101
 2754SOL    MW411091   2.400   0.904   4.627 -0.8202  0.2359  0.4325
 2755SOL     OW11092   2.505   1.246   4.118  0.2551 -0.1097  0.1162
 2755SOL    HW211093   2.521   1.272   4.209  0.0845  1.4948 -0.3045
 2755SOL    HW311094   2.586   1.201   4.092  0.4146 -0.3222  0.9694
 2755SOL    MW411095   2.518   1.244   4.127  0.2534  0.0739  0.1731
 2756SOL     OW11096   1.899   4.526   4.228 -0.2330  0.6804  0.1597
 2756SOL    HW211097   1.950   4.460   4.276  0.0107  0.8779  0.1707
 2756SOL    HW311098   1.858   4.477   4.157  0.0781  0.5443  0.0731
 2756SOL    MW411099   1.901   4.511   4.225 -0.1596  0.6886  0.1497
 2757SOL     OW11100   1.594   2.572   4.184 -0.0655 -0.2222  0.1477
 2757SOL    HW211101   1.671   2.596   4.132 -0.8436  1.3761 -0.3033
 2757SOL    HW311102   1.564   2.489   4.146 -0.2490  0.5982 -1.5840
 2757SOL    MW411103   1.600   2.565   4.172 -0.1924  0.0968 -0.1402
 2758SOL     OW11104   1.165   0.299   4.135  0.1965 -0.0546  0.4562
 2758SOL    HW211105   1.186   0.207   4.116 -0.7904  0.0637 -1.2991
 2758SOL    HW311106   1.245   0.347   4.112 -0.0173 -0.2427 -0.7001
 2758SOL    MW411107   1.178   0.293   4.129  0.0379 -0.0637  0.0720
 2759SOL     OW11108   1.175   2.716   4.181  0.2303 -0.0834  0.1216
 2759SOL    HW211109   1.193   2.624   4.160  1.6536  0.3227 -0.4729
 2759SOL    HW311110   1.253   2.763   4.152  0.0586  1.1522  1.5982
 2759SOL    MW411111   1.188   2.710   4.174  0.3954  0.1335  0.2379
 2760SOL     OW11112   2.134   3.698   4.444 -0.0890  0.4418 -0.2673
 2760SOL    HW211113   2.126   3.679   4.350 -1.3434  0.2727 -0.1347
 2760SOL    HW311114   2.178   3.782   4.448 -0.2907  0.5871 -1.0205
 2760SOL    MW411115   2.139   3.706   4.432 -0.2809  0.4387 -0.3495
 2761SOL     OW11116   2.454   4.113   4.537  0.4623 -0.2096  0.0214
 2761SOL    HW211117   2.526   4.123   4.598  0.0672  0.3215  0.4018
 2761SOL    HW311118   2.495   4.116   4.451  0.9713 -0.5534  0.2483
 2761SOL    MW411119   2.469   4.115   4.534  0.4773 -0.1845  0.1011
 2762SOL     OW11120   1.509   0.623   4.557  0.0855  0.2754  0.0049
 2762SOL    HW211121   1.596   0.640   4.520  0.2432 -0.4695  0.0435
 2762SOL    HW311122   1.517   0.540   4.602 -0.4684  0.5417  0.6047
 2762SOL    MW411123   1.522   0.615   4.558  0.0331  0.2122  0.0896
 2763SOL     OW11124   3.159   0.961   4.578  0.2426  0.1406 -0.1412
 2763SOL    HW211125   3.152   0.865   4.574  0.2618  0.1436 -0.2413
 2763SOL    HW311126   3.107   0.992   4.504 -0.5627  0.2436  0.4631
 2763SOL    MW411127   3.151   0.952   4.567  0.1390  0.1546 -0.0744
 2764SOL     OW11128   0.453   0.059   4.651  0.3487  0.0858  0.8435
 2764SOL    HW211129   0.541   0.065   4.688  0.4296  0.1155  0.6446
 2764SOL    HW311130   0.436   0.145   4.614 -0.1766  0.4084  1.8100
 2764SOL    MW411131   0.462   0.071   4.651  0.2901  0.1323  0.9446
 2765SOL     OW11132   1.366   3.181   4.166 -0.2356 -0.2304  0.1046
 2765SOL    HW211133   1.283   3.153   4.126 -0.7957  0.4002  0.7888
 2765SOL    HW311134   1.380   3.270   4.133  0.7983 -0.7817 -0.9469
 2765SOL    MW411135   1.357   3.189   4.157 -0.1731 -0.2201  0.0563
 2766SOL     OW11136   1.790   1.984   4.465  0.1372 -0.2773  0.1799
 2766SOL    HW211137   1.774   2.078   4.459 -0.0965 -0.2437  1.2104
 2766SOL    HW311138   1.853   1.966   4.396 -0.5894  0.4569 -0.6850
 2766SOL    MW411139   1.796   1.994   4.455  0.0105 -0.1761  0.2017
 2767SOL     OW11140   3.156   0.319   4.511 -0.0173 -0.3469 -0.0883
 2767SOL    HW211141   3.222   0.381   4.479 -0.4303 -0.1524 -0.5632
 2767SOL    HW311142   3.072   0.363   4.496 -0.2603 -0.6027  0.4947
 2767SOL    MW411143   3.154   0.333   4.505 -0.1040 -0.3549 -0.0744
 2768SOL     OW11144   1.797   3.232   4.264 -0.2001 -0.2728 -0.2696
 2768SOL    HW211145   1.823   3.240   4.356  1.1080 -1.0551 -0.5557
 2768SOL    HW311146   1.808   3.320   4.228 -0.0530 -0.1119  0.1635
 2768SOL    MW411147   1.802   3.245   4.271 -0.0081 -0.3548 -0.2503
 2769SOL     OW11148   0.960   4.168   4.458 -0.0536  0.1605  0.1235
 2769SOL    HW211149   0.955   4.196   4.367 -0.6011 -0.1732  0.0497
 2769SOL    HW311150   0.961   4.072   4.454  2.8321  0.1244  0.3165
 2769SOL    MW411151   0.960   4.159   4.445  0.2549  0.1121  0.1392
 2770SOL     OW11152   4.400   0.221   4.358  0.1130 -0.0743  0.0412
 2770SOL    HW211153   4.325   0.210   4.300  1.1985 -1.0321 -1.2203
 2770SOL    HW311154   4.384   0.160   4.430 -0.8017  0.4545  0.2924
 2770SOL    MW411155   4.388   0.211   4.360  0.1349 -0.1309 -0.0920
 2771SOL     OW11156   2.115   1.249   4.651  0.2283 -0.4905  0.5011
 2771SOL    HW211157   2.098   1.210   4.737  3.4000 -1.9329  0.5504
 2771SOL    HW311158   2.201   1.290   4.659  0.0740  0.3487 -1.6653
 2771SOL    MW411159   2.124   1.249   4.663  0.6263 -0.5702  0.2217
 2772SOL     OW11160   2.868   0.319   4.187 -0.0438  0.3900 -0.0548
 2772SOL    HW211161   2.831   0.401   4.153  0.4314  0.8699  0.5764
 2772SOL    HW311162   2.795   0.257   4.185 -0.4683  0.8999 -0.3182
 2772SOL    MW411163   2.853   0.322   4.183 -0.0370  0.5206 -0.0067
 2773SOL     OW11164   2.388   1.346   4.617  0.5337  0.3835  0.4083
 2773SOL    HW211165   2.390   1.432   4.659  0.9280 -0.6444  2.5174
 2773SOL    HW311166   2.418   1.363   4.527 -0.1722  2.5627  0.5511
 2773SOL    MW411167   2.392   1.360   4.610  0.4926  0.5354  0.7048
 2774SOL     OW11168   2.638   1.613   4.400  0.1369 -0.1230  0.7940
 2774SOL    HW211169   2.616   1.651   4.485  1.6629  0.2069  1.0658
 2774SOL    HW311170   2.720   1.565   4.416  0.5110  0.0451 -0.5170
 2774SOL    MW411171   2.646   1.611   4.413  0.3877 -0.0575  0.6566
 2775SOL     OW11172   2.289   0.841   4.181 -0.1226  0.0978  0.1735
 2775SOL    HW211173   2.348   0.778   4.138 -0.3607 -1.6367  2.2953
 2775SOL    HW311174   2.300   0.922   4.131  2.2358 -0.8726 -0.9694
 2775SOL    MW411175   2.298   0.843   4.169  0.1571 -0.2590  0.3023
 2776SOL     OW11176   2.856   1.733   4.740  0.0058  0.0466  0.1369
 2776SOL    HW211177   2.886   1.644   4.725  0.8231 -0.0701  2.4006
 2776SOL    HW311178   2.924   1.788   4.702  0.5177 -0.2584  0.6253
 2776SOL    MW411179   2.869   1.729   4.733  0.1810 -0.0089  0.5002
 2777SOL     OW11180   2.405   2.572   4.459 -0.2612  0.4256 -0.1041
 2777SOL    HW211181   2.453   2.597   4.380  0.7165 -0.9436  0.0346
 2777SOL    HW311182   2.472   2.569   4.527 -0.6493 -0.8380  0.2360
 2777SOL    MW411183   2.420   2.575   4.457 -0.1833  0.0782 -0.0410
 2778SOL     OW11184   1.623   2.500   4.453  0.1156 -0.5413  0.0067
 2778SOL    HW211185   1.605   2.536   4.366  0.4712 -0.2198  0.0659
 2778SOL    HW311186   1.695   2.553   4.487  0.0490 -0.7350  0.4563
 2778SOL    MW411187   1.630   2.512   4.446  0.1539 -0.5245  0.0744
 2779SOL     OW11188   3.703   3.680   4.426  0.2033 -0.5035  0.2055
 2779SOL    HW211189   3.670   3.621   4.494  0.4001 -0.7929  0.0518
 2779SOL    HW311190   3.730   3.621   4.355 -1.9501 -0.1016 -0.9854
 2779SOL    MW411191   3.702   3.664   4.426 -0.0551 -0.4885  0.0281
 2780SOL     OW11192   2.954   1.334   4.180  0.4473  0.2012 -0.1897
 2780SOL    HW211193   2.891   1.276   4.137  0.2285  0.6083 -0.4236
 2780SOL    HW311194   3.022   1.348   4.114  1.8031 -1.8176  0.7307
 2780SOL    MW411195   2.955   1.328   4.166  0.5972 -0.0114 -0.0992
 2781SOL     OW11196   0.891   2.450   4.139 -0.0235  0.3299  0.1546
 2781SOL    HW211197   0.917   2.536   4.107  1.4400 -0.3463 -0.4771
 2781SOL    HW311198   0.807   2.432   4.096 -2.0512  2.8538  2.8135
 2781SOL    MW411199   0.883   2.459   4.129 -0.0979  0.5736  0.4225
 2782SOL     OW11200   2.457   3.025   4.481 -0.2037  0.2966 -0.0934
 2782SOL    HW211201   2.532   3.078   4.507  0.3901  0.4133 -1.9699
 2782SOL    HW311202   2.486   2.980   4.401 -2.0251  0.1063 -0.6719
 2782SOL    MW411203   2.471   3.026   4.474 -0.3655  0.2871 -0.4172
 2783SOL     OW11204   3.990   3.729   4.402  0.0746  0.4992 -0.4339
 2783SOL    HW211205   3.897   3.720   4.420  0.0429  0.9514 -0.3737
 2783SOL    HW311206   4.005   3.823   4.395  0.4354  0.4107 -0.9208
 2783SOL    MW411207   3.980   3.740   4.403  0.1178  0.5474 -0.4902
 2784SOL     OW11208   0.704   0.270   4.183 -0.0906 -0.5253 -0.2300
 2784SOL    HW211209   0.690   0.181   4.213 -0.6056 -0.2314  0.4090
 2784SOL    HW311210   0.633   0.286   4.120 -0.8742 -0.0797  0.7397
 2784SOL    MW411211   0.693   0.260   4.179 -0.2620 -0.4277 -0.0172
 2785SOL     OW11212   3.603   0.811   4.150 -0.1468  0.5695  0.1410
 2785SOL    HW211213   3.630   0.897   4.116  2.0407 -0.5221 -0.9822
 2785SOL    HW311214   3.516   0.797   4.112 -1.2988  3.0403  1.7512
 2785SOL    MW411215   3.595   0.821   4.140 -0.0100  0.7514  0.2050
 2786SOL     OW11216   0.307   4.510   4.531 -0.2019 -0.0234 -0.4134
 2786SOL    HW211217   0.371   4.573   4.563 -0.8973 -0.0759  1.0907
 2786SOL    HW311218   0.355   4.427   4.526  0.0465  0.0996 -0.0249
 2786SOL    MW411219   0.322   4.507   4.535 -0.2609 -0.0143 -0.1631
 2787SOL     OW11220   4.034   3.445   4.119 -0.1384 -0.7642 -0.2396
 2787SOL    HW211221   4.019   3.354   4.143 -0.5742 -1.1128 -1.7718
 2787SOL    HW311222   4.028   3.446   4.024  1.1804  0.6294 -0.3362
 2787SOL    MW411223   4.031   3.434   4.110 -0.0215 -0.6266 -0.4544
 2788SOL     OW11224   1.728   3.658   4.339 -0.0490  0.0055 -0.1121
 2788SOL    HW211225   1.693   3.598   4.405  2.1034 -2.1348 -0.8643
 2788SOL    HW311226   1.770   3.728   4.390 -1.9302  0.5350  0.7557
 2788SOL    MW411227   1.729   3.660   4.355 -0.0132 -0.2069 -0.0963
 2789SOL     OW11228   2.690   4.303   4.099  0.1651  0.5433 -0.2893
 2789SOL    HW211229   2.597   4.319   4.117  0.0575 -0.1426 -0.2213
 2789SOL    HW311230   2.692   4.270   4.009  0.0439 -2.1111  0.6472
 2789SOL    MW411231   2.678   4.301   4.089  0.1347  0.1025 -0.1564
 2790SOL     OW11232   3.253   1.335   4.432 -0.5052 -0.2989 -0.1097
 2790SOL    HW211233   3.279   1.261   4.377  0.7851 -0.1547  0.2918
 2790SOL    HW311234   3.253   1.411   4.373  1.3702 -0.0532  0.1711
 2790SOL    MW411235   3.256   1.335   4.417 -0.0875 -0.2475 -0.0196
 2791SOL     OW11236   3.878   0.116   4.234 -0.0531  0.0553 -0.4488
 2791SOL    HW211237   3.883   0.050   4.303 -1.3526 -0.8503 -1.2084
 2791SOL    HW311238   3.853   0.197   4.279  2.7076  0.3518  0.6585
 2791SOL    MW411239   3.876   0.118   4.249  0.1395 -0.0250 -0.4029
 2792SOL     OW11240   2.591   4.072   4.277 -0.2654  0.2120 -0.3062
 2792SOL    HW211241   2.539   4.022   4.214 -0.4626  0.4258 -0.3158
 2792SOL    HW311242   2.630   4.142   4.225 -0.2720  0.2740 -0.2274
 2792SOL    MW411243   2.589   4.075   4.262 -0.2923  0.2484 -0.2975
 2793SOL     OW11244   2.680   0.118   4.157  0.0602 -0.0669 -0.3054
 2793SOL    HW211245   2.641   0.131   4.243  0.5445  1.1677 -0.2695
 2793SOL    HW311246   2.740   0.044   4.169  0.3632  0.3069  0.4925
 2793SOL    MW411247   2.683   0.110   4.170  0.1640  0.1453 -0.1955
 2794SOL     OW11248   2.853   1.208   4.530 -0.1730 -0.5035  0.4527
 2794SOL    HW211249   2.903   1.225   4.610 -0.5572 -0.3941  0.6690
 2794SOL    HW311250   2.894   1.129   4.493  0.2584 -0.3268  0.5460
 2794SOL    MW411251   2.865   1.200   4.536 -0.1669 -0.4659  0.4935
 2795SOL     OW11252   3.299   3.594   4.468  0.3552  0.1205  0.3257
 2795SOL    HW211253   3.320   3.585   4.375 -2.1252  0.5960 -0.3112
 2795SOL    HW311254   3.300   3.688   4.484  1.5899  0.0020  0.9990
 2795SOL    MW411255   3.302   3.605   4.457  0.1907  0.1674  0.3309
 2796SOL     OW11256   2.493   1.386   4.366  0.0287  0.3863 -0.4305
 2796SOL    HW211257   2.404   1.420   4.356 -0.2562  0.0724  0.9302
 2796SOL    HW311258   2.547   1.465   4.373 -0.3656  0.5689  0.5777
 2796SOL    MW411259   2.488   1.401   4.365 -0.0610  0.3691 -0.1178
 2797SOL     OW11260   1.992   0.580   4.404  0.0580  0.2223 -0.1501
 2797SOL    HW211261   2.004   0.527   4.482  0.4876  0.4713 -0.0465
 2797SOL    HW311262   2.050   0.655   4.416 -2.3678  2.0027  0.8398
 2797SOL    MW411263   2.001   0.583   4.416 -0.2055  0.4901 -0.0057
 2798SOL     OW11264   2.126   2.135   4.671 -0.2529  0.3404 -0.0060
 2798SOL    HW211265   2.191   2.201   4.694 -0.8405  1.5091 -1.6448
 2798SOL    HW311266   2.177   2.064   4.631  0.2818  0.1128  1.0423
 2798SOL    MW411267   2.141   2.134   4.669 -0.2601  0.4644 -0.0839
 2799SOL     OW11268   1.645   4.287   4.603 -0.1347  0.5841 -0.4269
 2799SOL    HW211269   1.625   4.358   4.543  2.1012  1.2295 -0.4584
 2799SOL    HW311270   1.675   4.330   4.682  1.8478 -0.3006 -0.6662
 2799SOL    MW411271   1.646   4.302   4.605  0.4218  0.5527 -0.4630
 2800SOL     OW11272   2.203   1.968   4.473  0.1209 -0.0577  0.3290
 2800SOL    HW211273   2.283   2.010   4.443  0.1961  0.9786  1.9038
 2800SOL    HW311274   2.234   1.889   4.518  0.1926 -0.1908  0.0458
 2800SOL    MW411275   2.218   1.963   4.475  0.1404  0.0613  0.4997
 2801SOL     OW11276   1.737   2.175   4.152 -0.2206 -0.2673 -0.1122
 2801SOL    HW211277   1.775   2.251   4.107 -1.0863 -0.0470 -0.4935
 2801SOL    HW311278   1.790   2.101   4.123  0.3982  0.1429 -0.0328
 2801SOL    MW411279   1.749   2.175   4.142 -0.2532 -0.1841 -0.1516
 2802SOL     OW11280   2.827   1.767   3.984 -0.0759  0.2174  0.4791
 2802SOL    HW211281   2.752   1.819   4.011 -1.3676 -0.9591 -0.7429
 2802SOL    HW311282   2.802   1.677   4.005  0.8261 -0.2212 -0.2943
 2802SOL    MW411283   2.814   1.762   3.990 -0.1273  0.0043  0.2160
 2803SOL     OW11284   3.904   4.155   4.575 -0.1982  0.1028  0.1466
 2803SOL    HW211285   3.837   4.213   4.538  0.0023  0.0188 -0.3521
 2803SOL    HW311286   3.854   4.088   4.622 -0.4527  0.3210  0.1891
 2803SOL    MW411287   3.888   4.154   4.576 -0.2053  0.1206  0.0863
 2804SOL     OW11288   1.232   3.262   4.605  0.1429 -0.2637 -0.1452
 2804SOL    HW211289   1.178   3.250   4.527  1.9981 -0.1660 -1.4733
 2804SOL    HW311290   1.322   3.260   4.572  0.9302  0.3540  1.9197
 2804SOL    MW411291   1.237   3.260   4.590  0.4915 -0.1693 -0.0477
 2805SOL     OW11292   3.966   3.176   4.221 -0.1379  0.4510 -0.1579
 2805SOL    HW211293   3.952   3.121   4.298  0.1963  1.4225  0.6142
 2805SOL    HW311294   4.040   3.136   4.175  0.7879  0.8464  0.9603
 2805SOL    MW411295   3.974   3.164   4.225  0.0284  0.6313  0.0906
 2806SOL     OW11296   3.950   2.985   4.417 -0.2824  0.4329 -0.5209
 2806SOL    HW211297   3.898   3.004   4.495  0.0024  0.6132 -0.3726
 2806SOL    HW311298   3.902   2.915   4.372  0.6656 -1.1747  0.9206
 2806SOL    MW411299   3.937   2.978   4.421 -0.1194  0.2446 -0.3109
 2807SOL     OW11300   3.192   3.121   4.389  0.5234 -0.2560  0.0329
 2807SOL    HW211301   3.279   3.084   4.380  0.1422 -1.1075 -0.1910
 2807SOL    HW311302   3.134   3.045   4.392 -0.1796  0.2959  0.4954
 2807SOL    MW411303   3.196   3.106   4.388  0.3805 -0.2956  0.0644
 2808SOL     OW11304   2.741   3.420   4.081  0.1691 -0.5129  0.0295
 2808SOL    HW211305   2.807   3.450   4.143  0.8084 -1.3144 -0.2470
 2808SOL    HW311306   2.716   3.333   4.113  0.3051 -0.8205 -0.6665
 2808SOL    MW411307   2.746   3.412   4.093  0.2713 -0.6595 -0.0987
 2809SOL     OW11308   0.058   4.541   4.423  0.2496  0.0969  0.2487
 2809SOL    HW211309   0.068   4.579   4.336  0.7297 -0.1297  0.2028
 2809SOL    HW311310   0.148   4.532   4.456  0.1387 -1.0001  0.2586
 2809SOL    MW411311   0.072   4.545   4.416  0.2983 -0.0777  0.2441
 2810SOL     OW11312   2.305   3.984   4.167 -0.5008  0.3278 -0.0921
 2810SOL    HW211313   2.229   3.950   4.119 -0.6795 -0.7353  0.9121
 2810SOL    HW311314   2.380   3.944   4.124 -0.5866  0.3332 -0.2487
 2810SOL    MW411315   2.305   3.974   4.155 -0.5355  0.1881  0.0196
 2811SOL     OW11316   4.133   4.544   4.451  0.0480  0.0550  0.4341
 2811SOL    HW211317   4.187   4.614   4.486 -1.0410 -0.1286  2.6076
 2811SOL    HW311318   4.153   4.468   4.507  0.1150 -0.9398 -0.9313
 2811SOL    MW411319   4.143   4.543   4.463 -0.0868 -0.1006  0.5407
 2812SOL     OW11320   4.227   2.887   4.495  0.1547 -0.3068  0.4472
 2812SOL    HW211321   4.147   2.937   4.479 -1.4250 -1.8528  3.1764
 2812SOL    HW311322   4.229   2.821   4.426 -0.9543 -0.2606  0.3609
 2812SOL    MW411323   4.217   2.885   4.484 -0.1998 -0.5045  0.7958
 2813SOL     OW11324   2.330   0.532   4.522 -0.0552  0.6966  0.6382
 2813SOL    HW211325   2.417   0.567   4.543 -0.0113  0.3354  1.0625
 2813SOL    HW311326   2.285   0.604   4.479  0.2688  1.0623  0.9077
 2813SOL    MW411327   2.336   0.546   4.519 -0.0067  0.6973  0.7291
 2814SOL     OW11328   3.129   3.200   4.146 -0.1072 -0.6131 -0.1634
 2814SOL    HW211329   3.147   3.174   4.237 -3.1952  0.1593  0.7225
 2814SOL    HW311330   3.056   3.144   4.120  0.3001 -0.3221 -1.9570
 2814SOL    MW411331   3.122   3.189   4.155 -0.4611 -0.4728 -0.2832
 2815SOL     OW11332   0.398   1.712   4.550 -0.6163 -0.0906 -0.1374
 2815SOL    HW211333   0.332   1.695   4.483 -0.5803 -0.7005 -0.0207
 2815SOL    HW311334   0.474   1.662   4.521 -0.3884  0.1589  0.0234
 2815SOL    MW411335   0.400   1.703   4.537 -0.5815 -0.1380 -0.1011
 2816SOL     OW11336   3.101   1.284   4.660 -0.3356  0.1907 -0.0157
 2816SOL    HW211337   3.140   1.295   4.573  0.3930  1.8956  0.5094
 2816SOL    HW311338   3.105   1.190   4.676  1.0835  0.0461 -1.1136
 2816SOL    MW411339   3.107   1.273   4.650 -0.0520  0.3966 -0.0911
 2817SOL     OW11340   2.371   1.603   4.738 -0.1738 -0.1784 -0.2120
 2817SOL    HW211341   2.443   1.656   4.701  0.0183 -0.9167 -0.8998
 2817SOL    HW311342   2.293   1.656   4.723 -0.0172 -0.2004 -1.1380
 2817SOL    MW411343   2.370   1.617   4.731 -0.1283 -0.2788 -0.4249
 2818SOL     OW11344   4.189   0.161   4.171  0.0998  0.1284  0.4338
 2818SOL    HW211345   4.096   0.148   4.188 -0.0018 -0.0545 -0.2454
 2818SOL    HW311346   4.192   0.233   4.108  0.2753 -1.3348 -1.3092
 2818SOL    MW411347   4.177   0.168   4.165  0.1097 -0.0888  0.1144
 2819SOL     OW11348   3.930   2.495   4.556 -0.0333 -0.0394 -0.2178
 2819SOL    HW211349   4.008   2.541   4.586 -0.1343  0.6195 -0.9296
 2819SOL    HW311350   3.857   2.541   4.597 -0.1498  0.6301 -1.1421
 2819SOL    MW411351   3.931   2.507   4.565 -0.0615  0.1359 -0.4339
 2820SOL     OW11352   1.311   0.774   4.432  0.6363 -0.4295  0.2257
 2820SOL    HW211353   1.285   0.853   4.480  1.5819  0.5990 -0.9238
 2820SOL    HW311354   1.375   0.731   4.489  0.1097 -0.3706  0.8606
 2820SOL    MW411355   1.316   0.779   4.446  0.6917 -0.2860  0.1583
 2821SOL     OW11356   3.143   2.483   4.394 -0.0047  0.2865  0.6270
 2821SOL    HW211357   3.208   2.547   4.422  0.0009  0.7454 -0.4460
 2821SOL    HW311358   3.086   2.472   4.471  0.5046  0.9306  1.0992
 2821SOL    MW411359   3.144   2.490   4.408  0.0634  0.4323  0.5474
 2822SOL     OW11360   3.267   1.558   4.271 -0.5059  0.1077 -0.2016
 2822SOL    HW211361   3.190   1.608   4.298 -0.1508  0.2419  0.5988
 2822SOL    HW311362   3.327   1.623   4.234  0.0351  0.3351  1.0138
 2822SOL    MW411363   3.265   1.573   4.270 -0.3872  0.1553  0.0644
 2823SOL     OW11364   4.280   1.563   4.435  0.8529  0.3373 -0.1193
 2823SOL    HW211365   4.241   1.487   4.478  1.2448  0.0310 -0.3013
 2823SOL    HW311366   4.253   1.637   4.489 -0.1552  0.1526 -0.3598
 2823SOL    MW411367   4.271   1.563   4.448  0.7715  0.2724 -0.1755
 2824SOL     OW11368   4.155   1.327   4.563 -0.2999  0.3777 -0.2349
 2824SOL    HW211369   4.213   1.251   4.567 -0.6869  0.1553  2.2062
 2824SOL    HW311370   4.086   1.301   4.501 -0.0721 -1.0103  0.0698
 2824SOL    MW411371   4.153   1.313   4.555 -0.3209  0.1650  0.1273
 2825SOL     OW11372   2.467   2.070   4.391 -0.7439  0.4269 -0.4636
 2825SOL    HW211373   2.551   2.034   4.363  0.1434  0.4719  2.0297
 2825SOL    HW311374   2.471   2.162   4.368  0.0546  0.5061 -0.0179
 2825SOL    MW411375   2.479   2.077   4.385 -0.5214  0.4435 -0.0758
 2826SOL     OW11376   4.402   2.537   4.572  0.0386  0.2364  0.1087
 2826SOL    HW211377   4.322   2.575   4.609  0.2280  0.0208  0.7313
 2826SOL    HW311378   4.381   2.444   4.560 -0.8259  0.7276 -2.4946
 2826SOL    MW411379   4.388   2.530   4.575 -0.0505  0.2728 -0.1526
 2827SOL     OW11380   2.648   3.227   4.464 -0.0567 -0.4104  0.0748
 2827SOL    HW211381   2.722   3.221   4.524  1.1663 -0.1492 -1.3716
 2827SOL    HW311382   2.683   3.195   4.380 -1.2749  0.6927 -0.8707
 2827SOL    MW411383   2.663   3.222   4.461 -0.0563 -0.2306 -0.2403
 2828SOL     OW11384   3.620   2.844   4.101 -0.0453  0.6631  0.1917
 2828SOL    HW211385   3.613   2.939   4.100 -1.7965  0.5516 -3.3535
 2828SOL    HW311386   3.549   2.815   4.159 -0.4462  1.4668  0.1045
 2828SOL    MW411387   3.610   2.852   4.109 -0.3293  0.7544 -0.2880
 2829SOL     OW11388   3.386   2.565   4.030  0.0410 -0.2836  0.7155
 2829SOL    HW211389   3.375   2.586   4.122  0.3141 -0.3203  0.7567
 2829SOL    HW311390   3.448   2.630   3.998 -0.6133  0.1878  0.3870
 2829SOL    MW411391   3.393   2.576   4.038 -0.0093 -0.2263  0.6776
 2830SOL     OW11392   4.333   4.124   4.459  0.1354 -0.1861  0.2752
 2830SOL    HW211393   4.383   4.045   4.475  0.9319  0.0661 -0.9344
 2830SOL    HW311394   4.389   4.178   4.403 -0.1653  1.4683  1.5050
 2830SOL    MW411395   4.347   4.121   4.454  0.2003  0.0653  0.2785
 2831SOL     OW11396   1.510   2.755   4.470  0.1702 -0.0464 -0.2366
 2831SOL    HW211397   1.554   2.671   4.459 -0.6271 -0.3347 -1.3327
 2831SOL    HW311398   1.417   2.734   4.469 -0.0316  0.7752  0.2225
 2831SOL    MW411399   1.504   2.741   4.469  0.0384  0.0238 -0.3204
 2832SOL     OW11400   3.766   2.787   4.330 -0.2423 -0.1851  0.1029
 2832SOL    HW211401   3.729   2.803   4.243  0.4708  0.0654 -0.1534
 2832SOL    HW311402   3.690   2.772   4.386 -0.7179 -0.0036 -0.4949
 2832SOL    MW411403   3.751   2.787   4.326 -0.2112 -0.1280 -0.0100
 2833SOL     OW11404   0.265   2.135   4.430 -0.0837  0.5781 -0.3922
 2833SOL    HW211405   0.257   2.138   4.335  2.1654 -1.6693 -0.7193
 2833SOL    HW311406   0.203   2.068   4.458  0.0458  0.4515 -0.4058
 2833SOL    MW411407   0.256   2.127   4.421  0.2301  0.2649 -0.4368
 2834SOL     OW11408   3.206   2.622   4.863 -0.4915  0.4036 -0.1162
 2834SOL    HW211409   3.117   2.602   4.834 -0.4664 -2.5344  1.6065
 2834SOL    HW311410   3.262   2.568   4.807  0.0195  0.1949  0.5894
 2834SOL    MW411411   3.202   2.612   4.852 -0.4206 -0.0114  0.2041
 2835SOL     OW11412   0.220   3.538   4.130  0.1983 -0.2541 -0.1261
 2835SOL    HW211413   0.282   3.471   4.100  1.9576  0.5988  1.4506
 2835SOL    HW311414   0.206   3.518   4.222 -1.8135 -0.3413 -0.4250
 2835SOL    MW411415   0.227   3.527   4.138  0.1650 -0.1531  0.0424
 2836SOL     OW11416   3.848   4.599   4.442  0.0441 -0.3956 -0.5431
 2836SOL    HW211417   3.940   4.584   4.465 -0.5018 -0.3204  1.8282
 2836SOL    HW311418   3.808   4.512   4.443  0.0138 -0.3905 -1.2351
 2836SOL    MW411419   3.855   4.586   4.446 -0.0317 -0.3848 -0.3214
 2837SOL     OW11420   1.242   0.102   4.465  0.0653  0.2709 -0.0597
 2837SOL    HW211421   1.317   0.143   4.422 -0.6295  0.3378 -1.2394
 2837SOL    HW311422   1.171   0.165   4.456 -0.4722 -0.3259 -0.1136
 2837SOL    MW411423   1.242   0.115   4.458 -0.0973  0.2010 -0.2222
 2838SOL     OW11424   2.823   3.982   4.087  0.7240 -0.2366 -0.3707
 2838SOL    HW211425   2.728   3.971   4.085  0.6638  0.2609 -0.3924
 2838SOL    HW311426   2.854   3.916   4.150  0.2421  0.4236  0.5698
 2838SOL    MW411427   2.815   3.972   4.095  0.6526 -0.0834 -0.2494
 2839SOL     OW11428   3.217   4.167   4.598  0.3741 -0.4003  0.5941
 2839SOL    HW211429   3.128   4.196   4.574  0.4824 -1.1475 -0.7455
 2839SOL    HW311430   3.224   4.189   4.691 -0.6924  0.9956  0.3795
 2839SOL    MW411431   3.206   4.174   4.607  0.2475 -0.3142  0.3891
 2840SOL     OW11432   2.202   0.066   4.541  0.2074 -0.0571  1.0440
 2840SOL    HW211433   2.250   0.139   4.502 -0.7466  0.0677  0.0983
 2840SOL    HW311434   2.263  -0.008   4.533  0.2383  0.0831 -0.2290
 2840SOL    MW411435   2.217   0.066   4.535  0.0856 -0.0222  0.7510
 2841SOL     OW11436   3.331   0.502   4.400  0.2919 -0.0099  0.0588
 2841SOL    HW211437   3.361   0.508   4.309 -0.7540  0.4941 -0.2562
 2841SOL    HW311438   3.289   0.586   4.416  1.3357  0.2872  1.3260
 2841SOL    MW411439   3.330   0.514   4.390  0.2916  0.0958  0.1845
 2842SOL     OW11440   3.333   4.555   4.563  0.2184 -0.0204 -0.1300
 2842SOL    HW211441   3.404   4.619   4.571  0.1478 -0.0312  0.6910
 2842SOL    HW311442   3.377   4.470   4.558  0.2554 -0.1141  1.4004
 2842SOL    MW411443   3.348   4.552   4.564  0.2141 -0.0339  0.1798
 2843SOL     OW11444   2.867   2.081   4.592 -0.7036  0.1839  0.2327
 2843SOL    HW211445   2.780   2.044   4.605 -0.3992 -0.0335  1.6835
 2843SOL    HW311446   2.927   2.008   4.606 -0.1783  0.8485  1.5915
 2843SOL    MW411447   2.863   2.067   4.595 -0.5939  0.2429  0.6037
 2844SOL     OW11448   3.541   1.902   3.811 -0.3679  0.0440 -0.0090
 2844SOL    HW211449   3.536   1.818   3.766 -0.0969  1.6258 -3.1477
 2844SOL    HW311450   3.494   1.963   3.754  1.0211  2.3908  1.2562
 2844SOL    MW411451   3.534   1.899   3.798 -0.1490  0.5623 -0.2563
 2845SOL     OW11452   0.372   3.598   4.551 -0.1972 -0.2414 -0.5406
 2845SOL    HW211453   0.313   3.542   4.500 -1.4422 -1.5212  2.1933
 2845SOL    HW311454   0.322   3.678   4.566 -1.1915 -1.2377  1.5859
 2845SOL    MW411455   0.357   3.601   4.546 -0.4927 -0.5414  0.1011
 2846SOL     OW11456   4.266   0.686   4.309 -0.2350 -0.2754 -0.2727
 2846SOL    HW211457   4.341   0.628   4.324 -0.3686 -0.7773 -1.5265
 2846SOL    HW311458   4.280   0.723   4.223 -2.3206 -1.7768 -1.3120
 2846SOL    MW411459   4.278   0.683   4.300 -0.5279 -0.5397 -0.5751
 2847SOL     OW11460   0.260   1.679   4.794 -0.4554  0.4823  0.1510
 2847SOL    HW211461   0.307   1.673   4.711 -1.6705  1.2509 -0.6099
 2847SOL    HW311462   0.322   1.647   4.859  1.3826  2.1263 -0.7426
 2847SOL    MW411463   0.274   1.674   4.792 -0.3732  0.8007 -0.0677
 2848SOL     OW11464   0.184   1.700   4.363  0.1529  0.2598 -0.1115
 2848SOL    HW211465   0.169   1.785   4.404 -0.4356  0.0256  0.1683
 2848SOL    HW311466   0.140   1.638   4.421  0.4336 -0.2177 -0.4075
 2848SOL    MW411467   0.176   1.703   4.376  0.1123  0.1659 -0.1135
 2849SOL     OW11468   3.780   2.021   3.885 -0.3031 -0.4759  0.0284
 2849SOL    HW211469   3.707   1.961   3.868 -0.4850 -0.3026  0.1957
 2849SOL    HW311470   3.857   1.976   3.850 -0.6890 -0.0864 -1.3718
 2849SOL    MW411471   3.780   2.007   3.878 -0.3781 -0.4017 -0.1345
 2850SOL     OW11472   3.580   2.365   4.644 -0.2358  0.3156  0.2019
 2850SOL    HW211473   3.590   2.341   4.552 -0.2878 -1.3758  0.6158
 2850SOL    HW311474   3.625   2.449   4.653 -0.8768  0.8583 -1.5207
 2850SOL    MW411475   3.587   2.373   4.633 -0.3269  0.1638  0.0296
 2851SOL     OW11476   3.905   1.375   4.125  0.0858 -0.3126 -0.5545
 2851SOL    HW211477   3.887   1.356   4.217  1.8563 -0.8524 -0.2976
 2851SOL    HW311478   3.906   1.289   4.082 -0.3407 -0.0951 -1.0055
 2851SOL    MW411479   3.902   1.361   4.131  0.2630 -0.3551 -0.5794
 2852SOL     OW11480   0.160   2.924   4.129  0.3061 -0.0173 -0.4153
 2852SOL    HW211481   0.146   3.016   4.105 -0.7992 -0.0804 -0.0288
 2852SOL    HW311482   0.152   2.922   4.224  0.6340 -0.4609 -0.3946
 2852SOL    MW411483   0.157   2.936   4.138  0.2035 -0.0842 -0.3614
 2853SOL     OW11484   3.984   3.464   4.513  0.0790  0.1844  0.2077
 2853SOL    HW211485   4.017   3.542   4.467  1.1873  0.0286  0.7152
 2853SOL    HW311486   4.062   3.410   4.527 -0.3114  0.0024  1.8206
 2853SOL    MW411487   3.999   3.467   4.509  0.1738  0.1395  0.4878
 2854SOL     OW11488   4.464   3.476   4.021  0.4823  0.1754 -0.0171
 2854SOL    HW211489   4.557   3.486   4.040  0.6085 -0.8525 -0.0853
 2854SOL    HW311490   4.458   3.482   3.925  0.6494 -1.0710 -0.1134
 2854SOL    MW411491   4.475   3.478   4.011  0.5212 -0.1245 -0.0391
 2855SOL     OW11492   4.354   3.268   4.252  0.1065  0.5914 -0.0171
 2855SOL    HW211493   4.297   3.213   4.199 -0.4386  1.8124 -0.7223
 2855SOL    HW311494   4.339   3.357   4.219 -0.5178  1.4377  2.4228
 2855SOL    MW411495   4.345   3.273   4.241 -0.0477  0.8640  0.2117
 2856SOL     OW11496   3.082   3.394   4.461 -0.2043 -0.1897  0.5187
 2856SOL    HW211497   3.141   3.319   4.451 -0.3778 -0.2058 -0.4409
 2856SOL    HW311498   3.140   3.469   4.469 -0.0405 -0.1238 -1.0904
 2856SOL    MW411499   3.097   3.394   4.461 -0.2058 -0.1833  0.1802
 2857SOL     OW11500   0.201   3.859   4.627 -0.5048 -0.0845  0.2324
 2857SOL    HW211501   0.262   3.927   4.597  1.7239 -1.9119  0.5219
 2857SOL    HW311502   0.186   3.880   4.719 -1.5733  1.2728 -0.2345
 2857SOL    MW411503   0.207   3.871   4.635 -0.3517 -0.1464  0.2093
 2858SOL     OW11504   3.771   3.589   4.166  0.3544 -0.2538  0.1768
 2858SOL    HW211505   3.855   3.543   4.160  0.1702 -0.3976 -1.4225
 2858SOL    HW311506   3.790   3.678   4.137  0.4471  0.3779  2.1078
 2858SOL    MW411507   3.784   3.595   4.162  0.3421 -0.1895  0.2208
 2859SOL     OW11508   4.444   3.073   4.430  0.7156 -0.0513 -0.0776
 2859SOL    HW211509   4.367   3.017   4.435  1.3132 -0.8665  0.0682
 2859SOL    HW311510   4.421   3.139   4.364 -0.7966  0.8111  1.2771
 2859SOL    MW411511   4.431   3.074   4.422  0.5951 -0.0451  0.1206
 2860SOL     OW11512   1.162   3.819   4.023  0.0703  0.1336 -0.4269
 2860SOL    HW211513   1.079   3.779   4.049 -0.1504  0.2021 -1.0257
 2860SOL    HW311514   1.172   3.893   4.083  0.5302 -0.8614  0.7535
 2860SOL    MW411515   1.152   3.823   4.034  0.1018  0.0114 -0.3500
 2861SOL     OW11516   4.276   2.271   4.496  0.1056 -0.2894 -0.1706
 2861SOL    HW211517   4.275   2.313   4.410  0.9398 -0.4803 -0.2816
 2861SOL    HW311518   4.184   2.265   4.521 -0.0663  1.0696 -0.4133
 2861SOL    MW411519   4.264   2.276   4.488  0.1931 -0.1349 -0.2170
 2862SOL     OW11520   4.048   0.517   4.214 -0.1456  0.1174  0.6137
 2862SOL    HW211521   4.122   0.557   4.260 -0.7052  1.0439  0.7412
 2862SOL    HW311522   4.018   0.586   4.155 -0.3553 -0.5616 -0.0713
 2862SOL    MW411523   4.054   0.532   4.212 -0.2475  0.1500  0.5403
 2863SOL     OW11524   3.098   0.043   4.532 -0.4439  0.1968 -0.2611
 2863SOL    HW211525   3.130   0.133   4.535 -0.2234  0.1301 -0.6583
 2863SOL    HW311526   3.176  -0.010   4.549 -0.6687  0.0966  0.5024
 2863SOL    MW411527   3.112   0.048   4.535 -0.4444  0.1748 -0.2127
 2864SOL     OW11528   2.894   4.524   4.483 -0.1091 -0.1246  0.1659
 2864SOL    HW211529   2.859   4.544   4.396  0.2617  2.5610  0.5929
 2864SOL    HW311530   2.975   4.576   4.489  0.3057 -0.9255  1.8096
 2864SOL    MW411531   2.900   4.533   4.472 -0.0055  0.1235  0.4392
 2865SOL     OW11532   3.666   1.381   4.408 -0.4757 -0.1275 -0.0553
 2865SOL    HW211533   3.608   1.372   4.484 -1.8037  0.8082 -0.9306
 2865SOL    HW311534   3.692   1.473   4.410 -1.0328  0.0585 -1.0858
 2865SOL    MW411535   3.662   1.392   4.418 -0.7246  0.0205 -0.3061
 2866SOL     OW11536   3.601   0.521   4.477 -0.2978 -0.1901  0.3266
 2866SOL    HW211537   3.624   0.612   4.493 -0.8112 -0.3393  2.0334
 2866SOL    HW311538   3.505   0.520   4.479 -0.2618 -1.1226  2.4935
 2866SOL    MW411539   3.591   0.533   4.479 -0.3610 -0.3328  0.8373
 2867SOL     OW11540   4.446   3.534   4.526 -0.4552 -0.3568  0.1323
 2867SOL    HW211541   4.390   3.609   4.508  0.9699  0.2565 -2.0279
 2867SOL    HW311542   4.387   3.459   4.528 -1.6241  0.5533  0.1548
 2867SOL    MW411543   4.431   3.534   4.523 -0.4210 -0.1557 -0.1497
 2868SOL     OW11544   1.091   0.752   4.051 -0.0896  0.4218  0.2976
 2868SOL    HW211545   1.181   0.742   4.080  0.1350 -0.9293 -0.8118
 2868SOL    HW311546   1.045   0.676   4.087 -0.5460  0.5230 -0.0630
 2868SOL    MW411547   1.097   0.741   4.060 -0.1202  0.2568  0.1040
 2869SOL     OW11548   2.588   1.770   4.623  0.3512 -0.2083  0.2254
 2869SOL    HW211549   2.667   1.756   4.674  0.5898 -3.0171 -0.8813
 2869SOL    HW311550   2.574   1.865   4.628  2.2639  0.0081  2.6240
 2869SOL    MW411551   2.597   1.781   4.630  0.6351 -0.5502  0.3958
 2870SOL     OW11552   3.595   0.058   4.520 -0.7127 -0.0586 -0.1471
 2870SOL    HW211553   3.629   0.137   4.563 -0.9526  0.2367 -0.4981
 2870SOL    HW311554   3.670  -0.001   4.516 -0.6623 -0.0494  0.5848
 2870SOL    MW411555   3.609   0.061   4.525 -0.7379 -0.0185 -0.0973
 2871SOL     OW11556   0.388   1.076   4.041  0.2720 -0.0849  0.0250
 2871SOL    HW211557   0.424   1.093   3.954  0.5155  1.9269  0.4911
 2871SOL    HW311558   0.464   1.062   4.097  0.1816  0.4017  0.2698
 2871SOL    MW411559   0.402   1.076   4.037  0.2922  0.2447  0.1187
 2872SOL     OW11560   0.094   1.011   4.528  0.1963  0.2309 -0.0849
 2872SOL    HW211561   0.104   1.016   4.623  1.5466  0.0735 -0.2054
 2872SOL    HW311562   0.154   0.941   4.501 -0.7312 -0.2408 -0.9782
 2872SOL    MW411563   0.104   1.003   4.537  0.2521  0.1478 -0.2189
 2873SOL     OW11564   3.341   2.474   4.660 -0.2011 -0.0582  0.6242
 2873SOL    HW211565   3.421   2.423   4.656 -0.1036  0.0204  1.5789
 2873SOL    HW311566   3.351   2.540   4.591 -1.2377 -2.5995 -2.0687
 2873SOL    MW411567   3.353   2.476   4.650 -0.3254 -0.3831  0.3948
 2874SOL     OW11568   0.934   2.120   4.461  0.6281 -0.3550  0.0901
 2874SOL    HW211569   0.956   2.212   4.474 -0.1498 -0.4362  2.2534
 2874SOL    HW311570   0.840   2.121   4.440  0.6589 -0.6465 -0.0654
 2874SOL    MW411571   0.924   2.132   4.460  0.5295 -0.4039  0.3552
 2875SOL     OW11572   0.635   1.033   4.150 -0.1349  0.3170 -0.2751
 2875SOL    HW211573   0.666   1.017   4.239 -0.7281 -1.7948 -0.4075
 2875SOL    HW311574   0.710   1.072   4.105  0.6530  0.0263  0.7718
 2875SOL    MW411575   0.649   1.036   4.156 -0.1092 -0.0001 -0.1545
 2876SOL     OW11576   3.311   1.929   3.968  0.3300  0.0957 -0.1826
 2876SOL    HW211577   3.398   1.915   3.931  0.4677  0.4867 -0.0103
 2876SOL    HW311578   3.298   2.023   3.965 -0.4550 -0.0308 -1.0192
 2876SOL    MW411579   3.321   1.939   3.963  0.2446  0.1305 -0.2701
 2877SOL     OW11580   3.700   2.618   4.687 -0.1529  0.0576  0.0750
 2877SOL    HW211581   3.645   2.655   4.619  0.6748 -0.9043 -1.1573
 2877SOL    HW311582   3.652   2.633   4.768 -1.2949  0.9607 -0.7466
 2877SOL    MW411583   3.687   2.625   4.688 -0.1943  0.0498 -0.1960
 2878SOL     OW11584   3.314   2.836   4.689 -0.6859  0.5252 -0.0597
 2878SOL    HW211585   3.287   2.781   4.762 -0.6538 -0.8650 -1.0838
 2878SOL    HW311586   3.320   2.777   4.614  1.2705  1.5395 -0.7495
 2878SOL    MW411587   3.311   2.821   4.689 -0.4234  0.4756 -0.2861
 2879SOL     OW11588   3.749   1.655   4.446 -0.2845 -0.3006 -0.4449
 2879SOL    HW211589   3.760   1.738   4.400 -1.4451  0.7311  1.1182
 2879SOL    HW311590   3.829   1.644   4.497 -1.0404  0.9515  1.0439
 2879SOL    MW411591   3.761   1.664   4.446 -0.5374  0.0007 -0.0424
 2880SOL     OW11592   4.243   3.351   4.497 -0.2388 -0.2130  0.2669
 2880SOL    HW211593   4.274   3.331   4.409 -1.2015  0.1933 -0.1799
 2880SOL    HW311594   4.273   3.278   4.550  1.2693  0.0673 -0.1844
 2880SOL    MW411595   4.251   3.339   4.492 -0.1664 -0.1223  0.1478
 2881SOL     OW11596   0.873   0.264   4.582 -0.2700 -0.3799 -0.2512
 2881SOL    HW211597   0.837   0.177   4.566  0.6834 -0.7486 -0.4379
 2881SOL    HW311598   0.933   0.278   4.508  0.2079  0.0871  0.2237
 2881SOL    MW411599   0.876   0.254   4.570 -0.0811 -0.3670 -0.2127
 2882SOL     OW11600   0.078   0.025   4.190  0.1051 -0.1065 -0.5949
 2882SOL    HW211601  -0.003   0.006   4.143 -0.7775 -2.4811  1.7308
 2882SOL    HW311602   0.060   0.107   4.237 -0.7779 -0.3818 -0.4484
 2882SOL    MW411603   0.065   0.034   4.190 -0.1279 -0.4561 -0.2685
 2883SOL     OW11604   4.230   1.764   4.601  0.3871  0.1098 -0.4187
 2883SOL    HW211605   4.220   1.845   4.550 -0.8263 -0.3129 -0.8767
 2883SOL    HW311606   4.320   1.767   4.633  0.7566  1.0149 -1.5016
 2883SOL    MW411607   4.240   1.775   4.598  0.2751  0.1734 -0.6223
 2884SOL     OW11608   3.752   2.088   4.636  0.4465  0.2267 -0.3409
 2884SOL    HW211609   3.694   2.150   4.681  0.4830 -0.4950  0.7167
 2884SOL    HW311610   3.706   2.004   4.640  1.8233 -0.4960  1.0873
 2884SOL    MW411611   3.738   2.085   4.642  0.6330  0.0362 -0.0129
 2885SOL     OW11612   2.973   4.245   4.488  0.1126  0.6811  0.0918
 2885SOL    HW211613   2.950   4.337   4.498 -0.6123  0.6667 -1.2877
 2885SOL    HW311614   2.977   4.231   4.393  0.1422 -0.7268  0.2811
 2885SOL    MW411615   2.971   4.255   4.477  0.0207  0.4935 -0.0653
 2886SOL     OW11616   0.016   4.293   3.819  0.0889 -0.1906 -0.1429
 2886SOL    HW211617  -0.002   4.203   3.792  0.4812 -0.1173 -0.6522
 2886SOL    HW311618   0.041   4.286   3.911 -0.6075 -0.5160  0.0272
 2886SOL    MW411619   0.017   4.281   3.828  0.0487 -0.2236 -0.1876
 2887NA      NA11620   4.463   3.056   0.476  0.4076 -0.7737 -0.2311
 2888NA      NA11621   3.104   0.615   0.620 -0.0041  0.1107  0.0146
 2889NA      NA11622   2.112   2.831   0.317 -0.2667  0.7059  0.1936
   4.49070   4.66690  10.00000
