Gromacs Runs On Most of All Computer Systems in water
11558
    1RG35     P    1   2.261   2.364   4.350  0.0602  0.3857 -0.2827
    1RG35   O1P    2   2.384   2.411   4.418  0.1523  0.2975 -0.3195
    1RG35   O2P    3   2.226   2.222   4.365 -0.2422  0.2982 -0.1636
    1RG35   O5'    4   2.138   2.429   4.421  0.2185  0.1768  0.2714
    1RG35   C5'    5   2.128   2.570   4.434 -0.0993  0.1157 -0.5725
    1RG35  H5'1    6   2.080   2.617   4.348 -0.3131 -1.0429 -1.0964
    1RG35  H5'2    7   2.227   2.613   4.450 -0.3091  1.0929 -1.7426
    1RG35   C4'    8   2.037   2.609   4.556 -1.2006  0.0324  0.0705
    1RG35   H4'    9   2.040   2.717   4.572 -0.1430  0.0774 -0.4152
    1RG35   O4'   10   1.900   2.576   4.529 -0.1511 -0.2599  0.6192
    1RG35   C1'   11   1.826   2.578   4.651 -0.2550 -0.0560 -0.9965
    1RG35   H1'   12   1.779   2.675   4.666  0.4668  0.0830  0.4293
    1RG35    N9   13   1.725   2.466   4.641 -0.7750 -0.6005 -0.2017
    1RG35    C8   14   1.590   2.475   4.611 -0.5853  0.0908 -0.3293
    1RG35    H8   15   1.548   2.568   4.575 -1.0538 -0.6198 -1.6807
    1RG35    N7   16   1.528   2.357   4.599  0.0938 -0.3959  0.1901
    1RG35    C5   17   1.623   2.268   4.644  0.3855  0.3947  0.7477
    1RG35    C6   18   1.614   2.123   4.668 -0.2169 -0.0916 -0.2224
    1RG35    O6   19   1.517   2.049   4.650  0.3149  0.0045 -0.2438
    1RG35    N1   20   1.732   2.065   4.714 -0.0268  0.1842 -0.4718
    1RG35    H1   21   1.739   1.965   4.710  2.2322  0.3378 -0.9896
    1RG35    C2   22   1.848   2.136   4.722  0.4136  0.5477  0.2058
    1RG35    N2   23   1.956   2.067   4.739  0.8614  0.4848 -0.1282
    1RG35   H21   24   1.954   1.967   4.748 -1.5706  0.2478 -2.5813
    1RG35   H22   25   2.047   2.112   4.739  0.9374  0.3855 -2.0960
    1RG35    N3   26   1.860   2.263   4.709 -0.1742 -0.1431  0.6408
    1RG35    C4   27   1.745   2.326   4.667 -0.0634  0.3004 -0.3293
    1RG35   C3'   28   2.072   2.539   4.688  0.0866 -0.4482  0.1800
    1RG35   H3'   29   2.083   2.432   4.672  1.1386 -0.2929 -0.2139
    1RG35   C2'   30   1.934   2.563   4.762 -0.1964  0.0481  0.8485
    1RG35  H2'1   31   1.918   2.480   4.832 -0.2126  0.8293  1.7746
    1RG35   O2'   32   1.936   2.678   4.838 -0.2831 -0.1225  0.2735
    1RG35  HO'2   33   2.026   2.679   4.872 -0.4827  0.0242  0.8141
    1RG35   O3'   34   2.184   2.595   4.772  0.3893  0.3304 -0.0019
    1RG35   H3T   35   2.254   2.530   4.762 -1.0022 -1.1344 -0.4960
    1RG35   O3P   36   2.243   2.408   4.210  0.2237  0.8623  0.0564
    1SOL     OW   37   2.316   1.732   0.541 -0.2477  0.3333 -0.2829
    1SOL    HW2   38   2.230   1.738   0.499 -0.8391 -0.2569  0.7964
    1SOL    HW3   39   2.298   1.686   0.623  0.9258  1.1714  0.4552
    1SOL    MW4   40   2.302   1.727   0.547 -0.1707  0.3660 -0.0431
    1SOL     OW   41   4.244   3.617   0.701  0.0728  0.5345  0.0033
    1SOL    HW2   42   4.250   3.701   0.747  1.3144 -0.8483  2.4836
    1SOL    HW3   43   4.169   3.573   0.741  0.7839 -0.4302  0.3019
    1SOL    MW4   44   4.235   3.622   0.712  0.3309  0.2248  0.3700
    1SOL     OW   45   2.545   0.212   0.426 -0.3526  0.2409  0.3750
    1SOL    HW2   46   2.517   0.279   0.364 -0.4799 -0.6131 -0.4980
    1SOL    HW3   47   2.467   0.158   0.440  0.4706 -1.3822 -1.0846
    1SOL    MW4   48   2.531   0.214   0.420 -0.2608 -0.0859  0.0673
    1SOL     OW   49   2.594   2.940   0.483 -0.1908 -0.0420 -0.3785
    1SOL    HW2   50   2.535   2.878   0.439  1.6248 -2.5084  0.5756
    1SOL    HW3   51   2.590   2.915   0.575  0.7784  1.1182 -0.0206
    1SOL    MW4   52   2.585   2.929   0.489  0.1767 -0.2143 -0.2054
    1SOL     OW   53   0.387   3.339   0.381 -0.6352 -0.2826 -0.3951
    1SOL    HW2   54   0.435   3.369   0.304  0.2149 -0.6900 -0.0248
    1SOL    HW3   55   0.352   3.419   0.419 -0.3493  0.0046 -0.7300
    1SOL    MW4   56   0.389   3.353   0.376 -0.4854 -0.2983 -0.3904
    1SOL     OW   57   4.479   2.395   0.792  0.4740  0.3332 -0.1953
    1SOL    HW2   58   4.484   2.422   0.700 -0.8550  0.6758 -0.1739
    1SOL    HW3   59   4.481   2.476   0.841  0.0016  0.2157  0.0233
    1SOL    MW4   60   4.480   2.409   0.786  0.2363  0.3629 -0.1636
    1SOL     OW   61   1.255   0.197   0.439  0.0924  0.3552  0.2966
    1SOL    HW2   62   1.289   0.185   0.528 -1.8380  0.2632  1.0288
    1SOL    HW3   63   1.263   0.111   0.399  0.8549  0.3675  0.4128
    1SOL    MW4   64   1.261   0.184   0.446 -0.0618  0.3446  0.4085
    1SOL     OW   65   4.284   0.251   0.419 -0.3190  0.0716  0.2947
    1SOL    HW2   66   4.358   0.206   0.377 -0.6489  0.9227 -1.2172
    1SOL    HW3   67   4.286   0.220   0.509  1.9499  0.1323  0.3058
    1SOL    MW4   68   4.294   0.241   0.425 -0.0634  0.1919  0.0967
    1SOL     OW   69   2.953   1.519   0.354 -0.0185 -0.0547  0.1804
    1SOL    HW2   70   2.927   1.432   0.385 -2.1815 -0.0510 -1.5290
    1SOL    HW3   71   3.001   1.502   0.272  1.4941  0.2392  0.9872
    1SOL    MW4   72   2.956   1.505   0.347 -0.1044 -0.0155  0.0613
    1SOL     OW   73   2.251   0.139   0.749  0.0010 -0.2921 -0.0999
    1SOL    HW2   74   2.324   0.112   0.805  1.0537  2.2287 -0.1748
    1SOL    HW3   75   2.276   0.108   0.661  0.6726 -0.0193 -0.0094
    1SOL    MW4   76   2.264   0.132   0.745  0.2282  0.0765 -0.0979
    1SOL     OW   77   4.009   1.174   0.807  0.5002  0.1303  0.4119
    1SOL    HW2   78   3.991   1.168   0.901  0.2894  0.2596  0.3796
    1SOL    HW3   79   3.942   1.233   0.773  0.7976  0.3698  0.2387
    1SOL    MW4   80   3.998   1.181   0.815  0.5116  0.1789  0.3847
    1SOL     OW   81   0.447   2.451   0.817 -0.1059  0.2276  0.1952
    1SOL    HW2   82   0.394   2.468   0.740  0.5291  1.3479 -0.0080
    1SOL    HW3   83   0.417   2.366   0.848 -1.3544  0.4128 -0.4547
    1SOL    MW4   84   0.436   2.442   0.811 -0.1869  0.3998  0.0826
    1SOL     OW   85   4.044   0.651   0.506 -0.5618  0.0194 -0.1338
    1SOL    HW2   86   4.055   0.729   0.560  0.7186 -0.4328  0.2621
    1SOL    HW3   87   4.133   0.627   0.479 -0.9532 -1.2406 -0.3393
    1SOL    MW4   88   4.057   0.658   0.509 -0.4444 -0.2065 -0.1087
    1SOL     OW   89   4.040   1.924   0.899 -0.3869  0.5051  0.1832
    1SOL    HW2   90   4.037   1.835   0.866 -0.2444  0.8117 -0.6801
    1SOL    HW3   91   4.045   1.915   0.994 -0.9504 -0.3927  0.1290
    1SOL    MW4   92   4.040   1.911   0.907 -0.4420  0.4271  0.0622
    1SOL     OW   93   4.001   3.423   0.416  0.5585 -0.3344  0.4277
    1SOL    HW2   94   3.940   3.491   0.443  1.0306  1.2503 -2.3548
    1SOL    HW3   95   4.086   3.466   0.411  1.6280 -2.0800  2.4104
    1SOL    MW4   96   4.004   3.437   0.419  0.7620 -0.3560  0.3223
    1SOL     OW   97   0.898   0.838   0.468  0.0711 -0.6579 -0.2794
    1SOL    HW2   98   0.964   0.895   0.427 -0.6992 -0.3841 -1.1746
    1SOL    HW3   99   0.935   0.751   0.463  0.6102 -0.4299 -0.2815
    1SOL    MW4  100   0.912   0.834   0.462  0.0405 -0.5917 -0.3978
    1SOL     OW  101   3.372   4.358   0.511  0.2863  0.0401 -0.0426
    1SOL    HW2  102   3.354   4.363   0.605  0.8722  0.0889  0.0685
    1SOL    HW3  103   3.317   4.427   0.472 -1.3541 -1.1713  0.0491
    1SOL    MW4  104   3.362   4.368   0.518  0.1473 -0.1140 -0.0159
    1SOL     OW  105   1.817   0.413   0.334  0.1511 -0.1749  0.1035
    1SOL    HW2  106   1.851   0.490   0.289  0.6017 -0.5579 -0.2192
    1SOL    HW3  107   1.888   0.385   0.391 -0.2243 -0.0099  0.6498
    1SOL    MW4  108   1.831   0.419   0.335  0.1609 -0.2036  0.1330
    1SOL     OW  109   2.742   2.561   0.496  0.2967 -0.4391 -0.2771
    1SOL    HW2  110   2.795   2.501   0.444  2.0678  0.9397 -0.0995
    1SOL    HW3  111   2.733   2.518   0.581 -0.1605 -1.3754 -0.7949
    1SOL    MW4  112   2.748   2.548   0.500  0.4699 -0.3808 -0.3220
    1SOL     OW  113   0.257   0.577   0.769  0.3464  0.5235  0.2914
    1SOL    HW2  114   0.239   0.663   0.805 -0.8944  0.4321 -0.0657
    1SOL    HW3  115   0.258   0.590   0.674  0.0348  0.1284  0.2312
    1SOL    MW4  116   0.255   0.590   0.761  0.1416  0.4593  0.2363
    1SOL     OW  117   3.193   2.396   0.461 -0.1260  0.1273  0.1089
    1SOL    HW2  118   3.202   2.429   0.550 -0.1103  0.2136  0.0758
    1SOL    HW3  119   3.283   2.380   0.433 -0.1523 -0.2158  0.2271
    1SOL    MW4  120   3.206   2.398   0.469 -0.1278  0.0935  0.1201
    1SOL     OW  121   0.624   0.244   0.468  0.5039 -0.2980 -0.1736
    1SOL    HW2  122   0.634   0.338   0.453  0.5524 -0.3358 -0.3884
    1SOL    HW3  123   0.585   0.237   0.555  0.9221 -0.0943  0.0330
    1SOL    MW4  124   0.620   0.256   0.477  0.5654 -0.2761 -0.1747
    1SOL     OW  125   3.762   1.333   0.714 -0.3050  0.1490  0.6016
    1SOL    HW2  126   3.726   1.354   0.628  0.5777  0.5104  0.3144
    1SOL    HW3  127   3.709   1.260   0.745 -1.5801  0.9810  0.3939
    1SOL    MW4  128   3.750   1.326   0.707 -0.3569  0.3064  0.5364
    1SOL     OW  129   0.539   4.045   0.700  0.1114  0.1881  0.1595
    1SOL    HW2  130   0.573   4.085   0.620 -1.4503 -0.0856 -0.6645
    1SOL    HW3  131   0.516   4.119   0.756  1.0494  0.3829  0.2970
    1SOL    MW4  132   0.541   4.060   0.697  0.0291  0.1779  0.0689
    1SOL     OW  133   0.135   4.572   0.913  0.3012 -0.2609  0.0077
    1SOL    HW2  134   0.045   4.594   0.889  0.4379  0.2979 -0.0003
    1SOL    HW3  135   0.189   4.626   0.855  0.6413 -0.5855  0.0208
    1SOL    MW4  136   0.131   4.582   0.902  0.3641 -0.2298  0.0084
    1SOL     OW  137   4.371   1.668   0.504 -0.0896 -0.3010  0.4383
    1SOL    HW2  138   4.298   1.607   0.513 -0.8851  0.8973  2.2126
    1SOL    HW3  139   4.340   1.734   0.442 -0.4815  0.1511  1.1129
    1SOL    MW4  140   4.358   1.669   0.497 -0.2460 -0.0832  0.7614
    1SOL     OW  141   2.016   2.292   0.861 -0.0192  0.2357 -0.5793
    1SOL    HW2  142   1.999   2.290   0.955 -1.5840 -1.4753 -0.8659
    1SOL    HW3  143   1.936   2.325   0.822  0.0717 -0.4687 -1.4029
    1SOL    MW4  144   2.003   2.296   0.868 -0.2139 -0.0830 -0.7257
    1SOL     OW  145   4.472   4.502   0.391 -0.0438 -0.2734 -0.1248
    1SOL    HW2  146   4.407   4.432   0.405  0.4440 -0.3723  1.8124
    1SOL    HW3  147   4.448   4.540   0.306 -0.9511 -2.1069 -0.7284
    1SOL    MW4  148   4.460   4.498   0.381 -0.0992 -0.5279  0.0511
    1SOL     OW  149   0.906   4.019   0.467 -0.1054  0.1805 -0.0704
    1SOL    HW2  150   0.823   4.066   0.474  0.0753  0.4696  0.2186
    1SOL    HW3  151   0.931   4.002   0.558  0.0764 -0.0311 -0.1603
    1SOL    MW4  152   0.899   4.023   0.480 -0.0576  0.1903 -0.0441
    1SOL     OW  153   1.555   2.302   0.904  0.2101 -0.1767  0.1186
    1SOL    HW2  154   1.488   2.341   0.849  0.1720 -0.2607  0.1046
    1SOL    HW3  155   1.562   2.212   0.873 -0.7500 -0.6095  1.1063
    1SOL    MW4  156   1.547   2.295   0.893  0.0784 -0.2451  0.2471
    1SOL     OW  157   2.070   3.067   0.949 -0.1118 -0.0108  0.4285
    1SOL    HW2  158   2.088   2.980   0.914  0.5938  0.0605  0.5987
    1SOL    HW3  159   1.990   3.095   0.904  0.3156 -0.2649 -0.5107
    1SOL    MW4  160   2.062   3.059   0.938  0.0379 -0.0350  0.3271
    1SOL     OW  161   2.848   2.817   0.479  0.5212 -0.3125  0.6695
    1SOL    HW2  162   2.763   2.861   0.467  0.0770 -1.0985  0.8590
    1SOL    HW3  163   2.825   2.725   0.494  1.3679 -0.4046  1.4494
    1SOL    MW4  164   2.833   2.811   0.480  0.5744 -0.4284  0.7974
    1SOL     OW  165   0.261   0.037   0.703 -0.0608 -0.4819 -0.5224
    1SOL    HW2  166   0.311  -0.017   0.642  0.4464 -0.1972 -0.3584
    1SOL    HW3  167   0.183   0.064   0.654 -0.6517 -1.9184 -0.3872
    1SOL    MW4  168   0.257   0.034   0.688 -0.0718 -0.6339 -0.4829
    1SOL     OW  169   1.803   3.150   0.534  0.0218  0.0817  0.1502
    1SOL    HW2  170   1.812   3.245   0.526 -1.8272  0.2739  0.0538
    1SOL    HW3  171   1.868   3.115   0.473 -1.0861  1.3282 -1.8188
    1SOL    MW4  172   1.813   3.158   0.525 -0.3682  0.2718 -0.1224
    1SOL     OW  173   2.930   4.538   0.431  0.0660  0.4915  0.0727
    1SOL    HW2  174   2.894   4.626   0.447 -1.4743 -0.2304  0.6554
    1SOL    HW3  175   2.928   4.496   0.517 -0.3481 -0.5373 -0.4413
    1SOL    MW4  176   2.925   4.544   0.445 -0.1922  0.2608  0.0818
    1SOL     OW  177   0.369   1.484   0.543  0.0195  0.1591  0.0793
    1SOL    HW2  178   0.322   1.413   0.586 -2.1491  1.2890 -0.3764
    1SOL    HW3  179   0.402   1.538   0.615  2.5580 -1.8238  0.4564
    1SOL    MW4  180   0.367   1.482   0.558  0.0682  0.0464  0.0689
    1SOL     OW  181   3.380   0.738   0.892 -0.0249  0.0646 -0.0665
    1SOL    HW2  182   3.375   0.656   0.844 -1.6595  0.3108 -0.3459
    1SOL    HW3  183   3.448   0.788   0.847 -0.9953 -0.0223 -1.6631
    1SOL    MW4  184   3.388   0.734   0.880 -0.3686  0.0857 -0.3139
    1SOL     OW  185   1.836   3.145   0.816  0.6246 -0.0587 -0.0156
    1SOL    HW2  186   1.834   3.117   0.724  1.1056 -1.3821  0.3672
    1SOL    HW3  187   1.760   3.103   0.856  0.1621  0.8768  0.0972
    1SOL    MW4  188   1.826   3.136   0.809  0.6270 -0.1097  0.0498
    1SOL     OW  189   2.045   2.827   0.809 -0.1051  0.0739  0.4213
    1SOL    HW2  190   2.006   2.819   0.722  1.1551  1.0618 -0.2558
    1SOL    HW3  191   2.119   2.767   0.808  1.0495  1.4674  0.1282
    1SOL    MW4  192   2.050   2.818   0.797  0.2136  0.3879  0.2934
    1SOL     OW  193   1.989   2.043   0.415 -0.2064 -0.0098  0.2804
    1SOL    HW2  194   2.070   2.073   0.374 -0.3162 -0.5529 -0.3420
    1SOL    HW3  195   2.008   2.043   0.509  0.1814  0.8380  0.2066
    1SOL    MW4  196   2.002   2.047   0.422 -0.1698  0.0303  0.1885
    1SOL     OW  197   3.560   1.947   0.871 -0.2691  0.3097 -0.7253
    1SOL    HW2  198   3.647   1.985   0.862 -0.3952  0.8920  0.4440
    1SOL    HW3  199   3.566   1.863   0.824  1.1396 -0.0075 -0.0198
    1SOL    MW4  200   3.572   1.941   0.863 -0.0999  0.3448 -0.4779
    1SOL     OW  201   0.216   2.783   0.794 -0.1886 -0.1144 -0.0972
    1SOL    HW2  202   0.302   2.770   0.833  0.5108 -1.5184 -1.9990
    1SOL    HW3  203   0.192   2.872   0.817  1.0852 -0.2212  1.7543
    1SOL    MW4  204   0.224   2.793   0.802  0.0717 -0.3135 -0.1038
    1SOL     OW  205   1.504   4.529   0.490  0.3357  0.0550  0.2012
    1SOL    HW2  206   1.435   4.566   0.435  0.4528  0.9741  0.6758
    1SOL    HW3  207   1.574   4.594   0.488  0.4481 -0.0255  1.2292
    1SOL    MW4  208   1.504   4.542   0.482  0.3661  0.1655  0.3995
    1SOL     OW  209   4.139   2.796   0.497 -0.1301 -0.1715  0.7429
    1SOL    HW2  210   4.156   2.709   0.461 -0.8374 -0.3298  0.7893
    1SOL    HW3  211   4.194   2.800   0.576 -0.9818 -1.0282  1.3919
    1SOL    MW4  212   4.149   2.785   0.503 -0.3357 -0.3054  0.8346
    1SOL     OW  213   2.499   2.023   0.743 -0.6618  0.1795  0.7023
    1SOL    HW2  214   2.476   2.010   0.651 -0.4977 -0.0105  0.6882
    1SOL    HW3  215   2.491   2.117   0.757 -2.0085  0.0596  0.8449
    1SOL    MW4  216   2.495   2.033   0.733 -0.8180  0.1385  0.7192
    1SOL     OW  217   2.914   3.131   0.785  0.3051  0.2120 -0.3024
    1SOL    HW2  218   2.833   3.164   0.746 -0.3073 -0.2436  0.5526
    1SOL    HW3  219   2.898   3.038   0.798  0.7719  0.2153  0.3250
    1SOL    MW4  220   2.901   3.123   0.782  0.2856  0.1526 -0.1069
    1SOL     OW  221   0.879   4.269   0.817  0.1601  0.3145 -0.1431
    1SOL    HW2  222   0.884   4.178   0.787 -2.1340  0.8702 -2.3123
    1SOL    HW3  223   0.960   4.309   0.785 -0.4051 -0.1205 -2.1560
    1SOL    MW4  224   0.891   4.262   0.809 -0.2171  0.3304 -0.6949
    1SOL     OW  225   2.951   1.239   0.448 -0.3268  0.1973  0.4098
    1SOL    HW2  226   2.943   1.228   0.543  1.5749 -2.3351  0.3105
    1SOL    HW3  227   2.882   1.183   0.412 -1.6435  1.8541  0.2709
    1SOL    MW4  228   2.941   1.230   0.456 -0.2496  0.0818  0.3783
    1SOL     OW  229   1.093   3.574   0.422  0.2347 -0.1869 -0.0379
    1SOL    HW2  230   1.112   3.584   0.515  0.5937 -4.5147  0.4319
    1SOL    HW3  231   1.179   3.566   0.381  0.0108 -0.5029 -0.4480
    1SOL    MW4  232   1.107   3.575   0.429  0.2525 -0.7997 -0.0300
    1SOL     OW  233   2.280   4.286   0.435 -0.0586  0.0088 -0.3220
    1SOL    HW2  234   2.263   4.191   0.437 -0.6278  0.1218  0.1212
    1SOL    HW3  235   2.194   4.326   0.441  0.1643  0.5622 -0.7540
    1SOL    MW4  236   2.267   4.279   0.436 -0.1040  0.0968 -0.3205
    1SOL     OW  237   0.277   3.972   0.655 -0.8301 -0.1947 -0.5347
    1SOL    HW2  238   0.257   4.016   0.572 -1.6888 -0.3103 -0.3973
    1SOL    HW3  239   0.362   4.006   0.681 -0.5128 -0.2264 -1.5155
    1SOL    MW4  240   0.285   3.982   0.647 -0.9015 -0.2141 -0.6460
    1SOL     OW  241   0.414   2.512   0.524 -0.7561 -0.0655 -0.1131
    1SOL    HW2  242   0.396   2.449   0.454  0.2447 -0.1328 -0.3078
    1SOL    HW3  243   0.345   2.578   0.514 -0.8404 -0.2696 -0.9270
    1SOL    MW4  244   0.402   2.513   0.513 -0.6352 -0.1013 -0.2462
    1SOL     OW  245   1.373   0.961   0.436  0.0378  0.2303 -0.7573
    1SOL    HW2  246   1.452   0.916   0.404  0.3216 -0.0013  0.2467
    1SOL    HW3  247   1.357   0.922   0.522 -0.4471  1.1738 -0.4193
    1SOL    MW4  248   1.382   0.950   0.443  0.0112  0.3242 -0.5802
    1SOL     OW  249   0.166   3.799   0.864 -0.3010 -0.0983  0.3568
    1SOL    HW2  250   0.187   3.828   0.953 -0.3209 -0.6029  0.5244
    1SOL    HW3  251   0.219   3.856   0.807  1.0219 -0.9198  0.7522
    1SOL    MW4  252   0.176   3.811   0.868 -0.1291 -0.2735  0.4311
    1SOL     OW  253   2.318   0.898   0.446  0.3383 -0.3190  0.0355
    1SOL    HW2  254   2.300   0.982   0.404  1.1715 -1.1914 -2.1600
    1SOL    HW3  255   2.413   0.887   0.440  0.2400 -1.4219  0.2962
    1SOL    MW4  256   2.328   0.907   0.440  0.4354 -0.5797 -0.2197
    1SOL     OW  257   0.445   0.921   0.690 -0.0674  0.1764 -0.0483
    1SOL    HW2  258   0.519   0.891   0.743  0.3161  1.8018  0.3669
    1SOL    HW3  259   0.368   0.884   0.732  0.3271  0.4939  0.9653
    1SOL    MW4  260   0.445   0.912   0.703  0.0352  0.4327  0.1402
    1SOL     OW  261   2.667   3.905   0.516 -0.1441 -0.1330 -0.0986
    1SOL    HW2  262   2.604   3.834   0.508 -1.0639  0.5475  1.0146
    1SOL    HW3  263   2.670   3.925   0.610  0.8427  0.6264 -0.2802
    1SOL    MW4  264   2.659   3.899   0.527 -0.1352  0.0567  0.0243
    1SOL     OW  265   1.265   1.435   0.436  0.1859  0.0604  0.1665
    1SOL    HW2  266   1.200   1.370   0.411  0.7107 -0.2416 -0.4178
    1SOL    HW3  267   1.345   1.385   0.451  0.5274  0.5432 -0.0202
    1SOL    MW4  268   1.267   1.420   0.435  0.3003  0.0844  0.0648
    1SOL     OW  269   1.367   3.184   0.741  0.6796 -0.1793 -0.1283
    1SOL    HW2  270   1.357   3.197   0.646  0.5613 -1.4092 -0.2987
    1SOL    HW3  271   1.286   3.139   0.767  0.4951  0.5976  0.6424
    1SOL    MW4  272   1.355   3.180   0.732  0.6397 -0.2389 -0.0492
    1SOL     OW  273   0.102   0.484   0.383  0.0348  0.1912 -0.0549
    1SOL    HW2  274   0.094   0.388   0.376  0.8792  0.1212 -0.0767
    1SOL    HW3  275   0.075   0.516   0.297 -2.5109  0.1266  0.6693
    1SOL    MW4  276   0.097   0.475   0.371 -0.1897  0.1735  0.0377
    1SOL     OW  277   1.992   0.040   0.424  0.1204  0.2238 -0.0672
    1SOL    HW2  278   1.997   0.133   0.442 -1.0208  0.1508  0.6811
    1SOL    HW3  279   1.958   0.034   0.335 -0.6531  0.5136  0.2063
    1SOL    MW4  280   1.988   0.051   0.415 -0.1323  0.2524  0.0676
    1SOL     OW  281   1.109   3.084   0.836 -0.0907  0.1622  0.0226
    1SOL    HW2  282   1.030   3.132   0.810 -0.3174  0.2795  0.9368
    1SOL    HW3  283   1.098   2.997   0.796 -0.4432  0.3407 -0.2720
    1SOL    MW4  284   1.097   3.079   0.827 -0.1671  0.2010  0.1044
    1SOL     OW  285   1.271   1.709   0.319 -0.3832 -0.2517 -0.2073
    1SOL    HW2  286   1.187   1.751   0.338  0.7651  0.7349  3.1275
    1SOL    HW3  287   1.252   1.615   0.322 -1.4863 -0.0338 -0.0827
    1SOL    MW4  288   1.257   1.702   0.322 -0.3772 -0.0927  0.2491
    1SOL     OW  289   2.304   1.372   0.209 -0.1338  0.4609 -0.0072
    1SOL    HW2  290   2.226   1.427   0.202  0.3538  0.9459 -2.0222
    1SOL    HW3  291   2.346   1.379   0.123  0.4926 -2.2492  0.0229
    1SOL    MW4  292   2.300   1.380   0.196  0.0136  0.1674 -0.2691
    1SOL     OW  293   0.690   3.086   0.866  0.3686 -0.3871 -0.2289
    1SOL    HW2  294   0.600   3.100   0.836  0.4729  1.1837  0.1817
    1SOL    HW3  295   0.682   3.079   0.961  0.9709  2.1221  0.0183
    1SOL    MW4  296   0.677   3.087   0.875  0.4619  0.1509 -0.1422
    1SOL     OW  297   0.860   3.752   0.343 -0.0024  0.0659  0.3107
    1SOL    HW2  298   0.889   3.842   0.358  0.0127 -0.0970  1.3135
    1SOL    HW3  299   0.937   3.698   0.361 -0.2300 -0.1955  0.5224
    1SOL    MW4  300   0.874   3.757   0.347 -0.0305  0.0098  0.4709
    1SOL     OW  301   1.103   3.122   0.364 -0.5691 -0.3550  0.3207
    1SOL    HW2  302   1.148   3.118   0.280 -1.7816 -0.9983 -0.3000
    1SOL    HW3  303   1.164   3.169   0.421  0.0639  0.5056 -1.0339
    1SOL    MW4  304   1.117   3.128   0.361 -0.6455 -0.3264  0.0601
    1SOL     OW  305   1.791   0.873   0.717  0.1883  0.0126  0.0466
    1SOL    HW2  306   1.766   0.956   0.758  0.4602  0.8336 -1.4287
    1SOL    HW3  307   1.863   0.841   0.772 -0.6289  0.1976  1.2636
    1SOL    MW4  308   1.798   0.880   0.730  0.1165  0.1453  0.0125
    1SOL     OW  309   4.461   3.945   0.721  0.0835 -0.2574  0.2794
    1SOL    HW2  310   4.385   3.914   0.769  0.4671  0.7351  1.5572
    1SOL    HW3  311   4.534   3.895   0.757  0.1701 -0.5698 -0.3202
    1SOL    MW4  312   4.461   3.935   0.732  0.1454 -0.1676  0.3688
    1SOL     OW  313   3.349   4.629   0.903 -0.4794  0.4213  0.4389
    1SOL    HW2  314   3.350   4.649   0.997 -0.9970  1.0950  0.3048
    1SOL    HW3  315   3.438   4.647   0.873  0.1439 -1.4239  1.1333
    1SOL    MW4  316   3.361   4.634   0.911 -0.4656  0.2666  0.5128
    1SOL     OW  317   0.058   2.264   0.412  0.5572 -0.0057 -0.3853
    1SOL    HW2  318   0.002   2.273   0.335 -1.0793  0.2101  0.8087
    1SOL    HW3  319   0.063   2.169   0.426 -0.7324  0.0257  0.3687
    1SOL    MW4  320   0.051   2.253   0.404  0.1711  0.0267 -0.1283
    1SOL     OW  321   0.697   2.031   0.520 -0.5339 -0.3144 -0.2583
    1SOL    HW2  322   0.609   2.037   0.483 -0.4428 -0.8202 -0.5664
    1SOL    HW3  323   0.712   1.937   0.529  0.0770 -0.2355 -0.4571
    1SOL    MW4  324   0.687   2.019   0.516 -0.4412 -0.3705 -0.3252
    1SOL     OW  325   2.442   4.437   0.733  0.1679  0.1256  0.4205
    1SOL    HW2  326   2.367   4.383   0.758  0.4458 -0.4767 -0.0151
    1SOL    HW3  327   2.445   4.431   0.637  1.2499 -0.5242  0.4842
    1SOL    MW4  328   2.433   4.429   0.723  0.3474 -0.0401  0.3715
    1SOL     OW  329   3.466   3.068   0.359  0.2640  0.0302 -0.0776
    1SOL    HW2  330   3.448   2.974   0.371 -0.2801  0.3318  1.5658
    1SOL    HW3  331   3.382   3.105   0.330 -0.0831  0.3522  1.3116
    1SOL    MW4  332   3.452   3.060   0.357  0.1464  0.1125  0.3225
    1SOL     OW  333   2.734   4.174   0.423 -0.2618  0.4526 -0.0240
    1SOL    HW2  334   2.723   4.080   0.436  0.8009  0.3187 -0.0690
    1SOL    HW3  335   2.709   4.213   0.507  0.8850  0.0111  0.5309
    1SOL    MW4  336   2.729   4.167   0.436  0.0298  0.3767  0.0433
    1SOL     OW  337   4.221   1.335   0.741 -0.3005 -0.5640 -0.0900
    1SOL    HW2  338   4.297   1.280   0.720  0.6378  0.8154 -0.3525
    1SOL    HW3  339   4.155   1.273   0.771  0.2318 -2.0025 -1.7914
    1SOL    MW4  340   4.223   1.319   0.742 -0.1059 -0.5720 -0.3490
    1SOL     OW  341   1.997   1.241   0.465 -0.0132  0.4082  0.0901
    1SOL    HW2  342   1.940   1.297   0.412 -0.1096 -1.0001 -1.3347
    1SOL    HW3  343   1.959   1.153   0.456  0.8556 -0.0975  1.2796
    1SOL    MW4  344   1.984   1.236   0.457  0.0887  0.1557  0.0591
    1SOL     OW  345   2.224   2.663   0.376 -0.1374 -0.1776  0.1164
    1SOL    HW2  346   2.313   2.674   0.410 -0.2307 -0.0739  0.3238
    1SOL    HW3  347   2.204   2.571   0.390  0.5239 -0.5603 -1.3286
    1SOL    MW4  348   2.233   2.653   0.382 -0.0625 -0.2143 -0.0468
    1SOL     OW  349   0.432   3.086   0.519 -0.0913 -0.6145 -0.0328
    1SOL    HW2  350   0.430   3.163   0.462 -0.0147 -0.4390  0.2023
    1SOL    HW3  351   0.351   3.039   0.499 -0.9181  0.3515  0.9704
    1SOL    MW4  352   0.421   3.090   0.509 -0.1903 -0.4640  0.1307
    1SOL     OW  353   0.573   3.785   0.253  0.3181  0.2125 -0.0920
    1SOL    HW2  354   0.530   3.786   0.338 -0.8218 -1.7917 -0.6032
    1SOL    HW3  355   0.666   3.780   0.272  0.0704 -0.1241  1.0337
    1SOL    MW4  356   0.579   3.784   0.267  0.1350 -0.0963 -0.0109
    1SOL     OW  357   2.439   2.819   0.742 -0.3612  0.1386 -0.1763
    1SOL    HW2  358   2.429   2.911   0.766 -1.4844 -0.1924  0.7082
    1SOL    HW3  359   2.513   2.788   0.794 -0.7599  0.2473  0.4751
    1SOL    MW4  360   2.447   2.827   0.752 -0.5620  0.1092  0.0263
    1SOL     OW  361   4.008   3.897   0.327  0.0576  0.1256 -0.0880
    1SOL    HW2  362   4.026   3.986   0.359  0.6172 -0.8092  2.2805
    1SOL    HW3  363   4.094   3.855   0.324 -0.5173 -1.1570  1.3462
    1SOL    MW4  364   4.022   3.903   0.331  0.0553 -0.1671  0.4138
    1SOL     OW  365   3.382   3.114   0.839 -0.3420 -0.3145 -0.2455
    1SOL    HW2  366   3.322   3.176   0.798 -0.8532 -1.1641 -0.8139
    1SOL    HW3  367   3.350   3.104   0.929  0.1761  0.7910  0.0621
    1SOL    MW4  368   3.370   3.121   0.845 -0.3412 -0.2806 -0.2799
    1SOL     OW  369   2.601   0.842   0.436  0.0354 -0.4448 -0.0215
    1SOL    HW2  370   2.642   0.863   0.520  0.7643 -0.3515 -0.3932
    1SOL    HW3  371   2.630   0.753   0.415 -0.1774 -0.4855 -0.1562
    1SOL    MW4  372   2.610   0.833   0.444  0.1035 -0.4378 -0.0883
    1SOL     OW  373   4.236   2.064   0.778  0.2664 -0.0500  0.1210
    1SOL    HW2  374   4.323   2.041   0.810  1.2634  1.7587 -1.2434
    1SOL    HW3  375   4.177   2.009   0.830  2.2302 -1.6719  0.7100
    1SOL    MW4  376   4.240   2.053   0.789  0.6576 -0.0253  0.0187
    1SOL     OW  377   0.359   0.149   0.354 -0.2343 -0.1765  0.4511
    1SOL    HW2  378   0.435   0.203   0.333 -0.0256 -1.7857 -3.4458
    1SOL    HW3  379   0.395   0.077   0.406  0.9285 -0.7811 -1.1318
    1SOL    MW4  380   0.374   0.146   0.358 -0.0533 -0.4686 -0.2719
    1SOL     OW  381   4.285   3.078   0.812  0.0694 -0.4228  0.0712
    1SOL    HW2  382   4.208   3.121   0.773 -0.2913  0.1591  1.3991
    1SOL    HW3  383   4.360   3.120   0.768 -0.2857  1.4063  1.1466
    1SOL    MW4  384   4.285   3.089   0.801 -0.0253 -0.1047  0.3883
    1SOL     OW  385   0.244   2.032   0.734 -0.1716  0.3455 -0.4601
    1SOL    HW2  386   0.308   1.984   0.787  0.2362 -0.1003 -1.3452
    1SOL    HW3  387   0.247   2.121   0.766  0.5371  0.2121 -0.1625
    1SOL    MW4  388   0.253   2.037   0.745 -0.0243  0.2689 -0.5376
    1SOL     OW  389   4.419   4.209   0.817 -0.2839 -0.1066 -0.1681
    1SOL    HW2  390   4.417   4.192   0.911  1.1378  0.5614  0.0053
    1SOL    HW3  391   4.448   4.127   0.778  0.8738  0.1425  0.1462
    1SOL    MW4  392   4.423   4.196   0.825  0.0558  0.0143 -0.1037
    1SOL     OW  393   2.177   2.833   0.136 -0.2586 -0.2025 -0.1839
    1SOL    HW2  394   2.189   2.796   0.048  0.4733 -0.1965 -0.0886
    1SOL    HW3  395   2.189   2.758   0.195 -0.2494 -0.1064 -0.0634
    1SOL    MW4  396   2.180   2.818   0.132 -0.1607 -0.1891 -0.1554
    1SOL     OW  397   2.896   2.092   0.718 -0.1510 -0.0908  0.0320
    1SOL    HW2  398   2.984   2.056   0.731 -0.1510 -0.2142 -0.2856
    1SOL    HW3  399   2.837   2.026   0.756 -0.2034 -0.8850 -1.3700
    1SOL    MW4  400   2.900   2.078   0.724 -0.1578 -0.2120 -0.1948
    1SOL     OW  401   1.784   0.135   0.715 -0.5535  0.5055  0.1057
    1SOL    HW2  402   1.702   0.105   0.754 -0.5026 -0.3497 -0.4293
    1SOL    HW3  403   1.852   0.086   0.761 -0.3810  0.7795  0.1433
    1SOL    MW4  404   1.782   0.124   0.726 -0.5240  0.4288  0.0401
    1SOL     OW  405   2.029   4.430   0.455 -0.0196  0.0413 -0.1362
    1SOL    HW2  406   1.961   4.394   0.398  0.0166  0.0701 -0.1978
    1SOL    HW3  407   2.009   4.523   0.460  0.3049  0.1304 -0.5504
    1SOL    MW4  408   2.017   4.437   0.448  0.0277  0.0572 -0.1990
    1SOL     OW  409   1.548   2.061   0.785 -0.2647  0.3040 -0.4932
    1SOL    HW2  410   1.555   2.070   0.690  1.4320 -0.6651 -0.4848
    1SOL    HW3  411   1.464   2.017   0.799 -0.3165  0.0507 -1.5843
    1SOL    MW4  412   1.538   2.056   0.774 -0.0476  0.1428 -0.6361
    1SOL     OW  413   1.742   0.909   0.261  0.1864 -0.0058 -0.1526
    1SOL    HW2  414   1.808   0.916   0.330  0.2095  0.6063 -0.2314
    1SOL    HW3  415   1.680   0.844   0.294  0.1194  0.3885  0.5239
    1SOL    MW4  416   1.742   0.901   0.275  0.1807  0.1270 -0.0738
    1SOL     OW  417   1.799   3.404   0.435  0.0164  0.3547  0.0120
    1SOL    HW2  418   1.854   3.476   0.469 -0.3345  0.3001  0.6973
    1SOL    HW3  419   1.837   3.385   0.349  1.1536  0.2377  0.5251
    1SOL    MW4  420   1.811   3.411   0.428  0.1202  0.3321  0.1701
    1SOL     OW  421   1.720   3.854   0.531 -0.3986 -0.3156 -0.2387
    1SOL    HW2  422   1.743   3.898   0.612 -0.2410 -1.2014  0.1942
    1SOL    HW3  423   1.781   3.781   0.524 -0.8013 -0.6038 -0.8482
    1SOL    MW4  424   1.731   3.850   0.541 -0.4311 -0.4706 -0.2620
    1SOL     OW  425   1.120   1.539   0.860  0.9149  0.0719 -0.1623
    1SOL    HW2  426   1.109   1.445   0.844 -1.4162  0.3425 -0.2038
    1SOL    HW3  427   1.142   1.576   0.774 -0.8234 -0.0611 -0.6779
    1SOL    MW4  428   1.122   1.532   0.847  0.3779  0.0900 -0.2358
    1SOL     OW  429   1.350   0.135   0.696  0.0065  0.2708  0.2900
    1SOL    HW2  430   1.430   0.088   0.718  0.5908  0.1700 -1.9131
    1SOL    HW3  431   1.356   0.217   0.744  1.2414  0.1079  0.4194
    1SOL    MW4  432   1.361   0.139   0.705  0.2466  0.2360  0.0163
    1SOL     OW  433   3.852   2.050   0.513 -0.3163 -0.5809 -0.1614
    1SOL    HW2  434   3.899   2.133   0.503 -1.0596 -0.1559 -0.1845
    1SOL    HW3  435   3.919   1.983   0.501  0.5047  0.0224  0.9256
    1SOL    MW4  436   3.867   2.053   0.511 -0.3059 -0.4456 -0.0210
    1SOL     OW  437   2.099   0.725   0.464  0.2787 -0.3938  0.1833
    1SOL    HW2  438   2.183   0.770   0.467 -0.3490  0.8533 -0.4485
    1SOL    HW3  439   2.120   0.632   0.477  1.7905 -0.1416 -0.4169
    1SOL    MW4  440   2.113   0.718   0.466  0.3953 -0.1960  0.0207
    1SOL     OW  441   0.898   3.997   0.733 -0.6614  0.5457  0.3068
    1SOL    HW2  442   0.826   3.935   0.752 -0.9661  1.0931  0.9836
    1SOL    HW3  443   0.974   3.958   0.775 -0.8424  0.5979  0.6881
    1SOL    MW4  444   0.898   3.983   0.741 -0.7254  0.6247  0.4464
    1SOL     OW  445   4.019   2.712   0.802 -0.0732 -0.4609  0.0506
    1SOL    HW2  446   4.024   2.618   0.784 -0.8748 -0.4588 -0.2312
    1SOL    HW3  447   4.109   2.743   0.793  0.0479 -1.0321 -0.8275
    1SOL    MW4  448   4.031   2.704   0.798 -0.1621 -0.5360 -0.1023
    1SOL     OW  449   0.024   3.455   0.374  0.2112 -0.0196  0.0175
    1SOL    HW2  450   0.104   3.504   0.393 -0.0426  0.9073 -1.2502
    1SOL    HW3  451   0.033   3.374   0.426  1.6179  0.4000  0.4617
    1SOL    MW4  452   0.036   3.451   0.384  0.3633  0.1578 -0.0912
    1SOL     OW  453   1.048   0.577   0.435 -0.0366  0.1378 -0.0235
    1SOL    HW2  454   1.115   0.599   0.371  1.9951 -1.0269  1.6263
    1SOL    HW3  455   1.097   0.546   0.512 -2.4628 -1.0598  1.1158
    1SOL    MW4  456   1.063   0.576   0.437 -0.0886 -0.1738  0.3445
    1SOL     OW  457   2.693   0.892   0.701 -0.3018 -0.3407  0.0331
    1SOL    HW2  458   2.693   0.966   0.761  0.6525 -0.0483 -0.3140
    1SOL    HW3  459   2.762   0.834   0.734  0.0747 -0.2875 -0.6308
    1SOL    MW4  460   2.702   0.894   0.713 -0.1264 -0.2952 -0.1003
    1SOL     OW  461   1.791   1.940   0.828  0.2904  0.1509  0.0927
    1SOL    HW2  462   1.708   1.986   0.808  1.1486  1.5558 -0.3464
    1SOL    HW3  463   1.779   1.853   0.791 -1.1328  0.2318  0.3252
    1SOL    MW4  464   1.778   1.935   0.820  0.2158  0.3470  0.0654
    1SOL     OW  465   1.646   0.220   0.233 -0.5842  0.1535  0.0156
    1SOL    HW2  466   1.626   0.179   0.318 -1.0457  0.3731  0.0073
    1SOL    HW3  467   1.726   0.270   0.250 -0.4213 -0.1666  0.2093
    1SOL    MW4  468   1.654   0.221   0.246 -0.6236  0.1403  0.0401
    1SOL     OW  469   0.866   3.512   0.775 -0.6991  0.0298  0.1416
    1SOL    HW2  470   0.880   3.418   0.764  1.0693  0.3055 -0.2388
    1SOL    HW3  471   0.809   3.536   0.702 -0.2455 -0.5585 -0.4163
    1SOL    MW4  472   0.861   3.503   0.764 -0.4058 -0.0114  0.0178
    1SOL     OW  473   1.981   1.293   0.731  0.1674  0.3832  0.2774
    1SOL    HW2  474   1.986   1.277   0.637  1.6094 -0.0017  0.4011
    1SOL    HW3  475   2.063   1.257   0.765 -0.0286  1.1645  1.5841
    1SOL    MW4  476   1.993   1.286   0.723  0.3318  0.4355  0.4662
    1SOL     OW  477   0.197   4.083   0.412 -0.3301  0.0237  0.4717
    1SOL    HW2  478   0.107   4.059   0.433 -0.5384  1.3131  1.0576
    1SOL    HW3  479   0.197   4.178   0.408  1.2406  0.0970  1.5718
    1SOL    MW4  480   0.185   4.092   0.414 -0.1504  0.2036  0.6942
    1SOL     OW  481   0.457   1.630   0.772  0.0633  0.2116 -0.2198
    1SOL    HW2  482   0.543   1.600   0.804  0.5293  0.6406 -1.0495
    1SOL    HW3  483   0.460   1.725   0.783  0.1165  0.3313 -1.2802
    1SOL    MW4  484   0.469   1.639   0.778  0.1318  0.2841 -0.4691
    1SOL     OW  485   1.419   4.473   0.077 -0.4952  0.1329 -0.1357
    1SOL    HW2  486   1.412   4.390   0.124 -0.7447  1.1119  1.5878
    1SOL    HW3  487   1.334   4.485   0.034 -0.2142 -0.8330 -0.9889
    1SOL    MW4  488   1.407   4.464   0.077 -0.4909  0.1345 -0.0209
    1SOL     OW  489   1.350   2.415   0.749 -0.0300 -0.1437 -0.2614
    1SOL    HW2  490   1.346   2.443   0.658  1.7466  2.0158  0.2862
    1SOL    HW3  491   1.349   2.497   0.799 -0.4858 -1.2817  1.6347
    1SOL    MW4  492   1.349   2.429   0.744  0.1441 -0.0088  0.0611
    1SOL     OW  493   1.576   2.758   0.475  0.0947 -0.0325 -0.3751
    1SOL    HW2  494   1.566   2.760   0.571  0.1740 -0.0271 -0.3661
    1SOL    HW3  495   1.493   2.726   0.442  0.4067 -0.9784 -0.2513
    1SOL    MW4  496   1.564   2.754   0.484  0.1464 -0.1564 -0.3576
    1SOL     OW  497   3.194   0.349   0.377  0.3683  0.2530 -0.1864
    1SOL    HW2  498   3.099   0.340   0.385  0.5365 -0.4967  1.0493
    1SOL    HW3  499   3.207   0.388   0.291 -0.9530 -1.6327 -1.2872
    1SOL    MW4  500   3.183   0.353   0.367  0.2160 -0.0947 -0.1686
    1SOL     OW  501   2.901   4.431   0.710 -0.3518  0.2863 -0.2178
    1SOL    HW2  502   2.933   4.494   0.775 -0.2565 -0.2700  0.2767
    1SOL    HW3  503   2.827   4.388   0.754  0.8963 -1.4256  0.2336
    1SOL    MW4  504   2.895   4.434   0.725 -0.1745 -0.0129 -0.0930
    1SOL     OW  505   0.174   1.692   0.480 -0.3396  0.0265 -0.6690
    1SOL    HW2  506   0.229   1.615   0.497  0.3774  0.8622  0.9837
    1SOL    HW3  507   0.085   1.661   0.495  0.0095 -0.2710  0.9659
    1SOL    MW4  508   0.170   1.678   0.484 -0.1990  0.0973 -0.2352
    1SOL     OW  509   1.544   1.267   0.681  0.0408 -0.4050  0.1446
    1SOL    HW2  510   1.537   1.260   0.586 -0.3426  2.9938 -0.1447
    1SOL    HW3  511   1.465   1.225   0.714 -1.0752  0.5796 -1.1869
    1SOL    MW4  512   1.532   1.261   0.673 -0.1570  0.1733 -0.0692
    1SOL     OW  513   1.333   3.462   0.854  0.5065  0.5344 -0.8259
    1SOL    HW2  514   1.411   3.503   0.814  1.5742  0.1129  0.7755
    1SOL    HW3  515   1.332   3.373   0.817 -0.1186  1.0361 -2.0403
    1SOL    MW4  516   1.343   3.456   0.844  0.5647  0.5448 -0.7749
    1SOL     OW  517   3.815   2.323   0.836  0.0401 -0.1026 -0.1030
    1SOL    HW2  518   3.750   2.384   0.802  0.4653  1.2458  1.4093
    1SOL    HW3  519   3.800   2.242   0.788 -0.8164  1.0714 -1.8449
    1SOL    MW4  520   3.804   2.321   0.825 -0.0169  0.2303 -0.1332
    1SOL     OW  521   2.012   4.659   0.847 -0.2780 -0.2711  0.0694
    1SOL    HW2  522   2.080   4.704   0.797 -0.7008  0.7621  0.4203
    1SOL    HW3  523   2.016   4.568   0.815  1.6470 -0.3725  0.5023
    1SOL    MW4  524   2.022   4.653   0.836 -0.0799 -0.1488  0.1729
    1SOL     OW  525   2.318   0.059   0.487  0.3957 -0.3210  0.0087
    1SOL    HW2  526   2.235   0.063   0.438  1.6994  0.8589 -2.1800
    1SOL    HW3  527   2.350  -0.030   0.473  1.2365  0.2925 -2.1515
    1SOL    MW4  528   2.311   0.048   0.478  0.6785 -0.0844 -0.5651
    1SOL     OW  529   1.038   0.309   0.330  0.3587  0.2231 -0.0740
    1SOL    HW2  530   1.114   0.269   0.372  0.2809  0.2342  0.0790
    1SOL    HW3  531   1.022   0.388   0.380  1.2046  1.0414 -1.0796
    1SOL    MW4  532   1.046   0.314   0.342  0.4600  0.3325 -0.1865
    1SOL     OW  533   0.664   2.061   0.810  0.2442  0.3211  0.3624
    1SOL    HW2  534   0.670   2.061   0.715 -0.2912 -0.9406  0.3104
    1SOL    HW3  535   0.659   2.153   0.834 -2.2362  0.5788 -1.0092
    1SOL    MW4  536   0.664   2.073   0.801 -0.1538  0.1886  0.1746
    1SOL     OW  537   2.479   2.694   0.483 -0.1960  0.0568  0.0340
    1SOL    HW2  538   2.471   2.724   0.573 -0.0559  0.2375 -0.0156
    1SOL    HW3  539   2.562   2.647   0.480 -1.0371 -1.5184  0.4562
    1SOL    MW4  540   2.489   2.691   0.494 -0.2887 -0.1273  0.0831
    1SOL     OW  541   2.711   1.651   0.462 -0.5019  0.1282  0.1673
    1SOL    HW2  542   2.780   1.607   0.412 -0.1808  0.9468 -0.1201
    1SOL    HW3  543   2.634   1.596   0.450 -0.1491 -0.2582 -0.3457
    1SOL    MW4  544   2.710   1.638   0.454 -0.4132  0.1854  0.0617
    1SOL     OW  545   3.760   4.031   0.292  0.0829  0.1754 -0.6094
    1SOL    HW2  546   3.780   4.124   0.295  0.2465  0.0918  1.1517
    1SOL    HW3  547   3.845   3.987   0.296 -0.0218 -0.0642 -0.9154
    1SOL    MW4  548   3.774   4.037   0.293  0.0906  0.1330 -0.4174
    1SOL     OW  549   2.121   2.413   0.465 -0.1462  0.2281 -0.4938
    1SOL    HW2  550   2.155   2.329   0.436 -0.8180 -0.3366  0.3348
    1SOL    HW3  551   2.152   2.422   0.555 -1.3714  0.1418 -0.0521
    1SOL    MW4  552   2.130   2.403   0.473 -0.3967  0.1421 -0.3262
    1SOL     OW  553   3.301   0.552   0.540 -0.1131  0.3010  0.2482
    1SOL    HW2  554   3.260   0.481   0.491 -1.3507 -0.4359  2.2477
    1SOL    HW3  555   3.260   0.632   0.505 -2.3465 -0.3361  1.2922
    1SOL    MW4  556   3.290   0.553   0.529 -0.5713  0.1197  0.6498
    1SOL     OW  557   4.248   4.378   0.698 -0.0113 -0.5268 -0.6026
    1SOL    HW2  558   4.306   4.322   0.749  0.1415 -0.5749 -0.8266
    1SOL    HW3  559   4.271   4.467   0.723  0.5357 -0.5236 -1.0851
    1SOL    MW4  560   4.259   4.382   0.708  0.0806 -0.5322 -0.6958
    1SOL     OW  561   1.570   0.766   0.826  0.1979  0.3759  0.1478
    1SOL    HW2  562   1.652   0.802   0.793  0.1467 -0.1016 -0.4998
    1SOL    HW3  563   1.504   0.794   0.763 -0.2139  1.0989  0.8779
    1SOL    MW4  564   1.572   0.774   0.813  0.1369  0.4083  0.1587
    1SOL     OW  565   0.684   3.830   0.807  0.6742  0.0464 -0.6623
    1SOL    HW2  566   0.627   3.900   0.774  0.8062  0.3044 -0.3309
    1SOL    HW3  567   0.640   3.749   0.779  0.1764  0.2472 -0.4645
    1SOL    MW4  568   0.670   3.828   0.799  0.6260  0.1070 -0.5925
    1SOL     OW  569   1.353   3.587   0.293  0.3497  0.1642  0.8596
    1SOL    HW2  570   1.368   3.568   0.201 -3.1888 -0.2949  0.2919
    1SOL    HW3  571   1.404   3.666   0.310  0.1615  0.8931 -1.7864
    1SOL    MW4  572   1.362   3.595   0.283 -0.1421  0.1996  0.4356
    1SOL     OW  573   0.894   1.688   0.801  0.4083 -0.0459  0.4530
    1SOL    HW2  574   0.894   1.769   0.851 -1.1179  0.0604  0.3073
    1SOL    HW3  575   0.961   1.633   0.843  1.2003  1.1366  0.7683
    1SOL    MW4  576   0.903   1.691   0.813  0.3114  0.1242  0.4754
    1SOL     OW  577   4.156   1.488   0.502  0.6495  0.1425 -0.4550
    1SOL    HW2  578   4.063   1.480   0.481  0.7798 -0.0762 -0.9483
    1SOL    HW3  579   4.170   1.427   0.574  0.6622 -0.6755 -1.1517
    1SOL    MW4  580   4.145   1.479   0.508  0.6685  0.0056 -0.6120
    1SOL     OW  581   0.664   0.023   0.845 -0.0340 -0.4959  0.3931
    1SOL    HW2  582   0.673   0.016   0.940 -0.3142  0.3207  0.4818
    1SOL    HW3  583   0.655  -0.068   0.815 -0.0769 -0.7461  1.1572
    1SOL    MW4  584   0.664   0.010   0.853 -0.0767 -0.4211  0.5056
    1SOL     OW  585   0.209   3.559   0.747  0.3247  0.2679 -0.2185
    1SOL    HW2  586   0.191   3.640   0.794 -0.3752 -0.3054  0.5143
    1SOL    HW3  587   0.288   3.524   0.788  0.4043  0.3772 -0.2779
    1SOL    MW4  588   0.217   3.565   0.759  0.2429  0.2067 -0.1296
    1SOL     OW  589   4.487   3.181   0.491 -0.0033 -0.0818 -0.1543
    1SOL    HW2  590   4.552   3.111   0.480 -1.8791 -1.8748 -0.1480
    1SOL    HW3  591   4.406   3.144   0.455 -1.3502  1.5872  1.0855
    1SOL    MW4  592   4.485   3.167   0.485 -0.4287 -0.0985  0.0101
    1SOL     OW  593   3.237   0.842   0.491  0.3968  0.5426  0.7071
    1SOL    HW2  594   3.210   0.848   0.583 -0.1304  1.7931  0.4765
    1SOL    HW3  595   3.223   0.929   0.456  1.1468  0.2219 -0.4262
    1SOL    MW4  596   3.232   0.854   0.499  0.4263  0.6652  0.5272
    1SOL     OW  597   3.864   3.691   0.463 -0.3403  0.1941  0.1825
    1SOL    HW2  598   3.774   3.724   0.453 -0.6654 -0.3401  1.2659
    1SOL    HW3  599   3.919   3.763   0.431 -1.1568  0.5197 -0.5031
    1SOL    MW4  600   3.859   3.705   0.458 -0.4909  0.1667  0.2350
    1SOL     OW  601   2.726   1.907   0.840  0.6639 -0.0993 -0.2354
    1SOL    HW2  602   2.643   1.943   0.808  0.3130 -2.3506 -1.9914
    1SOL    HW3  603   2.715   1.901   0.935 -1.3711 -0.8116 -0.5008
    1SOL    MW4  604   2.714   1.911   0.848  0.3490 -0.4903 -0.5021
    1SOL     OW  605   1.296   4.271   0.874  0.6346  0.2480  0.1425
    1SOL    HW2  606   1.222   4.324   0.843  0.7953  0.8541  0.7800
    1SOL    HW3  607   1.373   4.322   0.852  0.7667  0.5049  1.1804
    1SOL    MW4  608   1.296   4.285   0.867  0.6732  0.3619  0.3636
    1SOL     OW  609   2.653   3.526   0.478 -0.0742 -0.1873  0.0278
    1SOL    HW2  610   2.749   3.531   0.470 -0.1013 -0.5701 -0.5708
    1SOL    HW3  611   2.634   3.433   0.470 -0.5436 -0.0549 -0.3881
    1SOL    MW4  612   2.663   3.514   0.476 -0.1397 -0.2203 -0.1061
    1SOL     OW  613   2.969   4.629   0.889 -0.7097  0.8594  0.1743
    1SOL    HW2  614   3.031   4.674   0.832  0.2495  2.1409  2.1706
    1SOL    HW3  615   2.884   4.666   0.865 -0.5278  0.3554 -1.3609
    1SOL    MW4  616   2.966   4.640   0.878 -0.5593  0.9623  0.2351
    1SOL     OW  617   2.259   3.968   0.463 -0.1474 -0.4053 -0.1959
    1SOL    HW2  618   2.203   3.909   0.412  0.0602 -0.7009 -0.0845
    1SOL    HW3  619   2.337   3.916   0.480 -0.2265 -0.3101  0.4396
    1SOL    MW4  620   2.262   3.953   0.458 -0.1304 -0.4318 -0.0974
    1SOL     OW  621   2.441   3.848   0.846  0.0536  0.1223 -0.4371
    1SOL    HW2  622   2.370   3.892   0.799  0.4619 -0.5353 -1.6933
    1SOL    HW3  623   2.438   3.758   0.813  1.0491 -0.0620 -0.0099
    1SOL    MW4  624   2.431   3.842   0.835  0.2387  0.0112 -0.5465
    1SOL     OW  625   2.543   3.239   0.470 -0.0928  0.2562  0.8296
    1SOL    HW2  626   2.448   3.253   0.470 -0.1817 -0.3356  0.2176
    1SOL    HW3  627   2.554   3.146   0.451  0.6083  0.2780  1.1073
    1SOL    MW4  628   2.532   3.229   0.468 -0.0119  0.1810  0.7854
    1SOL     OW  629   0.764   1.293   0.509  0.4488 -0.1805 -0.1682
    1SOL    HW2  630   0.727   1.291   0.597  0.8964  0.2486  0.0295
    1SOL    HW3  631   0.711   1.230   0.460  2.4675 -3.1233  1.2793
    1SOL    MW4  632   0.752   1.284   0.514  0.7741 -0.5121  0.0489
    1SOL     OW  633   4.048   1.865   0.479  0.2434 -0.0492 -0.1281
    1SOL    HW2  634   4.125   1.922   0.486 -1.1171  1.8153 -0.0045
    1SOL    HW3  635   4.054   1.808   0.556  1.0809  0.6328  0.3304
    1SOL    MW4  636   4.059   1.865   0.490  0.1745  0.2867 -0.0513
    1SOL     OW  637   4.232   2.525   0.491  0.1218  0.6549 -0.4122
    1SOL    HW2  638   4.198   2.517   0.581  0.2562  1.8540 -0.2519
    1SOL    HW3  639   4.219   2.438   0.453 -1.7325  0.6679  0.1485
    1SOL    MW4  640   4.226   2.512   0.498 -0.1049  0.8149 -0.3171
    1SOL     OW  641   3.617   1.900   0.399  0.0821 -0.3280 -0.0782
    1SOL    HW2  642   3.687   1.847   0.360 -0.7918 -0.0952 -2.0240
    1SOL    HW3  643   3.662   1.963   0.455  1.2734 -1.6786  0.4989
    1SOL    MW4  644   3.632   1.901   0.401  0.1237 -0.4754 -0.2588
    1SOL     OW  645   2.748   0.062   0.769 -0.1790  0.1309  0.0277
    1SOL    HW2  646   2.740   0.156   0.790 -0.3704  0.0847  0.1721
    1SOL    HW3  647   2.662   0.026   0.791 -0.7823  0.2962 -2.0278
    1SOL    MW4  648   2.736   0.070   0.775 -0.2837  0.1466 -0.2244
    1SOL     OW  649   3.186   1.118   0.365 -0.1217  0.4373 -0.5942
    1SOL    HW2  650   3.189   1.112   0.269  0.1182  1.2727 -0.6377
    1SOL    HW3  651   3.105   1.165   0.383  0.8165  2.0286 -0.4662
    1SOL    MW4  652   3.176   1.123   0.354  0.0339  0.7575 -0.5830
    1SOL     OW  653   1.323   1.909   0.874  0.7332  0.2197 -0.4240
    1SOL    HW2  654   1.357   1.831   0.830 -0.0238 -0.3268 -0.0579
    1SOL    HW3  655   1.347   1.896   0.966 -0.8749 -0.4030 -0.0834
    1SOL    MW4  656   1.331   1.897   0.881  0.4210  0.0653 -0.3307
    1SOL     OW  657   0.444   1.891   0.874  0.3334 -0.7457 -0.2629
    1SOL    HW2  658   0.510   1.957   0.852 -0.9813  0.4736 -0.6958
    1SOL    HW3  659   0.453   1.878   0.968  0.5827  0.0979 -0.1640
    1SOL    MW4  660   0.454   1.898   0.884  0.1929 -0.4734 -0.3070
    1SOL     OW  661   4.275   4.305   0.436 -0.5106 -0.2596  0.2077
    1SOL    HW2  662   4.266   4.329   0.528  2.2702 -0.7376  0.6659
    1SOL    HW3  663   4.335   4.230   0.436 -0.0372  0.0601 -2.0177
    1SOL    MW4  664   4.282   4.298   0.448 -0.0815 -0.2804 -0.0255
    1SOL     OW  665   0.898   3.239   0.762  0.1149 -0.4120 -0.4451
    1SOL    HW2  666   0.876   3.235   0.669 -0.9639  1.7395 -0.2961
    1SOL    HW3  667   0.828   3.191   0.806 -1.1843  1.4231 -0.4756
    1SOL    MW4  668   0.886   3.232   0.756 -0.1989  0.1137 -0.4295
    1SOL     OW  669   1.453   3.812   0.410 -0.0634 -0.3879  0.2754
    1SOL    HW2  670   1.409   3.886   0.452  2.0055  1.5051 -0.7851
    1SOL    HW3  671   1.536   3.804   0.458  0.4028 -0.9918 -0.6352
    1SOL    MW4  672   1.458   3.821   0.422  0.2711 -0.2174  0.0153
    1SOL     OW  673   2.903   3.857   0.863  0.0759  0.5165  0.0717
    1SOL    HW2  674   2.846   3.931   0.842  0.2286  0.6609  0.1691
    1SOL    HW3  675   2.919   3.865   0.957  1.3143  1.2187 -0.1950
    1SOL    MW4  676   2.897   3.868   0.873  0.2594  0.6285  0.0494
    1SOL     OW  677   1.091   1.012   0.348  0.4306 -0.0043  0.0604
    1SOL    HW2  678   1.075   0.984   0.258  0.7428 -0.4304  0.1348
    1SOL    HW3  679   1.181   0.986   0.365  0.5101  0.4588  0.3564
    1SOL    MW4  680   1.101   1.005   0.338  0.4823  0.0006  0.1093
    1SOL     OW  681   1.574   3.602   0.707 -0.0935  0.1021  0.0928
    1SOL    HW2  682   1.656   3.564   0.737 -0.5765 -0.4736  0.7043
    1SOL    HW3  683   1.552   3.553   0.628  0.4312  0.6325 -0.3858
    1SOL    MW4  684   1.582   3.591   0.701 -0.0880  0.0961  0.1104
    1SOL     OW  685   2.469   4.490   0.455  0.2638 -0.0631  0.1788
    1SOL    HW2  686   2.535   4.485   0.386  1.1634 -0.1158  1.0313
    1SOL    HW3  687   2.412   4.415   0.439  0.8955 -0.4891 -0.0734
    1SOL    MW4  688   2.470   4.479   0.444  0.4656 -0.1254  0.2580
    1SOL     OW  689   0.081   0.197   0.389 -0.4331  0.4661  0.0718
    1SOL    HW2  690   0.174   0.179   0.376 -0.6115 -0.0688 -0.5170
    1SOL    HW3  691   0.067   0.187   0.483 -0.3079 -1.4438 -0.1065
    1SOL    MW4  692   0.092   0.193   0.400 -0.4401  0.1435 -0.0294
    1SOL     OW  693   4.032   4.485   0.368  0.2850  0.0333  0.2400
    1SOL    HW2  694   4.096   4.421   0.337  1.3710  0.7942  0.8841
    1SOL    HW3  695   4.070   4.570   0.346 -0.5849  0.4850  0.4612
    1SOL    MW4  696   4.045   4.488   0.361  0.3138  0.1931  0.3542
    1SOL     OW  697   2.443   2.289   0.822 -0.3959  0.2636 -0.3459
    1SOL    HW2  698   2.518   2.333   0.781 -0.1575 -0.4335 -0.6551
    1SOL    HW3  699   2.366   2.328   0.781 -0.1929  0.6270 -0.3842
    1SOL    MW4  700   2.443   2.300   0.811 -0.3376  0.2196 -0.3917
    1SOL     OW  701   4.307   3.826   0.332 -0.3927  0.0994 -0.2313
    1SOL    HW2  702   4.305   3.744   0.382 -2.1048  0.4002  0.2374
    1SOL    HW3  703   4.361   3.805   0.255 -0.3463 -1.3037  0.1586
    1SOL    MW4  704   4.314   3.812   0.328 -0.6127 -0.0458 -0.1180
    1SOL     OW  705   3.120   1.962   0.805  0.1775 -0.3195  0.1242
    1SOL    HW2  706   3.121   1.965   0.900 -0.2901  0.8105  0.0952
    1SOL    HW3  707   3.203   2.003   0.779  0.4862 -0.9815  0.0459
    1SOL    MW4  708   3.131   1.968   0.814  0.1564 -0.2578  0.1101
    1SOL     OW  709   2.952   3.561   0.479 -0.1610  0.3513  0.2926
    1SOL    HW2  710   2.933   3.579   0.571  0.3860  0.3052  0.4200
    1SOL    HW3  711   3.025   3.499   0.482 -1.8129 -1.6633 -0.1452
    1SOL    MW4  712   2.959   3.555   0.492 -0.3071  0.0796  0.2517
    1SOL     OW  713   1.361   4.220   0.210 -0.1518  0.3005 -0.4622
    1SOL    HW2  714   1.404   4.138   0.186 -0.9465  0.7208 -3.6485
    1SOL    HW3  715   1.275   4.193   0.242  0.3512 -0.2081  0.4842
    1SOL    MW4  716   1.355   4.206   0.211 -0.1904  0.2885 -0.7577
    1SOL     OW  717   3.161   2.709   0.845 -0.1394 -0.1835  0.1636
    1SOL    HW2  718   3.172   2.619   0.816 -1.5618 -0.3481  0.1096
    1SOL    HW3  719   3.219   2.760   0.787  0.1163 -0.9750 -0.2797
    1SOL    MW4  720   3.170   2.704   0.833 -0.2935 -0.3097  0.0980
    1SOL     OW  721   2.728   0.328   0.839 -0.6938  0.4000  0.2210
    1SOL    HW2  722   2.715   0.347   0.932  1.8344  1.0815  0.4649
    1SOL    HW3  723   2.807   0.376   0.815  0.3850 -2.1371 -1.5467
    1SOL    MW4  724   2.736   0.337   0.848 -0.2179  0.1552  0.0200
    1SOL     OW  725   3.173   2.458   0.734 -0.0076 -0.4296 -0.0857
    1SOL    HW2  726   3.231   2.393   0.773 -0.9201 -2.0747 -1.4091
    1SOL    HW3  727   3.084   2.429   0.757 -0.4783 -0.4193 -1.8363
    1SOL    MW4  728   3.169   2.446   0.742 -0.1900 -0.6452 -0.4913
    1SOL     OW  729   1.895   2.855   0.168 -0.0957 -0.2345 -0.1697
    1SOL    HW2  730   1.864   2.779   0.217  0.1120  0.2363  0.7118
    1SOL    HW3  731   1.989   2.838   0.156 -0.0745 -0.1772 -0.0848
    1SOL    MW4  732   1.903   2.843   0.173 -0.0656 -0.1647 -0.0422
    1SOL     OW  733   0.414   3.773   0.501  0.1848 -0.1722 -0.2625
    1SOL    HW2  734   0.377   3.849   0.546 -1.2528 -0.9205 -0.1567
    1SOL    HW3  735   0.475   3.736   0.565  2.0893  1.7649 -0.8831
    1SOL    MW4  736   0.418   3.778   0.516  0.2463 -0.0155 -0.3306
    1SOL     OW  737   1.817   2.660   0.848  0.0331 -0.0525 -0.8151
    1SOL    HW2  738   1.739   2.699   0.808 -1.5227  0.5596  2.6327
    1SOL    HW3  739   1.885   2.727   0.840 -0.8792  0.9259 -0.4720
    1SOL    MW4  740   1.816   2.674   0.842 -0.2925  0.1574 -0.3150
    1SOL     OW  741   2.447   3.607   0.744  0.1267  0.1727  0.4143
    1SOL    HW2  742   2.471   3.647   0.661 -1.0679 -1.1882 -0.6105
    1SOL    HW3  743   2.522   3.554   0.768  0.1384 -0.1148 -0.2431
    1SOL    MW4  744   2.460   3.606   0.736 -0.0296 -0.0448  0.1924
    1SOL     OW  745   2.670   3.230   0.706  0.1656 -0.2871 -1.1009
    1SOL    HW2  746   2.634   3.240   0.617 -1.6758  0.5207 -0.2902
    1SOL    HW3  747   2.674   3.319   0.740  0.0370 -0.6822 -0.0579
    1SOL    MW4  748   2.666   3.243   0.699 -0.0942 -0.2325 -0.8562
    1SOL     OW  749   2.681   4.284   0.803  0.0425 -0.2837 -0.2020
    1SOL    HW2  750   2.695   4.281   0.897 -1.1158 -1.4708 -0.0589
    1SOL    HW3  751   2.593   4.320   0.792 -0.1903 -1.0227 -0.7890
    1SOL    MW4  752   2.672   4.288   0.814 -0.1409 -0.5379 -0.2605
    1SOL     OW  753   0.466   4.040   0.327  0.4507  0.0737  0.4423
    1SOL    HW2  754   0.374   4.021   0.348  0.0926  1.7695  0.4846
    1SOL    HW3  755   0.494   3.967   0.273 -1.1868 -0.0480 -0.2591
    1SOL    MW4  756   0.457   4.028   0.323  0.1874  0.2813  0.3553
    1SOL     OW  757   1.513   4.401   0.749  0.2557  0.2526 -0.1662
    1SOL    HW2  758   1.512   4.441   0.662  2.3888  1.5321  0.3540
    1SOL    HW3  759   1.605   4.379   0.764 -0.1310 -0.1768  1.6643
    1SOL    MW4  760   1.525   4.404   0.740  0.4861  0.3648  0.1439
    1SOL     OW  761   1.042   1.817   0.462  0.0128  0.0390 -0.0974
    1SOL    HW2  762   1.062   1.892   0.518 -0.7111  0.3380 -0.2366
    1SOL    HW3  763   0.947   1.806   0.468 -0.1853  0.6023 -1.9034
    1SOL    MW4  764   1.032   1.825   0.470 -0.1087  0.1527 -0.3540
    1SOL     OW  765   1.989   3.029   0.373  0.2153  0.5261 -0.0986
    1SOL    HW2  766   2.008   2.950   0.423  2.4090  0.2670 -1.2742
    1SOL    HW3  767   1.957   2.998   0.289 -0.7300  0.9214  0.1079
    1SOL    MW4  768   1.988   3.015   0.369  0.3800  0.5443 -0.2265
    1SOL     OW  769   0.874   3.213   0.492 -0.2559  0.0115 -0.2001
    1SOL    HW2  770   0.955   3.198   0.444  0.1056  2.5837 -0.4507
    1SOL    HW3  771   0.835   3.289   0.450 -1.6537  0.2049  1.4014
    1SOL    MW4  772   0.879   3.221   0.480 -0.3927  0.3765 -0.0218
    1SOL     OW  773   1.523   3.450   0.473 -0.2695 -0.2157 -0.1985
    1SOL    HW2  774   1.478   3.500   0.405 -0.0089  0.2600 -0.0227
    1SOL    HW3  775   1.611   3.437   0.440  0.1524  0.8719  0.4731
    1SOL    MW4  776   1.528   3.455   0.460 -0.1795 -0.0093 -0.0868
    1SOL     OW  777   3.624   3.221   0.519 -0.0966 -0.3261 -0.1191
    1SOL    HW2  778   3.566   3.297   0.519 -0.1771 -0.3783 -0.9765
    1SOL    HW3  779   3.577   3.155   0.469  0.1192 -0.8214  0.3384
    1SOL    MW4  780   3.610   3.223   0.512 -0.0789 -0.3984 -0.1719
    1SOL     OW  781   1.341   4.621   0.297  0.3409  0.0902  0.2519
    1SOL    HW2  782   1.277   4.555   0.321 -0.2756  0.2883 -0.8125
    1SOL    HW3  783   1.386   4.585   0.221  0.9304  0.3150  0.4866
    1SOL    MW4  784   1.339   4.608   0.290  0.3374  0.1464  0.1424
    1SOL     OW  785   0.568   3.528   0.221  0.3438  0.0122  0.1009
    1SOL    HW2  786   0.550   3.622   0.219 -0.3345 -0.1293 -0.6204
    1SOL    HW3  787   0.628   3.513   0.149  0.0957 -0.1777 -0.0685
    1SOL    MW4  788   0.574   3.538   0.211  0.2216 -0.0317 -0.0166
    1SOL     OW  789   4.232   0.164   0.685  0.0651  0.0752 -0.3108
    1SOL    HW2  790   4.147   0.143   0.647  0.8490 -1.8705 -1.1113
    1SOL    HW3  791   4.215   0.236   0.745 -2.1348 -0.2850 -0.4555
    1SOL    MW4  792   4.219   0.170   0.688 -0.1216 -0.2290 -0.4355
    1SOL     OW  793   0.646   0.808   0.376  0.2721 -0.3261 -0.1094
    1SOL    HW2  794   0.623   0.720   0.406  0.4091 -0.0280  0.8729
    1SOL    HW3  795   0.739   0.817   0.399  0.3896 -0.1111 -0.6637
    1SOL    MW4  796   0.656   0.798   0.383  0.3057 -0.2584 -0.0530
    1SOL     OW  797   1.815   4.651   0.202 -0.3526 -0.3815  0.1359
    1SOL    HW2  798   1.754   4.719   0.174 -0.2249 -0.4792 -0.3779
    1SOL    HW3  799   1.800   4.579   0.142  1.8627  0.4287 -1.4584
    1SOL    MW4  800   1.805   4.651   0.190 -0.0435 -0.2875 -0.1422
    1SOL     OW  801   0.598   0.540   0.465 -0.1226  0.3680  0.0037
    1SOL    HW2  802   0.638   0.546   0.552 -1.0167 -0.7439  0.5148
    1SOL    HW3  803   0.504   0.553   0.481 -0.3266 -0.1151 -0.7466
    1SOL    MW4  804   0.591   0.542   0.479 -0.2674  0.1575 -0.0279
    1SOL     OW  805   2.229   0.369   0.882 -0.0928  0.8322  0.6335
    1SOL    HW2  806   2.234   0.292   0.826  0.8241  0.5686  1.0697
    1SOL    HW3  807   2.149   0.414   0.854 -0.4438 -0.0852  0.1387
    1SOL    MW4  808   2.219   0.365   0.871 -0.0184  0.6764  0.6258
    1SOL     OW  809   3.325   4.362   0.782 -0.0781 -0.1801 -0.2844
    1SOL    HW2  810   3.313   4.450   0.818 -1.9009  1.0374 -3.6259
    1SOL    HW3  811   3.243   4.317   0.801 -0.0805 -0.3498 -0.6947
    1SOL    MW4  812   3.313   4.368   0.790 -0.3188 -0.0415 -0.7794
    1SOL     OW  813   3.570   4.229   0.814  0.4527 -1.0057  0.6976
    1SOL    HW2  814   3.486   4.271   0.800  0.1900 -0.7777  2.7222
    1SOL    HW3  815   3.555   4.137   0.791  0.4244 -0.4673 -1.5615
    1SOL    MW4  816   3.557   4.222   0.809  0.4144 -0.9046  0.6667
    1SOL     OW  817   0.928   4.561   0.348 -0.5702 -0.1195  0.1787
    1SOL    HW2  818   0.939   4.646   0.390 -2.0036 -0.3328  1.0047
    1SOL    HW3  819   0.898   4.581   0.260  1.1549  0.2820 -0.3435
    1SOL    MW4  820   0.926   4.574   0.342 -0.5317 -0.0949  0.2187
    1SOL     OW  821   2.192   3.163   0.247 -0.0722 -0.3237  0.0891
    1SOL    HW2  822   2.127   3.103   0.284  2.0698 -0.6494  3.4756
    1SOL    HW3  823   2.229   3.114   0.173 -0.3656 -2.0562  1.0522
    1SOL    MW4  824   2.188   3.149   0.242  0.1717 -0.5951  0.6630
    1SOL     OW  825   3.386   0.480   0.784 -0.3291 -0.2885 -0.2880
    1SOL    HW2  826   3.368   0.490   0.690  0.5726 -0.2326 -0.4547
    1SOL    HW3  827   3.461   0.420   0.788 -0.2266 -0.1182  0.3895
    1SOL    MW4  828   3.393   0.474   0.772 -0.1967 -0.2587 -0.2206
    1SOL     OW  829   0.709   2.518   0.599  0.1093 -0.2217  0.1570
    1SOL    HW2  830   0.624   2.502   0.558 -0.1394  0.4606  0.3941
    1SOL    HW3  831   0.742   2.597   0.556 -0.6765  1.1817  2.0550
    1SOL    MW4  832   0.702   2.526   0.588 -0.0271  0.0534  0.4387
    1SOL     OW  833   0.198   4.373   0.460 -0.0446  0.2232  0.2940
    1SOL    HW2  834   0.177   4.368   0.553 -0.9480  0.3766  0.1055
    1SOL    HW3  835   0.120   4.413   0.420  0.0931 -0.4021 -0.6106
    1SOL    MW4  836   0.185   4.378   0.467 -0.1456  0.1612  0.1498
    1SOL     OW  837   0.387   0.879   0.429  0.4125 -0.7290  0.3152
    1SOL    HW2  838   0.403   0.902   0.521 -1.0533  0.7596  0.2224
    1SOL    HW3  839   0.474   0.865   0.392  1.0951  0.0510  1.5889
    1SOL    MW4  840   0.400   0.880   0.436  0.3091 -0.4297  0.4710
    1SOL     OW  841   2.031   3.586   0.750 -0.1412 -0.6659 -0.1829
    1SOL    HW2  842   2.112   3.549   0.787 -0.1171 -0.0744  0.3672
    1SOL    HW3  843   1.963   3.524   0.774 -0.3152  0.2879  1.8810
    1SOL    MW4  844   2.033   3.573   0.758 -0.1609 -0.4621  0.1621
    1SOL     OW  845   4.093   0.363   0.849  0.0825  0.0336 -0.0579
    1SOL    HW2  846   4.157   0.428   0.820  0.3618  0.0320  0.5366
    1SOL    HW3  847   4.012   0.388   0.806  0.4377  0.1580 -0.6582
    1SOL    MW4  848   4.091   0.375   0.840  0.1664  0.0498 -0.0587
    1SOL     OW  849   3.209   1.669   0.482  0.3201  0.3443  0.1747
    1SOL    HW2  850   3.174   1.752   0.448 -1.3616  0.1874  1.4667
    1SOL    HW3  851   3.142   1.604   0.458  1.5081 -0.6093 -0.5972
    1SOL    MW4  852   3.195   1.672   0.474  0.2549  0.1978  0.2433
    1SOL     OW  853   1.106   2.857   0.464 -0.0200  0.4963 -0.2253
    1SOL    HW2  854   1.187   2.839   0.416  1.1784  0.6215  1.7069
    1SOL    HW3  855   1.079   2.944   0.434 -0.1163 -0.0334 -1.7550
    1SOL    MW4  856   1.113   2.866   0.454  0.1254  0.4430 -0.1722
    1SOL     OW  857   0.995   2.455   0.439 -0.1484 -0.4043 -0.2787
    1SOL    HW2  858   0.962   2.365   0.435 -2.2278  0.2596  1.2244
    1SOL    HW3  859   0.926   2.508   0.400  0.8419  0.6220 -0.6894
    1SOL    MW4  860   0.982   2.450   0.433 -0.2921 -0.1812 -0.1346
    1SOL     OW  861   1.809   4.294   0.318  0.1002  0.6402  0.6546
    1SOL    HW2  862   1.788   4.350   0.244  0.8896  1.4097  0.9944
    1SOL    HW3  863   1.725   4.278   0.362 -0.6960 -1.5418 -1.5645
    1SOL    MW4  864   1.795   4.299   0.314  0.0993  0.4535  0.4067
    1SOL     OW  865   3.517   1.633   0.488  0.0454 -0.3192 -0.0447
    1SOL    HW2  866   3.567   1.703   0.446 -2.1002  0.7686 -0.8946
    1SOL    HW3  867   3.427   1.666   0.488 -0.6423 -2.1272  1.6219
    1SOL    MW4  868   3.511   1.647   0.482 -0.3283 -0.4143  0.0630
    1SOL     OW  869   0.703   2.371   0.862 -0.2370  0.4572 -0.0667
    1SOL    HW2  870   0.700   2.359   0.957 -0.5067 -0.9119 -0.2295
    1SOL    HW3  871   0.624   2.420   0.841  1.1015  3.0280  0.6929
    1SOL    MW4  872   0.692   2.376   0.872 -0.0960  0.6158  0.0120
    1SOL     OW  873   0.250   3.558   0.479 -0.1378  0.6356 -0.0548
    1SOL    HW2  874   0.302   3.638   0.477  0.3757  0.3488  1.2975
    1SOL    HW3  875   0.236   3.541   0.572 -0.6516 -0.5791 -0.3450
    1SOL    MW4  876   0.255   3.566   0.491 -0.1378  0.4373  0.0853
    1SOL     OW  877   3.335   2.871   0.700 -0.0727 -0.6417 -0.1004
    1SOL    HW2  878   3.341   2.951   0.753 -0.1103 -0.1617 -0.8161
    1SOL    HW3  879   3.411   2.819   0.728 -0.7683 -0.9351  1.3021
    1SOL    MW4  880   3.346   2.875   0.711 -0.1695 -0.6173 -0.0098
    1SOL     OW  881   0.493   2.715   0.873 -0.0031  0.1199  0.2803
    1SOL    HW2  882   0.575   2.749   0.839 -0.5473  2.7155  1.4072
    1SOL    HW3  883   0.486   2.626   0.838  1.5301  1.1495 -2.7137
    1SOL    MW4  884   0.503   2.708   0.864  0.1274  0.5982  0.0340
    1SOL     OW  885   3.216   4.577   0.402 -0.4767 -0.2078 -0.4338
    1SOL    HW2  886   3.129   4.588   0.440 -0.1145  1.0552  0.0626
    1SOL    HW3  887   3.266   4.652   0.436  0.4788 -0.3008 -1.6193
    1SOL    MW4  888   3.211   4.589   0.412 -0.3028 -0.0534 -0.5247
    1SOL     OW  889   2.239   3.994   0.757  0.2749 -0.2586 -0.0536
    1SOL    HW2  890   2.233   3.999   0.662 -1.8016  0.8923  0.1034
    1SOL    HW3  891   2.152   3.966   0.785  0.3442  1.0573  1.5769
    1SOL    MW4  892   2.227   3.991   0.748  0.0100  0.0672  0.1822
    1SOL     OW  893   1.370   4.009   0.790 -0.0330  0.1228 -0.2443
    1SOL    HW2  894   1.298   3.953   0.820  0.1403  0.3401  0.5871
    1SOL    HW3  895   1.346   4.097   0.820  0.7321  0.1457  0.3141
    1SOL    MW4  896   1.357   4.013   0.798  0.0907  0.1545 -0.0610
    1SOL     OW  897   3.579   0.632   0.489  0.4655  0.2117  0.1538
    1SOL    HW2  898   3.565   0.726   0.480 -0.0455  0.1022 -0.2484
    1SOL    HW3  899   3.495   0.598   0.520  0.5173 -0.1657 -0.1128
    1SOL    MW4  900   3.566   0.640   0.492  0.4051  0.1475  0.0656
    1SOL     OW  901   0.001   1.974   0.864  0.2207  0.5998 -0.4273
    1SOL    HW2  902   0.083   1.991   0.818  0.2119  1.2466 -0.2083
    1SOL    HW3  903  -0.020   1.883   0.843  0.5960  0.6692 -1.1092
    1SOL    MW4  904   0.009   1.964   0.855  0.2689  0.6942 -0.4883
    1SOL     OW  905   4.455   1.005   0.846  0.2630  0.2044  0.2110
    1SOL    HW2  906   4.462   1.046   0.932 -0.2237 -0.3822  0.5371
    1SOL    HW3  907   4.387   0.938   0.857 -0.6539  0.9203 -0.9438
    1SOL    MW4  908   4.447   1.002   0.859  0.0782  0.2214  0.1016
    1SOL     OW  909   3.177   3.158   0.298  0.0331  0.0066 -0.1640
    1SOL    HW2  910   3.137   3.166   0.212  0.4771 -2.2971 -0.6431
    1SOL    HW3  911   3.140   3.077   0.334 -0.0306  0.8629  1.7554
    1SOL    MW4  912   3.167   3.148   0.291  0.0834 -0.1845  0.0260
    1SOL     OW  913   1.862   2.431   0.489  0.0713  0.2469 -0.2609
    1SOL    HW2  914   1.956   2.416   0.478 -0.0701 -0.7014 -0.2560
    1SOL    HW3  915   1.846   2.418   0.582 -0.1783 -0.3162 -0.3770
    1SOL    MW4  916   1.872   2.427   0.499  0.0197  0.0474 -0.2756
    1SOL     OW  917   3.126   1.104   0.839 -0.2342  0.4643  0.4917
    1SOL    HW2  918   3.210   1.137   0.805  0.7701 -1.7396  0.7160
    1SOL    HW3  919   3.122   1.136   0.929  0.6379  0.1367  0.6521
    1SOL    MW4  920   3.137   1.113   0.846  0.0131  0.1303  0.5425
    1SOL     OW  921   3.173   3.384   0.491  0.5120  0.0056  0.2609
    1SOL    HW2  922   3.267   3.402   0.496  0.7916 -1.4501  0.4606
    1SOL    HW3  923   3.166   3.313   0.426 -0.4169 -0.0522  0.4244
    1SOL    MW4  924   3.185   3.377   0.483  0.4263 -0.1943  0.3089
    1SOL     OW  925   1.334   0.889   0.705 -0.3256  0.6691  0.0117
    1SOL    HW2  926   1.312   0.969   0.753 -2.0766  0.0974  0.1773
    1SOL    HW3  927   1.271   0.824   0.735 -0.7100 -0.0191 -2.1687
    1SOL    MW4  928   1.323   0.891   0.715 -0.6074  0.5029 -0.2541
    1SOL     OW  929   3.806   0.469   0.456 -0.1965  0.0776  0.0074
    1SOL    HW2  930   3.730   0.526   0.446  0.4138  0.8611 -0.2141
    1SOL    HW3  931   3.881   0.529   0.455  0.4642 -0.7552 -0.4468
    1SOL    MW4  932   3.806   0.484   0.455 -0.0288  0.0711 -0.0817
    1SOL     OW  933   4.028   2.435   0.723 -0.0631 -0.7438 -0.1825
    1SOL    HW2  934   4.091   2.387   0.777 -0.6319 -0.4861  0.7144
    1SOL    HW3  935   3.943   2.397   0.745 -0.4264  0.1275 -0.0619
    1SOL    MW4  936   4.025   2.423   0.733 -0.1860 -0.5949 -0.0482
    1SOL     OW  937   1.753   1.633   0.456 -0.2975 -0.7188  0.0881
    1SOL    HW2  938   1.747   1.645   0.551  1.8245  0.4621  0.1153
    1SOL    HW3  939   1.675   1.677   0.421 -0.6810 -0.4827  1.2294
    1SOL    MW4  940   1.742   1.641   0.464 -0.0682 -0.5318  0.2423
    1SOL     OW  941   1.311   0.628   0.258 -0.3018 -0.0887  0.3356
    1SOL    HW2  942   1.283   0.632   0.166 -1.1076  0.2511  0.5860
    1SOL    HW3  943   1.346   0.540   0.269 -1.8307 -0.7495  0.1456
    1SOL    MW4  944   1.312   0.617   0.247 -0.6098 -0.1310  0.3436
    1SOL     OW  945   2.028   0.314   0.492 -0.0378  0.2810  0.1752
    1SOL    HW2  946   1.989   0.337   0.576 -0.3753  1.0505 -0.1897
    1SOL    HW3  947   2.107   0.369   0.488 -0.1424  0.4098 -0.1061
    1SOL    MW4  948   2.034   0.325   0.503 -0.0961  0.3995  0.0900
    1SOL     OW  949   4.034   0.882   0.715  0.1212  0.2591  0.5725
    1SOL    HW2  950   4.019   0.975   0.730  0.3293  0.1865  1.2471
    1SOL    HW3  951   4.117   0.864   0.759  0.0280 -0.2676  0.5303
    1SOL    MW4  952   4.043   0.892   0.723  0.1364  0.1801  0.6559
    1SOL     OW  953   0.782   1.770   0.543  0.1977 -0.4398  0.5508
    1SOL    HW2  954   0.830   1.750   0.623  0.0778 -1.0644  0.4693
    1SOL    HW3  955   0.743   1.687   0.517 -0.6351 -0.0123  0.4213
    1SOL    MW4  956   0.783   1.756   0.550  0.0720 -0.4659  0.5230
    1SOL     OW  957   0.737   3.475   0.437  0.3256  0.5081  0.1158
    1SOL    HW2  958   0.678   3.488   0.363  1.2482  0.3913 -0.6497
    1SOL    HW3  959   0.814   3.528   0.416  0.6043  0.4570  0.9772
    1SOL    MW4  960   0.740   3.484   0.424  0.4841  0.4861  0.1284
    1SOL     OW  961   1.569   3.049   0.411 -0.2825  0.3439  0.1165
    1SOL    HW2  962   1.572   2.958   0.440 -1.1320  0.8028  1.7441
    1SOL    HW3  963   1.635   3.094   0.464 -0.7355  0.9052  0.2147
    1SOL    MW4  964   1.578   3.043   0.422 -0.4544  0.4785  0.3442
    1SOL     OW  965   1.294   2.164   0.431 -0.2566  0.0660 -0.0175
    1SOL    HW2  966   1.303   2.150   0.337  0.5688  1.0400 -0.0880
    1SOL    HW3  967   1.380   2.141   0.467  0.0778  1.7183  0.2478
    1SOL    MW4  968   1.306   2.159   0.423 -0.1036  0.4125  0.0082
    1SOL     OW  969   3.450   1.177   0.500  0.3358 -0.3379  0.1711
    1SOL    HW2  970   3.427   1.174   0.593  0.1903 -0.9883  0.1167
    1SOL    HW3  971   3.369   1.153   0.455  0.4924 -0.3385 -0.1096
    1SOL    MW4  972   3.436   1.173   0.506  0.3371 -0.4239  0.1269
    1SOL     OW  973   2.478   1.525   0.427 -0.2300 -0.2819 -0.2332
    1SOL    HW2  974   2.435   1.497   0.347 -1.5559 -1.7467  0.9530
    1SOL    HW3  975   2.421   1.595   0.462  0.4143  0.4470 -0.6246
    1SOL    MW4  976   2.465   1.531   0.421 -0.3200 -0.3790 -0.1283
    1SOL     OW  977   4.270   2.024   0.489  0.6349 -0.6778  0.1505
    1SOL    HW2  978   4.361   1.993   0.494  0.7237 -0.5558 -0.6314
    1SOL    HW3  979   4.251   2.055   0.578  1.9931  1.0596 -0.1286
    1SOL    MW4  980   4.280   2.024   0.502  0.8259 -0.4323  0.0105
    1SOL     OW  981   3.909   3.171   0.467 -0.1838 -0.3180  0.3828
    1SOL    HW2  982   3.945   3.258   0.446 -0.1525 -0.3147  0.4496
    1SOL    HW3  983   3.819   3.188   0.493  0.1164 -0.1879  1.3741
    1SOL    MW4  984   3.902   3.185   0.467 -0.1400 -0.3002  0.5224
    1SOL     OW  985   1.339   2.681   0.834  0.0675 -0.2769  0.1915
    1SOL    HW2  986   1.351   2.682   0.929 -0.9627 -2.9489  0.3981
    1SOL    HW3  987   1.255   2.726   0.819  0.1162 -0.0635  0.5662
    1SOL    MW4  988   1.329   2.687   0.844 -0.0620 -0.6013  0.2681
    1SOL     OW  989   3.598   0.100   0.531  0.1513  0.0310  0.5761
    1SOL    HW2  990   3.507   0.117   0.510  0.4219  0.0087 -0.6444
    1SOL    HW3  991   3.599   0.089   0.626 -1.0063  0.6591  0.6663
    1SOL    MW4  992   3.586   0.101   0.541  0.0343  0.1109  0.4270
    1SOL     OW  993   4.007   3.464   0.804  0.4281 -0.4020  0.0523
    1SOL    HW2  994   4.014   3.372   0.779  0.1904 -0.9665  1.9912
    1SOL    HW3  995   4.046   3.468   0.891  0.2045  1.2904  0.0915
    1SOL    MW4  996   4.013   3.453   0.812  0.3676 -0.2532  0.3133
    1SOL     OW  997   0.504   0.482   0.871  0.0732 -0.3840  0.6265
    1SOL    HW2  998   0.414   0.504   0.847  0.4341  0.3404 -0.0848
    1SOL    HW3  999   0.512   0.388   0.852 -0.1724 -0.1972 -0.4416
    1SOL    MW4 1000   0.493   0.472   0.865  0.0884 -0.2638  0.3918
    1SOL     OW 1001   1.783   3.981   0.285 -0.1629 -0.2762  0.0392
    1SOL    HW2 1002   1.759   3.957   0.374  0.3859 -1.1962 -0.0504
    1SOL    HW3 1003   1.808   4.073   0.290  0.1590 -0.4097  0.8880
    1SOL    MW4 1004   1.783   3.990   0.297 -0.0480 -0.4153  0.1393
    1SOL     OW 1005   0.023   0.403   0.837  0.5442 -0.1935  0.2005
    1SOL    HW2 1006   0.096   0.456   0.806  0.9130 -0.5951  0.3758
    1SOL    HW3 1007   0.032   0.401   0.932 -0.4546  0.8436  0.3224
    1SOL    MW4 1008   0.034   0.409   0.846  0.4611 -0.1097  0.2398
    1SOL     OW 1009   2.046   1.752   0.429  0.3766  0.0562  0.1091
    1SOL    HW2 1010   2.022   1.844   0.426  1.2069  0.2909  0.5707
    1SOL    HW3 1011   1.962   1.705   0.433 -0.0829  0.7375 -1.2288
    1SOL    MW4 1012   2.032   1.758   0.429  0.4258  0.1770 -0.0065
    1SOL     OW 1013   0.209   0.846   0.830  0.5351  0.4228  0.2275
    1SOL    HW2 1014   0.127   0.895   0.836 -0.7818 -1.7977  0.9295
    1SOL    HW3 1015   0.232   0.826   0.921 -0.1650 -2.1914 -0.1447
    1SOL    MW4 1016   0.201   0.850   0.843  0.2690 -0.2151  0.2710
    1SOL     OW 1017   4.432   1.194   0.656  0.5035 -0.0808 -0.2609
    1SOL    HW2 1018   4.438   1.138   0.578 -1.4196  0.6349 -0.9397
    1SOL    HW3 1019   4.433   1.132   0.729 -0.7268 -0.9731 -0.9667
    1SOL    MW4 1020   4.433   1.178   0.655  0.0877 -0.1041 -0.4436
    1SOL     OW 1021   0.190   1.550   0.839  0.2463 -0.0058 -0.2383
    1SOL    HW2 1022   0.118   1.608   0.814 -0.6814 -1.2967 -0.6157
    1SOL    HW3 1023   0.269   1.595   0.809 -0.3316  1.7763  0.8577
    1SOL    MW4 1024   0.191   1.563   0.832  0.0477  0.0589 -0.1435
    1SOL     OW 1025   0.320   0.590   0.504 -0.4899 -0.0855 -0.4927
    1SOL    HW2 1026   0.252   0.543   0.456 -1.1682  0.0619  0.3297
    1SOL    HW3 1027   0.317   0.679   0.468 -0.7757 -0.0612 -0.4087
    1SOL    MW4 1028   0.311   0.595   0.493 -0.6171 -0.0628 -0.3731
    1SOL     OW 1029   0.191   1.310   0.695 -0.2948  0.2049  0.3110
    1SOL    HW2 1030   0.104   1.270   0.688 -0.5534  0.3456  2.6338
    1SOL    HW3 1031   0.178   1.386   0.751  0.8089  1.8265 -1.5887
    1SOL    MW4 1032   0.178   1.314   0.701 -0.1833  0.4373  0.3668
    1SOL     OW 1033   1.109   2.820   0.736 -0.1664  0.1129 -0.0101
    1SOL    HW2 1034   1.035   2.765   0.761 -0.3919  0.1488 -0.6045
    1SOL    HW3 1035   1.113   2.813   0.641  0.7496 -0.0913  0.0346
    1SOL    MW4 1036   1.100   2.811   0.727 -0.0752  0.0906 -0.0826
    1SOL     OW 1037   3.960   2.306   0.456 -0.2802  0.0543  0.3902
    1SOL    HW2 1038   3.876   2.345   0.429  0.0105  0.7205  0.4514
    1SOL    HW3 1039   3.972   2.336   0.546  0.4293  0.6306  0.1032
    1SOL    MW4 1040   3.950   2.315   0.464 -0.1485  0.2182  0.3604
    1SOL     OW 1041   1.087   2.373   0.831 -0.0568 -0.5145  0.1350
    1SOL    HW2 1042   1.088   2.278   0.843  0.6834 -0.5172  0.0856
    1SOL    HW3 1043   1.168   2.392   0.783 -0.6537  0.0340 -0.6863
    1SOL    MW4 1044   1.098   2.363   0.826 -0.0380 -0.4423  0.0201
    1SOL     OW 1045   0.183   2.973   0.431  0.0038  0.4205 -0.1852
    1SOL    HW2 1046   0.174   2.964   0.336  0.8877  0.1737 -0.2516
    1SOL    HW3 1047   0.187   2.883   0.463  1.3626  0.5138 -0.0836
    1SOL    MW4 1048   0.182   2.960   0.423  0.2997  0.4003 -0.1805
    1SOL     OW 1049   4.226   2.317   0.871 -0.0577 -0.2722 -0.0251
    1SOL    HW2 1050   4.211   2.226   0.847 -0.6692  0.3648 -2.2181
    1SOL    HW3 1051   4.318   2.333   0.849 -0.2322 -0.0736 -0.6068
    1SOL    MW4 1052   4.236   2.307   0.865 -0.1616 -0.1619 -0.3912
    1SOL     OW 1053   0.630   1.547   0.436  0.1685 -0.3048 -0.4513
    1SOL    HW2 1054   0.547   1.525   0.477  1.2958 -2.2294  0.9238
    1SOL    HW3 1055   0.681   1.466   0.439  2.0922  0.8169 -1.2440
    1SOL    MW4 1056   0.626   1.534   0.442  0.5711 -0.4108 -0.3744
    1SOL     OW 1057   4.014   1.694   0.717  0.2353 -0.3884 -0.4838
    1SOL    HW2 1058   3.934   1.656   0.755  0.0852  0.3975  0.0101
    1SOL    HW3 1059   4.085   1.654   0.767  0.0313  0.7598  0.7653
    1SOL    MW4 1060   4.013   1.684   0.729  0.1884 -0.1332 -0.2539
    1SOL     OW 1061   0.209   3.048   0.875  0.1523 -0.1745  0.3406
    1SOL    HW2 1062   0.214   3.050   0.970  1.4951  1.1357  0.2658
    1SOL    HW3 1063   0.150   3.121   0.853 -0.2997 -0.5894  0.1837
    1SOL    MW4 1064   0.202   3.058   0.885  0.2698 -0.0563  0.3101
    1SOL     OW 1065   1.642   1.177   0.217 -0.3104 -0.2816 -0.0391
    1SOL    HW2 1066   1.568   1.168   0.157  0.4420 -0.7871 -0.9074
    1SOL    HW3 1067   1.683   1.090   0.218  1.0576  0.3445 -0.6220
    1SOL    MW4 1068   1.637   1.164   0.209 -0.0306 -0.2656 -0.2306
    1SOL     OW 1069   0.020   2.504   0.545  0.3973 -0.1973  0.2341
    1SOL    HW2 1070  -0.071   2.524   0.525 -0.0051 -0.6154  1.5768
    1SOL    HW3 1071   0.038   2.423   0.497  0.2345  0.1757 -0.4641
    1SOL    MW4 1072   0.011   2.496   0.536  0.3227 -0.2034  0.3192
    1SOL     OW 1073   0.021   3.207   0.749 -0.2259 -0.5634 -0.1309
    1SOL    HW2 1074   0.002   3.200   0.656  0.5355 -0.4538 -0.2904
    1SOL    HW3 1075  -0.004   3.297   0.772  0.1493 -0.3993 -0.3567
    1SOL    MW4 1076   0.015   3.218   0.740 -0.0760 -0.5269 -0.1817
    1SOL     OW 1077   0.445   3.447   0.825  0.0242 -0.5563 -0.0051
    1SOL    HW2 1078   0.453   3.453   0.920 -0.7158 -0.9478  0.0854
    1SOL    HW3 1079   0.430   3.354   0.808 -1.2190 -0.2909 -0.4017
    1SOL    MW4 1080   0.444   3.435   0.835 -0.2374 -0.5727 -0.0455
    1SOL     OW 1081   0.212   2.711   0.535 -0.1360 -0.5217  0.1169
    1SOL    HW2 1082   0.136   2.653   0.531  0.2868 -1.1232  0.7527
    1SOL    HW3 1083   0.218   2.736   0.627  1.1107 -1.3917  0.2777
    1SOL    MW4 1084   0.203   2.706   0.546  0.0843 -0.7157  0.2220
    1SOL     OW 1085   0.405   1.148   0.833  0.1944 -0.0273 -0.2035
    1SOL    HW2 1086   0.412   1.070   0.777 -0.4682 -0.6776  0.6053
    1SOL    HW3 1087   0.327   1.193   0.801 -1.0181 -1.1658  1.1408
    1SOL    MW4 1088   0.396   1.144   0.821 -0.0530 -0.2633  0.0806
    1SOL     OW 1089   0.504   0.214   0.713  0.0957  0.0435 -0.6625
    1SOL    HW2 1090   0.419   0.171   0.709  0.0127  0.1193  0.1485
    1SOL    HW3 1091   0.561   0.150   0.757  0.2918  0.2506 -0.6151
    1SOL    MW4 1092   0.500   0.200   0.719  0.1106  0.0808 -0.5492
    1SOL     OW 1093   0.466   0.391   1.143  0.1429  0.9105 -0.7514
    1SOL    HW2 1094   0.487   0.425   1.057 -0.9587  1.2955 -0.8810
    1SOL    HW3 1095   0.394   0.447   1.174 -0.2990  0.0060 -0.1111
    1SOL    MW4 1096   0.459   0.403   1.136 -0.0608  0.8419 -0.6839
    1SOL     OW 1097   2.017   2.046   0.709  1.0431  0.1642  0.1418
    1SOL    HW2 1098   2.022   2.127   0.761 -0.4159  0.0893  0.4189
    1SOL    HW3 1099   1.932   2.008   0.732  0.1370  0.3845 -2.7143
    1SOL    MW4 1100   2.006   2.052   0.719  0.7310  0.1833 -0.1984
    1SOL     OW 1101   3.357   1.215   0.760  0.0459 -0.1331 -0.3347
    1SOL    HW2 1102   3.426   1.165   0.805  0.2127 -1.4208 -1.9469
    1SOL    HW3 1103   3.367   1.304   0.792  3.6980  0.1004 -1.8859
    1SOL    MW4 1104   3.368   1.220   0.770  0.5498 -0.2722 -0.7521
    1SOL     OW 1105   3.560   1.695   0.748  0.0202  0.2103  0.1582
    1SOL    HW2 1106   3.507   1.627   0.790 -1.3313  0.6684 -0.7688
    1SOL    HW3 1107   3.564   1.668   0.656  0.6840  0.6346  0.0645
    1SOL    MW4 1108   3.553   1.682   0.742 -0.0706  0.3268  0.0235
    1SOL     OW 1109   0.889   0.163   0.771 -0.1279  0.5683 -0.0323
    1SOL    HW2 1110   0.896   0.151   0.677  1.4251  1.0357  0.0068
    1SOL    HW3 1111   0.814   0.109   0.797 -1.2400  1.3031 -1.6776
    1SOL    MW4 1112   0.880   0.154   0.762 -0.0697  0.7269 -0.2442
    1SOL     OW 1113   0.725   2.838   0.738  0.0144 -0.2833 -0.5577
    1SOL    HW2 1114   0.727   2.925   0.779  1.9787 -0.2353 -0.6783
    1SOL    HW3 1115   0.735   2.856   0.644 -0.7920 -0.5801 -0.6999
    1SOL    MW4 1116   0.727   2.852   0.731  0.1671 -0.3159 -0.5924
    1SOL     OW 1117   1.421   0.381   0.321  0.2360  0.3229 -0.0530
    1SOL    HW2 1118   1.374   0.313   0.370 -0.1971 -0.1978 -1.1855
    1SOL    HW3 1119   1.484   0.333   0.268  0.1177  0.8311 -0.6534
    1SOL    MW4 1120   1.423   0.366   0.321  0.1632  0.3212 -0.2816
    1SOL     OW 1121   0.438   3.165   0.782 -0.3121  0.4053 -0.2231
    1SOL    HW2 1122   0.444   3.137   0.691  1.9993 -0.5103  0.1894
    1SOL    HW3 1123   0.360   3.121   0.815  0.0160 -0.9504 -1.1949
    1SOL    MW4 1124   0.429   3.155   0.774  0.0362  0.1059 -0.2969
    1SOL     OW 1125   0.637   1.266   0.753 -0.0661 -0.0719  0.1686
    1SOL    HW2 1126   0.555   1.226   0.780 -0.7031  0.4064 -1.0057
    1SOL    HW3 1127   0.641   1.349   0.801 -0.1070 -0.2491  0.4761
    1SOL    MW4 1128   0.627   1.272   0.763 -0.1554 -0.0322  0.0542
    1SOL     OW 1129   2.942   1.491   0.786  0.0361 -0.2903  0.2961
    1SOL    HW2 1130   2.857   1.531   0.767 -0.2254 -0.3295  1.3820
    1SOL    HW3 1131   3.006   1.560   0.766 -0.3470  0.2970  1.0849
    1SOL    MW4 1132   2.940   1.506   0.781 -0.0489 -0.2182  0.5434
    1SOL     OW 1133   4.432   1.710   0.797 -0.0290  0.1641 -0.2131
    1SOL    HW2 1134   4.354   1.677   0.841 -0.6138  1.1744 -0.4707
    1SOL    HW3 1135   4.406   1.716   0.705 -0.6654  3.3524  0.1132
    1SOL    MW4 1136   4.418   1.707   0.790 -0.1898  0.7181 -0.2040
    1SOL     OW 1137   1.351   4.046   0.507  0.1292  0.4554  0.0071
    1SOL    HW2 1138   1.358   4.030   0.601 -1.8668 -0.2034  0.0605
    1SOL    HW3 1139   1.418   4.112   0.489  1.1430 -0.0884  1.7225
    1SOL    MW4 1140   1.361   4.053   0.517 -0.0004  0.2971  0.2406
    1SOL     OW 1141   0.858   2.245   0.607  0.1311 -0.3258 -0.6806
    1SOL    HW2 1142   0.931   2.187   0.587 -0.2952 -1.7481  1.7074
    1SOL    HW3 1143   0.783   2.203   0.565  0.2952 -0.0120 -1.2974
    1SOL    MW4 1144   0.858   2.232   0.599  0.0965 -0.4723 -0.4469
    1SOL     OW 1145   2.807   0.105   0.497 -0.3872  0.2247  0.1381
    1SOL    HW2 1146   2.798   0.077   0.588 -1.3444  0.5145  0.1327
    1SOL    HW3 1147   2.718   0.122   0.467 -0.1499 -0.5897 -1.0949
    1SOL    MW4 1148   2.794   0.103   0.505 -0.4821  0.1555 -0.0252
    1SOL     OW 1149   0.700   2.981   0.487 -0.3267  0.5799 -0.2562
    1SOL    HW2 1150   0.744   3.066   0.492  1.1675 -0.1601 -0.6919
    1SOL    HW3 1151   0.607   3.001   0.502  0.2016  2.0985  1.0437
    1SOL    MW4 1152   0.693   2.995   0.489 -0.0599  0.6826 -0.1422
    1SOL     OW 1153   0.079   1.964   0.514  0.0629 -0.1896 -0.4607
    1SOL    HW2 1154   0.126   1.997   0.590  1.7753  1.4824 -2.2148
    1SOL    HW3 1155   0.121   1.880   0.494  0.1579 -0.2351 -0.0759
    1SOL    MW4 1156   0.090   1.957   0.521  0.3013  0.0250 -0.6415
    1SOL     OW 1157   3.347   3.887   0.855  0.2604 -0.3811  0.0091
    1SOL    HW2 1158   3.357   3.801   0.813  0.6535  0.4460 -1.6340
    1SOL    HW3 1159   3.352   3.869   0.949 -2.1067 -2.4915 -0.2144
    1SOL    MW4 1160   3.349   3.873   0.862  0.0000 -0.5503 -0.2372
    1SOL     OW 1161   3.600   2.468   0.722  0.0359 -0.4984 -0.7478
    1SOL    HW2 1162   3.602   2.563   0.734  0.5148 -0.5619 -0.2719
    1SOL    HW3 1163   3.535   2.437   0.785  2.4735 -0.8228  1.6988
    1SOL    MW4 1164   3.592   2.476   0.732  0.4208 -0.5496 -0.3623
    1SOL     OW 1165   4.455   3.482   0.835  0.5465 -0.3620  0.2121
    1SOL    HW2 1166   4.539   3.512   0.799  0.8600  0.3756  1.5508
    1SOL    HW3 1167   4.390   3.536   0.791  0.8843  0.1458  0.3358
    1SOL    MW4 1168   4.458   3.493   0.824  0.6318 -0.1974  0.4051
    1SOL     OW 1169   0.576   3.599   0.655 -0.0787  0.1811 -0.2060
    1SOL    HW2 1170   0.521   3.538   0.703  0.7940 -0.4139  0.0505
    1SOL    HW3 1171   0.608   3.549   0.580  0.1246  0.5177 -0.3454
    1SOL    MW4 1172   0.573   3.585   0.652  0.0634  0.1471 -0.1906
    1SOL     OW 1173   1.906   3.659   0.510  0.1012  0.0047 -0.0841
    1SOL    HW2 1174   1.958   3.706   0.445  0.3148  0.4341  0.3970
    1SOL    HW3 1175   1.963   3.651   0.586 -0.1998 -0.3669  0.1036
    1SOL    MW4 1176   1.920   3.664   0.511  0.0898  0.0126  0.0041
    1SOL     OW 1177   0.401   4.572   0.500 -0.1023  0.2029  0.2418
    1SOL    HW2 1178   0.479   4.525   0.471 -0.0460 -1.0624  2.3334
    1SOL    HW3 1179   0.329   4.511   0.483 -0.4204  0.6227  0.0621
    1SOL    MW4 1180   0.402   4.558   0.494 -0.1369  0.0916  0.4941
    1SOL     OW 1181   0.414   4.256   0.836 -0.2164 -0.1377 -0.4456
    1SOL    HW2 1182   0.418   4.253   0.931 -0.0926  0.1018 -0.4422
    1SOL    HW3 1183   0.323   4.280   0.816 -0.2916 -0.3816 -0.3921
    1SOL    MW4 1184   0.403   4.259   0.846 -0.2099 -0.1378 -0.4380
    1SOL     OW 1185   0.648   4.433   0.745 -0.6332 -0.2129  0.2982
    1SOL    HW2 1186   0.715   4.372   0.776  0.0739  0.2851 -0.2308
    1SOL    HW3 1187   0.565   4.386   0.757 -0.2801 -0.4954  1.7965
    1SOL    MW4 1188   0.646   4.419   0.751 -0.4933 -0.1845  0.4261
    1SOL     OW 1189   1.934   0.672   0.222 -0.2692  0.0485 -0.1570
    1SOL    HW2 1190   1.876   0.748   0.217 -1.0938 -0.5812 -0.3215
    1SOL    HW3 1191   1.987   0.686   0.300  0.1044  1.1497 -0.6027
    1SOL    MW4 1192   1.934   0.684   0.231 -0.3287  0.1106 -0.2375
    1SOL     OW 1193   1.760   1.126   0.803  0.0442  0.6330 -0.3473
    1SOL    HW2 1194   1.688   1.172   0.761  0.2172  1.3536  0.1251
    1SOL    HW3 1195   1.839   1.172   0.773  0.2358  0.4721 -0.0936
    1SOL    MW4 1196   1.761   1.138   0.794  0.0923  0.7068 -0.2515
    1SOL     OW 1197   1.599   0.508   0.484 -0.2015 -0.0135 -0.4388
    1SOL    HW2 1198   1.682   0.486   0.443 -0.1866  1.1042 -1.0214
    1SOL    HW3 1199   1.532   0.482   0.421 -0.2325  0.3903 -0.5775
    1SOL    MW4 1200   1.601   0.502   0.470 -0.2036  0.1872 -0.5340
    1SOL     OW 1201   1.100   0.735   0.808 -0.1776 -0.3997  0.9748
    1SOL    HW2 1202   1.129   0.753   0.898 -0.4447 -0.8277  1.1445
    1SOL    HW3 1203   1.124   0.643   0.793 -2.4182 -1.0791  1.4873
    1SOL    MW4 1204   1.107   0.725   0.818 -0.5084 -0.5457  1.0648
    1SOL     OW 1205   3.843   0.453   0.727 -0.5680 -0.2369 -0.2019
    1SOL    HW2 1206   3.829   0.458   0.633 -0.4167 -0.9492 -0.2687
    1SOL    HW3 1207   3.841   0.544   0.757  2.7989  0.3176 -1.3938
    1SOL    MW4 1208   3.841   0.465   0.719 -0.1040 -0.2577 -0.3679
    1SOL     OW 1209   2.250   0.471   0.492  0.3808  0.8839  0.1494
    1SOL    HW2 1210   2.318   0.452   0.427 -0.6044  0.1851 -0.7014
    1SOL    HW3 1211   2.298   0.494   0.572  1.6088  0.2370 -0.3934
    1SOL    MW4 1212   2.265   0.471   0.494  0.4129  0.7063 -0.0345
    1SOL     OW 1213   1.028   1.261   0.451 -0.0200 -0.1356 -0.3623
    1SOL    HW2 1214   0.938   1.276   0.480  0.2263  1.8976 -0.6063
    1SOL    HW3 1215   1.027   1.172   0.416 -1.2573 -1.2268  2.2604
    1SOL    MW4 1216   1.016   1.251   0.450 -0.1509 -0.0113 -0.0485
    1SOL     OW 1217   0.648   0.831   0.838 -0.2251 -0.0853  0.4371
    1SOL    HW2 1218   0.722   0.889   0.822 -0.7265  0.3015 -0.5052
    1SOL    HW3 1219   0.669   0.752   0.789 -0.8228  0.3393 -0.5079
    1SOL    MW4 1220   0.660   0.828   0.830 -0.3701  0.0218  0.1881
    1SOL     OW 1221   0.688   1.527   0.871  0.1031 -0.6330  0.3368
    1SOL    HW2 1222   0.764   1.578   0.842 -0.7332  0.2276 -0.3950
    1SOL    HW3 1223   0.675   1.554   0.962  0.1835 -0.1715  0.2149
    1SOL    MW4 1224   0.696   1.537   0.879  0.0034 -0.4585  0.2241
    1SOL     OW 1225   3.812   2.057   0.783 -0.0444 -0.0224  0.0651
    1SOL    HW2 1226   3.822   2.046   0.688  0.4102 -0.0862  0.1210
    1SOL    HW3 1227   3.888   2.013   0.821 -0.4725 -0.4117  0.4816
    1SOL    MW4 1228   3.823   2.050   0.775 -0.0410 -0.0823  0.1274
    1SOL     OW 1229   1.269   2.446   0.482 -0.1361  0.2136  0.0552
    1SOL    HW2 1230   1.282   2.359   0.445 -0.2384  0.4751 -0.6162
    1SOL    HW3 1231   1.174   2.458   0.485 -0.1619 -0.3187  1.6515
    1SOL    MW4 1232   1.258   2.436   0.478 -0.1531  0.1781  0.1772
    1SOL     OW 1233   2.932   0.476   0.695  0.7110  0.0990  0.0808
    1SOL    HW2 1234   2.922   0.563   0.735 -1.3484  0.2526 -0.7390
    1SOL    HW3 1235   3.004   0.436   0.743 -1.2496  0.5280  3.4821
    1SOL    MW4 1236   2.940   0.482   0.706  0.1805  0.1758  0.4214
    1SOL     OW 1237   3.279   3.766   0.485  0.4154 -0.2178  0.4382
    1SOL    HW2 1238   3.321   3.736   0.566  0.5971  1.0821  0.8321
    1SOL    HW3 1239   3.332   3.728   0.415 -0.0041 -1.7228  0.9234
    1SOL    MW4 1240   3.291   3.757   0.486  0.3841 -0.2449  0.5542
    1SOL     OW 1241   0.166   4.353   0.734  0.2348  0.2111  0.1178
    1SOL    HW2 1242   0.169   4.430   0.792  0.4533  0.2714  0.0268
    1SOL    HW3 1243   0.099   4.297   0.773  1.5287 -0.4885  1.3727
    1SOL    MW4 1244   0.158   4.356   0.747  0.4344  0.1273  0.2714
    1SOL     OW 1245   1.448   1.746   0.704  0.0464  0.0734 -0.4087
    1SOL    HW2 1246   1.492   1.672   0.747 -0.0417  0.1841 -0.1280
    1SOL    HW3 1247   1.372   1.706   0.661 -0.3213  0.0843  0.2211
    1SOL    MW4 1248   1.444   1.731   0.704 -0.0138  0.0895 -0.2885
    1SOL     OW 1249   0.886   0.153   0.493 -0.2100  0.4275  0.3994
    1SOL    HW2 1250   0.942   0.203   0.433 -0.4416 -1.3021 -1.3107
    1SOL    HW3 1251   0.797   0.177   0.468 -0.3033 -0.1778  0.1448
    1SOL    MW4 1252   0.882   0.163   0.481 -0.2528  0.1194  0.1401
    1SOL     OW 1253   0.358   2.301   0.358  0.1578 -0.1752  0.3606
    1SOL    HW2 1254   0.384   2.210   0.350 -2.3672 -0.7781 -1.4959
    1SOL    HW3 1255   0.263   2.299   0.364  0.1289  2.2798  1.5024
    1SOL    MW4 1256   0.349   2.289   0.358 -0.1792  0.0694  0.2663
    1SOL     OW 1257   1.730   3.097   0.191 -0.3347 -0.5129 -0.3001
    1SOL    HW2 1258   1.666   3.078   0.259  0.7715 -0.8747  0.6587
    1SOL    HW3 1259   1.755   3.011   0.157  1.2935 -0.5393  0.8894
    1SOL    MW4 1260   1.725   3.083   0.195  0.0260 -0.5639 -0.0167
    1SOL     OW 1261   2.501   1.237   0.504  0.3122 -0.1614 -0.3262
    1SOL    HW2 1262   2.415   1.212   0.470 -0.3125  1.2262  0.1731
    1SOL    HW3 1263   2.502   1.333   0.496  1.5874 -0.1295  0.1969
    1SOL    MW4 1264   2.490   1.246   0.498  0.3979  0.0257 -0.1913
    1SOL     OW 1265   2.700   4.439   0.304  0.3528 -0.0061  0.0641
    1SOL    HW2 1266   2.701   4.346   0.329  1.4929  0.2429  0.9976
    1SOL    HW3 1267   2.770   4.478   0.357 -0.7572  1.5706  0.3798
    1SOL    MW4 1268   2.710   4.432   0.314  0.3567  0.2351  0.2290
    1SOL     OW 1269   3.375   3.639   0.727 -0.6602 -0.5068  0.0631
    1SOL    HW2 1270   3.438   3.602   0.789  0.4347  0.9851 -0.1349
    1SOL    HW3 1271   3.296   3.585   0.738  0.7162 -2.5311  0.1491
    1SOL    MW4 1272   3.373   3.627   0.737 -0.3340 -0.5770  0.0483
    1SOL     OW 1273   3.902   1.486   0.367 -0.2098 -0.0850  0.3139
    1SOL    HW2 1274   3.814   1.461   0.393 -0.1130  0.5491  1.2722
    1SOL    HW3 1275   3.930   1.417   0.307 -0.9784 -0.8045  0.7792
    1SOL    MW4 1276   3.894   1.474   0.362 -0.2985 -0.0964  0.5018
    1SOL     OW 1277   1.106   4.407   0.704 -0.1429 -0.3126  0.4952
    1SOL    HW2 1278   1.127   4.408   0.611 -0.0733  0.1584  0.5141
    1SOL    HW3 1279   1.097   4.500   0.728 -1.3187 -0.4735  0.7015
    1SOL    MW4 1280   1.108   4.420   0.695 -0.2890 -0.2713  0.5249
    1SOL     OW 1281   1.786   2.398   0.765 -0.0383  0.2456 -0.2521
    1SOL    HW2 1282   1.798   2.488   0.794  0.0269 -0.0615  0.7082
    1SOL    HW3 1283   1.712   2.365   0.817 -0.5092 -0.0394 -1.0942
    1SOL    MW4 1284   1.778   2.405   0.776 -0.0918  0.1674 -0.2365
    1SOL     OW 1285   1.571   0.006   0.820 -0.6170 -0.0134 -0.0628
    1SOL    HW2 1286   1.580   0.013   0.915  0.4731  0.2862 -0.1797
    1SOL    HW3 1287   1.554  -0.087   0.805  1.0866 -0.3970  0.2967
    1SOL    MW4 1288   1.570  -0.006   0.831 -0.2483 -0.0248 -0.0308
    1SOL     OW 1289   1.124   4.665   0.838  0.5837 -0.0885 -0.1137
    1SOL    HW2 1290   1.195   4.698   0.782  0.6982 -1.6313 -0.8966
    1SOL    HW3 1291   1.056   4.732   0.831  0.2666 -0.6082 -2.7639
    1SOL    MW4 1292   1.125   4.678   0.830  0.5569 -0.3605 -0.5667
    1SOL     OW 1293   1.344   0.370   0.840  0.1254 -0.2606  0.1309
    1SOL    HW2 1294   1.360   0.356   0.933 -1.5654 -0.1131  0.4612
    1SOL    HW3 1295   1.420   0.419   0.809  0.2809  0.4622  1.6351
    1SOL    MW4 1296   1.356   0.375   0.848 -0.0770 -0.1458  0.3729
    1SOL     OW 1297   1.567   0.492   0.754 -0.1933 -0.5568 -0.2948
    1SOL    HW2 1298   1.584   0.489   0.660  1.6903 -0.0598 -0.0004
    1SOL    HW3 1299   1.581   0.584   0.778 -0.7226 -0.6709  0.4584
    1SOL    MW4 1300   1.571   0.504   0.745 -0.0147 -0.5063 -0.1566
    1SOL     OW 1301   3.141   1.912   0.364 -0.0656  0.0090  0.1813
    1SOL    HW2 1302   3.076   1.981   0.378  1.8021  1.6848  0.8598
    1SOL    HW3 1303   3.225   1.955   0.381  1.2162 -2.1368 -0.5691
    1SOL    MW4 1304   3.143   1.927   0.368  0.3502 -0.0530  0.1718
    1SOL     OW 1305   0.911   0.910   0.743 -0.0436  0.2986 -0.4330
    1SOL    HW2 1306   0.901   0.898   0.648 -1.6290 -2.3520  0.0047
    1SOL    HW3 1307   0.971   0.841   0.770  0.9745  1.5011  0.4130
    1SOL    MW4 1308   0.917   0.899   0.734 -0.1184  0.1075 -0.2636
    1SOL     OW 1309   1.335   1.158   0.816  0.1926  0.5552  0.4444
    1SOL    HW2 1310   1.325   1.157   0.911 -1.2908 -0.0606  0.2959
    1SOL    HW3 1311   1.253   1.196   0.783  0.6211  0.6051 -0.5968
    1SOL    MW4 1312   1.323   1.163   0.824  0.0534  0.4807  0.2875
    1SOL     OW 1313   3.365   2.066   0.728  0.2886  0.1250 -0.5927
    1SOL    HW2 1314   3.390   2.071   0.636  0.0824 -1.0903 -0.7173
    1SOL    HW3 1315   3.433   2.013   0.769  0.8260  1.3505  0.1265
    1SOL    MW4 1316   3.377   2.060   0.722  0.3324  0.1266 -0.5142
    1SOL     OW 1317   0.650   4.143   0.486  0.0699  0.5938 -0.1460
    1SOL    HW2 1318   0.589   4.107   0.422  2.1513 -0.8951 -1.3336
    1SOL    HW3 1319   0.639   4.238   0.479 -0.6411  0.4030 -1.8080
    1SOL    MW4 1320   0.640   4.151   0.477  0.2507  0.3724 -0.5220
    1SOL     OW 1321   3.653   1.379   0.462 -0.5704  0.0753 -0.3140
    1SOL    HW2 1322   3.595   1.455   0.469  0.2042  0.7582 -1.0959
    1SOL    HW3 1323   3.596   1.303   0.466 -1.4016  0.7161  0.0300
    1SOL    MW4 1324   3.638   1.379   0.464 -0.5782  0.2499 -0.3718
    1SOL     OW 1325   1.835   1.394   0.314 -0.2059  0.0776 -0.8958
    1SOL    HW2 1326   1.802   1.466   0.369  0.2194 -2.0709  2.3158
    1SOL    HW3 1327   1.757   1.347   0.287 -0.3175  0.1560 -0.7117
    1SOL    MW4 1328   1.821   1.398   0.318 -0.1645 -0.1954 -0.4478
    1SOL     OW 1329   3.449   2.336   0.349  0.6231  0.3282  0.1573
    1SOL    HW2 1330   3.537   2.346   0.385  0.8258  1.2244 -0.5987
    1SOL    HW3 1331   3.444   2.399   0.277 -0.0907 -0.8323 -0.8327
    1SOL    MW4 1332   3.460   2.345   0.344  0.5555  0.2935 -0.0730
    1SOL     OW 1333   3.627   3.841   0.441  0.1277 -0.0659 -0.7936
    1SOL    HW2 1334   3.604   3.872   0.528 -3.2918  0.3899 -1.7412
    1SOL    HW3 1335   3.668   3.917   0.399  1.3727 -0.1465  0.2786
    1SOL    MW4 1336   3.629   3.855   0.447 -0.1593 -0.0165 -0.7772
    1SOL     OW 1337   1.114   3.613   0.713 -0.0913 -0.0122 -0.1216
    1SOL    HW2 1338   1.181   3.556   0.751  1.1531  0.4035 -1.6393
    1SOL    HW3 1339   1.031   3.572   0.737  0.7099 -0.9677  1.1116
    1SOL    MW4 1340   1.112   3.600   0.721  0.1787 -0.0837 -0.1591
    1SOL     OW 1341   0.923   2.653   0.836  0.2053 -0.0800 -0.0994
    1SOL    HW2 1342   0.931   2.669   0.930 -2.7104 -2.1731  0.5715
    1SOL    HW3 1343   0.852   2.709   0.807 -0.8213 -1.5253 -0.4559
    1SOL    MW4 1344   0.915   2.662   0.844 -0.3148 -0.5467 -0.0580
    1SOL     OW 1345   1.577   2.777   0.750  0.2195  0.8630 -0.3328
    1SOL    HW2 1346   1.587   2.858   0.801 -0.0896  0.0389  1.0530
    1SOL    HW3 1347   1.491   2.744   0.775  0.3695  0.0755 -0.8668
    1SOL    MW4 1348   1.567   2.784   0.760  0.1986  0.6504 -0.2204
    1SOL     OW 1349   3.014   4.158   0.422  0.5236 -0.1323 -0.3313
    1SOL    HW2 1350   2.922   4.173   0.402  0.2854 -0.4194  0.5101
    1SOL    HW3 1351   3.050   4.246   0.433  0.2653 -0.0303 -0.2865
    1SOL    MW4 1352   3.006   4.172   0.421  0.4582 -0.1569 -0.2144
    1SOL     OW 1353   3.819   4.311   0.345 -0.5721 -0.2290 -0.2111
    1SOL    HW2 1354   3.740   4.340   0.391 -0.6394 -1.0278  0.1808
    1SOL    HW3 1355   3.878   4.386   0.348 -0.6259 -0.2311  1.0642
    1SOL    MW4 1356   3.816   4.324   0.351 -0.5879 -0.3347  0.0089
    1SOL     OW 1357   1.117   3.866   0.850  0.2847 -0.0408  0.0449
    1SOL    HW2 1358   1.097   3.781   0.812  0.7589 -0.1002 -0.0826
    1SOL    HW3 1359   1.110   3.854   0.944 -0.2333 -0.0698 -0.0007
    1SOL    MW4 1360   1.114   3.853   0.857  0.2789 -0.0525  0.0222
    1SOL     OW 1361   4.038   4.290   0.862  0.3192 -0.2963  0.6376
    1SOL    HW2 1362   3.955   4.307   0.818  0.0847 -0.3064  1.0706
    1SOL    HW3 1363   4.105   4.329   0.805 -0.0995  0.9699  0.9911
    1SOL    MW4 1364   4.036   4.298   0.849  0.2332 -0.1307  0.7414
    1SOL     OW 1365   2.222   3.201   0.756  0.2730  0.0927  0.0408
    1SOL    HW2 1366   2.167   3.153   0.818  1.3335  0.1178  1.0169
    1SOL    HW3 1367   2.310   3.166   0.770  0.8649  1.5177 -0.0177
    1SOL    MW4 1368   2.226   3.190   0.766  0.4911  0.2840  0.1618
    1SOL     OW 1369   2.236   1.636   0.784  0.2361  0.0330  0.1051
    1SOL    HW2 1370   2.312   1.581   0.803 -0.2619 -0.4911  0.6150
    1SOL    HW3 1371   2.261   1.723   0.815  1.2618  0.2363 -1.2646
    1SOL    MW4 1372   2.249   1.641   0.791  0.3057 -0.0093 -0.0083
    1SOL     OW 1373   2.035   4.394   0.726  0.2119  0.7814 -0.4362
    1SOL    HW2 1374   2.059   4.387   0.634  1.0756  1.5598 -0.2785
    1SOL    HW3 1375   1.953   4.345   0.734 -0.4147  1.6000 -1.8312
    1SOL    MW4 1376   2.027   4.387   0.715  0.2432  0.9928 -0.5994
    1SOL     OW 1377   2.045   3.813   0.316  0.1326  0.3439  0.5921
    1SOL    HW2 1378   2.066   3.750   0.247 -0.7441  0.3740  0.2911
    1SOL    HW3 1379   1.961   3.850   0.289  0.9725  2.1685  0.3700
    1SOL    MW4 1380   2.037   3.810   0.303  0.1276  0.5884  0.5230
    1SOL     OW 1381   2.479   0.006   0.862 -0.1731  0.0508 -0.1538
    1SOL    HW2 1382   2.464  -0.028   0.951  4.5732 -1.8639  0.0603
    1SOL    HW3 1383   2.461  -0.069   0.805  0.6766  0.0864 -0.4737
    1SOL    MW4 1384   2.475  -0.009   0.867  0.5648 -0.1969 -0.1678
    1SOL     OW 1385   2.216   3.576   0.426  0.1741  0.0297  0.0888
    1SOL    HW2 1386   2.225   3.482   0.443  2.0281  0.2731  0.5686
    1SOL    HW3 1387   2.178   3.581   0.339 -2.2581 -1.1784  0.9947
    1SOL    MW4 1388   2.212   3.564   0.417  0.0978 -0.0978  0.2716
    1SOL     OW 1389   1.789   0.361   0.850 -0.5491  0.3760 -0.5333
    1SOL    HW2 1390   1.708   0.409   0.832 -1.9039 -1.6640 -0.0006
    1SOL    HW3 1391   1.785   0.284   0.793  0.9110  0.1145 -0.3199
    1SOL    MW4 1392   1.778   0.357   0.840 -0.5351  0.0723 -0.4349
    1SOL     OW 1393   3.627   4.467   0.502  0.0178 -0.2577  0.3415
    1SOL    HW2 1394   3.539   4.433   0.518  0.5501 -1.3411  1.0189
    1SOL    HW3 1395   3.614   4.559   0.478 -1.1909 -0.0461  1.7886
    1SOL    MW4 1396   3.614   4.475   0.501 -0.0718 -0.3724  0.6218
    1SOL     OW 1397   3.321   4.093   0.489 -0.2678  0.3667  0.0044
    1SOL    HW2 1398   3.356   4.181   0.501 -0.5319  0.4609  0.0964
    1SOL    HW3 1399   3.395   4.035   0.504 -0.4420  0.5067  1.4780
    1SOL    MW4 1400   3.335   4.097   0.493 -0.3257  0.3982  0.2109
    1SOL     OW 1401   1.584   3.047   0.868  0.4585  0.1459 -0.1496
    1SOL    HW2 1402   1.571   3.059   0.962  2.1046 -1.3595  0.2836
    1SOL    HW3 1403   1.520   3.106   0.828 -2.5005 -1.5370  1.8742
    1SOL    MW4 1404   1.574   3.057   0.875  0.2853 -0.2747  0.1746
    1SOL     OW 1405   3.468   3.635   0.320 -0.0057  0.4544  0.1968
    1SOL    HW2 1406   3.528   3.591   0.259  0.5686  0.5425  0.6959
    1SOL    HW3 1407   3.515   3.713   0.348 -0.8901  1.2173 -0.4283
    1SOL    MW4 1408   3.482   3.639   0.316 -0.0467  0.5670  0.1802
    1SOL     OW 1409   1.938   3.319   0.204  0.3871  0.5925 -0.4523
    1SOL    HW2 1410   1.875   3.249   0.188  0.1754  0.5114  0.7174
    1SOL    HW3 1411   2.021   3.273   0.218  0.1929  0.5549  0.5977
    1SOL    MW4 1412   1.941   3.303   0.204  0.3335  0.5772 -0.1594
    1SOL     OW 1413   2.475   1.511   0.844 -0.3180  0.0137 -0.1910
    1SOL    HW2 1414   2.482   1.416   0.841 -0.5200 -0.0289  0.5176
    1SOL    HW3 1415   2.560   1.543   0.813  0.5104 -0.4143  1.5724
    1SOL    MW4 1416   2.487   1.503   0.840 -0.2353 -0.0483  0.1352
    1SOL     OW 1417   4.037   4.022   0.763  0.0674 -0.3134 -0.2901
    1SOL    HW2 1418   4.042   4.042   0.670  0.0475  0.4268 -0.1338
    1SOL    HW3 1419   4.057   4.105   0.807 -1.0693 -0.3682  0.3556
    1SOL    MW4 1420   4.040   4.036   0.757 -0.0858 -0.2232 -0.1842
    1SOL     OW 1421   1.336   2.694   0.348  0.5455 -0.4521  0.0616
    1SOL    HW2 1422   1.304   2.615   0.391  0.9382 -0.4622  0.3332
    1SOL    HW3 1423   1.319   2.679   0.255 -1.6046  0.1618  0.3299
    1SOL    MW4 1424   1.329   2.682   0.342  0.3136 -0.3726  0.1329
    1SOL     OW 1425   3.847   1.759   0.317  0.0822 -0.1308 -0.4841
    1SOL    HW2 1426   3.862   1.665   0.332  0.5300  0.0190 -0.0053
    1SOL    HW3 1427   3.917   1.802   0.365  0.7445  0.3965 -1.8733
    1SOL    MW4 1428   3.859   1.752   0.325  0.2286 -0.0414 -0.6042
    1SOL     OW 1429   1.557   2.072   0.497  0.4911 -0.3518  0.1040
    1SOL    HW2 1430   1.617   2.114   0.435  2.0509 -1.6037  0.7385
    1SOL    HW3 1431   1.554   1.981   0.469 -1.3711 -0.2382 -0.1014
    1SOL    MW4 1432   1.565   2.066   0.485  0.4511 -0.5021  0.1606
    1SOL     OW 1433   3.598   1.118   0.843  0.1568 -0.3667  0.0070
    1SOL    HW2 1434   3.586   1.028   0.813 -0.2962 -0.2292 -0.2318
    1SOL    HW3 1435   3.601   1.111   0.938  2.1515 -0.8680 -0.0768
    1SOL    MW4 1436   3.597   1.105   0.852  0.3603 -0.4147 -0.0356
    1SOL     OW 1437   1.135   4.162   0.392 -0.5594 -0.3674  0.5059
    1SOL    HW2 1438   1.050   4.119   0.399 -0.1367 -1.1813  0.7714
    1SOL    HW3 1439   1.194   4.106   0.443  0.1357  0.1844  0.3145
    1SOL    MW4 1440   1.132   4.149   0.400 -0.4120 -0.4015  0.5157
    1SOL     OW 1441   1.106   2.077   0.854 -0.3180 -0.0029  0.7570
    1SOL    HW2 1442   1.047   2.009   0.886  0.4383 -0.7797  0.5110
    1SOL    HW3 1443   1.193   2.046   0.877  0.0897  0.4701 -0.1230
    1SOL    MW4 1444   1.110   2.064   0.861 -0.1644 -0.0429  0.6085
    1SOL     OW 1445   3.323   0.134   0.516 -0.3347 -0.2307 -0.0626
    1SOL    HW2 1446   3.282   0.204   0.464  0.0222 -0.0496 -0.1024
    1SOL    HW3 1447   3.268   0.126   0.594 -0.7894 -0.4014 -0.4005
    1SOL    MW4 1448   3.310   0.142   0.519 -0.3476 -0.2294 -0.1124
    1SOL     OW 1449   3.104   2.894   0.387  0.2538  0.2859 -0.3555
    1SOL    HW2 1450   3.018   2.860   0.412 -0.2217  0.9235 -1.1021
    1SOL    HW3 1451   3.155   2.816   0.366 -0.0351 -0.1152  0.4009
    1SOL    MW4 1452   3.099   2.879   0.388  0.1528  0.3173 -0.3542
    1SOL     OW 1453   1.797   3.419   0.810  0.8347  0.1359 -0.1160
    1SOL    HW2 1454   1.803   3.438   0.903 -1.1783  0.6909 -0.0874
    1SOL    HW3 1455   1.806   3.323   0.804 -0.6237 -0.0597  0.7918
    1SOL    MW4 1456   1.799   3.409   0.821  0.3767  0.1833  0.0075
    1SOL     OW 1457   4.208   3.066   0.426 -0.0138 -0.1850 -0.0037
    1SOL    HW2 1458   4.124   3.104   0.400  0.3000  0.9843  0.6944
    1SOL    HW3 1459   4.187   2.974   0.444 -1.2801  0.2319  0.7726
    1SOL    MW4 1460   4.194   3.059   0.425 -0.1392  0.0243  0.1909
    1SOL     OW 1461   2.078   1.530   0.223  0.0575  0.1880 -0.0007
    1SOL    HW2 1462   2.072   1.617   0.263  0.0986  0.5216 -0.7057
    1SOL    HW3 1463   1.993   1.489   0.242 -0.4421  0.8618 -0.7451
    1SOL    MW4 1464   2.066   1.536   0.230 -0.0029  0.3210 -0.1919
    1SOL     OW 1465   0.888   0.424   0.820 -0.0294  0.2630 -0.1753
    1SOL    HW2 1466   0.864   0.333   0.803  0.9299  0.5192 -3.1466
    1SOL    HW3 1467   0.912   0.425   0.913 -0.3031 -2.4401 -0.0172
    1SOL    MW4 1468   0.888   0.412   0.830  0.0611 -0.0598 -0.5465
    1SOL     OW 1469   4.419   4.055   0.464 -0.2053 -0.0787 -0.0710
    1SOL    HW2 1470   4.422   4.015   0.551 -1.8650 -0.2034 -0.0575
    1SOL    HW3 1471   4.385   3.987   0.407  1.6550 -0.2596 -0.9949
    1SOL    MW4 1472   4.415   4.041   0.468 -0.1793 -0.1187 -0.1911
    1SOL     OW 1473   1.682   0.063   0.468  0.2782 -0.2687  0.3364
    1SOL    HW2 1474   1.727   0.084   0.549 -0.0941 -0.9794  0.7329
    1SOL    HW3 1475   1.750   0.032   0.409  0.8130  1.8463 -0.2041
    1SOL    MW4 1476   1.697   0.062   0.471  0.2996 -0.0834  0.3174
    1SOL     OW 1477   0.438   2.027   0.427 -0.5386  0.0099 -0.4411
    1SOL    HW2 1478   0.367   2.018   0.490  0.5044 -1.1034  0.5964
    1SOL    HW3 1479   0.435   1.947   0.375 -0.8121  0.5135 -1.2149
    1SOL    MW4 1480   0.429   2.015   0.429 -0.4371 -0.0706 -0.4063
    1SOL     OW 1481   2.233   0.395   1.158  0.1117  0.1544 -0.3152
    1SOL    HW2 1482   2.221   0.394   1.063  0.6436  0.4172 -0.3863
    1SOL    HW3 1483   2.167   0.455   1.190  0.8899  1.1971 -0.6545
    1SOL    MW4 1484   2.223   0.403   1.150  0.2844  0.3266 -0.3692
    1SOL     OW 1485   4.288   0.542   0.748 -0.4870 -0.1066 -0.2227
    1SOL    HW2 1486   4.297   0.550   0.653  2.3161  2.2223  0.1935
    1SOL    HW3 1487   4.360   0.486   0.775 -1.4626 -1.0274  0.5337
    1SOL    MW4 1488   4.298   0.535   0.739 -0.2460  0.0792 -0.0680
    1SOL     OW 1489   2.680   0.561   0.397  0.1666  0.5251  0.0688
    1SOL    HW2 1490   2.764   0.517   0.383  0.5235  1.3284 -0.3607
    1SOL    HW3 1491   2.652   0.533   0.484 -0.1899 -1.4838 -0.6601
    1SOL    MW4 1492   2.687   0.551   0.406  0.1664  0.3661 -0.0841
    1SOL     OW 1493   2.722   1.111   0.364  0.1669 -0.2123  0.5253
    1SOL    HW2 1494   2.653   1.158   0.412 -0.8691 -0.7983 -0.3855
    1SOL    HW3 1495   2.698   1.019   0.372  1.3932 -0.5020  1.0374
    1SOL    MW4 1496   2.710   1.105   0.372  0.1919 -0.3279  0.4727
    1SOL     OW 1497   2.463   1.245   0.784 -0.6108 -0.0519  0.3537
    1SOL    HW2 1498   2.471   1.255   0.689  1.0273 -1.0596  0.3705
    1SOL    HW3 1499   2.378   1.203   0.796 -1.1030  0.6473 -0.6185
    1SOL    MW4 1500   2.453   1.241   0.773 -0.4594 -0.0926  0.2277
    1SOL     OW 1501   2.199   1.156   0.816  0.0643 -0.3760  0.1318
    1SOL    HW2 1502   2.193   1.064   0.789 -1.3323  0.0155 -0.9447
    1SOL    HW3 1503   2.200   1.153   0.912 -0.7374 -1.4701  0.1138
    1SOL    MW4 1504   2.198   1.144   0.825 -0.2255 -0.4687 -0.0126
    1SOL     OW 1505   1.557   1.512   0.814 -0.3489  0.1853  0.0410
    1SOL    HW2 1506   1.567   1.507   0.909  0.9340 -0.6316 -0.1344
    1SOL    HW3 1507   1.558   1.421   0.784 -0.0183  0.4682 -0.8354
    1SOL    MW4 1508   1.558   1.499   0.822 -0.1360  0.1148 -0.0977
    1SOL     OW 1509   3.147   0.853   0.754  0.4369  0.5455  0.1523
    1SOL    HW2 1510   3.205   0.810   0.818 -0.0015  0.5296  0.5412
    1SOL    HW3 1511   3.146   0.945   0.782  1.7433  0.9124 -0.9520
    1SOL    MW4 1512   3.155   0.860   0.766  0.5512  0.5918  0.0579
    1SOL     OW 1513   1.536   0.742   0.353  0.0722 -0.0819  0.5523
    1SOL    HW2 1514   1.562   0.670   0.410  0.5983 -0.8627 -0.6472
    1SOL    HW3 1515   1.465   0.707   0.300  1.2515 -0.1967 -1.0029
    1SOL    MW4 1516   1.530   0.728   0.353  0.2973 -0.2002  0.1889
    1SOL     OW 1517   2.248   1.911   0.820  0.6659  0.0997 -0.0069
    1SOL    HW2 1518   2.175   1.953   0.774  0.1264 -0.1856  0.5810
    1SOL    HW3 1519   2.326   1.952   0.783  0.2829 -0.7155 -1.7815
    1SOL    MW4 1520   2.249   1.922   0.809  0.5441 -0.0455 -0.1634
    1SOL     OW 1521   2.458   3.711   0.477 -0.1591 -0.0892 -0.2001
    1SOL    HW2 1522   2.522   3.640   0.470  0.5891  0.3661  1.7897
    1SOL    HW3 1523   2.373   3.667   0.468  0.2702 -1.3367  1.6146
    1SOL    MW4 1524   2.455   3.696   0.475 -0.0036 -0.1938  0.3019
    1SOL     OW 1525   3.431   2.815   0.430 -0.1972  0.0111 -0.1624
    1SOL    HW2 1526   3.399   2.825   0.520 -0.8532 -0.5551 -0.3258
    1SOL    HW3 1527   3.361   2.768   0.385  0.9502 -1.4218 -0.4857
    1SOL    MW4 1528   3.417   2.810   0.436 -0.1323 -0.2522 -0.2266
    1SOL     OW 1529   2.228   2.419   0.714  0.6164 -0.2547 -0.6756
    1SOL    HW2 1530   2.151   2.371   0.743 -1.0292  0.5560 -3.4662
    1SOL    HW3 1531   2.227   2.499   0.766 -0.9187  0.1009 -1.1987
    1SOL    MW4 1532   2.218   2.423   0.725  0.1965 -0.1011 -1.1129
    1SOL     OW 1533   2.255   2.659   0.868  0.3079 -0.0166  0.2981
    1SOL    HW2 1534   2.269   2.676   0.961  0.9577  0.1877  0.1681
    1SOL    HW3 1535   2.319   2.715   0.824  0.6745 -0.8535 -0.2372
    1SOL    MW4 1536   2.266   2.669   0.875  0.4420 -0.0999  0.2103
    1SOL     OW 1537   1.554   4.252   0.403 -0.0831  0.3815  0.2137
    1SOL    HW2 1538   1.536   4.341   0.432  0.7830  0.7921 -0.5299
    1SOL    HW3 1539   1.496   4.238   0.328 -0.3148  0.2701  0.4121
    1SOL    MW4 1540   1.544   4.262   0.397  0.0005  0.4210  0.1418
    1SOL     OW 1541   1.777   4.278   0.821  0.6504 -0.1195 -0.3516
    1SOL    HW2 1542   1.778   4.292   0.916 -0.1932  0.0095 -0.3535
    1SOL    HW3 1543   1.775   4.183   0.810  1.1752 -0.1439 -0.2498
    1SOL    MW4 1544   1.777   4.268   0.832  0.6083 -0.1054 -0.3384
    1SOL     OW 1545   2.262   3.279   0.484 -0.4834 -0.3762 -0.7906
    1SOL    HW2 1546   2.224   3.241   0.405 -1.1193 -0.9404 -0.2176
    1SOL    HW3 1547   2.213   3.240   0.556 -0.6865  1.0283 -0.1564
    1SOL    MW4 1548   2.251   3.269   0.483 -0.5941 -0.2651 -0.6313
    1SOL     OW 1549   3.248   2.655   0.300 -0.0081  0.1114  0.1279
    1SOL    HW2 1550   3.220   2.570   0.335  0.5514 -0.1046  0.0527
    1SOL    HW3 1551   3.307   2.634   0.228  1.4634  0.5662  1.1881
    1SOL    MW4 1552   3.252   2.641   0.295  0.2599  0.1431  0.2578
    1SOL     OW 1553   1.501   3.971   0.192  0.1247 -0.0481 -0.2441
    1SOL    HW2 1554   1.595   3.977   0.206  0.1610 -0.1946 -0.4340
    1SOL    HW3 1555   1.468   3.928   0.272  0.1827  0.2615 -0.0523
    1SOL    MW4 1556   1.509   3.966   0.205  0.1373 -0.0267 -0.2439
    1SOL     OW 1557   1.758   3.982   0.799 -0.7349  0.2075 -0.2021
    1SOL    HW2 1558   1.839   3.936   0.821 -0.4150  0.1974 -1.3710
    1SOL    HW3 1559   1.691   3.938   0.851 -0.1329 -0.3614  0.1062
    1SOL    MW4 1560   1.760   3.970   0.809 -0.6133  0.1309 -0.3156
    1SOL     OW 1561   3.127   3.971   0.701  0.0297  0.6732  0.2020
    1SOL    HW2 1562   3.065   3.913   0.745  0.4794  0.3679  0.4373
    1SOL    HW3 1563   3.211   3.954   0.744  0.7644 -0.5952 -1.6442
    1SOL    MW4 1564   3.130   3.961   0.712  0.1862  0.4656 -0.0106
    1SOL     OW 1565   2.244   2.164   0.361  0.0349 -0.1192 -0.1677
    1SOL    HW2 1566   2.289   2.175   0.277 -0.8543 -1.6711 -0.8600
    1SOL    HW3 1567   2.304   2.110   0.413  0.2609  0.2330 -0.0616
    1SOL    MW4 1568   2.258   2.158   0.356 -0.0527 -0.2778 -0.2450
    1SOL     OW 1569   2.265   1.176   0.379  0.0084 -0.1251 -0.0329
    1SOL    HW2 1570   2.278   1.237   0.306  2.7180  1.1008  1.3951
    1SOL    HW3 1571   2.188   1.210   0.424  0.6696  1.4463 -0.0545
    1SOL    MW4 1572   2.257   1.189   0.375  0.4532  0.2438  0.1527
    1SOL     OW 1573   2.882   0.722   0.820  0.8329 -0.4891 -0.1738
    1SOL    HW2 1574   2.884   0.731   0.915 -0.1110  0.1790 -0.2167
    1SOL    HW3 1575   2.962   0.766   0.790  0.0448  1.1953  0.1608
    1SOL    MW4 1576   2.893   0.729   0.828  0.6042 -0.1788 -0.1354
    1SOL     OW 1577   2.944   3.828   0.458 -0.2017  0.1812 -0.1813
    1SOL    HW2 1578   2.853   3.852   0.472 -0.3465 -1.1479  1.3625
    1SOL    HW3 1579   2.944   3.732   0.460  1.1832  0.1625 -0.4238
    1SOL    MW4 1580   2.932   3.818   0.460 -0.0381  0.0033 -0.0096
    1SOL     OW 1581   2.475   0.780   0.835  0.2231 -0.1005 -0.1895
    1SOL    HW2 1582   2.554   0.815   0.793 -0.8349  0.0281 -2.1231
    1SOL    HW3 1583   2.461   0.696   0.792 -0.6155 -0.1779  0.2431
    1SOL    MW4 1584   2.484   0.773   0.824 -0.0274 -0.0938 -0.3875
    1SOL     OW 1585   1.929   0.972   0.485 -0.2220  0.1043 -0.2264
    1SOL    HW2 1586   1.888   0.937   0.564  0.4477 -0.0595  0.0470
    1SOL    HW3 1587   1.997   0.909   0.462 -1.0312 -0.3471 -1.4810
    1SOL    MW4 1588   1.932   0.959   0.492 -0.2404  0.0232 -0.3558
    1SOL     OW 1589   3.509   0.904   0.476 -0.1487 -0.0077 -0.1656
    1SOL    HW2 1590   3.517   0.998   0.486 -0.1767 -0.0690  0.4465
    1SOL    HW3 1591   3.415   0.887   0.470 -0.1062  0.0860 -1.1048
    1SOL    MW4 1592   3.498   0.914   0.477 -0.1466 -0.0035 -0.2087
    1SOL     OW 1593   0.834   2.725   0.457  0.7084  0.1442  0.4200
    1SOL    HW2 1594   0.925   2.756   0.454  0.7570  0.1331  1.6823
    1SOL    HW3 1595   0.782   2.802   0.432  0.9807  0.5744  1.1664
    1SOL    MW4 1596   0.839   2.740   0.453  0.7507  0.1998  0.6850
    1SOL     OW 1597   3.475   2.566   0.156 -0.0994  0.0724  0.0496
    1SOL    HW2 1598   3.482   2.577   0.061  0.6974 -0.1319  0.0764
    1SOL    HW3 1599   3.551   2.614   0.191 -0.8807  0.8846  0.6372
    1SOL    MW4 1600   3.486   2.574   0.148 -0.0975  0.1528  0.1307
    1SOL     OW 1601   2.702   1.631   0.751 -0.7162 -0.5814 -0.3409
    1SOL    HW2 1602   2.695   1.638   0.656  0.9492  1.0876 -0.3825
    1SOL    HW3 1603   2.706   1.722   0.781 -0.0415 -1.1113  1.2196
    1SOL    MW4 1604   2.702   1.644   0.743 -0.4072 -0.4309 -0.1404
    1SOL     OW 1605   3.144   1.685   0.741 -0.5423 -0.3310 -0.5772
    1SOL    HW2 1606   3.178   1.685   0.651 -1.7036  0.3826 -1.0135
    1SOL    HW3 1607   3.131   1.777   0.763 -0.3642 -0.5061  0.2889
    1SOL    MW4 1608   3.147   1.697   0.732 -0.6721 -0.2600 -0.5205
    1SOL     OW 1609   0.016   0.167   0.659 -0.3061 -0.1985 -0.1082
    1SOL    HW2 1610  -0.076   0.143   0.650 -0.5961 -0.1186  2.2466
    1SOL    HW3 1611   0.018   0.227   0.733  1.8858 -1.8227  1.2113
    1SOL    MW4 1612   0.004   0.172   0.668 -0.0552 -0.4023  0.3766
    1SOL     OW 1613   1.820   2.681   0.382  0.1333  0.1821  0.2202
    1SOL    HW2 1614   1.737   2.716   0.414  0.8894  0.9022  1.4245
    1SOL    HW3 1615   1.827   2.594   0.422  0.2176  0.3418  0.5514
    1SOL    MW4 1616   1.810   2.674   0.391  0.2443  0.2985  0.4228
    1SOL     OW 1617   2.674   1.092   0.885  0.1681  0.3741  0.1396
    1SOL    HW2 1618   2.742   1.151   0.853 -1.1750  2.1488  0.4400
    1SOL    HW3 1619   2.593   1.129   0.849 -0.7024 -1.2670  0.4072
    1SOL    MW4 1620   2.672   1.105   0.876 -0.1240  0.3917  0.2145
    1SOL     OW 1621   2.936   2.344   0.807  0.2291  0.2201  0.2098
    1SOL    HW2 1622   2.931   2.326   0.901  1.8541  0.6408  0.3999
    1SOL    HW3 1623   2.917   2.260   0.765  0.5842 -0.2327  0.9448
    1SOL    MW4 1624   2.933   2.331   0.814  0.4900  0.2158  0.3319
    1SOL     OW 1625   2.686   2.452   0.751  0.0315 -0.1912 -0.1785
    1SOL    HW2 1626   2.773   2.420   0.776  0.9038  1.1510 -1.3356
    1SOL    HW3 1627   2.677   2.536   0.797 -0.6629 -0.3373 -0.0432
    1SOL    MW4 1628   2.697   2.459   0.760  0.0551 -0.0334 -0.3134
    1SOL     OW 1629   2.670   2.710   0.853  0.0237 -0.0857  0.4534
    1SOL    HW2 1630   2.738   2.763   0.810  0.1422 -0.1348  0.5786
    1SOL    HW3 1631   2.699   2.706   0.944  0.3113 -0.8494  0.3280
    1SOL    MW4 1632   2.683   2.717   0.859  0.0772 -0.1929  0.4534
    1SOL     OW 1633   1.089   1.285   0.731  0.3695 -0.3380 -0.2166
    1SOL    HW2 1634   1.018   1.242   0.778 -2.2877  3.3694 -0.6408
    1SOL    HW3 1635   1.071   1.267   0.638  1.8344 -2.0239 -0.2110
    1SOL    MW4 1636   1.077   1.277   0.725  0.2122 -0.0712 -0.2719
    1SOL     OW 1637   1.455   1.220   0.432  0.0925  0.0307  0.4606
    1SOL    HW2 1638   1.517   1.226   0.359 -0.5949  2.1269  0.0082
    1SOL    HW3 1639   1.427   1.128   0.432  0.8715 -0.2342 -1.2623
    1SOL    MW4 1640   1.459   1.209   0.422  0.1045  0.2723  0.1736
    1SOL     OW 1641   2.461   3.081   0.824 -0.1881 -0.1902 -0.6892
    1SOL    HW2 1642   2.537   3.116   0.778 -1.5020  0.9853 -2.0013
    1SOL    HW3 1643   2.482   3.090   0.917 -0.6631  4.5682 -0.9389
    1SOL    MW4 1644   2.473   3.087   0.830 -0.4239  0.5929 -0.8954
    1SOL     OW 1645   2.666   3.468   0.849 -0.1387  0.1835  0.1253
    1SOL    HW2 1646   2.741   3.520   0.822  0.4180 -0.4515  0.4403
    1SOL    HW3 1647   2.683   3.447   0.941 -0.3847 -0.4969  0.0219
    1SOL    MW4 1648   2.678   3.472   0.858 -0.0978  0.0100  0.1532
    1SOL     OW 1649   2.899   3.600   0.744 -0.1153 -0.3284 -0.7493
    1SOL    HW2 1650   2.981   3.561   0.775 -0.0128 -0.6069 -1.3753
    1SOL    HW3 1651   2.895   3.685   0.789 -0.4253 -1.1166  0.7425
    1SOL    MW4 1652   2.910   3.606   0.754 -0.1428 -0.4690 -0.6351
    1SOL     OW 1653   2.024   2.790   0.522 -0.0663  0.2008 -0.8368
    1SOL    HW2 1654   1.953   2.749   0.473 -0.3718 -0.8643  0.4594
    1SOL    HW3 1655   2.103   2.742   0.497 -0.0835  0.2389 -0.9605
    1SOL    MW4 1656   2.025   2.778   0.513 -0.1090  0.0656 -0.6821
    1SOL     OW 1657   0.677   4.439   0.467  0.0106 -0.4950  0.4031
    1SOL    HW2 1658   0.757   4.482   0.438 -0.7619  0.0710 -0.9159
    1SOL    HW3 1659   0.686   4.433   0.562  0.9734  0.8663  0.4035
    1SOL    MW4 1660   0.689   4.444   0.476  0.0357 -0.2408  0.2292
    1SOL     OW 1661   2.676   4.028   0.780  0.5486  0.1330  0.2537
    1SOL    HW2 1662   2.676   4.123   0.793 -0.2043 -0.0028  1.2783
    1SOL    HW3 1663   2.601   3.996   0.831  1.7927 -1.2036  1.2854
    1SOL    MW4 1664   2.666   4.036   0.789  0.6137 -0.0610  0.5249
    1SOL     OW 1665   2.915   1.232   0.721  0.0113  0.2023 -0.1399
    1SOL    HW2 1666   2.934   1.322   0.748 -0.3636 -0.3198  1.8884
    1SOL    HW3 1667   2.990   1.182   0.751 -0.1065 -0.2859 -0.6539
    1SOL    MW4 1668   2.927   1.237   0.728 -0.0536  0.0690  0.0599
    1SOL     OW 1669   2.009   0.497   0.719  0.1843  0.1578 -0.6432
    1SOL    HW2 1670   1.933   0.465   0.767  0.1571  0.8170 -0.2322
    1SOL    HW3 1671   2.018   0.589   0.747  1.9548 -0.2935  0.4011
    1SOL    MW4 1672   2.000   0.505   0.729  0.4144  0.1853 -0.4512
    1SOL     OW 1673   2.589   0.410   0.611 -0.2669  0.1063  0.1757
    1SOL    HW2 1674   2.638   0.384   0.689 -0.4671  0.7124  0.5045
    1SOL    HW3 1675   2.567   0.328   0.568  0.6580 -0.1927  0.2621
    1SOL    MW4 1676   2.593   0.396   0.615 -0.1714  0.1468  0.2305
    1SOL     OW 1677   1.085   2.065   0.576  0.0741 -0.2915 -0.1462
    1SOL    HW2 1678   1.157   2.096   0.522 -1.2999  1.1409 -1.1898
    1SOL    HW3 1679   1.120   2.064   0.665  1.9726 -1.4918 -0.8837
    1SOL    MW4 1680   1.099   2.069   0.581  0.1432 -0.2608 -0.3812
    1SOL     OW 1681   3.159   0.353   0.834  0.3021  0.2182 -0.0426
    1SOL    HW2 1682   3.154   0.357   0.929  0.2498  0.7912 -0.0667
    1SOL    HW3 1683   3.242   0.396   0.813  1.2007 -1.5236 -0.1514
    1SOL    MW4 1684   3.169   0.360   0.844  0.4134  0.0640 -0.0601
    1SOL     OW 1685   2.908   2.366   0.363  0.3093 -0.2380  0.2193
    1SOL    HW2 1686   2.994   2.361   0.404  0.3923 -2.0764 -0.1480
    1SOL    HW3 1687   2.926   2.366   0.269 -0.0856 -0.5276  0.1431
    1SOL    MW4 1688   2.922   2.365   0.356  0.2682 -0.5186  0.1608
    1SOL     OW 1689   2.389   0.545   0.720  0.3136 -0.5076 -0.0994
    1SOL    HW2 1690   2.348   0.489   0.786 -0.9191 -0.9077 -1.1871
    1SOL    HW3 1691   2.460   0.491   0.685 -0.8118 -1.3587 -1.0793
    1SOL    MW4 1692   2.393   0.530   0.724  0.0026 -0.6727 -0.3722
    1SOL     OW 1693   3.794   4.370   0.748  0.1222  0.2823  0.0633
    1SOL    HW2 1694   3.717   4.319   0.773  1.2407 -1.6728 -0.3111
    1SOL    HW3 1695   3.769   4.415   0.668 -0.4500 -0.7669 -0.3467
    1SOL    MW4 1696   3.780   4.369   0.741  0.1943 -0.1135 -0.0402
    1SOL     OW 1697   3.388   1.507   0.848 -0.4259 -0.1766  0.1982
    1SOL    HW2 1698   3.311   1.552   0.815  0.1995  1.1654  0.5421
    1SOL    HW3 1699   3.380   1.512   0.943 -0.5190 -1.0784  0.2388
    1SOL    MW4 1700   3.377   1.514   0.856 -0.3555 -0.1185  0.2488
    1SOL     OW 1701   2.241   0.911   0.713 -1.0789 -0.5500  0.5608
    1SOL    HW2 1702   2.266   0.897   0.621 -2.1391 -1.7017  0.4336
    1SOL    HW3 1703   2.319   0.888   0.762 -0.5067  0.0552 -0.0498
    1SOL    MW4 1704   2.254   0.906   0.707 -1.1432 -0.6222  0.4635
    1SOL     OW 1705   3.590   0.863   0.757 -0.1244 -0.1529  0.1921
    1SOL    HW2 1706   3.581   0.831   0.667  0.2925  0.9180 -0.2417
    1SOL    HW3 1707   3.670   0.822   0.789 -0.3216 -0.6091  0.1096
    1SOL    MW4 1708   3.599   0.854   0.749 -0.0954 -0.0718  0.1240
    1SOL     OW 1709   3.709   2.417   0.460  0.6630 -0.3681 -0.0298
    1SOL    HW2 1710   3.686   2.409   0.553 -0.4016 -0.4124 -0.2858
    1SOL    HW3 1711   3.708   2.512   0.443 -0.4834 -0.4276 -0.3157
    1SOL    MW4 1712   3.706   2.429   0.470  0.3715 -0.3819 -0.1013
    1SOL     OW 1713   1.538   3.796   0.891 -0.0790 -0.0089 -0.2856
    1SOL    HW2 1714   1.479   3.857   0.846  0.5256  0.7307 -0.0924
    1SOL    HW3 1715   1.552   3.725   0.829  2.2495  1.8952 -2.0602
    1SOL    MW4 1716   1.532   3.795   0.877  0.3079  0.3400 -0.4942
    1SOL     OW 1717   3.857   0.199   0.422  0.1663 -0.1741  0.1581
    1SOL    HW2 1718   3.858   0.294   0.432  1.2915 -0.0762 -0.8689
    1SOL    HW3 1719   3.770   0.173   0.454  0.4153  1.0156  1.9042
    1SOL    MW4 1720   3.845   0.208   0.428  0.3476 -0.0042  0.2530
    1SOL     OW 1721   3.674   2.671   0.348 -0.2363  0.4945  0.1112
    1SOL    HW2 1722   3.752   2.721   0.370 -1.4563  2.1136  0.8470
    1SOL    HW3 1723   3.602   2.721   0.387 -1.6418 -0.9245 -0.6328
    1SOL    MW4 1724   3.675   2.684   0.356 -0.5827  0.5209  0.1101
    1SOL     OW 1725   2.913   2.844   0.772 -0.5158  0.6647  0.1653
    1SOL    HW2 1726   2.991   2.797   0.803  0.2884  1.2580 -0.8983
    1SOL    HW3 1727   2.930   2.858   0.679 -1.9488  0.7230 -0.0996
    1SOL    MW4 1728   2.926   2.840   0.764 -0.5987  0.7508 -0.0100
    1SOL     OW 1729   1.767   1.660   0.742 -0.1336 -0.2015 -0.5496
    1SOL    HW2 1730   1.706   1.592   0.770  0.4185 -0.6721 -0.5059
    1SOL    HW3 1731   1.850   1.638   0.783  0.6306 -0.7630 -2.3333
    1SOL    MW4 1732   1.770   1.648   0.751  0.0399 -0.3376 -0.7792
    1SOL     OW 1733   1.357   3.230   0.466  0.4621  0.0724  0.0854
    1SOL    HW2 1734   1.416   3.156   0.459  0.4283  0.0813 -0.3100
    1SOL    HW3 1735   1.411   3.306   0.447 -0.1198 -0.0895 -2.3283
    1SOL    MW4 1736   1.372   3.230   0.463  0.3810  0.0525 -0.2852
    1SOL     OW 1737   3.169   3.244   0.722  0.2175 -0.2659 -0.2133
    1SOL    HW2 1738   3.085   3.199   0.732 -0.6947  1.6735  1.1828
    1SOL    HW3 1739   3.160   3.293   0.640 -0.1511  0.1841  0.0905
    1SOL    MW4 1740   3.157   3.245   0.713  0.0486  0.0491  0.0110
    1SOL     OW 1741   3.130   3.502   0.821 -0.3411  0.0800  0.9545
    1SOL    HW2 1742   3.132   3.408   0.807 -1.3940  0.2302 -0.2590
    1SOL    HW3 1743   3.113   3.512   0.915 -0.6942 -0.9229  1.0038
    1SOL    MW4 1744   3.128   3.491   0.832 -0.5267 -0.0324  0.8009
    1SOL     OW 1745   3.445   3.442   0.536 -0.2793 -0.2795  0.7547
    1SOL    HW2 1746   3.471   3.499   0.463 -0.8836 -0.2588  0.5524
    1SOL    HW3 1747   3.441   3.500   0.612  2.2300 -0.6534  1.2152
    1SOL    MW4 1748   3.448   3.458   0.536 -0.0281 -0.3259  0.7887
    1SOL     OW 1749   3.570   3.968   0.693  0.1753 -0.1107  0.4313
    1SOL    HW2 1750   3.496   3.936   0.745 -0.5681  0.0471 -0.5105
    1SOL    HW3 1751   3.646   3.954   0.749 -0.4794 -0.9321  1.1365
    1SOL    MW4 1752   3.570   3.962   0.708 -0.0093 -0.1981  0.4000
    1SOL     OW 1753   4.334   0.534   0.473  0.5216  0.2284  0.0777
    1SOL    HW2 1754   4.426   0.549   0.454  0.7831 -0.3769  0.8232
    1SOL    HW3 1755   4.318   0.444   0.443 -0.3212  1.0123 -1.8377
    1SOL    MW4 1756   4.344   0.524   0.467  0.4444  0.2519 -0.0767
    1SOL     OW 1757   3.064   4.237   0.840 -0.3066  0.0995  0.1333
    1SOL    HW2 1758   3.007   4.288   0.784 -1.2855 -0.6461  0.4290
    1SOL    HW3 1759   3.073   4.153   0.795  1.1525  0.4541 -0.2679
    1SOL    MW4 1760   3.058   4.232   0.827 -0.2432  0.0482  0.1194
    1SOL     OW 1761   2.919   0.359   0.423 -0.3267  0.3466  0.0587
    1SOL    HW2 1762   2.879   0.276   0.449  1.7898 -0.4624  0.8042
    1SOL    HW3 1763   2.919   0.412   0.503 -2.7142  1.5297 -0.6805
    1SOL    MW4 1764   2.914   0.355   0.437 -0.3622  0.3960  0.0596
    1SOL     OW 1765   1.984   1.524   0.883 -0.4820 -0.1934  0.4413
    1SOL    HW2 1766   1.971   1.452   0.821 -1.0296  1.9915 -2.0895
    1SOL    HW3 1767   2.059   1.573   0.848 -1.8980  2.0857  0.4630
    1SOL    MW4 1768   1.992   1.521   0.870 -0.7410  0.3957  0.1103
    1SOL     OW 1769   3.156   0.091   0.730 -0.1727  0.0238 -0.0733
    1SOL    HW2 1770   3.141   0.181   0.761 -0.4307 -0.0484  0.0145
    1SOL    HW3 1771   3.217   0.054   0.794 -0.1197  0.1147 -0.0708
    1SOL    MW4 1772   3.162   0.098   0.743 -0.1998  0.0263 -0.0614
    1SOL     OW 1773   3.624   0.321   0.842  0.3236 -0.2458  0.4857
    1SOL    HW2 1774   3.705   0.340   0.794  0.5528 -0.2314  0.8735
    1SOL    HW3 1775   3.639   0.357   0.929 -0.1568 -0.1231  0.5174
    1SOL    MW4 1776   3.637   0.328   0.847  0.2904 -0.2277  0.5410
    1SOL     OW 1777   0.691   0.599   0.720 -0.3950  0.0035 -0.8343
    1SOL    HW2 1778   0.610   0.566   0.759 -0.5526  0.6355 -0.6252
    1SOL    HW3 1779   0.756   0.533   0.742 -0.6625 -0.0583 -0.2225
    1SOL    MW4 1780   0.689   0.586   0.728 -0.4510  0.0788 -0.7260
    1SOL     OW 1781   3.822   0.726   0.837  0.0281 -0.1050 -0.2409
    1SOL    HW2 1782   3.813   0.726   0.932  0.0003 -1.0756 -0.2446
    1SOL    HW3 1783   3.908   0.767   0.822 -0.1523  0.4346  0.1775
    1SOL    MW4 1784   3.832   0.731   0.847  0.0005 -0.1618 -0.1862
    1SOL     OW 1785   1.515   1.802   0.433 -0.2168 -0.1943 -0.2254
    1SOL    HW2 1786   1.514   1.778   0.526  0.2536 -0.4635 -0.2889
    1SOL    HW3 1787   1.426   1.784   0.403 -1.1541  2.4981  0.8098
    1SOL    MW4 1788   1.503   1.796   0.441 -0.2785  0.1254 -0.0972
    1SOL     OW 1789   3.784   1.566   0.859  0.3247 -0.5223 -0.0575
    1SOL    HW2 1790   3.772   1.480   0.818  0.3528 -0.8880  0.6917
    1SOL    HW3 1791   3.710   1.618   0.830  1.0861 -0.3380 -1.7092
    1SOL    MW4 1792   3.773   1.561   0.850  0.4287 -0.5463 -0.1765
    1SOL     OW 1793   2.651   1.937   0.383  0.3837  0.0132 -0.0012
    1SOL    HW2 1794   2.679   1.846   0.399  1.3764 -0.0520 -2.0036
    1SOL    HW3 1795   2.731   1.988   0.391 -0.0840  0.6571  0.6003
    1SOL    MW4 1796   2.665   1.932   0.386  0.4530  0.0896 -0.1860
    1SOL     OW 1797   4.259   2.807   0.757 -0.6036  0.0056 -0.2128
    1SOL    HW2 1798   4.327   2.754   0.798 -0.3427 -0.1347 -0.8249
    1SOL    HW3 1799   4.280   2.897   0.783 -0.0768 -0.0184 -0.5629
    1SOL    MW4 1800   4.271   2.812   0.766 -0.4997 -0.0160 -0.3397
    1SOL     OW 1801   1.141   0.476   0.674 -0.5072 -0.3647 -0.0332
    1SOL    HW2 1802   1.205   0.430   0.727 -0.1553  0.4422  0.2482
    1SOL    HW3 1803   1.056   0.456   0.715 -0.2172  0.4718  1.0046
    1SOL    MW4 1804   1.138   0.468   0.686 -0.4224 -0.1479  0.1409
    1SOL     OW 1805   3.854   2.883   0.465  0.2055 -0.1083 -0.0450
    1SOL    HW2 1806   3.854   2.975   0.437  0.3714 -0.6597 -1.9128
    1SOL    HW3 1807   3.946   2.864   0.484  0.1972  0.0554  0.1621
    1SOL    MW4 1808   3.866   2.893   0.463  0.2263 -0.1595 -0.2641
    1SOL     OW 1809   3.393   2.317   0.853  0.0033  0.0428  0.1943
    1SOL    HW2 1810   3.395   2.306   0.948 -0.3782 -0.0343  0.1962
    1SOL    HW3 1811   3.394   2.228   0.818  1.0377  0.0888  0.1022
    1SOL    MW4 1812   3.393   2.304   0.861  0.0894  0.0389  0.1824
    1SOL     OW 1813   3.782   2.289   1.111 -0.3928  0.2530  0.2905
    1SOL    HW2 1814   3.859   2.334   1.145 -0.0848 -0.2886  0.3278
    1SOL    HW3 1815   3.797   2.284   1.016 -0.1413 -0.2853  0.3537
    1SOL    MW4 1816   3.795   2.294   1.103 -0.3190  0.1104  0.3037
    1SOL     OW 1817   1.748   2.187   0.339  0.0029  0.5949 -0.1895
    1SOL    HW2 1818   1.778   2.271   0.375  0.2171  0.0159  0.9871
    1SOL    HW3 1819   1.824   2.129   0.345 -0.5018 -0.0405  0.1414
    1SOL    MW4 1820   1.762   2.191   0.345 -0.0354  0.4346  0.0094
    1SOL     OW 1821   3.565   2.739   0.800  0.1156  0.5095 -0.0135
    1SOL    HW2 1822   3.580   2.732   0.894  1.1293 -1.5032 -0.3156
    1SOL    HW3 1823   3.635   2.797   0.769  0.5030  0.2186  0.3032
    1SOL    MW4 1824   3.576   2.746   0.809  0.3004  0.2058 -0.0116
    1SOL     OW 1825   2.052   3.570   0.147 -0.2225  0.0276  0.3148
    1SOL    HW2 1826   2.053   3.572   0.052  0.0611  0.7928  0.3301
    1SOL    HW3 1827   1.999   3.493   0.169 -1.0345  0.3629 -0.4568
    1SOL    MW4 1828   2.045   3.560   0.137 -0.2925  0.1729  0.2150
    1SOL     OW 1829   3.811   3.094   0.879 -0.2414 -0.1455 -0.0922
    1SOL    HW2 1830   3.741   3.155   0.855  0.2080  0.4631  0.1296
    1SOL    HW3 1831   3.793   3.016   0.828  0.3671  0.9064 -1.9671
    1SOL    MW4 1832   3.799   3.092   0.869 -0.1020  0.0734 -0.3103
    1SOL     OW 1833   4.242   2.271   0.376  0.0680 -0.1321  0.0427
    1SOL    HW2 1834   4.261   2.182   0.407 -1.2866 -0.1698  0.8168
    1SOL    HW3 1835   4.146   2.274   0.369  0.2195  0.6130 -1.9780
    1SOL    MW4 1836   4.232   2.259   0.379 -0.0906 -0.0386 -0.1218
    1SOL     OW 1837   3.612   3.254   0.798  0.1607  0.3758  0.3892
    1SOL    HW2 1838   3.620   3.243   0.703 -0.7786  3.0750 -0.0466
    1SOL    HW3 1839   3.534   3.203   0.821 -0.6451  1.1058 -0.6036
    1SOL    MW4 1840   3.603   3.246   0.788 -0.0696  0.8283  0.2007
    1SOL     OW 1841   4.041   4.128   0.499 -0.4128 -0.3268 -0.0701
    1SOL    HW2 1842   4.113   4.190   0.484 -0.0809 -1.0603 -1.5537
    1SOL    HW3 1843   3.964   4.172   0.461 -0.4319 -0.2645  0.0400
    1SOL    MW4 1844   4.040   4.142   0.492 -0.3719 -0.4153 -0.2513
    1SOL     OW 1845   3.800   3.637   0.742  0.2425 -0.1212  0.4386
    1SOL    HW2 1846   3.871   3.577   0.765  0.3106 -0.0190  0.4959
    1SOL    HW3 1847   3.824   3.669   0.654 -0.4684 -1.1873 -0.1552
    1SOL    MW4 1848   3.813   3.633   0.733  0.1576 -0.2482  0.3678
    1SOL     OW 1849   0.410   1.762   0.305  0.0875 -0.5987 -0.1336
    1SOL    HW2 1850   0.481   1.698   0.312 -0.4028 -1.2100 -0.7024
    1SOL    HW3 1851   0.340   1.727   0.360 -0.2006 -0.5732 -0.4850
    1SOL    MW4 1852   0.410   1.749   0.313 -0.0152 -0.6760 -0.2550
    1SOL     OW 1853   2.259   3.457   0.871 -0.1565 -0.0463  0.0844
    1SOL    HW2 1854   2.256   3.371   0.829 -0.8034  0.1964 -0.3729
    1SOL    HW3 1855   2.331   3.502   0.828  0.1446 -0.3318  0.2819
    1SOL    MW4 1856   2.268   3.451   0.860 -0.2022 -0.0517  0.0501
    1SOL     OW 1857   1.165   4.430   0.424  0.3135 -0.0235  0.4324
    1SOL    HW2 1858   1.157   4.335   0.427  1.7976 -0.1803 -0.1114
    1SOL    HW3 1859   1.083   4.460   0.385  0.3674 -1.1773 -0.5911
    1SOL    MW4 1860   1.153   4.422   0.419  0.5163 -0.1965  0.2256
    1SOL     OW 1861   4.333   4.616   0.828  0.1337  0.4545  0.1388
    1SOL    HW2 1862   4.312   4.602   0.920 -1.3727 -0.3498 -0.3048
    1SOL    HW3 1863   4.287   4.696   0.805 -1.0007 -0.3309 -0.3722
    1SOL    MW4 1864   4.324   4.624   0.837 -0.2141  0.2451  0.0128
    1SOL     OW 1865   3.589   0.044   0.806  0.0970 -0.0383 -0.7677
    1SOL    HW2 1866   3.582   0.136   0.832 -0.3210 -0.2511 -0.1312
    1SOL    HW3 1867   3.684   0.030   0.798  0.2270  0.1243  0.3226
    1SOL    MW4 1868   3.601   0.055   0.809  0.0589 -0.0449 -0.5399
    1SOL     OW 1869   4.115   0.082   0.255 -0.1645  0.0505 -0.3420
    1SOL    HW2 1870   4.169   0.145   0.302  1.7415 -1.6650 -0.1440
    1SOL    HW3 1871   4.035   0.129   0.235  0.6812  2.1101  0.9534
    1SOL    MW4 1872   4.112   0.096   0.258  0.1988  0.0959 -0.1450
    1SOL     OW 1873   4.462   2.675   0.891 -0.9145 -0.2105 -0.3329
    1SOL    HW2 1874   4.464   2.680   0.986 -1.8501  0.2864 -0.3369
    1SOL    HW3 1875   4.539   2.725   0.863 -1.8501  1.5057  0.1023
    1SOL    MW4 1876   4.473   2.683   0.900 -1.1614  0.0818 -0.2760
    1SOL     OW 1877   4.266   0.790   0.856  0.1389  0.1900 -0.4795
    1SOL    HW2 1878   4.258   0.775   0.951 -1.9301  2.2691 -0.2753
    1SOL    HW3 1879   4.279   0.702   0.819 -1.2534 -0.9157  1.5403
    1SOL    MW4 1880   4.266   0.776   0.864 -0.3176  0.3185 -0.1860
    1SOL     OW 1881   4.270   3.576   0.423  0.1890 -0.1069  0.0060
    1SOL    HW2 1882   4.276   3.574   0.518 -0.0402  0.5229  0.0390
    1SOL    HW3 1883   4.351   3.534   0.392  0.5879  0.3216  0.4735
    1SOL    MW4 1884   4.281   3.570   0.431  0.2112  0.0327  0.0721
    1SOL     OW 1885   1.199   1.640   0.618  0.2427 -0.4364  0.0557
    1SOL    HW2 1886   1.221   1.567   0.561  0.8728 -0.3155  0.1480
    1SOL    HW3 1887   1.157   1.703   0.559 -0.4783 -0.9485  0.0147
    1SOL    MW4 1888   1.196   1.639   0.603  0.2307 -0.4880  0.0625
    1SOL     OW 1889   2.250   4.255   0.857  0.4677  0.0017 -0.3589
    1SOL    HW2 1890   2.168   4.297   0.832  0.6962  1.6295  1.4942
    1SOL    HW3 1891   2.241   4.165   0.827 -1.3841  0.5404 -1.4900
    1SOL    MW4 1892   2.238   4.249   0.850  0.2534  0.2871 -0.2637
    1SOL     OW 1893   4.213   1.561   0.914  0.2154 -0.2210  0.1459
    1SOL    HW2 1894   4.228   1.479   0.869  1.4947 -1.1162  2.1247
    1SOL    HW3 1895   4.245   1.546   1.003 -0.8547  1.9484  0.9440
    1SOL    MW4 1896   4.219   1.549   0.920  0.2432 -0.0528  0.5123
    1SOL     OW 1897   0.863   1.155   0.872 -0.1329 -0.5923 -0.2504
    1SOL    HW2 1898   0.788   1.189   0.823  1.9856  0.3341 -3.0329
    1SOL    HW3 1899   0.883   1.072   0.829  0.4030 -0.8486  0.4854
    1SOL    MW4 1900   0.856   1.149   0.860  0.2174 -0.5039 -0.5204
    1SOL     OW 1901   1.707   4.414   0.079 -0.4690 -0.4098  0.4017
    1SOL    HW2 1902   1.719   4.357   0.003 -1.3438  0.1344 -0.1593
    1SOL    HW3 1903   1.612   4.427   0.085 -0.2569  1.5008  0.1056
    1SOL    MW4 1904   1.696   4.408   0.069 -0.5563 -0.0863  0.2885
    1SOL     OW 1905   4.043   3.186   0.732 -0.0694  0.3565  0.3727
    1SOL    HW2 1906   3.982   3.139   0.788  0.6702 -1.0907 -0.0132
    1SOL    HW3 1907   4.008   3.174   0.644 -0.0323  0.7713  0.3023
    1SOL    MW4 1908   4.030   3.178   0.728  0.0334  0.2201  0.3125
    1SOL     OW 1909   0.210   2.312   1.193 -0.1787  0.1184 -0.4679
    1SOL    HW2 1910   0.142   2.379   1.197 -0.5655 -0.2949 -0.0376
    1SOL    HW3 1911   0.292   2.361   1.199 -0.4848  0.4620  1.0892
    1SOL    MW4 1912   0.212   2.327   1.194 -0.2701  0.1090 -0.2058
    1SOL     OW 1913   2.009   3.857   0.856  0.2200 -0.3555 -0.2290
    1SOL    HW2 1914   2.022   3.841   0.949 -0.3742  0.9367  0.0809
    1SOL    HW3 1915   2.027   3.772   0.814 -0.0190 -1.0704  1.1068
    1SOL    MW4 1916   2.013   3.843   0.862  0.1097 -0.2792 -0.0118
    1SOL     OW 1917   3.792   2.867   0.727  0.0268  0.4869 -0.0310
    1SOL    HW2 1918   3.875   2.826   0.753  0.6225  1.3917 -0.4862
    1SOL    HW3 1919   3.800   2.878   0.632 -1.7183 -1.8704 -0.4985
    1SOL    MW4 1920   3.804   2.863   0.718 -0.1247  0.2954 -0.1527
    1SOL     OW 1921   0.881   1.933   0.914  0.3377  0.0547 -0.1059
    1SOL    HW2 1922   0.806   1.981   0.879  0.3803  0.3642  0.2289
    1SOL    HW3 1923   0.873   1.940   1.009  0.8268  0.1468 -0.0690
    1SOL    MW4 1924   0.870   1.940   0.922  0.4078  0.1078 -0.0568
    1SOL     OW 1925   2.451   0.452   0.289 -0.5705  0.3039 -0.3469
    1SOL    HW2 1926   2.442   0.482   0.199 -0.8030  0.5122 -0.2556
    1SOL    HW3 1927   2.526   0.500   0.324 -0.2050 -0.1096 -0.5670
    1SOL    MW4 1928   2.460   0.462   0.282 -0.5531  0.2768 -0.3639
    1SOL     OW 1929   3.386   2.049   0.444  0.0177  0.0564 -0.2318
    1SOL    HW2 1930   3.411   2.134   0.406 -0.1492 -0.2231 -0.9736
    1SOL    HW3 1931   3.460   1.992   0.425  0.4110  0.1898  0.8324
    1SOL    MW4 1932   3.399   2.053   0.437  0.0474  0.0372 -0.1893
    1SOL     OW 1933   3.574   3.510   0.868 -0.1970  0.1286  0.1272
    1SOL    HW2 1934   3.648   3.547   0.820 -0.4489  0.2612 -0.1642
    1SOL    HW3 1935   3.578   3.416   0.849  0.7090 -0.0726  1.2343
    1SOL    MW4 1936   3.584   3.502   0.859 -0.1109  0.1194  0.2348
    1SOL     OW 1937   4.220   3.850   0.838  0.1431  0.0649 -0.2201
    1SOL    HW2 1938   4.139   3.896   0.814  0.0153  0.3782  0.7739
    1SOL    HW3 1939   4.215   3.842   0.934  1.2894  0.0757 -0.1599
    1SOL    MW4 1940   4.209   3.855   0.848  0.2770  0.1078 -0.0810
    1SOL     OW 1941   0.618   1.103   0.380  0.1804  0.0661 -0.6572
    1SOL    HW2 1942   0.524   1.098   0.393  0.4513  0.5294  1.5251
    1SOL    HW3 1943   0.646   1.012   0.373 -0.2548 -0.1072 -0.0969
    1SOL    MW4 1944   0.610   1.090   0.381  0.1588  0.1043 -0.2953
    1SOL     OW 1945   3.796   3.887   0.855  0.2101  0.4721 -0.8054
    1SOL    HW2 1946   3.873   3.938   0.827  0.4093  0.3457 -0.4853
    1SOL    HW3 1947   3.813   3.799   0.823  0.9377  0.0794  0.6432
    1SOL    MW4 1948   3.808   3.882   0.847  0.3321  0.4036 -0.5721
    1SOL     OW 1949   4.000   0.026   0.566  0.1064  0.5383 -0.1671
    1SOL    HW2 1950   3.985  -0.060   0.529 -0.0365 -0.4266  2.0386
    1SOL    HW3 1951   3.950   0.086   0.511  0.1610 -0.7883 -1.6649
    1SOL    MW4 1952   3.992   0.023   0.554  0.0947  0.2360 -0.0737
    1SOL     OW 1953   3.862   4.635   0.814  0.3291  0.1093 -0.0443
    1SOL    HW2 1954   3.844   4.542   0.801 -0.6579  0.5636 -1.9811
    1SOL    HW3 1955   3.908   4.663   0.735 -0.1554  1.4724  0.1339
    1SOL    MW4 1956   3.866   4.626   0.802  0.1349  0.3490 -0.2763
    1SOL     OW 1957   0.227   4.631   1.178  0.7000  0.0847 -0.2400
    1SOL    HW2 1958   0.299   4.692   1.192  0.1797  0.8457 -0.8647
    1SOL    HW3 1959   0.223   4.619   1.083 -0.8510  1.0898 -0.3129
    1SOL    MW4 1960   0.236   4.637   1.167  0.4267  0.3181 -0.3320
    1SOL     OW 1961   0.003   0.114   1.235 -0.5724  0.2117  0.2261
    1SOL    HW2 1962  -0.075   0.068   1.203  0.1207 -0.2308 -0.8643
    1SOL    HW3 1963   0.075   0.054   1.216  0.0580  0.6918  1.0686
    1SOL    MW4 1964   0.002   0.100   1.228 -0.3982  0.2166  0.1935
    1SOL     OW 1965   0.004   0.382   1.149  0.1992 -0.6800  0.4204
    1SOL    HW2 1966  -0.078   0.415   1.187 -1.4359 -2.1904 -1.6663
    1SOL    HW3 1967   0.009   0.291   1.179  0.8034 -0.7546  0.0944
    1SOL    MW4 1968  -0.006   0.374   1.158  0.0634 -0.8891  0.1019
    1SOL     OW 1969   0.229   0.525   1.233  0.3711  0.7377  0.2025
    1SOL    HW2 1970   0.220   0.609   1.188  0.0108  1.9200  2.4140
    1SOL    HW3 1971   0.155   0.473   1.203  0.4877  1.2685 -1.0364
    1SOL    MW4 1972   0.218   0.529   1.223  0.3390  0.9637  0.3308
    1SOL     OW 1973   0.240   0.752   1.092 -0.2457  0.2973  0.4203
    1SOL    HW2 1974   0.318   0.789   1.135 -0.4956  1.5062 -0.1625
    1SOL    HW3 1975   0.166   0.788   1.141 -0.4919  0.6270 -0.1907
    1SOL    MW4 1976   0.241   0.762   1.104 -0.3112  0.5003  0.2627
    1SOL     OW 1977   0.029   0.856   1.230  0.0369 -0.0090 -0.4832
    1SOL    HW2 1978   0.032   0.861   1.326  0.4480 -0.0070 -0.4951
    1SOL    HW3 1979   0.028   0.947   1.201  0.5679 -0.0033 -0.4969
    1SOL    MW4 1980   0.029   0.869   1.239  0.1612 -0.0080 -0.4866
    1SOL     OW 1981   4.456   1.134   1.101  0.1217  0.0305 -0.0541
    1SOL    HW2 1982   4.380   1.181   1.137  0.0276 -1.0620  1.2198
    1SOL    HW3 1983   4.532   1.184   1.132 -0.0282  0.2858 -0.0976
    1SOL    MW4 1984   4.456   1.147   1.110  0.0896 -0.0800  0.1081
    1SOL     OW 1985   0.196   1.260   1.210  0.5828  0.4285  0.4276
    1SOL    HW2 1986   0.204   1.262   1.306 -0.5309  0.2043  0.5242
    1SOL    HW3 1987   0.272   1.210   1.181  0.9274  0.4941  1.1887
    1SOL    MW4 1988   0.207   1.254   1.219  0.4813  0.4077  0.5407
    1SOL     OW 1989   0.224   1.536   1.129  0.1888  0.0021 -0.2251
    1SOL    HW2 1990   0.223   1.444   1.156 -0.0101  0.1050  0.1248
    1SOL    HW3 1991   0.217   1.533   1.034  1.8235 -0.3933 -0.3515
    1SOL    MW4 1992   0.223   1.523   1.120  0.3783 -0.0365 -0.1957
    1SOL     OW 1993   0.020   1.657   1.241  0.1022  0.2335 -0.1963
    1SOL    HW2 1994   0.008   1.747   1.208  0.9472  1.4579  2.6665
    1SOL    HW3 1995   0.098   1.626   1.195 -0.2300  0.9321 -1.2705
    1SOL    MW4 1996   0.029   1.665   1.230  0.1699  0.4872  0.0397
    1SOL     OW 1997   0.005   1.926   1.158 -0.1470  0.2395 -0.3908
    1SOL    HW2 1998  -0.076   1.972   1.181 -0.6061 -1.0062  0.5342
    1SOL    HW3 1999   0.010   1.932   1.063 -1.4758  0.0775 -0.4772
    1SOL    MW4 2000  -0.005   1.933   1.149 -0.3829  0.0536 -0.2803
    1SOL     OW 2001   0.236   2.037   1.256 -0.0059  0.2126 -0.1888
    1SOL    HW2 2002   0.223   2.132   1.251 -0.4110  0.0915 -1.4840
    1SOL    HW3 2003   0.155   2.000   1.222  0.7092 -0.5941 -1.0116
    1SOL    MW4 2004   0.223   2.045   1.251  0.0350  0.0904 -0.4684
    1SOL     OW 2005   0.228   2.261   0.902 -0.6435  0.1221 -0.2552
    1SOL    HW2 2006   0.153   2.307   0.865  0.1073  0.1884 -1.6936
    1SOL    HW3 2007   0.220   2.276   0.997 -1.0649  2.1944 -0.6000
    1SOL    MW4 2008   0.217   2.269   0.910 -0.6000  0.4044 -0.4905
    1SOL     OW 2009   4.464   2.444   1.223  0.1025 -0.0925  0.4367
    1SOL    HW2 2010   4.466   2.456   1.318 -0.1209  1.6796  0.2354
    1SOL    HW3 2011   4.376   2.413   1.204  0.5569 -1.7147  0.9375
    1SOL    MW4 2012   4.453   2.442   1.233  0.1326 -0.0727  0.4761
    1SOL     OW 2013   0.019   2.702   1.160  0.1169  0.3119 -0.2368
    1SOL    HW2 2014  -0.056   2.752   1.193  0.3264  0.5363 -0.0952
    1SOL    HW3 2015   0.002   2.612   1.186 -1.2272 -0.0286 -2.1695
    1SOL    MW4 2016   0.007   2.697   1.168 -0.0329  0.2966 -0.4731
    1SOL     OW 2017   0.236   2.832   1.256  0.0996 -0.1335 -0.0584
    1SOL    HW2 2018   0.233   2.844   1.351  0.6970 -0.3746 -0.0081
    1SOL    HW3 2019   0.151   2.795   1.234 -0.3548  0.6815  0.2753
    1SOL    MW4 2020   0.224   2.829   1.266  0.1184 -0.0579 -0.0077
    1SOL     OW 2021   0.205   3.089   1.159  0.0756 -0.5731 -0.1648
    1SOL    HW2 2022   0.280   3.146   1.176 -0.6128  0.1310  0.5203
    1SOL    HW3 2023   0.233   3.003   1.191  1.4840 -0.8775 -2.0910
    1SOL    MW4 2024   0.219   3.085   1.165  0.1706 -0.5205 -0.3285
    1SOL     OW 2025   4.476   3.234   1.224  0.2327  0.2188 -0.0927
    1SOL    HW2 2026   4.402   3.193   1.178  0.4134 -1.0785  0.7524
    1SOL    HW3 2027   4.553   3.189   1.189  0.3996 -0.5026  1.1860
    1SOL    MW4 2028   4.477   3.223   1.213  0.2785 -0.0477  0.1876
    1SOL     OW 2029   4.488   3.506   1.124  0.1069  0.3554  0.0845
    1SOL    HW2 2030   4.493   3.411   1.140  0.2838  0.2578 -0.5217
    1SOL    HW3 2031   4.495   3.514   1.029 -0.7124  0.9280  0.0674
    1SOL    MW4 2032   4.489   3.494   1.113  0.0229  0.4177  0.0023
    1SOL     OW 2033   0.256   3.607   1.212 -0.0139  0.5560  0.6423
    1SOL    HW2 2034   0.264   3.610   1.308 -0.6122 -0.1051  0.7186
    1SOL    HW3 2035   0.167   3.575   1.197  0.5854 -0.7423 -0.1317
    1SOL    MW4 2036   0.245   3.603   1.223 -0.0138  0.2975  0.5503
    1SOL     OW 2037   0.199   3.863   1.148  0.3913 -0.1236  0.0670
    1SOL    HW2 2038   0.105   3.872   1.166 -0.0849 -0.7088 -1.9411
    1SOL    HW3 2039   0.222   3.778   1.185 -0.0127 -0.2404  0.0596
    1SOL    MW4 2040   0.190   3.853   1.155  0.2752 -0.2160 -0.1990
    1SOL     OW 2041   4.433   3.935   1.188 -0.1665  0.0487 -0.2485
    1SOL    HW2 2042   4.435   3.965   1.279  1.0315 -0.4490 -0.0947
    1SOL    HW3 2043   4.343   3.907   1.174 -0.1523 -0.7318  1.0834
    1SOL    MW4 2044   4.421   3.935   1.198 -0.0067 -0.1202 -0.0525
    1SOL     OW 2045   4.463   4.211   1.108  0.3542  0.3991 -0.1319
    1SOL    HW2 2046   4.552   4.236   1.132 -0.1211  1.4061  0.6001
    1SOL    HW3 2047   4.459   4.117   1.126  1.1684  0.4168  0.1407
    1SOL    MW4 2048   4.474   4.202   1.114  0.3986  0.5345  0.0006
    1SOL     OW 2049   0.187   4.353   1.224  0.3760  0.2160  0.2932
    1SOL    HW2 2050   0.176   4.354   1.319  0.0298 -0.8565  0.2777
    1SOL    HW3 2051   0.184   4.445   1.198  0.0541  0.4872  1.2747
    1SOL    MW4 2052   0.185   4.365   1.233  0.2878  0.1101  0.4207
    1SOL     OW 2053   0.669   0.014   1.143 -0.2698  0.7867 -0.4304
    1SOL    HW2 2054   0.752   0.052   1.172 -0.1839  0.4785 -0.2580
    1SOL    HW3 2055   0.670  -0.075   1.179 -0.9364  0.9723  0.0511
    1SOL    MW4 2056   0.680   0.007   1.151 -0.3464  0.7701 -0.3440
    1SOL     OW 2057   0.445   0.123   1.238  0.2253  0.5267  0.0262
    1SOL    HW2 2058   0.448   0.217   1.221 -0.9086  0.4635 -0.5927
    1SOL    HW3 2059   0.520   0.087   1.191 -0.5105  0.8802 -1.4425
    1SOL    MW4 2060   0.456   0.131   1.230 -0.0214  0.5650 -0.2493
    1SOL     OW 2061   2.405   1.980   0.489 -0.0170 -0.0148 -0.0066
    1SOL    HW2 2062   2.491   1.966   0.451 -0.4529 -0.4905 -0.8170
    1SOL    HW3 2063   2.374   1.893   0.513 -0.2671  0.1564  0.3157
    1SOL    MW4 2064   2.412   1.967   0.487 -0.1075 -0.0550 -0.0710
    1SOL     OW 2065   0.697   0.521   1.214 -0.2844  0.6207  0.1998
    1SOL    HW2 2066   0.685   0.606   1.172  1.3311 -0.6142 -2.8816
    1SOL    HW3 2067   0.615   0.475   1.199 -0.5801  1.0295  0.5209
    1SOL    MW4 2068   0.684   0.526   1.207 -0.1102  0.5117 -0.1644
    1SOL     OW 2069   0.677   0.765   1.106 -0.3998 -0.1863  0.1604
    1SOL    HW2 2070   0.591   0.791   1.138  0.7331  2.7250  1.0508
    1SOL    HW3 2071   0.675   0.784   1.013 -0.4275  0.7815  0.3527
    1SOL    MW4 2072   0.666   0.771   1.098 -0.2540  0.3256  0.3034
    1SOL     OW 2073   0.446   0.880   1.203 -0.5964  0.0383  0.6003
    1SOL    HW2 2074   0.436   0.898   1.297 -1.9822  1.3105  0.2303
    1SOL    HW3 2075   0.455   0.966   1.163  1.9436 -0.5782 -0.2547
    1SOL    MW4 2076   0.446   0.894   1.210 -0.4441  0.1249  0.4387
    1SOL     OW 2077   0.416   1.148   1.115 -0.0553  0.1750 -0.0694
    1SOL    HW2 2078   0.496   1.190   1.147  0.5033 -0.8143 -0.1324
    1SOL    HW3 2079   0.421   1.155   1.019 -0.0078  0.0495 -0.0762
    1SOL    MW4 2080   0.427   1.154   1.106  0.0246  0.0280 -0.0786
    1SOL     OW 2081   0.644   1.281   1.196 -0.6149  0.0239  0.1517
    1SOL    HW2 2082   0.721   1.228   1.176 -0.6608 -0.1795  0.5057
    1SOL    HW3 2083   0.667   1.369   1.166 -0.0614  0.0633  0.6843
    1SOL    MW4 2084   0.657   1.286   1.189 -0.5479  0.0024  0.2687
    1SOL     OW 2085   0.680   1.538   1.143 -0.0954  0.2671  0.4203
    1SOL    HW2 2086   0.755   1.585   1.181  0.2885 -0.3236  0.3968
    1SOL    HW3 2087   0.603   1.583   1.179  0.2273  2.5169 -1.5298
    1SOL    MW4 2088   0.680   1.550   1.153 -0.0021  0.4860  0.1597
    1SOL     OW 2089   0.453   1.663   1.216 -0.0066  0.7297 -0.2521
    1SOL    HW2 2090   0.441   1.653   1.311 -0.5182 -0.7529 -0.4697
    1SOL    HW3 2091   0.380   1.616   1.177 -0.5997  2.5456 -1.3782
    1SOL    MW4 2092   0.442   1.656   1.224 -0.1523  0.7738 -0.4293
    1SOL     OW 2093   0.484   1.930   1.159 -0.4650  0.4742  0.5658
    1SOL    HW2 2094   0.484   1.838   1.186  0.2315  0.6498  1.1773
    1SOL    HW3 2095   0.398   1.962   1.185  0.3783  0.7757  3.0983
    1SOL    MW4 2096   0.473   1.922   1.166 -0.2618  0.5372  0.9807
    1SOL     OW 2097   0.654   2.114   1.272  0.2213  0.0677  0.3709
    1SOL    HW2 2098   0.642   2.105   1.366 -0.6146 -0.8281  0.1788
    1SOL    HW3 2099   0.598   2.047   1.233  0.5139  0.4636 -0.7688
    1SOL    MW4 2100   0.645   2.104   1.279  0.1497  0.0019  0.1950
    1SOL     OW 2101   0.686   2.348   1.144  0.3503 -0.0826  0.2440
    1SOL    HW2 2102   0.608   2.386   1.184 -0.0340 -1.1706  0.5313
    1SOL    HW3 2103   0.694   2.261   1.184  1.6344 -0.0333  0.1344
    1SOL    MW4 2104   0.677   2.341   1.155  0.4690 -0.2201  0.2674
    1SOL     OW 2105   0.462   2.446   1.244  0.1130 -0.3158  0.3092
    1SOL    HW2 2106   0.463   2.458   1.339  0.5965  0.0044  0.2655
    1SOL    HW3 2107   0.472   2.534   1.209 -0.6405 -0.3688 -0.0433
    1SOL    MW4 2108   0.464   2.459   1.252  0.0773 -0.2806  0.2570
    1SOL     OW 2109   0.486   2.705   1.155  0.0363 -0.3376  0.4962
    1SOL    HW2 2110   0.398   2.735   1.177  0.5027  0.5751  1.1501
    1SOL    HW3 2111   0.491   2.714   1.059  0.0570  1.3778  0.6492
    1SOL    MW4 2112   0.475   2.710   1.145  0.1006  0.0091  0.6026
    1SOL     OW 2113   0.710   2.840   1.241  0.0958 -0.0594  0.2226
    1SOL    HW2 2114   0.688   2.831   1.333  0.3887 -1.3910  0.1773
    1SOL    HW3 2115   0.638   2.795   1.196 -0.0197  0.5390 -0.1968
    1SOL    MW4 2116   0.697   2.833   1.247  0.1191 -0.1562  0.1612
    1SOL     OW 2117   0.671   3.086   1.137 -0.0961 -0.0864  0.3671
    1SOL    HW2 2118   0.745   3.137   1.168 -0.7167  1.4837 -0.6664
    1SOL    HW3 2119   0.694   2.995   1.158  2.6254  0.2444 -0.9464
    1SOL    MW4 2120   0.684   3.081   1.144  0.1811  0.1643  0.0573
    1SOL     OW 2121   0.444   3.213   1.220 -0.2014  0.1463 -0.2692
    1SOL    HW2 2122   0.450   3.288   1.160  0.4811  0.2201 -0.1076
    1SOL    HW3 2123   0.518   3.157   1.197 -1.0127 -0.7608 -0.7554
    1SOL    MW4 2124   0.454   3.215   1.209 -0.2184  0.0362 -0.3121
    1SOL     OW 2125   0.468   3.474   1.102 -0.4773 -1.0129 -0.1484
    1SOL    HW2 2126   0.548   3.512   1.136  0.3145 -1.2862 -1.6648
    1SOL    HW3 2127   0.398   3.527   1.140  0.5044  0.5201 -0.4496
    1SOL    MW4 2128   0.469   3.486   1.112 -0.2433 -0.8464 -0.3883
    1SOL     OW 2129   0.697   3.603   1.195 -0.7400  0.4010  0.7457
    1SOL    HW2 2130   0.702   3.615   1.290 -1.1650  0.0292  0.8169
    1SOL    HW3 2131   0.684   3.692   1.160 -1.4674  0.4399  1.0991
    1SOL    MW4 2132   0.696   3.617   1.203 -0.8920  0.3572  0.8017
    1SOL     OW 2133   0.681   3.872   1.099  0.6592  0.3406 -0.1855
    1SOL    HW2 2134   0.600   3.912   1.132 -0.4515 -0.4913 -1.8188
    1SOL    HW3 2135   0.666   3.862   1.005  1.8662 -1.6483 -0.1953
    1SOL    MW4 2136   0.668   3.876   1.091  0.6719 -0.0315 -0.4023
    1SOL     OW 2137   0.453   3.990   1.172  0.1264  0.3297  0.5319
    1SOL    HW2 2138   0.454   4.085   1.154  0.6783  0.4158  1.0126
    1SOL    HW3 2139   0.362   3.965   1.158  0.4656  0.4278 -2.2025
    1SOL    MW4 2140   0.441   3.999   1.167  0.2440  0.3538  0.2345
    1SOL     OW 2141   0.425   4.271   1.113 -0.2997  0.0096 -0.0111
    1SOL    HW2 2142   0.495   4.330   1.140  0.1896 -0.4069 -0.3746
    1SOL    HW3 2143   0.346   4.306   1.155  0.1881  0.2637  0.6925
    1SOL    MW4 2144   0.424   4.283   1.123 -0.1708 -0.0119  0.0336
    1SOL     OW 2145   0.651   4.398   1.212  0.5651 -0.2544 -0.2261
    1SOL    HW2 2146   0.661   4.389   1.307  1.8633 -0.8487 -0.4005
    1SOL    HW3 2147   0.738   4.377   1.177  0.0797 -0.1044 -1.5495
    1SOL    MW4 2148   0.664   4.394   1.220  0.6725 -0.3133 -0.4238
    1SOL     OW 2149   1.151   4.654   1.121  0.3623 -0.0055  0.0993
    1SOL    HW2 2150   1.140   4.566   1.156 -0.7013 -0.0644 -0.3872
    1SOL    HW3 2151   1.151   4.643   1.026 -0.9292  0.6547  0.0192
    1SOL    MW4 2152   1.150   4.641   1.113  0.0516  0.0739  0.0246
    1SOL     OW 2153   0.916   0.135   1.185  0.0898 -0.0373  0.0711
    1SOL    HW2 2154   0.925   0.137   1.280  0.0075 -1.6730  0.1297
    1SOL    HW3 2155   0.999   0.099   1.154  0.0776  0.3935 -0.4762
    1SOL    MW4 2156   0.928   0.130   1.194  0.0772 -0.1962  0.0067
    1SOL     OW 2157   0.914   0.408   1.085  0.2555 -0.3569  0.4777
    1SOL    HW2 2158   0.903   0.315   1.104 -1.0707 -0.7049 -1.8127
    1SOL    HW3 2159   0.840   0.451   1.127 -0.9369 -0.7498 -1.1731
    1SOL    MW4 2160   0.903   0.402   1.093 -0.0768 -0.4546 -0.0422
    1SOL     OW 2161   1.144   0.492   1.207  0.1527 -0.2336  0.1110
    1SOL    HW2 2162   1.127   0.506   1.300  0.6674  2.7677 -0.1953
    1SOL    HW3 2163   1.058   0.479   1.168 -0.1821 -0.1079  0.8115
    1SOL    MW4 2164   1.131   0.492   1.214  0.1764  0.1789  0.1630
    1SOL     OW 2165   1.164   0.738   1.080  0.1647  0.1931  0.0242
    1SOL    HW2 2166   1.082   0.782   1.105 -0.6668 -1.0261 -0.4930
    1SOL    HW3 2167   1.159   0.652   1.122  1.2247  0.1381  0.0569
    1SOL    MW4 2168   1.152   0.732   1.089  0.1949  0.0250 -0.0397
    1SOL     OW 2169   0.924   0.867   1.160 -0.0776 -0.0149 -0.7908
    1SOL    HW2 2170   0.902   0.959   1.144 -0.1217  0.6078  2.5031
    1SOL    HW3 2171   0.841   0.820   1.152 -0.3413  0.4710 -0.9202
    1SOL    MW4 2172   0.910   0.873   1.157 -0.1182  0.1314 -0.3734
    1SOL     OW 2173   0.873   1.149   1.150 -0.2411  0.0841 -0.1268
    1SOL    HW2 2174   0.956   1.193   1.169  1.1628 -2.4876 -0.0060
    1SOL    HW3 2175   0.862   1.159   1.056  1.0550 -0.8760 -0.4065
    1SOL    MW4 2176   0.883   1.156   1.140  0.1152 -0.3818 -0.1478
    1SOL     OW 2177   1.120   1.272   1.213 -0.0431 -0.0619 -0.3041
    1SOL    HW2 2178   1.127   1.286   1.307  0.4168  1.1964 -0.5126
    1SOL    HW3 2179   1.193   1.213   1.192 -0.6809 -1.0627  0.2526
    1SOL    MW4 2180   1.131   1.266   1.223 -0.0666 -0.0278 -0.2581
    1SOL     OW 2181   1.104   1.531   1.138  0.5725  0.4383  0.4149
    1SOL    HW2 2182   1.102   1.438   1.161  0.1126  0.1509 -0.7374
    1SOL    HW3 2183   1.122   1.532   1.044 -1.0210  1.4607  0.1048
    1SOL    MW4 2184   1.106   1.519   1.128  0.3015  0.5351  0.2218
    1SOL     OW 2185   0.898   1.674   1.232  0.1518  0.2985 -0.1178
    1SOL    HW2 2186   0.888   1.767   1.212  0.0445  0.3890  0.3529
    1SOL    HW3 2187   0.979   1.648   1.188 -0.5443  0.2828 -1.4083
    1SOL    MW4 2188   0.908   1.682   1.223  0.0458  0.3084 -0.2259
    1SOL     OW 2189   0.874   1.948   1.188 -0.0238 -0.0048  0.5474
    1SOL    HW2 2190   0.963   1.974   1.210  0.2137 -2.0473  2.2164
    1SOL    HW3 2191   0.820   2.022   1.215  0.9224  0.1561  2.0596
    1SOL    MW4 2192   0.878   1.961   1.195  0.1323 -0.2531  0.9671
    1SOL     OW 2193   1.130   2.029   1.267  0.1128 -0.2031 -0.3460
    1SOL    HW2 2194   1.117   2.035   1.362  1.1842 -1.6486 -0.1032
    1SOL    HW3 2195   1.129   2.120   1.237 -2.5998  0.1643  0.7207
    1SOL    MW4 2196   1.128   2.042   1.275 -0.1038 -0.3455 -0.1733
    1SOL     OW 2197   1.114   2.312   1.133 -0.2549 -0.1632 -0.3941
    1SOL    HW2 2198   1.189   2.360   1.169  0.1880 -0.4743 -0.9021
    1SOL    HW3 2199   1.118   2.328   1.039 -1.3650  0.5787 -0.3256
    1SOL    MW4 2200   1.125   2.320   1.126 -0.3428 -0.1066 -0.4520
    1SOL     OW 2201   0.904   2.460   1.266 -0.0467 -0.2682 -0.4328
    1SOL    HW2 2202   0.964   2.407   1.214  0.1475 -0.7294  0.2451
    1SOL    HW3 2203   0.817   2.429   1.243  0.1107 -1.6563  0.7662
    1SOL    MW4 2204   0.901   2.449   1.256 -0.0003 -0.5124 -0.1850
    1SOL     OW 2205   0.917   2.699   1.114  0.0441  0.2542  0.0064
    1SOL    HW2 2206   0.935   2.620   1.165 -0.5899  0.0389 -0.1051
    1SOL    HW3 2207   0.838   2.735   1.153 -1.4238 -0.8192 -1.8983
    1SOL    MW4 2208   0.909   2.693   1.126 -0.2332  0.0844 -0.2596
    1SOL     OW 2209   1.148   2.845   1.183 -0.1839  0.8797 -0.8126
    1SOL    HW2 2210   1.147   2.855   1.278  0.3106  0.7695 -0.7923
    1SOL    HW3 2211   1.064   2.805   1.162 -0.0447  0.3372 -0.3566
    1SOL    MW4 2212   1.137   2.841   1.193 -0.1005  0.7937 -0.7497
    1SOL     OW 2213   1.109   3.110   1.126  0.5399  0.2665  0.1005
    1SOL    HW2 2214   1.124   3.015   1.130  2.4318  0.5821  1.0560
    1SOL    HW3 2215   1.117   3.131   1.033  3.3736 -0.0480  0.2363
    1SOL    MW4 2216   1.112   3.100   1.114  1.1634  0.2668  0.2444
    1SOL     OW 2217   0.886   3.233   1.211 -0.0667 -0.2512  0.7880
    1SOL    HW2 2218   0.884   3.308   1.152  0.0168  0.0379  1.1538
    1SOL    HW3 2219   0.969   3.189   1.192 -1.2170 -1.6761 -1.1993
    1SOL    MW4 2220   0.896   3.237   1.200 -0.2075 -0.4010  0.5740
    1SOL     OW 2221   0.902   3.480   1.054  0.1052  0.4821 -0.2955
    1SOL    HW2 2222   0.831   3.522   1.102  0.5811  1.4148 -0.3889
    1SOL    HW3 2223   0.884   3.499   0.962  1.3092  2.0943 -0.2274
    1SOL    MW4 2224   0.890   3.488   1.048  0.3268  0.8178 -0.2987
    1SOL     OW 2225   1.096   3.584   1.218 -0.0012 -0.0408 -0.3083
    1SOL    HW2 2226   1.184   3.575   1.180 -0.3414 -1.1412 -0.8471
    1SOL    HW3 2227   1.037   3.557   1.147 -0.6446 -2.3036  1.0652
    1SOL    MW4 2228   1.100   3.579   1.203 -0.1310 -0.4845 -0.1981
    1SOL     OW 2229   1.087   3.853   1.140  0.0367  0.0960 -0.0131
    1SOL    HW2 2230   1.005   3.900   1.155 -0.0913  0.2095 -1.0806
    1SOL    HW3 2231   1.071   3.766   1.176 -0.6361  0.0371 -0.4489
    1SOL    MW4 2232   1.074   3.848   1.147 -0.0689  0.1032 -0.2115
    1SOL     OW 2233   0.878   4.033   1.204  0.2434 -0.0856  0.0327
    1SOL    HW2 2234   0.864   4.039   1.298  0.6264 -0.0947  0.0926
    1SOL    HW3 2235   0.804   3.983   1.171 -0.8725  1.5098  0.0784
    1SOL    MW4 2236   0.867   4.027   1.212  0.1467  0.1240  0.0465
    1SOL     OW 2237   0.869   4.284   1.097  0.3476  0.3181  0.4638
    1SOL    HW2 2238   0.879   4.197   1.135  0.5229  0.0242 -0.2402
    1SOL    HW3 2239   0.870   4.269   1.002 -2.4038  0.7680  0.3206
    1SOL    MW4 2240   0.871   4.270   1.089  0.0077  0.3386  0.3520
    1SOL     OW 2241   1.107   4.389   1.225 -0.1788  0.4171  0.0389
    1SOL    HW2 2242   1.092   4.377   1.319 -0.8581  1.5438  0.0811
    1SOL    HW3 2243   1.028   4.355   1.183  0.8955 -1.8044 -0.2484
    1SOL    MW4 2244   1.095   4.383   1.232 -0.1267  0.2732  0.0067
    1SOL     OW 2245   1.559   4.657   1.104 -0.0286 -0.3021 -0.1910
    1SOL    HW2 2246   1.637   4.700   1.137 -0.2806  0.4966 -0.6315
    1SOL    HW3 2247   1.560   4.570   1.145  0.8371 -0.1259  0.1585
    1SOL    MW4 2248   1.569   4.651   1.114  0.0523 -0.1736 -0.2029
    1SOL     OW 2249   1.353   0.102   1.266 -0.0992 -0.2485 -0.0426
    1SOL    HW2 2250   1.432   0.077   1.219  0.5420  0.8959  0.4046
    1SOL    HW3 2251   1.283   0.055   1.222  0.8335 -1.2707 -0.4440
    1SOL    MW4 2252   1.354   0.093   1.254  0.1085 -0.2324 -0.0366
    1SOL     OW 2253   1.361   0.344   1.127  0.0483  0.4841  0.4780
    1SOL    HW2 2254   1.366   0.264   1.179 -0.8242 -0.7057 -1.2499
    1SOL    HW3 2255   1.278   0.384   1.153  0.3785  0.7435  1.1709
    1SOL    MW4 2256   1.351   0.339   1.138 -0.0234  0.3613  0.3414
    1SOL     OW 2257   1.602   0.490   1.228  0.3428 -0.2306 -0.1007
    1SOL    HW2 2258   1.591   0.579   1.195  0.4104  0.2571  1.1769
    1SOL    HW3 2259   1.529   0.441   1.189  0.0473  0.4748 -0.4434
    1SOL    MW4 2260   1.591   0.495   1.218  0.3127 -0.0731  0.0226
    1SOL     OW 2261   1.560   0.757   1.111 -0.2650  0.3854  0.1931
    1SOL    HW2 2262   1.653   0.777   1.122 -0.0489 -0.5488  0.1167
    1SOL    HW3 2263   1.543   0.771   1.018 -0.3004  0.9688  0.2875
    1SOL    MW4 2264   1.570   0.761   1.101 -0.2413  0.3392  0.1954
    1SOL     OW 2265   1.343   0.873   1.246  0.2478  0.0441 -0.4479
    1SOL    HW2 2266   1.430   0.839   1.224  0.2174 -0.0577 -0.4096
    1SOL    HW3 2267   1.283   0.818   1.196 -0.0585 -2.5236  2.5450
    1SOL    MW4 2268   1.347   0.861   1.237  0.2033 -0.3082 -0.0480
    1SOL     OW 2269   1.335   1.129   1.124  0.1470 -0.3425  0.2885
    1SOL    HW2 2270   1.338   1.040   1.159  0.2049 -0.4171  0.0987
    1SOL    HW3 2271   1.417   1.170   1.155 -0.3328 -0.0464  1.1741
    1SOL    MW4 2272   1.346   1.123   1.132  0.0914 -0.3134  0.3803
    1SOL     OW 2273   1.564   1.257   1.209  0.1745  0.2254 -0.1382
    1SOL    HW2 2274   1.641   1.209   1.178  0.1548  0.7235 -0.9675
    1SOL    HW3 2275   1.585   1.282   1.298  1.2529  0.9338 -0.5855
    1SOL    MW4 2276   1.577   1.254   1.216  0.3142  0.3844 -0.3066
    1SOL     OW 2277   1.585   1.519   1.101  0.3273 -0.1221 -0.6989
    1SOL    HW2 2278   1.652   1.555   1.159 -0.8395  0.7081  0.1471
    1SOL    HW3 2279   1.570   1.430   1.132 -0.3512  0.3467  0.3412
    1SOL    MW4 2280   1.592   1.512   1.113  0.0838  0.0492 -0.4501
    1SOL     OW 2281   1.354   1.622   1.213  0.2223 -0.0940 -0.2164
    1SOL    HW2 2282   1.426   1.585   1.162  2.0450  0.6955  1.7376
    1SOL    HW3 2283   1.275   1.583   1.175  1.6657 -1.0658 -2.3032
    1SOL    MW4 2284   1.353   1.612   1.201  0.6531 -0.1179 -0.2340
    1SOL     OW 2285   1.368   1.897   1.174  0.1333 -0.1937 -0.1440
    1SOL    HW2 2286   1.358   1.803   1.185 -0.6210 -0.1322 -0.2395
    1SOL    HW3 2287   1.286   1.934   1.209  0.7864  0.4763  0.6868
    1SOL    MW4 2288   1.356   1.890   1.180  0.1199 -0.0972 -0.0471
    1SOL     OW 2289   1.599   2.053   1.229  0.4103  0.0529  0.5451
    1SOL    HW2 2290   1.577   2.146   1.222 -0.2180  0.0057  1.6871
    1SOL    HW3 2291   1.516   2.007   1.215  0.4276 -0.2714  1.4513
    1SOL    MW4 2292   1.585   2.059   1.227  0.3296  0.0038  0.8154
    1SOL     OW 2293   1.564   2.327   1.186  0.2482  0.3940 -0.1169
    1SOL    HW2 2294   1.480   2.362   1.218 -0.8459 -2.4318  0.2808
    1SOL    HW3 2295   1.556   2.329   1.091 -1.4650 -2.4171 -0.0934
    1SOL    MW4 2296   1.552   2.332   1.178 -0.1222 -0.3495 -0.0614
    1SOL     OW 2297   1.322   2.434   1.265 -0.0590  0.0039 -0.7982
    1SOL    HW2 2298   1.310   2.450   1.359  0.1796  0.0631 -0.7773
    1SOL    HW3 2299   1.338   2.521   1.228  1.3261 -0.1953 -0.6717
    1SOL    MW4 2300   1.323   2.448   1.273  0.1552 -0.0148 -0.7787
    1SOL     OW 2301   1.348   2.680   1.131  0.3858  0.2348  0.2021
    1SOL    HW2 2302   1.427   2.712   1.175  0.6795  1.2801 -1.0276
    1SOL    HW3 2303   1.279   2.741   1.159  0.2521 -0.0160  0.4157
    1SOL    MW4 2304   1.349   2.692   1.141  0.4069  0.3395  0.0681
    1SOL     OW 2305   1.560   2.783   1.257 -0.7541  0.1482  0.5789
    1SOL    HW2 2306   1.647   2.754   1.231 -0.6953  0.2699  0.6404
    1SOL    HW3 2307   1.548   2.866   1.212 -1.4581 -0.6146 -0.6617
    1SOL    MW4 2308   1.570   2.790   1.248 -0.8392  0.0634  0.4233
    1SOL     OW 2309   1.523   3.037   1.138 -0.3469  0.3737 -0.2626
    1SOL    HW2 2310   1.597   3.088   1.171 -0.6126 -0.0624  1.0068
    1SOL    HW3 2311   1.447   3.092   1.154 -0.5690 -0.1782  0.5906
    1SOL    MW4 2312   1.523   3.051   1.144 -0.4113  0.2437  0.0174
    1SOL     OW 2313   1.350   3.249   1.208  0.1651  0.0654 -0.1264
    1SOL    HW2 2314   1.357   3.232   1.302  1.7210  1.9228  0.1280
    1SOL    HW3 2315   1.268   3.207   1.183 -0.4639 -0.1589  2.1249
    1SOL    MW4 2316   1.340   3.241   1.217  0.2874  0.2809  0.2043
    1SOL     OW 2317   1.331   3.514   1.118 -0.0974 -0.0968 -0.0834
    1SOL    HW2 2318   1.343   3.429   1.160  1.9546  0.2108  0.0124
    1SOL    HW3 2319   1.325   3.494   1.025  0.8742 -0.3239 -0.1037
    1SOL    MW4 2320   1.332   3.500   1.111  0.3015 -0.0863 -0.0734
    1SOL     OW 2321   1.570   3.608   1.221 -0.6062 -0.3364 -0.2752
    1SOL    HW2 2322   1.576   3.704   1.218 -0.7903 -0.2989  0.4468
    1SOL    HW3 2323   1.478   3.589   1.203 -0.9344 -0.2848  1.2308
    1SOL    MW4 2324   1.559   3.618   1.218 -0.6737 -0.3245  0.0187
    1SOL     OW 2325   1.554   3.866   1.166 -0.0466 -0.1946  0.0148
    1SOL    HW2 2326   1.466   3.890   1.192 -0.5189  0.0126 -1.7059
    1SOL    HW3 2327   1.543   3.820   1.083  1.2388 -2.4535  1.0583
    1SOL    MW4 2328   1.541   3.863   1.158  0.0607 -0.4652 -0.0745
    1SOL     OW 2329   1.311   3.966   1.260  0.5317  0.2972  0.0476
    1SOL    HW2 2330   1.306   4.059   1.237  0.1110  0.1297 -0.5441
    1SOL    HW3 2331   1.241   3.925   1.210  0.5555 -0.3041  0.5049
    1SOL    MW4 2332   1.301   3.973   1.251  0.4793  0.1960  0.0298
    1SOL     OW 2333   1.323   4.235   1.154 -0.1850 -0.4179  0.2173
    1SOL    HW2 2334   1.255   4.291   1.191  0.3169 -0.3295  1.0055
    1SOL    HW3 2335   1.307   4.238   1.060 -1.0716 -0.1346  0.3679
    1SOL    MW4 2336   1.312   4.242   1.146 -0.2358 -0.3695  0.3413
    1SOL     OW 2337   1.554   4.406   1.209 -0.2377 -0.3669 -0.6100
    1SOL    HW2 2338   1.585   4.395   1.299 -1.4661  1.2668  0.0287
    1SOL    HW3 2339   1.482   4.344   1.201 -0.2200 -0.4128 -0.4224
    1SOL    MW4 2340   1.548   4.396   1.220 -0.3973 -0.1574 -0.5009
    1SOL     OW 2341   2.017   4.632   1.112  0.3285 -0.6744  0.1592
    1SOL    HW2 2342   2.021   4.540   1.137 -1.0589 -0.5474  0.8561
    1SOL    HW3 2343   2.023   4.630   1.016  1.1684 -1.4257  0.2176
    1SOL    MW4 2344   2.019   4.619   1.102  0.2563 -0.7567  0.2589
    1SOL     OW 2345   1.798   0.099   1.211  0.1032 -0.8063  0.1354
    1SOL    HW2 2346   1.811   0.190   1.183 -1.6395 -0.6386 -0.1618
    1SOL    HW3 2347   1.876   0.053   1.181  0.6220  0.4304 -0.4280
    1SOL    MW4 2348   1.810   0.105   1.203 -0.0582 -0.6210  0.0218
    1SOL     OW 2349   1.836   0.360   1.132  0.0229  0.0029 -0.1856
    1SOL    HW2 2350   1.753   0.399   1.163 -0.3719 -1.1206  0.1721
    1SOL    HW3 2351   1.829   0.365   1.036 -1.0065 -1.2223 -0.1819
    1SOL    MW4 2352   1.824   0.366   1.123 -0.1650 -0.3070 -0.1379
    1SOL     OW 2353   2.083   0.792   1.084  0.1072  0.0904  0.6842
    1SOL    HW2 2354   2.154   0.833   1.133  0.9383 -0.1783 -0.2749
    1SOL    HW3 2355   2.069   0.708   1.128  0.9114 -0.1880  0.4156
    1SOL    MW4 2356   2.090   0.786   1.096  0.3231  0.0182  0.5221
    1SOL     OW 2357   2.031   0.775   0.816 -0.1939 -0.6627 -0.3689
    1SOL    HW2 2358   2.096   0.819   0.761 -0.5366  0.4218  0.0928
    1SOL    HW3 2359   2.064   0.784   0.905 -1.7614  1.2797  0.0334
    1SOL    MW4 2360   2.044   0.782   0.820 -0.4458 -0.2633 -0.2549
    1SOL     OW 2361   1.817   0.856   1.166 -0.3331  0.1338 -0.0529
    1SOL    HW2 2362   1.812   0.844   1.261 -1.2255  1.3806  0.0750
    1SOL    HW3 2363   1.903   0.821   1.142 -0.1636 -0.3435  1.1890
    1SOL    MW4 2364   1.828   0.850   1.175 -0.4286  0.2353  0.1279
    1SOL     OW 2365   1.765   1.120   1.085  0.1051  0.8817 -0.4289
    1SOL    HW2 2366   1.770   1.027   1.105 -1.1658  1.1511  1.2988
    1SOL    HW3 2367   1.762   1.125   0.990 -1.5982 -0.9424 -0.5009
    1SOL    MW4 2368   1.765   1.108   1.075 -0.2873  0.6765 -0.2104
    1SOL     OW 2369   1.990   1.257   1.218 -0.1488 -0.0417 -0.4026
    1SOL    HW2 2370   2.065   1.231   1.164  0.3401  2.0227 -0.7505
    1SOL    HW3 2371   1.916   1.209   1.180  0.2318  1.1512 -2.7539
    1SOL    MW4 2372   1.990   1.247   1.206 -0.0342  0.3879 -0.7585
    1SOL     OW 2373   1.981   1.532   1.149 -0.0814 -0.0412 -0.1097
    1SOL    HW2 2374   1.982   1.440   1.176 -1.0613  0.1058  0.4374
    1SOL    HW3 2375   1.974   1.528   1.053  0.9925 -0.5407 -0.1719
    1SOL    MW4 2376   1.980   1.520   1.140 -0.0689 -0.0876 -0.0459
    1SOL     OW 2377   1.767   1.672   1.254  0.2692 -0.5846 -0.1014
    1SOL    HW2 2378   1.769   1.754   1.204 -1.2271  0.4280  1.4600
    1SOL    HW3 2379   1.842   1.623   1.220 -0.0791  0.4962 -2.5952
    1SOL    MW4 2380   1.777   1.677   1.243  0.0257 -0.3084 -0.2244
    1SOL     OW 2381   1.790   1.902   1.110  0.2577 -0.6630 -0.0007
    1SOL    HW2 2382   1.722   1.958   1.146 -0.5816 -0.8726 -1.2365
    1SOL    HW3 2383   1.781   1.910   1.015  0.4897 -2.4312 -0.1977
    1SOL    MW4 2384   1.780   1.910   1.102  0.1775 -0.9240 -0.1898
    1SOL     OW 2385   2.010   2.025   1.216 -0.4958  0.8725  0.1272
    1SOL    HW2 2386   1.999   2.020   1.311 -0.2764 -1.9334  0.0717
    1SOL    HW3 2387   1.933   1.979   1.181  0.8806 -0.7227 -0.9153
    1SOL    MW4 2388   1.998   2.018   1.224 -0.2851  0.2918 -0.0178
    1SOL     OW 2389   2.021   2.289   1.139 -0.6079  0.0539 -0.0630
    1SOL    HW2 2390   2.107   2.322   1.164 -0.6335  0.9780 -1.1534
    1SOL    HW3 2391   2.021   2.198   1.168  0.5029  0.2175  0.4931
    1SOL    MW4 2392   2.032   2.281   1.146 -0.4649  0.1976 -0.1334
    1SOL     OW 2393   1.826   2.441   1.255 -0.5467  0.1420 -0.2946
    1SOL    HW2 2394   1.893   2.382   1.221 -1.1894 -0.4067 -0.6421
    1SOL    HW3 2395   1.743   2.402   1.225 -1.0738  0.2657  0.9497
    1SOL    MW4 2396   1.824   2.428   1.247 -0.7011  0.0858 -0.1762
    1SOL     OW 2397   1.801   2.693   1.146 -0.6993 -0.1821  0.0990
    1SOL    HW2 2398   1.804   2.603   1.181 -0.6165  0.0245  0.6338
    1SOL    HW3 2399   1.797   2.682   1.051 -1.2682 -0.7670  0.1863
    1SOL    MW4 2400   1.801   2.679   1.138 -0.7634 -0.2320  0.1810
    1SOL     OW 2401   2.050   2.809   1.234  0.3040 -0.2049 -0.3580
    1SOL    HW2 2402   2.025   2.902   1.237  1.0406  0.0563 -1.9182
    1SOL    HW3 2403   1.969   2.764   1.210  0.4324  0.2700 -1.7545
    1SOL    MW4 2404   2.036   2.815   1.231  0.4182 -0.1078 -0.7480
    1SOL     OW 2405   2.017   3.096   1.206  0.0279 -0.0549 -0.0882
    1SOL    HW2 2406   1.924   3.119   1.214  0.4650  1.0845  2.1021
    1SOL    HW3 2407   2.030   3.084   1.112 -1.8813  1.7403 -0.6377
    1SOL    MW4 2408   2.006   3.098   1.195 -0.1664  0.3324  0.1283
    1SOL     OW 2409   1.750   3.181   1.210  0.2125 -0.6736  0.4537
    1SOL    HW2 2410   1.742   3.185   1.305  1.0843 -0.8485  0.5411
    1SOL    HW3 2411   1.749   3.272   1.181 -1.5542 -0.6797  0.4951
    1SOL    MW4 2412   1.749   3.193   1.218  0.0945 -0.6976  0.4708
    1SOL     OW 2413   1.763   3.463   1.090  0.0604 -0.7323  0.3358
    1SOL    HW2 2414   1.844   3.506   1.119  0.3194  0.9547 -2.6805
    1SOL    HW3 2415   1.693   3.513   1.130  0.4425  0.8541 -0.9054
    1SOL    MW4 2416   1.765   3.475   1.099  0.1450 -0.3006 -0.2258
    1SOL     OW 2417   2.013   3.551   1.197  0.0517  0.1184  0.4155
    1SOL    HW2 2418   2.002   3.558   1.292 -0.6051  1.6457  0.2422
    1SOL    HW3 2419   2.108   3.541   1.185  0.3012  1.4355  1.1632
    1SOL    MW4 2420   2.024   3.551   1.208 -0.0019  0.4935  0.4914
    1SOL     OW 2421   2.027   3.846   1.128 -0.3826  0.2421  0.1880
    1SOL    HW2 2422   1.947   3.894   1.149 -1.4599 -0.0609 -2.9115
    1SOL    HW3 2423   2.011   3.757   1.161 -1.4345  0.1207 -0.6340
    1SOL    MW4 2424   2.014   3.840   1.135 -0.6635  0.1862 -0.3294
    1SOL     OW 2425   1.788   4.024   1.193 -0.3120  0.1038 -0.1778
    1SOL    HW2 2426   1.807   4.000   1.284 -0.7996 -0.1560 -0.1429
    1SOL    HW3 2427   1.702   3.986   1.176 -0.6818  1.0332 -0.4174
    1SOL    MW4 2428   1.779   4.016   1.203 -0.4250  0.1917 -0.2047
    1SOL     OW 2429   1.793   4.287   1.104  0.2742  0.1756  0.5027
    1SOL    HW2 2430   1.781   4.204   1.150  1.2833  0.0641  0.5764
    1SOL    HW3 2431   1.714   4.337   1.124 -0.2914 -0.7245  0.5383
    1SOL    MW4 2432   1.781   4.283   1.113  0.3326  0.0415  0.5170
    1SOL     OW 2433   2.037   4.378   1.209  0.3540 -0.3159 -0.5029
    1SOL    HW2 2434   2.023   4.381   1.303 -0.8849  0.4212 -0.6962
    1SOL    HW3 2435   1.970   4.317   1.177  1.3094 -1.2148 -0.8189
    1SOL    MW4 2436   2.026   4.370   1.217  0.3164 -0.3371 -0.5701
    1SOL     OW 2437   2.475   4.642   1.143 -0.3683  0.4771  0.1783
    1SOL    HW2 2438   2.548   4.700   1.161 -0.1557  0.0044  0.8722
    1SOL    HW3 2439   2.397   4.695   1.162 -0.2030  0.8301 -0.1175
    1SOL    MW4 2440   2.474   4.657   1.148 -0.3188  0.4616  0.2308
    1SOL     OW 2441   2.218   0.106   1.264 -0.1841  0.0273  0.0265
    1SOL    HW2 2442   2.222   0.191   1.222  0.0392 -0.9111 -1.8830
    1SOL    HW3 2443   2.159   0.055   1.209  0.8182 -1.5000  0.3396
    1SOL    MW4 2444   2.210   0.110   1.251 -0.0222 -0.2980 -0.1842
    1SOL     OW 2445   2.017   0.557   1.231  0.0480  0.0747 -0.0599
    1SOL    HW2 2446   1.992   0.550   1.323  0.7659 -1.0992  0.0501
    1SOL    HW3 2447   1.968   0.488   1.187 -0.1074  0.4763 -0.5293
    1SOL    MW4 2448   2.007   0.547   1.238  0.1223 -0.0272 -0.1073
    1SOL     OW 2449   2.458   0.523   1.232 -0.0422 -0.4134  0.2152
    1SOL    HW2 2450   2.457   0.525   1.328 -1.8482  0.7621  0.1897
    1SOL    HW3 2451   2.376   0.480   1.208  0.4435 -0.7911 -0.8069
    1SOL    MW4 2452   2.448   0.517   1.242 -0.2162 -0.3081  0.0770
    1SOL     OW 2453   2.481   0.790   1.129  0.4380  0.3219 -0.8307
    1SOL    HW2 2454   2.463   0.700   1.156  0.5276  0.2062 -1.1503
    1SOL    HW3 2455   2.480   0.787   1.033 -0.4352  0.8422 -0.8413
    1SOL    MW4 2456   2.479   0.778   1.120  0.3345  0.3753 -0.8744
    1SOL     OW 2457   2.267   0.911   1.240  0.1712 -0.9061 -0.1730
    1SOL    HW2 2458   2.283   0.903   1.334  0.9366  1.0070 -0.1247
    1SOL    HW3 2459   2.347   0.875   1.199  0.9493  0.6303 -0.0402
    1SOL    MW4 2460   2.280   0.905   1.247  0.3748 -0.4510 -0.1491
    1SOL     OW 2461   2.240   1.152   1.093 -0.0517 -0.0507 -0.0666
    1SOL    HW2 2462   2.309   1.202   1.136  0.4340 -0.1417 -0.7479
    1SOL    HW3 2463   2.227   1.075   1.150 -0.6296  0.7055  0.8482
    1SOL    MW4 2464   2.247   1.148   1.106 -0.0637  0.0371 -0.0359
    1SOL     OW 2465   2.438   1.299   1.227 -0.0591 -0.0513  0.0234
    1SOL    HW2 2466   2.518   1.261   1.192  0.6553  0.5800  0.9609
    1SOL    HW3 2467   2.438   1.389   1.195 -2.1678 -1.0101 -2.8965
    1SOL    MW4 2468   2.448   1.306   1.218 -0.2429 -0.0945 -0.2381
    1SOL     OW 2469   2.491   1.556   1.125 -0.0631  0.5930 -0.0245
    1SOL    HW2 2470   2.405   1.590   1.147 -1.6686 -3.3156  0.2493
    1SOL    HW3 2471   2.501   1.572   1.031 -2.5204 -1.7048 -0.7314
    1SOL    MW4 2472   2.481   1.562   1.115 -0.5991 -0.2258 -0.0815
    1SOL     OW 2473   2.245   1.652   1.181  0.4208  0.5585 -0.2422
    1SOL    HW2 2474   2.250   1.747   1.168  0.4739  0.4544 -1.0220
    1SOL    HW3 2475   2.152   1.631   1.166  0.2833  0.5760  0.5715
    1SOL    MW4 2476   2.233   1.662   1.177  0.4094  0.5471 -0.2378
    1SOL     OW 2477   2.264   1.918   1.109 -0.4703 -0.1174  0.1855
    1SOL    HW2 2478   2.176   1.949   1.132 -0.0123  0.5632  1.0828
    1SOL    HW3 2479   2.267   1.923   1.014 -1.4376 -0.2370  0.1451
    1SOL    MW4 2480   2.253   1.923   1.100 -0.5372 -0.0434  0.2985
    1SOL     OW 2481   2.478   2.077   1.186 -0.2193  0.1404 -0.0957
    1SOL    HW2 2482   2.547   2.013   1.170 -1.4722 -1.4910  0.8440
    1SOL    HW3 2483   2.397   2.029   1.171 -1.1860  1.8066 -0.3996
    1SOL    MW4 2484   2.476   2.062   1.182 -0.5121  0.1447 -0.0118
    1SOL     OW 2485   2.484   2.334   1.082 -0.1458  0.2177  0.2055
    1SOL    HW2 2486   2.494   2.252   1.130 -0.1737  0.2778  0.3146
    1SOL    HW3 2487   2.473   2.308   0.991  1.1789  0.1455  0.0531
    1SOL    MW4 2488   2.484   2.320   1.076  0.0253  0.2160  0.1997
    1SOL     OW 2489   2.255   2.411   1.212 -0.5180 -0.2434 -0.1845
    1SOL    HW2 2490   2.275   2.419   1.306 -0.3635 -0.0770 -0.2296
    1SOL    HW3 2491   2.338   2.385   1.173 -0.7183 -0.8495 -0.2045
    1SOL    MW4 2492   2.269   2.409   1.219 -0.5236 -0.3014 -0.1931
    1SOL     OW 2493   2.285   2.677   1.145  0.0601 -0.3189 -0.1458
    1SOL    HW2 2494   2.279   2.585   1.170  1.1391 -0.1384  0.8349
    1SOL    HW3 2495   2.208   2.718   1.187  1.5204 -0.1364  2.4503
    1SOL    MW4 2496   2.274   2.670   1.154  0.3953 -0.2708  0.3262
    1SOL     OW 2497   2.518   2.836   1.248  0.0400 -0.2843  0.2032
    1SOL    HW2 2498   2.506   2.871   1.337 -0.7942  0.5341 -0.2333
    1SOL    HW3 2499   2.444   2.778   1.235 -0.9491  1.1578 -0.7190
    1SOL    MW4 2500   2.507   2.833   1.258 -0.2005  0.0143  0.0238
    1SOL     OW 2501   2.451   3.075   1.116 -0.5455  0.0459 -0.2746
    1SOL    HW2 2502   2.398   3.127   1.176  0.0928  0.1167  0.2293
    1SOL    HW3 2503   2.461   2.990   1.160  0.7882  0.4419  0.1992
    1SOL    MW4 2504   2.445   3.071   1.130 -0.2856  0.1073 -0.1457
    1SOL     OW 2505   2.257   3.211   1.266 -0.5049  0.2079  0.3131
    1SOL    HW2 2506   2.265   3.299   1.230 -0.5268 -0.4836 -1.4265
    1SOL    HW3 2507   2.163   3.191   1.260 -0.3896 -0.2293 -0.0073
    1SOL    MW4 2508   2.245   3.220   1.260 -0.4923  0.0589  0.0412
    1SOL     OW 2509   2.277   3.471   1.148 -0.0490  0.4689  0.3919
    1SOL    HW2 2510   2.360   3.515   1.164 -0.1776  1.1445 -0.7298
    1SOL    HW3 2511   2.269   3.468   1.053 -1.5327  0.8622  0.4859
    1SOL    MW4 2512   2.287   3.477   1.138 -0.2615  0.6099  0.2562
    1SOL     OW 2513   2.519   3.588   1.241  0.3317  0.2400  0.0447
    1SOL    HW2 2514   2.488   3.615   1.328 -0.4660 -1.4794  0.3093
    1SOL    HW3 2515   2.543   3.670   1.198 -2.9558  1.4587  0.4475
    1SOL    MW4 2516   2.518   3.603   1.247 -0.2074  0.1740  0.1328
    1SOL     OW 2517   2.497   3.851   1.127  0.3501  0.1336 -0.1563
    1SOL    HW2 2518   2.420   3.880   1.175  0.3865 -0.6888  0.4094
    1SOL    HW3 2519   2.465   3.832   1.039 -0.0573  0.0032  0.0170
    1SOL    MW4 2520   2.483   3.852   1.122  0.3014  0.0079 -0.0588
    1SOL     OW 2521   2.257   3.971   1.233  0.5263  0.8033  0.2546
    1SOL    HW2 2522   2.281   4.050   1.184 -1.7672  0.6452 -1.1971
    1SOL    HW3 2523   2.182   3.936   1.185  0.9390 -1.7462  1.4398
    1SOL    MW4 2524   2.250   3.977   1.220  0.2782  0.4461  0.2195
    1SOL     OW 2525   2.269   4.247   1.141  0.2928  0.0869  0.1129
    1SOL    HW2 2526   2.193   4.298   1.169  0.2136 -0.8894  1.7575
    1SOL    HW3 2527   2.274   4.259   1.046 -2.2572 -0.2982 -0.0834
    1SOL    MW4 2528   2.260   4.255   1.132 -0.0544 -0.0925  0.3040
    1SOL     OW 2529   2.487   4.393   1.246 -0.0385  0.5611  0.4496
    1SOL    HW2 2530   2.412   4.338   1.224  1.4431 -1.3011 -0.1070
    1SOL    HW3 2531   2.472   4.475   1.198 -0.7431 -0.5496 -1.2831
    1SOL    MW4 2532   2.475   4.397   1.237  0.0641  0.1688  0.1476
    1SOL     OW 2533   2.911   4.612   1.164 -0.2102  0.3539 -0.1278
    1SOL    HW2 2534   2.899   4.521   1.193 -2.5035  0.9264  0.7586
    1SOL    HW3 2535   2.929   4.604   1.070 -0.9352 -0.9763 -0.1673
    1SOL    MW4 2536   2.912   4.599   1.155 -0.6084  0.2537 -0.0161
    1SOL     OW 2537   2.686   0.129   1.224 -0.6387  0.2389  0.5347
    1SOL    HW2 2538   2.660   0.105   1.312 -0.3555  0.8723  0.7959
    1SOL    HW3 2539   2.770   0.085   1.211 -0.6324  0.2272  0.6150
    1SOL    MW4 2540   2.694   0.120   1.234 -0.6006  0.3209  0.5797
    1SOL     OW 2541   2.685   0.384   1.100  0.3484 -0.0597 -0.3358
    1SOL    HW2 2542   2.690   0.303   1.150 -1.0508 -0.0244 -0.1328
    1SOL    HW3 2543   2.603   0.425   1.128  1.1635  1.5576 -0.2426
    1SOL    MW4 2544   2.675   0.379   1.110  0.2713  0.1583 -0.2967
    1SOL     OW 2545   2.904   0.524   1.207 -0.2724 -0.2794 -0.0902
    1SOL    HW2 2546   2.887   0.615   1.184 -0.3288  0.1337  1.4991
    1SOL    HW3 2547   2.831   0.475   1.169 -2.4656  0.8643  2.5003
    1SOL    MW4 2548   2.892   0.530   1.199 -0.5693 -0.0740  0.4612
    1SOL     OW 2549   2.899   0.768   1.112 -0.0313  0.3381  0.6156
    1SOL    HW2 2550   2.982   0.802   1.145 -0.0855  0.4635  0.6221
    1SOL    HW3 2551   2.833   0.813   1.164 -0.1103  0.3987  0.4619
    1SOL    MW4 2552   2.901   0.778   1.123 -0.0491  0.3626  0.5962
    1SOL     OW 2553   2.692   0.915   1.240 -0.0989 -0.2409 -0.7385
    1SOL    HW2 2554   2.686   1.006   1.211 -1.6319  0.5430  1.9031
    1SOL    HW3 2555   2.615   0.872   1.201 -0.7679  0.2138  0.0646
    1SOL    MW4 2556   2.681   0.921   1.231 -0.3893 -0.0775 -0.2840
    1SOL     OW 2557   2.670   1.174   1.151 -0.4038  0.3285  0.4055
    1SOL    HW2 2558   2.685   1.156   1.058 -1.1832 -1.6721  0.6462
    1SOL    HW3 2559   2.739   1.236   1.175  1.1985 -0.8956 -0.9342
    1SOL    MW4 2560   2.681   1.180   1.142 -0.2949 -0.0969  0.2605
    1SOL     OW 2561   2.894   1.328   1.199  0.0221 -0.2169  0.0966
    1SOL    HW2 2562   2.912   1.344   1.291  0.3647 -0.8748  0.1486
    1SOL    HW3 2563   2.906   1.414   1.157  1.2878 -0.2024  0.4518
    1SOL    MW4 2564   2.898   1.342   1.205  0.2344 -0.3018  0.1503
    1SOL     OW 2565   2.920   1.570   1.059  0.3503 -0.1513 -0.3207
    1SOL    HW2 2566   3.006   1.601   1.088  0.5558  0.3020 -1.3548
    1SOL    HW3 2567   2.932   1.553   0.965  0.0765 -2.8574  0.1111
    1SOL    MW4 2568   2.933   1.572   1.050  0.3412 -0.4486 -0.4001
    1SOL     OW 2569   2.738   1.668   1.260 -0.3762  0.1591  0.3704
    1SOL    HW2 2570   2.796   1.632   1.193  0.4185  0.7406  0.7400
    1SOL    HW3 2571   2.654   1.626   1.244 -0.9109  2.2327 -2.6429
    1SOL    MW4 2572   2.735   1.658   1.249 -0.3419  0.5095  0.0216
    1SOL     OW 2573   2.682   1.913   1.120 -0.1774 -0.2107  0.2529
    1SOL    HW2 2574   2.765   1.958   1.133  0.6875 -1.5904 -0.4540
    1SOL    HW3 2575   2.698   1.823   1.148 -1.8446 -0.1549  1.4961
    1SOL    MW4 2576   2.695   1.907   1.126 -0.2830 -0.3854  0.3237
    1SOL     OW 2577   2.919   2.042   1.222 -0.1139 -0.1645  0.5152
    1SOL    HW2 2578   2.920   2.058   1.317  0.2672  1.2522  0.2849
    1SOL    HW3 2579   2.939   2.127   1.184 -0.7058 -0.6392 -0.8579
    1SOL    MW4 2580   2.922   2.055   1.230 -0.1419 -0.0405  0.3036
    1SOL     OW 2581   2.949   2.285   1.070  0.6484 -0.3790  0.2724
    1SOL    HW2 2582   3.015   2.344   1.106  0.3769 -0.1822  0.4467
    1SOL    HW3 2583   2.866   2.315   1.107  0.1320  0.8591 -1.8154
    1SOL    MW4 2584   2.947   2.297   1.080  0.5445 -0.1895  0.0199
    1SOL     OW 2585   2.734   2.411   1.176 -0.1787 -0.1743 -0.7081
    1SOL    HW2 2586   2.721   2.421   1.270 -1.0617 -0.5043 -0.7905
    1SOL    HW3 2587   2.649   2.384   1.143  0.2990 -0.7330 -1.5047
    1SOL    MW4 2588   2.721   2.408   1.184 -0.2322 -0.2913 -0.8239
    1SOL     OW 2589   2.735   2.695   1.124  0.3208 -0.0035  0.5912
    1SOL    HW2 2590   2.737   2.603   1.149 -1.1505 -0.5598 -1.1853
    1SOL    HW3 2591   2.662   2.732   1.174 -0.3123 -0.2628 -0.1343
    1SOL    MW4 2592   2.725   2.688   1.134  0.0432 -0.1111  0.2609
    1SOL     OW 2593   2.964   2.858   1.174  0.0919  0.3377 -0.2667
    1SOL    HW2 2594   2.958   2.873   1.268  1.2419 -0.5702 -0.0406
    1SOL    HW3 2595   2.892   2.798   1.155  0.2962 -0.0455  0.1587
    1SOL    MW4 2596   2.954   2.852   1.184  0.2704  0.1674 -0.1807
    1SOL     OW 2597   2.920   3.100   1.059 -0.4699  0.4081 -0.0386
    1SOL    HW2 2598   2.956   3.014   1.078  1.3769  1.3236  0.7171
    1SOL    HW3 2599   2.919   3.105   0.963 -0.6576 -0.4753 -0.0870
    1SOL    MW4 2600   2.924   3.090   1.049 -0.2511  0.4125  0.0547
    1SOL     OW 2601   2.694   3.189   1.199  0.1770 -0.0153 -0.4828
    1SOL    HW2 2602   2.771   3.154   1.153  0.3137 -1.0099  0.4730
    1SOL    HW3 2603   2.624   3.127   1.177  0.0485 -0.0296 -0.0387
    1SOL    MW4 2604   2.695   3.176   1.190  0.1779 -0.1485 -0.2981
    1SOL     OW 2605   2.717   3.435   1.119  0.0760 -0.0343 -0.1057
    1SOL    HW2 2606   2.705   3.344   1.147  0.7450 -0.0336  0.2073
    1SOL    HW3 2607   2.649   3.484   1.166  0.2721 -0.2467  0.3981
    1SOL    MW4 2608   2.706   3.429   1.129  0.1903 -0.0622  0.0020
    1SOL     OW 2609   2.919   3.609   1.219  0.1065  0.2156 -0.0057
    1SOL    HW2 2610   2.998   3.565   1.188  0.4306  0.1586  0.9101
    1SOL    HW3 2611   2.848   3.552   1.192  0.5624 -1.2126  1.7828
    1SOL    MW4 2612   2.920   3.596   1.211  0.2096  0.0198  0.3511
    1SOL     OW 2613   2.944   3.871   1.131 -0.0404  0.0882 -0.1270
    1SOL    HW2 2614   3.026   3.910   1.162  1.6680 -1.4188 -2.5310
    1SOL    HW3 2615   2.935   3.791   1.183  0.5486 -0.2407 -0.5214
    1SOL    MW4 2616   2.954   3.865   1.142  0.2630 -0.1540 -0.4961
    1SOL     OW 2617   2.726   4.025   1.217 -0.1760  0.0444 -0.4821
    1SOL    HW2 2618   2.807   3.977   1.199 -0.1542  0.2243 -0.8707
    1SOL    HW3 2619   2.657   3.966   1.187 -0.2285 -0.4959  0.7146
    1SOL    MW4 2620   2.728   4.011   1.210 -0.1800 -0.0029 -0.3754
    1SOL     OW 2621   2.667   4.267   1.084  0.0238 -0.2967 -0.0432
    1SOL    HW2 2622   2.685   4.183   1.127  0.8389 -1.0630 -1.8549
    1SOL    HW3 2623   2.605   4.311   1.143  1.7953 -0.9177  2.3655
    1SOL    MW4 2624   2.661   4.262   1.098  0.3648 -0.4797  0.0356
    1SOL     OW 2625   2.895   4.348   1.237  0.0257 -0.0032 -0.7434
    1SOL    HW2 2626   2.977   4.305   1.213  0.1458 -0.8676  1.1349
    1SOL    HW3 2627   2.832   4.315   1.173  0.2543 -2.5579  0.2756
    1SOL    MW4 2628   2.898   4.338   1.226  0.0718 -0.4544 -0.3611
    1SOL     OW 2629   3.343   0.026   1.172 -0.0071 -0.4171 -0.3459
    1SOL    HW2 2630   3.425   0.069   1.198  0.0101 -0.4115 -0.4073
    1SOL    HW3 2631   3.274   0.087   1.197  0.0160 -0.3643 -0.4129
    1SOL    MW4 2632   3.345   0.040   1.179 -0.0017 -0.4094 -0.3629
    1SOL     OW 2633   3.106   0.156   1.241 -0.3988 -0.2485 -0.4277
    1SOL    HW2 2634   3.103   0.166   1.336 -1.3046  1.1587 -0.5873
    1SOL    HW3 2635   3.052   0.078   1.223  0.3062 -0.9011  0.2467
    1SOL    MW4 2636   3.098   0.147   1.251 -0.4253 -0.1490 -0.3597
    1SOL     OW 2637   3.158   0.412   1.115  0.0184 -0.0392 -0.3172
    1SOL    HW2 2638   3.143   0.323   1.149 -0.5482  0.2848  0.3096
    1SOL    HW3 2639   3.083   0.462   1.148  0.2287  0.6215 -0.8462
    1SOL    MW4 2640   3.146   0.407   1.124 -0.0286  0.0907 -0.3042
    1SOL     OW 2641   3.383   0.472   1.235 -0.4275  0.1206  0.6899
    1SOL    HW2 2642   3.368   0.564   1.216  0.1474  0.1549  0.3892
    1SOL    HW3 2643   3.307   0.427   1.198  0.2444  0.2814 -0.9204
    1SOL    MW4 2644   3.371   0.478   1.227 -0.2632  0.1464  0.4377
    1SOL     OW 2645   3.368   0.736   1.157  0.2098  0.4126 -0.2041
    1SOL    HW2 2646   3.370   0.730   1.061  0.4764 -0.5622 -0.1363
    1SOL    HW3 2647   3.281   0.772   1.176 -0.8599 -1.8718 -0.6805
    1SOL    MW4 2648   3.357   0.740   1.147  0.1040 -0.0174 -0.2580
    1SOL     OW 2649   3.133   0.862   1.230 -0.1895 -0.0186  0.5585
    1SOL    HW2 2650   3.136   0.869   1.325  1.8328  1.0512  0.4489
    1SOL    HW3 2651   3.124   0.952   1.199 -0.3082 -0.3030 -0.2673
    1SOL    MW4 2652   3.133   0.875   1.238  0.0615  0.0851  0.4351
    1SOL     OW 2653   3.111   1.142   1.121  0.2541 -0.0555 -0.1641
    1SOL    HW2 2654   3.196   1.172   1.153 -0.2295  2.7879 -1.3516
    1SOL    HW3 2655   3.048   1.199   1.164 -0.8964 -0.7241 -0.9318
    1SOL    MW4 2656   3.114   1.154   1.131  0.0386  0.2315 -0.4220
    1SOL     OW 2657   3.384   1.226   1.208  0.1495  0.0930  0.1892
    1SOL    HW2 2658   3.392   1.233   1.303 -0.2153  0.7174  0.1739
    1SOL    HW3 2659   3.368   1.315   1.178  1.2332  0.0494 -0.5566
    1SOL    MW4 2660   3.383   1.239   1.216  0.2444  0.1695  0.0888
    1SOL     OW 2661   3.375   1.485   1.144  0.2218 -0.2635  0.0251
    1SOL    HW2 2662   3.457   1.525   1.173  0.3044 -1.4062  1.4058
    1SOL    HW3 2663   3.309   1.551   1.163  0.8853  0.9470 -1.7316
    1SOL    MW4 2664   3.377   1.499   1.150  0.3200 -0.2545 -0.0244
    1SOL     OW 2665   3.143   1.658   1.171 -0.1124 -0.1869  0.5770
    1SOL    HW2 2666   3.122   1.661   1.265 -2.1433  0.4948  0.1335
    1SOL    HW3 2667   3.142   1.749   1.143 -0.7197 -0.4667 -0.3424
    1SOL    MW4 2668   3.140   1.670   1.180 -0.4604 -0.1339  0.3971
    1SOL     OW 2669   3.128   1.930   1.088  0.0129  0.0571  0.0406
    1SOL    HW2 2670   3.211   1.943   1.133 -0.6249 -1.1644  1.6445
    1SOL    HW3 2671   3.062   1.962   1.150 -0.7362  0.7824 -1.1065
    1SOL    MW4 2672   3.130   1.936   1.102 -0.1702 -0.0083  0.1010
    1SOL     OW 2673   3.367   2.004   1.222  0.3241  0.4159  0.3702
    1SOL    HW2 2674   3.454   1.972   1.201 -0.0297  0.3415 -1.0492
    1SOL    HW3 2675   3.371   2.098   1.204  0.1097  0.4141  0.3099
    1SOL    MW4 2676   3.379   2.013   1.217  0.2489  0.4058  0.1751
    1SOL     OW 2677   3.370   2.270   1.125  0.2243  0.2250 -0.2935
    1SOL    HW2 2678   3.429   2.336   1.162  0.8129  1.1102 -2.7414
    1SOL    HW3 2679   3.282   2.307   1.135  0.2317 -0.1764  1.4598
    1SOL    MW4 2680   3.366   2.284   1.131  0.3030  0.2890 -0.3852
    1SOL     OW 2681   3.144   2.433   1.195 -0.9704 -0.3055  0.0080
    1SOL    HW2 2682   3.163   2.440   1.288 -1.1862 -0.7121  0.0819
    1SOL    HW3 2683   3.163   2.520   1.160  1.1379 -0.7158  0.0617
    1SOL    MW4 2684   3.149   2.445   1.202 -0.7207 -0.4134  0.0250
    1SOL     OW 2685   3.173   2.689   1.110  0.1402 -0.2637  0.1341
    1SOL    HW2 2686   3.101   2.748   1.131  0.7933  0.0037  1.6708
    1SOL    HW3 2687   3.183   2.696   1.015 -0.7260  0.9941  0.1263
    1SOL    MW4 2688   3.165   2.698   1.100  0.1118 -0.0625  0.3358
    1SOL     OW 2689   3.378   2.847   1.246 -0.0174 -0.4744  0.3007
    1SOL    HW2 2690   3.347   2.933   1.218  1.6067  0.2837  0.7728
    1SOL    HW3 2691   3.313   2.785   1.212 -2.2291  1.0849  1.5616
    1SOL    MW4 2692   3.365   2.850   1.238 -0.0947 -0.1688  0.5294
    1SOL     OW 2693   3.321   3.101   1.116 -0.6832  0.2744  0.0310
    1SOL    HW2 2694   3.389   3.163   1.142 -1.0558  0.6580  0.1062
    1SOL    HW3 2695   3.240   3.138   1.153 -1.0258  0.1559 -0.5966
    1SOL    MW4 2696   3.319   3.114   1.124 -0.7775  0.3095 -0.0420
    1SOL     OW 2697   3.103   3.248   1.225  0.0863  0.0787  0.0575
    1SOL    HW2 2698   3.113   3.234   1.319  0.7393 -0.5149 -0.0999
    1SOL    HW3 2699   3.028   3.194   1.200  0.2719 -0.2106  0.1310
    1SOL    MW4 2700   3.094   3.239   1.234  0.1967 -0.0377  0.0464
    1SOL     OW 2701   3.148   3.499   1.100 -0.3652  0.3027 -0.0076
    1SOL    HW2 2702   3.220   3.532   1.154 -0.7739  2.4507 -0.7411
    1SOL    HW3 2703   3.136   3.408   1.130  1.9285  0.2447  0.8371
    1SOL    MW4 2704   3.156   3.491   1.111 -0.1163  0.5784  0.0070
    1SOL     OW 2705   3.352   3.588   1.274 -0.0080  0.2179  0.0047
    1SOL    HW2 2706   3.356   3.605   1.368 -0.9374 -0.2500  0.1352
    1SOL    HW3 2707   3.437   3.547   1.253  0.0656  0.0106  0.7018
    1SOL    MW4 2708   3.364   3.585   1.283 -0.1206  0.1290  0.1140
    1SOL     OW 2709   3.391   3.819   1.129 -0.0615  0.1014 -0.5707
    1SOL    HW2 2710   3.393   3.734   1.173  2.1756 -0.5827 -1.9058
    1SOL    HW3 2711   3.318   3.866   1.170 -0.9525 -2.2352  0.5806
    1SOL    MW4 2712   3.382   3.814   1.140  0.1161 -0.2968 -0.5950
    1SOL     OW 2713   3.195   3.981   1.230 -0.5546  0.2888  0.0333
    1SOL    HW2 2714   3.185   3.991   1.324  0.2985 -0.1256  0.1713
    1SOL    HW3 2715   3.192   4.070   1.195 -1.9474  0.3733  0.3338
    1SOL    MW4 2716   3.193   3.994   1.238 -0.6258  0.2453  0.0912
    1SOL     OW 2717   3.137   4.236   1.118 -0.2570 -0.1757  0.7233
    1SOL    HW2 2718   3.221   4.279   1.130 -0.1712 -0.2776  0.5017
    1SOL    HW3 2719   3.119   4.244   1.024 -0.1267 -0.8213  0.6400
    1SOL    MW4 2720   3.146   4.242   1.107 -0.2284 -0.2742  0.6829
    1SOL     OW 2721   3.361   4.399   1.213 -0.4978 -0.3632 -0.0785
    1SOL    HW2 2722   3.440   4.369   1.169 -0.4126 -0.8148  0.3729
    1SOL    HW3 2723   3.353   4.491   1.189  0.2668 -0.2699  0.0224
    1SOL    MW4 2724   3.370   4.407   1.204 -0.3855 -0.4106 -0.0056
    1SOL     OW 2725   3.797   4.640   1.097 -0.2697 -0.0225  0.0595
    1SOL    HW2 2726   3.798   4.548   1.121 -0.3208  0.0298  0.2628
    1SOL    HW3 2727   3.791   4.640   1.001  0.3624 -0.2293  0.0182
    1SOL    MW4 2728   3.796   4.628   1.088 -0.1929 -0.0429  0.0808
    1SOL     OW 2729   3.593   0.130   1.226 -0.0395  0.1908 -0.1237
    1SOL    HW2 2730   3.595   0.214   1.181  2.4566  0.1839 -0.1065
    1SOL    HW3 2731   3.670   0.084   1.194 -0.3832 -1.3892  1.2203
    1SOL    MW4 2732   3.603   0.135   1.216  0.2446 -0.0186  0.0559
    1SOL     OW 2733   3.620   0.381   1.123  0.1921 -0.1639  0.0942
    1SOL    HW2 2734   3.689   0.434   1.162  0.6079 -0.4781 -0.2130
    1SOL    HW3 2735   3.539   0.419   1.156  0.5080  0.2960  0.3384
    1SOL    MW4 2736   3.618   0.393   1.132  0.2890 -0.1446  0.0859
    1SOL     OW 2737   3.823   0.517   1.230 -0.0619 -0.0737 -0.3821
    1SOL    HW2 2738   3.898   0.468   1.198  0.2419  1.0175 -1.3699
    1SOL    HW3 2739   3.823   0.598   1.178  0.0554  1.4349  1.8818
    1SOL    MW4 2740   3.833   0.521   1.219 -0.0064  0.2694 -0.2137
    1SOL     OW 2741   3.808   0.764   1.100  0.0922  0.0897  0.3542
    1SOL    HW2 2742   3.888   0.801   1.137  0.4812  0.1318 -0.5198
    1SOL    HW3 2743   3.737   0.808   1.147  0.5746 -0.6644  1.8460
    1SOL    MW4 2744   3.810   0.774   1.111  0.2072 -0.0042  0.4357
    1SOL     OW 2745   3.595   0.870   1.243  0.0311 -0.8290  0.1729
    1SOL    HW2 2746   3.588   0.958   1.206  0.1057 -0.2413  1.5278
    1SOL    HW3 2747   3.517   0.824   1.212  0.0754 -0.3388 -0.6743
    1SOL    MW4 2748   3.584   0.876   1.234  0.0470 -0.6868  0.2398
    1SOL     OW 2749   3.599   1.116   1.112 -0.7437 -0.0294  0.0070
    1SOL    HW2 2750   3.658   1.175   1.157  0.6591 -0.4489 -1.2266
    1SOL    HW3 2751   3.511   1.145   1.137 -0.0337  1.2219  1.0768
    1SOL    MW4 2752   3.595   1.127   1.121 -0.4652  0.0803 -0.0147
    1SOL     OW 2753   3.800   1.281   1.216  0.0783 -0.0623 -0.2232
    1SOL    HW2 2754   3.800   1.281   1.312 -0.7188  0.1651 -0.2177
    1SOL    HW3 2755   3.807   1.374   1.192  1.9305 -0.2383 -0.3973
    1SOL    MW4 2756   3.801   1.293   1.225  0.2177 -0.0556 -0.2456
    1SOL     OW 2757   3.852   1.548   1.128  0.2853  0.1777 -0.2722
    1SOL    HW2 2758   3.920   1.600   1.171  0.8708 -1.3744  0.7369
    1SOL    HW3 2759   3.865   1.563   1.034  0.7691  1.4194 -0.0120
    1SOL    MW4 2760   3.863   1.556   1.121  0.4265  0.1367 -0.1047
    1SOL     OW 2761   3.603   1.620   1.222  0.1775 -0.0964  0.3993
    1SOL    HW2 2762   3.595   1.708   1.185  0.2052 -0.6408 -0.9328
    1SOL    HW3 2763   3.686   1.587   1.189  0.4788 -0.3826  1.4300
    1SOL    MW4 2764   3.613   1.627   1.212  0.2210 -0.2060  0.3597
    1SOL     OW 2765   3.582   1.871   1.130 -0.0901 -0.1097  0.1687
    1SOL    HW2 2766   3.665   1.904   1.163  0.1819 -1.3541  0.7318
    1SOL    HW3 2767   3.583   1.896   1.037  1.0170 -0.3440  0.1071
    1SOL    MW4 2768   3.593   1.879   1.122  0.0923 -0.3047  0.2347
    1SOL     OW 2769   4.064   1.928   1.178 -0.1545 -0.4946  0.0440
    1SOL    HW2 2770   3.981   1.970   1.203 -0.3417 -1.0259  0.3171
    1SOL    HW3 2771   4.055   1.838   1.208 -0.0442 -0.9265 -1.2191
    1SOL    MW4 2772   4.052   1.922   1.185 -0.1645 -0.6217 -0.0867
    1SOL     OW 2773   3.797   2.027   1.227 -0.0571  0.0034  0.7415
    1SOL    HW2 2774   3.790   2.116   1.193 -0.1134  0.2327  1.3598
    1SOL    HW3 2775   3.811   2.038   1.321 -2.2101 -0.7012  1.1544
    1SOL    MW4 2776   3.798   2.040   1.235 -0.3488 -0.0591  0.8775
    1SOL     OW 2777   3.569   2.449   1.200  0.3658  0.1129  0.4137
    1SOL    HW2 2778   3.578   2.434   1.294  1.6630  0.3150  0.3348
    1SOL    HW3 2779   3.642   2.401   1.161  0.7593  1.3088 -0.3532
    1SOL    MW4 2780   3.580   2.441   1.207  0.5891  0.2973  0.3021
    1SOL     OW 2781   3.602   2.712   1.114 -0.3545 -0.2275 -0.1432
    1SOL    HW2 2782   3.593   2.619   1.135 -0.1258 -0.7284 -2.1238
    1SOL    HW3 2783   3.536   2.756   1.168 -0.9578 -1.6283  0.2615
    1SOL    MW4 2784   3.592   2.706   1.124 -0.4041 -0.4785 -0.3512
    1SOL     OW 2785   3.823   2.845   1.213 -0.6772 -0.1795 -0.0271
    1SOL    HW2 2786   3.831   2.799   1.297 -0.2212 -0.9547 -0.4915
    1SOL    HW3 2787   3.747   2.806   1.171 -0.2022 -0.6070 -0.4855
    1SOL    MW4 2788   3.814   2.834   1.219 -0.5543 -0.3383 -0.1489
    1SOL     OW 2789   3.782   3.109   1.167 -0.4970  0.2907 -0.0893
    1SOL    HW2 2790   3.788   3.024   1.211  0.3290  0.5910  0.3994
    1SOL    HW3 2791   3.787   3.089   1.074  0.3900 -0.1446  0.0475
    1SOL    MW4 2792   3.783   3.095   1.161 -0.2711  0.2730 -0.0067
    1SOL     OW 2793   3.549   3.236   1.214 -0.1930 -0.0859 -0.0685
    1SOL    HW2 2794   3.561   3.326   1.184 -0.5965 -0.3280 -0.9705
    1SOL    HW3 2795   3.629   3.191   1.189 -0.4523 -0.2434 -0.6126
    1SOL    MW4 2796   3.561   3.242   1.207 -0.2804 -0.1388 -0.2592
    1SOL     OW 2797   3.609   3.494   1.136 -0.2433 -0.3247 -0.3322
    1SOL    HW2 2798   3.692   3.534   1.164 -1.0710  0.6193  0.8207
    1SOL    HW3 2799   3.608   3.505   1.041  0.7218  0.1236 -0.2984
    1SOL    MW4 2800   3.620   3.501   1.127 -0.2251 -0.1411 -0.1757
    1SOL     OW 2801   3.856   3.616   1.213 -0.0276 -0.0309  0.3238
    1SOL    HW2 2802   3.843   3.610   1.308  1.9615  1.0647  0.7105
    1SOL    HW3 2803   3.860   3.710   1.195 -2.1539 -0.1961 -1.1342
    1SOL    MW4 2804   3.855   3.628   1.223 -0.0458  0.0918  0.1825
    1SOL     OW 2805   3.809   3.882   1.130 -0.1599 -0.6681  0.5789
    1SOL    HW2 2806   3.729   3.930   1.154  0.4697  0.7836 -0.1895
    1SOL    HW3 2807   3.804   3.874   1.035  0.5051 -0.7823  0.5541
    1SOL    MW4 2808   3.798   3.887   1.121  0.0110 -0.4914  0.4742
    1SOL     OW 2809   3.574   4.015   1.176 -0.0730 -0.6485  0.3790
    1SOL    HW2 2810   3.573   4.018   1.272 -0.5491 -0.0459  0.3599
    1SOL    HW3 2811   3.529   3.934   1.154 -0.2324 -0.6353  0.6582
    1SOL    MW4 2812   3.568   4.005   1.186 -0.1566 -0.5670  0.4134
    1SOL     OW 2813   3.569   4.277   1.089  0.2706  0.4256  0.1841
    1SOL    HW2 2814   3.567   4.186   1.118  1.4676  0.6664  1.1066
    1SOL    HW3 2815   3.581   4.272   0.994 -2.6509 -0.3769 -0.2054
    1SOL    MW4 2816   3.570   4.264   1.080  0.0429  0.3519  0.2544
    1SOL     OW 2817   3.785   4.384   1.253  0.4158 -0.3853  0.2003
    1SOL    HW2 2818   3.781   4.387   1.348 -0.7719  1.2176  0.1151
    1SOL    HW3 2819   3.703   4.341   1.227 -0.9293  2.3167 -0.2099
    1SOL    MW4 2820   3.774   4.379   1.262  0.0815  0.1826  0.1349
    1SOL     OW 2821   4.275   4.638   1.121 -0.1134 -0.2527  0.1988
    1SOL    HW2 2822   4.285   4.548   1.151  0.2123 -0.2499  0.0981
    1SOL    HW3 2823   4.186   4.662   1.147 -0.6191 -0.9896 -0.8200
    1SOL    MW4 2824   4.264   4.629   1.128 -0.1373 -0.3495  0.0513
    1SOL     OW 2825   4.029   0.075   1.217 -0.2500  0.4528 -0.0260
    1SOL    HW2 2826   4.011   0.080   1.311  0.1309 -1.7124  0.1777
    1SOL    HW3 2827   3.945   0.053   1.177 -0.0630 -0.2526 -0.0297
    1SOL    MW4 2828   4.016   0.073   1.224 -0.1750  0.0741  0.0005
    1SOL     OW 2829   4.059   0.351   1.129  0.2844 -0.5250  0.1827
    1SOL    HW2 2830   4.057   0.259   1.157 -2.8387 -0.5362  0.1152
    1SOL    HW3 2831   4.070   0.346   1.034 -1.0622 -0.8961  0.0336
    1SOL    MW4 2832   4.061   0.338   1.120 -0.3052 -0.5754  0.1543
    1SOL     OW 2833   4.273   0.502   1.254  0.0517 -0.3305 -0.3713
    1SOL    HW2 2834   4.263   0.521   1.347 -0.5941  0.0652 -0.5156
    1SOL    HW3 2835   4.188   0.465   1.228 -0.8862  2.4532 -1.4784
    1SOL    MW4 2836   4.260   0.499   1.263 -0.1574  0.0889 -0.5362
    1SOL     OW 2837   4.271   0.731   1.125  0.3478 -0.1224  0.1503
    1SOL    HW2 2838   4.275   0.644   1.164  0.1649 -0.3301 -0.2816
    1SOL    HW3 2839   4.332   0.784   1.176  0.5712 -0.5435  0.3205
    1SOL    MW4 2840   4.280   0.726   1.137  0.3533 -0.2054  0.1158
    1SOL     OW 2841   4.052   0.888   1.188 -0.0424  0.3140  0.3709
    1SOL    HW2 2842   4.045   0.889   1.284 -0.7668 -0.2475  0.3283
    1SOL    HW3 2843   4.123   0.827   1.170  0.5552  0.9489  0.5760
    1SOL    MW4 2844   4.060   0.880   1.198 -0.0587  0.3237  0.3923
    1SOL     OW 2845   4.022   1.152   1.088  0.0682 -0.2455  0.1024
    1SOL    HW2 2846   4.033   1.058   1.099  0.8127  0.1080  2.6485
    1SOL    HW3 2847   3.944   1.173   1.139  1.5181  0.9278  1.8930
    1SOL    MW4 2848   4.013   1.143   1.096  0.3576 -0.0440  0.6746
    1SOL     OW 2849   4.250   1.282   1.221  0.1271 -0.1150  0.2714
    1SOL    HW2 2850   4.243   1.253   1.312 -0.6206 -0.4534  0.1124
    1SOL    HW3 2851   4.181   1.234   1.175  0.2764  0.3097 -0.4082
    1SOL    MW4 2852   4.240   1.272   1.227  0.0482 -0.1035  0.1608
    1SOL     OW 2853   4.258   1.554   1.193 -0.0997  0.0833 -0.4545
    1SOL    HW2 2854   4.254   1.462   1.217 -0.9118  0.1833 -0.1775
    1SOL    HW3 2855   4.350   1.577   1.200  0.1861 -0.8455 -1.0389
    1SOL    MW4 2856   4.270   1.545   1.197 -0.1688 -0.0260 -0.4952
    1SOL     OW 2857   4.034   1.686   1.287 -0.5546  0.6791 -0.0917
    1SOL    HW2 2858   4.026   1.672   1.382 -1.5457  0.5908 -0.1774
    1SOL    HW3 2859   4.115   1.642   1.263 -0.1343  0.9722  0.7725
    1SOL    MW4 2860   4.044   1.679   1.296 -0.6299  0.7061  0.0111
    1SOL     OW 2861   2.894   2.075   0.437 -0.8303 -0.6265 -0.1236
    1SOL    HW2 2862   2.886   2.168   0.416 -1.4895 -0.8540 -0.9188
    1SOL    HW3 2863   2.902   2.072   0.533 -0.5270  0.2616 -0.1211
    1SOL    MW4 2864   2.894   2.087   0.447 -0.8769 -0.5393 -0.2282
    1SOL     OW 2865   4.289   2.092   1.264 -0.1052 -0.3875  0.2123
    1SOL    HW2 2866   4.258   2.174   1.226  1.0680  0.5065  1.1527
    1SOL    HW3 2867   4.218   2.030   1.247 -0.5794  0.5501 -1.3894
    1SOL    MW4 2868   4.276   2.094   1.257 -0.0124 -0.1462  0.1251
    1SOL     OW 2869   4.185   2.333   1.146 -0.1192  0.6942  0.2977
    1SOL    HW2 2870   4.108   2.383   1.172 -0.8849 -0.6652  0.7244
    1SOL    HW3 2871   4.178   2.327   1.051 -1.0844 -0.2327  0.4083
    1SOL    MW4 2872   4.174   2.339   1.137 -0.3476  0.3927  0.3686
    1SOL     OW 2873   3.947   2.477   1.246 -0.5717  0.3259  0.0480
    1SOL    HW2 2874   4.008   2.473   1.320 -0.4857 -0.6807 -0.0700
    1SOL    HW3 2875   3.961   2.564   1.208  1.8469 -0.4214 -0.8562
    1SOL    MW4 2876   3.957   2.488   1.251 -0.2410  0.0944 -0.0870
    1SOL     OW 2877   4.031   2.698   1.100  0.2670  0.0711  0.1953
    1SOL    HW2 2878   3.964   2.764   1.116 -0.0989  0.1028 -1.3669
    1SOL    HW3 2879   4.029   2.685   1.005  0.4274 -2.0700  0.4670
    1SOL    MW4 2880   4.022   2.705   1.090  0.2398 -0.2072  0.0250
    1SOL     OW 2881   4.268   2.833   1.191  0.3391  0.0048 -0.1151
    1SOL    HW2 2882   4.259   2.924   1.164  0.8736 -0.2144 -1.0317
    1SOL    HW3 2883   4.189   2.790   1.158 -0.2172  0.2559  0.8580
    1SOL    MW4 2884   4.256   2.839   1.183  0.3362  0.0091 -0.1076
    1SOL     OW 2885   4.257   3.102   1.107 -0.0239 -0.4302  0.1968
    1SOL    HW2 2886   4.180   3.131   1.156 -0.2939  0.3176 -0.6474
    1SOL    HW3 2887   4.233   3.117   1.015  0.6850 -1.2889 -0.1298
    1SOL    MW4 2888   4.244   3.108   1.101  0.0343 -0.4449  0.0424
    1SOL     OW 2889   4.021   3.234   1.220 -0.0869  0.0728 -0.3805
    1SOL    HW2 2890   4.031   3.232   1.315  0.4838  1.0825 -0.4118
    1SOL    HW3 2891   3.936   3.194   1.204 -0.3057  0.1377  0.5779
    1SOL    MW4 2892   4.011   3.229   1.231 -0.0405  0.2146 -0.2582
    1SOL     OW 2893   4.075   3.463   1.093  0.5820  0.0077  0.2946
    1SOL    HW2 2894   4.068   3.386   1.149  1.2718  0.7854  1.4837
    1SOL    HW3 2895   4.001   3.519   1.120  1.7871  1.0514  1.5140
    1SOL    MW4 2896   4.064   3.460   1.104  0.8321  0.2477  0.6123
    1SOL     OW 2897   4.260   3.607   1.213  0.4641 -0.3211  0.0635
    1SOL    HW2 2898   4.198   3.549   1.169  2.8757 -1.0730 -2.4360
    1SOL    HW3 2899   4.346   3.577   1.185  1.8457  3.8240 -0.5566
    1SOL    MW4 2900   4.263   3.596   1.204  0.9651  0.1266 -0.3481
    1SOL     OW 2901   4.194   3.847   1.097  0.5034  0.1753  0.5252
    1SOL    HW2 2902   4.121   3.883   1.147 -0.3439 -1.3215  0.3948
    1SOL    HW3 2903   4.226   3.774   1.150  3.0733  1.9247  1.4388
    1SOL    MW4 2904   4.188   3.842   1.110  0.7305  0.2086  0.6285
    1SOL     OW 2905   4.020   4.007   1.269 -0.1685 -0.2671 -0.5882
    1SOL    HW2 2906   4.030   4.091   1.225  0.5423  0.1313  0.3182
    1SOL    HW3 2907   3.945   3.966   1.226 -1.9402  1.7754  0.5026
    1SOL    MW4 2908   4.012   4.012   1.257 -0.3080  0.0553 -0.3246
    1SOL     OW 2909   4.022   4.267   1.132  0.0763  0.4434  0.3371
    1SOL    HW2 2910   3.938   4.302   1.163 -1.2182 -1.2522 -1.1039
    1SOL    HW3 2911   4.019   4.279   1.037  1.6952  0.8213  0.3327
    1SOL    MW4 2912   4.010   4.273   1.123  0.1187  0.2689  0.1465
    1SOL     OW 2913   4.276   4.383   1.230  0.0685 -0.7717 -0.0909
    1SOL    HW2 2914   4.186   4.356   1.211 -0.4977  0.3179  0.9456
    1SOL    HW3 2915   4.330   4.319   1.185 -1.2256 -0.6465 -1.9054
    1SOL    MW4 2916   4.271   4.371   1.221 -0.1769 -0.6118 -0.1936
    1SOL     OW 2917   0.203   4.656   1.595  0.1937  0.0162 -0.0409
    1SOL    HW2 2918   0.279   4.693   1.551 -0.3545  1.3464  0.1006
    1SOL    HW3 2919   0.128   4.699   1.555 -0.5214 -1.5212 -0.4062
    1SOL    MW4 2920   0.203   4.666   1.584  0.0271 -0.0111 -0.0705
    1SOL     OW 2921   4.487   0.173   1.499  0.1572 -0.2006 -0.1248
    1SOL    HW2 2922   4.417   0.119   1.535  0.7254 -1.2588 -0.5808
    1SOL    HW3 2923   4.479   0.163   1.404 -0.3557  1.3224 -0.2642
    1SOL    MW4 2924   4.477   0.165   1.491  0.1645 -0.1393 -0.2033
    1SOL     OW 2925   0.001   0.422   1.634  0.1242 -0.6956  0.0641
    1SOL    HW2 2926   0.013   0.406   1.727  0.6079 -0.4633  0.0436
    1SOL    HW3 2927  -0.017   0.336   1.596  1.5978 -1.0421  0.1189
    1SOL    MW4 2928   0.000   0.409   1.641  0.3824 -0.7107  0.0687
    1SOL     OW 2929   0.255   0.500   1.545  0.4555  0.2429 -0.2143
    1SOL    HW2 2930   0.169   0.472   1.575  0.5438  0.3163  0.1098
    1SOL    HW3 2931   0.243   0.520   1.452  0.2318 -0.1945 -0.2808
    1SOL    MW4 2932   0.242   0.499   1.537  0.4376  0.1949 -0.1802
    1SOL     OW 2933   0.229   0.782   1.640 -0.0112  0.0118 -0.4400
    1SOL    HW2 2934   0.240   0.690   1.615  1.1237  0.0224 -0.0242
    1SOL    HW3 2935   0.292   0.829   1.584  0.4686  0.3614  0.3943
    1SOL    MW4 2936   0.239   0.776   1.629  0.2018  0.0594 -0.2751
    1SOL     OW 2937   0.006   0.864   1.524  0.2188 -0.0504  0.6709
    1SOL    HW2 2938   0.005   0.954   1.556  1.8373  0.7532 -1.4341
    1SOL    HW3 2939   0.084   0.825   1.565 -0.5018 -0.5185  1.6113
    1SOL    MW4 2940   0.016   0.871   1.533  0.3381 -0.0061  0.5172
    1SOL     OW 2941   4.479   1.119   1.610 -0.0169 -0.5641  0.1970
    1SOL    HW2 2942   4.475   1.128   1.705  2.0358 -2.7640  0.5481
    1SOL    HW3 2943   4.557   1.169   1.584 -0.1125 -0.6277 -0.2194
    1SOL    MW4 2944   4.489   1.127   1.619  0.2418 -0.8627  0.1885
    1SOL     OW 2945   0.235   1.276   1.492  0.1113  0.2469  0.5072
    1SOL    HW2 2946   0.316   1.233   1.520  0.4367  0.2708 -0.4010
    1SOL    HW3 2947   0.237   1.362   1.534 -0.4565 -0.5351  2.1952
    1SOL    MW4 2948   0.246   1.281   1.501  0.0793  0.1470  0.6100
    1SOL     OW 2949   0.226   1.535   1.602  0.1458 -0.2841  0.3583
    1SOL    HW2 2950   0.235   1.541   1.697  0.2111  2.4445  0.2384
    1SOL    HW3 2951   0.142   1.578   1.584  0.1685 -0.7184 -0.8248
    1SOL    MW4 2952   0.216   1.542   1.612  0.1574  0.0186  0.1864
    1SOL     OW 2953   4.474   1.645   1.508 -0.2685  0.2667 -0.3075
    1SOL    HW2 2954   4.492   1.735   1.537  0.4542  0.3739 -1.0665
    1SOL    HW3 2955   4.470   1.652   1.413  0.3101 -0.6108 -0.3903
    1SOL    MW4 2956   4.476   1.658   1.499 -0.0969  0.1651 -0.4185
    1SOL     OW 2957   0.064   1.898   1.610  0.2485  0.0114 -0.0397
    1SOL    HW2 2958   0.073   1.916   1.704  2.4833 -1.0290 -0.0247
    1SOL    HW3 2959  -0.004   1.959   1.581 -0.5109  0.3396  2.2490
    1SOL    MW4 2960   0.056   1.908   1.619  0.4432 -0.0825  0.2643
    1SOL     OW 2961   0.259   2.065   1.517  0.0957 -0.1670 -0.0362
    1SOL    HW2 2962   0.186   2.012   1.547  1.4096 -2.7051 -1.1151
    1SOL    HW3 2963   0.264   2.047   1.423  1.7158  0.4096 -0.0800
    1SOL    MW4 2964   0.250   2.055   1.508  0.4828 -0.4258 -0.1844
    1SOL     OW 2965   0.229   2.329   1.604  0.2385  0.4133 -0.2382
    1SOL    HW2 2966   0.233   2.325   1.699 -2.6512 -1.2281 -0.1195
    1SOL    HW3 2967   0.211   2.238   1.577 -0.8941  1.1733 -2.1923
    1SOL    MW4 2968   0.227   2.316   1.613 -0.2921  0.2968 -0.4803
    1SOL     OW 2969   0.001   2.464   1.505 -0.3461  0.1453 -0.1836
    1SOL    HW2 2970  -0.063   2.415   1.557 -0.1515  1.7017  1.5690
    1SOL    HW3 2971   0.083   2.416   1.517 -0.4522  0.1021  0.4006
    1SOL    MW4 2972   0.004   2.451   1.514 -0.3344  0.3450  0.1246
    1SOL     OW 2973   4.481   2.747   1.615  0.0826  0.1208 -0.2294
    1SOL    HW2 2974   4.406   2.771   1.561 -0.9696 -0.6459  0.8679
    1SOL    HW3 2975   4.503   2.658   1.588  1.4916  0.8319 -1.5173
    1SOL    MW4 2976   4.474   2.738   1.604  0.1297  0.1135 -0.2548
    1SOL     OW 2977   0.220   2.876   1.544  0.9681 -0.0004 -0.2927
    1SOL    HW2 2978   0.283   2.816   1.583  0.8801 -0.2569 -0.5441
    1SOL    HW3 2979   0.135   2.837   1.562  0.8252  0.8209  0.8546
    1SOL    MW4 2980   0.217   2.863   1.552  0.9376  0.0739 -0.1746
    1SOL     OW 2981   0.212   3.132   1.622 -0.1011 -0.0185  0.7429
    1SOL    HW2 2982   0.135   3.168   1.579  0.3700 -0.0789 -0.1581
    1SOL    HW3 2983   0.211   3.039   1.599  0.6609  0.1320  0.0848
    1SOL    MW4 2984   0.202   3.125   1.613  0.0616 -0.0067  0.5373
    1SOL     OW 2985   4.465   3.243   1.520 -0.5724 -0.6323  0.0707
    1SOL    HW2 2986   4.484   3.333   1.545  1.0595 -1.0238  0.2401
    1SOL    HW3 2987   4.466   3.244   1.424  1.4711 -0.8867  0.0780
    1SOL    MW4 2988   4.468   3.255   1.510 -0.0873 -0.7174  0.0941
    1SOL     OW 2989   0.046   3.504   1.621 -0.0072  0.1883  0.2801
    1SOL    HW2 2990   0.039   3.504   1.716  0.1919 -1.3401  0.2958
    1SOL    HW3 2991  -0.028   3.558   1.592 -0.1475  0.5406  1.2870
    1SOL    MW4 2992   0.035   3.511   1.629  0.0005  0.0331  0.4151
    1SOL     OW 2993   0.275   3.584   1.496 -0.3273  0.4493  0.1240
    1SOL    HW2 2994   0.255   3.673   1.526  0.5309  0.5347  0.4822
    1SOL    HW3 2995   0.203   3.531   1.528 -1.1687  1.1207 -0.6315
    1SOL    MW4 2996   0.263   3.589   1.504 -0.3251  0.5491  0.0716
    1SOL     OW 2997   0.190   3.843   1.578  0.4507 -0.2416 -0.5215
    1SOL    HW2 2998   0.191   3.842   1.674 -1.7428  1.1707 -0.4398
    1SOL    HW3 2999   0.254   3.910   1.554  0.5656 -0.1709 -0.0251
    1SOL    MW4 3000   0.199   3.852   1.588  0.1765 -0.0458 -0.4451
    1SOL     OW 3001   4.471   4.003   1.474 -0.2483  0.2588 -0.7884
    1SOL    HW2 3002   4.470   4.084   1.525 -3.3825 -0.0910 -0.1832
    1SOL    HW3 3003   4.540   3.951   1.514 -1.3254  0.7765  1.8660
    1SOL    MW4 3004   4.480   4.007   1.486 -0.8044  0.2809 -0.3583
    1SOL     OW 3005   4.471   4.250   1.605 -0.2082 -0.1404  0.2308
    1SOL    HW2 3006   4.483   4.254   1.700 -0.9264 -0.4011  0.3320
    1SOL    HW3 3007   4.397   4.308   1.588 -0.2388 -0.2910 -0.1430
    1SOL    MW4 3008   4.463   4.258   1.616 -0.3071 -0.1945  0.1948
    1SOL     OW 3009   0.201   4.396   1.497 -0.1449 -1.0729  0.4852
    1SOL    HW2 3010   0.122   4.355   1.531  0.6178 -0.0959  3.5646
    1SOL    HW3 3011   0.195   4.488   1.523  2.2248 -1.0810  1.2365
    1SOL    MW4 3012   0.190   4.403   1.505  0.2683 -0.9451  0.9905
    1SOL     OW 3013   0.712   4.641   1.585 -0.6112  0.0430 -0.1836
    1SOL    HW2 3014   0.789   4.681   1.546 -0.3194 -1.8606 -1.6068
    1SOL    HW3 3015   0.639   4.700   1.561  0.1869  1.1662  0.1015
    1SOL    MW4 3016   0.712   4.654   1.577 -0.4675 -0.0596 -0.3338
    1SOL     OW 3017   0.472   0.101   1.527 -0.3723 -0.0128  0.0035
    1SOL    HW2 3018   0.466   0.190   1.560  0.2214  0.2594 -0.6116
    1SOL    HW3 3019   0.457   0.109   1.433 -0.6317 -0.6005 -0.0076
    1SOL    MW4 3020   0.469   0.114   1.519 -0.3282 -0.0545 -0.0792
    1SOL     OW 3021   0.475   0.363   1.623 -0.0681 -0.0725  0.0852
    1SOL    HW2 3022   0.544   0.398   1.566 -0.3629  0.4430  0.0417
    1SOL    HW3 3023   0.395   0.404   1.590 -0.5717 -1.6647 -0.6973
    1SOL    MW4 3024   0.473   0.373   1.611 -0.1735 -0.2145 -0.0240
    1SOL     OW 3025   0.656   0.498   1.477 -0.1583 -0.0050  0.7432
    1SOL    HW2 3026   0.658   0.582   1.522 -0.0905 -0.1257  0.9667
    1SOL    HW3 3027   0.679   0.519   1.386  0.9135  0.0701  1.0308
    1SOL    MW4 3028   0.659   0.512   1.471 -0.0079 -0.0110  0.8107
    1SOL     OW 3029   0.669   0.759   1.577 -0.2033 -0.2248  0.0387
    1SOL    HW2 3030   0.677   0.756   1.672 -0.2279 -1.4225  0.0154
    1SOL    HW3 3031   0.748   0.804   1.548  1.2566 -2.4240  0.4692
    1SOL    MW4 3032   0.681   0.765   1.586 -0.0140 -0.6730  0.0926
    1SOL     OW 3033   0.429   0.905   1.477 -0.2468 -0.3854 -0.5712
    1SOL    HW2 3034   0.433   0.995   1.509 -0.0400 -0.1831 -1.1603
    1SOL    HW3 3035   0.515   0.868   1.498 -0.5793 -0.6674  0.3117
    1SOL    MW4 3036   0.441   0.912   1.484 -0.2634 -0.3960 -0.5324
    1SOL     OW 3037   0.460   1.151   1.578 -0.1360  0.3163 -0.4279
    1SOL    HW2 3038   0.538   1.188   1.539  0.3444  0.4309  0.6227
    1SOL    HW3 3039   0.479   1.147   1.672 -0.7933 -1.0849 -0.3392
    1SOL    MW4 3040   0.473   1.155   1.586 -0.1593  0.1465 -0.2775
    1SOL     OW 3041   0.679   1.271   1.483 -0.2411 -0.0956 -0.2018
    1SOL    HW2 3042   0.664   1.358   1.520  0.5042 -0.0880  0.0834
    1SOL    HW3 3043   0.688   1.286   1.389  0.0987  0.1639 -0.1294
    1SOL    MW4 3044   0.678   1.284   1.476 -0.0980 -0.0604 -0.1546
    1SOL     OW 3045   0.685   1.515   1.609  0.2155  0.6388 -0.2104
    1SOL    HW2 3046   0.767   1.561   1.591  0.7163 -0.7460 -1.5797
    1SOL    HW3 3047   0.618   1.568   1.566  0.4298  1.5993  0.6279
    1SOL    MW4 3048   0.687   1.528   1.601  0.3099  0.5828 -0.2805
    1SOL     OW 3049   0.454   1.644   1.500  0.5524  0.0736  0.2153
    1SOL    HW2 3050   0.450   1.729   1.543 -1.3896  1.2067 -2.1359
    1SOL    HW3 3051   0.383   1.594   1.539  0.9902 -0.1032  0.7951
    1SOL    MW4 3052   0.444   1.648   1.511  0.3540  0.1998 -0.0184
    1SOL     OW 3053   0.455   1.908   1.600 -0.1660  0.3490  0.4268
    1SOL    HW2 3054   0.457   1.921   1.695  1.1737  1.1468  0.3037
    1SOL    HW3 3055   0.383   1.964   1.570 -1.0564 -0.4508  1.0384
    1SOL    MW4 3056   0.446   1.917   1.609 -0.1067  0.3487  0.4913
    1SOL     OW 3057   0.672   2.071   1.565  0.0834  0.0088  0.1143
    1SOL    HW2 3058   0.746   2.014   1.583 -0.4821 -1.4351 -1.9372
    1SOL    HW3 3059   0.595   2.015   1.578 -0.6482  1.3140  1.5952
    1SOL    MW4 3060   0.671   2.056   1.569 -0.0877 -0.0095  0.0390
    1SOL     OW 3061   0.692   2.329   1.621 -0.1372 -0.2950 -0.3771
    1SOL    HW2 3062   0.620   2.377   1.580  0.4701 -1.0740 -2.3780
    1SOL    HW3 3063   0.671   2.237   1.607 -0.8005 -0.6475  2.6001
    1SOL    MW4 3064   0.680   2.324   1.614 -0.1446 -0.4442 -0.2482
    1SOL     OW 3065   0.461   2.431   1.518 -0.6332  0.0206  0.1611
    1SOL    HW2 3066   0.444   2.522   1.542 -0.4115 -0.2362  1.3277
    1SOL    HW3 3067   0.379   2.386   1.537 -0.9429  0.0857 -1.0049
    1SOL    MW4 3068   0.448   2.437   1.524 -0.6448 -0.0045  0.1612
    1SOL     OW 3069   0.430   2.687   1.618  0.2481 -0.5142 -0.4101
    1SOL    HW2 3070   0.447   2.662   1.709 -0.0838 -0.0200 -0.2133
    1SOL    HW3 3071   0.517   2.707   1.583  0.1922  0.9840  0.3007
    1SOL    MW4 3072   0.444   2.686   1.625  0.1969 -0.2515 -0.2904
    1SOL     OW 3073   0.671   2.777   1.532  0.1905 -0.0160 -0.0992
    1SOL    HW2 3074   0.674   2.872   1.534  0.3921 -0.0321  0.3000
    1SOL    HW3 3075   0.756   2.749   1.566  0.1070 -0.3394 -0.1505
    1SOL    MW4 3076   0.683   2.786   1.536  0.2060 -0.0606 -0.0533
    1SOL     OW 3077   0.671   3.032   1.560  0.2831  0.1289 -0.2297
    1SOL    HW2 3078   0.740   3.093   1.534  0.9849 -0.0183  1.2892
    1SOL    HW3 3079   0.590   3.084   1.552  0.7821  0.9804  0.1488
    1SOL    MW4 3080   0.669   3.047   1.555  0.4416  0.2217  0.0206
    1SOL     OW 3081   0.459   3.193   1.487  0.3344 -0.2499 -0.5672
    1SOL    HW2 3082   0.368   3.186   1.514  0.5288 -0.2251  0.1203
    1SOL    HW3 3083   0.456   3.199   1.392 -0.5007  1.7171 -0.4273
    1SOL    MW4 3084   0.447   3.193   1.478  0.2499  0.0129 -0.4580
    1SOL     OW 3085   0.481   3.458   1.608  0.7910 -0.0186  0.2726
    1SOL    HW2 3086   0.465   3.368   1.579  0.4218  0.4253 -0.9430
    1SOL    HW3 3087   0.418   3.510   1.558  1.2759  0.9622  0.6832
    1SOL    MW4 3088   0.470   3.453   1.597  0.8063  0.1693  0.1665
    1SOL     OW 3089   0.683   3.602   1.479 -0.0180 -0.0515 -0.5417
    1SOL    HW2 3090   0.769   3.574   1.509 -0.2491  0.5381  0.7293
    1SOL    HW3 3091   0.622   3.543   1.522 -0.2884  0.0354 -0.8035
    1SOL    MW4 3092   0.686   3.591   1.489 -0.0841  0.0381 -0.4085
    1SOL     OW 3093   0.652   3.897   1.545  0.0600 -0.0107 -0.0820
    1SOL    HW2 3094   0.735   3.936   1.517  0.7795 -0.5030  1.2728
    1SOL    HW3 3095   0.656   3.807   1.512 -0.2116  0.1514 -0.5532
    1SOL    MW4 3096   0.664   3.890   1.537  0.1191 -0.0541  0.0347
    1SOL     OW 3097   0.420   4.025   1.472 -0.0741 -0.1813 -0.2295
    1SOL    HW2 3098   0.503   3.983   1.498 -0.8117 -1.5070  0.0420
    1SOL    HW3 3099   0.420   4.018   1.376 -0.1332 -0.7196 -0.1953
    1SOL    MW4 3100   0.431   4.018   1.462 -0.1792 -0.4272 -0.1891
    1SOL     OW 3101   0.443   4.286   1.594 -0.0999 -0.1675  0.0206
    1SOL    HW2 3102   0.452   4.206   1.543  0.7582  0.3287 -0.6186
    1SOL    HW3 3103   0.360   4.323   1.566 -0.2165 -0.5279 -0.1161
    1SOL    MW4 3104   0.433   4.280   1.583 -0.0021 -0.1488 -0.0818
    1SOL     OW 3105   0.687   4.384   1.493 -0.4198  0.3296  0.1899
    1SOL    HW2 3106   0.602   4.358   1.530 -0.0561  0.7281  1.3159
    1SOL    HW3 3107   0.698   4.475   1.520 -0.1056  0.5984 -0.8301
    1SOL    MW4 3108   0.677   4.392   1.501 -0.3303  0.4172  0.2037
    1SOL     OW 3109   1.103   4.605   1.582  0.0291  0.2522 -0.2836
    1SOL    HW2 3110   1.086   4.625   1.674  0.5293 -0.3044 -0.0669
    1SOL    HW3 3111   1.184   4.651   1.561  0.8112 -0.9624  0.0265
    1SOL    MW4 3112   1.111   4.613   1.591  0.1982  0.0181 -0.2141
    1SOL     OW 3113   0.914   0.123   1.464 -0.1128  0.5511 -0.2774
    1SOL    HW2 3114   0.911   0.205   1.512 -2.0621 -1.1780  2.7456
    1SOL    HW3 3115   0.986   0.074   1.503 -0.6584 -0.2233 -0.2204
    1SOL    MW4 3116   0.923   0.127   1.475 -0.4420  0.2208  0.1290
    1SOL     OW 3117   0.884   0.368   1.579  0.2680 -0.0634  0.3266
    1SOL    HW2 3118   0.883   0.375   1.674 -1.5228 -3.8744  0.6969
    1SOL    HW3 3119   0.794   0.384   1.553  0.6177  0.2862 -0.6934
    1SOL    MW4 3120   0.872   0.371   1.588  0.0779 -0.5201  0.2409
    1SOL     OW 3121   1.105   0.507   1.481  0.5165  0.4936 -0.2856
    1SOL    HW2 3122   1.091   0.594   1.519  1.1548  1.4309 -2.1370
    1SOL    HW3 3123   1.043   0.450   1.527  1.1464  1.5888  2.0461
    1SOL    MW4 3124   1.095   0.511   1.492  0.6839  0.7617 -0.2221
    1SOL     OW 3125   1.132   0.833   1.597  0.0993  0.1564 -0.0306
    1SOL    HW2 3126   1.130   0.818   1.691  0.2315  1.1249  0.1329
    1SOL    HW3 3127   1.221   0.865   1.580  0.1663 -0.2852 -0.5261
    1SOL    MW4 3128   1.143   0.836   1.607  0.1256  0.2259 -0.0744
    1SOL     OW 3129   0.883   0.901   1.458 -0.3818  0.2861  0.1839
    1SOL    HW2 3130   0.949   0.880   1.524 -0.6452 -0.0921  0.3269
    1SOL    HW3 3131   0.928   0.889   1.374 -0.3956 -0.4046  0.2742
    1SOL    MW4 3132   0.898   0.897   1.455 -0.4184  0.1451  0.2146
    1SOL     OW 3133   0.912   1.179   1.585  0.1799  0.6639  0.3476
    1SOL    HW2 3134   0.920   1.103   1.528 -1.1503  0.7676  0.0228
    1SOL    HW3 3135   0.830   1.220   1.560  0.9620  2.2923  0.4353
    1SOL    MW4 3136   0.902   1.174   1.574  0.1076  0.8924  0.3164
    1SOL     OW 3137   1.141   1.316   1.483  0.0075  0.0450 -0.1757
    1SOL    HW2 3138   1.215   1.288   1.537 -0.1151  2.1673  1.1659
    1SOL    HW3 3139   1.067   1.266   1.516  0.5909 -1.1149 -0.6251
    1SOL    MW4 3140   1.141   1.306   1.494  0.0683  0.1720 -0.0579
    1SOL     OW 3141   1.160   1.603   1.616 -0.2631  0.3687 -0.2157
    1SOL    HW2 3142   1.224   1.654   1.566  0.0627 -0.5553 -0.7763
    1SOL    HW3 3143   1.152   1.521   1.566 -0.3907 -0.3215  0.9242
    1SOL    MW4 3144   1.168   1.599   1.603 -0.2369  0.1558 -0.1392
    1SOL     OW 3145   0.881   1.670   1.518 -0.4172  0.1905  0.0193
    1SOL    HW2 3146   0.962   1.619   1.528 -0.5977 -0.3618 -1.2319
    1SOL    HW3 3147   0.875   1.688   1.424 -1.6393  0.4180  0.1296
    1SOL    MW4 3148   0.891   1.666   1.507 -0.6023  0.1476 -0.1311
    1SOL     OW 3149   0.902   1.909   1.650  0.1611  0.4699  0.2141
    1SOL    HW2 3150   0.987   1.947   1.630 -0.0041  0.1106 -1.2679
    1SOL    HW3 3151   0.901   1.826   1.600 -0.3361 -0.3983  1.6502
    1SOL    MW4 3152   0.913   1.903   1.640  0.0737  0.3080  0.2081
    1SOL     OW 3153   1.148   2.030   1.555  0.0680  0.2024  0.8394
    1SOL    HW2 3154   1.233   1.995   1.581  0.1611 -0.1691  0.0323
    1SOL    HW3 3155   1.143   2.115   1.599  1.2415  0.6206  0.1857
    1SOL    MW4 3156   1.159   2.037   1.564  0.2352  0.2086  0.6465
    1SOL     OW 3157   1.143   2.282   1.648  0.5052 -0.2146 -0.7802
    1SOL    HW2 3158   1.206   2.338   1.602 -1.0238  0.1554 -2.4526
    1SOL    HW3 3159   1.058   2.315   1.623 -0.4009 -0.5271  1.7221
    1SOL    MW4 3160   1.140   2.294   1.639  0.1838 -0.2072 -0.6706
    1SOL     OW 3161   0.932   2.422   1.533 -0.1594 -0.6521  0.0146
    1SOL    HW2 3162   0.922   2.445   1.441 -0.5283 -1.0268 -0.0399
    1SOL    HW3 3163   0.850   2.378   1.556  0.3992 -1.5979  0.2125
    1SOL    MW4 3164   0.920   2.420   1.524 -0.1343 -0.8264  0.0335
    1SOL     OW 3165   0.917   2.694   1.609  0.1821  0.4549  0.2184
    1SOL    HW2 3166   0.909   2.701   1.704  1.5752  0.7646  0.3280
    1SOL    HW3 3167   0.926   2.600   1.593  2.6619  0.5668  0.6678
    1SOL    MW4 3168   0.917   2.682   1.620  0.6931  0.5102  0.2921
    1SOL     OW 3169   1.139   2.848   1.464 -0.2848 -0.3683  0.0222
    1SOL    HW2 3170   1.128   2.936   1.501  1.0769 -0.1868  0.0310
    1SOL    HW3 3171   1.072   2.795   1.507 -0.3233  0.4001  0.9247
    1SOL    MW4 3172   1.129   2.853   1.475 -0.1103 -0.2427  0.1423
    1SOL     OW 3173   1.116   3.107   1.568  0.0741 -0.2663 -0.2801
    1SOL    HW2 3174   1.126   3.112   1.663 -1.3893  0.5922 -0.1630
    1SOL    HW3 3175   1.197   3.146   1.534  0.2135  0.2616  0.6270
    1SOL    MW4 3176   1.128   3.113   1.576 -0.1005 -0.0832 -0.1450
    1SOL     OW 3177   0.879   3.219   1.495 -0.1982 -0.0368  0.3272
    1SOL    HW2 3178   0.965   3.179   1.510  1.0507  2.4340  0.0900
    1SOL    HW3 3179   0.878   3.238   1.401  0.1514  2.3411  0.7528
    1SOL    MW4 3180   0.890   3.217   1.484  0.0126  0.6027  0.3520
    1SOL     OW 3181   0.917   3.495   1.578 -0.0956 -0.1880 -0.1164
    1SOL    HW2 3182   0.998   3.533   1.543 -0.7580  0.3510 -1.0600
    1SOL    HW3 3183   0.923   3.402   1.554 -1.4465  0.5179 -3.4295
    1SOL    MW4 3184   0.929   3.487   1.571 -0.3613 -0.0236 -0.6781
    1SOL     OW 3185   1.110   3.637   1.486 -0.3184 -0.0948 -0.2067
    1SOL    HW2 3186   1.183   3.586   1.521 -0.4165  1.3689  2.2767
    1SOL    HW3 3187   1.096   3.603   1.398  3.0695 -0.7085 -0.5702
    1SOL    MW4 3188   1.118   3.626   1.479  0.1156  0.0174  0.0730
    1SOL     OW 3189   1.110   3.887   1.606  0.0052  0.0088  0.1349
    1SOL    HW2 3190   1.199   3.912   1.581  0.2833 -1.3059 -0.1978
    1SOL    HW3 3191   1.101   3.796   1.577 -1.6282  0.3017 -0.3179
    1SOL    MW4 3192   1.120   3.878   1.599 -0.1734 -0.1259  0.0314
    1SOL     OW 3193   0.896   4.013   1.478  0.4188  0.3188  0.4122
    1SOL    HW2 3194   0.903   4.093   1.530  1.2039  0.4202  0.1562
    1SOL    HW3 3195   0.971   3.961   1.505  1.2356  0.6720 -1.1189
    1SOL    MW4 3196   0.907   4.017   1.488  0.6301  0.3786  0.1763
    1SOL     OW 3197   0.917   4.252   1.591  0.2330  0.2914 -0.3276
    1SOL    HW2 3198   0.901   4.248   1.685  0.0683  0.3359 -0.3550
    1SOL    HW3 3199   0.843   4.302   1.556 -0.8330 -1.5727 -0.7659
    1SOL    MW4 3200   0.905   4.258   1.599  0.0706  0.0510 -0.3890
    1SOL     OW 3201   1.159   4.340   1.489  0.2561 -0.2259 -0.3206
    1SOL    HW2 3202   1.082   4.293   1.519  0.2695 -0.7491 -1.0865
    1SOL    HW3 3203   1.147   4.430   1.522 -0.9405 -0.1625 -0.9009
    1SOL    MW4 3204   1.147   4.346   1.497  0.1000 -0.2871 -0.4983
    1SOL     OW 3205   1.591   4.627   1.632  0.4511  0.3804  0.2408
    1SOL    HW2 3206   1.595   4.638   1.727 -0.2465  1.0597  0.1974
    1SOL    HW3 3207   1.514   4.677   1.605  0.9259  0.5967 -0.7385
    1SOL    MW4 3208   1.581   4.635   1.641  0.4218  0.4983  0.1059
    1SOL     OW 3209   1.346   0.080   1.541  0.2928 -0.0288  0.1844
    1SOL    HW2 3210   1.328   0.171   1.561  1.7378  0.2023  0.5041
    1SOL    HW3 3211   1.369   0.080   1.448 -0.0738 -0.1174  0.0952
    1SOL    MW4 3212   1.347   0.092   1.531  0.4351 -0.0100  0.2147
    1SOL     OW 3213   1.306   0.343   1.594 -0.0282  0.4850 -0.1152
    1SOL    HW2 3214   1.380   0.388   1.552  0.1263 -0.2542 -0.6412
    1SOL    HW3 3215   1.228   0.379   1.551  0.1343 -0.3887 -1.1858
    1SOL    MW4 3216   1.306   0.354   1.583  0.0135  0.2722 -0.3258
    1SOL     OW 3217   1.525   0.493   1.501  0.3389 -0.1036 -0.1595
    1SOL    HW2 3218   1.609   0.463   1.534  1.2695  2.5147 -0.0576
    1SOL    HW3 3219   1.541   0.516   1.410 -0.7651 -1.4599 -0.7216
    1SOL    MW4 3220   1.538   0.492   1.494  0.3160  0.0629 -0.2202
    1SOL     OW 3221   1.561   0.757   1.601 -0.1595  0.1947 -0.2907
    1SOL    HW2 3222   1.565   0.748   1.696  0.7050 -0.1100 -0.3490
    1SOL    HW3 3223   1.527   0.673   1.570 -1.9182  0.8397 -0.1568
    1SOL    MW4 3224   1.557   0.745   1.609 -0.2775  0.2396 -0.2806
    1SOL     OW 3225   1.373   0.945   1.516  0.5237  0.2580  0.1620
    1SOL    HW2 3226   1.439   0.878   1.531  0.4949 -0.3483 -2.3048
    1SOL    HW3 3227   1.367   0.954   1.421 -0.8745  2.3682  0.3941
    1SOL    MW4 3228   1.381   0.937   1.505  0.3353  0.4564 -0.1328
    1SOL     OW 3229   1.375   1.203   1.618  0.1295 -0.1085 -0.5034
    1SOL    HW2 3230   1.363   1.194   1.712 -0.0378  0.4796 -0.4729
    1SOL    HW3 3231   1.364   1.114   1.584  0.3492 -0.3452  0.0469
    1SOL    MW4 3232   1.372   1.190   1.626  0.1363 -0.0621 -0.4267
    1SOL     OW 3233   1.586   1.315   1.487 -0.1862 -0.1459 -0.1987
    1SOL    HW2 3234   1.514   1.292   1.546 -0.9628  0.2347 -0.9733
    1SOL    HW3 3235   1.658   1.259   1.514 -1.0837 -1.2646 -0.0560
    1SOL    MW4 3236   1.586   1.305   1.498 -0.4071 -0.2432 -0.2819
    1SOL     OW 3237   1.559   1.577   1.604  0.1477  0.2732  0.1954
    1SOL    HW2 3238   1.595   1.552   1.689  0.0597  1.1143  0.4827
    1SOL    HW3 3239   1.553   1.495   1.555 -0.4805 -0.3152  1.2490
    1SOL    MW4 3240   1.563   1.563   1.609  0.0532  0.3066  0.3723
    1SOL     OW 3241   1.364   1.715   1.474 -0.1768  0.2276  0.2941
    1SOL    HW2 3242   1.429   1.660   1.518 -0.0824 -0.1992 -0.3680
    1SOL    HW3 3243   1.357   1.677   1.387  0.4665  1.7538 -0.4382
    1SOL    MW4 3244   1.372   1.703   1.468 -0.0795  0.3726  0.1100
    1SOL     OW 3245   1.427   1.952   1.626  0.7207 -0.0579  0.5276
    1SOL    HW2 3246   1.434   1.917   1.714 -1.7310  0.5040  0.9879
    1SOL    HW3 3247   1.425   1.874   1.570  0.3611 -0.5009  1.1427
    1SOL    MW4 3248   1.427   1.937   1.630  0.3496 -0.0423  0.6695
    1SOL     OW 3249   1.644   2.081   1.508  0.7000  0.0174 -0.0185
    1SOL    HW2 3250   1.561   2.043   1.537  0.4194  0.4782 -0.2121
    1SOL    HW3 3251   1.646   2.066   1.414  1.5332 -1.3246  0.1892
    1SOL    MW4 3252   1.633   2.074   1.500  0.7728 -0.0989 -0.0167
    1SOL     OW 3253   1.613   2.357   1.607  0.2804  0.0138 -0.1953
    1SOL    HW2 3254   1.703   2.378   1.582  0.0558 -0.4262 -1.4031
    1SOL    HW3 3255   1.599   2.269   1.573 -1.0987  0.6591 -1.3608
    1SOL    MW4 3256   1.623   2.348   1.599  0.0688  0.0410 -0.5084
    1SOL     OW 3257   1.356   2.453   1.547 -0.0544  0.0028 -0.0800
    1SOL    HW2 3258   1.352   2.549   1.549 -0.0497 -0.0018  0.2270
    1SOL    HW3 3259   1.442   2.432   1.583 -0.0828 -0.1197 -0.0842
    1SOL    MW4 3260   1.367   2.463   1.552 -0.0576 -0.0141 -0.0402
    1SOL     OW 3261   1.352   2.728   1.597  0.7009 -0.3213  0.0815
    1SOL    HW2 3262   1.428   2.786   1.586  0.1919  0.6499  1.5122
    1SOL    HW3 3263   1.282   2.771   1.549  0.4532 -0.0058  0.7220
    1SOL    MW4 3264   1.353   2.741   1.589  0.6011 -0.1514  0.3548
    1SOL     OW 3265   1.588   2.857   1.543  0.2059 -0.5195  0.7518
    1SOL    HW2 3266   1.659   2.802   1.577  1.6553  0.0584 -1.2437
    1SOL    HW3 3267   1.588   2.842   1.449 -1.8117  0.1084  0.6296
    1SOL    MW4 3268   1.598   2.848   1.535  0.1309 -0.3605  0.4724
    1SOL     OW 3269   1.559   3.108   1.625 -0.1404 -0.0063 -0.1181
    1SOL    HW2 3270   1.633   3.145   1.577 -0.0172  0.1564  0.1952
    1SOL    HW3 3271   1.558   3.015   1.600 -0.0099  0.0528 -0.3446
    1SOL    MW4 3272   1.569   3.100   1.615 -0.1069  0.0231 -0.1068
    1SOL     OW 3273   1.356   3.237   1.485 -0.3629  0.1329  0.2117
    1SOL    HW2 3274   1.349   3.320   1.532 -0.2483  0.6094 -0.6078
    1SOL    HW3 3275   1.428   3.191   1.528 -0.5174  0.4013  0.7543
    1SOL    MW4 3276   1.365   3.242   1.497 -0.3681  0.2310  0.1752
    1SOL     OW 3277   1.301   3.487   1.601  0.2435  0.0237  0.0930
    1SOL    HW2 3278   1.317   3.473   1.695 -0.3674  1.0224  0.3552
    1SOL    HW3 3279   1.377   3.536   1.570 -0.3737  1.2350  0.4588
    1SOL    MW4 3280   1.313   3.491   1.609  0.0814  0.3150  0.1758
    1SOL     OW 3281   1.543   3.563   1.493 -0.4098 -0.4258  0.6507
    1SOL    HW2 3282   1.554   3.655   1.519 -0.2364  0.0145 -0.9705
    1SOL    HW3 3283   1.553   3.563   1.398  0.3290 -2.2418  0.7129
    1SOL    MW4 3284   1.546   3.575   1.484 -0.2894 -0.6073  0.4449
    1SOL     OW 3285   1.599   3.832   1.576  0.0295 -0.5577  0.5716
    1SOL    HW2 3286   1.607   3.840   1.671  0.7013  1.0706  0.3942
    1SOL    HW3 3287   1.520   3.881   1.555  0.0224 -0.7028  0.2636
    1SOL    MW4 3288   1.590   3.840   1.586  0.1172 -0.3619  0.5076
    1SOL     OW 3289   1.369   3.958   1.529  0.4351 -0.2245 -0.0395
    1SOL    HW2 3290   1.384   4.050   1.550 -0.0472 -0.0867 -0.2959
    1SOL    HW3 3291   1.359   3.956   1.433  0.2414 -0.5145 -0.0155
    1SOL    MW4 3292   1.370   3.970   1.519  0.3459 -0.2444 -0.0702
    1SOL     OW 3293   1.394   4.231   1.582 -0.2406  0.5641 -0.4814
    1SOL    HW2 3294   1.473   4.278   1.554  0.1629  0.1228 -0.0833
    1SOL    HW3 3295   1.322   4.281   1.542  0.1656  1.6705  0.1468
    1SOL    MW4 3296   1.395   4.244   1.573 -0.1338  0.6518 -0.3458
    1SOL     OW 3297   1.605   4.377   1.479  0.4584  0.1922 -0.1026
    1SOL    HW2 3298   1.673   4.322   1.518  1.5674  0.8122 -1.1258
    1SOL    HW3 3299   1.604   4.456   1.532  1.0025  0.4560 -0.4802
    1SOL    MW4 3300   1.613   4.380   1.491  0.6765  0.3090 -0.2873
    1SOL     OW 3301   1.981   4.621   1.588  0.4383 -0.0926  0.0359
    1SOL    HW2 3302   1.979   4.625   1.684 -0.7513  1.0714 -0.0144
    1SOL    HW3 3303   1.911   4.682   1.561  1.9852  0.9927 -1.5822
    1SOL    MW4 3304   1.971   4.630   1.597  0.4854  0.2046 -0.1843
    1SOL     OW 3305   1.767   0.116   1.480 -0.5594  0.2496  0.3609
    1SOL    HW2 3306   1.687   0.063   1.487  0.1452 -0.7917  0.6488
    1SOL    HW3 3307   1.784   0.121   1.386 -0.9982  0.5225  0.2948
    1SOL    MW4 3308   1.758   0.110   1.469 -0.5243  0.1483  0.3902
    1SOL     OW 3309   1.758   0.393   1.579  0.0008  0.0886  0.1687
    1SOL    HW2 3310   1.845   0.430   1.566  0.0490  0.2191  0.8511
    1SOL    HW3 3311   1.766   0.302   1.550  0.1102  0.3679 -0.6745
    1SOL    MW4 3312   1.770   0.386   1.573  0.0216  0.1427  0.1475
    1SOL     OW 3313   2.003   0.506   1.518 -0.1629  0.2735  0.3565
    1SOL    HW2 3314   2.076   0.455   1.552 -2.3149 -1.7402  2.1970
    1SOL    HW3 3315   2.021   0.596   1.546  1.8068 -0.1241  0.3889
    1SOL    MW4 3316   2.015   0.511   1.526 -0.1872 -0.0446  0.6037
    1SOL     OW 3317   2.040   0.783   1.568 -0.3194  0.2687  0.3657
    1SOL    HW2 3318   2.015   0.792   1.660 -0.6557  0.1857  0.2803
    1SOL    HW3 3319   1.970   0.826   1.520  1.1749  2.7163  0.2777
    1SOL    MW4 3320   2.028   0.790   1.574 -0.1667  0.5807  0.3430
    1SOL     OW 3321   1.781   0.872   1.444 -0.3430  0.5859  0.4017
    1SOL    HW2 3322   1.794   0.961   1.476 -1.1105  1.0356 -0.5194
    1SOL    HW3 3323   1.720   0.833   1.506 -2.0752  1.5537 -0.6344
    1SOL    MW4 3324   1.775   0.879   1.456 -0.6728  0.7730  0.1434
    1SOL     OW 3325   1.776   1.124   1.563  0.1581 -0.1446  0.0734
    1SOL    HW2 3326   1.854   1.178   1.547 -0.3258  0.3991 -0.4877
    1SOL    HW3 3327   1.779   1.105   1.657  0.6351  0.3966  0.1752
    1SOL    MW4 3328   1.787   1.129   1.573  0.1574 -0.0014  0.0126
    1SOL     OW 3329   1.993   1.300   1.504  0.1194  0.1513  0.3975
    1SOL    HW2 3330   1.988   1.387   1.542 -0.9652  1.2037 -2.0066
    1SOL    HW3 3331   2.004   1.316   1.410  0.5829 -2.3067  0.0025
    1SOL    MW4 3332   1.994   1.314   1.496  0.0374 -0.0342  0.0281
    1SOL     OW 3333   2.039   1.540   1.623  0.3016  0.1330  0.4111
    1SOL    HW2 3334   2.108   1.582   1.572 -0.2018 -0.0916 -0.4646
    1SOL    HW3 3335   1.961   1.595   1.609 -0.0347 -0.3665  0.3106
    1SOL    MW4 3336   2.038   1.553   1.615  0.1910  0.0376  0.2824
    1SOL     OW 3337   1.807   1.687   1.545 -0.2324 -0.1080  0.8599
    1SOL    HW2 3338   1.730   1.637   1.573  0.3237 -0.7216  1.3103
    1SOL    HW3 3339   1.802   1.688   1.450 -0.9976  0.1792  0.8937
    1SOL    MW4 3340   1.796   1.681   1.536 -0.2602 -0.1512  0.9238
    1SOL     OW 3341   1.821   1.940   1.671 -0.4541 -0.3723  0.1019
    1SOL    HW2 3342   1.822   1.855   1.627  0.5493 -0.5282  0.4148
    1SOL    HW3 3343   1.750   1.988   1.629  0.1718 -0.6917 -1.3504
    1SOL    MW4 3344   1.812   1.935   1.660 -0.2391 -0.4349 -0.0485
    1SOL     OW 3345   2.015   2.037   1.499  0.2121 -0.2499 -0.2942
    1SOL    HW2 3346   2.097   1.990   1.512  0.4488  0.1105 -0.4892
    1SOL    HW3 3347   1.956   2.001   1.566  0.4530 -0.6740 -0.3074
    1SOL    MW4 3348   2.018   2.026   1.509  0.2751 -0.2584 -0.3216
    1SOL     OW 3349   2.087   2.285   1.607 -0.0864  0.0549 -0.3764
    1SOL    HW2 3350   2.060   2.288   1.699  1.2623 -0.8532  0.0689
    1SOL    HW3 3351   2.075   2.194   1.581  0.7293  0.0411 -0.7252
    1SOL    MW4 3352   2.082   2.274   1.616  0.1991 -0.0668 -0.3636
    1SOL     OW 3353   1.859   2.436   1.535  0.0791 -0.5170 -0.2703
    1SOL    HW2 3354   1.944   2.401   1.562 -0.0398 -0.4157  0.2375
    1SOL    HW3 3355   1.859   2.428   1.439  1.2292  0.7303 -0.4004
    1SOL    MW4 3356   1.871   2.431   1.526  0.2152 -0.3390 -0.2204
    1SOL     OW 3357   1.802   2.704   1.598 -0.1382  0.1017  0.2289
    1SOL    HW2 3358   1.881   2.734   1.553 -0.3459  1.6924  0.9012
    1SOL    HW3 3359   1.804   2.609   1.588  1.0414  0.2474 -1.1046
    1SOL    MW4 3360   1.813   2.695   1.591 -0.0100  0.3307  0.1416
    1SOL     OW 3361   2.047   2.786   1.513 -0.1646  0.6334 -0.4140
    1SOL    HW2 3362   2.051   2.877   1.539  0.1061  0.5256 -0.0814
    1SOL    HW3 3363   2.059   2.787   1.418  1.5976  0.8043 -0.2020
    1SOL    MW4 3364   2.049   2.798   1.504  0.1040  0.6418 -0.3420
    1SOL     OW 3365   2.041   3.066   1.581  0.0424  0.0644  0.1613
    1SOL    HW2 3366   2.016   3.078   1.673  1.0731 -1.8046  0.7241
    1SOL    HW3 3367   2.108   3.133   1.566  0.0587  0.2141  0.8485
    1SOL    MW4 3368   2.046   3.076   1.591  0.1807 -0.1621  0.3263
    1SOL     OW 3369   1.768   3.194   1.481  0.1219  0.1456 -0.5983
    1SOL    HW2 3370   1.754   3.286   1.503 -1.7782 -0.0683 -0.7573
    1SOL    HW3 3371   1.858   3.175   1.506  0.1522  1.7402  0.5066
    1SOL    MW4 3372   1.778   3.203   1.487 -0.1247  0.3276 -0.4735
    1SOL     OW 3373   1.777   3.454   1.569  0.2211 -0.0785  0.1119
    1SOL    HW2 3374   1.783   3.458   1.664  1.0955  1.0153  0.0230
    1SOL    HW3 3375   1.692   3.491   1.548  0.7632  1.3370  0.3760
    1SOL    MW4 3376   1.767   3.459   1.579  0.4079  0.2522  0.1351
    1SOL     OW 3377   1.981   3.612   1.472  0.3310 -0.2455 -0.3698
    1SOL    HW2 3378   2.066   3.589   1.508  0.0658  0.6196  0.8429
    1SOL    HW3 3379   1.921   3.546   1.507  0.4785 -0.7846 -1.1277
    1SOL    MW4 3380   1.984   3.600   1.481  0.3154 -0.2022 -0.3099
    1SOL     OW 3381   2.002   3.863   1.595  0.4857 -0.5211 -0.5143
    1SOL    HW2 3382   2.092   3.887   1.572  0.4849 -1.2990 -1.3432
    1SOL    HW3 3383   1.988   3.779   1.552  0.1177 -1.5011  1.4639
    1SOL    MW4 3384   2.012   3.855   1.587  0.4368 -0.7529 -0.3628
    1SOL     OW 3385   1.798   3.994   1.455 -0.2419 -0.1680 -0.0179
    1SOL    HW2 3386   1.876   3.959   1.498  0.5421  2.1714  0.5371
    1SOL    HW3 3387   1.726   3.940   1.487  1.2353 -2.9386 -1.2279
    1SOL    MW4 3388   1.799   3.983   1.465  0.0565 -0.2248 -0.1043
    1SOL     OW 3389   1.802   4.225   1.609  0.0516  0.4855  0.2802
    1SOL    HW2 3390   1.879   4.269   1.571  1.4386 -0.6717  1.6601
    1SOL    HW3 3391   1.800   4.139   1.566 -0.7777  0.6901 -0.1029
    1SOL    MW4 3392   1.812   4.219   1.598  0.1251  0.3595  0.4119
    1SOL     OW 3393   2.003   4.368   1.484  0.1053  0.1787  0.0684
    1SOL    HW2 3394   2.083   4.335   1.524 -0.4370 -0.6130  0.5237
    1SOL    HW3 3395   1.998   4.460   1.511  0.5560  0.0720  0.5058
    1SOL    MW4 3396   2.013   4.376   1.493  0.0932  0.0601  0.1863
    1SOL     OW 3397   2.428   4.621   1.614 -0.1420 -0.4574 -0.3946
    1SOL    HW2 3398   2.419   4.625   1.709  1.5457 -0.1689 -0.2328
    1SOL    HW3 3399   2.352   4.668   1.581  0.0165  0.7035  0.8461
    1SOL    MW4 3400   2.417   4.628   1.622  0.1018 -0.2666 -0.2096
    1SOL     OW 3401   2.217   0.114   1.535  0.2690 -0.3379 -0.1055
    1SOL    HW2 3402   2.135   0.071   1.559 -0.5143  0.3558 -1.4653
    1SOL    HW3 3403   2.225   0.098   1.441  0.3168  1.8674 -0.5010
    1SOL    MW4 3404   2.207   0.106   1.525  0.1719  0.0446 -0.3371
    1SOL     OW 3405   2.232   0.379   1.622  0.2458  0.1315 -0.6127
    1SOL    HW2 3406   2.251   0.376   1.715 -0.0629  0.1219 -0.5494
    1SOL    HW3 3407   2.227   0.288   1.595  0.4762  0.1359 -0.6662
    1SOL    MW4 3408   2.233   0.367   1.630  0.2356  0.1308 -0.6114
    1SOL     OW 3409   2.460   0.512   1.513  0.0393  0.0010  0.0189
    1SOL    HW2 3410   2.523   0.449   1.547 -0.0177  0.7987  1.6849
    1SOL    HW3 3411   2.375   0.471   1.528  0.1047 -0.7252 -1.4900
    1SOL    MW4 3412   2.457   0.499   1.520  0.0403  0.0105  0.0396
    1SOL     OW 3413   2.520   0.760   1.607 -0.0118  0.1438  0.0177
    1SOL    HW2 3414   2.430   0.792   1.603 -0.6812 -1.2412  2.6011
    1SOL    HW3 3415   2.514   0.669   1.578  0.7217  0.2695 -0.5603
    1SOL    MW4 3416   2.507   0.752   1.602 -0.0033 -0.0224  0.2824
    1SOL     OW 3417   2.291   0.903   1.523  0.1416 -0.3441  0.1851
    1SOL    HW2 3418   2.272   0.996   1.537 -0.0465 -0.3487 -0.0467
    1SOL    HW3 3419   2.205   0.862   1.521  0.2487 -0.6292  1.0367
    1SOL    MW4 3420   2.277   0.910   1.525  0.1311 -0.3823  0.2668
    1SOL     OW 3421   2.225   1.163   1.603 -0.6155  0.3094  0.1934
    1SOL    HW2 3422   2.237   1.190   1.694 -1.9979 -1.5017  0.9399
    1SOL    HW3 3423   2.146   1.209   1.575  0.1958  1.4155 -0.3486
    1SOL    MW4 3424   2.216   1.173   1.611 -0.6909  0.2165  0.2203
    1SOL     OW 3425   2.477   1.275   1.504  0.4922  0.4069 -0.0296
    1SOL    HW2 3426   2.399   1.237   1.544  0.7120  0.6436  0.6406
    1SOL    HW3 3427   2.463   1.268   1.410 -0.5372  0.8633  0.0888
    1SOL    MW4 3428   2.465   1.269   1.497  0.3855  0.4983  0.0745
    1SOL     OW 3429   2.470   1.552   1.590  0.5739 -0.0054  0.4209
    1SOL    HW2 3430   2.556   1.591   1.579  0.5954 -0.2925 -0.4418
    1SOL    HW3 3431   2.484   1.459   1.575 -0.4666  0.3339 -3.0684
    1SOL    MW4 3432   2.483   1.545   1.586  0.4394  0.0014 -0.1533
    1SOL     OW 3433   2.236   1.658   1.465  0.7494 -0.3335  0.4705
    1SOL    HW2 3434   2.315   1.623   1.506  1.8336 -0.0731 -1.3589
    1SOL    HW3 3435   2.249   1.644   1.371 -0.7582  0.9597  0.0406
    1SOL    MW4 3436   2.248   1.652   1.458  0.6936 -0.1286  0.1724
    1SOL     OW 3437   2.275   1.921   1.550  0.0421 -0.4145 -0.3424
    1SOL    HW2 3438   2.270   1.907   1.644 -0.5543  0.9727 -0.1595
    1SOL    HW3 3439   2.261   1.834   1.512  1.0754 -1.1234  0.8501
    1SOL    MW4 3440   2.273   1.908   1.557  0.0994 -0.3250 -0.1609
    1SOL     OW 3441   2.468   2.097   1.460  0.2977 -0.3728 -0.4197
    1SOL    HW2 3442   2.393   2.047   1.491  0.3046  0.1526  0.4311
    1SOL    HW3 3443   2.467   2.084   1.365 -1.0316 -0.1393 -0.4465
    1SOL    MW4 3444   2.458   2.089   1.451  0.1230 -0.2725 -0.3110
    1SOL     OW 3445   2.517   2.344   1.577  0.2062  0.0360 -0.0737
    1SOL    HW2 3446   2.501   2.339   1.671 -0.6986 -2.1045 -0.3068
    1SOL    HW3 3447   2.499   2.256   1.545  0.5922  0.7142 -2.2485
    1SOL    MW4 3448   2.513   2.332   1.585  0.1380 -0.1571 -0.3912
    1SOL     OW 3449   2.280   2.431   1.477  0.1338 -0.3036  0.5496
    1SOL    HW2 3450   2.360   2.393   1.515  0.9422 -1.7596 -2.4647
    1SOL    HW3 3451   2.209   2.379   1.514  0.7670 -0.5963  1.3741
    1SOL    MW4 3452   2.281   2.419   1.487  0.3242 -0.5343  0.2607
    1SOL     OW 3453   2.285   2.684   1.602 -0.0164  0.1501 -0.8730
    1SOL    HW2 3454   2.275   2.592   1.578 -0.7985  0.0071 -0.0442
    1SOL    HW3 3455   2.202   2.724   1.575 -0.0192  0.4267 -0.4601
    1SOL    MW4 3456   2.272   2.677   1.595 -0.1199  0.1676 -0.7092
    1SOL     OW 3457   2.477   2.850   1.540 -0.0695 -0.1067  0.1503
    1SOL    HW2 3458   2.474   2.937   1.578 -0.3786 -0.3562  0.7017
    1SOL    HW3 3459   2.391   2.812   1.560 -0.0213 -0.4569 -0.2810
    1SOL    MW4 3460   2.465   2.856   1.547 -0.1042 -0.1855  0.1662
    1SOL     OW 3461   2.446   3.117   1.617  0.2432  0.0130  0.4480
    1SOL    HW2 3462   2.513   3.163   1.567  0.3673  0.8607  1.3666
    1SOL    HW3 3463   2.366   3.166   1.601 -0.3526 -1.4529 -1.2723
    1SOL    MW4 3464   2.444   3.130   1.608  0.1810 -0.0684  0.3421
    1SOL     OW 3465   2.226   3.256   1.530 -0.0259 -0.3123 -0.1728
    1SOL    HW2 3466   2.220   3.350   1.546 -0.5134 -0.5311  0.9507
    1SOL    HW3 3467   2.243   3.249   1.436 -0.7233  0.8818 -0.4006
    1SOL    MW4 3468   2.227   3.268   1.519 -0.1822 -0.1836 -0.0546
    1SOL     OW 3469   2.192   3.542   1.618 -0.0475  0.2160  0.6723
    1SOL    HW2 3470   2.184   3.516   1.710  0.1170  1.8682  1.1659
    1SOL    HW3 3471   2.286   3.542   1.600 -0.0699  0.0595  0.5549
    1SOL    MW4 3472   2.203   3.539   1.628 -0.0288  0.4137  0.7218
    1SOL     OW 3473   2.450   3.586   1.538  0.2222 -0.4028  0.1290
    1SOL    HW2 3474   2.531   3.544   1.567 -0.9851 -1.6598  1.7072
    1SOL    HW3 3475   2.461   3.678   1.563  1.1235 -0.5703  0.3780
    1SOL    MW4 3476   2.462   3.593   1.545  0.1817 -0.5908  0.3701
    1SOL     OW 3477   2.487   3.848   1.595 -0.2114  0.0039  0.5317
    1SOL    HW2 3478   2.489   3.864   1.689  1.9110  0.0393  0.5103
    1SOL    HW3 3479   2.575   3.872   1.565 -1.5604  2.2637 -1.8530
    1SOL    MW4 3480   2.499   3.853   1.603 -0.1094  0.3066  0.2142
    1SOL     OW 3481   2.260   3.983   1.517  0.0270  0.1211  0.2845
    1SOL    HW2 3482   2.347   3.947   1.534  0.2583  0.3679 -0.3624
    1SOL    HW3 3483   2.251   3.979   1.422 -0.4298  0.6551  0.3033
    1SOL    MW4 3484   2.270   3.977   1.507 -0.0026  0.2241  0.2015
    1SOL     OW 3485   2.237   4.256   1.587  0.0811 -0.4326 -0.0617
    1SOL    HW2 3486   2.326   4.287   1.570 -0.0731  0.2298  0.3091
    1SOL    HW3 3487   2.240   4.163   1.567  0.9396 -0.4802  0.2420
    1SOL    MW4 3488   2.249   4.248   1.582  0.1740 -0.3514  0.0273
    1SOL     OW 3489   2.478   4.357   1.531  0.0821 -0.3135 -0.1415
    1SOL    HW2 3490   2.475   4.439   1.580 -1.1826 -0.6959  0.4237
    1SOL    HW3 3491   2.482   4.384   1.439  1.0569  0.3879  0.0973
    1SOL    MW4 3492   2.478   4.371   1.526  0.0439 -0.2713 -0.0354
    1SOL     OW 3493   2.894   4.633   1.601 -0.1462  0.6412  0.5148
    1SOL    HW2 3494   2.899   4.651   1.694  0.3641  0.9067  0.4398
    1SOL    HW3 3495   2.813   4.676   1.572  0.1350  1.2823  0.6764
    1SOL    MW4 3496   2.884   4.641   1.609 -0.0417  0.7615  0.5262
    1SOL     OW 3497   2.648   0.086   1.504  0.0975 -0.2281 -0.1890
    1SOL    HW2 3498   2.652   0.171   1.549  0.2355 -0.8273  0.9740
    1SOL    HW3 3499   2.572   0.042   1.543 -0.1813 -0.5011 -1.0361
    1SOL    MW4 3500   2.638   0.091   1.515  0.0789 -0.3432 -0.1475
    1SOL     OW 3501   2.664   0.331   1.634 -0.0346  0.5435  0.3422
    1SOL    HW2 3502   2.660   0.363   1.724 -1.3099  0.5182  0.3091
    1SOL    HW3 3503   2.747   0.364   1.601 -1.0611  3.4906  0.4762
    1SOL    MW4 3504   2.674   0.340   1.641 -0.3383  0.9290  0.3554
    1SOL     OW 3505   2.866   0.483   1.499  0.1749 -0.0344  0.3037
    1SOL    HW2 3506   2.887   0.573   1.523 -2.4122  0.6251  0.2308
    1SOL    HW3 3507   2.878   0.481   1.404 -0.3859  0.3998  0.2240
    1SOL    MW4 3508   2.871   0.494   1.490 -0.2403  0.1099  0.2835
    1SOL     OW 3509   2.943   0.724   1.576  0.2778 -0.1765 -0.2531
    1SOL    HW2 3510   2.925   0.708   1.669  1.7912  0.7324  0.2175
    1SOL    HW3 3511   2.871   0.780   1.547  0.2935  0.2962  0.6124
    1SOL    MW4 3512   2.931   0.729   1.585  0.4797  0.0058 -0.0769
    1SOL     OW 3513   2.742   0.897   1.499 -0.4669  0.1410 -0.3618
    1SOL    HW2 3514   2.656   0.881   1.537 -0.0001 -2.0306 -0.1394
    1SOL    HW3 3515   2.726   0.905   1.405 -0.8842 -0.6669 -0.3676
    1SOL    MW4 3516   2.729   0.896   1.492 -0.4604 -0.2521 -0.3333
    1SOL     OW 3517   2.724   1.166   1.584 -0.3216  0.0098  0.0011
    1SOL    HW2 3518   2.731   1.088   1.529 -0.5819 -0.9003  1.2412
    1SOL    HW3 3519   2.639   1.203   1.562 -1.2412 -1.3863  1.1033
    1SOL    MW4 3520   2.714   1.161   1.574 -0.4773 -0.2944  0.3102
    1SOL     OW 3521   2.941   1.281   1.481 -0.0749 -0.4681 -0.3046
    1SOL    HW2 3522   3.024   1.258   1.521  0.2152 -1.4120 -1.4117
    1SOL    HW3 3523   2.876   1.231   1.531 -0.1846  1.5800  1.6550
    1SOL    MW4 3524   2.943   1.271   1.493 -0.0513 -0.3225 -0.1923
    1SOL     OW 3525   2.930   1.532   1.636 -0.2061  0.1720  0.5502
    1SOL    HW2 3526   2.869   1.597   1.601  0.4977  0.7958  0.4757
    1SOL    HW3 3527   2.895   1.448   1.607 -0.1840  0.6201 -0.7900
    1SOL    MW4 3528   2.917   1.529   1.628 -0.1106  0.3134  0.3636
    1SOL     OW 3529   2.711   1.683   1.535  0.5527  0.4185  0.0174
    1SOL    HW2 3530   2.723   1.775   1.556 -0.4193  0.4944  0.2614
    1SOL    HW3 3531   2.722   1.678   1.440 -2.3799  1.3010 -0.4170
    1SOL    MW4 3532   2.714   1.694   1.525  0.0377  0.5450 -0.0077
    1SOL     OW 3533   2.691   1.957   1.597  0.4785 -0.2047  0.2793
    1SOL    HW2 3534   2.670   1.967   1.690  1.2207 -0.6098  0.4926
    1SOL    HW3 3535   2.620   2.003   1.552  0.3290  0.3416  1.0547
    1SOL    MW4 3536   2.679   1.964   1.603  0.5567 -0.1862  0.4097
    1SOL     OW 3537   2.918   2.087   1.508 -0.1720  0.0043  0.0562
    1SOL    HW2 3538   2.916   2.181   1.526 -0.7588  0.3389 -1.7076
    1SOL    HW3 3539   2.843   2.052   1.556  0.2283  0.3820  0.9734
    1SOL    MW4 3540   2.908   2.095   1.516 -0.1967  0.0985 -0.0556
    1SOL     OW 3541   2.932   2.377   1.554  0.1612  0.2750 -0.1361
    1SOL    HW2 3542   2.921   2.368   1.648  1.6662 -0.3169 -0.0087
    1SOL    HW3 3543   2.846   2.406   1.522 -0.8793 -1.3443  1.1713
    1SOL    MW4 3544   2.919   2.380   1.562  0.2224 -0.0167  0.0532
    1SOL     OW 3545   2.706   2.488   1.445 -0.2609  0.2926 -0.0294
    1SOL    HW2 3546   2.705   2.573   1.488 -1.3498  1.8476 -3.0322
    1SOL    HW3 3547   2.629   2.442   1.480  0.5585  0.3405  1.8946
    1SOL    MW4 3548   2.696   2.493   1.455 -0.2961  0.5040 -0.1718
    1SOL     OW 3549   2.724   2.757   1.607 -0.0528  0.1240 -0.1660
    1SOL    HW2 3550   2.796   2.808   1.571  0.8580 -0.9944  0.0131
    1SOL    HW3 3551   2.645   2.800   1.576  0.7068  0.1366 -2.1486
    1SOL    MW4 3552   2.723   2.769   1.598  0.1678 -0.0219 -0.4039
    1SOL     OW 3553   2.923   2.893   1.473 -0.4721  0.3479 -0.4161
    1SOL    HW2 3554   2.996   2.845   1.511  0.0467  0.7695 -0.8616
    1SOL    HW3 3555   2.916   2.972   1.527 -0.7079  0.2295 -0.2721
    1SOL    MW4 3556   2.932   2.897   1.485 -0.4346  0.3879 -0.4559
    1SOL     OW 3557   2.908   3.157   1.600 -0.3859  0.1264  0.2583
    1SOL    HW2 3558   2.921   3.150   1.695 -1.6661  0.5790  0.4830
    1SOL    HW3 3559   2.996   3.170   1.565  0.0974  0.0432  1.3977
    1SOL    MW4 3560   2.921   3.158   1.608 -0.4911  0.1752  0.4383
    1SOL     OW 3561   2.662   3.239   1.471 -0.1591  0.0982  0.1435
    1SOL    HW2 3562   2.746   3.205   1.502 -0.4977 -0.4074  0.5225
    1SOL    HW3 3563   2.667   3.231   1.376 -0.1849 -0.9173  0.2178
    1SOL    MW4 3564   2.674   3.234   1.463 -0.2072 -0.1025  0.2034
    1SOL     OW 3565   2.695   3.484   1.582  0.0809  0.0528  0.0754
    1SOL    HW2 3566   2.681   3.469   1.676 -0.9996  1.1661  0.1098
    1SOL    HW3 3567   2.690   3.397   1.543  0.2918 -0.3950  1.0184
    1SOL    MW4 3568   2.692   3.470   1.590 -0.0341  0.1407  0.2043
    1SOL     OW 3569   2.948   3.570   1.526 -0.5126  0.2099 -0.0581
    1SOL    HW2 3570   2.863   3.528   1.541  0.5267 -1.6313  0.7898
    1SOL    HW3 3571   2.960   3.569   1.431  0.0983 -2.6653  0.0115
    1SOL    MW4 3572   2.938   3.565   1.516 -0.2949 -0.4122  0.0631
    1SOL     OW 3573   2.954   3.822   1.619 -0.5688  0.1096  0.3342
    1SOL    HW2 3574   2.878   3.862   1.577 -0.4711 -1.3326 -1.2559
    1SOL    HW3 3575   2.950   3.730   1.594  1.9616  0.1035 -0.1590
    1SOL    MW4 3576   2.944   3.815   1.610 -0.2220 -0.0815  0.0592
    1SOL     OW 3577   2.737   3.942   1.495  0.5365  0.5670  0.3440
    1SOL    HW2 3578   2.723   4.027   1.537  0.2445  1.0273 -0.6721
    1SOL    HW3 3579   2.731   3.960   1.402  0.0173 -0.6660  0.1325
    1SOL    MW4 3580   2.735   3.956   1.489  0.4294  0.4652  0.1820
    1SOL     OW 3581   2.683   4.193   1.617  0.0752 -0.2015 -0.4087
    1SOL    HW2 3582   2.761   4.241   1.586  0.2977 -0.1053  0.2810
    1SOL    HW3 3583   2.609   4.248   1.589  0.3293  0.5549  0.3844
    1SOL    MW4 3584   2.684   4.207   1.609  0.1380 -0.0887 -0.2130
    1SOL     OW 3585   2.855   4.373   1.503  0.4785  0.0946 -0.1280
    1SOL    HW2 3586   2.870   4.465   1.523  1.6345  0.0137 -0.5969
    1SOL    HW3 3587   2.874   4.365   1.410  0.0140 -0.5422 -0.1723
    1SOL    MW4 3588   2.859   4.384   1.493  0.5698 -0.0005 -0.1957
    1SOL     OW 3589   3.305   0.008   1.607 -0.1407  0.3243  0.0401
    1SOL    HW2 3590   3.383   0.057   1.580 -0.0519  0.4927  0.5882
    1SOL    HW3 3591   3.314  -0.077   1.564  1.0704 -0.1672  1.2265
    1SOL    MW4 3592   3.317   0.003   1.598  0.0312  0.2817  0.2689
    1SOL     OW 3593   3.082   0.138   1.518 -0.2302 -0.1257  0.0849
    1SOL    HW2 3594   3.163   0.092   1.541 -0.2088 -0.5978 -0.8999
    1SOL    HW3 3595   3.012   0.077   1.543 -0.2054 -0.6538 -1.1107
    1SOL    MW4 3596   3.084   0.124   1.525 -0.2241 -0.2577 -0.2028
    1SOL     OW 3597   3.117   0.403   1.607  0.0415 -0.6671  0.0129
    1SOL    HW2 3598   3.103   0.314   1.572  0.0215 -1.0679  1.0283
    1SOL    HW3 3599   3.037   0.450   1.584  0.5303 -0.5622 -1.5668
    1SOL    MW4 3600   3.105   0.397   1.599  0.1032 -0.7062 -0.0616
    1SOL     OW 3601   3.344   0.515   1.503  0.1744  0.3818 -0.4913
    1SOL    HW2 3602   3.263   0.475   1.535  0.2045  0.4233 -0.3663
    1SOL    HW3 3603   3.354   0.479   1.414 -0.2331  0.7494 -0.6893
    1SOL    MW4 3604   3.334   0.505   1.495  0.1245  0.4357 -0.5009
    1SOL     OW 3605   3.404   0.769   1.595  0.0968 -0.0750  0.0450
    1SOL    HW2 3606   3.400   0.755   1.690 -1.1533  0.3694  0.0727
    1SOL    HW3 3607   3.385   0.684   1.557 -0.2043 -0.0748  0.1956
    1SOL    MW4 3608   3.401   0.756   1.603 -0.1080 -0.0163  0.0685
    1SOL     OW 3609   3.140   0.887   1.497 -0.2313 -0.2122  0.5992
    1SOL    HW2 3610   3.218   0.862   1.546 -0.7341  0.5425  1.8078
    1SOL    HW3 3611   3.070   0.832   1.532 -0.7094  0.7152  1.1314
    1SOL    MW4 3612   3.141   0.877   1.508 -0.3607  0.0098  0.8287
    1SOL     OW 3613   3.175   1.139   1.576  0.4347  0.3969  0.2122
    1SOL    HW2 3614   3.164   1.126   1.670  0.2364  0.1476  0.1560
    1SOL    HW3 3615   3.154   1.054   1.538 -0.1501  0.6902 -0.1128
    1SOL    MW4 3616   3.171   1.126   1.584  0.3312  0.4027  0.1620
    1SOL     OW 3617   3.404   1.273   1.496 -0.1478 -0.0317  0.0049
    1SOL    HW2 3618   3.482   1.233   1.533 -0.5523 -1.4962 -0.6691
    1SOL    HW3 3619   3.333   1.214   1.520 -1.1861  1.6558  1.2390
    1SOL    MW4 3620   3.405   1.260   1.504 -0.3383 -0.0021  0.0788
    1SOL     OW 3621   3.387   1.544   1.585  0.1390 -0.1112 -0.3134
    1SOL    HW2 3622   3.383   1.519   1.677 -0.3217 -0.7559 -0.5146
    1SOL    HW3 3623   3.393   1.462   1.537  0.9111  0.2393 -0.8337
    1SOL    MW4 3624   3.388   1.530   1.591  0.1800 -0.1501 -0.4088
    1SOL     OW 3625   3.151   1.668   1.492  0.5962 -0.0785 -0.2674
    1SOL    HW2 3626   3.233   1.628   1.520  0.0336 -0.9703  0.1240
    1SOL    HW3 3627   3.083   1.616   1.536 -0.2075 -0.0081 -1.4209
    1SOL    MW4 3628   3.152   1.656   1.502  0.4160 -0.1868 -0.3678
    1SOL     OW 3629   3.160   1.933   1.586 -0.1904  0.1694 -0.3143
    1SOL    HW2 3630   3.152   1.842   1.558 -1.3353  0.5499 -1.3134
    1SOL    HW3 3631   3.079   1.974   1.556 -0.2279  1.2493  1.1917
    1SOL    MW4 3632   3.148   1.927   1.578 -0.3464  0.3620 -0.2472
    1SOL     OW 3633   3.416   1.997   1.479 -0.4186 -0.2149 -0.0993
    1SOL    HW2 3634   3.338   1.968   1.527 -0.4859 -1.1897 -0.7706
    1SOL    HW3 3635   3.391   1.992   1.387  0.3567 -0.3299 -0.3106
    1SOL    MW4 3636   3.402   1.992   1.473 -0.3252 -0.3587 -0.2156
    1SOL     OW 3637   3.382   2.273   1.580  0.0434 -0.5907 -0.3788
    1SOL    HW2 3638   3.464   2.312   1.551 -1.1171  1.3646 -1.1618
    1SOL    HW3 3639   3.387   2.181   1.552  1.7637 -0.3826 -0.7773
    1SOL    MW4 3640   3.394   2.266   1.573  0.1171 -0.3052 -0.5348
    1SOL     OW 3641   3.174   2.440   1.469 -0.1996 -0.6897 -0.4258
    1SOL    HW2 3642   3.245   2.383   1.499  0.7228  0.7833  0.2814
    1SOL    HW3 3643   3.094   2.400   1.504  0.5165 -1.0578  0.8122
    1SOL    MW4 3644   3.173   2.427   1.477  0.0165 -0.5438 -0.1693
    1SOL     OW 3645   3.126   2.716   1.544 -0.3041  0.8509 -0.1665
    1SOL    HW2 3646   3.212   2.754   1.524  0.1125 -0.0588 -0.1774
    1SOL    HW3 3647   3.135   2.624   1.518 -1.4668  0.8767 -0.6806
    1SOL    MW4 3648   3.139   2.709   1.538 -0.4027  0.7343 -0.2358
    1SOL     OW 3649   3.390   2.815   1.522  0.2729 -0.0065 -0.0763
    1SOL    HW2 3650   3.391   2.898   1.571 -0.1059 -0.0864  0.0725
    1SOL    HW3 3651   3.384   2.842   1.430  1.7751  0.1606 -0.1436
    1SOL    MW4 3652   3.389   2.830   1.516  0.4213  0.0052 -0.0654
    1SOL     OW 3653   3.378   3.093   1.607 -0.0833  0.3201  0.2131
    1SOL    HW2 3654   3.398   3.108   1.699  0.5534  1.3446 -0.0874
    1SOL    HW3 3655   3.434   3.155   1.559  0.2212 -0.7778 -0.8998
    1SOL    MW4 3656   3.388   3.103   1.613  0.0410  0.3104  0.0266
    1SOL     OW 3657   3.150   3.219   1.507  0.6323  0.2309  0.8904
    1SOL    HW2 3658   3.154   3.303   1.551 -0.1380  0.0874  1.2427
    1SOL    HW3 3659   3.227   3.172   1.538  0.1464  0.1630  2.0286
    1SOL    MW4 3660   3.161   3.224   1.517  0.4663  0.2031  1.0871
    1SOL     OW 3661   3.176   3.465   1.640 -0.0082 -0.0223  0.0525
    1SOL    HW2 3662   3.162   3.461   1.734  1.2086  0.0628  0.2449
    1SOL    HW3 3663   3.097   3.508   1.606 -0.8327 -0.8158  0.9251
    1SOL    MW4 3664   3.163   3.470   1.648  0.0436 -0.1161  0.1931
    1SOL     OW 3665   3.376   3.619   1.540 -0.2776 -0.3107  0.4039
    1SOL    HW2 3666   3.457   3.571   1.558 -0.2806 -0.4029  0.1781
    1SOL    HW3 3667   3.307   3.564   1.577 -0.0178  1.0750  3.0176
    1SOL    MW4 3668   3.377   3.605   1.547 -0.2437 -0.1402  0.7188
    1SOL     OW 3669   3.396   3.901   1.611  0.4380  0.6280 -0.1777
    1SOL    HW2 3670   3.311   3.922   1.572  0.6633  0.1332 -0.9353
    1SOL    HW3 3671   3.417   3.814   1.579  1.4599  0.9403 -0.3763
    1SOL    MW4 3672   3.387   3.893   1.602  0.6027  0.6037 -0.3039
    1SOL     OW 3673   3.162   3.992   1.492  0.4422  0.0700 -0.2414
    1SOL    HW2 3674   3.144   4.079   1.528 -0.6930  0.0287 -0.6999
    1SOL    HW3 3675   3.100   3.935   1.536  1.0589 -0.4837 -0.0865
    1SOL    MW4 3676   3.152   3.996   1.503  0.3738 -0.0086 -0.2815
    1SOL     OW 3677   3.102   4.273   1.570  0.1942  0.0804 -0.5822
    1SOL    HW2 3678   3.114   4.284   1.664 -0.6660 -2.1962 -0.1758
    1SOL    HW3 3679   3.021   4.321   1.551  0.5847  0.8922 -0.2675
    1SOL    MW4 3680   3.093   4.281   1.580  0.1323 -0.1125 -0.4870
    1SOL     OW 3681   3.317   4.430   1.495 -0.5135 -0.2344 -0.3648
    1SOL    HW2 3682   3.242   4.375   1.516 -0.6206  0.1467  0.2420
    1SOL    HW3 3683   3.337   4.410   1.403 -0.3328 -1.5469 -0.0459
    1SOL    MW4 3684   3.310   4.420   1.485 -0.5038 -0.3572 -0.2427
    1SOL     OW 3685   3.802   0.036   1.597  0.5321 -0.3032 -0.1193
    1SOL    HW2 3686   3.816   0.037   1.691  0.1619  0.1233 -0.0653
    1SOL    HW3 3687   3.889   0.044   1.559  0.4593  2.8720  0.2084
    1SOL    MW4 3688   3.815   0.037   1.604  0.4737  0.1721 -0.0689
    1SOL     OW 3689   3.536   0.133   1.512 -0.3341 -0.5058 -0.5348
    1SOL    HW2 3690   3.615   0.091   1.547  0.5471  0.3938 -1.3955
    1SOL    HW3 3691   3.552   0.139   1.418 -1.6077 -0.6507 -0.7691
    1SOL    MW4 3692   3.549   0.128   1.504 -0.3858 -0.4062 -0.6793
    1SOL     OW 3693   3.583   0.386   1.601  0.1625  0.0435 -0.2031
    1SOL    HW2 3694   3.562   0.298   1.567  1.8302 -0.6541  0.5466
    1SOL    HW3 3695   3.510   0.440   1.572 -1.5116 -1.8449  0.3530
    1SOL    MW4 3696   3.570   0.381   1.592  0.1616 -0.2977 -0.0309
    1SOL     OW 3697   3.837   0.502   1.513 -0.0567  0.4033 -0.1133
    1SOL    HW2 3698   3.759   0.452   1.537 -0.7116  0.1787 -2.5650
    1SOL    HW3 3699   3.835   0.504   1.417  2.8074  0.6390 -0.1929
    1SOL    MW4 3700   3.826   0.496   1.504  0.2351  0.4048 -0.4473
    1SOL     OW 3701   3.824   0.746   1.635 -0.0876  0.0807 -0.0278
    1SOL    HW2 3702   3.752   0.790   1.589 -0.9534 -0.4764  0.7741
    1SOL    HW3 3703   3.819   0.655   1.604 -0.6965 -0.3045  1.1718
    1SOL    MW4 3704   3.814   0.740   1.625 -0.2820 -0.0437  0.2363
    1SOL     OW 3705   3.628   0.888   1.511  0.0316  0.2983  0.1779
    1SOL    HW2 3706   3.548   0.838   1.527 -0.1846  0.8848  0.9865
    1SOL    HW3 3707   3.638   0.888   1.416 -1.8812  1.6776 -0.0622
    1SOL    MW4 3708   3.619   0.881   1.500 -0.2494  0.5578  0.2530
    1SOL     OW 3709   3.627   1.153   1.606  0.5421 -0.2928 -0.6328
    1SOL    HW2 3710   3.708   1.188   1.568  1.3432 -0.7050  0.6423
    1SOL    HW3 3711   3.618   1.066   1.567  0.2358  0.1052 -1.4486
    1SOL    MW4 3712   3.637   1.146   1.596  0.6075 -0.2948 -0.5722
    1SOL     OW 3713   3.835   1.287   1.495 -0.1136  0.0523  0.1898
    1SOL    HW2 3714   3.910   1.240   1.530 -0.9993 -0.8269  0.9553
    1SOL    HW3 3715   3.844   1.377   1.527  1.9906  0.6118 -1.8874
    1SOL    MW4 3716   3.846   1.292   1.504  0.0472  0.0101  0.0166
    1SOL     OW 3717   3.839   1.538   1.612 -0.2469  0.4163  0.5422
    1SOL    HW2 3718   3.825   1.549   1.707 -2.6872 -0.6347  0.3441
    1SOL    HW3 3719   3.770   1.590   1.572 -0.0607 -0.2411 -0.6477
    1SOL    MW4 3720   3.828   1.546   1.620 -0.5441  0.1909  0.3591
    1SOL     OW 3721   3.626   1.660   1.494 -0.1970  0.5751 -0.8704
    1SOL    HW2 3722   3.553   1.612   1.534  1.1680 -0.8507 -0.0861
    1SOL    HW3 3723   3.616   1.644   1.400 -0.4941 -0.1818 -0.7142
    1SOL    MW4 3724   3.615   1.652   1.487 -0.0558  0.2871 -0.7464
    1SOL     OW 3725   3.663   1.908   1.583  0.0400  0.0940  0.0501
    1SOL    HW2 3726   3.651   1.815   1.562 -0.4088 -0.2140  1.6050
    1SOL    HW3 3727   3.598   1.953   1.529 -0.2515 -0.5643 -0.1524
    1SOL    MW4 3728   3.653   1.902   1.573 -0.0579 -0.0335  0.2285
    1SOL     OW 3729   3.889   2.051   1.475 -0.1334  0.1865 -0.8258
    1SOL    HW2 3730   3.874   2.143   1.496  0.2956  0.3869 -1.3760
    1SOL    HW3 3731   3.821   2.004   1.522 -1.1860  0.8999 -1.6225
    1SOL    MW4 3732   3.878   2.057   1.484 -0.2158  0.3071 -1.0036
    1SOL     OW 3733   3.844   2.294   1.558  0.1051 -0.3094 -0.5609
    1SOL    HW2 3734   3.836   2.306   1.652 -0.0197  0.7441 -0.7033
    1SOL    HW3 3735   3.929   2.333   1.535  0.0225 -0.3352 -0.9227
    1SOL    MW4 3736   3.854   2.301   1.567  0.0775 -0.1738 -0.6275
    1SOL     OW 3737   3.602   2.399   1.456  0.3129 -0.1195 -0.2726
    1SOL    HW2 3738   3.609   2.476   1.512  0.3975  0.2102 -0.7379
    1SOL    HW3 3739   3.688   2.358   1.461 -0.1578 -0.9834  1.1192
    1SOL    MW4 3740   3.614   2.404   1.464  0.2620 -0.1898 -0.1504
    1SOL     OW 3741   3.598   2.659   1.572  0.1168  0.0544 -0.1615
    1SOL    HW2 3742   3.605   2.655   1.668 -0.8978  1.1686 -0.0376
    1SOL    HW3 3743   3.519   2.710   1.555  0.1774 -0.2994 -1.6058
    1SOL    MW4 3744   3.589   2.665   1.582 -0.0093  0.1545 -0.3358
    1SOL     OW 3745   3.803   2.843   1.533  0.0390 -0.1674 -0.0478
    1SOL    HW2 3746   3.880   2.800   1.571  0.1510  0.4247  0.4159
    1SOL    HW3 3747   3.731   2.782   1.548 -0.0931  0.4112  1.9287
    1SOL    MW4 3748   3.804   2.829   1.540  0.0362 -0.0131  0.2742
    1SOL     OW 3749   3.782   3.102   1.589  0.0856  0.2472 -0.0608
    1SOL    HW2 3750   3.869   3.131   1.563 -0.2224 -0.6306 -2.2191
    1SOL    HW3 3751   3.784   3.007   1.578 -1.5458  0.3519 -1.4831
    1SOL    MW4 3752   3.794   3.093   1.584 -0.1705  0.1452 -0.5332
    1SOL     OW 3753   3.574   3.269   1.500 -0.3053 -0.2477 -0.0636
    1SOL    HW2 3754   3.651   3.222   1.530  0.2691  1.3304  1.0066
    1SOL    HW3 3755   3.571   3.254   1.405  1.0799 -0.6448 -0.0459
    1SOL    MW4 3756   3.584   3.261   1.491 -0.0467 -0.0916  0.0799
    1SOL     OW 3757   3.608   3.511   1.646 -0.1612  0.2503  0.0267
    1SOL    HW2 3758   3.690   3.543   1.608 -0.7059  2.0645  0.3000
    1SOL    HW3 3759   3.597   3.423   1.610  1.6771  0.1555 -0.3466
    1SOL    MW4 3760   3.617   3.504   1.636  0.0095  0.4773  0.0135
    1SOL     OW 3761   3.846   3.619   1.503 -0.2059  0.2408 -0.0663
    1SOL    HW2 3762   3.921   3.566   1.532 -1.1459 -0.5063  1.0303
    1SOL    HW3 3763   3.850   3.698   1.557  2.2118  2.1548 -2.8901
    1SOL    MW4 3764   3.856   3.622   1.514 -0.0110  0.3946 -0.2941
    1SOL     OW 3765   3.772   3.859   1.648 -0.1803 -0.0729  0.2300
    1SOL    HW2 3766   3.856   3.900   1.625 -0.6762  0.6767 -0.2615
    1SOL    HW3 3767   3.708   3.904   1.593 -0.9667 -0.3520  0.9155
    1SOL    MW4 3768   3.775   3.870   1.637 -0.3493 -0.0107  0.2556
    1SOL     OW 3769   3.583   4.035   1.449  0.2085 -0.1773 -0.0310
    1SOL    HW2 3770   3.575   4.127   1.474 -0.4412 -0.5705  1.2454
    1SOL    HW3 3771   3.521   3.989   1.506  1.3948 -1.5487  0.1942
    1SOL    MW4 3772   3.574   4.041   1.460  0.2792 -0.4101  0.1673
    1SOL     OW 3773   3.554   4.312   1.565  0.6583 -0.0602 -0.1374
    1SOL    HW2 3774   3.554   4.298   1.660  0.0379 -1.2338 -0.2959
    1SOL    HW3 3775   3.466   4.345   1.546  0.9888  0.7845 -0.2320
    1SOL    MW4 3776   3.542   4.314   1.575  0.6201 -0.1035 -0.1709
    1SOL     OW 3777   3.798   4.434   1.528  0.3996 -0.2408 -0.3043
    1SOL    HW2 3778   3.711   4.405   1.554  1.0909 -1.4823  0.7214
    1SOL    HW3 3779   3.795   4.529   1.533 -0.6655 -0.3128  0.4704
    1SOL    MW4 3780   3.786   4.442   1.532  0.3502 -0.4144 -0.0668
    1SOL     OW 3781   4.289   0.000   1.624 -0.2766 -0.0453 -0.0022
    1SOL    HW2 3782   4.289  -0.022   1.717  2.0774 -1.5991 -0.3396
    1SOL    HW3 3783   4.285  -0.084   1.579  1.9455  0.5081 -1.3037
    1SOL    MW4 3784   4.288  -0.014   1.630  0.3266 -0.1769 -0.2183
    1SOL     OW 3785   4.058   0.090   1.492 -0.3185  0.1219 -0.7344
    1SOL    HW2 3786   4.055   0.184   1.511  1.8257  0.6723 -2.8520
    1SOL    HW3 3787   4.130   0.057   1.545 -0.2348 -0.0916 -0.9797
    1SOL    MW4 3788   4.067   0.098   1.502 -0.0238  0.1664 -1.0459
    1SOL     OW 3789   4.061   0.356   1.578  0.1899  0.5939 -0.0114
    1SOL    HW2 3790   4.055   0.352   1.674  1.7646  0.6947  0.1050
    1SOL    HW3 3791   3.982   0.403   1.551 -1.0063 -0.7182  1.1246
    1SOL    MW4 3792   4.050   0.362   1.587  0.2398  0.4341  0.1539
    1SOL     OW 3793   4.259   0.544   1.524  0.1452  0.3520  0.0917
    1SOL    HW2 3794   4.199   0.482   1.565 -1.2177  1.0820 -0.7614
    1SOL    HW3 3795   4.347   0.510   1.544 -0.5522 -0.8777  1.1078
    1SOL    MW4 3796   4.263   0.531   1.532 -0.1264  0.2860  0.1132
    1SOL     OW 3797   4.229   0.798   1.592 -0.0338  0.5153  0.0616
    1SOL    HW2 3798   4.223   0.705   1.569 -1.0099  0.7796 -0.7911
    1SOL    HW3 3799   4.317   0.824   1.566  0.7422 -0.5096  1.6133
    1SOL    MW4 3800   4.240   0.789   1.586 -0.0601  0.4149  0.1538
    1SOL     OW 3801   4.014   0.870   1.459  0.6411 -0.2414 -0.1689
    1SOL    HW2 3802   4.098   0.844   1.497  0.2443 -0.3222  0.6850
    1SOL    HW3 3803   3.952   0.808   1.496  0.1800 -0.0687 -0.6573
    1SOL    MW4 3804   4.017   0.858   1.469  0.5279 -0.2292 -0.1208
    1SOL     OW 3805   4.046   1.131   1.595 -0.1236 -0.1700  0.1298
    1SOL    HW2 3806   4.046   1.126   1.690  0.8561  0.5013  0.1616
    1SOL    HW3 3807   4.047   1.039   1.566 -0.1845 -0.3682  0.7512
    1SOL    MW4 3808   4.046   1.118   1.604 -0.0024 -0.1076  0.2159
    1SOL     OW 3809   4.259   1.269   1.511 -0.0199  0.4200  0.0522
    1SOL    HW2 3810   4.186   1.219   1.547  0.2391 -0.0028 -0.0028
    1SOL    HW3 3811   4.336   1.235   1.558  0.1242  0.9526  0.2068
    1SOL    MW4 3812   4.260   1.258   1.522  0.0329  0.4345  0.0653
    1SOL     OW 3813   4.251   1.526   1.614 -0.4085 -0.6286  0.4115
    1SOL    HW2 3814   4.249   1.437   1.579 -0.4469 -0.6616  0.4961
    1SOL    HW3 3815   4.330   1.565   1.577 -1.3590 -0.0839 -1.1031
    1SOL    MW4 3816   4.261   1.519   1.605 -0.5383 -0.5610  0.2229
    1SOL     OW 3817   4.050   1.694   1.579 -0.2619 -0.0998  0.1679
    1SOL    HW2 3818   4.116   1.626   1.595  1.2204  0.9551 -1.3292
    1SOL    HW3 3819   3.967   1.654   1.606  0.6573 -2.3137 -0.2000
    1SOL    MW4 3820   4.048   1.680   1.585  0.0544 -0.2526 -0.0782
    1SOL     OW 3821   4.103   1.961   1.636 -0.0026  0.2279  0.3980
    1SOL    HW2 3822   4.098   1.866   1.633  1.0388  0.1836 -0.5194
    1SOL    HW3 3823   4.032   1.991   1.580 -0.8319  0.0142  1.3251
    1SOL    MW4 3824   4.093   1.953   1.628  0.0248  0.1938  0.3992
    1SOL     OW 3825   4.335   2.050   1.526  0.1746  0.0710  0.1922
    1SOL    HW2 3826   4.254   2.015   1.565 -0.2012 -0.2699 -0.8625
    1SOL    HW3 3827   4.312   2.066   1.434  1.9308 -2.1192 -0.6679
    1SOL    MW4 3828   4.321   2.048   1.519  0.3567 -0.2630 -0.0604
    1SOL     OW 3829   4.283   2.304   1.622  0.0555 -0.1498 -0.3031
    1SOL    HW2 3830   4.281   2.300   1.718 -0.8525  0.8725 -0.2731
    1SOL    HW3 3831   4.320   2.219   1.596 -1.7047 -1.3176  0.8840
    1SOL    MW4 3832   4.288   2.292   1.631 -0.2961 -0.1688 -0.1425
    1SOL     OW 3833   4.076   2.447   1.508  0.1879 -0.0583  0.0264
    1SOL    HW2 3834   4.064   2.526   1.561  0.9325  0.1570 -0.1313
    1SOL    HW3 3835   4.139   2.394   1.557  0.5968 -0.0243 -0.4641
    1SOL    MW4 3836   4.082   2.450   1.521  0.3395 -0.0255 -0.0592
    1SOL     OW 3837   4.031   2.698   1.608 -0.4060  0.0498 -0.2506
    1SOL    HW2 3838   4.047   2.705   1.702 -2.8056 -2.7308  0.4492
    1SOL    HW3 3839   4.110   2.734   1.567  1.5460 -0.5814  2.8108
    1SOL    MW4 3840   4.043   2.704   1.615 -0.4654 -0.4005  0.2457
    1SOL     OW 3841   4.259   2.802   1.475 -0.6169  0.2941 -0.0486
    1SOL    HW2 3842   4.262   2.891   1.509  0.1662  0.1741  0.1935
    1SOL    HW3 3843   4.226   2.812   1.386 -0.9554  0.7797  0.1253
    1SOL    MW4 3844   4.255   2.815   1.468 -0.5584  0.3426  0.0062
    1SOL     OW 3845   4.262   3.063   1.592 -0.6293  0.3292  0.3356
    1SOL    HW2 3846   4.268   3.059   1.688 -1.5530 -0.2722  0.3843
    1SOL    HW3 3847   4.310   3.142   1.568 -0.3758  0.4799  1.3015
    1SOL    MW4 3848   4.269   3.073   1.601 -0.7172  0.2697  0.4696
    1SOL     OW 3849   4.028   3.221   1.512 -0.1694 -0.1866  0.1084
    1SOL    HW2 3850   4.029   3.306   1.557  0.4085 -0.7018  1.0847
    1SOL    HW3 3851   4.105   3.176   1.545  0.1555 -0.6653 -1.2575
    1SOL    MW4 3852   4.038   3.226   1.522 -0.0501 -0.3181  0.0569
    1SOL     OW 3853   4.066   3.497   1.630  0.4128 -0.3570  0.0284
    1SOL    HW2 3854   4.074   3.513   1.724  0.0055 -0.4666  0.0858
    1SOL    HW3 3855   4.146   3.534   1.592  0.2471  0.3315  0.3364
    1SOL    MW4 3856   4.077   3.504   1.638  0.3371 -0.2806  0.0765
    1SOL     OW 3857   4.291   3.610   1.500  0.6066 -0.2590  0.1974
    1SOL    HW2 3858   4.303   3.703   1.518  1.4818 -0.4775  0.7946
    1SOL    HW3 3859   4.274   3.605   1.406  1.4660  0.4167  0.0070
    1SOL    MW4 3860   4.290   3.622   1.490  0.8354 -0.1986  0.2509
    1SOL     OW 3861   4.254   3.860   1.595  0.1711  0.3057 -0.1555
    1SOL    HW2 3862   4.165   3.881   1.568  0.5257  1.3190 -0.5592
    1SOL    HW3 3863   4.309   3.923   1.548  1.2271 -1.1920 -0.9962
    1SOL    MW4 3864   4.250   3.871   1.585  0.3572  0.2420 -0.3196
    1SOL     OW 3865   4.006   3.979   1.544  0.0718 -0.0055 -0.3745
    1SOL    HW2 3866   4.018   4.070   1.570  0.6591 -0.1266 -0.2025
    1SOL    HW3 3867   3.996   3.982   1.449  1.2277  0.1453 -0.5095
    1SOL    MW4 3868   4.007   3.992   1.535  0.3018 -0.0017 -0.3697
    1SOL     OW 3869   4.031   4.259   1.613 -0.1421 -0.0785 -0.2449
    1SOL    HW2 3870   4.035   4.259   1.709  0.1918  0.2905 -0.2564
    1SOL    HW3 3871   3.945   4.298   1.593  0.2986  0.9875 -0.1086
    1SOL    MW4 3872   4.020   4.264   1.623 -0.0401  0.1111 -0.2283
    1SOL     OW 3873   4.260   4.412   1.511  0.1638 -0.6060  0.1934
    1SOL    HW2 3874   4.180   4.363   1.531 -0.7698  0.7155 -0.3072
    1SOL    HW3 3875   4.273   4.400   1.417  0.3343 -0.4612  0.1984
    1SOL    MW4 3876   4.251   4.404   1.501  0.0625 -0.4129  0.1279
    1SOL     OW 3877   0.261   4.619   1.869  0.0463  0.3650 -0.0975
    1SOL    HW2 3878   0.336   4.675   1.889  0.8573  0.3553 -2.8402
    1SOL    HW3 3879   0.243   4.636   1.776 -1.1988 -2.1457 -0.3542
    1SOL    MW4 3880   0.268   4.629   1.859 -0.0109  0.0324 -0.4933
    1SOL     OW 3881   0.025   0.077   1.973 -0.0440  0.2378  0.2975
    1SOL    HW2 3882   0.031   0.165   1.936 -0.4962  0.6340  1.1459
    1SOL    HW3 3883   0.099   0.030   1.935 -1.1256  0.2934 -2.0016
    1SOL    MW4 3884   0.035   0.082   1.963 -0.2464  0.2974  0.1060
    1SOL     OW 3885   0.032   0.352   1.899  0.0784  0.2007 -0.2214
    1SOL    HW2 3886  -0.053   0.380   1.933 -0.0487 -0.1781 -0.2341
    1SOL    HW3 3887   0.095   0.405   1.949 -0.2490  2.1720 -1.8356
    1SOL    MW4 3888   0.029   0.363   1.910  0.0184  0.4108 -0.4359
    1SOL     OW 3889   0.224   0.500   2.028  0.2490 -0.4431  0.2021
    1SOL    HW2 3890   0.308   0.476   1.988 -1.4021 -1.1073 -2.9675
    1SOL    HW3 3891   0.216   0.594   2.013  0.4372 -0.3571  0.6090
    1SOL    MW4 3892   0.234   0.509   2.021  0.0560 -0.5193 -0.1624
    1SOL     OW 3893   0.233   0.769   1.931 -0.4533 -0.3269 -0.2652
    1SOL    HW2 3894   0.316   0.817   1.937  0.5994 -2.2152  0.6536
    1SOL    HW3 3895   0.223   0.751   1.838 -0.6827  1.3355 -0.5817
    1SOL    MW4 3896   0.243   0.773   1.920 -0.3447 -0.3567 -0.1857
    1SOL     OW 3897   4.484   0.905   1.973  0.0003  0.2944 -0.0498
    1SOL    HW2 3898   4.415   0.852   1.934  1.0905 -0.8858 -0.3885
    1SOL    HW3 3899   4.566   0.867   1.941  0.8785  0.3089  2.0900
    1SOL    MW4 3900   4.486   0.893   1.964  0.2599  0.1405  0.1879
    1SOL     OW 3901   0.024   1.163   1.876  0.5071 -0.9060 -0.1850
    1SOL    HW2 3902  -0.053   1.210   1.909  0.1036  0.0042 -2.3110
    1SOL    HW3 3903   0.014   1.074   1.909 -0.2238 -0.2140  1.5269
    1SOL    MW4 3904   0.012   1.158   1.885  0.3573 -0.6946 -0.2396
    1SOL     OW 3905   0.261   1.279   1.963  0.3980 -0.1717  0.1229
    1SOL    HW2 3906   0.254   1.368   1.928  0.4467  0.3353  1.3536
    1SOL    HW3 3907   0.184   1.234   1.928 -0.8599  1.0102  1.2665
    1SOL    MW4 3908   0.250   1.285   1.954  0.2384  0.0511  0.4362
    1SOL     OW 3909   0.264   1.535   1.871 -0.2442  0.0987  0.0878
    1SOL    HW2 3910   0.321   1.592   1.923  1.1788  0.6847 -2.0351
    1SOL    HW3 3911   0.176   1.566   1.890  0.4384  2.3442 -0.2233
    1SOL    MW4 3912   0.260   1.547   1.880  0.0336  0.4723 -0.2334
    1SOL     OW 3913   0.018   1.660   1.946  0.0577  0.3625 -0.1152
    1SOL    HW2 3914   0.017   1.649   2.041 -1.0387 -0.5963 -0.2216
    1SOL    HW3 3915  -0.061   1.614   1.916  0.2556  0.8815 -1.4597
    1SOL    MW4 3916   0.007   1.652   1.955 -0.0609  0.3045 -0.3067
    1SOL     OW 3917   4.488   1.927   1.877 -0.0524 -0.0324  0.3337
    1SOL    HW2 3918   4.429   1.965   1.941 -1.0301 -1.2851  0.2119
    1SOL    HW3 3919   4.507   1.840   1.911  2.7877  0.8221  1.0242
    1SOL    MW4 3920   4.483   1.920   1.890  0.1931 -0.0850  0.4089
    1SOL     OW 3921   0.215   2.045   2.005  0.0919  0.2691  0.3671
    1SOL    HW2 3922   0.226   2.135   1.974  1.5093 -0.0580 -0.1383
    1SOL    HW3 3923   0.144   2.009   1.951 -1.8126  1.6718  1.9084
    1SOL    MW4 3924   0.207   2.052   1.994  0.0276  0.4110  0.5038
    1SOL     OW 3925   0.246   2.291   1.874  0.3103 -0.2188  0.1938
    1SOL    HW2 3926   0.312   2.350   1.910 -0.2841  0.8509 -0.4451
    1SOL    HW3 3927   0.162   2.332   1.895 -0.0729 -0.1070 -1.4625
    1SOL    MW4 3928   0.244   2.304   1.881  0.1813 -0.0629 -0.1091
    1SOL     OW 3929   0.052   2.451   1.952 -0.5593  0.2909 -0.2049
    1SOL    HW2 3930   0.038   2.444   2.046  0.7924 -1.3785 -0.1100
    1SOL    HW3 3931   0.032   2.543   1.932 -0.6078  0.7299  1.7486
    1SOL    MW4 3932   0.048   2.462   1.962 -0.3874  0.1285  0.0653
    1SOL     OW 3933   4.490   2.728   1.902 -0.1046  0.3549  0.1765
    1SOL    HW2 3934   4.414   2.779   1.931 -0.9155 -1.2512  0.8933
    1SOL    HW3 3935   4.488   2.734   1.807 -0.6506  0.9853  0.2250
    1SOL    MW4 3936   4.480   2.736   1.893 -0.2832  0.2263  0.2776
    1SOL     OW 3937   0.239   2.834   1.988  0.6280 -0.6656 -0.2909
    1SOL    HW2 3938   0.241   2.929   1.974  0.9339 -0.3493  1.7641
    1SOL    HW3 3939   0.151   2.808   1.964  0.6366  0.0724 -1.1882
    1SOL    MW4 3940   0.228   2.843   1.983  0.6695 -0.5267 -0.1382
    1SOL     OW 3941   0.246   3.106   1.903 -0.5406  0.0645  0.5390
    1SOL    HW2 3942   0.320   3.161   1.926 -0.2435 -0.1423  0.0760
    1SOL    HW3 3943   0.224   3.131   1.814 -0.1726 -0.8281  0.1953
    1SOL    MW4 3944   0.253   3.116   1.895 -0.4529 -0.0808  0.4327
    1SOL     OW 3945   0.012   3.214   2.025  0.0644 -0.1468  0.2331
    1SOL    HW2 3946  -0.055   3.184   1.964 -0.7174  1.2465  0.3922
    1SOL    HW3 3947   0.094   3.177   1.991 -0.5542 -0.4833 -0.9018
    1SOL    MW4 3948   0.014   3.205   2.013 -0.1204 -0.0076  0.1044
    1SOL     OW 3949   0.026   3.458   1.890  0.2107 -0.1895 -0.0240
    1SOL    HW2 3950   0.084   3.513   1.943 -3.3686  0.9717  2.9345
    1SOL    HW3 3951   0.025   3.374   1.935 -0.3357 -0.2372 -0.1250
    1SOL    MW4 3952   0.034   3.454   1.903 -0.3333 -0.0424  0.3529
    1SOL     OW 3953   0.233   3.622   2.001  0.1738  0.8783 -0.0580
    1SOL    HW2 3954   0.249   3.608   2.094 -1.8600  1.4613  0.4053
    1SOL    HW3 3955   0.292   3.562   1.956  0.1070 -0.4595  1.6362
    1SOL    MW4 3956   0.243   3.612   2.007 -0.1034  0.7787  0.2265
    1SOL     OW 3957   0.222   3.851   1.863 -0.1869 -0.1846 -0.1609
    1SOL    HW2 3958   0.299   3.902   1.886  0.4191 -1.3638  0.4757
    1SOL    HW3 3959   0.235   3.766   1.906 -1.5011 -0.6393 -0.6166
    1SOL    MW4 3960   0.234   3.846   1.872 -0.2803 -0.4003 -0.1371
    1SOL     OW 3961   0.009   3.977   1.974 -0.3166  0.4130  0.2455
    1SOL    HW2 3962   0.012   4.068   1.944 -0.0718  0.4434  0.3568
    1SOL    HW3 3963   0.086   3.937   1.933  1.0731  0.9138  2.2898
    1SOL    MW4 3964   0.020   3.984   1.964 -0.1010  0.4828  0.5299
    1SOL     OW 3965   0.013   4.246   1.889  0.3505 -0.1339 -0.1664
    1SOL    HW2 3966  -0.058   4.286   1.938 -0.0100 -0.6353 -0.2738
    1SOL    HW3 3967   0.092   4.289   1.921 -0.1103  1.3061 -0.9313
    1SOL    MW4 3968   0.014   4.257   1.900  0.2422 -0.0100 -0.2815
    1SOL     OW 3969   0.234   4.370   1.986  0.3246  0.2705 -0.5509
    1SOL    HW2 3970   0.246   4.366   2.081  1.5444 -0.7033 -0.7345
    1SOL    HW3 3971   0.235   4.463   1.966  1.1047  0.4419  0.2583
    1SOL    MW4 3972   0.236   4.382   1.996  0.5884  0.1645 -0.4684
    1SOL     OW 3973   0.682   4.619   1.858 -0.5253  0.3859 -0.0003
    1SOL    HW2 3974   0.680   4.530   1.893 -0.1320  0.6548  0.7070
    1SOL    HW3 3975   0.680   4.607   1.763 -2.2332 -0.3299  0.0937
    1SOL    MW4 3976   0.681   4.605   1.850 -0.6988  0.3266  0.1055
    1SOL     OW 3977   0.469   0.105   1.977 -0.0044 -0.3688 -0.1673
    1SOL    HW2 3978   0.462   0.197   1.954 -0.4684 -0.5491 -0.7559
    1SOL    HW3 3979   0.538   0.071   1.921  0.3854 -0.3110  0.2736
    1SOL    MW4 3980   0.477   0.113   1.967 -0.0141 -0.3850 -0.1867
    1SOL     OW 3981   0.449   0.374   1.903 -0.1911  0.0126 -0.3917
    1SOL    HW2 3982   0.529   0.413   1.939 -0.1287 -2.0570  1.8438
    1SOL    HW3 3983   0.462   0.377   1.809  2.8859 -0.8959 -0.0730
    1SOL    MW4 3984   0.461   0.379   1.896  0.2231 -0.3803 -0.0547
    1SOL     OW 3985   0.676   0.507   1.979 -0.7752 -0.7666 -0.1605
    1SOL    HW2 3986   0.692   0.515   2.073  0.5634  1.4677 -0.5306
    1SOL    HW3 3987   0.752   0.460   1.946  0.2918  1.1782 -0.5354
    1SOL    MW4 3988   0.688   0.502   1.987 -0.4579 -0.2152 -0.2588
    1SOL     OW 3989   0.720   0.750   1.854  0.3806 -0.5146 -0.2397
    1SOL    HW2 3990   0.800   0.791   1.887 -0.3773 -0.2186  1.2607
    1SOL    HW3 3991   0.711   0.670   1.906  0.0272 -0.8513 -0.8191
    1SOL    MW4 3992   0.729   0.745   1.865  0.2341 -0.5200 -0.1181
    1SOL     OW 3993   0.495   0.882   1.955  0.2042 -0.0255  0.7588
    1SOL    HW2 3994   0.484   0.876   2.050  0.3068 -2.9439  0.6257
    1SOL    HW3 3995   0.577   0.835   1.937 -1.1386 -1.7814 -0.9908
    1SOL    MW4 3996   0.504   0.875   1.965  0.0406 -0.6422  0.5105
    1SOL     OW 3997   0.492   1.157   1.864 -0.2617  0.8620  0.0781
    1SOL    HW2 3998   0.417   1.196   1.909 -0.5619  0.0426  0.3013
    1SOL    HW3 3999   0.495   1.067   1.897 -1.0524 -0.0363 -2.2104
    1SOL    MW4 4000   0.483   1.150   1.874 -0.4056  0.6354 -0.1944
    1SOL     OW 4001   0.721   1.282   1.978 -0.3319 -0.2478  0.0674
    1SOL    HW2 4002   0.712   1.279   2.073  0.2289 -0.2272  0.1223
    1SOL    HW3 4003   0.639   1.245   1.945 -0.2884 -0.7948  0.5627
    1SOL    MW4 4004   0.709   1.277   1.986 -0.2522 -0.3172  0.1401
    1SOL     OW 4005   0.687   1.551   1.870 -0.5070 -0.2218  0.1081
    1SOL    HW2 4006   0.692   1.461   1.902 -0.8760 -0.4913 -0.5858
    1SOL    HW3 4007   0.676   1.543   1.775 -0.9243  0.5427  0.0814
    1SOL    MW4 4008   0.686   1.538   1.862 -0.6107 -0.1565  0.0130
    1SOL     OW 4009   0.469   1.682   1.984 -0.5020  0.2098  0.5511
    1SOL    HW2 4010   0.488   1.684   2.078 -1.9261  0.5757  0.8539
    1SOL    HW3 4011   0.544   1.639   1.945 -0.3253 -0.8336  1.9852
    1SOL    MW4 4012   0.481   1.677   1.991 -0.6666  0.1203  0.7801
    1SOL     OW 4013   0.453   1.942   1.885 -0.4527  0.2281  0.2361
    1SOL    HW2 4014   0.456   1.851   1.916 -0.2434  0.2580  0.3030
    1SOL    HW3 4015   0.375   1.979   1.926 -0.9145 -0.1147 -0.3187
    1SOL    MW4 4016   0.443   1.935   1.894 -0.4860  0.1869  0.1717
    1SOL     OW 4017   0.675   2.051   1.997  0.3832 -0.0986 -0.4592
    1SOL    HW2 4018   0.646   2.061   2.088  0.3458  3.5883 -0.8081
    1SOL    HW3 4019   0.602   2.006   1.953 -0.7613  0.5394  0.7554
    1SOL    MW4 4020   0.661   2.047   2.003  0.2272  0.4721 -0.3450
    1SOL     OW 4021   0.700   2.308   1.907  0.1703  0.0218  0.4344
    1SOL    HW2 4022   0.704   2.216   1.934 -0.2278  0.2741  1.3756
    1SOL    HW3 4023   0.709   2.306   1.812  0.0046 -1.0016  0.4397
    1SOL    MW4 4024   0.702   2.296   1.898  0.0959 -0.0796  0.5593
    1SOL     OW 4025   0.448   2.437   1.993  0.2753 -0.3737  0.0781
    1SOL    HW2 4026   0.450   2.435   2.089 -0.1919 -1.3857  0.0731
    1SOL    HW3 4027   0.531   2.397   1.966  0.3305 -0.2474  0.0610
    1SOL    MW4 4028   0.459   2.432   2.002  0.2210 -0.4904  0.0753
    1SOL     OW 4029   0.465   2.682   1.908 -0.3761  0.0303 -0.4181
    1SOL    HW2 4030   0.446   2.600   1.952  2.0160 -0.4663 -0.2367
    1SOL    HW3 4031   0.400   2.744   1.943 -1.3979 -1.4664  0.3615
    1SOL    MW4 4032   0.454   2.680   1.919 -0.1953 -0.2327 -0.2915
    1SOL     OW 4033   0.698   2.808   2.005  0.3248 -0.2673  0.0788
    1SOL    HW2 4034   0.674   2.812   2.098 -0.6187 -0.0859 -0.1628
    1SOL    HW3 4035   0.627   2.759   1.964  0.9326 -0.6769 -0.4862
    1SOL    MW4 4036   0.685   2.802   2.012  0.2805 -0.2975 -0.0277
    1SOL     OW 4037   0.664   3.059   1.857 -0.3486 -0.5749  0.5690
    1SOL    HW2 4038   0.651   2.975   1.902 -1.3458 -0.2945  0.8128
    1SOL    HW3 4039   0.686   3.035   1.767  0.3364 -1.1141  0.8784
    1SOL    MW4 4040   0.665   3.045   1.851 -0.3898 -0.6089  0.6419
    1SOL     OW 4041   0.476   3.231   1.976 -0.3582 -0.4898 -0.5301
    1SOL    HW2 4042   0.470   3.313   1.927 -1.6107 -0.8470 -0.9928
    1SOL    HW3 4043   0.544   3.181   1.931  1.1690  0.7064  0.3938
    1SOL    MW4 4044   0.485   3.235   1.963 -0.3220 -0.3788 -0.4694
    1SOL     OW 4045   0.447   3.476   1.880  0.6380  0.2100 -0.1408
    1SOL    HW2 4046   0.522   3.521   1.917  1.8357 -1.5143 -0.4052
    1SOL    HW3 4047   0.457   3.487   1.785 -0.1779  1.1073 -0.1297
    1SOL    MW4 4048   0.458   3.483   1.872  0.6884  0.1013 -0.1743
    1SOL     OW 4049   0.664   3.606   1.975 -0.0837 -0.0350  0.4010
    1SOL    HW2 4050   0.738   3.557   1.938 -0.4575 -0.8434  0.7217
    1SOL    HW3 4051   0.663   3.688   1.926  0.4219 -0.4322 -0.2799
    1SOL    MW4 4052   0.674   3.610   1.964 -0.0663 -0.1941  0.3536
    1SOL     OW 4053   0.681   3.842   1.824 -0.5269 -0.4565 -0.2471
    1SOL    HW2 4054   0.766   3.873   1.853 -0.8489 -0.5135  0.7766
    1SOL    HW3 4055   0.677   3.865   1.731  0.5945 -0.4490 -0.2932
    1SOL    MW4 4056   0.691   3.849   1.815 -0.4215 -0.4632 -0.1181
    1SOL     OW 4057   0.466   3.979   1.962 -0.0385 -0.6007  0.2760
    1SOL    HW2 4058   0.466   4.067   1.926 -0.2016 -1.0707 -0.9114
    1SOL    HW3 4059   0.545   3.939   1.927 -0.7296 -1.3969 -0.4045
    1SOL    MW4 4060   0.476   3.985   1.952 -0.1512 -0.7675  0.0297
    1SOL     OW 4061   0.454   4.257   1.867 -0.1639 -0.0975 -0.0465
    1SOL    HW2 4062   0.388   4.317   1.900  0.2795 -0.6515  1.9133
    1SOL    HW3 4063   0.455   4.271   1.772 -0.1979  2.8104  0.3564
    1SOL    MW4 4064   0.446   4.267   1.859 -0.1099  0.2136  0.2652
    1SOL     OW 4065   0.687   4.367   1.948 -0.7520 -0.4383  0.1839
    1SOL    HW2 4066   0.758   4.317   1.907 -0.6377  0.0023 -0.1532
    1SOL    HW3 4067   0.607   4.324   1.917 -0.7085  0.7115 -1.5915
    1SOL    MW4 4068   0.686   4.354   1.938 -0.7312 -0.2284 -0.0948
    1SOL     OW 4069   1.063   4.659   1.847 -0.3173 -0.0214 -0.3278
    1SOL    HW2 4070   1.149   4.692   1.872 -0.6550 -0.0346  0.8828
    1SOL    HW3 4071   1.059   4.571   1.886 -0.4575 -0.4424 -1.2854
    1SOL    MW4 4072   1.074   4.652   1.856 -0.3804 -0.0787 -0.2946
    1SOL     OW 4073   0.874   0.104   1.973 -0.0613  0.5393  0.3211
    1SOL    HW2 4074   0.952   0.066   1.934  0.4843  1.9105  0.0537
    1SOL    HW3 4075   0.801   0.061   1.928  0.5260 -0.6052  0.4476
    1SOL    MW4 4076   0.874   0.094   1.962  0.0882  0.5692  0.3024
    1SOL     OW 4077   0.883   0.358   1.875 -0.2222 -0.0587  0.0945
    1SOL    HW2 4078   0.963   0.393   1.913  0.2623 -1.5553  0.4988
    1SOL    HW3 4079   0.869   0.275   1.921 -1.0433 -0.6527 -1.1912
    1SOL    MW4 4080   0.892   0.351   1.886 -0.2666 -0.3345 -0.0217
    1SOL     OW 4081   1.110   0.452   1.977  0.0801 -0.0264 -0.0406
    1SOL    HW2 4082   1.179   0.397   1.940  0.0525 -1.2238  1.6333
    1SOL    HW3 4083   1.133   0.541   1.951  0.9898 -0.6505 -1.4505
    1SOL    MW4 4084   1.122   0.456   1.969  0.1966 -0.2667 -0.0057
    1SOL     OW 4085   1.143   0.739   1.872 -0.3996 -0.0867  0.2424
    1SOL    HW2 4086   1.221   0.766   1.920 -0.5000  1.8707 -0.6846
    1SOL    HW3 4087   1.072   0.790   1.910 -0.6788  0.6094 -1.1764
    1SOL    MW4 4088   1.144   0.749   1.883 -0.4498  0.2634 -0.0671
    1SOL     OW 4089   0.926   0.881   1.986  0.0623  0.4424  0.0820
    1SOL    HW2 4090   0.932   0.896   2.080  0.0615  0.6080  0.0562
    1SOL    HW3 4091   0.943   0.967   1.947  0.7160  0.2398 -0.0868
    1SOL    MW4 4092   0.929   0.894   1.993  0.1484  0.4376  0.0563
    1SOL     OW 4093   0.941   1.141   1.868  0.3231  0.0584 -0.2059
    1SOL    HW2 4094   0.873   1.190   1.916 -0.2119  0.3866 -1.2678
    1SOL    HW3 4095   0.923   1.161   1.776  0.3741 -1.7994 -0.6327
    1SOL    MW4 4096   0.929   1.150   1.862  0.2593 -0.1434 -0.4023
    1SOL     OW 4097   1.145   1.269   1.988  0.1650 -0.1580  0.2364
    1SOL    HW2 4098   1.139   1.362   1.966  0.3436 -0.2542 -0.2171
    1SOL    HW3 4099   1.071   1.229   1.944  0.8325 -0.4377 -0.6467
    1SOL    MW4 4100   1.135   1.276   1.979  0.2766 -0.2077  0.0600
    1SOL     OW 4101   1.134   1.534   1.898 -0.0266 -0.4873  0.2599
    1SOL    HW2 4102   1.059   1.578   1.937  0.1288 -0.1166  0.1410
    1SOL    HW3 4103   1.144   1.575   1.812 -0.3892 -1.3196 -0.1924
    1SOL    MW4 4104   1.125   1.545   1.892 -0.0540 -0.5481  0.1845
    1SOL     OW 4105   0.911   1.650   1.987 -0.0202  0.0134  0.2408
    1SOL    HW2 4106   0.928   1.743   1.975 -0.2801  0.1711  1.0854
    1SOL    HW3 4107   0.837   1.631   1.930  1.0787 -0.0457 -1.2086
    1SOL    MW4 4108   0.904   1.660   1.978  0.0905  0.0262  0.1609
    1SOL     OW 4109   0.921   1.933   1.932 -0.2095 -0.7505 -0.0282
    1SOL    HW2 4110   0.845   1.987   1.955 -0.6876 -1.9930  1.3262
    1SOL    HW3 4111   0.902   1.903   1.843 -0.0335  1.1197 -0.7310
    1SOL    MW4 4112   0.908   1.936   1.923 -0.2493 -0.6677  0.0577
    1SOL     OW 4113   1.174   2.013   1.993  0.1640 -0.0205  0.0380
    1SOL    HW2 4114   1.180   2.107   1.976 -0.3077  0.3040  1.6494
    1SOL    HW3 4115   1.085   1.989   1.967  0.6096 -0.2401 -1.3470
    1SOL    MW4 4116   1.163   2.022   1.987  0.1605 -0.0064  0.0678
    1SOL     OW 4117   1.140   2.272   1.920  0.0684 -0.2566 -0.2890
    1SOL    HW2 4118   1.201   2.338   1.955 -0.1938  0.2334 -0.7412
    1SOL    HW3 4119   1.155   2.275   1.826 -0.4577 -0.3342 -0.3749
    1SOL    MW4 4120   1.150   2.281   1.912 -0.0355 -0.2024 -0.3600
    1SOL     OW 4121   0.930   2.432   1.985  0.1137  0.0318  0.4279
    1SOL    HW2 4122   0.991   2.368   1.948 -0.5801  0.8230 -2.2003
    1SOL    HW3 4123   0.843   2.397   1.965 -0.2940  0.5395  1.2612
    1SOL    MW4 4124   0.927   2.419   1.977 -0.0318  0.2029  0.1911
    1SOL     OW 4125   0.901   2.699   1.886  0.3834 -0.3992 -0.0237
    1SOL    HW2 4126   0.902   2.608   1.916  0.5842 -0.2814  0.3262
    1SOL    HW3 4127   0.835   2.742   1.941  0.0942 -0.3944 -0.3706
    1SOL    MW4 4128   0.892   2.693   1.897  0.3718 -0.3829 -0.0234
    1SOL     OW 4129   1.130   2.834   1.941  0.1254 -0.3843  0.0528
    1SOL    HW2 4130   1.130   2.835   2.036 -0.0749  0.8442  0.0528
    1SOL    HW3 4131   1.056   2.779   1.917  0.1293 -0.6274  0.6032
    1SOL    MW4 4132   1.120   2.827   1.950  0.0995 -0.2542  0.1254
    1SOL     OW 4133   1.099   3.088   1.855 -0.0368 -0.0466 -0.8398
    1SOL    HW2 4134   1.015   3.112   1.894  1.1700 -0.3121  2.1177
    1SOL    HW3 4135   1.116   3.000   1.888  1.3616 -0.0211 -1.4604
    1SOL    MW4 4136   1.090   3.080   1.865  0.3071 -0.0782 -0.5314
    1SOL     OW 4137   0.866   3.214   1.947  0.0197 -0.0309  0.2984
    1SOL    HW2 4138   0.848   3.225   2.040  0.1687 -1.5359  0.5042
    1SOL    HW3 4139   0.794   3.162   1.914  0.6596 -0.6341 -0.1551
    1SOL    MW4 4140   0.854   3.209   1.955  0.1238 -0.3090  0.2658
    1SOL     OW 4141   0.903   3.487   1.867  0.4794  0.0229 -0.2690
    1SOL    HW2 4142   0.901   3.394   1.891  0.5781 -0.0871 -0.6737
    1SOL    HW3 4143   0.899   3.486   1.771  0.8307  0.4288 -0.2848
    1SOL    MW4 4144   0.902   3.474   1.858  0.5388  0.0620 -0.3244
    1SOL     OW 4145   1.126   3.628   1.966  0.4087  0.2331 -0.1301
    1SOL    HW2 4146   1.112   3.628   2.061  0.4445  0.7591 -0.1239
    1SOL    HW3 4147   1.052   3.580   1.930  1.4550 -1.7944  0.3196
    1SOL    MW4 4148   1.115   3.621   1.974  0.5515  0.0348 -0.0699
    1SOL     OW 4149   1.096   3.887   1.888 -0.5783  0.7813  0.2544
    1SOL    HW2 4150   1.103   3.798   1.921 -3.0533  1.4390  2.7530
    1SOL    HW3 4151   1.107   3.879   1.793  0.5565 -1.9643  0.5684
    1SOL    MW4 4152   1.098   3.874   1.880 -0.7551  0.5059  0.6256
    1SOL     OW 4153   0.854   4.005   1.997  0.8960 -0.1944 -0.2844
    1SOL    HW2 4154   0.863   4.009   2.092  0.6373 -0.9435 -0.2290
    1SOL    HW3 4155   0.939   3.972   1.967  1.0211  0.1590 -0.3279
    1SOL    MW4 4156   0.867   4.001   2.006  0.8783 -0.2470 -0.2830
    1SOL     OW 4157   0.909   4.247   1.866 -0.6784  0.7030  0.0468
    1SOL    HW2 4158   0.986   4.292   1.899  0.2943  0.6462 -2.0158
    1SOL    HW3 4159   0.901   4.169   1.922  2.2839 -0.6178 -1.2153
    1SOL    MW4 4160   0.918   4.243   1.877 -0.1593  0.5217 -0.3920
    1SOL     OW 4161   1.109   4.416   1.966 -0.8274 -0.7074 -0.0471
    1SOL    HW2 4162   1.105   4.400   2.060 -0.0315  0.5798  0.2148
    1SOL    HW3 4163   1.195   4.383   1.939 -0.1573  0.8957  0.0779
    1SOL    MW4 4164   1.120   4.409   1.975 -0.6341 -0.3266  0.0039
    1SOL     OW 4165   1.579   4.649   1.908 -0.1473  0.1412  0.0253
    1SOL    HW2 4166   1.656   4.697   1.939  0.4549 -0.6813 -0.1698
    1SOL    HW3 4167   1.593   4.559   1.939 -1.6799  0.2685  1.1465
    1SOL    MW4 4168   1.591   4.643   1.916 -0.2701  0.0491  0.1475
    1SOL     OW 4169   1.320   0.061   1.957  0.1141 -0.3072  0.1532
    1SOL    HW2 4170   1.308   0.049   2.051  0.4745  0.6889  0.3316
    1SOL    HW3 4171   1.407   0.025   1.939  0.0295 -0.5320  0.1938
    1SOL    MW4 4172   1.330   0.055   1.967  0.1506 -0.2054  0.1820
    1SOL     OW 4173   1.350   0.321   1.871  0.3484 -0.0031  0.0829
    1SOL    HW2 4174   1.335   0.229   1.894  1.4802 -0.6281 -1.5878
    1SOL    HW3 4175   1.350   0.321   1.775  0.8797  1.6671  0.0804
    1SOL    MW4 4176   1.348   0.309   1.862  0.5678  0.1348 -0.1378
    1SOL     OW 4177   1.543   0.473   2.013  0.9833  0.5999  0.0732
    1SOL    HW2 4178   1.620   0.454   1.960  0.9683  1.1913 -0.1612
    1SOL    HW3 4179   1.471   0.429   1.968  0.6063  2.8108 -1.5417
    1SOL    MW4 4180   1.544   0.464   2.000  0.9316  0.9696 -0.1709
    1SOL     OW 4181   1.559   0.727   1.892 -0.3734  0.4160 -0.0310
    1SOL    HW2 4182   1.641   0.773   1.909  0.0626 -0.4182  0.1444
    1SOL    HW3 4183   1.563   0.650   1.948 -0.9733  0.0220 -0.5315
    1SOL    MW4 4184   1.571   0.723   1.901 -0.3949  0.2540 -0.0739
    1SOL     OW 4185   1.346   0.871   1.999  0.0763 -0.4909  0.1546
    1SOL    HW2 4186   1.349   0.858   2.093  2.3465  1.8304  0.4400
    1SOL    HW3 4187   1.428   0.832   1.967  0.4596  0.8792 -0.5529
    1SOL    MW4 4188   1.357   0.864   2.007  0.4264 -0.0038  0.0987
    1SOL     OW 4189   1.360   1.137   1.899 -0.2742  0.0560  0.3115
    1SOL    HW2 4190   1.357   1.050   1.938  0.4201  0.1193  0.4988
    1SOL    HW3 4191   1.284   1.183   1.936  0.1310 -0.0256  1.2313
    1SOL    MW4 4192   1.349   1.132   1.909 -0.1292  0.0538  0.4575
    1SOL     OW 4193   1.587   1.240   1.988  0.1067  0.5062 -0.6719
    1SOL    HW2 4194   1.590   1.323   1.941 -1.4636  0.5505 -0.7252
    1SOL    HW3 4195   1.507   1.198   1.957  0.5245 -0.7180 -0.1235
    1SOL    MW4 4196   1.577   1.245   1.978 -0.0453  0.3506 -0.6065
    1SOL     OW 4197   1.623   1.489   1.855  0.1928 -0.4927 -0.2272
    1SOL    HW2 4198   1.693   1.539   1.897 -0.9689  0.3331  0.7755
    1SOL    HW3 4199   1.545   1.511   1.906 -0.2233 -3.9728  0.7768
    1SOL    MW4 4200   1.622   1.498   1.868 -0.0154 -0.8429  0.0374
    1SOL     OW 4201   1.401   1.603   1.974 -0.5920 -0.4747  0.2702
    1SOL    HW2 4202   1.393   1.607   2.069 -0.4708 -2.4426  0.3983
    1SOL    HW3 4203   1.315   1.574   1.944 -0.2996 -0.9398 -0.1202
    1SOL    MW4 4204   1.389   1.599   1.983 -0.5375 -0.7957  0.2356
    1SOL     OW 4205   1.408   1.884   1.890  0.1688  0.1860 -0.3336
    1SOL    HW2 4206   1.413   1.794   1.922 -0.0064  0.7171  1.2669
    1SOL    HW3 4207   1.318   1.911   1.907  0.5835  1.1081  0.5068
    1SOL    MW4 4208   1.397   1.876   1.897  0.2004  0.3778 -0.0113
    1SOL     OW 4209   1.585   2.047   2.007 -0.4949 -0.0658  0.6075
    1SOL    HW2 4210   1.558   2.136   1.985  1.7167  0.3871 -0.4471
    1SOL    HW3 4211   1.528   1.991   1.955 -0.7775  0.7836 -0.0106
    1SOL    MW4 4212   1.574   2.052   1.997 -0.2403  0.1061  0.3870
    1SOL     OW 4213   1.588   2.308   1.888  0.1070 -0.3430 -0.0950
    1SOL    HW2 4214   1.653   2.357   1.938 -0.9077  0.8605  0.0736
    1SOL    HW3 4215   1.613   2.321   1.796 -0.4643  0.9727 -0.0809
    1SOL    MW4 4216   1.600   2.317   1.882 -0.1024 -0.0107 -0.0709
    1SOL     OW 4217   1.362   2.428   1.991 -0.3470  0.0938  0.0825
    1SOL    HW2 4218   1.355   2.513   1.947  1.6493  0.0976 -0.3038
    1SOL    HW3 4219   1.439   2.388   1.951 -0.8497 -1.5960  0.7884
    1SOL    MW4 4220   1.371   2.434   1.980 -0.1500 -0.1285  0.1246
    1SOL     OW 4221   1.331   2.676   1.864  0.7467  0.0489 -0.0242
    1SOL    HW2 4222   1.259   2.734   1.890  1.6485  0.6089  1.2980
    1SOL    HW3 4223   1.336   2.686   1.769 -0.8323  0.1036 -0.1144
    1SOL    MW4 4224   1.322   2.685   1.855  0.6574  0.1299  0.1384
    1SOL     OW 4225   1.547   2.814   1.971  0.3222 -0.0258  0.0661
    1SOL    HW2 4226   1.623   2.761   1.950  0.8632  0.8595 -0.2571
    1SOL    HW3 4227   1.472   2.762   1.944  0.7766 -1.1730  0.9655
    1SOL    MW4 4228   1.547   2.800   1.965  0.4535 -0.0606  0.1421
    1SOL     OW 4229   1.532   3.085   1.894  0.1223 -0.2588  0.0240
    1SOL    HW2 4230   1.532   2.992   1.918  2.2509 -0.2490  0.1410
    1SOL    HW3 4231   1.552   3.085   1.800 -2.6429 -0.0179 -0.6210
    1SOL    MW4 4232   1.535   3.073   1.885  0.0384 -0.2255 -0.0457
    1SOL     OW 4233   1.299   3.230   1.974  0.2267  0.0782  0.5922
    1SOL    HW2 4234   1.377   3.181   1.947  0.5473  1.0460 -0.3056
    1SOL    HW3 4235   1.227   3.188   1.928  0.2795 -0.5023  1.0279
    1SOL    MW4 4236   1.300   3.218   1.964  0.2760  0.1295  0.5311
    1SOL     OW 4237   1.335   3.479   1.857  0.2786  0.4679 -0.4970
    1SOL    HW2 4238   1.326   3.394   1.900  2.4134  0.2233 -0.4496
    1SOL    HW3 4239   1.268   3.534   1.896  0.4768 -0.5095  1.2505
    1SOL    MW4 4240   1.325   3.475   1.868  0.5863  0.3066 -0.2601
    1SOL     OW 4241   1.575   3.593   1.973  0.2871  0.2564 -0.0625
    1SOL    HW2 4242   1.568   3.581   2.067 -1.3592  2.1682  0.0973
    1SOL    HW3 4243   1.492   3.560   1.939 -0.3935  2.3406 -0.5111
    1SOL    MW4 4244   1.563   3.587   1.981 -0.0199  0.7834 -0.1005
    1SOL     OW 4245   1.568   3.846   1.865  0.1831 -0.0531 -0.2401
    1SOL    HW2 4246   1.640   3.905   1.889  0.5399 -0.4772 -0.2390
    1SOL    HW3 4247   1.591   3.763   1.908 -0.6352 -0.0097  0.2874
    1SOL    MW4 4248   1.581   3.843   1.874  0.1222 -0.1032 -0.1705
    1SOL     OW 4249   1.358   3.998   1.964  0.5624 -0.2062  0.1378
    1SOL    HW2 4250   1.417   3.932   1.927  0.6523 -0.0221 -0.0467
    1SOL    HW3 4251   1.270   3.970   1.939  0.5443 -0.6879  0.7343
    1SOL    MW4 4252   1.354   3.986   1.956  0.5718 -0.2453  0.1920
    1SOL     OW 4253   1.360   4.288   1.879 -0.3098  0.0010  0.3164
    1SOL    HW2 4254   1.377   4.203   1.919 -0.4675 -0.0721  0.2279
    1SOL    HW3 4255   1.378   4.275   1.786 -1.1375 -0.1544  0.1782
    1SOL    MW4 4256   1.365   4.275   1.872 -0.4399 -0.0291  0.2866
    1SOL     OW 4257   1.595   4.393   1.993  0.0048  0.3454 -0.1204
    1SOL    HW2 4258   1.579   4.406   2.086 -0.5854  1.4528 -0.3643
    1SOL    HW3 4259   1.511   4.363   1.957  0.6941 -1.8156 -0.0086
    1SOL    MW4 4260   1.582   4.391   2.000  0.0178  0.2069 -0.1378
    1SOL     OW 4261   2.007   4.646   1.867 -0.2797 -0.0512 -0.1788
    1SOL    HW2 4262   2.087   4.690   1.895 -0.2412  0.4787 -1.1304
    1SOL    HW3 4263   2.001   4.570   1.925  0.0034  0.8226  1.0363
    1SOL    MW4 4264   2.017   4.642   1.878 -0.2372  0.1340 -0.1440
    1SOL     OW 4265   1.812   0.133   1.961  0.5363  0.0692 -0.0781
    1SOL    HW2 4266   1.828   0.113   2.053 -0.1688  1.0921  0.2733
    1SOL    HW3 4267   1.878   0.083   1.914  0.1722 -1.3939  0.9095
    1SOL    MW4 4268   1.822   0.124   1.967  0.3952  0.0111  0.0985
    1SOL     OW 4269   1.779   0.389   1.878 -0.8055 -0.0955 -0.1114
    1SOL    HW2 4270   1.787   0.297   1.904 -2.5254  0.1200  1.2549
    1SOL    HW3 4271   1.772   0.387   1.783  1.6191 -1.1851 -0.3157
    1SOL    MW4 4272   1.779   0.377   1.869 -0.7125 -0.2109  0.0420
    1SOL     OW 4273   1.995   0.521   1.961 -0.1864 -0.0131  0.0974
    1SOL    HW2 4274   1.999   0.605   1.917  0.7841 -0.8791 -1.5355
    1SOL    HW3 4275   1.920   0.476   1.922 -1.4123  0.5073  1.7824
    1SOL    MW4 4276   1.986   0.526   1.950 -0.2201 -0.0587  0.1043
    1SOL     OW 4277   2.010   0.779   1.828  0.0126  0.1461 -0.5200
    1SOL    HW2 4278   2.095   0.816   1.852  0.1843  0.5280 -1.6855
    1SOL    HW3 4279   1.949   0.819   1.890  0.5730  0.4211 -0.1371
    1SOL    MW4 4280   2.013   0.789   1.839  0.1092  0.2328 -0.6233
    1SOL     OW 4281   1.778   0.869   1.984  0.1174 -0.3818  0.3171
    1SOL    HW2 4282   1.784   0.957   1.946  1.7205 -0.1809  0.9839
    1SOL    HW3 4283   1.773   0.884   2.079  0.0643 -1.0041  0.4157
    1SOL    MW4 4284   1.778   0.883   1.992  0.3220 -0.4374  0.4181
    1SOL     OW 4285   1.796   1.116   1.847 -0.2548  0.2629  0.2647
    1SOL    HW2 4286   1.725   1.167   1.887 -0.4083  0.1044  0.1951
    1SOL    HW3 4287   1.876   1.149   1.889 -0.2938  1.0044 -0.2506
    1SOL    MW4 4288   1.797   1.127   1.858 -0.2804  0.3399  0.1875
    1SOL     OW 4289   2.021   1.253   1.971  0.6494  0.0789 -0.1131
    1SOL    HW2 4290   2.112   1.230   1.952  0.9901  0.1818  1.3179
    1SOL    HW3 4291   2.014   1.244   2.066  0.3601  4.1913  0.3544
    1SOL    MW4 4292   2.032   1.249   1.981  0.6566  0.6349  0.1374
    1SOL     OW 4293   2.034   1.523   1.904  0.6387  0.4051  0.0671
    1SOL    HW2 4294   2.040   1.428   1.907 -2.0083  0.2069  0.3202
    1SOL    HW3 4295   2.043   1.545   1.811 -0.5859 -0.2405 -0.2059
    1SOL    MW4 4296   2.036   1.513   1.892  0.1278  0.2936  0.0645
    1SOL     OW 4297   1.794   1.619   2.015  0.0584 -0.1181  0.6559
    1SOL    HW2 4298   1.794   1.712   1.993 -0.3834 -0.1395  0.5609
    1SOL    HW3 4299   1.879   1.588   1.986 -0.5373 -0.1614 -1.0882
    1SOL    MW4 4300   1.805   1.627   2.008 -0.0784 -0.1267  0.4132
    1SOL     OW 4301   1.810   1.901   1.951  0.5878  0.2108 -0.0873
    1SOL    HW2 4302   1.734   1.950   1.982 -0.3217 -0.8180 -0.6523
    1SOL    HW3 4303   1.808   1.911   1.856  1.0613  0.0284 -0.1211
    1SOL    MW4 4304   1.800   1.909   1.942  0.5304  0.0509 -0.1662
    1SOL     OW 4305   2.041   2.051   1.970  0.0933 -0.1154 -0.0502
    1SOL    HW2 4306   2.101   2.011   1.906 -0.5009  0.3405 -0.9024
    1SOL    HW3 4307   1.974   1.985   1.985  0.3961 -0.3385  0.3392
    1SOL    MW4 4308   2.040   2.037   1.963  0.0548 -0.0846 -0.1111
    1SOL     OW 4309   2.028   2.311   1.874  0.0006  0.1803 -0.1201
    1SOL    HW2 4310   2.115   2.340   1.901 -0.7800  2.5159  0.0187
    1SOL    HW3 4311   2.014   2.230   1.923  1.0151  1.2163  1.9607
    1SOL    MW4 4312   2.038   2.304   1.884  0.0315  0.6251  0.1729
    1SOL     OW 4313   1.808   2.434   1.981 -0.0965 -0.0680  0.4659
    1SOL    HW2 4314   1.809   2.425   2.076 -0.6661 -1.5186  0.3413
    1SOL    HW3 4315   1.888   2.392   1.952 -0.7961 -1.2293  0.1826
    1SOL    MW4 4316   1.818   2.427   1.990 -0.2640 -0.4125  0.4121
    1SOL     OW 4317   1.784   2.701   1.893  0.3836  0.2027  0.3220
    1SOL    HW2 4318   1.797   2.616   1.935 -1.8557  0.0001  0.6475
    1SOL    HW3 4319   1.783   2.682   1.799 -0.7988 -0.2569  0.4138
    1SOL    MW4 4320   1.786   2.687   1.886 -0.0679  0.1154  0.3771
    1SOL     OW 4321   2.035   2.827   1.936  0.5963  0.2810  0.3629
    1SOL    HW2 4322   2.042   2.815   2.031  0.4919  1.1138  0.4773
    1SOL    HW3 4323   1.945   2.802   1.915  0.7681 -0.3875  0.4085
    1SOL    MW4 4324   2.024   2.822   1.946  0.6049  0.3026  0.3841
    1SOL     OW 4325   2.044   3.101   1.874  0.4302 -0.3660 -0.2565
    1SOL    HW2 4326   1.956   3.123   1.904 -0.0656  0.1229 -2.0088
    1SOL    HW3 4327   2.054   3.007   1.894 -0.7440 -0.5797 -0.6825
    1SOL    MW4 4328   2.034   3.091   1.881  0.2098 -0.3300 -0.5438
    1SOL     OW 4329   1.779   3.179   1.965 -0.1267  0.6590  0.4385
    1SOL    HW2 4330   1.785   3.166   2.060  0.3571 -0.0207  0.3202
    1SOL    HW3 4331   1.695   3.140   1.941 -0.6953  1.6921  0.7235
    1SOL    MW4 4332   1.769   3.172   1.975 -0.1379  0.7057  0.4605
    1SOL     OW 4333   1.770   3.448   1.836  0.0260  0.6152  0.1034
    1SOL    HW2 4334   1.772   3.367   1.887  0.2062 -0.6023 -1.7884
    1SOL    HW3 4335   1.692   3.494   1.866  0.2903  0.0516  1.6670
    1SOL    MW4 4336   1.760   3.443   1.846  0.0848  0.3800  0.0601
    1SOL     OW 4337   1.995   3.559   1.963 -0.6215  0.4080  0.5014
    1SOL    HW2 4338   2.007   3.654   1.954 -0.1965  0.3886  0.8368
    1SOL    HW3 4339   1.919   3.539   1.908 -0.2493  0.8317 -0.1752
    1SOL    MW4 4340   1.987   3.569   1.954 -0.5164  0.4616  0.4565
    1SOL     OW 4341   2.009   3.831   1.893  0.6741 -0.8206  0.3481
    1SOL    HW2 4342   2.087   3.880   1.917 -0.3623  1.1085 -0.1230
    1SOL    HW3 4343   2.008   3.832   1.798 -0.7799  0.6026  0.3571
    1SOL    MW4 4344   2.019   3.837   1.884  0.3457 -0.3781  0.2871
    1SOL     OW 4345   1.790   3.980   1.981 -0.3314  0.5212  0.2047
    1SOL    HW2 4346   1.804   4.074   1.965  1.0229  0.3792  0.5458
    1SOL    HW3 4347   1.869   3.938   1.948 -1.0999 -0.5502 -0.2980
    1SOL    MW4 4348   1.802   3.987   1.974 -0.2540  0.3612  0.1832
    1SOL     OW 4349   1.810   4.243   1.901  0.6845 -0.3419 -0.3811
    1SOL    HW2 4350   1.735   4.287   1.939  1.6170 -0.1633  1.3186
    1SOL    HW3 4351   1.791   4.237   1.808 -1.0105  0.5098 -0.0926
    1SOL    MW4 4352   1.798   4.248   1.894  0.5839 -0.2060 -0.1187
    1SOL     OW 4353   2.026   4.392   2.000 -0.1142 -0.3242  0.5999
    1SOL    HW2 4354   2.106   4.349   1.970 -0.1271  0.6371 -0.8735
    1SOL    HW3 4355   1.955   4.335   1.969 -0.1171  0.5360 -1.0555
    1SOL    MW4 4356   2.027   4.379   1.992 -0.1163 -0.0839  0.1872
    1SOL     OW 4357   2.430   4.641   1.895 -0.3343  0.1943 -0.3357
    1SOL    HW2 4358   2.508   4.691   1.917 -0.6933  0.1109  1.1399
    1SOL    HW3 4359   2.449   4.551   1.922  0.4125 -0.5674 -3.2288
    1SOL    MW4 4360   2.442   4.636   1.901 -0.2830  0.0830 -0.5227
    1SOL     OW 4361   2.201   0.103   2.007  0.1312 -0.2163  0.1162
    1SOL    HW2 4362   2.208   0.128   2.099  0.4392 -0.4613  0.1619
    1SOL    HW3 4363   2.286   0.064   1.986 -0.4899 -1.6281  0.1702
    1SOL    MW4 4364   2.214   0.101   2.016  0.0896 -0.4349  0.1292
    1SOL     OW 4365   2.231   0.372   1.905 -0.3362  0.4161  0.5681
    1SOL    HW2 4366   2.217   0.281   1.932 -0.6648  0.0745 -0.6961
    1SOL    HW3 4367   2.155   0.419   1.939 -0.3200  0.1619  0.9631
    1SOL    MW4 4368   2.220   0.366   1.913 -0.3772  0.3375  0.4535
    1SOL     OW 4369   2.443   0.540   1.964  0.0577  0.6349 -0.0420
    1SOL    HW2 4370   2.525   0.500   1.937  0.1348  0.1671  0.8640
    1SOL    HW3 4371   2.377   0.474   1.945 -0.1853  1.1943 -1.2212
    1SOL    MW4 4372   2.445   0.526   1.958  0.0355  0.6471 -0.0782
    1SOL     OW 4373   2.481   0.800   1.873  0.3639 -0.5538  0.7524
    1SOL    HW2 4374   2.459   0.721   1.923  1.0441 -0.7118  0.8064
    1SOL    HW3 4375   2.513   0.767   1.790  0.2660 -0.3184  0.6205
    1SOL    MW4 4376   2.482   0.785   1.869  0.4408 -0.5437  0.7421
    1SOL     OW 4377   2.244   0.931   1.938  0.0224 -0.2460 -0.1505
    1SOL    HW2 4378   2.241   0.899   2.028  0.5566  0.9474  0.2926
    1SOL    HW3 4379   2.326   0.898   1.903 -0.1172 -0.5897 -0.1544
    1SOL    MW4 4380   2.254   0.922   1.945  0.0744 -0.1339 -0.0926
    1SOL     OW 4381   2.274   1.203   1.872 -0.1160  0.4337  0.1909
    1SOL    HW2 4382   2.359   1.228   1.907 -1.3688  1.5274  2.6145
    1SOL    HW3 4383   2.265   1.110   1.893  1.8884 -0.6307 -3.2108
    1SOL    MW4 4384   2.284   1.194   1.879 -0.0167  0.4375  0.0618
    1SOL     OW 4385   2.530   1.299   1.965 -0.1063  0.0855  0.1332
    1SOL    HW2 4386   2.506   1.289   2.057 -0.7458  1.5211  0.1206
    1SOL    HW3 4387   2.527   1.393   1.948  1.9256  0.0180 -0.8415
    1SOL    MW4 4388   2.527   1.310   1.975  0.0775  0.2660  0.0030
    1SOL     OW 4389   2.499   1.596   1.880  0.1734  0.1506 -0.0515
    1SOL    HW2 4390   2.417   1.621   1.923  0.1898  0.2083 -0.0539
    1SOL    HW3 4391   2.473   1.576   1.790 -0.1559 -1.7053  0.4250
    1SOL    MW4 4392   2.484   1.596   1.874  0.1321 -0.0867  0.0111
    1SOL     OW 4393   2.242   1.685   1.991 -0.3734  0.4934  0.0206
    1SOL    HW2 4394   2.234   1.697   2.086 -0.6147  0.0551  0.0560
    1SOL    HW3 4395   2.184   1.612   1.971  0.4788 -0.1032 -0.3087
    1SOL    MW4 4396   2.234   1.677   2.001 -0.2928  0.3567 -0.0181
    1SOL     OW 4397   2.247   1.921   1.832 -0.2248  0.2699 -0.1745
    1SOL    HW2 4398   2.313   1.971   1.880 -0.4732 -0.3744  0.8545
    1SOL    HW3 4399   2.244   1.836   1.876 -0.2382 -0.4401 -1.5355
    1SOL    MW4 4400   2.255   1.916   1.844 -0.2596  0.0912 -0.2182
    1SOL     OW 4401   2.438   2.052   1.980  0.3161 -0.4979 -0.4251
    1SOL    HW2 4402   2.512   2.000   1.950  0.9912  1.5742 -2.5432
    1SOL    HW3 4403   2.444   2.133   1.929 -2.2790  0.5008  0.7786
    1SOL    MW4 4404   2.449   2.056   1.969  0.0629 -0.0925 -0.5456
    1SOL     OW 4405   2.470   2.289   1.841  0.1960  0.1959 -0.0326
    1SOL    HW2 4406   2.559   2.302   1.874  0.2821 -0.1396 -0.1315
    1SOL    HW3 4407   2.414   2.334   1.905  0.3400 -0.7481  0.7646
    1SOL    MW4 4408   2.474   2.297   1.854  0.2263  0.0272  0.0596
    1SOL     OW 4409   2.275   2.408   2.003  0.0146 -0.3785 -0.0372
    1SOL    HW2 4410   2.256   2.409   2.096  0.9100 -1.3385  0.1603
    1SOL    HW3 4411   2.246   2.494   1.972  0.1528  0.1328  1.2120
    1SOL    MW4 4412   2.269   2.419   2.011  0.1509 -0.4382  0.1538
    1SOL     OW 4413   2.248   2.670   1.877  0.0462  0.1042  0.2430
    1SOL    HW2 4414   2.179   2.736   1.885  0.6740  0.7401  0.5209
    1SOL    HW3 4415   2.268   2.667   1.784 -0.7766 -0.5202  0.0848
    1SOL    MW4 4416   2.242   2.678   1.866  0.0205  0.1056  0.2589
    1SOL     OW 4417   2.476   2.805   1.987  0.2542 -0.3919 -0.4930
    1SOL    HW2 4418   2.489   2.891   1.948 -1.4747  0.6721  1.1829
    1SOL    HW3 4419   2.389   2.778   1.958 -0.5024 -0.1670  1.4705
    1SOL    MW4 4420   2.467   2.813   1.978 -0.0739 -0.2217 -0.0128
    1SOL     OW 4421   2.500   3.063   1.879  0.5499 -0.3624  0.1747
    1SOL    HW2 4422   2.426   3.096   1.930  0.4446 -0.1365 -0.1199
    1SOL    HW3 4423   2.479   3.088   1.789  0.8920 -0.4694  0.0669
    1SOL    MW4 4424   2.487   3.071   1.874  0.5810 -0.3467  0.1217
    1SOL     OW 4425   2.268   3.194   2.008  0.2850  0.0700 -0.0088
    1SOL    HW2 4426   2.233   3.219   2.093  0.7610  0.7759 -0.0225
    1SOL    HW3 4427   2.194   3.151   1.964 -0.1269  0.2120  0.5335
    1SOL    MW4 4428   2.253   3.191   2.014  0.2937  0.1819  0.0610
    1SOL     OW 4429   2.236   3.441   1.880 -0.0114  0.1457  0.2699
    1SOL    HW2 4430   2.258   3.354   1.915 -2.5064 -0.1019  1.3054
    1SOL    HW3 4431   2.150   3.461   1.916 -0.2406  2.3223 -1.3469
    1SOL    MW4 4432   2.227   3.432   1.889 -0.3710  0.4003  0.1934
    1SOL     OW 4433   2.446   3.595   1.966 -0.0638 -0.0275  0.5560
    1SOL    HW2 4434   2.446   3.619   2.059  0.1810  0.1665  0.5067
    1SOL    HW3 4435   2.364   3.547   1.954 -0.1404  0.0250  0.8525
    1SOL    MW4 4436   2.435   3.592   1.977 -0.0417  0.0052  0.5887
    1SOL     OW 4437   2.448   3.859   1.869 -0.0841  0.2421 -0.1676
    1SOL    HW2 4438   2.366   3.897   1.898 -0.3218 -0.6946  0.4001
    1SOL    HW3 4439   2.447   3.770   1.904  1.3801  0.3772  0.2539
    1SOL    MW4 4440   2.437   3.853   1.877  0.0775  0.1361 -0.0372
    1SOL     OW 4441   2.217   3.982   1.958 -0.1246 -0.2602  0.3167
    1SOL    HW2 4442   2.222   3.996   2.053 -2.3444 -1.1153  0.5785
    1SOL    HW3 4443   2.219   4.070   1.921 -0.0589  0.1110  1.1889
    1SOL    MW4 4444   2.218   3.996   1.966 -0.4086 -0.3238  0.4663
    1SOL     OW 4445   2.236   4.258   1.890 -0.1676  0.9290  0.1949
    1SOL    HW2 4446   2.312   4.304   1.926  1.5003 -1.0506 -0.6859
    1SOL    HW3 4447   2.239   4.276   1.796 -0.8015  0.8488  0.1546
    1SOL    MW4 4448   2.246   4.266   1.882 -0.0312  0.6571  0.0733
    1SOL     OW 4449   2.477   4.372   1.974  0.2319 -0.4334  0.1986
    1SOL    HW2 4450   2.464   4.380   2.069  1.2670 -0.5752  0.3522
    1SOL    HW3 4451   2.554   4.317   1.965  0.9788  0.7325 -0.7102
    1SOL    MW4 4452   2.485   4.366   1.986  0.4673 -0.2980  0.0989
    1SOL     OW 4453   2.908   0.007   1.898 -0.0755 -0.6096 -0.3928
    1SOL    HW2 4454   2.990   0.041   1.932 -0.7723 -0.7050  1.4130
    1SOL    HW3 4455   2.910  -0.086   1.919 -0.2573 -0.7880 -1.1427
    1SOL    MW4 4456   2.919  -0.001   1.905 -0.1917 -0.6457 -0.2534
    1SOL     OW 4457   2.667   0.110   2.016 -0.5493 -0.5097  0.0290
    1SOL    HW2 4458   2.670   0.099   2.111  0.4466  1.1289  0.2193
    1SOL    HW3 4459   2.748   0.070   1.985 -1.0630 -1.3947 -0.1727
    1SOL    MW4 4460   2.678   0.103   2.025 -0.4859 -0.4103  0.0274
    1SOL     OW 4461   2.661   0.376   1.909 -0.1153  0.3411  0.3059
    1SOL    HW2 4462   2.747   0.412   1.934  0.8023 -1.6217  0.0848
    1SOL    HW3 4463   2.662   0.286   1.942 -1.8135  0.0642 -0.3399
    1SOL    MW4 4464   2.673   0.369   1.917 -0.2182  0.0456  0.1916
    1SOL     OW 4465   2.904   0.476   2.013  0.0552 -0.1220  0.0917
    1SOL    HW2 4466   2.979   0.429   1.976  0.3255 -0.0703  0.5633
    1SOL    HW3 4467   2.907   0.562   1.971 -0.7017 -0.6614 -1.1095
    1SOL    MW4 4468   2.914   0.481   2.002 -0.0091 -0.1863 -0.0045
    1SOL     OW 4469   2.917   0.727   1.873 -0.0590 -0.0613 -0.1420
    1SOL    HW2 4470   2.997   0.770   1.900 -0.0680 -0.4628  0.5375
    1SOL    HW3 4471   2.847   0.774   1.919 -0.0900 -0.6208  0.3949
    1SOL    MW4 4472   2.918   0.739   1.882 -0.0641 -0.1880  0.0185
    1SOL     OW 4473   2.709   0.891   1.985 -0.6639 -0.1836 -0.1075
    1SOL    HW2 4474   2.720   0.978   1.946 -0.9400  0.5446  1.4108
    1SOL    HW3 4475   2.630   0.856   1.944 -0.3819  0.1408 -0.9475
    1SOL    MW4 4476   2.700   0.898   1.974 -0.6630 -0.0447 -0.0180
    1SOL     OW 4477   2.740   1.122   1.872  0.0115  0.1270  0.0846
    1SOL    HW2 4478   2.668   1.179   1.899  0.5397  0.3344  1.0988
    1SOL    HW3 4479   2.736   1.121   1.776 -1.8227 -0.5109  0.1577
    1SOL    MW4 4480   2.730   1.130   1.863 -0.1609  0.0702  0.2279
    1SOL     OW 4481   2.953   1.297   1.966 -0.1597 -0.1461 -0.2450
    1SOL    HW2 4482   2.945   1.388   1.937 -1.2455 -0.0844  0.2477
    1SOL    HW3 4483   2.874   1.254   1.935  0.7879 -1.1735 -1.3115
    1SOL    MW4 4484   2.942   1.304   1.958 -0.1781 -0.2736 -0.3207
    1SOL     OW 4485   2.927   1.562   1.912  0.0068 -0.0472 -0.2576
    1SOL    HW2 4486   2.999   1.614   1.947  0.3901 -0.7586  0.0281
    1SOL    HW3 4487   2.946   1.554   1.819 -0.1536  0.4811 -0.3365
    1SOL    MW4 4488   2.939   1.568   1.904  0.0360 -0.0713 -0.2303
    1SOL     OW 4489   2.703   1.702   2.024  0.1391  0.1124  0.1779
    1SOL    HW2 4490   2.782   1.672   1.979  0.0229 -0.4071  0.3230
    1SOL    HW3 4491   2.631   1.662   1.975 -0.0643  1.0643 -0.3206
    1SOL    MW4 4492   2.704   1.693   2.011  0.0968  0.1694  0.1314
    1SOL     OW 4493   2.678   1.950   1.880 -0.1085 -0.3328 -0.2759
    1SOL    HW2 4494   2.750   1.996   1.924  0.2915 -0.8063 -0.4344
    1SOL    HW3 4495   2.681   1.861   1.917 -1.0990 -0.1402  0.2903
    1SOL    MW4 4496   2.688   1.944   1.891 -0.1864 -0.3698 -0.2222
    1SOL     OW 4497   2.927   2.092   1.955 -0.6079 -0.3803  0.1630
    1SOL    HW2 4498   2.921   2.088   2.051 -0.9134 -0.3042  0.1464
    1SOL    HW3 4499   2.997   2.029   1.934 -0.3326 -0.1794  0.4545
    1SOL    MW4 4500   2.936   2.083   1.965 -0.6120 -0.3438  0.1993
    1SOL     OW 4501   2.944   2.324   1.832  0.5153 -0.6790  0.2993
    1SOL    HW2 4502   3.024   2.370   1.858 -0.1725  0.8360 -0.1851
    1SOL    HW3 4503   2.944   2.244   1.885  1.1261  0.4687  2.0857
    1SOL    MW4 4504   2.954   2.319   1.843  0.5052 -0.3276  0.4711
    1SOL     OW 4505   2.697   2.398   1.914 -0.1704 -0.2233 -0.0827
    1SOL    HW2 4506   2.707   2.489   1.886  0.9632  0.3230  2.0097
    1SOL    HW3 4507   2.779   2.356   1.888 -0.8560 -0.7661 -1.4129
    1SOL    MW4 4508   2.709   2.405   1.907 -0.1113 -0.2229  0.0179
    1SOL     OW 4509   2.700   2.665   1.867 -0.2352 -0.1185 -0.0108
    1SOL    HW2 4510   2.624   2.712   1.902 -0.1669  0.3987 -0.5525
    1SOL    HW3 4511   2.703   2.689   1.775 -0.1873 -1.1798 -0.2977
    1SOL    MW4 4512   2.691   2.674   1.860 -0.2198 -0.1905 -0.1200
    1SOL     OW 4513   2.916   2.811   1.984  0.2830 -0.1840  0.3512
    1SOL    HW2 4514   2.902   2.898   1.945  1.5050 -0.9697 -1.9433
    1SOL    HW3 4515   2.855   2.754   1.940  1.6410 -1.0857 -0.3980
    1SOL    MW4 4516   2.906   2.815   1.973  0.6232 -0.4065 -0.0503
    1SOL     OW 4517   2.913   3.095   1.889 -0.5835  0.0509  0.5464
    1SOL    HW2 4518   2.992   3.135   1.925  0.3445 -0.6788 -0.6615
    1SOL    HW3 4519   2.842   3.128   1.945  0.4255  1.6131  0.9250
    1SOL    MW4 4520   2.914   3.104   1.901 -0.3278  0.1605  0.4369
    1SOL     OW 4521   2.715   3.214   2.015 -0.0108  0.2507 -0.3789
    1SOL    HW2 4522   2.705   3.300   1.976  0.6082  0.2766 -0.4876
    1SOL    HW3 4523   2.654   3.158   1.967 -0.2496  0.5772 -0.4558
    1SOL    MW4 4524   2.706   3.218   2.004  0.0391  0.2971 -0.4034
    1SOL     OW 4525   2.674   3.455   1.860 -0.3968  0.3679  0.0399
    1SOL    HW2 4526   2.747   3.500   1.902 -0.7043  2.1864 -1.2892
    1SOL    HW3 4527   2.596   3.498   1.896 -0.7080  0.5450 -0.8154
    1SOL    MW4 4528   2.673   3.467   1.870 -0.4785  0.6313 -0.2484
    1SOL     OW 4529   2.875   3.587   1.990 -0.6128  0.3209  0.0939
    1SOL    HW2 4530   2.858   3.573   2.083  0.0290  0.9270  0.3113
    1SOL    HW3 4531   2.965   3.557   1.978 -1.1189 -0.9071 -0.5898
    1SOL    MW4 4532   2.885   3.582   2.001 -0.5949  0.2389  0.0324
    1SOL     OW 4533   2.942   3.851   1.897  0.1977 -0.5951  0.2485
    1SOL    HW2 4534   2.942   3.763   1.934  4.5258 -1.0782 -0.5934
    1SOL    HW3 4535   2.939   3.837   1.802  2.8123 -0.0213  0.0227
    1SOL    MW4 4536   2.942   3.838   1.889  1.1137 -0.5832  0.1075
    1SOL     OW 4537   2.713   3.970   1.997  0.0358  0.1032  0.9566
    1SOL    HW2 4538   2.787   3.926   1.955  0.3429  0.3748  1.2095
    1SOL    HW3 4539   2.636   3.926   1.961  0.3636 -1.2763  1.9100
    1SOL    MW4 4540   2.713   3.958   1.987  0.1197 -0.0427  1.1157
    1SOL     OW 4541   2.702   4.237   1.895 -0.0337  0.1744 -0.0073
    1SOL    HW2 4542   2.716   4.151   1.935 -0.6836  0.4105  0.7484
    1SOL    HW3 4543   2.691   4.219   1.801  0.6080 -0.4799  0.0434
    1SOL    MW4 4544   2.702   4.223   1.888 -0.0348  0.1192  0.0991
    1SOL     OW 4545   2.916   4.396   1.967 -0.0892 -0.3282 -0.4112
    1SOL    HW2 4546   2.909   4.393   2.062 -0.6469  1.3478 -0.3723
    1SOL    HW3 4547   2.842   4.342   1.936  0.3291 -1.1994  0.0932
    1SOL    MW4 4548   2.905   4.388   1.975 -0.1075 -0.2222 -0.3396
    1SOL     OW 4549   3.365   4.622   1.890 -0.1513  0.4508 -0.0747
    1SOL    HW2 4550   3.350   4.538   1.935  1.8870  0.3888  0.5284
    1SOL    HW3 4551   3.329   4.608   1.802  1.3190 -1.5357 -0.4108
    1SOL    MW4 4552   3.358   4.609   1.884  0.3119  0.1802 -0.0395
    1SOL     OW 4553   3.144   0.099   1.987 -0.2772 -0.0964  0.4882
    1SOL    HW2 4554   3.154   0.106   2.082  1.1526  0.8472  0.2987
    1SOL    HW3 4555   3.231   0.071   1.956 -0.0313  1.8782 -0.7173
    1SOL    MW4 4556   3.157   0.097   1.996 -0.0560  0.2886  0.3041
    1SOL     OW 4557   3.120   0.370   1.883  0.0010 -0.1609 -0.1632
    1SOL    HW2 4558   3.145   0.282   1.911  0.9859 -0.4901 -1.9899
    1SOL    HW3 4559   3.116   0.365   1.787 -1.2525  1.4451 -0.2312
    1SOL    MW4 4560   3.123   0.358   1.874 -0.0346  0.0075 -0.4132
    1SOL     OW 4561   3.330   0.509   1.982 -0.3461  0.0733 -0.4548
    1SOL    HW2 4562   3.402   0.452   1.954 -0.3605 -0.3222  0.2878
    1SOL    HW3 4563   3.251   0.466   1.950 -0.3716 -0.4479  0.2777
    1SOL    MW4 4564   3.329   0.496   1.974 -0.3514 -0.0476 -0.2601
    1SOL     OW 4565   3.367   0.766   1.870  0.4522  0.2903  0.5926
    1SOL    HW2 4566   3.285   0.802   1.905 -0.5509 -0.1810 -1.1637
    1SOL    HW3 4567   3.371   0.678   1.906 -1.3500 -0.7380 -1.5518
    1SOL    MW4 4568   3.356   0.759   1.879  0.0823  0.0924  0.0780
    1SOL     OW 4569   3.123   0.872   1.971  0.4635 -0.5224 -0.1271
    1SOL    HW2 4570   3.124   0.895   2.064 -2.0108 -0.8719  0.0359
    1SOL    HW3 4571   3.135   0.956   1.925  0.0728 -0.1232  0.4965
    1SOL    MW4 4572   3.125   0.886   1.977  0.0856 -0.5158 -0.0234
    1SOL     OW 4573   3.148   1.125   1.858 -0.2992  0.1665  0.5516
    1SOL    HW2 4574   3.228   1.165   1.893  0.1129  0.2278 -0.4347
    1SOL    HW3 4575   3.077   1.183   1.886  0.3663  2.0894 -1.5719
    1SOL    MW4 4576   3.149   1.138   1.866 -0.1571  0.4281  0.1414
    1SOL     OW 4577   3.373   1.253   1.951  0.1123  0.0642  0.2900
    1SOL    HW2 4578   3.381   1.259   2.046  1.7839 -0.1904  0.1764
    1SOL    HW3 4579   3.365   1.343   1.921  0.4179  0.1909  0.5947
    1SOL    MW4 4580   3.373   1.266   1.960  0.3731  0.0473  0.3152
    1SOL     OW 4581   3.337   1.515   1.860 -0.0653 -0.4371  0.1690
    1SOL    HW2 4582   3.409   1.570   1.889 -0.1914 -0.0853 -0.1781
    1SOL    HW3 4583   3.259   1.557   1.896 -0.0942 -0.8310  0.5640
    1SOL    MW4 4584   3.336   1.528   1.868 -0.0858 -0.4426  0.1755
    1SOL     OW 4585   3.158   1.683   1.988 -0.1543 -0.0925  0.1838
    1SOL    HW2 4586   3.166   1.697   2.082 -1.9037 -0.3306  0.3838
    1SOL    HW3 4587   3.166   1.770   1.950 -1.1022  0.2088  0.6767
    1SOL    MW4 4588   3.160   1.696   1.996 -0.5102 -0.0842  0.2754
    1SOL     OW 4589   3.141   1.927   1.873 -0.0462  0.5959 -0.2212
    1SOL    HW2 4590   3.223   1.968   1.901 -0.0031  0.1804  0.2537
    1SOL    HW3 4591   3.136   1.945   1.779  1.4491 -0.8580 -0.6021
    1SOL    MW4 4592   3.151   1.935   1.864  0.1566  0.3492 -0.2089
    1SOL     OW 4593   3.366   2.074   1.969 -0.4785 -0.1297  0.0694
    1SOL    HW2 4594   3.445   2.029   1.939 -0.9792 -1.4775  0.7354
    1SOL    HW3 4595   3.377   2.164   1.940  0.1230 -0.8807 -2.0892
    1SOL    MW4 4596   3.378   2.080   1.961 -0.4654 -0.4065 -0.1277
    1SOL     OW 4597   3.393   2.330   1.849  0.1850 -0.1088  0.0692
    1SOL    HW2 4598   3.316   2.379   1.878  1.1960  0.8944  1.1199
    1SOL    HW3 4599   3.376   2.310   1.757 -1.2958  0.1539  0.2733
    1SOL    MW4 4600   3.380   2.334   1.841  0.1230  0.0584  0.2348
    1SOL     OW 4601   3.175   2.445   1.954  0.1397  0.3638 -0.0943
    1SOL    HW2 4602   3.182   2.445   2.050 -1.5687  0.7023  0.0460
    1SOL    HW3 4603   3.142   2.532   1.933 -0.1858  0.0348 -0.9357
    1SOL    MW4 4604   3.171   2.457   1.964 -0.1287  0.3653 -0.1869
    1SOL     OW 4605   3.141   2.717   1.856  0.2070 -0.4793 -0.3029
    1SOL    HW2 4606   3.072   2.775   1.890  1.5856  1.0974 -0.1133
    1SOL    HW3 4607   3.143   2.735   1.762  0.6674 -0.1859 -0.2373
    1SOL    MW4 4608   3.132   2.727   1.848  0.4497 -0.2325 -0.2693
    1SOL     OW 4609   3.381   2.834   1.939 -0.2563  0.4204  0.2767
    1SOL    HW2 4610   3.374   2.820   2.034 -1.8593 -0.2394  0.0878
    1SOL    HW3 4611   3.307   2.784   1.903 -0.0836  1.2629 -1.2585
    1SOL    MW4 4612   3.370   2.826   1.947 -0.4447  0.4447  0.0492
    1SOL     OW 4613   3.373   3.098   1.892  0.7667 -0.0794  0.2214
    1SOL    HW2 4614   3.448   3.138   1.935  1.9482 -1.5956 -0.3690
    1SOL    HW3 4615   3.381   3.004   1.912 -1.4336 -0.1718  0.8516
    1SOL    MW4 4616   3.384   3.091   1.901  0.6323 -0.2916  0.2267
    1SOL     OW 4617   3.145   3.226   1.990 -0.3871 -0.1964  0.3516
    1SOL    HW2 4618   3.146   3.216   2.086  0.4353 -0.2270  0.3455
    1SOL    HW3 4619   3.226   3.183   1.961 -0.2838  0.4372 -0.2979
    1SOL    MW4 4620   3.156   3.219   1.999 -0.2649 -0.1171  0.2652
    1SOL     OW 4621   3.127   3.494   1.913 -0.0363 -0.6905  0.2880
    1SOL    HW2 4622   3.136   3.406   1.951  0.0037 -0.3880  0.9804
    1SOL    HW3 4623   3.214   3.532   1.920  0.5430 -1.4576 -2.1851
    1SOL    MW4 4624   3.140   3.487   1.918  0.0455 -0.7517  0.0532
    1SOL     OW 4625   3.371   3.604   1.972 -0.3831 -0.0226  0.3611
    1SOL    HW2 4626   3.452   3.554   1.971 -0.6601 -0.4625 -0.4797
    1SOL    HW3 4627   3.395   3.689   1.936  0.1105  0.4943  1.8880
    1SOL    MW4 4628   3.384   3.608   1.967 -0.3548 -0.0124  0.4518
    1SOL     OW 4629   3.393   3.870   1.893 -0.3518  0.4849 -0.1041
    1SOL    HW2 4630   3.312   3.907   1.926 -0.1638  0.9416 -0.1575
    1SOL    HW3 4631   3.379   3.863   1.798 -0.8865 -0.8141  0.0590
    1SOL    MW4 4632   3.381   3.874   1.885 -0.3977  0.3736 -0.0895
    1SOL     OW 4633   3.169   4.006   1.977  0.1447 -0.1702 -0.4144
    1SOL    HW2 4634   3.155   3.998   2.071 -0.2528 -1.0508 -0.5406
    1SOL    HW3 4635   3.110   3.941   1.938 -0.0565  0.5256 -1.2971
    1SOL    MW4 4636   3.159   3.996   1.984  0.0656 -0.1948 -0.5474
    1SOL     OW 4637   3.127   4.251   1.857  0.0203  0.2190 -0.0496
    1SOL    HW2 4638   3.141   4.165   1.899  1.5087 -0.1084 -1.2015
    1SOL    HW3 4639   3.052   4.287   1.904  1.0769 -0.5281  2.3218
    1SOL    MW4 4640   3.119   4.244   1.869  0.3562  0.0772  0.1112
    1SOL     OW 4641   3.328   4.360   2.007  0.1283 -0.3530  0.5646
    1SOL    HW2 4642   3.397   4.322   1.952  0.4883  0.8448  0.1740
    1SOL    HW3 4643   3.247   4.321   1.974  0.4477 -0.4382 -0.1265
    1SOL    MW4 4644   3.326   4.350   1.995  0.2182 -0.2065  0.4218
    1SOL     OW 4645   3.824   4.658   1.864 -0.1823  0.4190 -0.6146
    1SOL    HW2 4646   3.823   4.565   1.887  2.1287  0.6120  0.4883
    1SOL    HW3 4647   3.744   4.693   1.903 -0.5410 -0.9137 -0.1147
    1SOL    MW4 4648   3.814   4.650   1.872  0.0756  0.2685 -0.4032
    1SOL     OW 4649   3.594   0.106   1.981  0.6825  0.4036 -0.2810
    1SOL    HW2 4650   3.601   0.110   2.076  0.9596 -0.0399 -0.2823
    1SOL    HW3 4651   3.514   0.056   1.964  1.0222 -0.1346 -0.2848
    1SOL    MW4 4652   3.584   0.100   1.991  0.7639  0.2741 -0.2817
    1SOL     OW 4653   3.554   0.358   1.885 -0.0072  0.2950  0.5783
    1SOL    HW2 4654   3.560   0.267   1.911 -0.8574  0.2812  0.7522
    1SOL    HW3 4655   3.558   0.356   1.789 -3.5512 -0.2801  0.3411
    1SOL    MW4 4656   3.555   0.346   1.875 -0.5870  0.2173  0.5699
    1SOL     OW 4657   3.793   0.485   2.007 -0.0982  0.0583 -0.1912
    1SOL    HW2 4658   3.808   0.573   1.974 -1.0539  0.2135 -0.2156
    1SOL    HW3 4659   3.715   0.454   1.960 -1.0705  0.0296  1.4237
    1SOL    MW4 4660   3.785   0.492   1.996 -0.3526  0.0750  0.0188
    1SOL     OW 4661   3.806   0.733   1.917 -0.2752 -0.3147  0.1105
    1SOL    HW2 4662   3.734   0.792   1.942  0.9811  1.6492 -0.7727
    1SOL    HW3 4663   3.802   0.729   1.822  0.9260  0.0327  0.0320
    1SOL    MW4 4664   3.796   0.740   1.908  0.0491 -0.0098 -0.0163
    1SOL     OW 4665   3.600   0.883   1.995 -0.2009  0.0178 -0.8004
    1SOL    HW2 4666   3.608   0.964   1.946 -0.5185 -1.2883 -3.0998
    1SOL    HW3 4667   3.524   0.839   1.957 -0.8410 -0.7601  1.3069
    1SOL    MW4 4668   3.591   0.888   1.983 -0.3271 -0.2571 -0.8258
    1SOL     OW 4669   3.628   1.141   1.892  0.0216 -0.1586  0.0932
    1SOL    HW2 4670   3.551   1.184   1.931  0.3471  0.2911  0.2417
    1SOL    HW3 4671   3.609   1.139   1.798 -0.6610 -1.0315  0.2431
    1SOL    MW4 4672   3.615   1.147   1.885 -0.0255 -0.2145  0.1324
    1SOL     OW 4673   3.863   1.296   1.961  0.5879 -0.1056 -0.0531
    1SOL    HW2 4674   3.863   1.287   2.057  0.4031 -0.8192 -0.1168
    1SOL    HW3 4675   3.779   1.261   1.933  0.7966 -0.2529 -0.5082
    1SOL    MW4 4676   3.852   1.290   1.970  0.5910 -0.2192 -0.1215
    1SOL     OW 4677   3.859   1.574   1.881 -0.1609 -0.1048  0.4570
    1SOL    HW2 4678   3.919   1.629   1.930 -2.2707  0.5055  2.4468
    1SOL    HW3 4679   3.859   1.490   1.928  0.3319 -0.6247 -0.4608
    1SOL    MW4 4680   3.867   1.570   1.893 -0.3743 -0.0929  0.5984
    1SOL     OW 4681   3.570   1.663   1.917 -0.0659 -0.1898 -0.0880
    1SOL    HW2 4682   3.576   1.758   1.918 -0.2960 -0.1574 -1.2276
    1SOL    HW3 4683   3.658   1.634   1.894 -0.2140 -0.2238 -0.6145
    1SOL    MW4 4684   3.582   1.671   1.914 -0.1159 -0.1900 -0.3079
    1SOL     OW 4685   3.591   1.924   1.866  0.4410 -0.2079 -0.2029
    1SOL    HW2 4686   3.674   1.960   1.898  0.8535 -0.6472 -0.7772
    1SOL    HW3 4687   3.597   1.931   1.771 -0.9426  1.4595 -0.1980
    1SOL    MW4 4688   3.603   1.930   1.857  0.3128 -0.0459 -0.2781
    1SOL     OW 4689   3.825   2.068   1.950 -0.5556  0.5510  0.3187
    1SOL    HW2 4690   3.899   2.011   1.929  0.7554  1.9629  0.9978
    1SOL    HW3 4691   3.841   2.149   1.901 -2.0956  0.5773 -0.1899
    1SOL    MW4 4692   3.837   2.071   1.941 -0.5858  0.7405  0.3412
    1SOL     OW 4693   3.853   2.312   1.827 -0.2128  0.0153 -0.3484
    1SOL    HW2 4694   3.923   2.348   1.881  0.4539  0.3462 -1.4149
    1SOL    HW3 4695   3.772   2.341   1.870  0.3097  1.2623 -0.1775
    1SOL    MW4 4696   3.852   2.320   1.840 -0.0558  0.2236 -0.4665
    1SOL     OW 4697   3.635   2.416   1.970 -0.0734 -0.0018 -0.2896
    1SOL    HW2 4698   3.632   2.508   1.943  1.1795  0.1559  0.0715
    1SOL    HW3 4699   3.554   2.378   1.935 -0.9619  1.4055  0.1928
    1SOL    MW4 4700   3.624   2.423   1.961 -0.0255  0.2048 -0.1783
    1SOL     OW 4701   3.618   2.692   1.848 -0.0403  0.0339  0.1109
    1SOL    HW2 4702   3.693   2.726   1.897 -1.0385  1.8411  0.4323
    1SOL    HW3 4703   3.543   2.738   1.884 -1.2257 -1.2175 -0.7183
    1SOL    MW4 4704   3.618   2.703   1.859 -0.3285  0.1073  0.0439
    1SOL     OW 4705   3.838   2.834   1.968  0.1091 -0.3446 -0.0374
    1SOL    HW2 4706   3.819   2.840   2.061 -0.4844 -0.1101 -0.1699
    1SOL    HW3 4707   3.840   2.925   1.937  2.2783 -0.3121  0.1234
    1SOL    MW4 4708   3.836   2.847   1.976  0.3173 -0.3095 -0.0336
    1SOL     OW 4709   3.818   3.091   1.870  0.5285  0.0074 -0.5166
    1SOL    HW2 4710   3.734   3.118   1.909  1.0069  0.8678 -0.0711
    1SOL    HW3 4711   3.805   3.101   1.776 -0.2040 -0.8342 -0.5140
    1SOL    MW4 4712   3.805   3.096   1.863  0.4947  0.0098 -0.4575
    1SOL     OW 4713   3.600   3.194   2.021 -0.3737  0.1635 -0.0350
    1SOL    HW2 4714   3.600   3.201   2.116  2.1075  0.0257  0.0136
    1SOL    HW3 4715   3.623   3.282   1.991  1.7549 -0.4839 -0.3852
    1SOL    MW4 4716   3.603   3.207   2.029  0.2344  0.0603 -0.0749
    1SOL     OW 4717   3.623   3.448   1.926 -0.3683  0.2139  0.4438
    1SOL    HW2 4718   3.663   3.526   1.963 -1.3986  0.7710  0.4123
    1SOL    HW3 4719   3.618   3.466   1.832 -1.3823  0.4744  0.5410
    1SOL    MW4 4720   3.627   3.461   1.918 -0.6380  0.3219  0.4525
    1SOL     OW 4721   3.801   3.671   2.018 -0.3999  0.2586  0.2723
    1SOL    HW2 4722   3.873   3.633   1.968 -0.2060  0.0557  0.7078
    1SOL    HW3 4723   3.802   3.764   1.994 -1.0833 -0.0522 -1.0462
    1SOL    MW4 4724   3.810   3.678   2.008 -0.4644  0.1910  0.1557
    1SOL     OW 4725   3.819   3.932   1.910 -0.1686  0.0221  0.4163
    1SOL    HW2 4726   3.748   3.993   1.930  0.4346  0.7589  0.3007
    1SOL    HW3 4727   3.801   3.903   1.821 -0.2178  0.3528  0.3185
    1SOL    MW4 4728   3.807   3.936   1.901 -0.0954  0.1631  0.3881
    1SOL     OW 4729   3.585   4.043   1.982 -0.2413  0.3045 -0.0594
    1SOL    HW2 4730   3.583   4.037   2.077 -0.0823 -0.0216 -0.0765
    1SOL    HW3 4731   3.527   3.973   1.952  0.1588  0.0391 -0.2161
    1SOL    MW4 4732   3.577   4.033   1.990 -0.1676  0.2265 -0.0824
    1SOL     OW 4733   3.571   4.304   1.851 -0.4299 -0.1074  0.1876
    1SOL    HW2 4734   3.654   4.332   1.889 -0.1136 -0.7119 -0.0422
    1SOL    HW3 4735   3.562   4.213   1.880 -0.1150 -0.6259 -1.2779
    1SOL    MW4 4736   3.581   4.295   1.860 -0.3467 -0.2556 -0.0361
    1SOL     OW 4737   3.810   4.394   1.968 -0.2111  0.4573 -0.0243
    1SOL    HW2 4738   3.797   4.386   2.063 -0.1009  0.8453  0.0212
    1SOL    HW3 4739   3.890   4.343   1.951 -0.5105 -0.0347  0.0166
    1SOL    MW4 4740   3.819   4.386   1.978 -0.2360  0.4439 -0.0130
    1SOL     OW 4741   4.275   4.631   1.902  0.4711 -0.5147  0.0317
    1SOL    HW2 4742   4.199   4.677   1.937  0.4055  1.5525 -2.6700
    1SOL    HW3 4743   4.350   4.668   1.949  0.0453 -0.7273  0.8844
    1SOL    MW4 4744   4.275   4.642   1.913  0.4063 -0.2700 -0.2123
    1SOL     OW 4745   4.056   0.115   1.973  0.0171 -0.4461 -0.3691
    1SOL    HW2 4746   4.034   0.134   2.064  0.4520  0.4300 -0.4405
    1SOL    HW3 4747   3.982   0.064   1.940 -1.2955  1.3353 -0.2326
    1SOL    MW4 4748   4.043   0.110   1.981 -0.0987 -0.0955 -0.3604
    1SOL     OW 4749   4.047   0.380   1.879  0.3786 -0.3450 -0.0018
    1SOL    HW2 4750   4.055   0.289   1.905 -0.8425 -0.3293  0.4420
    1SOL    HW3 4751   3.961   0.407   1.911  0.7265  0.9565 -0.1321
    1SOL    MW4 4752   4.037   0.372   1.887  0.2632 -0.1712  0.0396
    1SOL     OW 4753   4.291   0.493   1.977 -0.0310  0.5343 -0.4956
    1SOL    HW2 4754   4.288   0.477   2.071  1.5919 -0.1257 -0.5310
    1SOL    HW3 4755   4.207   0.462   1.944 -0.7611  1.1154  0.7794
    1SOL    MW4 4756   4.280   0.487   1.985  0.0868  0.5239 -0.3320
    1SOL     OW 4757   4.272   0.742   1.871  0.7786 -0.4293 -0.2142
    1SOL    HW2 4758   4.296   0.652   1.893  0.1098 -0.7120 -0.6217
    1SOL    HW3 4759   4.267   0.743   1.775 -0.8489 -0.4018 -0.1503
    1SOL    MW4 4760   4.274   0.730   1.861  0.4754 -0.4629 -0.2596
    1SOL     OW 4761   4.047   0.870   2.007 -0.0863 -0.2346 -0.1492
    1SOL    HW2 4762   4.114   0.816   1.964 -1.1044 -0.3058 -1.6668
    1SOL    HW3 4763   3.964   0.831   1.981 -0.7379 -0.2332  1.8575
    1SOL    MW4 4764   4.045   0.857   1.998 -0.3066 -0.2438 -0.0848
    1SOL     OW 4765   4.060   1.122   1.865 -0.6625  0.1196  0.0261
    1SOL    HW2 4766   4.054   1.045   1.922 -1.2431  0.0871 -0.0715
    1SOL    HW3 4767   3.989   1.179   1.895 -0.5834  0.3700 -0.2685
    1SOL    MW4 4768   4.050   1.119   1.877 -0.7286  0.1484 -0.0256
    1SOL     OW 4769   4.280   1.272   1.965  0.0342  0.2202 -0.0218
    1SOL    HW2 4770   4.270   1.263   2.060 -0.8498  0.0949 -0.1268
    1SOL    HW3 4771   4.223   1.204   1.928  1.3285 -0.5640 -0.6266
    1SOL    MW4 4772   4.271   1.262   1.973  0.0882  0.1003 -0.1155
    1SOL     OW 4773   4.262   1.531   1.892  0.1997 -0.1572 -0.1001
    1SOL    HW2 4774   4.265   1.441   1.926  2.7995  0.2622  0.9057
    1SOL    HW3 4775   4.264   1.521   1.797 -2.0570 -1.2169 -0.0623
    1SOL    MW4 4776   4.263   1.518   1.884  0.2451 -0.2416  0.0376
    1SOL     OW 4777   4.076   1.708   1.996  0.2910  0.3656 -0.1564
    1SOL    HW2 4778   4.080   1.691   2.091  0.4052 -1.8400 -0.5143
    1SOL    HW3 4779   4.145   1.651   1.960  0.5529  1.5401 -1.5205
    1SOL    MW4 4780   4.086   1.698   2.004  0.3405  0.2295 -0.3836
    1SOL     OW 4781   4.069   1.970   1.906  0.0209 -0.0661  0.3482
    1SOL    HW2 4782   4.082   1.877   1.923  0.1872 -0.1215 -0.0577
    1SOL    HW3 4783   4.090   1.980   1.813 -0.4023  0.3019  0.2900
    1SOL    MW4 4784   4.073   1.959   1.896 -0.0134 -0.0248  0.2871
    1SOL     OW 4785   4.300   2.071   2.046  0.2257 -0.6532 -0.3637
    1SOL    HW2 4786   4.291   2.064   2.141 -0.0942 -0.9339 -0.4141
    1SOL    HW3 4787   4.219   2.034   2.012 -0.1882  0.5588 -0.7123
    1SOL    MW4 4788   4.288   2.065   2.054  0.1292 -0.5302 -0.4163
    1SOL     OW 4789   4.306   2.325   1.895  0.1667 -0.0201 -0.2238
    1SOL    HW2 4790   4.322   2.246   1.947  0.0238  0.7846  1.0526
    1SOL    HW3 4791   4.383   2.379   1.910 -1.1588  1.4460  1.4383
    1SOL    MW4 4792   4.319   2.321   1.904 -0.0272  0.2797  0.1639
    1SOL     OW 4793   4.059   2.418   1.970 -0.0740  0.1793  0.8150
    1SOL    HW2 4794   4.059   2.426   2.065 -1.2028 -0.9509  0.9246
    1SOL    HW3 4795   4.145   2.381   1.949 -0.2372 -0.6144  1.5047
    1SOL    MW4 4796   4.070   2.414   1.980 -0.2451 -0.0746  0.9203
    1SOL     OW 4797   4.057   2.692   1.897  0.3652  0.4081  0.0146
    1SOL    HW2 4798   4.024   2.604   1.914  1.6222 -0.0341  0.2307
    1SOL    HW3 4799   3.988   2.750   1.928 -1.0610 -0.5158 -1.3519
    1SOL    MW4 4800   4.043   2.688   1.903  0.3428  0.2282 -0.1371
    1SOL     OW 4801   4.254   2.848   2.014  0.0931  0.3894 -0.2439
    1SOL    HW2 4802   4.259   2.861   2.109  2.3288 -1.0911 -0.1184
    1SOL    HW3 4803   4.179   2.791   2.002 -0.3193  0.7401  0.6208
    1SOL    MW4 4804   4.245   2.842   2.025  0.3333  0.2403 -0.1130
    1SOL     OW 4805   4.292   3.112   1.880 -0.1865 -0.0560 -0.3557
    1SOL    HW2 4806   4.214   3.154   1.915 -0.2507 -1.0535  0.7017
    1SOL    HW3 4807   4.300   3.030   1.928  1.9970  0.4179  0.1601
    1SOL    MW4 4808   4.283   3.107   1.891  0.0930 -0.1249 -0.1481
    1SOL     OW 4809   4.064   3.216   1.963  0.2848 -0.1690 -0.2159
    1SOL    HW2 4810   4.068   3.229   2.058 -0.0364  1.8975 -0.4594
    1SOL    HW3 4811   3.978   3.175   1.948  0.3465 -0.5231  0.3906
    1SOL    MW4 4812   4.053   3.212   1.974  0.2508  0.0567 -0.1680
    1SOL     OW 4813   4.026   3.495   1.919 -0.1540 -0.3641  0.6155
    1SOL    HW2 4814   4.105   3.528   1.963  0.0852 -1.7546  1.2754
    1SOL    HW3 4815   4.035   3.400   1.924 -1.7556 -0.5267  0.4654
    1SOL    MW4 4816   4.038   3.487   1.926 -0.3338 -0.5689  0.6827
    1SOL     OW 4817   4.291   3.578   1.979  0.0202 -0.1891 -0.4182
    1SOL    HW2 4818   4.283   3.656   1.923  0.3186  0.1844  0.0507
    1SOL    HW3 4819   4.375   3.539   1.954 -0.4145 -0.6924 -1.0742
    1SOL    MW4 4820   4.301   3.583   1.969  0.0024 -0.2060 -0.4429
    1SOL     OW 4821   4.253   3.840   1.876 -0.2725 -0.3424  0.6353
    1SOL    HW2 4822   4.329   3.888   1.907 -0.5984  0.6446 -0.0874
    1SOL    HW3 4823   4.254   3.852   1.781 -1.6929  0.2164  0.6808
    1SOL    MW4 4824   4.264   3.848   1.867 -0.5026 -0.1388  0.5460
    1SOL     OW 4825   4.066   4.018   1.992  0.4476  0.1638  0.1922
    1SOL    HW2 4826   4.129   3.955   1.957 -0.0348 -0.0932 -0.2220
    1SOL    HW3 4827   3.981   3.984   1.964  0.2867  1.9591 -1.5406
    1SOL    MW4 4828   4.063   4.005   1.984  0.3629  0.3672 -0.0910
    1SOL     OW 4829   4.052   4.268   1.892  0.1608 -0.1929  0.3812
    1SOL    HW2 4830   4.131   4.315   1.916 -1.2254  1.0845  2.6812
    1SOL    HW3 4831   4.064   4.180   1.928  1.9332 -1.0330 -2.2167
    1SOL    MW4 4832   4.064   4.263   1.900  0.2122 -0.1349  0.3420
    1SOL     OW 4833   4.283   4.373   2.007 -0.4062 -0.4844  0.0048
    1SOL    HW2 4834   4.263   4.387   2.100 -0.4802  0.2031 -0.1101
    1SOL    HW3 4835   4.270   4.459   1.967  0.3156 -0.6149 -0.5194
    1SOL    MW4 4836   4.279   4.386   2.014 -0.3209 -0.4110 -0.0794
    1SOL     OW 4837   0.231   4.654   2.364 -0.2526 -0.6671 -0.0120
    1SOL    HW2 4838   0.241   4.645   2.459 -0.6646  1.7764  0.3016
    1SOL    HW3 4839   0.309   4.703   2.337 -0.3835 -0.9241 -0.8571
    1SOL    MW4 4840   0.243   4.660   2.373 -0.3242 -0.3786 -0.0823
    1SOL     OW 4841   0.015   0.103   2.258  0.1024 -0.2966  0.0271
    1SOL    HW2 4842   0.087   0.056   2.299 -0.2514 -0.0211  0.9758
    1SOL    HW3 4843   0.030   0.093   2.164  0.8352 -1.0571  0.2214
    1SOL    MW4 4844   0.026   0.095   2.251  0.1524 -0.3606  0.1781
    1SOL     OW 4845   0.003   0.366   2.366  0.2489 -0.3885 -0.2343
    1SOL    HW2 4846   0.082   0.400   2.327 -0.1112  1.4401  0.5996
    1SOL    HW3 4847  -0.007   0.278   2.328  1.3608  0.2871 -2.1322
    1SOL    MW4 4848   0.012   0.359   2.356  0.3481 -0.0581 -0.3743
    1SOL     OW 4849   0.266   0.459   2.308 -0.4710  0.7833 -0.4333
    1SOL    HW2 4850   0.343   0.412   2.338  0.1624  1.4186 -1.0420
    1SOL    HW3 4851   0.275   0.462   2.213  0.1445  3.1638 -0.3470
    1SOL    MW4 4852   0.277   0.453   2.300 -0.3062  1.1812 -0.5023
    1SOL     OW 4853   0.209   0.731   2.353  0.0926 -0.2531 -0.3093
    1SOL    HW2 4854   0.201   0.733   2.448 -0.1277  1.5849 -0.3601
    1SOL    HW3 4855   0.241   0.642   2.334  0.4312 -0.5355  1.4906
    1SOL    MW4 4856   0.212   0.719   2.363  0.1082 -0.0479 -0.0784
    1SOL     OW 4857   4.463   0.895   2.251  0.0571 -0.1994 -0.1036
    1SOL    HW2 4858   4.531   0.831   2.273 -1.2001 -1.5237  0.0041
    1SOL    HW3 4859   4.475   0.911   2.157  1.4884  0.7631  0.2201
    1SOL    MW4 4860   4.474   0.889   2.241  0.0801 -0.2471 -0.0467
    1SOL     OW 4861   0.039   1.148   2.316  0.1438  0.1964 -0.3578
    1SOL    HW2 4862   0.029   1.146   2.411  0.1690 -0.9711 -0.3652
    1SOL    HW3 4863   0.029   1.056   2.289  2.6966  0.1356 -1.2147
    1SOL    MW4 4864   0.037   1.136   2.325  0.4840  0.0345 -0.4718
    1SOL     OW 4865   0.267   1.291   2.231 -0.2919 -0.2739 -0.3813
    1SOL    HW2 4866   0.199   1.228   2.254 -0.7506  0.1160 -0.6491
    1SOL    HW3 4867   0.259   1.301   2.136 -0.6319  0.6330 -0.2713
    1SOL    MW4 4868   0.257   1.284   2.222 -0.3973 -0.1029 -0.4020
    1SOL     OW 4869   0.245   1.545   2.342 -0.4235  0.2580 -0.0392
    1SOL    HW2 4870   0.231   1.527   2.435  0.5129 -3.0678 -0.4606
    1SOL    HW3 4871   0.253   1.458   2.302 -1.6274  1.5896 -3.3699
    1SOL    MW4 4872   0.244   1.531   2.349 -0.4588 -0.0052 -0.5343
    1SOL     OW 4873   0.012   1.642   2.239 -0.1268 -0.2570  0.1309
    1SOL    HW2 4874  -0.003   1.724   2.285  1.9022  0.7113 -0.8800
    1SOL    HW3 4875   0.097   1.611   2.273 -0.9584 -2.0498  0.6493
    1SOL    MW4 4876   0.021   1.648   2.250  0.0312 -0.3657  0.0660
    1SOL     OW 4877   4.490   1.904   2.379 -0.2470 -0.2122 -0.5550
    1SOL    HW2 4878   4.416   1.959   2.353  0.2386  1.2225  1.0278
    1SOL    HW3 4879   4.568   1.954   2.352  0.1880 -0.9407 -0.6834
    1SOL    MW4 4880   4.491   1.918   2.372 -0.1256 -0.1191 -0.3631
    1SOL     OW 4881   0.196   2.056   2.280 -0.0953 -0.5242  0.0410
    1SOL    HW2 4882   0.279   2.014   2.300 -1.3139 -3.0714 -0.0117
    1SOL    HW3 4883   0.188   2.050   2.185  0.7768  2.0182 -0.2530
    1SOL    MW4 4884   0.206   2.050   2.270 -0.1410 -0.5250 -0.0045
    1SOL     OW 4885   0.207   2.322   2.367 -0.1076 -0.1882  0.2033
    1SOL    HW2 4886   0.201   2.310   2.462 -0.6088 -1.1480  0.0577
    1SOL    HW3 4887   0.201   2.233   2.332  0.4523  0.1346 -0.7100
    1SOL    MW4 4888   0.206   2.309   2.375 -0.0998 -0.2723  0.0634
    1SOL     OW 4889   4.490   2.438   2.224 -0.6875 -0.1575 -0.4468
    1SOL    HW2 4890   4.495   2.521   2.272 -0.9112 -0.0503 -0.6067
    1SOL    HW3 4891   4.560   2.385   2.261 -0.8454 -0.0663 -0.0174
    1SOL    MW4 4892   4.500   2.442   2.235 -0.7378 -0.1314 -0.4113
    1SOL     OW 4893   0.005   2.701   2.324 -0.0769 -0.0774  0.1534
    1SOL    HW2 4894   0.002   2.711   2.419  0.3091  0.1899  0.1382
    1SOL    HW3 4895   0.079   2.754   2.297  0.4034 -0.9195 -0.2023
    1SOL    MW4 4896   0.014   2.709   2.333  0.0372 -0.1533  0.1044
    1SOL     OW 4897   0.258   2.828   2.250  0.3191  0.3321  0.1637
    1SOL    HW2 4898   0.332   2.773   2.275 -0.6780 -0.4180  1.5272
    1SOL    HW3 4899   0.255   2.823   2.155  1.3275 -0.5394  0.1699
    1SOL    MW4 4900   0.267   2.820   2.241  0.3206  0.1183  0.3445
    1SOL     OW 4901   0.247   3.086   2.373 -0.4015  0.5350  0.2586
    1SOL    HW2 4902   0.164   3.123   2.344 -0.2416  0.7833  0.1200
    1SOL    HW3 4903   0.241   2.993   2.350 -0.1594  0.7848 -0.8351
    1SOL    MW4 4904   0.235   3.078   2.366 -0.3484  0.6006  0.0961
    1SOL     OW 4905   0.005   3.194   2.302  0.0647 -0.7176  0.1412
    1SOL    HW2 4906   0.006   3.285   2.334 -1.2234 -0.3989 -0.7172
    1SOL    HW3 4907  -0.006   3.202   2.208  0.5426 -1.7634 -0.0044
    1SOL    MW4 4908   0.004   3.207   2.294 -0.0422 -0.8135  0.0088
    1SOL     OW 4909   0.019   3.455   2.373  0.5658 -0.5057  0.4511
    1SOL    HW2 4910   0.008   3.467   2.467 -0.5223 -1.4078  0.4467
    1SOL    HW3 4911  -0.064   3.483   2.335  0.0409 -2.6042 -0.0185
    1SOL    MW4 4912   0.007   3.460   2.380  0.3524 -0.9019  0.3884
    1SOL     OW 4913   0.255   3.603   2.275  0.2037  0.1621  0.1808
    1SOL    HW2 4914   0.331   3.560   2.313  0.5502  0.5983 -0.0048
    1SOL    HW3 4915   0.180   3.558   2.313  0.5499  0.1046  0.8157
    1SOL    MW4 4916   0.255   3.592   2.285  0.2952  0.2120  0.2403
    1SOL     OW 4917   0.220   3.869   2.352 -0.3509  0.0766  0.0602
    1SOL    HW2 4918   0.129   3.891   2.330  0.4248  1.7798 -1.5768
    1SOL    HW3 4919   0.235   3.784   2.312 -1.1067 -0.0251 -0.0114
    1SOL    MW4 4920   0.210   3.861   2.344 -0.3483  0.2878 -0.1655
    1SOL     OW 4921   4.465   3.978   2.254 -0.0948 -0.0331 -0.5363
    1SOL    HW2 4922   4.467   4.071   2.277  0.4125 -0.0431 -0.5374
    1SOL    HW3 4923   4.491   3.975   2.162 -0.9754 -0.0985 -0.7881
    1SOL    MW4 4924   4.469   3.990   2.245 -0.1450 -0.0432 -0.5698
    1SOL     OW 4925   0.003   4.254   2.324  0.4361 -0.5264  0.1619
    1SOL    HW2 4926   0.027   4.232   2.414  1.3795  0.3328  0.1282
    1SOL    HW3 4927   0.074   4.309   2.293 -0.5540  0.3040 -0.6646
    1SOL    MW4 4928   0.015   4.258   2.332  0.4296 -0.3033  0.0484
    1SOL     OW 4929   0.238   4.385   2.265  0.1004 -0.2034 -0.2364
    1SOL    HW2 4930   0.320   4.344   2.293  0.5903 -0.9995 -2.7214
    1SOL    HW3 4931   0.240   4.472   2.304  2.3077 -0.0851 -0.5888
    1SOL    MW4 4932   0.249   4.391   2.274  0.4562 -0.2923 -0.6108
    1SOL     OW 4933   0.693   4.625   2.368 -0.0262 -0.0433  0.3041
    1SOL    HW2 4934   0.702   4.630   2.463  1.5267 -1.0243  0.2256
    1SOL    HW3 4935   0.761   4.684   2.335 -1.3613  1.2446 -0.1940
    1SOL    MW4 4936   0.704   4.634   2.376  0.0026 -0.0029  0.2282
    1SOL     OW 4937   0.467   0.105   2.266  0.2772  0.1412  0.2944
    1SOL    HW2 4938   0.528   0.035   2.288 -0.4765 -0.8223 -0.6006
    1SOL    HW3 4939   0.461   0.102   2.171 -0.5381  0.7569  0.3214
    1SOL    MW4 4940   0.474   0.095   2.257  0.0702  0.0953  0.1800
    1SOL     OW 4941   0.530   0.346   2.374 -0.2835  0.5404  0.1484
    1SOL    HW2 4942   0.523   0.339   2.469  0.4821  0.4727  0.2035
    1SOL    HW3 4943   0.524   0.256   2.343 -1.2174  0.6203  0.0780
    1SOL    MW4 4944   0.528   0.333   2.382 -0.3058  0.5420  0.1464
    1SOL     OW 4945   0.719   0.487   2.239  0.6252  0.5523  0.1708
    1SOL    HW2 4946   0.716   0.578   2.270  2.2601  0.2951  1.0994
    1SOL    HW3 4947   0.650   0.443   2.289  1.1530  0.8458  1.1778
    1SOL    MW4 4948   0.709   0.493   2.250  0.9106  0.5571  0.4263
    1SOL     OW 4949   0.636   0.744   2.339 -0.0821  0.6634  0.2010
    1SOL    HW2 4950   0.608   0.726   2.429 -1.4161 -0.3775 -0.4101
    1SOL    HW3 4951   0.561   0.788   2.299  0.1358  0.2202 -0.7081
    1SOL    MW4 4952   0.622   0.748   2.346 -0.2294  0.4675  0.0002
    1SOL     OW 4953   0.425   0.884   2.233 -0.3877 -0.0838  0.1965
    1SOL    HW2 4954   0.440   0.955   2.296  0.7629 -0.9449  0.9200
    1SOL    HW3 4955   0.352   0.834   2.270  0.0267 -0.3566  0.6575
    1SOL    MW4 4956   0.418   0.887   2.246 -0.1812 -0.2335  0.3526
    1SOL     OW 4957   0.480   1.123   2.352 -0.2308  0.9113  0.5060
    1SOL    HW2 4958   0.452   1.116   2.443 -0.7406  0.5257  0.3229
    1SOL    HW3 4959   0.418   1.183   2.311 -0.1910  0.8414  0.3393
    1SOL    MW4 4960   0.468   1.130   2.359 -0.2928  0.8510  0.4599
    1SOL     OW 4961   0.692   1.269   2.247  0.4006 -0.3752  0.4539
    1SOL    HW2 4962   0.689   1.351   2.297 -1.2911  0.3728 -0.8296
    1SOL    HW3 4963   0.617   1.219   2.278  0.6747 -0.8748  0.3029
    1SOL    MW4 4964   0.682   1.273   2.258  0.2136 -0.3424  0.2646
    1SOL     OW 4965   0.678   1.527   2.393  0.0583  0.0403 -0.4414
    1SOL    HW2 4966   0.684   1.523   2.488  1.5176  1.2483 -0.4697
    1SOL    HW3 4967   0.758   1.571   2.365 -1.1326  1.2134 -2.1205
    1SOL    MW4 4968   0.689   1.532   2.401  0.0937  0.3545 -0.6666
    1SOL     OW 4969   0.484   1.681   2.281  0.2059  0.0030  0.4078
    1SOL    HW2 4970   0.558   1.637   2.323 -0.3055 -0.1186  1.1933
    1SOL    HW3 4971   0.408   1.628   2.305 -0.1217  0.0340 -0.5310
    1SOL    MW4 4972   0.484   1.668   2.290  0.0952 -0.0089  0.3872
    1SOL     OW 4973   0.412   1.922   2.390  0.3638  0.2323  0.3692
    1SOL    HW2 4974   0.501   1.953   2.373  1.2457 -2.6925 -0.5682
    1SOL    HW3 4975   0.413   1.830   2.365 -2.8130  0.0148  0.8254
    1SOL    MW4 4976   0.424   1.914   2.385  0.0610 -0.1823  0.3057
    1SOL     OW 4977   0.649   2.030   2.283  0.1483 -0.1498  0.2931
    1SOL    HW2 4978   0.734   1.994   2.307  0.1385 -0.1062  0.3936
    1SOL    HW3 4979   0.653   2.121   2.310  0.7595  0.3490 -1.4223
    1SOL    MW4 4980   0.661   2.037   2.290  0.2277 -0.0780  0.0803
    1SOL     OW 4981   0.672   2.285   2.356 -0.2249 -0.0892  0.2863
    1SOL    HW2 4982   0.682   2.282   2.451  0.3197  0.4285  0.2450
    1SOL    HW3 4983   0.745   2.338   2.326 -0.7413  0.2476 -0.3769
    1SOL    MW4 4984   0.683   2.291   2.365 -0.2212  0.0236  0.1934
    1SOL     OW 4985   0.446   2.426   2.261  0.0348 -0.3760  0.0445
    1SOL    HW2 4986   0.522   2.378   2.293  0.2536  0.0577  0.1901
    1SOL    HW3 4987   0.376   2.402   2.321  0.6487  1.0889  1.4071
    1SOL    MW4 4988   0.447   2.417   2.273  0.1447 -0.1256  0.2437
    1SOL     OW 4989   0.462   2.680   2.349  0.6338  0.1503 -0.2958
    1SOL    HW2 4990   0.448   2.680   2.443  2.5606  1.8569  0.0288
    1SOL    HW3 4991   0.459   2.587   2.324 -0.8725 -0.2425  1.2645
    1SOL    MW4 4992   0.460   2.668   2.358  0.6894  0.3238 -0.0474
    1SOL     OW 4993   0.685   2.840   2.278 -0.1739 -0.3706  0.1037
    1SOL    HW2 4994   0.765   2.796   2.307  0.4562  1.2965  0.9366
    1SOL    HW3 4995   0.615   2.791   2.321  0.5043 -0.6763  0.8977
    1SOL    MW4 4996   0.687   2.828   2.288 -0.0013 -0.1907  0.3185
    1SOL     OW 4997   0.670   3.083   2.382  0.2578  0.1405  0.0052
    1SOL    HW2 4998   0.593   3.121   2.339  0.0531 -0.1236  0.1356
    1SOL    HW3 4999   0.686   3.002   2.334 -0.6901 -0.7578  1.1678
    1SOL    MW4 5000   0.662   3.077   2.370  0.1057 -0.0129  0.1757
    1SOL     OW 5001   0.455   3.214   2.259 -0.4048  0.0307 -0.2518
    1SOL    HW2 5002   0.379   3.162   2.285 -0.0321 -0.8814 -0.9426
    1SOL    HW3 5003   0.444   3.225   2.164  0.5122 -0.4168 -0.4110
    1SOL    MW4 5004   0.443   3.209   2.250 -0.2347 -0.1485 -0.3638
    1SOL     OW 5005   0.476   3.458   2.398  0.0153 -0.2052  0.3703
    1SOL    HW2 5006   0.550   3.507   2.361  0.6196 -0.1843  1.5698
    1SOL    HW3 5007   0.473   3.377   2.348 -0.6968  0.8211 -1.3317
    1SOL    MW4 5008   0.486   3.454   2.386  0.0010 -0.0672  0.3040
    1SOL     OW 5009   0.668   3.630   2.262 -0.1838 -0.2251 -0.1451
    1SOL    HW2 5010   0.660   3.721   2.289  2.1008 -0.0987  0.2234
    1SOL    HW3 5011   0.675   3.633   2.167  3.6439  0.3477  0.0865
    1SOL    MW4 5012   0.668   3.642   2.253  0.6226 -0.1328 -0.0658
    1SOL     OW 5013   0.672   3.897   2.356 -0.6565  0.1699 -0.4564
    1SOL    HW2 5014   0.691   3.895   2.450 -0.1051  1.2271 -0.5353
    1SOL    HW3 5015   0.584   3.933   2.350 -0.1417  1.4541 -0.4084
    1SOL    MW4 5016   0.663   3.901   2.368 -0.5158  0.4787 -0.4606
    1SOL     OW 5017   0.426   4.024   2.257 -0.0032  0.2853 -0.3089
    1SOL    HW2 5018   0.345   3.978   2.281  0.5023  0.0141  0.9102
    1SOL    HW3 5019   0.431   4.015   2.162 -1.5380  0.5260 -0.4316
    1SOL    MW4 5020   0.416   4.016   2.248 -0.1390  0.2813 -0.1643
    1SOL     OW 5021   0.465   4.281   2.362  0.0368 -0.0153  0.0347
    1SOL    HW2 5022   0.535   4.317   2.308 -0.9006  0.9358 -0.5695
    1SOL    HW3 5023   0.465   4.188   2.342  1.6326 -0.1580  0.6289
    1SOL    MW4 5024   0.474   4.274   2.352  0.1236  0.0916  0.0331
    1SOL     OW 5025   0.687   4.370   2.236  0.2050  0.4210  0.0712
    1SOL    HW2 5026   0.697   4.460   2.269  1.0596  0.6425 -0.7669
    1SOL    HW3 5027   0.695   4.379   2.141  1.8717 -0.7485  0.0783
    1SOL    MW4 5028   0.689   4.383   2.228  0.5376  0.2952 -0.0384
    1SOL     OW 5029   1.113   4.619   2.373  0.5925  0.2606 -0.2506
    1SOL    HW2 5030   1.102   4.633   2.467 -0.0011  0.4826 -0.3522
    1SOL    HW3 5031   1.037   4.660   2.334  1.7160  1.7058 -0.9655
    1SOL    MW4 5032   1.102   4.626   2.380  0.6626  0.4811 -0.3581
    1SOL     OW 5033   0.897   0.106   2.254 -0.1318 -0.2636  0.2855
    1SOL    HW2 5034   0.898   0.199   2.277 -0.6981 -0.0555 -0.5124
    1SOL    HW3 5035   0.892   0.105   2.159  3.0192 -1.1077  0.0780
    1SOL    MW4 5036   0.896   0.119   2.245  0.2093 -0.3475  0.1526
    1SOL     OW 5037   0.915   0.367   2.371 -0.4868  0.1851  0.2852
    1SOL    HW2 5038   0.990   0.416   2.337 -0.1822  0.5427  1.4435
    1SOL    HW3 5039   0.839   0.417   2.341 -0.2686 -0.1939 -0.9174
    1SOL    MW4 5040   0.915   0.380   2.363 -0.4178  0.1823  0.2794
    1SOL     OW 5041   1.127   0.486   2.246  0.5100 -0.2734 -0.0742
    1SOL    HW2 5042   1.196   0.430   2.280  1.7185  0.8220 -0.6452
    1SOL    HW3 5043   1.127   0.470   2.152  1.6281  1.4732 -0.3939
    1SOL    MW4 5044   1.136   0.477   2.238  0.8169  0.1015 -0.1917
    1SOL     OW 5045   1.112   0.758   2.325  0.5060  0.2184  0.3585
    1SOL    HW2 5046   1.025   0.792   2.303  1.3776  1.4992 -1.2055
    1SOL    HW3 5047   1.107   0.664   2.305 -0.8257  0.0587  1.3304
    1SOL    MW4 5048   1.100   0.750   2.320  0.4454  0.3663  0.2804
    1SOL     OW 5049   0.868   0.882   2.274 -0.4433 -0.2191 -0.0896
    1SOL    HW2 5050   0.879   0.968   2.314 -0.8022  0.5716 -1.6359
    1SOL    HW3 5051   0.779   0.857   2.297  0.0834 -0.7421  1.4081
    1SOL    MW4 5052   0.858   0.890   2.282 -0.4210 -0.1838 -0.0956
    1SOL     OW 5053   0.898   1.139   2.376  0.1416 -0.3688 -0.0566
    1SOL    HW2 5054   0.970   1.201   2.366  0.3420 -0.4665  0.7287
    1SOL    HW3 5055   0.822   1.184   2.338  0.2198  0.4880  0.7815
    1SOL    MW4 5056   0.897   1.153   2.370  0.1784 -0.2686  0.1578
    1SOL     OW 5057   1.142   1.293   2.283  0.1532  0.4509  0.2175
    1SOL    HW2 5058   1.214   1.233   2.305 -0.3912 -0.4609 -0.4175
    1SOL    HW3 5059   1.126   1.278   2.190 -0.9188  0.5616  0.3677
    1SOL    MW4 5060   1.149   1.283   2.274 -0.0600  0.3452  0.1535
    1SOL     OW 5061   1.145   1.536   2.391  0.4239  0.2253 -0.0748
    1SOL    HW2 5062   1.064   1.574   2.357 -0.2966 -1.0289  0.2012
    1SOL    HW3 5063   1.148   1.448   2.352  0.9745 -0.2154  0.9504
    1SOL    MW4 5064   1.135   1.529   2.381  0.4013  0.0017  0.0970
    1SOL     OW 5065   0.905   1.638   2.293  0.1283 -0.0589  0.2372
    1SOL    HW2 5066   0.898   1.729   2.319  1.3883 -0.0193  0.4934
    1SOL    HW3 5067   0.907   1.640   2.198 -3.3237 -0.1131  0.1007
    1SOL    MW4 5068   0.905   1.650   2.284 -0.1609 -0.0608  0.2532
    1SOL     OW 5069   0.902   1.917   2.338 -0.1832  0.4046 -0.1510
    1SOL    HW2 5070   0.920   1.944   2.428 -0.2213 -0.5733  0.1560
    1SOL    HW3 5071   0.975   1.952   2.288  0.0493  0.6102  0.3293
    1SOL    MW4 5072   0.914   1.925   2.343 -0.1575  0.3027 -0.0470
    1SOL     OW 5073   1.123   2.064   2.250 -0.1526 -0.1838 -0.1933
    1SOL    HW2 5074   1.184   2.006   2.297  0.6289 -0.1136 -1.0900
    1SOL    HW3 5075   1.133   2.038   2.158  0.1715  1.3311 -0.6027
    1SOL    MW4 5076   1.133   2.053   2.244 -0.0067  0.0255 -0.3657
    1SOL     OW 5077   1.127   2.327   2.340  0.2547  0.2648 -0.5048
    1SOL    HW2 5078   1.199   2.373   2.296  2.2567 -1.2526  1.0896
    1SOL    HW3 5079   1.131   2.238   2.305 -1.3658  0.3600 -0.9685
    1SOL    MW4 5080   1.137   2.322   2.329  0.3051  0.0775 -0.3555
    1SOL     OW 5081   0.893   2.415   2.243 -0.0157  0.3728  0.0638
    1SOL    HW2 5082   0.972   2.373   2.277  0.0478  0.5194  0.0968
    1SOL    HW3 5083   0.913   2.436   2.152 -0.5007 -0.8201 -0.3234
    1SOL    MW4 5084   0.906   2.412   2.236 -0.0713  0.2348  0.0174
    1SOL     OW 5085   0.912   2.717   2.343 -0.0180  0.1089  0.0791
    1SOL    HW2 5086   0.908   2.704   2.438 -0.8646  0.2949  0.0692
    1SOL    HW3 5087   0.919   2.629   2.307 -2.2809 -0.1378  0.1864
    1SOL    MW4 5088   0.912   2.704   2.351 -0.4283  0.1011  0.0920
    1SOL     OW 5089   1.136   2.830   2.218  0.1872 -0.0947 -0.3772
    1SOL    HW2 5090   1.216   2.780   2.233  0.0711 -0.3302 -0.5449
    1SOL    HW3 5091   1.074   2.796   2.282  0.0055 -0.3990 -0.7095
    1SOL    MW4 5092   1.139   2.819   2.228  0.1478 -0.1659 -0.4430
    1SOL     OW 5093   1.103   3.071   2.352 -0.3257  0.0516 -0.0879
    1SOL    HW2 5094   1.038   3.127   2.311  0.7440  1.0362 -0.4719
    1SOL    HW3 5095   1.098   2.989   2.302 -0.4516  0.5389 -0.8913
    1SOL    MW4 5096   1.094   3.067   2.340 -0.2012  0.2453 -0.2444
    1SOL     OW 5097   0.864   3.206   2.227  0.2150 -0.0575  0.0183
    1SOL    HW2 5098   0.853   3.294   2.264  3.0059 -0.4489  1.9224
    1SOL    HW3 5099   0.803   3.152   2.277  0.3794  0.3397  0.6613
    1SOL    MW4 5100   0.854   3.211   2.239  0.6049 -0.0567  0.3545
    1SOL     OW 5101   0.878   3.452   2.351  0.0229  0.2434  0.2564
    1SOL    HW2 5102   0.866   3.447   2.446 -0.0704  1.5031  0.3195
    1SOL    HW3 5103   0.809   3.511   2.322 -0.7148 -1.0760 -0.7611
    1SOL    MW4 5104   0.867   3.459   2.360 -0.0868  0.2356  0.1304
    1SOL     OW 5105   1.079   3.618   2.245  0.4325  0.0896 -0.4329
    1SOL    HW2 5106   1.151   3.562   2.273  0.6404  0.8225  0.5099
    1SOL    HW3 5107   1.001   3.581   2.287  0.5012  0.2456 -0.1699
    1SOL    MW4 5108   1.078   3.606   2.254  0.4690  0.2065 -0.2737
    1SOL     OW 5109   1.098   3.864   2.352  0.0577  0.1484  0.0504
    1SOL    HW2 5110   1.173   3.909   2.315 -0.2277 -0.1493 -0.9108
    1SOL    HW3 5111   1.098   3.778   2.309 -1.1265  0.3365 -0.3455
    1SOL    MW4 5112   1.108   3.858   2.341 -0.1361  0.1340 -0.1283
    1SOL     OW 5113   0.905   4.023   2.262  0.0117 -0.2348  0.7339
    1SOL    HW2 5114   0.977   3.970   2.295 -0.9018 -1.7277  0.3697
    1SOL    HW3 5115   0.826   3.975   2.287 -0.7450 -0.4912 -1.9799
    1SOL    MW4 5116   0.904   4.010   2.269 -0.2086 -0.4654  0.3278
    1SOL     OW 5117   0.906   4.277   2.369  0.0642 -0.5477  0.4800
    1SOL    HW2 5118   0.904   4.185   2.342 -1.6924 -0.3366 -0.1612
    1SOL    HW3 5119   0.842   4.320   2.312  0.3249  0.9363  1.2892
    1SOL    MW4 5120   0.897   4.271   2.358 -0.1332 -0.3247  0.5023
    1SOL     OW 5121   1.147   4.372   2.254  0.1516  0.0357  0.0202
    1SOL    HW2 5122   1.067   4.326   2.277 -0.1168  0.3257 -0.3218
    1SOL    HW3 5123   1.135   4.461   2.289  0.0912  0.2372 -0.5116
    1SOL    MW4 5124   1.135   4.378   2.262  0.1082  0.1001 -0.0951
    1SOL     OW 5125   1.563   4.661   2.361 -0.4693  0.5815  0.2075
    1SOL    HW2 5126   1.645   4.687   2.321  0.3523 -1.4164  0.5142
    1SOL    HW3 5127   1.495   4.701   2.306  0.6837  0.7745 -1.0888
    1SOL    MW4 5128   1.565   4.670   2.348 -0.2089  0.3428  0.0770
    1SOL     OW 5129   1.318   0.073   2.232  0.1467 -0.1011  0.1858
    1SOL    HW2 5130   1.331   0.153   2.284  0.9054 -0.4622  0.5617
    1SOL    HW3 5131   1.250   0.025   2.279  0.4547 -0.1770  0.5569
    1SOL    MW4 5132   1.311   0.077   2.245  0.2873 -0.1587  0.2842
    1SOL     OW 5133   1.331   0.327   2.361  0.0836 -0.4856  0.4917
    1SOL    HW2 5134   1.321   0.326   2.456  1.9150  0.1507  0.7259
    1SOL    HW3 5135   1.410   0.379   2.346  0.3669 -1.3816 -1.3307
    1SOL    MW4 5136   1.340   0.334   2.371  0.3625 -0.5198  0.2823
    1SOL     OW 5137   1.562   0.469   2.314  0.7075 -0.0199  0.7250
    1SOL    HW2 5138   1.632   0.407   2.333  1.2303  0.4263  0.2593
    1SOL    HW3 5139   1.564   0.480   2.219  0.2218  0.2518  0.7439
    1SOL    MW4 5140   1.571   0.462   2.304  0.7124  0.0748  0.6659
    1SOL     OW 5141   1.615   0.736   2.391  0.4051 -0.4142  0.5318
    1SOL    HW2 5142   1.682   0.793   2.354  0.5173 -0.4474  0.6835
    1SOL    HW3 5143   1.631   0.651   2.352 -0.7388  0.0055 -0.9220
    1SOL    MW4 5144   1.626   0.733   2.381  0.2691 -0.3632  0.3600
    1SOL     OW 5145   1.377   0.843   2.277  0.0197 -0.0338 -0.4839
    1SOL    HW2 5146   1.450   0.809   2.328  0.7293  0.5525 -1.1112
    1SOL    HW3 5147   1.300   0.801   2.316  0.7848 -1.5748 -0.5902
    1SOL    MW4 5148   1.376   0.833   2.289  0.2142 -0.1599 -0.5808
    1SOL     OW 5149   1.359   1.107   2.325  0.0934  0.3851 -0.0294
    1SOL    HW2 5150   1.360   1.103   2.421 -3.0993  0.1119  0.0538
    1SOL    HW3 5151   1.355   1.015   2.298  0.5402  0.4790 -0.4119
    1SOL    MW4 5152   1.359   1.094   2.334 -0.2688  0.3614 -0.0687
    1SOL     OW 5153   1.570   1.295   2.264 -0.0541  0.2303 -0.1166
    1SOL    HW2 5154   1.499   1.235   2.286 -1.0291  1.3220 -0.2924
    1SOL    HW3 5155   1.576   1.292   2.169  1.2758 -1.1480 -0.0159
    1SOL    MW4 5156   1.562   1.287   2.255 -0.0073  0.1925 -0.1266
    1SOL     OW 5157   1.578   1.544   2.374 -0.0297 -0.1458 -0.5381
    1SOL    HW2 5158   1.666   1.579   2.356  0.3594 -0.7707  0.1233
    1SOL    HW3 5159   1.578   1.457   2.336  0.1378 -0.7145  0.7245
    1SOL    MW4 5160   1.590   1.537   2.367  0.0436 -0.3033 -0.2844
    1SOL     OW 5161   1.355   1.656   2.241  0.1893 -0.2340  0.2375
    1SOL    HW2 5162   1.436   1.621   2.279 -0.5484  0.3763  2.4521
    1SOL    HW3 5163   1.287   1.598   2.274 -0.4211 -0.0789 -0.7201
    1SOL    MW4 5164   1.357   1.643   2.250  0.0114 -0.1330  0.4034
    1SOL     OW 5165   1.307   1.897   2.380 -0.2806  0.4701  0.3746
    1SOL    HW2 5166   1.387   1.946   2.359  0.0876  0.0450  0.7514
    1SOL    HW3 5167   1.317   1.814   2.334 -0.6115  0.5029  0.2447
    1SOL    MW4 5168   1.319   1.893   2.371 -0.2756  0.4184  0.4072
    1SOL     OW 5169   1.526   2.050   2.270 -0.0167 -0.2072  0.0574
    1SOL    HW2 5170   1.600   2.002   2.306  0.0467 -0.6858 -0.7143
    1SOL    HW3 5171   1.541   2.053   2.176 -1.0727 -0.4755 -0.1313
    1SOL    MW4 5172   1.538   2.044   2.263 -0.1477 -0.3061 -0.0696
    1SOL     OW 5173   1.575   2.319   2.337  0.3816  0.0933  0.1031
    1SOL    HW2 5174   1.577   2.318   2.433  0.8204 -0.5595  0.0892
    1SOL    HW3 5175   1.554   2.229   2.312  0.1476  0.2850 -0.4170
    1SOL    MW4 5176   1.572   2.307   2.346  0.4085  0.0324  0.0324
    1SOL     OW 5177   1.354   2.458   2.253  0.1886  0.2313 -0.6059
    1SOL    HW2 5178   1.426   2.404   2.287  1.0047  1.5399 -0.1733
    1SOL    HW3 5179   1.367   2.460   2.159 -0.6137 -1.3869 -0.7545
    1SOL    MW4 5180   1.365   2.451   2.245  0.1903  0.1905 -0.5686
    1SOL     OW 5181   1.349   2.720   2.348  0.5101 -0.3136 -0.0128
    1SOL    HW2 5182   1.421   2.761   2.302 -0.8682  0.4454 -1.5450
    1SOL    HW3 5183   1.350   2.629   2.319 -0.2056  0.1076 -1.4052
    1SOL    MW4 5184   1.358   2.713   2.338  0.2339 -0.1578 -0.3986
    1SOL     OW 5185   1.595   2.831   2.235 -0.3746  0.1222 -0.0337
    1SOL    HW2 5186   1.597   2.922   2.264  0.8760 -0.2701  1.1356
    1SOL    HW3 5187   1.588   2.837   2.140 -0.3213  1.4435  0.0338
    1SOL    MW4 5188   1.594   2.844   2.226 -0.2027  0.2449  0.1295
    1SOL     OW 5189   1.563   3.083   2.353  0.0810 -0.7459 -0.2485
    1SOL    HW2 5190   1.558   3.081   2.448  0.6213  1.6369 -0.1377
    1SOL    HW3 5191   1.483   3.129   2.326  1.0136  0.5655 -0.8097
    1SOL    MW4 5192   1.552   3.089   2.362  0.2754 -0.2584 -0.3078
    1SOL     OW 5193   1.332   3.184   2.242 -0.2208  0.6144 -0.6129
    1SOL    HW2 5194   1.250   3.151   2.278 -0.5061  1.0135 -0.9047
    1SOL    HW3 5195   1.311   3.210   2.153 -0.1347  2.1855 -0.1900
    1SOL    MW4 5196   1.318   3.183   2.235 -0.2472  0.8743 -0.5953
    1SOL     OW 5197   1.296   3.452   2.322 -0.0310  0.0288  0.5360
    1SOL    HW2 5198   1.275   3.442   2.415 -1.4941 -0.6269  0.1554
    1SOL    HW3 5199   1.322   3.364   2.295 -0.0370  0.1197  0.2374
    1SOL    MW4 5200   1.296   3.439   2.331 -0.2248 -0.0455  0.4463
    1SOL     OW 5201   1.549   3.567   2.243 -0.0433 -0.6531 -0.0336
    1SOL    HW2 5202   1.538   3.660   2.264  0.0519 -0.9763  1.5565
    1SOL    HW3 5203   1.465   3.528   2.267 -0.5735 -0.7727 -2.0124
    1SOL    MW4 5204   1.536   3.574   2.249 -0.1006 -0.7112 -0.0849
    1SOL     OW 5205   1.569   3.823   2.378  0.1475  0.2864 -0.0988
    1SOL    HW2 5206   1.568   3.828   2.473  1.3793  1.4967 -0.1291
    1SOL    HW3 5207   1.650   3.866   2.353 -0.0683 -0.2063 -1.6913
    1SOL    MW4 5208   1.579   3.830   2.387  0.2815  0.3810 -0.3130
    1SOL     OW 5209   1.358   3.972   2.252 -0.0202  0.0619  0.0882
    1SOL    HW2 5210   1.430   3.921   2.289  1.9538  2.6962  0.0182
    1SOL    HW3 5211   1.366   3.962   2.158 -1.1596 -1.4471  0.1221
    1SOL    MW4 5212   1.368   3.964   2.245  0.0899  0.2105  0.0832
    1SOL     OW 5213   1.370   4.233   2.347 -0.2377  0.3868 -0.2300
    1SOL    HW2 5214   1.371   4.152   2.296  0.4317 -0.1267  0.5832
    1SOL    HW3 5215   1.294   4.282   2.313 -0.3444 -0.3455 -1.0720
    1SOL    MW4 5216   1.360   4.229   2.335 -0.1634  0.2217 -0.2334
    1SOL     OW 5217   1.579   4.398   2.255  0.2459  0.3554  0.0834
    1SOL    HW2 5218   1.508   4.341   2.284  1.0137  0.3116  1.9531
    1SOL    HW3 5219   1.559   4.483   2.294  1.8330  0.0449  1.6020
    1SOL    MW4 5220   1.567   4.402   2.264  0.5566  0.3085  0.5305
    1SOL     OW 5221   2.016   0.005   2.401  0.1786 -0.2486 -0.6605
    1SOL    HW2 5222   2.078   0.072   2.371  0.2981  0.5970  1.3567
    1SOL    HW3 5223   2.049  -0.077   2.365  1.8288  0.3562 -0.5707
    1SOL    MW4 5224   2.029   0.003   2.392  0.4122 -0.0572 -0.3827
    1SOL     OW 5225   1.797   0.093   2.237  0.0215 -0.1992  0.0437
    1SOL    HW2 5226   1.797   0.185   2.265 -0.6730  0.0374 -0.7233
    1SOL    HW3 5227   1.860   0.051   2.295 -0.5479  0.5197  1.1901
    1SOL    MW4 5228   1.806   0.100   2.248 -0.1453 -0.0732  0.0937
    1SOL     OW 5229   1.784   0.325   2.371 -0.4887 -0.2199 -0.4708
    1SOL    HW2 5230   1.791   0.323   2.467 -0.9750 -0.8514 -0.4480
    1SOL    HW3 5231   1.861   0.375   2.343 -0.2158 -0.2347  0.2331
    1SOL    MW4 5232   1.795   0.332   2.380 -0.5169 -0.3052 -0.3746
    1SOL     OW 5233   1.982   0.508   2.247  0.2887 -1.0626 -0.4064
    1SOL    HW2 5234   1.989   0.600   2.272  0.0759 -1.2225  0.2581
    1SOL    HW3 5235   2.000   0.507   2.153  1.2413 -0.4656 -0.2337
    1SOL    MW4 5236   1.985   0.520   2.238  0.3864 -1.0049 -0.2959
    1SOL     OW 5237   2.029   0.763   2.341 -0.3247 -0.3629 -0.1196
    1SOL    HW2 5238   2.110   0.788   2.296 -1.0912 -0.0552 -1.3504
    1SOL    HW3 5239   2.053   0.760   2.434  0.4292  2.3682 -0.1886
    1SOL    MW4 5240   2.043   0.766   2.348 -0.3262  0.0381 -0.2911
    1SOL     OW 5241   1.795   0.893   2.255  0.5097  0.2970 -0.3504
    1SOL    HW2 5242   1.785   0.981   2.292 -0.9506 -1.0587  2.6892
    1SOL    HW3 5243   1.879   0.862   2.288 -0.0246 -0.2677  0.5394
    1SOL    MW4 5244   1.804   0.900   2.264  0.2465  0.0436  0.1681
    1SOL     OW 5245   1.787   1.156   2.366  0.1636  0.0365  0.4511
    1SOL    HW2 5246   1.866   1.200   2.334 -0.4184  1.3042  0.7614
    1SOL    HW3 5247   1.715   1.202   2.324 -0.4341 -0.8961  0.4454
    1SOL    MW4 5248   1.788   1.168   2.356  0.0080  0.0806  0.4914
    1SOL     OW 5249   2.037   1.271   2.247  0.2973 -0.1821  0.2493
    1SOL    HW2 5250   2.049   1.355   2.292  0.4298  0.5461 -1.1164
    1SOL    HW3 5251   2.120   1.226   2.258 -0.1305 -0.5963  1.9058
    1SOL    MW4 5252   2.049   1.276   2.254  0.2584 -0.1405  0.2878
    1SOL     OW 5253   2.042   1.517   2.372  0.1228 -0.2262  0.1496
    1SOL    HW2 5254   2.040   1.522   2.468 -2.1322  0.2505  0.0945
    1SOL    HW3 5255   1.956   1.548   2.345 -0.5166 -3.5541 -1.8825
    1SOL    MW4 5256   2.031   1.522   2.381 -0.2589 -0.6025 -0.1261
    1SOL     OW 5257   1.816   1.651   2.277 -0.0360 -0.3782  0.1613
    1SOL    HW2 5258   1.806   1.744   2.298 -1.0767  0.0259 -1.9716
    1SOL    HW3 5259   1.796   1.645   2.183  1.1121 -2.5878  0.0201
    1SOL    MW4 5260   1.812   1.663   2.267 -0.0218 -0.6166 -0.1385
    1SOL     OW 5261   1.748   1.920   2.347  0.0916 -0.3149  0.6872
    1SOL    HW2 5262   1.771   1.907   2.440  0.8660  2.1852  0.8931
    1SOL    HW3 5263   1.826   1.960   2.309 -1.2391  1.3157 -0.3843
    1SOL    MW4 5264   1.761   1.924   2.355  0.0181  0.2301  0.5732
    1SOL     OW 5265   1.987   2.021   2.255 -0.2305 -0.8974 -0.0530
    1SOL    HW2 5266   2.055   1.974   2.303  0.9626 -0.3471 -1.1937
    1SOL    HW3 5267   2.019   2.026   2.165 -0.5714  1.6541 -0.0658
    1SOL    MW4 5268   2.000   2.015   2.250 -0.1180 -0.4880 -0.2053
    1SOL     OW 5269   2.020   2.281   2.399 -0.1196 -0.1190 -0.1693
    1SOL    HW2 5270   2.111   2.302   2.379  0.0709 -0.1605  0.6422
    1SOL    HW3 5271   2.008   2.193   2.364  0.2065 -0.1831 -0.1213
    1SOL    MW4 5272   2.030   2.272   2.392 -0.0513 -0.1328 -0.0560
    1SOL     OW 5273   1.830   2.431   2.259  0.1541  0.3835  0.1474
    1SOL    HW2 5274   1.895   2.381   2.309  0.7458  0.6731 -0.3325
    1SOL    HW3 5275   1.746   2.394   2.286  0.6144 -1.3611 -0.6942
    1SOL    MW4 5276   1.827   2.419   2.269  0.2930  0.1917 -0.0267
    1SOL     OW 5277   1.785   2.687   2.360 -0.0056 -0.5186  0.3401
    1SOL    HW2 5278   1.802   2.606   2.314  1.2361  0.8481 -1.6727
    1SOL    HW3 5279   1.711   2.727   2.314 -0.5422 -0.4325  1.2471
    1SOL    MW4 5280   1.778   2.682   2.348  0.0875 -0.3271  0.1941
    1SOL     OW 5281   2.009   2.794   2.215  0.3338 -0.2658 -0.2593
    1SOL    HW2 5282   2.076   2.752   2.268  0.5113  0.8804  0.4424
    1SOL    HW3 5283   1.926   2.756   2.246  0.2789  1.7674  2.1727
    1SOL    MW4 5284   2.007   2.783   2.226  0.3500  0.1538  0.1540
    1SOL     OW 5285   1.984   3.038   2.352 -0.7143  0.4598  0.4788
    1SOL    HW2 5286   2.044   3.102   2.314  1.4488 -0.6027  1.9739
    1SOL    HW3 5287   1.992   2.961   2.296 -1.1304  0.5158  0.3422
    1SOL    MW4 5288   1.993   3.037   2.340 -0.4840  0.3271  0.6578
    1SOL     OW 5289   1.796   3.201   2.234 -0.0045  0.4592  0.0888
    1SOL    HW2 5290   1.862   3.144   2.274  0.6171  1.2719  0.2419
    1SOL    HW3 5291   1.712   3.165   2.264  0.3681 -0.5380 -0.0478
    1SOL    MW4 5292   1.794   3.189   2.244  0.1267  0.4349  0.0908
    1SOL     OW 5293   1.791   3.448   2.345 -0.1745 -0.2596 -0.1144
    1SOL    HW2 5294   1.793   3.363   2.301  0.9734  0.0107 -0.6187
    1SOL    HW3 5295   1.707   3.487   2.320  0.0520 -0.5179 -1.2999
    1SOL    MW4 5296   1.780   3.442   2.336  0.0067 -0.2577 -0.3371
    1SOL     OW 5297   2.010   3.602   2.238 -0.0195 -0.0898 -0.1748
    1SOL    HW2 5298   1.937   3.549   2.271 -0.1810 -0.7872 -1.6289
    1SOL    HW3 5299   2.008   3.590   2.143  1.5729  0.4320 -0.2889
    1SOL    MW4 5300   2.000   3.593   2.230  0.1695 -0.1128 -0.3817
    1SOL     OW 5301   2.026   3.873   2.344 -0.0440 -0.1472 -0.1323
    1SOL    HW2 5302   1.997   3.869   2.435 -0.1795 -0.2503 -0.1797
    1SOL    HW3 5303   2.049   3.783   2.322 -1.5497 -0.4130 -0.6977
    1SOL    MW4 5304   2.025   3.861   2.353 -0.2604 -0.1957 -0.2134
    1SOL     OW 5305   1.776   3.991   2.261 -0.4989  0.4867 -0.2237
    1SOL    HW2 5306   1.860   3.952   2.288 -0.2750  1.1545  0.0383
    1SOL    HW3 5307   1.781   3.993   2.166 -0.0882  0.8089 -0.1977
    1SOL    MW4 5308   1.788   3.986   2.252 -0.4151  0.6175 -0.1855
    1SOL     OW 5309   1.802   4.261   2.358  0.8491  0.5315  0.0628
    1SOL    HW2 5310   1.787   4.180   2.311  0.2720  0.6564  0.0274
    1SOL    HW3 5311   1.724   4.315   2.340  1.2337  1.0939  0.0705
    1SOL    MW4 5312   1.789   4.258   2.350  0.8237  0.6223  0.0594
    1SOL     OW 5313   2.043   4.391   2.297  0.3488  0.5176  0.2977
    1SOL    HW2 5314   1.960   4.347   2.313  1.1128 -1.1056 -0.0670
    1SOL    HW3 5315   2.050   4.397   2.202  0.8502  0.2361  0.3130
    1SOL    MW4 5316   2.033   4.386   2.286  0.5157  0.2666  0.2515
    1SOL     OW 5317   2.412   4.663   2.376  0.2998  0.0545 -0.2880
    1SOL    HW2 5318   2.495   4.702   2.349 -0.3145  0.4230 -1.6891
    1SOL    HW3 5319   2.414   4.575   2.340 -0.8215  0.7791 -2.2303
    1SOL    MW4 5320   2.423   4.657   2.368  0.0708  0.1993 -0.7291
    1SOL     OW 5321   2.205   0.149   2.281 -0.3754  0.4175  0.2453
    1SOL    HW2 5322   2.207   0.231   2.331  2.5824  1.6970 -1.7766
    1SOL    HW3 5323   2.282   0.100   2.311 -0.2522 -0.1166 -0.8771
    1SOL    MW4 5324   2.215   0.153   2.291  0.0310  0.5159 -0.1698
    1SOL     OW 5325   2.196   0.401   2.394  0.0880  0.2278  0.3085
    1SOL    HW2 5326   2.116   0.428   2.348 -0.0205  1.3801  1.1583
    1SOL    HW3 5327   2.267   0.432   2.338 -0.0436 -0.2664 -0.1444
    1SOL    MW4 5328   2.195   0.409   2.381  0.0563  0.3146  0.3607
    1SOL     OW 5329   2.427   0.476   2.268  0.2003 -0.0467 -0.2857
    1SOL    HW2 5330   2.493   0.413   2.296  0.3623 -0.3966 -1.4213
    1SOL    HW3 5331   2.448   0.492   2.176 -0.2407  1.1648 -0.1765
    1SOL    MW4 5332   2.439   0.470   2.260  0.1636  0.0670 -0.4210
    1SOL     OW 5333   2.453   0.740   2.368  0.1290 -0.0413 -0.2100
    1SOL    HW2 5334   2.528   0.785   2.328  0.3736  0.4056  0.7421
    1SOL    HW3 5335   2.473   0.647   2.357  1.7480  0.0481  1.6956
    1SOL    MW4 5336   2.466   0.733   2.361  0.3753  0.0294  0.1669
    1SOL     OW 5337   2.258   0.840   2.198 -0.2986 -0.5763 -0.5780
    1SOL    HW2 5338   2.264   0.933   2.220  0.2592 -0.2062 -2.2261
    1SOL    HW3 5339   2.338   0.802   2.235  0.2549 -0.1081 -1.2887
    1SOL    MW4 5340   2.269   0.847   2.206 -0.1521 -0.4658 -0.8891
    1SOL     OW 5341   2.251   1.119   2.291 -0.4468  0.0800  0.5006
    1SOL    HW2 5342   2.326   1.178   2.276  0.6383 -1.1423  1.0563
    1SOL    HW3 5343   2.242   1.115   2.386 -0.1049 -1.1505  0.4893
    1SOL    MW4 5344   2.260   1.126   2.301 -0.2582 -0.2437  0.5720
    1SOL     OW 5345   2.469   1.260   2.224 -0.0657  0.0538  0.0291
    1SOL    HW2 5346   2.546   1.206   2.240  0.1146  0.2972  0.0016
    1SOL    HW3 5347   2.489   1.343   2.267  0.0512  0.4091 -0.7071
    1SOL    MW4 5348   2.482   1.264   2.232 -0.0265  0.1328 -0.0715
    1SOL     OW 5349   2.508   1.492   2.352  0.4051  0.4675  0.0402
    1SOL    HW2 5350   2.502   1.495   2.448  0.2895  0.2768  0.0391
    1SOL    HW3 5351   2.578   1.553   2.331  0.6927  0.2200  0.2730
    1SOL    MW4 5352   2.516   1.501   2.362  0.4277  0.4097  0.0706
    1SOL     OW 5353   2.267   1.655   2.291 -0.5270  0.0202  0.0479
    1SOL    HW2 5354   2.346   1.601   2.298  0.1969  0.9127 -1.0889
    1SOL    HW3 5355   2.196   1.597   2.320  0.4101 -1.1082  0.1346
    1SOL    MW4 5356   2.268   1.640   2.296 -0.3076 -0.0108 -0.0906
    1SOL     OW 5357   2.238   1.915   2.405 -0.2490 -0.4204  0.0903
    1SOL    HW2 5358   2.306   1.965   2.360 -2.0751  1.3156 -0.8439
    1SOL    HW3 5359   2.252   1.825   2.377  0.3434  0.2275 -1.8202
    1SOL    MW4 5360   2.249   1.910   2.395 -0.4117 -0.1060 -0.2851
    1SOL     OW 5361   2.455   2.064   2.259  0.0553  0.0033  0.3005
    1SOL    HW2 5362   2.533   2.009   2.268  0.1425  0.3530  1.8225
    1SOL    HW3 5363   2.453   2.087   2.166  0.9534 -1.1909 -0.0302
    1SOL    MW4 5364   2.465   2.060   2.248  0.1853 -0.1080  0.4575
    1SOL     OW 5365   2.512   2.314   2.387  0.2268 -0.1761  0.4782
    1SOL    HW2 5366   2.572   2.365   2.333 -0.7321 -1.3958 -1.8395
    1SOL    HW3 5367   2.494   2.236   2.335 -0.7483 -1.4110  2.5939
    1SOL    MW4 5368   2.517   2.310   2.373 -0.0284 -0.5000  0.4518
    1SOL     OW 5369   2.263   2.402   2.323 -0.0203 -0.3709  0.1479
    1SOL    HW2 5370   2.261   2.496   2.341 -0.0793 -0.4764  0.7237
    1SOL    HW3 5371   2.348   2.374   2.358  0.2453 -0.4273 -0.5485
    1SOL    MW4 5372   2.274   2.411   2.330  0.0069 -0.3922  0.1318
    1SOL     OW 5373   2.225   2.701   2.375  0.2634 -0.1201 -0.2793
    1SOL    HW2 5374   2.234   2.712   2.470 -2.3503  3.2261 -0.3075
    1SOL    HW3 5375   2.301   2.746   2.338  1.1208 -1.1551  0.2248
    1SOL    MW4 5376   2.236   2.708   2.383  0.0317  0.1848 -0.2162
    1SOL     OW 5377   2.441   2.840   2.270 -0.0490  0.0912 -0.1527
    1SOL    HW2 5378   2.508   2.787   2.313 -0.4901 -0.1728  0.2050
    1SOL    HW3 5379   2.458   2.827   2.176  0.6630  0.3568 -0.0660
    1SOL    MW4 5380   2.452   2.831   2.263 -0.0134  0.0913 -0.0939
    1SOL     OW 5381   2.426   3.091   2.375  0.3832 -0.2282 -0.3925
    1SOL    HW2 5382   2.510   3.128   2.350  2.3899 -2.8112  2.2629
    1SOL    HW3 5383   2.421   3.008   2.329  0.1489 -0.9453  0.8963
    1SOL    MW4 5384   2.436   3.085   2.366  0.6168 -0.6638  0.1278
    1SOL     OW 5385   2.174   3.242   2.264  0.1303  0.0454 -0.3443
    1SOL    HW2 5386   2.191   3.330   2.296 -0.2701 -0.4696  1.3428
    1SOL    HW3 5387   2.234   3.186   2.314  0.5794 -0.6169 -1.5894
    1SOL    MW4 5388   2.184   3.246   2.275  0.1369 -0.1101 -0.2861
    1SOL     OW 5389   2.243   3.496   2.342 -0.0759 -0.5081  0.3512
    1SOL    HW2 5390   2.231   3.487   2.437 -0.1777  1.5075  0.5554
    1SOL    HW3 5391   2.165   3.544   2.313 -0.2173 -1.4264 -0.8117
    1SOL    MW4 5392   2.231   3.501   2.351 -0.1085 -0.3633  0.2248
    1SOL     OW 5393   2.467   3.622   2.242  0.3665 -0.8076  0.0998
    1SOL    HW2 5394   2.459   3.714   2.268 -0.6998 -0.5904 -0.9648
    1SOL    HW3 5395   2.388   3.580   2.276 -0.1679 -0.8898 -1.2284
    1SOL    MW4 5396   2.455   3.628   2.250  0.1552 -0.7899 -0.2158
    1SOL     OW 5397   2.462   3.882   2.320  0.0929 -0.0239  0.1389
    1SOL    HW2 5398   2.471   3.889   2.415 -0.4060 -1.1448  0.2709
    1SOL    HW3 5399   2.389   3.940   2.299 -0.6818 -0.8164  0.6140
    1SOL    MW4 5400   2.453   3.891   2.329 -0.0751 -0.2763  0.2189
    1SOL     OW 5401   2.218   4.024   2.229  0.4597  0.0897 -0.2318
    1SOL    HW2 5402   2.232   4.100   2.286  0.7761  0.8284 -1.2618
    1SOL    HW3 5403   2.140   3.981   2.264  1.8773 -0.7169  2.0625
    1SOL    MW4 5404   2.210   4.029   2.241  0.6886  0.0811 -0.0651
    1SOL     OW 5405   2.249   4.258   2.413 -0.2460 -0.2192  0.0302
    1SOL    HW2 5406   2.252   4.266   2.508 -1.6411 -1.2400  0.1723
    1SOL    HW3 5407   2.182   4.321   2.386 -0.0243 -0.1034 -0.2586
    1SOL    MW4 5408   2.241   4.268   2.422 -0.4005 -0.3386  0.0107
    1SOL     OW 5409   2.446   4.415   2.256  0.0202 -0.2799 -0.2934
    1SOL    HW2 5410   2.530   4.387   2.294  0.3416  1.3536  0.2432
    1SOL    HW3 5411   2.380   4.368   2.306  0.6013 -1.1847 -0.3741
    1SOL    MW4 5412   2.449   4.405   2.268  0.1392 -0.1841 -0.2332
    1SOL     OW 5413   2.927   0.007   2.353 -0.1204  0.0708  0.3507
    1SOL    HW2 5414   3.008   0.047   2.321  0.1717  0.2104  1.2456
    1SOL    HW3 5415   2.934  -0.085   2.328  0.3223  0.0806  0.4224
    1SOL    MW4 5416   2.939   0.000   2.346 -0.0236  0.0906  0.4783
    1SOL     OW 5417   2.662   0.087   2.291  0.3693 -0.1187 -0.6713
    1SOL    HW2 5418   2.657   0.180   2.315 -0.4871 -0.9081  2.3236
    1SOL    HW3 5419   2.755   0.066   2.295  0.4667  0.3661 -0.4015
    1SOL    MW4 5420   2.673   0.097   2.295  0.2689 -0.1589 -0.2406
    1SOL     OW 5421   2.651   0.348   2.369  0.0541 -0.4020 -0.3560
    1SOL    HW2 5422   2.653   0.354   2.464  0.5326 -0.3649 -0.3657
    1SOL    HW3 5423   2.725   0.402   2.340 -0.0011 -0.5310 -0.7415
    1SOL    MW4 5424   2.661   0.356   2.378  0.1097 -0.4141 -0.4082
    1SOL     OW 5425   2.879   0.482   2.296 -0.2480 -0.0135  0.0799
    1SOL    HW2 5426   2.893   0.568   2.336  1.6946 -0.0385 -0.5043
    1SOL    HW3 5427   2.879   0.499   2.202  1.9803 -0.8936 -0.0952
    1SOL    MW4 5428   2.881   0.496   2.289  0.3023 -0.1329 -0.0203
    1SOL     OW 5429   2.913   0.736   2.380 -0.4778  0.1693 -0.1787
    1SOL    HW2 5430   2.918   0.747   2.475  0.1797  0.2111 -0.2189
    1SOL    HW3 5431   2.839   0.791   2.354  0.1378  1.1847  0.1573
    1SOL    MW4 5432   2.904   0.745   2.389 -0.3099  0.3088 -0.1397
    1SOL     OW 5433   2.673   0.873   2.262 -0.1683  0.4231 -0.0013
    1SOL    HW2 5434   2.676   0.966   2.286 -3.6150  0.7119 -0.3796
    1SOL    HW3 5435   2.689   0.872   2.168 -0.3114  0.6843 -0.0299
    1SOL    MW4 5436   2.675   0.885   2.253 -0.6418  0.4957 -0.0546
    1SOL     OW 5437   2.699   1.137   2.312  0.2907  0.6562  0.3302
    1SOL    HW2 5438   2.705   1.160   2.405 -1.6668  2.9959 -0.0510
    1SOL    HW3 5439   2.775   1.180   2.273  0.1221  1.1859  0.5780
    1SOL    MW4 5440   2.710   1.146   2.319  0.0098  1.0349  0.3126
    1SOL     OW 5441   2.931   1.271   2.230 -0.1674 -0.4851  0.0543
    1SOL    HW2 5442   3.015   1.242   2.264 -0.3545 -2.0116 -0.7475
    1SOL    HW3 5443   2.949   1.299   2.140 -0.2534  0.5759  0.3603
    1SOL    MW4 5444   2.944   1.271   2.223 -0.2034 -0.5465 -0.0110
    1SOL     OW 5445   2.930   1.542   2.322 -0.3386  0.1048 -0.2748
    1SOL    HW2 5446   2.942   1.540   2.417 -0.8603 -0.4435 -0.2224
    1SOL    HW3 5447   2.929   1.450   2.296 -2.3854  0.1906 -0.5393
    1SOL    MW4 5448   2.931   1.530   2.331 -0.6773  0.0437 -0.3028
    1SOL     OW 5449   2.703   1.673   2.292 -0.1748  0.5088 -0.4054
    1SOL    HW2 5450   2.779   1.623   2.321 -0.2259  1.3192  1.1508
    1SOL    HW3 5451   2.707   1.669   2.196 -0.0475 -2.2540 -0.3245
    1SOL    MW4 5452   2.714   1.665   2.283 -0.1647  0.2513 -0.1895
    1SOL     OW 5453   2.699   1.941   2.314  0.1105 -0.4521  0.4967
    1SOL    HW2 5454   2.702   1.955   2.409  1.1515 -1.7807  0.6673
    1SOL    HW3 5455   2.696   1.846   2.303  1.0826 -0.3413 -0.8335
    1SOL    MW4 5456   2.699   1.931   2.325  0.3760 -0.6130  0.3436
    1SOL     OW 5457   2.906   2.078   2.214 -0.1069 -0.3975 -0.3250
    1SOL    HW2 5458   2.978   2.023   2.245 -0.5755 -1.1978 -0.6406
    1SOL    HW3 5459   2.828   2.039   2.251 -0.3617  0.6347  0.2349
    1SOL    MW4 5460   2.905   2.065   2.223 -0.2024 -0.3669 -0.2925
    1SOL     OW 5461   2.920   2.344   2.306 -0.1618 -0.1537 -0.2514
    1SOL    HW2 5462   2.915   2.336   2.401  2.3121 -0.2464 -0.1008
    1SOL    HW3 5463   2.934   2.254   2.275  0.6800  0.0793 -0.5672
    1SOL    MW4 5464   2.921   2.331   2.314  0.2756 -0.1352 -0.2732
    1SOL     OW 5465   2.674   2.440   2.211  0.2503 -0.2195  0.8838
    1SOL    HW2 5466   2.761   2.409   2.237  0.6945  0.0631 -0.2501
    1SOL    HW3 5467   2.678   2.446   2.116 -0.6298  0.9492  0.9096
    1SOL    MW4 5468   2.686   2.437   2.202  0.1929 -0.0281  0.7377
    1SOL     OW 5469   2.649   2.675   2.356  0.4171  0.0913 -0.2523
    1SOL    HW2 5470   2.732   2.722   2.348  0.9914 -1.1894 -2.1866
    1SOL    HW3 5471   2.662   2.596   2.303 -1.1357 -1.3795  1.5213
    1SOL    MW4 5472   2.662   2.671   2.348  0.2882 -0.2716 -0.2732
    1SOL     OW 5473   2.894   2.817   2.290 -0.3004 -0.5533  0.3527
    1SOL    HW2 5474   2.892   2.912   2.301  2.0807 -0.3849 -0.2875
    1SOL    HW3 5475   2.900   2.803   2.195  0.8119 -1.2724  0.5133
    1SOL    MW4 5476   2.895   2.827   2.279  0.1602 -0.6261  0.2894
    1SOL     OW 5477   2.891   3.086   2.332 -0.1791 -0.1355  0.2050
    1SOL    HW2 5478   2.894   3.103   2.426  0.4042 -0.3478  0.2282
    1SOL    HW3 5479   2.819   3.141   2.300 -0.3533 -0.0322  0.7664
    1SOL    MW4 5480   2.882   3.095   2.340 -0.1252 -0.1500  0.2818
    1SOL     OW 5481   2.644   3.216   2.289 -0.0125  0.2955  0.2093
    1SOL    HW2 5482   2.645   3.308   2.315  0.1508  0.3639 -0.0363
    1SOL    HW3 5483   2.647   3.219   2.193  0.0624  0.0332  0.2048
    1SOL    MW4 5484   2.645   3.229   2.280  0.0188  0.2701  0.1764
    1SOL     OW 5485   2.641   3.484   2.378 -0.1490  0.3744  0.6381
    1SOL    HW2 5486   2.725   3.523   2.357 -0.4620  0.1846 -1.0333
    1SOL    HW3 5487   2.578   3.533   2.326 -0.6388 -1.7884 -0.8720
    1SOL    MW4 5488   2.644   3.496   2.368 -0.2549  0.0639  0.2182
    1SOL     OW 5489   2.884   3.600   2.276  0.5114  0.1467 -0.1132
    1SOL    HW2 5490   2.972   3.566   2.290  0.7650  0.5947 -0.5782
    1SOL    HW3 5491   2.890   3.692   2.304  0.2156  0.2023 -0.2351
    1SOL    MW4 5492   2.896   3.608   2.282  0.5059  0.2131 -0.1907
    1SOL     OW 5493   2.904   3.846   2.403 -0.0655  0.1417 -0.6545
    1SOL    HW2 5494   2.892   3.852   2.498  0.0533 -0.6847 -0.5886
    1SOL    HW3 5495   2.844   3.912   2.367 -0.1183  0.4481 -0.0076
    1SOL    MW4 5496   2.894   3.856   2.411 -0.0565  0.0734 -0.5605
    1SOL     OW 5497   2.701   4.016   2.284  0.5419 -0.2176 -0.7069
    1SOL    HW2 5498   2.618   3.985   2.320  0.5381  0.1406 -0.4067
    1SOL    HW3 5499   2.697   3.993   2.191 -0.0512  0.1223 -0.7669
    1SOL    MW4 5500   2.689   4.009   2.276  0.4630 -0.1254 -0.6750
    1SOL     OW 5501   2.688   4.287   2.360 -0.4492  0.3420 -0.1523
    1SOL    HW2 5502   2.681   4.280   2.455 -1.2314 -1.0391 -0.2967
    1SOL    HW3 5503   2.701   4.197   2.330 -1.3152  0.6317 -1.4374
    1SOL    MW4 5504   2.689   4.274   2.368 -0.6669  0.1984 -0.3409
    1SOL     OW 5505   2.925   4.415   2.255 -0.5095 -0.0346  0.5058
    1SOL    HW2 5506   2.991   4.362   2.299 -0.8971 -0.4130  0.6338
    1SOL    HW3 5507   2.841   4.379   2.284 -0.7862  1.0300  1.0535
    1SOL    MW4 5508   2.923   4.403   2.264 -0.5972  0.0563  0.5949
    1SOL     OW 5509   3.371   4.660   2.351 -0.3867  0.5592  0.3580
    1SOL    HW2 5510   3.387   4.650   2.445 -1.0300  1.8679  0.6211
    1SOL    HW3 5511   3.448   4.707   2.318  0.3330 -0.8328  0.0274
    1SOL    MW4 5512   3.383   4.665   2.359 -0.3767  0.5479  0.3490
    1SOL     OW 5513   3.157   0.142   2.259  0.5493 -0.1208  0.2188
    1SOL    HW2 5514   3.152   0.233   2.288  1.3292 -0.0384  0.1071
    1SOL    HW3 5515   3.240   0.110   2.295  0.2351 -0.8143  0.3342
    1SOL    MW4 5516   3.168   0.149   2.267  0.6106 -0.2014  0.2191
    1SOL     OW 5517   3.140   0.388   2.351 -0.0941  0.0028  0.0493
    1SOL    HW2 5518   3.183   0.448   2.290  0.0971  0.3309  0.5038
    1SOL    HW3 5519   3.047   0.405   2.339 -0.1173 -0.9182 -1.1475
    1SOL    MW4 5520   3.133   0.399   2.341 -0.0718 -0.0754 -0.0486
    1SOL     OW 5521   3.351   0.540   2.253 -0.4146  0.1797  0.3315
    1SOL    HW2 5522   3.425   0.490   2.288 -0.7774  0.1139  1.0175
    1SOL    HW3 5523   3.357   0.529   2.158  0.6101  0.3956  0.3704
    1SOL    MW4 5524   3.361   0.532   2.245 -0.3271  0.1994  0.4270
    1SOL     OW 5525   3.349   0.775   2.386  0.4760  0.2131  0.1646
    1SOL    HW2 5526   3.420   0.822   2.342 -0.3779  0.5882 -0.8230
    1SOL    HW3 5527   3.354   0.686   2.350  1.5311 -0.2334  1.3789
    1SOL    MW4 5528   3.359   0.769   2.375  0.5026  0.2037  0.1945
    1SOL     OW 5529   3.141   0.871   2.255  0.4222  0.3465  0.3432
    1SOL    HW2 5530   3.217   0.832   2.299  0.1298  1.6371  2.0508
    1SOL    HW3 5531   3.065   0.825   2.292  0.2706  0.2123 -0.1280
    1SOL    MW4 5532   3.141   0.859   2.266  0.3636  0.4991  0.5064
    1SOL     OW 5533   3.166   1.132   2.357 -0.0695  0.7261 -0.4296
    1SOL    HW2 5534   3.246   1.162   2.314 -0.1449  0.2101 -0.9463
    1SOL    HW3 5535   3.158   1.040   2.330 -0.3868  0.5390  0.2946
    1SOL    MW4 5536   3.176   1.124   2.347 -0.1214  0.6334 -0.4022
    1SOL     OW 5537   3.391   1.241   2.227  0.1305  0.0521  0.1736
    1SOL    HW2 5538   3.465   1.207   2.278 -1.4583  0.0822  2.6238
    1SOL    HW3 5539   3.366   1.322   2.273 -2.0927 -0.5392  0.0756
    1SOL    MW4 5540   3.397   1.247   2.240 -0.3726 -0.0219  0.4840
    1SOL     OW 5541   3.342   1.497   2.319 -0.0550 -0.0581 -0.0734
    1SOL    HW2 5542   3.341   1.509   2.414  0.2703 -0.5641 -0.0082
    1SOL    HW3 5543   3.274   1.557   2.287  2.0017  2.5490  0.2103
    1SOL    MW4 5544   3.333   1.507   2.327  0.2592  0.2191 -0.0274
    1SOL     OW 5545   3.162   1.694   2.263  0.2122  0.1608 -0.3543
    1SOL    HW2 5546   3.152   1.779   2.307 -0.9711 -0.7897  1.2250
    1SOL    HW3 5547   3.082   1.647   2.283  0.6402 -1.1556 -1.6701
    1SOL    MW4 5548   3.150   1.699   2.271  0.1125 -0.1383 -0.3195
    1SOL     OW 5549   3.131   1.964   2.326 -0.1701  0.2685 -0.0064
    1SOL    HW2 5550   3.142   1.955   2.421  1.8569 -1.2424 -0.3641
    1SOL    HW3 5551   3.207   2.013   2.297  0.9135 -2.0377 -1.2400
    1SOL    MW4 5552   3.142   1.969   2.335  0.2403 -0.2352 -0.2162
    1SOL     OW 5553   3.373   2.075   2.251 -0.1764 -0.1804  0.6362
    1SOL    HW2 5554   3.434   2.011   2.287  0.3043  0.1739  0.4597
    1SOL    HW3 5555   3.377   2.060   2.156 -0.6348 -0.4031  0.6564
    1SOL    MW4 5556   3.382   2.065   2.243 -0.1736 -0.1631  0.6158
    1SOL     OW 5557   3.384   2.325   2.368  0.0597  0.4199  0.2762
    1SOL    HW2 5558   3.304   2.368   2.341 -0.7517 -0.9184  0.5053
    1SOL    HW3 5559   3.387   2.244   2.317  0.6620 -0.1060  1.1236
    1SOL    MW4 5560   3.374   2.320   2.358  0.0319  0.1738  0.4182
    1SOL     OW 5561   3.161   2.462   2.236  0.0227  0.1347 -0.1802
    1SOL    HW2 5562   3.138   2.544   2.281 -0.6246  0.1715 -0.5773
    1SOL    HW3 5563   3.081   2.410   2.239 -0.5607  0.8116 -2.8021
    1SOL    MW4 5564   3.147   2.466   2.243 -0.1397  0.2289 -0.5786
    1SOL     OW 5565   3.130   2.697   2.388  0.1900 -0.2361  0.2680
    1SOL    HW2 5566   3.116   2.670   2.479  1.5410  1.2837  0.9481
    1SOL    HW3 5567   3.050   2.743   2.364  0.4659  0.7993  1.2528
    1SOL    MW4 5568   3.117   2.699   2.397  0.4048  0.1009  0.4876
    1SOL     OW 5569   3.324   2.825   2.216  0.3659  0.3549  0.3491
    1SOL    HW2 5570   3.332   2.910   2.260  0.8917  0.5319 -0.0899
    1SOL    HW3 5571   3.246   2.785   2.255 -0.7807  1.6935 -0.5637
    1SOL    MW4 5572   3.315   2.831   2.227  0.2840  0.5548  0.1709
    1SOL     OW 5573   3.389   3.072   2.355 -0.4175 -0.0190 -0.0547
    1SOL    HW2 5574   3.461   3.132   2.341 -0.5529  0.8742  2.8406
    1SOL    HW3 5575   3.319   3.105   2.299  0.9560 -0.1207 -1.8673
    1SOL    MW4 5576   3.389   3.084   2.346 -0.2539  0.0851  0.0882
    1SOL     OW 5577   3.140   3.194   2.257  0.0380  0.0945 -0.2514
    1SOL    HW2 5578   3.131   3.288   2.274  1.6185  0.2309 -0.0660
    1SOL    HW3 5579   3.056   3.157   2.284 -0.4015  1.3804  0.2154
    1SOL    MW4 5580   3.128   3.202   2.263  0.1886  0.2823 -0.1655
    1SOL     OW 5581   3.128   3.464   2.322  0.4802 -0.6784  0.7584
    1SOL    HW2 5582   3.137   3.472   2.417  0.9333  1.4766  0.5566
    1SOL    HW3 5583   3.195   3.523   2.287 -0.4270 -0.6131 -0.8996
    1SOL    MW4 5584   3.138   3.473   2.330  0.4201 -0.3853  0.5128
    1SOL     OW 5585   3.336   3.615   2.243  0.3834  0.1360  0.0995
    1SOL    HW2 5586   3.412   3.568   2.278 -0.4180 -2.0247 -0.9566
    1SOL    HW3 5587   3.347   3.610   2.148  0.5563  2.5858 -0.0233
    1SOL    MW4 5588   3.347   3.608   2.235  0.3009  0.1743 -0.0560
    1SOL     OW 5589   3.352   3.884   2.377  0.0510 -0.1235  0.3844
    1SOL    HW2 5590   3.422   3.934   2.336  0.1389 -0.4921  0.0798
    1SOL    HW3 5591   3.353   3.799   2.332 -0.4500 -0.2055  0.5204
    1SOL    MW4 5592   3.361   3.879   2.366 -0.0038 -0.1829  0.3619
    1SOL     OW 5593   3.115   3.970   2.265 -0.2963 -0.1747 -0.3864
    1SOL    HW2 5594   3.191   3.939   2.314  0.4422  0.5299 -1.0805
    1SOL    HW3 5595   3.043   3.914   2.295  0.8388 -2.0110 -0.9900
    1SOL    MW4 5596   3.115   3.958   2.275 -0.0491 -0.3240 -0.5577
    1SOL     OW 5597   3.098   4.228   2.365  0.2164 -0.1379 -0.0589
    1SOL    HW2 5598   3.180   4.269   2.337  0.6159 -0.3091  0.8439
    1SOL    HW3 5599   3.100   4.141   2.326  0.8610 -0.4426  0.6413
    1SOL    MW4 5600   3.109   4.222   2.356  0.3541 -0.2012  0.1523
    1SOL     OW 5601   3.310   4.406   2.273  0.3833 -0.0801  0.4278
    1SOL    HW2 5602   3.337   4.495   2.295  1.2841 -0.3287  0.3492
    1SOL    HW3 5603   3.315   4.402   2.177  0.0914 -0.1401  0.4129
    1SOL    MW4 5604   3.314   4.417   2.263  0.4637 -0.1206  0.4153
    1SOL     OW 5605   3.786   4.662   2.362 -0.4085  0.0163 -0.0547
    1SOL    HW2 5606   3.808   4.651   2.454 -0.0069 -0.9546 -0.2558
    1SOL    HW3 5607   3.862   4.705   2.324 -0.9226  1.1967  0.2260
    1SOL    MW4 5608   3.799   4.666   2.369 -0.4234  0.0443 -0.0443
    1SOL     OW 5609   3.596   0.134   2.250  0.6040  0.2256 -0.4669
    1SOL    HW2 5610   3.596   0.226   2.275  2.5694 -0.1343  1.0087
    1SOL    HW3 5611   3.668   0.096   2.300 -0.9313 -2.3614 -0.1179
    1SOL    MW4 5612   3.605   0.141   2.260  0.6609 -0.1632 -0.2263
    1SOL     OW 5613   3.573   0.391   2.356 -0.1284  0.7675 -0.2515
    1SOL    HW2 5614   3.578   0.383   2.451  0.6337  0.2541 -0.3323
    1SOL    HW3 5615   3.657   0.431   2.331  0.0783 -0.0041 -0.8003
    1SOL    MW4 5616   3.585   0.395   2.365 -0.0005  0.5980 -0.3347
    1SOL     OW 5617   3.814   0.483   2.274 -0.3914  0.4467 -0.3186
    1SOL    HW2 5618   3.831   0.577   2.283 -0.8690  0.4600  0.5879
    1SOL    HW3 5619   3.803   0.469   2.180 -0.3747  1.3071 -0.4532
    1SOL    MW4 5620   3.815   0.494   2.263 -0.4520  0.5620 -0.2167
    1SOL     OW 5621   3.797   0.761   2.372  0.0948 -0.0588  0.2491
    1SOL    HW2 5622   3.811   0.758   2.467 -0.1007 -0.2454  0.2717
    1SOL    HW3 5623   3.875   0.804   2.338 -0.3296  0.9811  0.5933
    1SOL    MW4 5624   3.809   0.766   2.380  0.0129  0.0538  0.2973
    1SOL     OW 5625   3.574   0.910   2.280 -0.0425 -0.3396  0.7859
    1SOL    HW2 5626   3.648   0.860   2.315  1.2814  0.0917 -1.2943
    1SOL    HW3 5627   3.581   0.900   2.185 -1.3389  1.5562  0.4620
    1SOL    MW4 5628   3.585   0.902   2.272 -0.0389 -0.0325  0.4685
    1SOL     OW 5629   3.636   1.166   2.346  0.2935 -0.3432  0.3385
    1SOL    HW2 5630   3.639   1.165   2.442 -1.4486  0.9742  0.4284
    1SOL    HW3 5631   3.621   1.074   2.322 -1.8295 -0.3144  1.4530
    1SOL    MW4 5632   3.635   1.153   2.356 -0.2165 -0.1656  0.4973
    1SOL     OW 5633   3.857   1.302   2.241  0.3384  0.2084  0.3991
    1SOL    HW2 5634   3.828   1.393   2.246 -1.0510  0.0641 -3.4824
    1SOL    HW3 5635   3.780   1.251   2.265 -0.3591 -0.0116 -2.2243
    1SOL    MW4 5636   3.843   1.308   2.245  0.0629  0.1603 -0.4592
    1SOL     OW 5637   3.792   1.552   2.298  0.1971  0.1216  0.2032
    1SOL    HW2 5638   3.808   1.543   2.392 -0.8688  1.6200  0.5475
    1SOL    HW3 5639   3.707   1.597   2.293 -0.8715 -2.0042 -1.4838
    1SOL    MW4 5640   3.783   1.557   2.310 -0.0844  0.0390  0.0260
    1SOL     OW 5641   3.555   1.648   2.226 -0.1320 -0.0986 -0.4461
    1SOL    HW2 5642   3.486   1.588   2.254 -1.4214  1.2307 -0.7712
    1SOL    HW3 5643   3.556   1.640   2.130  0.0412  0.0365 -0.4563
    1SOL    MW4 5644   3.546   1.639   2.217 -0.2794  0.0944 -0.4904
    1SOL     OW 5645   3.547   1.896   2.347  0.7122  0.0714 -0.2095
    1SOL    HW2 5646   3.632   1.936   2.327  0.7645 -0.4130 -0.9959
    1SOL    HW3 5647   3.544   1.817   2.292 -0.2492  0.0923 -0.2003
    1SOL    MW4 5648   3.558   1.891   2.337  0.5925  0.0104 -0.3123
    1SOL     OW 5649   3.794   2.021   2.245 -0.2892  0.0840  0.3615
    1SOL    HW2 5650   3.878   1.995   2.283  0.0136  0.2180 -0.2082
    1SOL    HW3 5651   3.815   2.046   2.155 -0.7798  1.1014  0.5256
    1SOL    MW4 5652   3.808   2.021   2.238 -0.3138  0.2358  0.3080
    1SOL     OW 5653   3.805   2.288   2.332  0.4600  0.5634  1.0316
    1SOL    HW2 5654   3.724   2.329   2.303 -0.6523 -1.3270  1.4200
    1SOL    HW3 5655   3.814   2.210   2.277  1.7061  0.4343  1.3963
    1SOL    MW4 5656   3.796   2.283   2.321  0.4776  0.2971  1.1311
    1SOL     OW 5657   3.615   2.453   2.258 -0.3480  0.1424  0.4201
    1SOL    HW2 5658   3.539   2.407   2.294 -0.5785 -0.6593 -1.0540
    1SOL    HW3 5659   3.609   2.440   2.163  1.0406  0.9808  0.1952
    1SOL    MW4 5660   3.605   2.445   2.250 -0.1953  0.1471  0.1960
    1SOL     OW 5661   3.556   2.732   2.351 -0.5975  0.1236  0.4960
    1SOL    HW2 5662   3.577   2.646   2.313 -0.6053 -0.6502  2.1861
    1SOL    HW3 5663   3.462   2.743   2.335 -0.4773  0.0928 -0.2539
    1SOL    MW4 5664   3.546   2.722   2.344 -0.5825  0.0174  0.6201
    1SOL     OW 5665   3.792   2.840   2.246  0.1373 -0.3769 -0.1275
    1SOL    HW2 5666   3.794   2.932   2.273  1.9743 -0.6053  0.5927
    1SOL    HW3 5667   3.708   2.807   2.278  0.0902  0.6695  0.8593
    1SOL    MW4 5668   3.781   2.848   2.254  0.3734 -0.2689  0.0978
    1SOL     OW 5669   3.820   3.100   2.348 -0.4564 -0.1719 -0.7369
    1SOL    HW2 5670   3.835   3.085   2.442 -0.5739  0.5299 -0.6015
    1SOL    HW3 5671   3.902   3.135   2.315 -0.7982  0.7514 -0.6339
    1SOL    MW4 5672   3.833   3.103   2.356 -0.5169  0.0427 -0.7052
    1SOL     OW 5673   3.594   3.245   2.299 -0.2499 -0.0073  0.2019
    1SOL    HW2 5674   3.599   3.338   2.324 -2.0042 -0.2806  1.6255
    1SOL    HW3 5675   3.680   3.210   2.323 -0.0161  0.9572  0.8160
    1SOL    MW4 5676   3.606   3.253   2.305 -0.4506  0.0842  0.4706
    1SOL     OW 5677   3.565   3.500   2.364 -0.0276  0.4079 -0.1277
    1SOL    HW2 5678   3.554   3.496   2.459 -0.4025 -1.2414 -0.2280
    1SOL    HW3 5679   3.638   3.561   2.351  0.1852  0.4588  1.2225
    1SOL    MW4 5680   3.573   3.508   2.375 -0.0489  0.1967  0.0372
    1SOL     OW 5681   3.794   3.644   2.298 -0.2968 -0.3680 -0.2164
    1SOL    HW2 5682   3.801   3.729   2.343  0.2949 -0.5141 -0.0199
    1SOL    HW3 5683   3.791   3.667   2.205  2.4924 -0.2228 -0.3223
    1SOL    MW4 5684   3.795   3.658   2.292  0.1493 -0.3681 -0.2048
    1SOL     OW 5685   3.796   3.915   2.366  0.2158 -0.1995 -0.2871
    1SOL    HW2 5686   3.817   3.909   2.459 -0.0806  0.7398 -0.1489
    1SOL    HW3 5687   3.876   3.950   2.325 -0.5086  1.9008  0.0136
    1SOL    MW4 5688   3.809   3.919   2.373  0.0811  0.2015 -0.2294
    1SOL     OW 5689   3.546   4.023   2.253  0.3707  0.2816  0.2952
    1SOL    HW2 5690   3.551   4.113   2.286  1.5803  0.3568 -0.0832
    1SOL    HW3 5691   3.621   3.978   2.292  0.4190 -0.2615 -0.4019
    1SOL    MW4 5692   3.556   4.029   2.262  0.5367  0.2198  0.1535
    1SOL     OW 5693   3.542   4.280   2.365  0.0332  1.1626  0.2219
    1SOL    HW2 5694   3.612   4.337   2.333  0.4655  1.3862  1.5154
    1SOL    HW3 5695   3.462   4.328   2.343  0.2891  1.0623 -0.9673
    1SOL    MW4 5696   3.541   4.294   2.358  0.1237  1.1792  0.2356
    1SOL     OW 5697   3.772   4.405   2.280  0.1323  0.3624 -0.2897
    1SOL    HW2 5698   3.852   4.371   2.318 -0.6712 -0.9769  0.2470
    1SOL    HW3 5699   3.776   4.500   2.295  0.9948  0.1461  0.8971
    1SOL    MW4 5700   3.783   4.413   2.287  0.1400  0.1569 -0.0622
    1SOL     OW 5701   4.275   4.662   2.385 -0.1715  0.0279  0.2537
    1SOL    HW2 5702   4.296   4.669   2.478  0.4152 -1.4336  0.2547
    1SOL    HW3 5703   4.348   4.706   2.341 -0.5107  0.8278  0.4873
    1SOL    MW4 5704   4.288   4.669   2.391 -0.1388 -0.0596  0.2844
    1SOL     OW 5705   4.024   0.099   2.272 -0.0369 -0.2970 -0.1191
    1SOL    HW2 5706   4.053   0.185   2.304 -1.5768 -0.5329  2.0300
    1SOL    HW3 5707   4.092   0.039   2.302 -0.3775 -0.2029  0.8885
    1SOL    MW4 5708   4.037   0.103   2.280 -0.2856 -0.3157  0.2973
    1SOL     OW 5709   4.057   0.363   2.380  0.0207  0.5903 -0.1693
    1SOL    HW2 5710   4.123   0.408   2.328 -0.9124  0.6539 -1.3390
    1SOL    HW3 5711   3.975   0.406   2.356 -0.3984  0.8104  1.5889
    1SOL    MW4 5712   4.055   0.375   2.370 -0.1578  0.6277 -0.0916
    1SOL     OW 5713   4.269   0.487   2.256 -0.4604 -0.1789 -0.2854
    1SOL    HW2 5714   4.250   0.578   2.279  0.2746  0.5692 -2.5170
    1SOL    HW3 5715   4.355   0.469   2.294 -0.4508  0.1577 -0.1490
    1SOL    MW4 5716   4.277   0.496   2.264 -0.3629 -0.0358 -0.5615
    1SOL     OW 5717   4.264   0.741   2.366  0.0480 -0.1567  0.2211
    1SOL    HW2 5718   4.192   0.799   2.343  0.4327  0.6263  0.9191
    1SOL    HW3 5719   4.341   0.783   2.327  0.2285 -0.5750  0.1280
    1SOL    MW4 5720   4.265   0.754   2.358  0.1230 -0.1086  0.3009
    1SOL     OW 5721   4.035   0.870   2.278 -0.1633 -0.5347 -0.7682
    1SOL    HW2 5722   4.040   0.963   2.299 -0.1677 -0.6541 -0.2388
    1SOL    HW3 5723   4.045   0.866   2.183 -0.4616  0.0273 -0.8206
    1SOL    MW4 5724   4.037   0.881   2.268 -0.2031 -0.4763 -0.7052
    1SOL     OW 5725   4.046   1.142   2.363 -0.5905 -0.1653  0.2409
    1SOL    HW2 5726   4.033   1.150   2.458 -0.0094 -0.5481  0.3555
    1SOL    HW3 5727   3.998   1.216   2.326  0.9952  1.2965  0.9907
    1SOL    MW4 5728   4.038   1.153   2.371 -0.3047 -0.0229  0.3548
    1SOL     OW 5729   4.291   1.262   2.245  0.1470  0.0743  0.6575
    1SOL    HW2 5730   4.225   1.219   2.299  0.8055  0.6853  1.9977
    1SOL    HW3 5731   4.374   1.221   2.272  0.5338  0.7032  0.4375
    1SOL    MW4 5732   4.294   1.251   2.256  0.2847  0.2379  0.8054
    1SOL     OW 5733   4.277   1.527   2.338  0.5774 -0.2281 -0.1236
    1SOL    HW2 5734   4.277   1.445   2.288  2.1130 -0.0504 -0.4451
    1SOL    HW3 5735   4.364   1.565   2.322  0.3138  0.8790  0.9828
    1SOL    MW4 5736   4.289   1.521   2.329  0.7448 -0.0587 -0.0200
    1SOL     OW 5737   4.036   1.700   2.277 -0.2387 -0.2798 -0.0998
    1SOL    HW2 5738   4.110   1.651   2.312  0.3193  1.0750  0.7032
    1SOL    HW3 5739   3.960   1.646   2.297  0.3103 -0.6029  1.1725
    1SOL    MW4 5740   4.036   1.687   2.284 -0.0925 -0.1436  0.1740
    1SOL     OW 5741   4.031   1.948   2.386  0.4335 -0.9640  0.0396
    1SOL    HW2 5742   4.031   1.941   2.482  0.2463 -1.3004  0.0182
    1SOL    HW3 5743   4.033   1.857   2.356  0.1239 -0.8687 -0.2731
    1SOL    MW4 5744   4.031   1.935   2.395  0.3681 -0.9958 -0.0045
    1SOL     OW 5745   4.286   2.067   2.321 -0.5276 -0.5078  0.0920
    1SOL    HW2 5746   4.276   2.162   2.329 -0.0780 -0.5884  1.7625
    1SOL    HW3 5747   4.199   2.032   2.339 -0.9689 -0.3691 -1.6813
    1SOL    MW4 5748   4.273   2.075   2.324 -0.5264 -0.5002  0.0787
    1SOL     OW 5749   4.281   2.354   2.371  0.0793  0.1218  0.2790
    1SOL    HW2 5750   4.204   2.395   2.332  0.0444 -1.5745 -1.5111
    1SOL    HW3 5751   4.352   2.374   2.310  0.8519  0.7493  1.3652
    1SOL    MW4 5752   4.280   2.362   2.358  0.1769 -0.0193  0.1862
    1SOL     OW 5753   4.039   2.433   2.247  0.5511  0.3181  0.2429
    1SOL    HW2 5754   4.028   2.520   2.287  0.6839  0.4250  0.0433
    1SOL    HW3 5755   3.964   2.383   2.280 -0.1174  0.8276 -0.5015
    1SOL    MW4 5756   4.027   2.438   2.257  0.4807  0.3994  0.1185
    1SOL     OW 5757   4.016   2.676   2.347 -0.1518  0.2863 -0.2630
    1SOL    HW2 5758   4.006   2.696   2.440 -0.3274  1.6632 -0.5749
    1SOL    HW3 5759   3.940   2.717   2.305 -1.0322 -1.8403 -0.7960
    1SOL    MW4 5760   4.004   2.684   2.354 -0.2913  0.1874 -0.3748
    1SOL     OW 5761   4.239   2.848   2.302 -0.0393  0.0455  0.1202
    1SOL    HW2 5762   4.165   2.789   2.313 -0.5212  0.2810 -1.8086
    1SOL    HW3 5763   4.314   2.798   2.337 -0.7468 -0.9734  0.2167
    1SOL    MW4 5764   4.239   2.833   2.308 -0.1960 -0.0579 -0.1218
    1SOL     OW 5765   4.244   3.110   2.386 -0.2989  0.0254  0.2415
    1SOL    HW2 5766   4.235   3.018   2.364 -0.5034  0.1012  0.0181
    1SOL    HW3 5767   4.334   3.132   2.359 -0.4119  0.0157 -0.1400
    1SOL    MW4 5768   4.255   3.101   2.380 -0.3405  0.0341  0.1619
    1SOL     OW 5769   4.040   3.228   2.252 -0.0673 -0.0665  0.2305
    1SOL    HW2 5770   4.020   3.316   2.286  0.3629  0.5241 -1.0213
    1SOL    HW3 5771   4.115   3.199   2.304  0.9815  1.0931 -0.5855
    1SOL    MW4 5772   4.047   3.236   2.263  0.1278  0.1645 -0.0424
    1SOL     OW 5773   4.015   3.488   2.381  0.3711 -0.2242  0.1609
    1SOL    HW2 5774   4.090   3.527   2.336 -1.0946  1.5620 -0.8003
    1SOL    HW3 5775   3.938   3.526   2.338 -1.0821 -0.7736  2.1865
    1SOL    MW4 5776   4.015   3.498   2.370 -0.0138 -0.0610  0.3011
    1SOL     OW 5777   4.275   3.577   2.266 -0.3090  0.1680  0.4561
    1SOL    HW2 5778   4.277   3.670   2.287  0.2226  0.2474  0.0545
    1SOL    HW3 5779   4.274   3.573   2.171 -1.1635 -0.2281  0.4682
    1SOL    MW4 5780   4.275   3.589   2.256 -0.3519  0.1264  0.4051
    1SOL     OW 5781   4.245   3.827   2.359 -0.2644  0.1196 -0.2650
    1SOL    HW2 5782   4.264   3.823   2.453  0.7917 -2.8136 -0.5319
    1SOL    HW3 5783   4.314   3.882   2.323 -0.0786  0.4232  0.5400
    1SOL    MW4 5784   4.256   3.833   2.367 -0.1006 -0.2272 -0.1938
    1SOL     OW 5785   4.033   4.011   2.261 -0.1959  0.3000  0.1753
    1SOL    HW2 5786   4.106   3.952   2.281 -2.0579 -2.0499  0.2352
    1SOL    HW3 5787   4.036   4.021   2.165  0.5534  0.7029  0.2355
    1SOL    MW4 5788   4.043   4.004   2.251 -0.3424  0.0434  0.1912
    1SOL     OW 5789   4.005   4.274   2.356 -0.3795  0.2270  0.4847
    1SOL    HW2 5790   4.091   4.306   2.329  0.3949 -0.9923  1.4499
    1SOL    HW3 5791   4.003   4.183   2.329 -1.7442  0.4950 -0.3617
    1SOL    MW4 5792   4.016   4.266   2.349 -0.4578  0.1016  0.5004
    1SOL     OW 5793   4.241   4.392   2.287  0.2267 -0.1040 -0.0066
    1SOL    HW2 5794   4.252   4.475   2.333  1.9566 -0.6054  0.5016
    1SOL    HW3 5795   4.322   4.344   2.303 -0.8173 -1.9637 -0.1679
    1SOL    MW4 5796   4.253   4.397   2.295  0.3171 -0.4153  0.0393
    1SOL     OW 5797   0.255   4.626   2.656 -0.2004  0.1615 -0.0701
    1SOL    HW2 5798   0.267   4.533   2.677 -1.0532 -0.1003 -0.7527
    1SOL    HW3 5799   0.176   4.652   2.704 -0.2158  0.4268 -0.2388
    1SOL    MW4 5800   0.247   4.617   2.665 -0.3150  0.1626 -0.1824
    1SOL     OW 5801   0.035   0.118   2.735 -0.0792  0.3582 -0.2333
    1SOL    HW2 5802   0.027   0.130   2.830 -0.7028  1.1673 -0.3904
    1SOL    HW3 5803   0.012   0.202   2.698  0.3752  0.1035 -1.1061
    1SOL    MW4 5804   0.031   0.130   2.743 -0.1015  0.4314 -0.3693
    1SOL     OW 5805   4.487   0.415   2.636  0.0274 -0.2715 -0.1310
    1SOL    HW2 5806   4.580   0.425   2.658  0.1161  1.3920 -1.1643
    1SOL    HW3 5807   4.487   0.399   2.542 -0.6705 -1.6582  0.0939
    1SOL    MW4 5808   4.499   0.414   2.627 -0.0529 -0.2350 -0.2377
    1SOL     OW 5809   0.250   0.462   2.722  0.3793  0.0638 -0.4573
    1SOL    HW2 5810   0.254   0.463   2.817  1.3074 -0.6593 -0.4782
    1SOL    HW3 5811   0.335   0.427   2.695  0.9351  2.2254 -1.6096
    1SOL    MW4 5812   0.262   0.457   2.731  0.5751  0.2536 -0.6120
    1SOL     OW 5813   0.183   0.724   2.625  0.0463  0.5064  0.4155
    1SOL    HW2 5814   0.256   0.773   2.662  1.2730 -0.1432 -1.0846
    1SOL    HW3 5815   0.205   0.632   2.642  0.6813  0.1922 -1.9546
    1SOL    MW4 5816   0.196   0.718   2.632  0.2919  0.3793 -0.0949
    1SOL     OW 5817   4.488   0.896   2.732 -0.1004 -0.6466  0.0011
    1SOL    HW2 5818   4.399   0.862   2.721  0.1437 -1.3719  0.2831
    1SOL    HW3 5819   4.545   0.831   2.693  0.2619  0.2411 -0.9813
    1SOL    MW4 5820   4.484   0.883   2.726 -0.0203 -0.6251 -0.0913
    1SOL     OW 5821   0.021   1.135   2.601  0.1560 -0.6720 -0.1722
    1SOL    HW2 5822   0.077   1.194   2.652 -1.3809 -0.3398  1.1724
    1SOL    HW3 5823   0.017   1.055   2.653  0.0354 -0.9970 -0.6719
    1SOL    MW4 5824   0.028   1.132   2.614 -0.0627 -0.6711 -0.0603
    1SOL     OW 5825   0.209   1.267   2.745 -0.8652 -0.4224 -0.3556
    1SOL    HW2 5826   0.273   1.214   2.697  0.2555 -0.2542  0.9338
    1SOL    HW3 5827   0.198   1.346   2.691 -0.7682 -0.9086 -1.0911
    1SOL    MW4 5828   0.216   1.271   2.731 -0.7045 -0.4643 -0.2828
    1SOL     OW 5829   0.194   1.501   2.597 -0.1533 -0.2551 -0.2664
    1SOL    HW2 5830   0.265   1.543   2.646  0.2980  0.2405 -1.3204
    1SOL    HW3 5831   0.115   1.543   2.631  0.1845  0.3877 -0.2474
    1SOL    MW4 5832   0.193   1.512   2.608 -0.0492 -0.1050 -0.4029
    1SOL     OW 5833   4.482   1.641   2.710 -0.1164  0.2173  0.5151
    1SOL    HW2 5834   4.488   1.643   2.805  1.5088  0.8523  0.4101
    1SOL    HW3 5835   4.478   1.733   2.685 -2.3082  0.0384  0.0418
    1SOL    MW4 5836   4.482   1.653   2.719 -0.1912  0.2774  0.4387
    1SOL     OW 5837   4.454   1.897   2.654 -0.7356 -0.2214  0.2722
    1SOL    HW2 5838   4.516   1.944   2.711 -0.1390 -0.4926 -0.1405
    1SOL    HW3 5839   4.485   1.916   2.566 -0.5589 -1.2961  0.0979
    1SOL    MW4 5840   4.467   1.906   2.650 -0.6336 -0.3990  0.1948
    1SOL     OW 5841   0.160   2.060   2.761 -0.1511 -0.6350  0.5306
    1SOL    HW2 5842   0.244   2.019   2.739 -1.0793 -2.4027  0.1553
    1SOL    HW3 5843   0.159   2.142   2.712  0.7613 -1.2624 -0.5579
    1SOL    MW4 5844   0.171   2.065   2.752 -0.1532 -0.9511  0.3376
    1SOL     OW 5845   0.195   2.301   2.639  0.3647  0.5163  0.1424
    1SOL    HW2 5846   0.272   2.335   2.683 -0.4118  0.5255  1.5313
    1SOL    HW3 5847   0.123   2.357   2.669 -0.2092  0.4517 -1.0509
    1SOL    MW4 5848   0.195   2.313   2.649  0.1866  0.5088  0.1681
    1SOL     OW 5849   0.007   2.467   2.708 -0.0995 -0.4159 -0.2853
    1SOL    HW2 5850   0.008   2.464   2.804 -0.0606 -1.4223 -0.3126
    1SOL    HW3 5851  -0.065   2.409   2.683 -0.1804 -0.0686 -0.8683
    1SOL    MW4 5852  -0.002   2.459   2.718 -0.1049 -0.5028 -0.3657
    1SOL     OW 5853   4.469   2.719   2.597  0.2537  0.1532 -0.2414
    1SOL    HW2 5854   4.400   2.763   2.647 -0.0492 -0.6977  0.0992
    1SOL    HW3 5855   4.472   2.630   2.634  1.5333  0.1900 -0.2569
    1SOL    MW4 5856   4.460   2.713   2.608  0.3829  0.0460 -0.1986
    1SOL     OW 5857   0.186   2.803   2.749  0.1104  0.2412 -0.2854
    1SOL    HW2 5858   0.210   2.890   2.717  1.8453 -0.1482 -0.0925
    1SOL    HW3 5859   0.115   2.776   2.691  0.1589  1.4159 -0.9264
    1SOL    MW4 5860   0.180   2.811   2.737  0.3457  0.3445 -0.3445
    1SOL     OW 5861   0.227   3.076   2.646  0.5097  0.3127 -0.7687
    1SOL    HW2 5862   0.305   3.123   2.675  1.5665 -1.1612 -1.1319
    1SOL    HW3 5863   0.230   3.081   2.551  0.1383  0.2841 -0.7824
    1SOL    MW4 5864   0.238   3.083   2.637  0.6001  0.1144 -0.8185
    1SOL     OW 5865   0.015   3.201   2.760  0.4272 -0.0184 -0.3920
    1SOL    HW2 5866  -0.064   3.157   2.727  0.1698 -0.4325  0.7448
    1SOL    HW3 5867   0.087   3.157   2.715  0.0702 -0.4273 -0.5712
    1SOL    MW4 5868   0.014   3.189   2.749  0.3462 -0.1268 -0.2658
    1SOL     OW 5869   4.482   3.460   2.650 -0.3043 -0.1627  0.9326
    1SOL    HW2 5870   4.553   3.514   2.684  0.9191 -0.5870 -0.8641
    1SOL    HW3 5871   4.501   3.372   2.683 -0.4785 -0.1217  1.1470
    1SOL    MW4 5872   4.494   3.455   2.659 -0.1664 -0.2134  0.7238
    1SOL     OW 5873   0.191   3.612   2.755  0.5992 -0.2998  0.1096
    1SOL    HW2 5874   0.194   3.615   2.851 -1.1146  1.2516  0.1339
    1SOL    HW3 5875   0.271   3.565   2.731  1.5819  0.1744  2.2570
    1SOL    MW4 5876   0.202   3.606   2.765  0.5027 -0.0329  0.3965
    1SOL     OW 5877   0.220   3.846   2.627 -0.2128  0.1101  0.1026
    1SOL    HW2 5878   0.192   3.756   2.646  1.2728 -0.2044  0.9481
    1SOL    HW3 5879   0.202   3.857   2.534 -1.9357 -0.4871  0.3444
    1SOL    MW4 5880   0.214   3.835   2.617 -0.2441 -0.0105  0.2458
    1SOL     OW 5881   0.012   3.995   2.730 -0.3631  0.2547 -0.3174
    1SOL    HW2 5882  -0.001   4.079   2.687  0.3706  1.0970  1.0823
    1SOL    HW3 5883   0.087   3.956   2.685 -0.5898  0.4204 -0.8410
    1SOL    MW4 5884   0.020   4.001   2.719 -0.2962  0.3872 -0.2019
    1SOL     OW 5885   0.030   4.232   2.604 -0.7951  0.1209  0.1034
    1SOL    HW2 5886  -0.049   4.274   2.639 -0.5004  1.1336 -0.4384
    1SOL    HW3 5887   0.102   4.276   2.647 -0.4871  0.1001 -0.3828
    1SOL    MW4 5888   0.029   4.243   2.614 -0.7156  0.2513 -0.0322
    1SOL     OW 5889   0.231   4.350   2.757 -0.5232 -0.1469 -0.4800
    1SOL    HW2 5890   0.238   4.342   2.852 -1.2658  0.2529 -0.3817
    1SOL    HW3 5891   0.306   4.303   2.723 -0.9656 -1.4036  0.2624
    1SOL    MW4 5892   0.242   4.343   2.765 -0.6795 -0.2604 -0.3693
    1SOL     OW 5893   0.675   4.613   2.652  0.1379  0.4506 -0.3307
    1SOL    HW2 5894   0.754   4.657   2.681  0.2520 -0.0064  0.0527
    1SOL    HW3 5895   0.605   4.676   2.668  0.3632  0.6774 -0.2394
    1SOL    MW4 5896   0.676   4.627   2.658  0.1827  0.4201 -0.2680
    1SOL     OW 5897   0.469   0.087   2.761  0.0256 -0.1851  0.4572
    1SOL    HW2 5898   0.475   0.075   2.855 -0.5871 -1.4619  0.3483
    1SOL    HW3 5899   0.389   0.041   2.735  0.5952 -0.5258 -0.7799
    1SOL    MW4 5900   0.459   0.079   2.770  0.0199 -0.3985  0.2799
    1SOL     OW 5901   0.496   0.353   2.640  0.3849 -0.1820 -0.4514
    1SOL    HW2 5902   0.572   0.397   2.677  0.3612 -1.2855  0.9454
    1SOL    HW3 5903   0.494   0.268   2.684 -0.6515 -0.8445 -1.7395
    1SOL    MW4 5904   0.506   0.347   2.650  0.2450 -0.4150 -0.4370
    1SOL     OW 5905   0.700   0.496   2.731  0.0726 -0.1830  0.0921
    1SOL    HW2 5906   0.692   0.481   2.826 -1.3281 -1.5984 -0.2248
    1SOL    HW3 5907   0.783   0.455   2.708 -0.1312 -0.8550  0.5228
    1SOL    MW4 5908   0.710   0.489   2.741 -0.1391 -0.4584  0.1070
    1SOL     OW 5909   0.624   0.731   2.620  0.0230 -0.3874 -0.3060
    1SOL    HW2 5910   0.696   0.791   2.641  0.0913 -0.4378 -0.3911
    1SOL    HW3 5911   0.654   0.646   2.654 -0.8653 -0.0235  1.4603
    1SOL    MW4 5912   0.638   0.727   2.628 -0.0852 -0.3460 -0.0839
    1SOL     OW 5913   0.400   0.851   2.732  0.1655 -0.2275  0.1376
    1SOL    HW2 5914   0.410   0.850   2.828 -0.2218 -2.3116  0.1903
    1SOL    HW3 5915   0.477   0.806   2.699  1.2814  2.2088 -0.6808
    1SOL    MW4 5916   0.411   0.845   2.741  0.2616 -0.1810  0.0365
    1SOL     OW 5917   0.395   1.109   2.617 -0.0869 -0.1778 -0.1596
    1SOL    HW2 5918   0.474   1.143   2.660 -0.6419 -0.7464  1.3702
    1SOL    HW3 5919   0.384   1.021   2.655 -0.3336 -0.8875 -1.8401
    1SOL    MW4 5920   0.404   1.102   2.628 -0.1926 -0.3465 -0.1795
    1SOL     OW 5921   0.636   1.248   2.737 -0.0998  1.0414 -0.6169
    1SOL    HW2 5922   0.648   1.256   2.832 -2.3689 -1.2342 -0.0933
    1SOL    HW3 5923   0.709   1.193   2.708 -1.0035 -0.6538  0.2719
    1SOL    MW4 5924   0.647   1.242   2.746 -0.5184  0.5176 -0.4306
    1SOL     OW 5925   0.698   1.529   2.676 -0.1511  0.0516 -0.4399
    1SOL    HW2 5926   0.620   1.579   2.700  0.1904  0.9919 -1.2596
    1SOL    HW3 5927   0.670   1.438   2.682 -1.3654  0.3839 -0.8845
    1SOL    MW4 5928   0.684   1.524   2.680 -0.2663  0.2196 -0.6070
    1SOL     OW 5929   0.410   1.631   2.704 -0.0527  0.0581 -0.2034
    1SOL    HW2 5930   0.412   1.644   2.799  0.2797  0.4197 -0.2590
    1SOL    HW3 5931   0.410   1.720   2.668 -0.3934 -0.0785 -0.5379
    1SOL    MW4 5932   0.411   1.645   2.712 -0.0538  0.0877 -0.2549
    1SOL     OW 5933   0.397   1.938   2.659 -0.1399  0.7364  0.1918
    1SOL    HW2 5934   0.488   1.949   2.687  0.3086 -2.2273  0.0605
    1SOL    HW3 5935   0.400   1.941   2.563 -0.0601 -0.0781  0.1649
    1SOL    MW4 5936   0.409   1.940   2.650 -0.0702  0.2378  0.1714
    1SOL     OW 5937   0.669   2.005   2.729 -0.3023 -0.1897 -0.2457
    1SOL    HW2 5938   0.678   1.997   2.824  1.5423  0.5249 -0.3314
    1SOL    HW3 5939   0.753   1.974   2.695 -0.4713  0.7905 -1.5732
    1SOL    MW4 5940   0.681   1.999   2.737 -0.0812  0.0341 -0.4325
    1SOL     OW 5941   0.682   2.279   2.636  0.0077  0.1743  0.3838
    1SOL    HW2 5942   0.758   2.321   2.675 -1.1422  1.4610  1.3071
    1SOL    HW3 5943   0.678   2.193   2.676  0.9871  0.1054  0.3229
    1SOL    MW4 5944   0.691   2.274   2.646 -0.0148  0.3350  0.4978
    1SOL     OW 5945   0.429   2.418   2.760 -0.5671 -0.0832 -0.2871
    1SOL    HW2 5946   0.417   2.504   2.720 -1.4438  0.0276  0.1843
    1SOL    HW3 5947   0.502   2.379   2.713  1.3234  1.8072  0.9870
    1SOL    MW4 5948   0.437   2.424   2.749 -0.4334  0.1807 -0.0570
    1SOL     OW 5949   0.395   2.670   2.613 -0.1457 -0.2712  0.0855
    1SOL    HW2 5950   0.461   2.732   2.643  0.2168 -0.3130 -0.6105
    1SOL    HW3 5951   0.318   2.690   2.666  0.2775  0.0954  0.5701
    1SOL    MW4 5952   0.393   2.681   2.624 -0.0420 -0.2284  0.0577
    1SOL     OW 5953   0.626   2.806   2.718  0.0146  0.0735 -0.3468
    1SOL    HW2 5954   0.640   2.797   2.812  0.6775  0.7431 -0.3729
    1SOL    HW3 5955   0.653   2.896   2.699  0.7808 -0.3566 -1.3349
    1SOL    MW4 5956   0.631   2.817   2.728  0.2032  0.1051 -0.4807
    1SOL     OW 5957   0.683   3.066   2.653  0.2247  0.0652  0.3846
    1SOL    HW2 5958   0.765   3.111   2.673  0.1896  0.3270 -0.0413
    1SOL    HW3 5959   0.688   3.050   2.558  0.0713 -0.4949  0.4722
    1SOL    MW4 5960   0.695   3.070   2.643  0.1999  0.0257  0.3405
    1SOL     OW 5961   0.456   3.215   2.742  0.2081  0.1567  0.3120
    1SOL    HW2 5962   0.464   3.204   2.837  0.0092  1.2498  0.4641
    1SOL    HW3 5963   0.532   3.170   2.706 -0.3934 -1.3668  0.9144
    1SOL    MW4 5964   0.467   3.208   2.750  0.1025  0.0997  0.4115
    1SOL     OW 5965   0.404   3.463   2.654 -0.1027 -0.0121  0.2063
    1SOL    HW2 5966   0.431   3.376   2.684  2.8226  0.5512 -0.6558
    1SOL    HW3 5967   0.429   3.465   2.561  0.5880  2.0192  0.4186
    1SOL    MW4 5968   0.411   3.451   2.645  0.3744  0.3302  0.1204
    1SOL     OW 5969   0.667   3.576   2.739  0.0248 -0.0066  0.0424
    1SOL    HW2 5970   0.680   3.579   2.834 -0.7556 -0.0280  0.1514
    1SOL    HW3 5971   0.581   3.535   2.727 -0.6577  1.5680 -0.6102
    1SOL    MW4 5972   0.657   3.571   2.750 -0.1683  0.1981 -0.0291
    1SOL     OW 5973   0.677   3.846   2.652  0.0685  0.0007  0.4721
    1SOL    HW2 5974   0.596   3.888   2.681 -0.6620 -0.4921 -0.8412
    1SOL    HW3 5975   0.670   3.756   2.683  0.8787  0.3765  1.8084
    1SOL    MW4 5976   0.665   3.840   2.660  0.0790 -0.0148  0.4749
    1SOL     OW 5977   0.449   3.964   2.733  0.0605 -0.3317 -0.3117
    1SOL    HW2 5978   0.448   4.055   2.706 -1.3757 -0.4375 -0.6317
    1SOL    HW3 5979   0.364   3.929   2.707  0.0853 -1.4184  0.9753
    1SOL    MW4 5980   0.438   3.971   2.726 -0.1257 -0.4890 -0.1843
    1SOL     OW 5981   0.472   4.247   2.644  0.1501 -0.2454  0.9518
    1SOL    HW2 5982   0.543   4.297   2.685 -1.1550  0.9671  1.7752
    1SOL    HW3 5983   0.480   4.266   2.550  1.0607 -0.3151  1.0132
    1SOL    MW4 5984   0.482   4.257   2.637  0.0980 -0.0949  1.0686
    1SOL     OW 5985   0.667   4.373   2.777  0.0893 -0.0170  0.0319
    1SOL    HW2 5986   0.748   4.340   2.739 -0.8139 -0.2574 -1.7465
    1SOL    HW3 5987   0.663   4.465   2.749 -0.0727  0.1019  0.4353
    1SOL    MW4 5988   0.677   4.381   2.768 -0.0512 -0.0334 -0.1495
    1SOL     OW 5989   1.119   4.641   2.658 -0.0479  0.0873  0.3385
    1SOL    HW2 5990   1.198   4.681   2.694 -0.5062  0.4565  0.9518
    1SOL    HW3 5991   1.128   4.548   2.677 -0.6418  0.3780  2.1036
    1SOL    MW4 5992   1.131   4.634   2.665 -0.1867  0.1745  0.6523
    1SOL     OW 5993   0.883   0.125   2.724 -0.0090  0.1684  0.2298
    1SOL    HW2 5994   0.873   0.132   2.819  0.8261 -0.6080  0.3796
    1SOL    HW3 5995   0.960   0.069   2.712 -0.2936  0.0178 -0.9084
    1SOL    MW4 5996   0.892   0.119   2.735  0.0637  0.0461  0.0994
    1SOL     OW 5997   0.928   0.373   2.639 -0.2814 -0.2005 -0.2015
    1SOL    HW2 5998   0.922   0.279   2.660 -0.7246 -0.0644  0.2821
    1SOL    HW3 5999   0.910   0.377   2.545  0.2408 -0.6551 -0.3237
    1SOL    MW4 6000   0.924   0.361   2.629 -0.2710 -0.2426 -0.1535
    1SOL     OW 6001   1.151   0.496   2.750 -0.6379  0.7666 -0.3553
    1SOL    HW2 6002   1.141   0.583   2.713  1.1450  0.6379 -1.2340
    1SOL    HW3 6003   1.074   0.448   2.721 -0.0333  1.1177 -2.6780
    1SOL    MW4 6004   1.140   0.501   2.741 -0.3229  0.7960 -0.7777
    1SOL     OW 6005   1.113   0.742   2.619  0.1196 -0.2950 -0.1033
    1SOL    HW2 6006   1.185   0.802   2.637 -0.6680  0.4094  0.7371
    1SOL    HW3 6007   1.120   0.722   2.526  2.4107 -1.5465  0.2955
    1SOL    MW4 6008   1.124   0.747   2.609  0.3181 -0.3672  0.0603
    1SOL     OW 6009   0.878   0.868   2.698  0.2645 -0.2054 -0.0712
    1SOL    HW2 6010   0.888   0.867   2.793 -0.5506 -0.3976  0.0144
    1SOL    HW3 6011   0.950   0.813   2.666 -0.1118 -1.0353  0.4940
    1SOL    MW4 6012   0.889   0.861   2.706  0.1073 -0.3403  0.0148
    1SOL     OW 6013   0.882   1.159   2.652  0.1802 -0.2610  0.2116
    1SOL    HW2 6014   0.882   1.070   2.686  0.1454 -0.1919  0.3919
    1SOL    HW3 6015   0.894   1.148   2.557 -3.3082 -0.6275 -0.2338
    1SOL    MW4 6016   0.884   1.146   2.644 -0.2846 -0.3002  0.1764
    1SOL     OW 6017   1.113   1.285   2.736 -0.5000  0.4504 -0.5112
    1SOL    HW2 6018   1.118   1.379   2.722 -0.3392  0.6298  0.6468
    1SOL    HW3 6019   1.022   1.262   2.717 -0.6392  0.9069 -0.4076
    1SOL    MW4 6020   1.102   1.294   2.732 -0.4971  0.5344 -0.3445
    1SOL     OW 6021   1.138   1.549   2.677  0.5997  0.0499  0.0390
    1SOL    HW2 6022   1.058   1.595   2.702  1.0318  1.7236 -1.5532
    1SOL    HW3 6023   1.134   1.544   2.581  1.0439 -2.3918  0.1202
    1SOL    MW4 6024   1.127   1.554   2.668  0.7154 -0.0515 -0.1607
    1SOL     OW 6025   0.906   1.694   2.741 -0.1711 -0.4996  0.1132
    1SOL    HW2 6026   0.899   1.699   2.836  0.1238  0.5359  0.0828
    1SOL    HW3 6027   0.835   1.635   2.714  0.7272 -2.0573  1.1029
    1SOL    MW4 6028   0.896   1.686   2.750 -0.0136 -0.5685  0.2398
    1SOL     OW 6029   0.921   1.949   2.622  0.3119 -0.1693  0.4066
    1SOL    HW2 6030   0.992   1.994   2.668 -0.0826  0.0400  0.8190
    1SOL    HW3 6031   0.935   1.856   2.641 -0.4165 -0.0161  1.7812
    1SOL    MW4 6032   0.932   1.943   2.631  0.1638 -0.1214  0.6425
    1SOL     OW 6033   1.169   2.049   2.782  0.2835 -0.3272 -0.2135
    1SOL    HW2 6034   1.239   2.002   2.737 -0.2085 -1.2803 -0.0064
    1SOL    HW3 6035   1.158   2.130   2.732  2.3352  0.3862  0.4445
    1SOL    MW4 6036   1.176   2.053   2.770  0.4895 -0.3588 -0.0994
    1SOL     OW 6037   1.085   2.275   2.604  0.1671 -0.1874 -0.0447
    1SOL    HW2 6038   1.161   2.325   2.633  1.3651 -2.1585  0.3628
    1SOL    HW3 6039   1.080   2.290   2.510  2.1402 -1.3894 -0.3765
    1SOL    MW4 6040   1.095   2.283   2.596  0.5854 -0.6061 -0.0343
    1SOL     OW 6041   0.897   2.419   2.735 -0.0909  0.4272  0.2821
    1SOL    HW2 6042   0.886   2.496   2.679  0.3052  0.6353  0.4914
    1SOL    HW3 6043   0.970   2.371   2.697 -0.9769 -0.3635 -0.4304
    1SOL    MW4 6044   0.905   2.423   2.723 -0.1555  0.3505  0.2158
    1SOL     OW 6045   0.878   2.676   2.616  0.1813 -0.0491  0.3749
    1SOL    HW2 6046   0.936   2.721   2.677  0.5257  0.4219 -0.2946
    1SOL    HW3 6047   0.791   2.708   2.637  0.4825  1.3310 -0.4471
    1SOL    MW4 6048   0.874   2.686   2.627  0.2666  0.1955  0.1781
    1SOL     OW 6049   1.083   2.832   2.736  0.0000  0.0000 -0.1700
    1SOL    HW2 6050   1.106   2.825   2.828  0.0000  0.0000 -0.1706
    1SOL    HW3 6051   1.159   2.795   2.690  0.0000  0.0000 -0.1725
    1SOL    MW4 6052   1.096   2.826   2.742  0.0000  0.0000 -0.1702
    1SOL     OW 6053   1.148   3.096   2.639  0.0000  0.0000  0.2988
    1SOL    HW2 6054   1.122   3.007   2.663  0.0000  0.0000  0.3046
    1SOL    HW3 6055   1.136   3.101   2.545  0.0000  0.0000  0.2987
    1SOL    MW4 6056   1.143   3.085   2.630  0.0000  0.0000  0.2995
    1SOL     OW 6057   0.919   3.208   2.757  0.0000  0.0000  0.3205
    1SOL    HW2 6058   0.903   3.287   2.705  0.0000  0.0000  0.3538
    1SOL    HW3 6059   1.006   3.179   2.729  0.0000  0.0000  0.2932
    1SOL    MW4 6060   0.928   3.215   2.746  0.0000  0.0000  0.3214
    1SOL     OW 6061   0.887   3.462   2.642  0.0000  0.0000  0.0014
    1SOL    HW2 6062   0.961   3.508   2.683  0.0000  0.0000  0.0222
    1SOL    HW3 6063   0.810   3.511   2.672  0.0000  0.0000  0.0172
    1SOL    MW4 6064   0.887   3.475   2.652  0.0000  0.0000  0.0060
    1SOL     OW 6065   1.102   3.599   2.774  0.0000  0.0000  0.0727
    1SOL    HW2 6066   1.101   3.626   2.866  0.0000  0.0000  0.0754
    1SOL    HW3 6067   1.100   3.681   2.725  0.0000  0.0000  0.0806
    1SOL    MW4 6068   1.102   3.613   2.780  0.0000  0.0000  0.0741
    1SOL     OW 6069   1.098   3.851   2.633  0.0000  0.0000 -0.0350
    1SOL    HW2 6070   1.178   3.889   2.671  0.0000  0.0000 -0.0290
    1SOL    HW3 6071   1.110   3.859   2.539  0.0000  0.0000 -0.0338
    1SOL    MW4 6072   1.110   3.857   2.626  0.0000  0.0000 -0.0339
    1SOL     OW 6073   0.893   4.008   2.752  0.0000  0.0000  0.0810
    1SOL    HW2 6074   0.957   3.963   2.697  0.0000  0.0000  0.0774
    1SOL    HW3 6075   0.809   3.969   2.726  0.0000  0.0000  0.0984
    1SOL    MW4 6076   0.890   3.997   2.742  0.0000  0.0000  0.0827
    1SOL     OW 6077   0.888   4.266   2.652  0.0000  0.0000  0.1882
    1SOL    HW2 6078   0.892   4.173   2.677  0.0000  0.0000  0.1931
    1SOL    HW3 6079   0.884   4.265   2.556  0.0000  0.0000  0.1881
    1SOL    MW4 6080   0.888   4.254   2.643  0.0000  0.0000  0.1886
    1SOL     OW 6081   1.144   4.351   2.728  0.0000  0.0000  0.1396
    1SOL    HW2 6082   1.137   4.378   2.820  0.0000  0.0000  0.1405
    1SOL    HW3 6083   1.055   4.327   2.703  0.0000  0.0000  0.1376
    1SOL    MW4 6084   1.131   4.351   2.737  0.0000  0.0000  0.1395
    1SOL     OW 6085   1.566   4.631   2.651  0.0500  0.1096 -0.2017
    1SOL    HW2 6086   1.561   4.536   2.653 -0.3090  0.1323  1.2179
    1SOL    HW3 6087   1.541   4.655   2.562 -1.3776 -1.0540 -0.1324
    1SOL    MW4 6088   1.562   4.622   2.640 -0.1857 -0.0405 -0.0050
    1SOL     OW 6089   1.352   0.073   2.781 -0.3642  0.1634  0.2249
    1SOL    HW2 6090   1.348   0.164   2.752 -1.0386 -0.6485 -2.3051
    1SOL    HW3 6091   1.422   0.034   2.728 -1.1352 -1.1713  0.1677
    1SOL    MW4 6092   1.361   0.080   2.770 -0.5548 -0.1199 -0.1166
    1SOL     OW 6093   1.356   0.335   2.633  0.4995 -0.2220  0.4140
    1SOL    HW2 6094   1.440   0.378   2.650  0.2845  0.5520 -0.4201
    1SOL    HW3 6095   1.292   0.386   2.683  0.4444 -0.4537  0.5810
    1SOL    MW4 6096   1.359   0.347   2.642  0.4637 -0.1505  0.3259
    1SOL     OW 6097   1.554   0.483   2.753 -0.2781 -0.5953  0.0538
    1SOL    HW2 6098   1.639   0.460   2.715 -0.6008 -2.5119  0.3967
    1SOL    HW3 6099   1.540   0.574   2.728  1.1979 -0.6977 -1.2579
    1SOL    MW4 6100   1.564   0.492   2.745 -0.1259 -0.8617 -0.0739
    1SOL     OW 6101   1.531   0.746   2.666  0.4133 -0.1503  0.0533
    1SOL    HW2 6102   1.469   0.817   2.680 -0.7583 -1.3020  0.8211
    1SOL    HW3 6103   1.543   0.742   2.571 -2.1044 -1.0860 -0.2646
    1SOL    MW4 6104   1.525   0.755   2.656 -0.0736 -0.4258  0.1128
    1SOL     OW 6105   1.312   0.908   2.712 -0.3689  0.1154  0.1622
    1SOL    HW2 6106   1.306   0.906   2.807  2.2020  0.1685  0.3644
    1SOL    HW3 6107   1.313   1.001   2.690 -0.1155  0.1082  0.1452
    1SOL    MW4 6108   1.311   0.920   2.722  0.0037  0.1214  0.1864
    1SOL     OW 6109   1.330   1.160   2.605  0.5730  0.6617 -0.0300
    1SOL    HW2 6110   1.403   1.214   2.635 -0.0487  2.1461 -1.0985
    1SOL    HW3 6111   1.253   1.198   2.648  0.3318 -0.3526  0.4263
    1SOL    MW4 6112   1.329   1.172   2.615  0.4591  0.7237 -0.1109
    1SOL     OW 6113   1.559   1.312   2.745 -0.1979 -0.3279  0.5043
    1SOL    HW2 6114   1.580   1.303   2.838 -1.7019 -0.3180  0.8590
    1SOL    HW3 6115   1.623   1.257   2.701 -0.4178 -1.5236  1.6546
    1SOL    MW4 6116   1.570   1.304   2.752 -0.4253 -0.4843  0.7026
    1SOL     OW 6117   1.563   1.569   2.655 -0.1658 -0.3778  0.0449
    1SOL    HW2 6118   1.573   1.475   2.671 -1.2323 -0.3232  1.1024
    1SOL    HW3 6119   1.547   1.575   2.561 -2.7263 -1.5257  0.3420
    1SOL    MW4 6120   1.562   1.557   2.645 -0.6443 -0.5221  0.2236
    1SOL     OW 6121   1.347   1.660   2.807  0.1549  0.0818  0.4723
    1SOL    HW2 6122   1.414   1.604   2.767 -1.0776 -2.2554  1.5763
    1SOL    HW3 6123   1.264   1.622   2.779 -0.7106  1.3935  1.2104
    1SOL    MW4 6124   1.345   1.648   2.798 -0.1218 -0.0535  0.7153
    1SOL     OW 6125   1.372   1.909   2.657 -0.2784 -0.4517 -0.0993
    1SOL    HW2 6126   1.358   1.824   2.699  0.3852 -0.3199  0.4110
    1SOL    HW3 6127   1.337   1.899   2.569 -2.3954 -0.5027  0.7193
    1SOL    MW4 6128   1.366   1.896   2.651 -0.4703 -0.4410  0.0761
    1SOL     OW 6129   1.590   2.038   2.742 -0.2055 -0.1014  0.2055
    1SOL    HW2 6130   1.656   1.998   2.685  0.0423  0.1086  0.3472
    1SOL    HW3 6131   1.507   1.996   2.715 -0.2860  0.9229 -1.1708
    1SOL    MW4 6132   1.587   2.027   2.731 -0.1833  0.0615  0.0427
    1SOL     OW 6133   1.556   2.302   2.619 -0.5775  0.6911 -0.6174
    1SOL    HW2 6134   1.622   2.356   2.663  0.2789 -0.1056 -0.9144
    1SOL    HW3 6135   1.570   2.214   2.654 -1.2216  0.4430 -0.9806
    1SOL    MW4 6136   1.567   2.297   2.629 -0.5494  0.5529 -0.7043
    1SOL     OW 6137   1.315   2.414   2.703  0.0636 -0.3734 -0.3387
    1SOL    HW2 6138   1.312   2.505   2.676  0.9867 -0.3148 -0.2582
    1SOL    HW3 6139   1.393   2.379   2.660  1.8613 -0.1532  2.6424
    1SOL    MW4 6140   1.325   2.421   2.694  0.4226 -0.3369  0.0651
    1SOL     OW 6141   1.311   2.677   2.628 -0.0577  0.0899  0.2462
    1SOL    HW2 6142   1.399   2.700   2.660  0.3412 -0.1815 -0.6316
    1SOL    HW3 6143   1.315   2.694   2.534  0.1341 -3.0900 -0.3974
    1SOL    MW4 6144   1.323   2.682   2.620  0.0203 -0.3655  0.0455
    1SOL     OW 6145   1.538   2.821   2.732 -0.1824  0.0361  0.2047
    1SOL    HW2 6146   1.534   2.834   2.827 -0.0430 -1.0904  0.3705
    1SOL    HW3 6147   1.619   2.772   2.718 -0.9575 -1.0893 -0.3459
    1SOL    MW4 6148   1.548   2.816   2.742 -0.2663 -0.2611  0.1538
    1SOL     OW 6149   1.568   3.066   2.623  0.0975  0.1586  0.7224
    1SOL    HW2 6150   1.648   3.094   2.667  0.6233 -1.0079  0.5169
    1SOL    HW3 6151   1.548   2.981   2.662 -0.3803 -0.0989 -0.0876
    1SOL    MW4 6152   1.576   3.059   2.634  0.1037 -0.0293  0.5884
    1SOL     OW 6153   1.370   3.208   2.754 -0.1364 -0.5228 -0.0962
    1SOL    HW2 6154   1.448   3.171   2.713  0.4833  0.8488 -0.1629
    1SOL    HW3 6155   1.297   3.166   2.709  0.5189  1.0511 -2.7004
    1SOL    MW4 6156   1.371   3.197   2.743  0.0319 -0.1340 -0.4487
    1SOL     OW 6157   1.292   3.460   2.618  0.9785  0.5349  0.4328
    1SOL    HW2 6158   1.325   3.391   2.675  0.2668  0.2661  0.5277
    1SOL    HW3 6159   1.223   3.502   2.670 -0.3398 -0.3302 -0.5775
    1SOL    MW4 6160   1.287   3.456   2.632  0.7107  0.3853  0.3123
    1SOL     OW 6161   1.559   3.567   2.727  0.4684  0.3553  0.4551
    1SOL    HW2 6162   1.630   3.512   2.693 -0.1974 -0.0451 -0.3203
    1SOL    HW3 6163   1.481   3.536   2.681  0.1244  2.1702 -0.2397
    1SOL    MW4 6164   1.558   3.556   2.716  0.3351  0.5419  0.2613
    1SOL     OW 6165   1.568   3.834   2.653  0.1981 -0.1598  0.4870
    1SOL    HW2 6166   1.486   3.873   2.684 -0.0935  0.0994 -0.5950
    1SOL    HW3 6167   1.560   3.741   2.675 -0.9563 -0.3743 -0.7928
    1SOL    MW4 6168   1.556   3.827   2.660  0.0074 -0.1538  0.1755
    1SOL     OW 6169   1.331   3.962   2.774 -0.3274 -0.5493 -0.2195
    1SOL    HW2 6170   1.321   3.980   2.867  0.8585 -0.1836 -0.1525
    1SOL    HW3 6171   1.337   4.048   2.733 -1.0527 -0.7057 -0.6593
    1SOL    MW4 6172   1.330   3.976   2.781 -0.2667 -0.5219 -0.2687
    1SOL     OW 6173   1.334   4.192   2.643 -0.3751 -0.1160  0.1394
    1SOL    HW2 6174   1.259   4.234   2.684  0.2250  0.7762  0.3432
    1SOL    HW3 6175   1.328   4.218   2.551 -0.4259 -0.2113  0.1157
    1SOL    MW4 6176   1.323   4.201   2.636 -0.3026 -0.0105  0.1633
    1SOL     OW 6177   1.587   4.365   2.737 -0.0033 -0.0051 -0.2942
    1SOL    HW2 6178   1.578   4.383   2.830  0.9051 -1.0988  0.0200
    1SOL    HW3 6179   1.521   4.298   2.719 -0.9930  1.0672 -0.7023
    1SOL    MW4 6180   1.577   4.358   2.747 -0.0139 -0.0076 -0.3066
    1SOL     OW 6181   2.011   4.664   2.682 -0.5834  0.1679  0.0797
    1SOL    HW2 6182   2.085   4.710   2.723 -1.2143  1.1519  0.1471
    1SOL    HW3 6183   2.026   4.675   2.588 -0.4550  0.0706  0.0890
    1SOL    MW4 6184   2.023   4.672   2.675 -0.6497  0.2847  0.0899
    1SOL     OW 6185   1.760   0.097   2.779  0.3139 -0.3550 -0.3868
    1SOL    HW2 6186   1.844   0.060   2.750  0.2958 -0.8065  0.1211
    1SOL    HW3 6187   1.694   0.041   2.738  0.2679 -0.2438 -0.4641
    1SOL    MW4 6188   1.762   0.084   2.770  0.3055 -0.3999 -0.3300
    1SOL     OW 6189   1.797   0.361   2.657  0.2073 -0.2686 -0.3592
    1SOL    HW2 6190   1.872   0.404   2.699 -1.3137  2.0792 -0.0027
    1SOL    HW3 6191   1.782   0.283   2.711  0.4254  0.9123  1.4627
    1SOL    MW4 6192   1.805   0.356   2.670  0.0353  0.1970 -0.0718
    1SOL     OW 6193   2.003   0.505   2.774 -0.3538 -0.0574 -0.6458
    1SOL    HW2 6194   2.092   0.485   2.745 -0.4853  0.5134 -1.4697
    1SOL    HW3 6195   2.012   0.529   2.866  0.3598  0.0587 -0.7448
    1SOL    MW4 6196   2.016   0.506   2.782 -0.2770  0.0333 -0.7675
    1SOL     OW 6197   2.045   0.741   2.609 -0.1335  0.1194 -0.2040
    1SOL    HW2 6198   2.046   0.659   2.658 -0.4811  0.0603 -0.2912
    1SOL    HW3 6199   1.961   0.781   2.631  0.5074  0.9780  0.6949
    1SOL    MW4 6200   2.034   0.736   2.618 -0.0949  0.2248 -0.0973
    1SOL     OW 6201   1.777   0.875   2.685  0.1850 -0.3165 -0.0086
    1SOL    HW2 6202   1.771   0.966   2.659  1.7846 -0.4939 -1.0409
    1SOL    HW3 6203   1.690   0.838   2.665  0.0726  0.5659 -1.1586
    1SOL    MW4 6204   1.764   0.882   2.679  0.3812 -0.2236 -0.2966
    1SOL     OW 6205   1.768   1.153   2.635  0.1279 -0.1330 -0.3746
    1SOL    HW2 6206   1.851   1.184   2.670  0.3478  0.9123 -1.7838
    1SOL    HW3 6207   1.778   1.159   2.540 -1.8815  0.8800 -0.5443
    1SOL    MW4 6208   1.780   1.158   2.627 -0.1082  0.1385 -0.5829
    1SOL     OW 6209   2.017   1.245   2.698  0.1558  0.4732 -0.0085
    1SOL    HW2 6210   2.023   1.243   2.794  1.9147 -0.2847 -0.1211
    1SOL    HW3 6211   2.103   1.217   2.668 -0.3417  0.8427 -1.8276
    1SOL    MW4 6212   2.029   1.241   2.707  0.3223  0.4220 -0.2637
    1SOL     OW 6213   2.050   1.524   2.639 -0.4973  0.0008 -0.4468
    1SOL    HW2 6214   1.974   1.577   2.666  0.7466  1.4555  0.2536
    1SOL    HW3 6215   2.030   1.436   2.671 -1.5129  0.5451  0.4605
    1SOL    MW4 6216   2.037   1.520   2.647 -0.4671  0.2646 -0.2346
    1SOL     OW 6217   1.818   1.667   2.731 -0.2353  1.0255 -0.5893
    1SOL    HW2 6218   1.832   1.690   2.823  1.0403 -0.8330 -0.2750
    1SOL    HW3 6219   1.727   1.637   2.726  0.4353 -1.3961  0.6741
    1SOL    MW4 6220   1.808   1.666   2.742  0.0213  0.4609 -0.3815
    1SOL     OW 6221   1.802   1.910   2.613 -0.1862 -0.5859  0.0191
    1SOL    HW2 6222   1.863   1.964   2.663 -1.0805  0.6317 -0.1887
    1SOL    HW3 6223   1.802   1.826   2.659  0.1788  0.0251  1.1610
    1SOL    MW4 6224   1.810   1.906   2.626 -0.2561 -0.3446  0.1423
    1SOL     OW 6225   1.980   2.032   2.779  0.1002  0.0826  0.5096
    1SOL    HW2 6226   1.983   2.024   2.874  2.0911  1.2411  0.5576
    1SOL    HW3 6227   1.994   2.125   2.762  0.3123 -0.2009 -0.9364
    1SOL    MW4 6228   1.982   2.043   2.789  0.3908  0.1981  0.3252
    1SOL     OW 6229   1.973   2.288   2.661  0.3106 -0.1930  0.6874
    1SOL    HW2 6230   2.053   2.333   2.685  0.3722  0.5050 -0.7805
    1SOL    HW3 6231   1.976   2.282   2.566 -1.9609  0.9511  0.5046
    1SOL    MW4 6232   1.984   2.293   2.652  0.0191  0.0501  0.4694
    1SOL     OW 6233   1.751   2.426   2.745 -0.4396 -0.2428 -0.1177
    1SOL    HW2 6234   1.763   2.430   2.840 -2.1645  0.9655  0.0670
    1SOL    HW3 6235   1.827   2.377   2.714  1.4258  1.4195  1.6249
    1SOL    MW4 6236   1.763   2.420   2.754 -0.4210  0.1361  0.1364
    1SOL     OW 6237   1.773   2.692   2.649 -0.5617  0.5143  0.3467
    1SOL    HW2 6238   1.742   2.605   2.675 -1.7485  0.8818  0.2035
    1SOL    HW3 6239   1.790   2.686   2.555  2.1454 -0.3555  0.8506
    1SOL    MW4 6240   1.771   2.680   2.640 -0.3612  0.4478  0.3943
    1SOL     OW 6241   2.001   2.786   2.770 -0.1124  0.4794  0.0815
    1SOL    HW2 6242   2.078   2.753   2.723  1.0774  0.8483  1.7630
    1SOL    HW3 6243   1.926   2.752   2.719  1.1346  0.1578 -1.5868
    1SOL    MW4 6244   2.001   2.777   2.757  0.2089  0.4857  0.0832
    1SOL     OW 6245   2.029   3.032   2.636  0.4525 -0.0893  0.4434
    1SOL    HW2 6246   2.011   2.945   2.672 -1.4187  0.5059  1.0329
    1SOL    HW3 6247   2.005   3.025   2.543  1.0689 -0.4287  0.3119
    1SOL    MW4 6248   2.023   3.020   2.628  0.2868 -0.0558  0.5040
    1SOL     OW 6249   1.807   3.155   2.736  0.3148  0.3663  0.3421
    1SOL    HW2 6250   1.798   3.244   2.702  1.2636  0.7359  1.0408
    1SOL    HW3 6251   1.897   3.129   2.714 -0.3072 -0.8548 -0.8609
    1SOL    MW4 6252   1.818   3.163   2.728  0.3579  0.2539  0.2756
    1SOL     OW 6253   1.763   3.421   2.624  0.1091 -0.8312  0.1107
    1SOL    HW2 6254   1.836   3.474   2.657 -1.5482  0.7175  1.3813
    1SOL    HW3 6255   1.779   3.414   2.530  2.4128 -1.3543  0.5236
    1SOL    MW4 6256   1.775   3.427   2.616  0.1944 -0.6957  0.3328
    1SOL     OW 6257   1.975   3.584   2.722 -0.0642  0.0175  0.0269
    1SOL    HW2 6258   1.990   3.590   2.816  0.8870 -1.8980  0.0094
    1SOL    HW3 6259   2.052   3.539   2.688 -1.2240 -0.9000 -1.4298
    1SOL    MW4 6260   1.987   3.579   2.730 -0.0918 -0.3564 -0.1676
    1SOL     OW 6261   2.000   3.852   2.628  0.2794  0.1825 -0.2391
    1SOL    HW2 6262   1.924   3.900   2.661 -0.0314  0.8156 -1.8367
    1SOL    HW3 6263   1.991   3.765   2.666 -1.0047  0.3825 -0.0403
    1SOL    MW4 6264   1.989   3.847   2.637  0.0689  0.2923 -0.4237
    1SOL     OW 6265   1.789   3.976   2.743 -0.2853 -0.1799  0.5061
    1SOL    HW2 6266   1.782   4.069   2.721 -1.0864 -0.0845  1.1424
    1SOL    HW3 6267   1.704   3.940   2.722 -0.0840 -0.7060  0.5835
    1SOL    MW4 6268   1.777   3.983   2.738 -0.3644 -0.2367  0.6001
    1SOL     OW 6269   1.809   4.232   2.637  0.1000  0.3628  0.2539
    1SOL    HW2 6270   1.730   4.282   2.659 -1.6616 -2.0381 -0.3910
    1SOL    HW3 6271   1.811   4.233   2.541  1.4749  1.3212  0.2848
    1SOL    MW4 6272   1.799   4.239   2.627  0.0490  0.1721  0.1731
    1SOL     OW 6273   2.020   4.399   2.755  0.1336 -0.0587  0.3089
    1SOL    HW2 6274   1.948   4.358   2.707  1.2976 -1.0172 -0.6311
    1SOL    HW3 6275   2.014   4.492   2.731  0.0907 -0.3694 -0.9008
    1SOL    MW4 6276   2.009   4.406   2.746  0.2816 -0.2265  0.0253
    1SOL     OW 6277   2.436   4.659   2.660  0.4283  0.1270 -0.1180
    1SOL    HW2 6278   2.519   4.699   2.688 -0.6841  2.4418  0.0249
    1SOL    HW3 6279   2.433   4.676   2.566 -0.5570  1.3935  0.1284
    1SOL    MW4 6280   2.447   4.667   2.651  0.1516  0.5989 -0.0668
    1SOL     OW 6281   2.237   0.150   2.765 -0.1349  0.0438  0.1384
    1SOL    HW2 6282   2.302   0.088   2.732 -1.3830 -1.5697  0.6631
    1SOL    HW3 6283   2.238   0.138   2.860 -0.5827  0.6292  0.2194
    1SOL    MW4 6284   2.246   0.140   2.773 -0.3586 -0.0919  0.2184
    1SOL     OW 6285   2.235   0.415   2.686 -0.4250  0.0398  0.1036
    1SOL    HW2 6286   2.224   0.419   2.591 -0.4775  0.5083  0.1269
    1SOL    HW3 6287   2.225   0.322   2.707  1.3035 -0.3209 -0.5468
    1SOL    MW4 6288   2.232   0.403   2.676 -0.2038  0.0540  0.0207
    1SOL     OW 6289   2.468   0.509   2.770  0.1313  0.3154  0.3005
    1SOL    HW2 6290   2.464   0.595   2.729  1.2884  0.6899  0.9652
    1SOL    HW3 6291   2.397   0.460   2.729  0.6333  1.0009 -1.4283
    1SOL    MW4 6292   2.458   0.513   2.759  0.3502  0.4553  0.1602
    1SOL     OW 6293   2.465   0.765   2.639 -0.2189 -0.0505 -0.0066
    1SOL    HW2 6294   2.388   0.819   2.657 -0.5756 -0.9041  1.1156
    1SOL    HW3 6295   2.465   0.755   2.544 -2.3882 -1.2737  0.0655
    1SOL    MW4 6296   2.455   0.771   2.629 -0.5524 -0.3244  0.1509
    1SOL     OW 6297   2.247   0.908   2.689  0.2334 -0.1632  0.0766
    1SOL    HW2 6298   2.241   0.906   2.785 -0.8628  0.0515  0.0204
    1SOL    HW3 6299   2.182   0.843   2.660 -0.1767  0.5160 -0.5419
    1SOL    MW4 6300   2.238   0.899   2.698  0.0348 -0.0453 -0.0124
    1SOL     OW 6301   2.253   1.156   2.592  0.2587  0.2010 -0.1700
    1SOL    HW2 6302   2.267   1.075   2.641  0.4144  0.5385  0.3474
    1SOL    HW3 6303   2.329   1.211   2.613  0.0327  0.5765 -0.3221
    1SOL    MW4 6304   2.265   1.153   2.601  0.2491  0.2949 -0.1216
    1SOL     OW 6305   2.473   1.287   2.726 -0.3352  0.1479 -0.1833
    1SOL    HW2 6306   2.475   1.381   2.705  0.5436  0.1848  0.0652
    1SOL    HW3 6307   2.556   1.253   2.692  0.2158 -0.1678  1.4386
    1SOL    MW4 6308   2.484   1.295   2.719 -0.1466  0.1112  0.0632
    1SOL     OW 6309   2.491   1.534   2.622 -0.0562  0.0279 -0.2524
    1SOL    HW2 6310   2.425   1.584   2.672 -0.3963 -0.2028 -0.4654
    1SOL    HW3 6311   2.574   1.575   2.644 -0.2199  0.0173  0.4003
    1SOL    MW4 6312   2.493   1.546   2.631 -0.1228 -0.0039 -0.1943
    1SOL     OW 6313   2.276   1.659   2.727 -0.2135  0.1535 -0.4348
    1SOL    HW2 6314   2.256   1.752   2.723  0.7657  0.3277 -1.6541
    1SOL    HW3 6315   2.196   1.615   2.696 -0.4545  0.6150 -0.4619
    1SOL    MW4 6316   2.263   1.665   2.722 -0.1161  0.2373 -0.5994
    1SOL     OW 6317   2.233   1.949   2.689  0.0681 -0.0511 -0.4261
    1SOL    HW2 6318   2.150   1.983   2.722 -0.1361  0.0455 -1.0382
    1SOL    HW3 6319   2.222   1.947   2.594  0.5049 -0.7242 -0.4601
    1SOL    MW4 6320   2.221   1.954   2.681  0.0989 -0.1272 -0.5114
    1SOL     OW 6321   2.502   2.029   2.736  0.1490 -0.5811 -0.0612
    1SOL    HW2 6322   2.484   2.121   2.714  0.7334 -0.2913  0.6467
    1SOL    HW3 6323   2.421   1.983   2.715  0.3456 -0.1605 -1.8586
    1SOL    MW4 6324   2.489   2.035   2.730  0.2520 -0.4873 -0.2050
    1SOL     OW 6325   2.478   2.315   2.677  0.0444 -0.0435 -0.3621
    1SOL    HW2 6326   2.550   2.353   2.729  0.5200  0.6759 -1.5325
    1SOL    HW3 6327   2.505   2.328   2.586 -1.8124  0.6880 -0.8171
    1SOL    MW4 6328   2.491   2.322   2.672 -0.1378  0.1478 -0.5765
    1SOL     OW 6329   2.210   2.425   2.737  0.3749  0.3170 -0.1228
    1SOL    HW2 6330   2.214   2.412   2.832  0.8165  1.4332  0.0175
    1SOL    HW3 6331   2.301   2.420   2.709  0.3243  0.8429 -0.3734
    1SOL    MW4 6332   2.222   2.422   2.746  0.4263  0.5338 -0.1373
    1SOL     OW 6333   2.241   2.680   2.653 -0.3649 -0.3598  0.1132
    1SOL    HW2 6334   2.313   2.714   2.707 -0.0715 -1.9291  0.7240
    1SOL    HW3 6335   2.226   2.592   2.686 -2.3477 -0.1773 -0.2491
    1SOL    MW4 6336   2.248   2.673   2.665 -0.5879 -0.5429  0.1459
    1SOL     OW 6337   2.456   2.806   2.775  0.3818 -0.3836 -0.6539
    1SOL    HW2 6338   2.531   2.765   2.734 -0.1491 -0.6509 -1.3640
    1SOL    HW3 6339   2.447   2.891   2.732  0.6503 -0.0934 -0.1407
    1SOL    MW4 6340   2.464   2.812   2.764  0.3471 -0.3803 -0.6800
    1SOL     OW 6341   2.445   3.059   2.648 -0.4765 -0.6672  0.0836
    1SOL    HW2 6342   2.373   3.111   2.681 -0.7565 -0.9992 -0.0030
    1SOL    HW3 6343   2.437   3.061   2.553  1.9038  2.5215 -0.1133
    1SOL    MW4 6344   2.435   3.066   2.640 -0.1993 -0.2902  0.0460
    1SOL     OW 6345   2.209   3.222   2.726  0.5054  0.2591 -0.0348
    1SOL    HW2 6346   2.226   3.194   2.816  1.1116  0.2018 -0.1685
    1SOL    HW3 6347   2.149   3.157   2.691 -1.4158  1.4063  1.0028
    1SOL    MW4 6348   2.203   3.210   2.733  0.3321  0.4029  0.0844
    1SOL     OW 6349   2.206   3.488   2.611 -0.5965 -0.2276  0.3248
    1SOL    HW2 6350   2.266   3.550   2.653 -0.0545  1.1329 -2.2873
    1SOL    HW3 6351   2.235   3.402   2.641 -0.2511  0.6646  2.6685
    1SOL    MW4 6352   2.218   3.485   2.620 -0.4792  0.0699  0.2892
    1SOL     OW 6353   2.416   3.648   2.731  0.1710  0.2085  0.0143
    1SOL    HW2 6354   2.456   3.641   2.818 -0.4926 -0.6527  0.2609
    1SOL    HW3 6355   2.439   3.736   2.701 -0.1031  0.7451  1.3205
    1SOL    MW4 6356   2.424   3.659   2.739  0.0474  0.1655  0.2193
    1SOL     OW 6357   2.481   3.887   2.607 -0.3102  0.4257  0.1803
    1SOL    HW2 6358   2.541   3.933   2.666 -0.8170  0.1823  0.8904
    1SOL    HW3 6359   2.394   3.914   2.635 -0.5947 -0.5370  0.2517
    1SOL    MW4 6360   2.478   3.896   2.618 -0.4148  0.2668  0.2832
    1SOL     OW 6361   2.224   3.985   2.733 -0.4300  0.3456 -0.6740
    1SOL    HW2 6362   2.218   4.003   2.827 -0.2577 -0.3197 -0.5349
    1SOL    HW3 6363   2.145   3.934   2.714 -0.4988  0.5375 -0.9064
    1SOL    MW4 6364   2.213   3.981   2.743 -0.4163  0.2832 -0.6864
    1SOL     OW 6365   2.255   4.275   2.673  0.0114  0.4027  0.0698
    1SOL    HW2 6366   2.237   4.182   2.689  0.1382  0.5387  1.0523
    1SOL    HW3 6367   2.179   4.321   2.707 -0.2394  0.6300 -0.8090
    1SOL    MW4 6368   2.243   4.269   2.680 -0.0048  0.4501  0.0834
    1SOL     OW 6369   2.494   4.406   2.770  0.3514 -0.9287 -0.1864
    1SOL    HW2 6370   2.407   4.366   2.757  0.1147 -0.0754 -1.3260
    1SOL    HW3 6371   2.484   4.495   2.738  2.0916 -1.3050 -1.8585
    1SOL    MW4 6372   2.481   4.412   2.764  0.5498 -0.8659 -0.5569
    1SOL     OW 6373   2.936   4.666   2.641 -0.1445  0.1449  0.6248
    1SOL    HW2 6374   3.020   4.699   2.673 -1.0646  2.1720  1.0202
    1SOL    HW3 6375   2.943   4.674   2.546  1.6665 -3.6361  0.3299
    1SOL    MW4 6376   2.948   4.672   2.632 -0.0269 -0.0865  0.6378
    1SOL     OW 6377   2.691   0.091   2.726  0.2988  0.1685  0.6465
    1SOL    HW2 6378   2.696   0.113   2.819  1.1938  1.1494  0.3810
    1SOL    HW3 6379   2.779   0.059   2.704 -0.4154 -1.8164  0.5509
    1SOL    MW4 6380   2.704   0.090   2.735  0.3228  0.0360  0.5987
    1SOL     OW 6381   2.685   0.373   2.647 -0.4100  0.2875 -0.4423
    1SOL    HW2 6382   2.694   0.286   2.686  0.6038  0.3072 -0.6119
    1SOL    HW3 6383   2.625   0.420   2.705  0.0603 -0.1049  0.3652
    1SOL    MW4 6384   2.678   0.368   2.660 -0.2141  0.2383 -0.3581
    1SOL     OW 6385   2.931   0.508   2.735  0.0006 -0.5059  0.6316
    1SOL    HW2 6386   2.911   0.598   2.708  0.7124 -0.0619  1.5327
    1SOL    HW3 6387   2.859   0.456   2.699 -0.9184  0.5571  0.8818
    1SOL    MW4 6388   2.919   0.513   2.727 -0.0267 -0.3070  0.7834
    1SOL     OW 6389   2.908   0.785   2.651  0.0566 -0.2662  0.2977
    1SOL    HW2 6390   2.984   0.817   2.699 -0.3253 -1.3517  1.6572
    1SOL    HW3 6391   2.838   0.847   2.675 -0.3766 -1.3588  1.9545
    1SOL    MW4 6392   2.908   0.798   2.661 -0.0508 -0.5536  0.6959
    1SOL     OW 6393   2.682   0.934   2.741  0.2787  0.1106 -0.4896
    1SOL    HW2 6394   2.700   0.937   2.835  0.5255  0.4604 -0.5487
    1SOL    HW3 6395   2.603   0.880   2.733  0.7919 -0.6935 -0.1582
    1SOL    MW4 6396   2.674   0.927   2.752  0.3786  0.0508 -0.4539
    1SOL     OW 6397   2.712   1.174   2.581  0.3906 -0.1906  0.3326
    1SOL    HW2 6398   2.788   1.208   2.630  1.0980 -0.4898 -0.5475
    1SOL    HW3 6399   2.698   1.086   2.616  0.9500 -0.4366 -0.0578
    1SOL    MW4 6400   2.720   1.167   2.592  0.5577 -0.2626  0.1650
    1SOL     OW 6401   2.919   1.311   2.691  0.1617  0.2655  0.0954
    1SOL    HW2 6402   2.937   1.326   2.784 -0.0598  1.0612  0.0130
    1SOL    HW3 6403   2.997   1.266   2.659  1.6095  2.7586 -0.0145
    1SOL    MW4 6404   2.932   1.307   2.699  0.3233  0.6995  0.0701
    1SOL     OW 6405   2.944   1.561   2.603 -0.2750  0.1656  0.0687
    1SOL    HW2 6406   2.868   1.615   2.626  0.3655  0.9160  0.4255
    1SOL    HW3 6407   2.918   1.472   2.626 -1.0007  0.4367  0.3045
    1SOL    MW4 6408   2.930   1.556   2.609 -0.2861  0.3004  0.1466
    1SOL     OW 6409   2.706   1.679   2.680 -0.2755 -0.3764 -0.2137
    1SOL    HW2 6410   2.716   1.692   2.774  0.2180  0.1700 -0.3373
    1SOL    HW3 6411   2.706   1.767   2.644  0.1634 -0.6066 -0.7845
    1SOL    MW4 6412   2.708   1.692   2.688 -0.1523 -0.3349 -0.3052
    1SOL     OW 6413   2.718   1.950   2.589 -0.0413  0.0072  0.1526
    1SOL    HW2 6414   2.793   1.976   2.643 -0.6116  0.3996  0.7563
    1SOL    HW3 6415   2.642   1.984   2.635 -0.7966 -2.4456  0.7957
    1SOL    MW4 6416   2.718   1.958   2.602 -0.2162 -0.2646  0.3171
    1SOL     OW 6417   2.953   2.087   2.716  0.2554  0.2531 -0.2876
    1SOL    HW2 6418   3.021   2.037   2.671 -0.6931 -0.8129 -0.5662
    1SOL    HW3 6419   2.964   2.177   2.685  0.9799 -0.0684 -0.9773
    1SOL    MW4 6420   2.964   2.092   2.706  0.2258  0.0701 -0.4153
    1SOL     OW 6421   2.923   2.339   2.591 -0.1333  0.1121  0.4872
    1SOL    HW2 6422   3.000   2.362   2.642  0.6671 -0.8923 -0.2408
    1SOL    HW3 6423   2.849   2.368   2.645  0.7626  3.0452  0.2402
    1SOL    MW4 6424   2.923   2.346   2.605  0.0901  0.3664  0.3588
    1SOL     OW 6425   2.707   2.425   2.755 -0.0171  0.2165 -0.0848
    1SOL    HW2 6426   2.722   2.427   2.849 -1.4746 -0.3276  0.1807
    1SOL    HW3 6427   2.698   2.518   2.731  0.7985  0.3788  0.2267
    1SOL    MW4 6428   2.707   2.438   2.764 -0.1018  0.1662 -0.0086
    1SOL     OW 6429   2.674   2.686   2.644 -0.2055 -0.3145 -0.3783
    1SOL    HW2 6430   2.746   2.741   2.675  0.4908 -1.1433 -0.5313
    1SOL    HW3 6431   2.683   2.687   2.548 -0.4595 -0.3401 -0.4030
    1SOL    MW4 6432   2.684   2.694   2.635 -0.1471 -0.4277 -0.4015
    1SOL     OW 6433   2.911   2.845   2.707  0.0401  0.4398 -0.3646
    1SOL    HW2 6434   2.978   2.782   2.683  0.1801  0.7232 -0.7136
    1SOL    HW3 6435   2.922   2.857   2.802 -0.3895 -0.5251 -0.1793
    1SOL    MW4 6436   2.921   2.838   2.717  0.0017  0.3498 -0.3862
    1SOL     OW 6437   2.919   3.105   2.610  0.1245 -0.4444  0.6001
    1SOL    HW2 6438   2.843   3.143   2.655  0.0843  0.1478  0.0429
    1SOL    HW3 6439   2.918   3.013   2.635 -1.6643 -0.7759 -0.6135
    1SOL    MW4 6440   2.909   3.098   2.619 -0.1168 -0.4103  0.3662
    1SOL     OW 6441   2.684   3.201   2.734 -0.0296  0.0488 -0.5360
    1SOL    HW2 6442   2.673   3.293   2.709  0.3412  0.4013  0.5736
    1SOL    HW3 6443   2.607   3.157   2.698 -0.6319  0.9436 -0.3577
    1SOL    MW4 6444   2.673   3.207   2.726 -0.0598  0.2131 -0.3660
    1SOL     OW 6445   2.633   3.476   2.662  0.4393  0.6138  0.1845
    1SOL    HW2 6446   2.558   3.533   2.677 -0.3133 -0.3727  0.1645
    1SOL    HW3 6447   2.645   3.475   2.567 -0.5180 -0.5121  0.0755
    1SOL    MW4 6448   2.625   3.483   2.652  0.2136  0.3350  0.1676
    1SOL     OW 6449   2.882   3.603   2.736 -0.1948  0.4885 -0.0284
    1SOL    HW2 6450   2.901   3.587   2.829  1.6937 -0.2629 -0.5279
    1SOL    HW3 6451   2.800   3.556   2.720 -0.9172  1.1989  1.4060
    1SOL    MW4 6452   2.873   3.595   2.746 -0.0410  0.4830  0.0951
    1SOL     OW 6453   2.894   3.889   2.702  0.1497  0.1054 -0.5533
    1SOL    HW2 6454   2.979   3.918   2.736  0.0589  0.3007 -0.4974
    1SOL    HW3 6455   2.892   3.795   2.722 -0.4769  0.4724  1.1963
    1SOL    MW4 6456   2.905   3.880   2.709  0.0548  0.1793 -0.3152
    1SOL     OW 6457   2.664   4.007   2.782  0.1453 -0.0391  0.3918
    1SOL    HW2 6458   2.666   4.087   2.730  1.7795 -0.3520 -0.0688
    1SOL    HW3 6459   2.748   3.965   2.764 -0.2221 -1.2957  1.5116
    1SOL    MW4 6460   2.675   4.012   2.773  0.3126 -0.2465  0.4785
    1SOL     OW 6461   2.663   4.247   2.625 -0.3623 -0.1706  0.4306
    1SOL    HW2 6462   2.748   4.287   2.644 -0.5463 -1.1460  3.5624
    1SOL    HW3 6463   2.600   4.305   2.667 -0.9627 -1.3525  1.1728
    1SOL    MW4 6464   2.666   4.260   2.633 -0.4656 -0.4554  0.9418
    1SOL     OW 6465   2.875   4.395   2.717  0.2137 -0.2101 -0.3437
    1SOL    HW2 6466   2.889   4.403   2.812 -1.6232  0.1986 -0.0874
    1SOL    HW3 6467   2.893   4.482   2.683 -1.8684  0.3866  0.0204
    1SOL    MW4 6468   2.879   4.408   2.725 -0.3035 -0.0772 -0.2620
    1SOL     OW 6469   3.391   4.620   2.616  0.1032 -0.0545  0.0698
    1SOL    HW2 6470   3.374   4.535   2.655 -0.2288 -0.3526 -0.7067
    1SOL    HW3 6471   3.331   4.680   2.661  0.4935 -0.1877  0.7670
    1SOL    MW4 6472   3.381   4.617   2.627  0.1109 -0.1116  0.0594
    1SOL     OW 6473   3.170   0.128   2.738 -0.6911  0.5618  0.0407
    1SOL    HW2 6474   3.166   0.129   2.834 -1.7874  0.7122 -0.0045
    1SOL    HW3 6475   3.160   0.219   2.712 -0.2595  0.5388 -0.2191
    1SOL    MW4 6476   3.168   0.140   2.747 -0.7789  0.5786  0.0005
    1SOL     OW 6477   3.175   0.404   2.629  0.0399 -0.1300 -0.2154
    1SOL    HW2 6478   3.097   0.452   2.657  0.0062 -0.2758 -0.0594
    1SOL    HW3 6479   3.164   0.393   2.534  0.1916  0.4305 -0.3028
    1SOL    MW4 6480   3.163   0.409   2.620  0.0556 -0.0753 -0.2062
    1SOL     OW 6481   3.388   0.511   2.756 -0.1015  0.3974  0.3249
    1SOL    HW2 6482   3.380   0.606   2.754 -0.6201  0.3780  1.1047
    1SOL    HW3 6483   3.310   0.479   2.712 -0.5120  0.3141  1.1164
    1SOL    MW4 6484   3.377   0.519   2.750 -0.2241  0.3839  0.5322
    1SOL     OW 6485   3.373   0.775   2.675 -0.5412  0.1361 -0.0990
    1SOL    HW2 6486   3.451   0.825   2.699 -0.8695  0.0418  1.2035
    1SOL    HW3 6487   3.381   0.762   2.580  0.6576  0.7437 -0.0915
    1SOL    MW4 6488   3.384   0.780   2.666 -0.4258  0.2038  0.0737
    1SOL     OW 6489   3.144   0.906   2.734 -0.1735  0.5491 -0.5759
    1SOL    HW2 6490   3.136   0.920   2.828 -0.8950  1.1589 -0.7222
    1SOL    HW3 6491   3.221   0.850   2.724 -0.2892  0.2136  0.3980
    1SOL    MW4 6492   3.153   0.901   2.745 -0.2837  0.5854 -0.4668
    1SOL     OW 6493   3.143   1.170   2.628  0.2771 -0.3967  0.2161
    1SOL    HW2 6494   3.150   1.082   2.663  0.2099 -0.9181 -1.0638
    1SOL    HW3 6495   3.157   1.160   2.534  0.0786  0.9286  0.0319
    1SOL    MW4 6496   3.146   1.157   2.620  0.2418 -0.2906  0.0231
    1SOL     OW 6497   3.404   1.244   2.728  0.2240 -0.2169 -0.2788
    1SOL    HW2 6498   3.398   1.237   2.823 -0.3122 -0.9517 -0.3685
    1SOL    HW3 6499   3.314   1.233   2.697  0.4143 -0.0975 -0.8791
    1SOL    MW4 6500   3.391   1.242   2.736  0.1783 -0.2980 -0.3698
    1SOL     OW 6501   3.412   1.527   2.609  0.5219  0.7502 -0.1247
    1SOL    HW2 6502   3.333   1.562   2.650 -0.3420  0.2215 -1.2928
    1SOL    HW3 6503   3.432   1.448   2.660 -0.5402  0.0979 -0.6934
    1SOL    MW4 6504   3.404   1.521   2.621  0.2677  0.5944 -0.3541
    1SOL     OW 6505   3.186   1.666   2.706 -0.1627  0.4616  0.7103
    1SOL    HW2 6506   3.110   1.619   2.673  1.0117 -1.6070  0.8347
    1SOL    HW3 6507   3.180   1.658   2.801  0.0574  0.5380  0.7316
    1SOL    MW4 6508   3.175   1.659   2.714  0.0215  0.1985  0.7298
    1SOL     OW 6509   3.135   1.914   2.597 -0.2988  0.4057  0.2036
    1SOL    HW2 6510   3.208   1.961   2.638  1.6069 -2.0171 -0.2749
    1SOL    HW3 6511   3.134   1.829   2.641  0.0855 -1.2554 -2.8420
    1SOL    MW4 6512   3.145   1.909   2.608  0.0031 -0.1333 -0.2615
    1SOL     OW 6513   3.324   2.068   2.725  0.4664 -0.2569  0.7337
    1SOL    HW2 6514   3.331   2.061   2.820 -0.0999 -1.6985  0.6850
    1SOL    HW3 6515   3.364   2.153   2.704 -0.7931  0.7831  2.3958
    1SOL    MW4 6516   3.330   2.079   2.734  0.2255 -0.3097  0.9468
    1SOL     OW 6517   3.409   2.338   2.663 -0.1993 -0.2131  0.2402
    1SOL    HW2 6518   3.487   2.385   2.691 -0.2858 -0.4207  0.8353
    1SOL    HW3 6519   3.410   2.344   2.568  0.8240 -0.6753  0.2170
    1SOL    MW4 6520   3.419   2.345   2.654 -0.0758 -0.3016  0.3157
    1SOL     OW 6521   3.152   2.405   2.741 -0.2372 -0.2190 -0.2706
    1SOL    HW2 6522   3.243   2.399   2.713  0.0913  0.9357  0.5019
    1SOL    HW3 6523   3.154   2.390   2.835 -0.7222  0.7544 -0.0987
    1SOL    MW4 6524   3.164   2.402   2.749 -0.2577  0.0620 -0.1462
    1SOL     OW 6525   3.111   2.660   2.657  0.2113  0.3463 -0.2248
    1SOL    HW2 6526   3.195   2.694   2.687  1.2882 -1.3465 -1.1700
    1SOL    HW3 6527   3.106   2.572   2.694 -1.1573  0.4380 -0.1619
    1SOL    MW4 6528   3.122   2.653   2.666  0.1731  0.1349 -0.3412
    1SOL     OW 6529   3.345   2.793   2.725 -0.1329 -0.0724  0.4362
    1SOL    HW2 6530   3.362   2.797   2.820  0.6600  0.1420  0.2864
    1SOL    HW3 6531   3.431   2.781   2.686 -0.2883  1.2538 -0.3435
    1SOL    MW4 6532   3.358   2.792   2.733 -0.0486  0.1307  0.3138
    1SOL     OW 6533   3.310   3.071   2.612  0.3353  0.3442 -0.5074
    1SOL    HW2 6534   3.320   2.983   2.648 -0.0837  0.1724 -0.8185
    1SOL    HW3 6535   3.333   3.063   2.520  0.4145  0.5883 -0.5107
    1SOL    MW4 6536   3.314   3.058   2.605  0.2904  0.3538 -0.5488
    1SOL     OW 6537   3.134   3.212   2.759  0.0953  0.1717  0.1399
    1SOL    HW2 6538   3.209   3.188   2.706 -0.3298  2.0709 -1.3819
    1SOL    HW3 6539   3.059   3.170   2.717  0.2106 -1.3707  1.4119
    1SOL    MW4 6540   3.134   3.203   2.747  0.0544  0.2191  0.1068
    1SOL     OW 6541   3.110   3.471   2.630  0.1598  0.2470  0.1620
    1SOL    HW2 6542   3.113   3.387   2.677 -0.0842  0.1337 -0.0207
    1SOL    HW3 6543   3.033   3.516   2.666  0.1092  0.2593  0.0383
    1SOL    MW4 6544   3.100   3.465   2.641  0.1209  0.2337  0.1216
    1SOL     OW 6545   3.337   3.606   2.729 -0.0027 -0.4047 -0.3249
    1SOL    HW2 6546   3.339   3.601   2.825 -1.2958  2.1322 -0.1254
    1SOL    HW3 6547   3.254   3.567   2.704  0.7424 -1.9223 -0.5166
    1SOL    MW4 6548   3.327   3.600   2.738 -0.0753 -0.2699 -0.3238
    1SOL     OW 6549   3.372   3.881   2.666  0.0890 -0.4244  0.6409
    1SOL    HW2 6550   3.358   3.791   2.695 -0.5592  0.0571  1.8521
    1SOL    HW3 6551   3.367   3.876   2.570 -2.9955 -1.2199  0.7700
    1SOL    MW4 6552   3.369   3.869   2.657 -0.4036 -0.4659  0.8178
    1SOL     OW 6553   3.132   4.013   2.755  0.0360  0.3856  0.0212
    1SOL    HW2 6554   3.126   4.095   2.706  0.2607 -0.2156 -1.0475
    1SOL    HW3 6555   3.222   3.983   2.739  0.0997  0.1648  0.7888
    1SOL    MW4 6556   3.143   4.020   2.746  0.0739  0.2775 -0.0186
    1SOL     OW 6557   3.104   4.266   2.644 -0.1357  0.4719  0.1999
    1SOL    HW2 6558   3.014   4.290   2.666 -0.3224  0.1978 -0.2755
    1SOL    HW3 6559   3.104   4.252   2.550  0.7081  1.7706 -0.0114
    1SOL    MW4 6560   3.092   4.268   2.635 -0.0491  0.6070  0.1094
    1SOL     OW 6561   3.368   4.378   2.734  0.0202  0.0737  0.6458
    1SOL    HW2 6562   3.337   4.375   2.825 -0.0811 -0.5186  0.5940
    1SOL    HW3 6563   3.294   4.344   2.683  0.1850  0.1309  0.3692
    1SOL    MW4 6564   3.354   4.373   2.739  0.0288  0.0033  0.6025
    1SOL     OW 6565   3.832   0.032   2.637  0.5455  0.2418  0.1858
    1SOL    HW2 6566   3.827  -0.053   2.682 -1.0362  0.6666  0.8701
    1SOL    HW3 6567   3.759   0.082   2.675  0.6957  1.4589 -1.1297
    1SOL    MW4 6568   3.822   0.027   2.648  0.3567  0.4582  0.1023
    1SOL     OW 6569   3.590   0.111   2.744 -0.2260  0.1092 -0.1923
    1SOL    HW2 6570   3.587   0.192   2.693  0.4061  0.1711 -0.1262
    1SOL    HW3 6571   3.525   0.054   2.702 -0.7178  0.6664 -0.2013
    1SOL    MW4 6572   3.581   0.114   2.732 -0.2077  0.1909 -0.1848
    1SOL     OW 6573   3.590   0.371   2.630  0.3194 -0.1509  0.1080
    1SOL    HW2 6574   3.662   0.423   2.667  0.0278  0.1303  0.2810
    1SOL    HW3 6575   3.511   0.410   2.667 -0.0857  1.1933 -2.1069
    1SOL    MW4 6576   3.589   0.383   2.640  0.2277  0.0635 -0.1614
    1SOL     OW 6577   3.812   0.487   2.758  0.1831 -0.2457 -0.1404
    1SOL    HW2 6578   3.810   0.476   2.853 -1.6129  0.2122 -0.1000
    1SOL    HW3 6579   3.880   0.428   2.728 -0.4952 -1.7789  1.2704
    1SOL    MW4 6580   3.820   0.478   2.767 -0.1433 -0.3875  0.0513
    1SOL     OW 6581   3.813   0.748   2.644  0.2781  0.1349 -0.0375
    1SOL    HW2 6582   3.744   0.798   2.687 -0.2067 -0.0771 -0.5581
    1SOL    HW3 6583   3.819   0.667   2.694  0.5413  0.3956  0.3514
    1SOL    MW4 6584   3.805   0.744   2.656  0.2489  0.1413 -0.0548
    1SOL     OW 6585   3.601   0.914   2.741  0.2766  0.0918 -0.2414
    1SOL    HW2 6586   3.589   0.917   2.836  2.0654 -0.2256  0.0267
    1SOL    HW3 6587   3.612   1.005   2.715  1.0459  0.0867  0.0503
    1SOL    MW4 6588   3.601   0.926   2.750  0.6142  0.0493 -0.1676
    1SOL     OW 6589   3.647   1.154   2.633  0.3186 -0.0442 -0.0265
    1SOL    HW2 6590   3.716   1.203   2.678  0.2288 -1.5431  1.8089
    1SOL    HW3 6591   3.566   1.196   2.662  0.4182  2.8376 -3.5224
    1SOL    MW4 6592   3.645   1.166   2.643  0.3200  0.1383 -0.2456
    1SOL     OW 6593   3.858   1.323   2.739 -0.1349 -0.1952 -0.3761
    1SOL    HW2 6594   3.922   1.272   2.690 -1.1066 -0.6522 -1.2062
    1SOL    HW3 6595   3.849   1.405   2.690  0.5515  0.2909  0.2994
    1SOL    MW4 6596   3.865   1.327   2.726 -0.1726 -0.1915 -0.3965
    1SOL     OW 6597   3.819   1.554   2.600 -0.1425 -0.5571  0.2829
    1SOL    HW2 6598   3.887   1.596   2.652 -0.3758  0.2300 -0.0361
    1SOL    HW3 6599   3.737   1.593   2.631 -0.4521 -1.4977  0.6653
    1SOL    MW4 6600   3.817   1.564   2.611 -0.2139 -0.5773  0.2913
    1SOL     OW 6601   3.600   1.681   2.749  0.0660  0.5767  0.2271
    1SOL    HW2 6602   3.589   1.776   2.742  1.8828  0.7503 -0.4221
    1SOL    HW3 6603   3.532   1.645   2.692 -0.9155  1.4739  0.8224
    1SOL    MW4 6604   3.590   1.689   2.740  0.1762  0.7180  0.2203
    1SOL     OW 6605   3.557   1.940   2.649 -0.1345 -0.2274  0.3627
    1SOL    HW2 6606   3.466   1.964   2.664 -0.3505 -1.1908  0.6481
    1SOL    HW3 6607   3.562   1.919   2.556  0.0994  1.0778  0.0705
    1SOL    MW4 6608   3.546   1.941   2.639 -0.1321 -0.1824  0.3617
    1SOL     OW 6609   3.779   2.066   2.733 -0.7445 -0.1865  0.3969
    1SOL    HW2 6610   3.843   2.001   2.705  0.0688  0.6643  0.2848
    1SOL    HW3 6611   3.695   2.031   2.703 -0.0647 -0.1130 -1.6530
    1SOL    MW4 6612   3.776   2.053   2.725 -0.5476 -0.0646  0.1118
    1SOL     OW 6613   3.860   2.308   2.614  0.4396  0.2656  0.1447
    1SOL    HW2 6614   3.829   2.223   2.645  0.9948  0.2778  0.7258
    1SOL    HW3 6615   3.866   2.297   2.519  0.8658 -0.4659  0.2486
    1SOL    MW4 6616   3.856   2.295   2.605  0.5691  0.1707  0.2348
    1SOL     OW 6617   3.632   2.499   2.722  0.1394 -0.0864 -0.0632
    1SOL    HW2 6618   3.652   2.490   2.815  1.7697  1.8015 -0.1970
    1SOL    HW3 6619   3.692   2.438   2.679  0.4376  0.1431  0.0277
    1SOL    MW4 6620   3.643   2.490   2.729  0.3941  0.1931 -0.0689
    1SOL     OW 6621   3.596   2.761   2.636 -0.4697  0.2187  0.5150
    1SOL    HW2 6622   3.603   2.671   2.670 -0.8417 -0.1492 -0.3678
    1SOL    HW3 6623   3.596   2.751   2.541 -0.0951  1.1970  0.4049
    1SOL    MW4 6624   3.597   2.747   2.628 -0.4694  0.2992  0.3841
    1SOL     OW 6625   3.835   2.823   2.746  0.2952 -0.2189  0.2622
    1SOL    HW2 6626   3.902   2.763   2.714  0.1154 -0.7753  0.9305
    1SOL    HW3 6627   3.753   2.789   2.711  0.3067  0.2163 -0.1986
    1SOL    MW4 6628   3.833   2.811   2.737  0.2730 -0.2348  0.2894
    1SOL     OW 6629   3.811   3.079   2.629 -0.0398 -0.0591 -0.9049
    1SOL    HW2 6630   3.723   3.105   2.656  0.6596 -0.0176  1.4359
    1SOL    HW3 6631   3.824   2.993   2.668  0.9967 -0.0288 -1.1699
    1SOL    MW4 6632   3.801   3.071   2.638  0.1893 -0.0496 -0.6311
    1SOL     OW 6633   3.553   3.187   2.705  0.2994  0.1732 -0.5572
    1SOL    HW2 6634   3.567   3.276   2.672  1.2779 -0.5469 -2.1516
    1SOL    HW3 6635   3.472   3.159   2.662 -0.0028  0.2833 -0.0627
    1SOL    MW4 6636   3.544   3.195   2.695  0.3886  0.0927 -0.7026
    1SOL     OW 6637   3.568   3.448   2.644 -0.5882 -0.1757  0.1612
    1SOL    HW2 6638   3.635   3.511   2.673 -0.7188  0.2137 -0.3747
    1SOL    HW3 6639   3.485   3.490   2.665 -0.6926  0.2864 -1.1133
    1SOL    MW4 6640   3.566   3.462   2.651 -0.6189 -0.0639 -0.0777
    1SOL     OW 6641   3.793   3.631   2.761 -0.3711 -0.1264 -0.2210
    1SOL    HW2 6642   3.868   3.591   2.717  1.2337  0.3827  1.9976
    1SOL    HW3 6643   3.784   3.717   2.720 -0.7213 -0.7711 -1.5367
    1SOL    MW4 6644   3.802   3.637   2.750 -0.2055 -0.1442 -0.1020
    1SOL     OW 6645   3.814   3.891   2.647 -0.3255 -0.3598 -0.2705
    1SOL    HW2 6646   3.896   3.931   2.677  1.0931 -1.8677 -2.0240
    1SOL    HW3 6647   3.746   3.947   2.684  1.4988  1.3056  0.7038
    1SOL    MW4 6648   3.816   3.904   2.656  0.1023 -0.3388 -0.3734
    1SOL     OW 6649   3.596   4.021   2.769 -0.2028 -0.0674 -0.3336
    1SOL    HW2 6650   3.601   4.108   2.729 -0.8759 -0.1088 -0.5234
    1SOL    HW3 6651   3.528   3.976   2.719 -0.3170 -0.4771  0.1852
    1SOL    MW4 6652   3.588   4.027   2.758 -0.3068 -0.1273 -0.2902
    1SOL     OW 6653   3.592   4.254   2.636  0.6171  0.4483  0.0234
    1SOL    HW2 6654   3.518   4.293   2.681  0.2974  1.0626 -1.0018
    1SOL    HW3 6655   3.573   4.268   2.543  1.6870  0.0103 -0.2679
    1SOL    MW4 6656   3.580   4.261   2.629  0.7160  0.4716 -0.1500
    1SOL     OW 6657   3.810   4.416   2.708 -0.2591  0.6282 -0.3116
    1SOL    HW2 6658   3.891   4.372   2.681  1.0951  1.0732  2.7813
    1SOL    HW3 6659   3.741   4.365   2.667  1.4018 -2.6280  0.6814
    1SOL    MW4 6660   3.812   4.404   2.699  0.1385  0.2575  0.2277
    1SOL     OW 6661   4.289   4.663   2.676  0.1058  0.0884  0.1775
    1SOL    HW2 6662   4.215   4.722   2.694  0.1444 -0.2327  1.4228
    1SOL    HW3 6663   4.366   4.713   2.700  0.1338 -0.4940  1.3210
    1SOL    MW4 6664   4.289   4.677   2.681  0.1149 -0.0305  0.4928
    1SOL     OW 6665   4.072   0.131   2.754  0.3759  0.2589  0.1619
    1SOL    HW2 6666   4.056   0.120   2.848 -1.0211 -0.5169 -0.1544
    1SOL    HW3 6667   3.994   0.096   2.712  1.3519 -0.1663 -1.3307
    1SOL    MW4 6668   4.059   0.125   2.761  0.3209  0.1004 -0.0765
    1SOL     OW 6669   4.042   0.387   2.665  0.4104  0.7911  0.2326
    1SOL    HW2 6670   4.044   0.297   2.696 -0.9361  0.7181  0.0980
    1SOL    HW3 6671   4.045   0.380   2.570 -0.3059  0.8729  0.2047
    1SOL    MW4 6672   4.043   0.374   2.657  0.1383  0.7923  0.2110
    1SOL     OW 6673   4.271   0.515   2.758  0.5437  0.1524 -0.1162
    1SOL    HW2 6674   4.195   0.466   2.725 -0.0674 -0.0644  1.5468
    1SOL    HW3 6675   4.346   0.476   2.713  0.0366 -2.1918  0.9819
    1SOL    MW4 6676   4.271   0.503   2.748  0.3963 -0.1855  0.2482
    1SOL     OW 6677   4.249   0.759   2.649 -0.2189  0.1418  0.2048
    1SOL    HW2 6678   4.261   0.671   2.685 -0.2312  0.1299  0.1803
    1SOL    HW3 6679   4.264   0.748   2.555 -0.9075  0.0367  0.1063
    1SOL    MW4 6680   4.253   0.746   2.641 -0.3114  0.1264  0.1886
    1SOL     OW 6681   4.030   0.876   2.745 -0.2204 -0.3864  0.1211
    1SOL    HW2 6682   4.107   0.832   2.710  0.1507 -0.0882  0.5593
    1SOL    HW3 6683   3.956   0.836   2.699  0.1256 -1.3531  0.3897
    1SOL    MW4 6684   4.030   0.865   2.734 -0.1259 -0.4746  0.2143
    1SOL     OW 6685   4.043   1.143   2.638 -0.0234  0.2207 -0.1775
    1SOL    HW2 6686   4.124   1.177   2.676 -0.0443  0.7662 -0.6335
    1SOL    HW3 6687   4.035   1.055   2.677 -0.2669  0.9295  1.4178
    1SOL    MW4 6688   4.053   1.136   2.648 -0.0577  0.3864 -0.0272
    1SOL     OW 6689   4.282   1.260   2.728  0.3509  0.2316  0.1227
    1SOL    HW2 6690   4.267   1.344   2.685  1.0866  0.7784  0.9412
    1SOL    HW3 6691   4.365   1.229   2.692  0.0832 -0.1546 -0.1762
    1SOL    MW4 6692   4.291   1.267   2.718  0.4134  0.2528  0.1912
    1SOL     OW 6693   4.244   1.514   2.618 -0.3313 -0.6095 -0.2141
    1SOL    HW2 6694   4.323   1.559   2.646 -1.5911  1.0273  0.8124
    1SOL    HW3 6695   4.250   1.511   2.522  1.1141 -0.8057 -0.1237
    1SOL    MW4 6696   4.255   1.519   2.609 -0.3071 -0.4194 -0.0665
    1SOL     OW 6697   4.043   1.671   2.718  0.0682  0.2842  0.1152
    1SOL    HW2 6698   4.061   1.672   2.812  0.4718 -0.0517  0.0465
    1SOL    HW3 6699   4.117   1.623   2.681  0.2035  0.9185 -0.4353
    1SOL    MW4 6700   4.055   1.665   2.726  0.1397  0.3235  0.0334
    1SOL     OW 6701   4.007   1.934   2.657 -0.1723 -0.6173  0.2131
    1SOL    HW2 6702   4.079   1.984   2.697 -0.8931  0.7412 -0.1669
    1SOL    HW3 6703   4.028   1.843   2.676  0.6392 -0.1139  1.8010
    1SOL    MW4 6704   4.019   1.929   2.665 -0.1602 -0.3716  0.3726
    1SOL     OW 6705   4.240   2.041   2.727  0.0739  0.3987 -0.3344
    1SOL    HW2 6706   4.252   2.132   2.698 -1.5997  0.6620 -0.2489
    1SOL    HW3 6707   4.314   1.994   2.689 -0.3846  1.3245 -2.4475
    1SOL    MW4 6708   4.251   2.047   2.718 -0.2079  0.5560 -0.6018
    1SOL     OW 6709   4.291   2.300   2.644 -0.2168  0.1592  0.3420
    1SOL    HW2 6710   4.207   2.338   2.669 -0.5404  0.0489 -0.5429
    1SOL    HW3 6711   4.285   2.290   2.549  0.2410 -1.1875  0.4468
    1SOL    MW4 6712   4.279   2.304   2.635 -0.1988 -0.0331  0.2391
    1SOL     OW 6713   4.067   2.426   2.761 -0.6308  0.2358 -0.0015
    1SOL    HW2 6714   4.067   2.405   2.855 -0.4702  2.2925  0.5035
    1SOL    HW3 6715   3.990   2.382   2.726  0.8367 -2.8473  0.5280
    1SOL    MW4 6716   4.057   2.418   2.769 -0.4163  0.1004  0.1347
    1SOL     OW 6717   4.030   2.677   2.637  0.3059 -0.0095  0.5149
    1SOL    HW2 6718   4.100   2.737   2.664  1.1146 -0.6618 -0.1062
    1SOL    HW3 6719   4.045   2.598   2.689  0.1313 -0.2027  0.2745
    1SOL    MW4 6720   4.041   2.675   2.647  0.3896 -0.1211  0.4015
    1SOL     OW 6721   4.249   2.838   2.711  0.3954  0.0189 -0.1041
    1SOL    HW2 6722   4.243   2.832   2.806  2.1396 -1.1619 -0.0515
    1SOL    HW3 6723   4.236   2.931   2.692  0.4439  0.3249  1.3028
    1SOL    MW4 6724   4.246   2.850   2.721  0.6323 -0.0966  0.0887
    1SOL     OW 6725   4.247   3.122   2.668  0.8983  0.1714 -0.0050
    1SOL    HW2 6726   4.160   3.143   2.701  1.1617 -0.9015  1.4194
    1SOL    HW3 6727   4.241   3.139   2.574 -0.5137  1.1790  0.2466
    1SOL    MW4 6728   4.235   3.127   2.660  0.7467  0.1628  0.2160
    1SOL     OW 6729   3.985   3.230   2.759 -0.0211  0.1755 -0.1910
    1SOL    HW2 6730   3.979   3.317   2.720  0.8824 -0.0681 -0.8652
    1SOL    HW3 6731   3.915   3.180   2.717  0.3069  0.2003 -0.7688
    1SOL    MW4 6732   3.975   3.235   2.748  0.1414  0.1464 -0.3562
    1SOL     OW 6733   4.002   3.492   2.661 -0.0142  0.1755 -0.0477
    1SOL    HW2 6734   4.085   3.527   2.695 -0.0101 -0.3321  0.4723
    1SOL    HW3 6735   4.016   3.487   2.566  0.8834 -0.7350  0.1139
    1SOL    MW4 6736   4.015   3.496   2.653  0.1044 -0.0117  0.0422
    1SOL     OW 6737   4.262   3.590   2.752  0.1998 -0.2742  0.2067
    1SOL    HW2 6738   4.274   3.581   2.846 -0.4742 -0.3897  0.2837
    1SOL    HW3 6739   4.335   3.542   2.714  1.2621  0.9527  0.6740
    1SOL    MW4 6740   4.273   3.583   2.759  0.2513 -0.1276  0.2787
    1SOL     OW 6741   4.270   3.837   2.638 -0.0704  0.3080 -0.2782
    1SOL    HW2 6742   4.261   3.751   2.681  0.0465  0.7343  0.5993
    1SOL    HW3 6743   4.343   3.879   2.682  0.5433  0.4513 -1.4121
    1SOL    MW4 6744   4.278   3.831   2.649  0.0257  0.3829 -0.3121
    1SOL     OW 6745   4.048   3.991   2.736 -0.0884 -0.2272  0.1369
    1SOL    HW2 6746   4.030   3.968   2.828  0.3935 -1.4104 -0.0579
    1SOL    HW3 6747   4.123   3.937   2.712 -0.1292  0.1777 -0.9194
    1SOL    MW4 6748   4.055   3.981   2.745 -0.0296 -0.3300 -0.0281
    1SOL     OW 6749   4.056   4.284   2.645  0.1943  0.6316  0.9602
    1SOL    HW2 6750   4.065   4.191   2.665  1.0835  0.1700 -1.3923
    1SOL    HW3 6751   4.029   4.286   2.553  0.2306  2.7057  0.9680
    1SOL    MW4 6752   4.053   4.272   2.635  0.3166  0.8445  0.6506
    1SOL     OW 6753   4.312   4.348   2.731 -0.3806 -0.5552 -0.0830
    1SOL    HW2 6754   4.229   4.312   2.701 -0.0456 -0.3099 -1.3205
    1SOL    HW3 6755   4.303   4.442   2.719  0.7196 -0.6589 -1.9156
    1SOL    MW4 6756   4.300   4.355   2.726 -0.1912 -0.5360 -0.4883
    1SOL     OW 6757   0.203   4.636   3.113 -0.3385  0.2412  0.0115
    1SOL    HW2 6758   0.184   4.646   3.206 -0.4203 -0.3468  0.0589
    1SOL    HW3 6759   0.135   4.687   3.069 -0.8695 -0.2721  0.2435
    1SOL    MW4 6760   0.192   4.644   3.119 -0.4194  0.0963  0.0484
    1SOL     OW 6761   4.469   0.139   2.999 -0.2953  0.2473 -0.4448
    1SOL    HW2 6762   4.398   0.079   3.025  1.0140 -0.6298  1.1894
    1SOL    HW3 6763   4.453   0.218   3.050  0.5913 -0.4137  0.9075
    1SOL    MW4 6764   4.457   0.141   3.009 -0.0052  0.0444 -0.0508
    1SOL     OW 6765   4.490   0.391   3.117  0.2330  0.0651 -0.4938
    1SOL    HW2 6766   4.490   0.394   3.213  0.2568  0.5432 -0.5102
    1SOL    HW3 6767   4.416   0.446   3.091 -1.1746 -1.8653 -0.6897
    1SOL    MW4 6768   4.480   0.398   3.126  0.0505 -0.1265 -0.5219
    1SOL     OW 6769   0.237   0.477   3.007  0.1266  0.0123 -0.1379
    1SOL    HW2 6770   0.307   0.421   3.042  0.1182 -0.5702 -1.0238
    1SOL    HW3 6771   0.156   0.434   3.036  0.1249  0.0849 -0.0335
    1SOL    MW4 6772   0.235   0.464   3.016  0.1253 -0.0550 -0.2410
    1SOL     OW 6773   0.196   0.750   3.103  0.1486  0.2045  0.1175
    1SOL    HW2 6774   0.213   0.753   3.197  1.2427  0.1627 -0.0716
    1SOL    HW3 6775   0.213   0.660   3.077 -0.7706  0.0645 -0.0121
    1SOL    MW4 6776   0.200   0.739   3.112  0.1716  0.1805  0.0753
    1SOL     OW 6777   4.469   0.894   3.016  0.2304  0.1201 -0.3586
    1SOL    HW2 6778   4.540   0.838   3.049  0.3940  0.4326 -0.1744
    1SOL    HW3 6779   4.485   0.899   2.922 -0.7956 -1.5541 -0.6337
    1SOL    MW4 6780   4.481   0.888   3.008  0.1163 -0.0595 -0.3705
    1SOL     OW 6781   0.032   1.152   3.112  0.0732  0.8865  0.4859
    1SOL    HW2 6782  -0.030   1.206   3.064 -1.6261  0.4293  2.0887
    1SOL    HW3 6783   0.019   1.064   3.078  1.5591  1.1575 -0.8467
    1SOL    MW4 6784   0.022   1.148   3.101  0.0450  0.8619  0.5214
    1SOL     OW 6785   0.257   1.274   3.015 -0.3609 -0.4113  0.1165
    1SOL    HW2 6786   0.179   1.227   3.044  0.4139 -2.0721 -0.4110
    1SOL    HW3 6787   0.248   1.278   2.919 -0.0697 -0.1097  0.1001
    1SOL    MW4 6788   0.246   1.269   3.006 -0.2203 -0.5907  0.0446
    1SOL     OW 6789   0.243   1.526   3.113 -0.0017  0.1407 -0.1085
    1SOL    HW2 6790   0.160   1.551   3.071 -1.0313 -0.2817  1.6279
    1SOL    HW3 6791   0.259   1.436   3.085 -0.1947  0.1747 -0.3297
    1SOL    MW4 6792   0.234   1.518   3.104 -0.1630  0.0894  0.0913
    1SOL     OW 6793   0.016   1.647   2.997 -0.1097  0.2082 -0.3589
    1SOL    HW2 6794  -0.059   1.599   3.031 -0.0462  0.1650 -0.2780
    1SOL    HW3 6795   0.024   1.724   3.054  0.0952  0.0521 -0.1766
    1SOL    MW4 6796   0.007   1.651   3.009 -0.0744  0.1820 -0.3240
    1SOL     OW 6797   0.026   1.879   3.132 -0.2206 -0.0068  0.2533
    1SOL    HW2 6798  -0.052   1.921   3.094 -1.4671 -2.2408  0.2898
    1SOL    HW3 6799   0.097   1.941   3.114 -1.8162  1.6392 -0.6120
    1SOL    MW4 6800   0.025   1.893   3.125 -0.5955 -0.0844  0.1440
    1SOL     OW 6801   0.230   2.038   3.075 -0.1377 -0.3467 -0.3835
    1SOL    HW2 6802   0.219   2.130   3.098 -2.2533 -0.6981  0.1207
    1SOL    HW3 6803   0.223   2.036   2.979 -0.9495 -0.0818 -0.3343
    1SOL    MW4 6804   0.228   2.050   3.065 -0.5239 -0.3579 -0.3102
    1SOL     OW 6805   0.191   2.302   3.119  0.0100 -0.4458  0.5932
    1SOL    HW2 6806   0.177   2.321   3.212 -0.6324  1.4598  0.1463
    1SOL    HW3 6807   0.270   2.352   3.097 -1.0335  0.8025 -0.3583
    1SOL    MW4 6808   0.200   2.311   3.129 -0.2124 -0.0296  0.4089
    1SOL     OW 6809   4.465   2.448   3.027 -0.3126  0.5465  0.2723
    1SOL    HW2 6810   4.456   2.538   3.059  0.3530  0.2831  1.2357
    1SOL    HW3 6811   4.539   2.413   3.076 -1.4029 -0.9635  0.8647
    1SOL    MW4 6812   4.474   2.456   3.037 -0.3686  0.3126  0.4776
    1SOL     OW 6813   4.445   2.709   3.145  0.4309 -0.1962  0.6860
    1SOL    HW2 6814   4.458   2.706   3.240 -0.1179  1.7261  0.8372
    1SOL    HW3 6815   4.523   2.754   3.112  0.3750 -0.4008  0.2803
    1SOL    MW4 6816   4.457   2.714   3.153  0.3510  0.0305  0.6523
    1SOL     OW 6817   0.192   2.822   3.027 -0.4595 -0.0610 -0.1747
    1SOL    HW2 6818   0.270   2.769   3.046  0.1411  0.8018 -0.1816
    1SOL    HW3 6819   0.184   2.819   2.932  0.2240  0.7566 -0.2643
    1SOL    MW4 6820   0.201   2.814   3.017 -0.2901  0.1607 -0.1874
    1SOL     OW 6821   0.238   3.090   3.132 -0.0631 -0.2990 -0.0076
    1SOL    HW2 6822   0.165   3.144   3.102  0.0557  0.0231  0.2869
    1SOL    HW3 6823   0.221   3.004   3.094  0.2183  0.1670 -1.2042
    1SOL    MW4 6824   0.226   3.085   3.123 -0.0103 -0.1950 -0.1268
    1SOL     OW 6825   0.009   3.217   3.047 -0.3826  0.2412 -0.4869
    1SOL    HW2 6826  -0.053   3.149   3.071 -1.2636  1.3514  0.4710
    1SOL    HW3 6827   0.011   3.216   2.952 -0.6837 -0.8499 -0.4866
    1SOL    MW4 6828   0.001   3.208   3.038 -0.5388  0.2439 -0.3605
    1SOL     OW 6829   4.472   3.461   3.179 -0.1288  0.7392  0.0329
    1SOL    HW2 6830   4.403   3.503   3.128 -0.8431 -0.6723 -0.1760
    1SOL    HW3 6831   4.491   3.379   3.133  0.6434  0.4095  0.9111
    1SOL    MW4 6832   4.466   3.456   3.166 -0.1206  0.5095  0.1211
    1SOL     OW 6833   0.176   3.568   3.024 -0.0787 -0.0431  0.0555
    1SOL    HW2 6834   0.192   3.651   3.069  0.4077  0.0170 -0.2235
    1SOL    HW3 6835   0.103   3.529   3.072 -0.2503  0.5019  0.2457
    1SOL    MW4 6836   0.169   3.574   3.037 -0.0372  0.0367  0.0436
    1SOL     OW 6837   0.195   3.829   3.131  0.2605 -0.2337  0.1633
    1SOL    HW2 6838   0.202   3.848   3.224  0.1905 -0.6504  0.2548
    1SOL    HW3 6839   0.270   3.873   3.092  0.3660 -0.1726  0.4320
    1SOL    MW4 6840   0.205   3.837   3.138  0.2652 -0.2806  0.2108
    1SOL     OW 6841   4.488   3.989   3.010 -0.0484  0.4232  0.3828
    1SOL    HW2 6842   4.558   3.934   3.045 -0.0063  0.6176  0.6066
    1SOL    HW3 6843   4.499   3.985   2.915 -0.4062 -0.4262  0.3719
    1SOL    MW4 6844   4.499   3.981   3.002 -0.0901  0.3366  0.4108
    1SOL     OW 6845   4.487   4.249   3.120 -0.3170  0.1136 -0.2570
    1SOL    HW2 6846   4.477   4.240   3.215 -0.9113 -0.4533 -0.3697
    1SOL    HW3 6847   4.499   4.159   3.088 -2.5474  0.0619 -0.9876
    1SOL    MW4 6848   4.488   4.236   3.128 -0.6897  0.0324 -0.3684
    1SOL     OW 6849   0.243   4.349   3.044  0.3629  0.0361 -0.1583
    1SOL    HW2 6850   0.160   4.319   3.081  0.3226  0.3223 -0.0166
    1SOL    HW3 6851   0.246   4.442   3.064  0.0194  0.3368 -1.4861
    1SOL    MW4 6852   0.233   4.357   3.052  0.3123  0.1135 -0.3145
    1SOL     OW 6853   0.682   4.613   3.125  0.0515 -0.2370 -0.4810
    1SOL    HW2 6854   0.676   4.518   3.117  0.6530 -0.2108 -1.2260
    1SOL    HW3 6855   0.594   4.644   3.105 -0.4126 -0.6913  0.7562
    1SOL    MW4 6856   0.669   4.605   3.122  0.0697 -0.2933 -0.4160
    1SOL     OW 6857   0.455   0.063   3.045 -0.0716  0.5401 -0.3566
    1SOL    HW2 6858   0.454   0.156   3.070  1.2145  0.9735 -1.8023
    1SOL    HW3 6859   0.370   0.029   3.072 -0.2357  1.9487  0.9326
    1SOL    MW4 6860   0.444   0.071   3.052  0.0764  0.7831 -0.3772
    1SOL     OW 6861   0.441   0.331   3.102 -0.2430  0.0092 -0.0424
    1SOL    HW2 6862   0.446   0.338   3.197  0.7618  0.0503 -0.0976
    1SOL    HW3 6863   0.525   0.365   3.071  0.3277 -2.0866 -0.8330
    1SOL    MW4 6864   0.452   0.336   3.110 -0.0351 -0.2618 -0.1543
    1SOL     OW 6865   0.662   0.455   2.993 -0.3884 -0.0016  0.2764
    1SOL    HW2 6866   0.739   0.406   3.022  0.2097  0.3062 -0.7735
    1SOL    HW3 6867   0.678   0.545   3.022 -0.1724  0.1403 -0.2799
    1SOL    MW4 6868   0.674   0.461   3.001 -0.2810  0.0577  0.0644
    1SOL     OW 6869   0.697   0.708   3.100  0.6372 -0.3672 -0.5052
    1SOL    HW2 6870   0.701   0.720   3.194  0.7095  2.8720 -0.8605
    1SOL    HW3 6871   0.779   0.745   3.067  0.0501 -0.2881 -1.9277
    1SOL    MW4 6872   0.708   0.714   3.108  0.5693  0.0706 -0.7398
    1SOL     OW 6873   0.454   0.869   3.023  0.3135 -0.1391  0.2450
    1SOL    HW2 6874   0.381   0.817   3.056 -0.7873 -0.0508 -1.9554
    1SOL    HW3 6875   0.531   0.813   3.036 -0.1894 -0.4274  2.1384
    1SOL    MW4 6876   0.455   0.855   3.029  0.1019 -0.1655  0.2043
    1SOL     OW 6877   0.468   1.123   3.101 -0.1513  0.1717 -0.2787
    1SOL    HW2 6878   0.452   1.034   3.071 -2.7477  0.3929  0.3251
    1SOL    HW3 6879   0.391   1.172   3.074  0.5458  1.8839  0.7479
    1SOL    MW4 6880   0.456   1.118   3.094 -0.4019  0.4268 -0.0637
    1SOL     OW 6881   0.697   1.278   3.014  0.0137  0.2512  0.4244
    1SOL    HW2 6882   0.777   1.239   3.049 -0.9116  0.0806  2.3959
    1SOL    HW3 6883   0.627   1.217   3.038 -0.6025 -0.0713 -2.1032
    1SOL    MW4 6884   0.698   1.265   3.022 -0.1897  0.1861  0.3510
    1SOL     OW 6885   0.672   1.542   3.096 -0.3329  0.3461  0.5165
    1SOL    HW2 6886   0.685   1.535   3.191  1.5643 -0.7453  0.2119
    1SOL    HW3 6887   0.658   1.452   3.068 -0.0481  0.5716 -0.3543
    1SOL    MW4 6888   0.672   1.529   3.105 -0.0450  0.2320  0.3614
    1SOL     OW 6889   0.435   1.665   2.979  0.0679  0.0974  0.0769
    1SOL    HW2 6890   0.514   1.614   2.999 -1.1428 -2.5630 -1.6991
    1SOL    HW3 6891   0.365   1.619   3.025 -1.0702  0.0462 -1.6671
    1SOL    MW4 6892   0.436   1.653   2.988 -0.2420 -0.2602 -0.3874
    1SOL     OW 6893   0.458   1.901   3.144  0.4747 -0.3555 -0.2657
    1SOL    HW2 6894   0.449   1.825   3.086 -1.3034  1.3504 -2.2844
    1SOL    HW3 6895   0.382   1.955   3.126  1.4927  1.7375  1.4460
    1SOL    MW4 6896   0.447   1.898   3.134  0.3744  0.1457 -0.3059
    1SOL     OW 6897   0.676   2.021   3.018  0.5380 -0.0011 -0.0335
    1SOL    HW2 6898   0.758   2.003   3.064  1.1377  0.2422 -1.0049
    1SOL    HW3 6899   0.608   1.988   3.077  1.3891 -1.2775  0.2590
    1SOL    MW4 6900   0.678   2.014   3.032  0.7294 -0.1376 -0.1233
    1SOL     OW 6901   0.679   2.292   3.097  0.2769 -0.1045 -0.1772
    1SOL    HW2 6902   0.673   2.299   3.192 -1.4205 -0.0364 -0.2740
    1SOL    HW3 6903   0.682   2.198   3.079 -0.8909 -0.1589 -0.1240
    1SOL    MW4 6904   0.678   2.281   3.107 -0.1011 -0.1028 -0.1829
    1SOL     OW 6905   0.432   2.427   3.044  0.2375 -0.0364  0.1124
    1SOL    HW2 6906   0.518   2.396   3.069  0.4013 -0.6999 -1.2283
    1SOL    HW3 6907   0.430   2.418   2.949 -1.0532  0.6263  0.0659
    1SOL    MW4 6908   0.443   2.421   3.035  0.0888 -0.0367 -0.0706
    1SOL     OW 6909   0.406   2.688   3.110 -0.0630 -0.1355  0.1434
    1SOL    HW2 6910   0.475   2.732   3.060 -1.8614  0.5834 -1.7471
    1SOL    HW3 6911   0.409   2.597   3.080  0.0161 -0.0944  0.0247
    1SOL    MW4 6912   0.416   2.682   3.100 -0.2898 -0.0350 -0.1216
    1SOL     OW 6913   0.637   2.809   2.994 -0.5072 -0.2553 -0.2231
    1SOL    HW2 6914   0.711   2.762   3.033 -0.2371 -1.3542 -1.9644
    1SOL    HW3 6915   0.643   2.898   3.029  1.0774 -0.5857  0.3882
    1SOL    MW4 6916   0.648   2.814   3.004 -0.2624 -0.4439 -0.3724
    1SOL     OW 6917   0.676   3.078   3.101 -0.7525 -0.3399 -0.3014
    1SOL    HW2 6918   0.672   3.077   3.197  0.5944  0.2497 -0.2240
    1SOL    HW3 6919   0.593   3.117   3.074 -1.6077 -1.5128  0.5779
    1SOL    MW4 6920   0.665   3.083   3.110 -0.6875 -0.4165 -0.1752
    1SOL     OW 6921   0.457   3.204   3.014  0.1033 -0.7782 -0.2160
    1SOL    HW2 6922   0.450   3.297   3.033 -0.9094 -0.4860 -1.8784
    1SOL    HW3 6923   0.377   3.166   3.052 -0.4322 -0.6549 -1.1935
    1SOL    MW4 6924   0.445   3.211   3.021 -0.1009 -0.7236 -0.5646
    1SOL     OW 6925   0.437   3.485   3.115  0.1423 -0.4060  0.2036
    1SOL    HW2 6926   0.444   3.484   3.210  0.7024  0.0913  0.1725
    1SOL    HW3 6927   0.344   3.502   3.098  0.1454  0.0809  0.6636
    1SOL    MW4 6928   0.426   3.487   3.125  0.2167 -0.2763  0.2606
    1SOL     OW 6929   0.656   3.598   3.013  0.1497  0.0920  0.1980
    1SOL    HW2 6930   0.729   3.566   3.066 -0.3088 -1.1327  0.1295
    1SOL    HW3 6931   0.579   3.554   3.050 -0.4509  0.8211 -0.1749
    1SOL    MW4 6932   0.656   3.588   3.025  0.0100  0.0269  0.1400
    1SOL     OW 6933   0.681   3.854   3.122  0.4366  0.0479  0.4381
    1SOL    HW2 6934   0.665   3.841   3.216 -1.4026  0.6666  0.2418
    1SOL    HW3 6935   0.673   3.767   3.084 -4.2768  0.4685  0.1603
    1SOL    MW4 6936   0.677   3.841   3.129 -0.4279  0.1850  0.3755
    1SOL     OW 6937   0.413   3.937   3.009  0.2542  0.2663 -0.2644
    1SOL    HW2 6938   0.498   3.899   3.032 -0.1135 -0.8402 -0.6871
    1SOL    HW3 6939   0.417   3.949   2.914 -0.5345 -1.0368 -0.4836
    1SOL    MW4 6940   0.425   3.933   2.999  0.1016 -0.0517 -0.3490
    1SOL     OW 6941   0.442   4.190   3.133 -0.7719  0.2363  0.5006
    1SOL    HW2 6942   0.436   4.109   3.083 -0.7431 -1.4108  3.1054
    1SOL    HW3 6943   0.371   4.244   3.099 -0.0706 -0.3769 -2.0635
    1SOL    MW4 6944   0.432   4.187   3.122 -0.6756 -0.0625  0.5057
    1SOL     OW 6945   0.644   4.345   3.058 -0.3117  0.2690  0.2886
    1SOL    HW2 6946   0.568   4.290   3.076 -0.1999  0.4014  1.1843
    1SOL    HW3 6947   0.645   4.354   2.963 -0.9456 -0.4016  0.2137
    1SOL    MW4 6948   0.635   4.339   3.048 -0.3806  0.1979  0.3970
    1SOL     OW 6949   1.097   4.651   3.166  0.1369 -0.3741 -0.0238
    1SOL    HW2 6950   1.165   4.707   3.129  0.4992 -1.7572 -1.5117
    1SOL    HW3 6951   1.019   4.672   3.115 -0.2025  0.1710  0.7161
    1SOL    MW4 6952   1.096   4.661   3.155  0.1400 -0.4845 -0.1223
    1SOL     OW 6953   0.895   0.066   3.006  0.1116  0.0769  0.0375
    1SOL    HW2 6954   0.885   0.153   3.045  0.7662  0.3016 -0.2811
    1SOL    HW3 6955   0.821   0.015   3.041  0.5721  0.3241  1.4061
    1SOL    MW4 6956   0.884   0.071   3.016  0.2587  0.1392  0.1762
    1SOL     OW 6957   0.874   0.316   3.094 -0.2120  0.0083  0.0721
    1SOL    HW2 6958   0.878   0.335   3.188 -1.1356  0.8365 -0.0474
    1SOL    HW3 6959   0.949   0.363   3.058 -0.8927  1.2151  0.1636
    1SOL    MW4 6960   0.884   0.325   3.102 -0.4237  0.2768  0.0684
    1SOL     OW 6961   1.104   0.457   3.018  0.3586 -0.0784  0.4201
    1SOL    HW2 6962   1.184   0.427   3.060  0.1774  0.4902  1.1884
    1SOL    HW3 6963   1.128   0.473   2.927  1.4400  1.3002  0.9199
    1SOL    MW4 6964   1.117   0.455   3.012  0.4773  0.1786  0.5872
    1SOL     OW 6965   1.127   0.728   3.092 -0.0697 -0.2486 -0.1388
    1SOL    HW2 6966   1.164   0.710   3.179  1.3251  0.6931 -0.5041
    1SOL    HW3 6967   1.120   0.642   3.050  1.7382 -0.4630 -0.0462
    1SOL    MW4 6968   1.131   0.714   3.098  0.3529 -0.1526 -0.1750
    1SOL     OW 6969   0.910   0.874   3.002 -0.1336  0.3246 -0.4290
    1SOL    HW2 6970   0.913   0.962   3.039  0.5767  0.6943 -1.3725
    1SOL    HW3 6971   0.985   0.829   3.042  1.3773  1.0964 -2.3463
    1SOL    MW4 6972   0.920   0.880   3.012  0.1595  0.4752 -0.8066
    1SOL     OW 6973   0.900   1.137   3.133  0.5691  0.3042 -0.0507
    1SOL    HW2 6974   0.910   1.139   3.228  0.5916  2.6309 -0.0804
    1SOL    HW3 6975   0.978   1.181   3.099 -0.3472  1.1807 -1.0710
    1SOL    MW4 6976   0.911   1.143   3.141  0.4511  0.7268 -0.1893
    1SOL     OW 6977   1.129   1.273   3.038 -0.1503  0.0161 -0.2264
    1SOL    HW2 6978   1.211   1.228   3.060 -0.8306 -0.9412  0.3825
    1SOL    HW3 6979   1.134   1.286   2.944  0.8864  0.3319 -0.1424
    1SOL    MW4 6980   1.141   1.269   3.029 -0.1032 -0.0685 -0.1349
    1SOL     OW 6981   1.107   1.530   3.156  0.4328  0.0020 -0.4152
    1SOL    HW2 6982   1.196   1.564   3.146  1.2350 -1.7046  0.7224
    1SOL    HW3 6983   1.114   1.438   3.129 -1.0333 -0.0921 -0.4872
    1SOL    MW4 6984   1.120   1.522   3.151  0.3452 -0.2357 -0.2744
    1SOL     OW 6985   0.893   1.682   3.040 -0.4221 -0.0067 -0.0740
    1SOL    HW2 6986   0.971   1.646   3.082 -0.2071  0.3761 -0.1411
    1SOL    HW3 6987   0.822   1.624   3.068 -0.2280  0.0480  0.5403
    1SOL    MW4 6988   0.894   1.669   3.049 -0.3682  0.0510 -0.0017
    1SOL     OW 6989   0.912   1.946   3.126 -0.0019 -0.1138 -0.0220
    1SOL    HW2 6990   0.919   1.930   3.220 -0.3179 -0.0137  0.0197
    1SOL    HW3 6991   0.891   1.861   3.088  3.3172 -0.8336 -0.3650
    1SOL    MW4 6992   0.910   1.933   3.133  0.3943 -0.1955 -0.0615
    1SOL     OW 6993   1.153   2.056   3.060 -0.1705  0.7506 -0.6043
    1SOL    HW2 6994   1.072   2.008   3.072  0.4903 -0.1396  0.3796
    1SOL    HW3 6995   1.163   2.064   2.965 -0.2036 -1.2095 -0.7872
    1SOL    MW4 6996   1.144   2.051   3.049 -0.0876  0.3748 -0.4988
    1SOL     OW 6997   1.167   2.326   3.106 -0.3774  0.0223  0.0600
    1SOL    HW2 6998   1.083   2.359   3.073 -1.1966  0.0885  2.1502
    1SOL    HW3 6999   1.159   2.231   3.100 -0.3481  0.0471 -0.3626
    1SOL    MW4 7000   1.155   2.318   3.101 -0.4816  0.0343  0.2801
    1SOL     OW 7001   0.930   2.428   3.021 -0.8476  0.1773 -0.0655
    1SOL    HW2 7002   0.853   2.379   3.049 -0.4321 -0.1413  0.5345
    1SOL    HW3 7003   0.920   2.438   2.927 -1.2936 -0.4290 -0.0804
    1SOL    MW4 7004   0.919   2.423   3.012 -0.8516  0.0548  0.0114
    1SOL     OW 7005   0.884   2.694   3.094  0.3031  0.2082  0.0653
    1SOL    HW2 7006   0.906   2.706   3.186 -1.7676  1.1017  0.4613
    1SOL    HW3 7007   0.898   2.600   3.078  0.2179 -0.0469  1.4154
    1SOL    MW4 7008   0.889   2.683   3.104  0.0187  0.2923  0.2956
    1SOL     OW 7009   1.122   2.819   3.012  0.2940  0.0516 -0.3888
    1SOL    HW2 7010   1.125   2.902   3.061  0.5402 -0.1397 -0.0748
    1SOL    HW3 7011   1.040   2.777   3.042  1.0225 -0.5995  0.7538
    1SOL    MW4 7012   1.111   2.824   3.023  0.4225 -0.0594 -0.1965
    1SOL     OW 7013   1.143   3.067   3.113  0.4207 -0.0773 -0.0172
    1SOL    HW2 7014   1.226   3.110   3.091  0.5783  0.4470  1.5240
    1SOL    HW3 7015   1.077   3.116   3.063  0.8308  0.7061  0.1974
    1SOL    MW4 7016   1.145   3.079   3.104  0.4956  0.0951  0.2141
    1SOL     OW 7017   0.912   3.189   3.027 -0.0345  0.1330  0.2157
    1SOL    HW2 7018   0.830   3.151   3.060 -0.3869  1.0817  0.4627
    1SOL    HW3 7019   0.901   3.191   2.932  1.6725 -4.1756 -0.1515
    1SOL    MW4 7020   0.900   3.184   3.019  0.1442 -0.3102  0.1998
    1SOL     OW 7021   0.887   3.463   3.110 -0.5855 -0.1422 -0.0512
    1SOL    HW2 7022   0.970   3.502   3.086 -0.6012 -0.9292 -1.4137
    1SOL    HW3 7023   0.885   3.379   3.064 -2.0184 -0.2473  0.1678
    1SOL    MW4 7024   0.897   3.457   3.101 -0.7766 -0.2601 -0.2022
    1SOL     OW 7025   1.098   3.641   3.042 -0.1247  0.2008 -0.3256
    1SOL    HW2 7026   1.176   3.586   3.051 -1.7629 -2.1931 -0.0662
    1SOL    HW3 7027   1.119   3.721   3.090  2.2591 -0.2755 -0.5174
    1SOL    MW4 7028   1.111   3.644   3.050 -0.0262 -0.1781 -0.3164
    1SOL     OW 7029   1.116   3.871   3.184  0.2004 -0.0102 -0.2236
    1SOL    HW2 7030   1.097   3.892   3.275 -0.3298 -1.2982 -0.0320
    1SOL    HW3 7031   1.037   3.897   3.136 -0.5985 -1.8554  0.0621
    1SOL    MW4 7032   1.103   3.877   3.190  0.0250 -0.4237 -0.1607
    1SOL     OW 7033   0.908   3.991   3.038  0.3177 -0.3488 -0.0781
    1SOL    HW2 7034   0.832   3.934   3.052  1.3237 -1.6649  0.1911
    1SOL    HW3 7035   0.933   3.975   2.947 -0.1716  0.6387 -0.3885
    1SOL    MW4 7036   0.902   3.981   3.028  0.3859 -0.3920 -0.0834
    1SOL     OW 7037   0.896   4.250   3.115 -0.0040 -0.1841 -0.0500
    1SOL    HW2 7038   0.896   4.160   3.083 -0.7973 -1.1281  2.4197
    1SOL    HW3 7039   0.813   4.287   3.083  0.6748 -0.0609 -1.7104
    1SOL    MW4 7040   0.885   4.243   3.107 -0.0191 -0.2923  0.0570
    1SOL     OW 7041   1.110   4.413   3.021 -0.1913  0.0379 -0.7413
    1SOL    HW2 7042   1.030   4.367   3.046 -0.1413  0.6601  0.6446
    1SOL    HW3 7043   1.104   4.497   3.067  1.2491  0.0997 -0.6403
    1SOL    MW4 7044   1.099   4.418   3.030  0.0054  0.1283 -0.5450
    1SOL     OW 7045   1.542   4.632   3.159  0.1182 -0.1349  0.1475
    1SOL    HW2 7046   1.547   4.637   3.254  0.4046  0.5694  0.0984
    1SOL    HW3 7047   1.466   4.685   3.136 -1.9873 -3.0360  0.2105
    1SOL    MW4 7048   1.533   4.640   3.168 -0.1218 -0.4249  0.1495
    1SOL     OW 7049   1.329   0.103   3.047 -0.1807  0.2378  0.1377
    1SOL    HW2 7050   1.327   0.199   3.050 -1.1617  0.2376 -0.3911
    1SOL    HW3 7051   1.341   0.082   2.955  0.0012 -0.1453  0.2496
    1SOL    MW4 7052   1.330   0.113   3.036 -0.2861  0.1872  0.0825
    1SOL     OW 7053   1.328   0.361   3.124  0.3243 -0.3812 -0.1096
    1SOL    HW2 7054   1.332   0.350   3.219  0.4524 -0.8545 -0.1727
    1SOL    HW3 7055   1.407   0.411   3.103 -0.8174  1.7008  0.3114
    1SOL    MW4 7056   1.339   0.366   3.134  0.1906 -0.1689 -0.0625
    1SOL     OW 7057   1.560   0.483   3.046 -0.1682 -0.0768 -0.4840
    1SOL    HW2 7058   1.547   0.577   3.060 -0.3050 -0.0398 -0.8556
    1SOL    HW3 7059   1.542   0.470   2.953  0.2617 -0.4021 -0.5221
    1SOL    MW4 7060   1.556   0.494   3.036 -0.1296 -0.1148 -0.5383
    1SOL     OW 7061   1.544   0.767   3.078  0.2331  0.0327 -0.0699
    1SOL    HW2 7062   1.551   0.769   3.173  2.1019  1.3286 -0.2139
    1SOL    HW3 7063   1.458   0.805   3.059  0.3450  0.8589  1.0409
    1SOL    MW4 7064   1.534   0.772   3.088  0.4946  0.3126  0.0577
    1SOL     OW 7065   1.317   0.899   2.996  0.2201 -0.3727  0.1609
    1SOL    HW2 7066   1.316   0.981   3.046 -1.1004  0.7115 -1.5453
    1SOL    HW3 7067   1.246   0.847   3.033  0.1420 -0.1450  0.3330
    1SOL    MW4 7068   1.308   0.903   3.007  0.0355 -0.1996 -0.0412
    1SOL     OW 7069   1.362   1.158   3.099 -0.0354  0.0678  0.1546
    1SOL    HW2 7070   1.366   1.169   3.194  0.8610  1.5370 -0.0391
    1SOL    HW3 7071   1.441   1.200   3.066  0.3016 -1.5468 -1.1620
    1SOL    MW4 7072   1.373   1.165   3.107  0.1273  0.0486 -0.0448
    1SOL     OW 7073   1.600   1.300   3.023 -0.1260  0.6087  0.1331
    1SOL    HW2 7074   1.679   1.252   3.047 -0.3833  0.4494  0.6743
    1SOL    HW3 7075   1.617   1.390   3.053  0.4437  0.9098 -1.0747
    1SOL    MW4 7076   1.613   1.306   3.030 -0.0849  0.6274  0.0455
    1SOL     OW 7077   1.628   1.549   3.140  0.7135  0.2373  0.0177
    1SOL    HW2 7078   1.698   1.596   3.095  0.9627  1.3661  1.5442
    1SOL    HW3 7079   1.549   1.600   3.122  0.9550  1.1873  1.5282
    1SOL    MW4 7080   1.626   1.562   3.132  0.7783  0.5115  0.4184
    1SOL     OW 7081   1.373   1.652   3.088  0.1419  0.0685  0.1496
    1SOL    HW2 7082   1.379   1.744   3.114  1.0997  0.2495 -0.6583
    1SOL    HW3 7083   1.372   1.654   2.992 -1.1159 -0.7006  0.1387
    1SOL    MW4 7084   1.374   1.664   3.078  0.1023 -0.0092  0.0417
    1SOL     OW 7085   1.383   1.922   3.128 -0.3537 -0.0399  0.6067
    1SOL    HW2 7086   1.391   1.918   3.223 -0.8279  0.6077  0.6811
    1SOL    HW3 7087   1.295   1.959   3.113  0.3746  1.4634 -0.0647
    1SOL    MW4 7088   1.372   1.927   3.138 -0.3202  0.2439  0.5279
    1SOL     OW 7089   1.573   2.090   3.011 -0.5732 -0.2124  0.3217
    1SOL    HW2 7090   1.496   2.038   3.035 -0.3660 -0.0847  1.2743
    1SOL    HW3 7091   1.574   2.087   2.915 -1.3537 -0.8119  0.3201
    1SOL    MW4 7092   1.563   2.083   3.002 -0.6489 -0.2749  0.4470
    1SOL     OW 7093   1.546   2.315   3.148  0.1346 -0.5629 -0.4187
    1SOL    HW2 7094   1.490   2.371   3.096 -1.5730 -0.7730  1.1488
    1SOL    HW3 7095   1.543   2.230   3.104  0.7542 -0.0936 -1.3925
    1SOL    MW4 7096   1.538   2.311   3.136 -0.0091 -0.5286 -0.3407
    1SOL     OW 7097   1.377   2.445   2.965  0.3800 -0.4688 -0.0823
    1SOL    HW2 7098   1.304   2.395   3.001  0.2268 -1.0745 -1.2311
    1SOL    HW3 7099   1.369   2.436   2.870  0.5176  1.4904 -0.3077
    1SOL    MW4 7100   1.367   2.437   2.957  0.3780 -0.2902 -0.2637
    1SOL     OW 7101   1.331   2.689   3.116  0.0351 -0.4527 -0.0789
    1SOL    HW2 7102   1.341   2.606   3.069 -2.6146 -0.7674 -0.1710
    1SOL    HW3 7103   1.263   2.735   3.067 -1.5681 -0.0551  2.4497
    1SOL    MW4 7104   1.324   2.684   3.103 -0.5258 -0.4416  0.2425
    1SOL     OW 7105   1.552   2.822   3.001 -0.1838  1.1330 -0.2798
    1SOL    HW2 7106   1.628   2.780   3.041 -0.8170 -0.4455 -0.6744
    1SOL    HW3 7107   1.478   2.769   3.030 -0.9446  1.6605 -1.2325
    1SOL    MW4 7108   1.552   2.809   3.010 -0.3676  0.9942 -0.4578
    1SOL     OW 7109   1.596   3.063   3.128  0.3466  0.1433  0.2581
    1SOL    HW2 7110   1.601   3.066   3.224 -0.0004  0.0381  0.2808
    1SOL    HW3 7111   1.593   2.970   3.107  0.4647  0.1667  0.1435
    1SOL    MW4 7112   1.596   3.052   3.138  0.3164  0.1323  0.2458
    1SOL     OW 7113   1.361   3.214   3.023  0.3928  0.5111 -0.2485
    1SOL    HW2 7114   1.441   3.176   3.060 -0.7447 -1.0394  0.6943
    1SOL    HW3 7115   1.370   3.203   2.929  1.0493 -0.1495 -0.1123
    1SOL    MW4 7116   1.373   3.207   3.015  0.3291  0.2191 -0.1061
    1SOL     OW 7117   1.318   3.495   3.097  0.2447  0.0826  0.3267
    1SOL    HW2 7118   1.338   3.495   3.190  2.0178 -0.8962 -0.0386
    1SOL    HW3 7119   1.337   3.406   3.068  1.1576  0.7750 -1.2752
    1SOL    MW4 7120   1.323   3.483   3.105  0.5991  0.0448  0.0670
    1SOL     OW 7121   1.559   3.610   3.002 -0.5175 -0.2175 -0.2901
    1SOL    HW2 7122   1.482   3.560   3.029 -0.1226 -1.8238 -1.9940
    1SOL    HW3 7123   1.561   3.601   2.906  0.0660  2.3644 -0.5582
    1SOL    MW4 7124   1.549   3.602   2.993 -0.3884 -0.0885 -0.5503
    1SOL     OW 7125   1.569   3.854   3.148  0.2959 -0.8140  0.3577
    1SOL    HW2 7126   1.651   3.886   3.110 -0.0306  1.8952  1.8193
    1SOL    HW3 7127   1.553   3.770   3.105  1.8770  0.3953 -2.6829
    1SOL    MW4 7128   1.578   3.847   3.138  0.4615 -0.2968  0.1495
    1SOL     OW 7129   1.338   3.986   3.046 -0.4888 -0.2206  0.2358
    1SOL    HW2 7130   1.423   3.944   3.061 -0.8669 -0.3701  2.0729
    1SOL    HW3 7131   1.277   3.936   3.101 -1.8344 -0.3290 -1.3209
    1SOL    MW4 7132   1.341   3.974   3.055 -0.7162 -0.2549  0.2728
    1SOL     OW 7133   1.324   4.255   3.127 -0.1857  0.1045  0.3219
    1SOL    HW2 7134   1.309   4.167   3.093  0.7783  0.2004 -0.3486
    1SOL    HW3 7135   1.256   4.308   3.085  0.8108  0.1683 -1.2379
    1SOL    MW4 7136   1.313   4.250   3.117  0.0730  0.1254  0.0274
    1SOL     OW 7137   1.562   4.383   3.031  0.0168  0.0687  0.0141
    1SOL    HW2 7138   1.485   4.333   3.057  0.5148 -0.0862  1.2295
    1SOL    HW3 7139   1.555   4.465   3.081 -0.0668  0.6278 -0.9007
    1SOL    MW4 7140   1.551   4.387   3.041  0.0715  0.1216  0.0536
    1SOL     OW 7141   2.006   4.665   3.143  0.2716  0.0965  0.4105
    1SOL    HW2 7142   1.981   4.662   3.236 -0.3628 -0.1479  0.2313
    1SOL    HW3 7143   1.923   4.667   3.096  0.5936  0.6522 -0.1445
    1SOL    MW4 7144   1.992   4.665   3.149  0.2303  0.1378  0.3133
    1SOL     OW 7145   1.769   0.097   3.060 -0.3538 -0.0770  0.2984
    1SOL    HW2 7146   1.687   0.059   3.091 -0.5699 -0.6533 -0.9237
    1SOL    HW3 7147   1.759   0.101   2.965  0.6995  0.6363  0.2085
    1SOL    MW4 7148   1.757   0.092   3.051 -0.2433 -0.0589  0.1254
    1SOL     OW 7149   1.802   0.381   3.097  0.0036  0.1319  0.2775
    1SOL    HW2 7150   1.799   0.286   3.090 -0.5364  0.1532  0.2112
    1SOL    HW3 7151   1.711   0.409   3.085  0.0238  0.5942  1.2040
    1SOL    MW4 7152   1.790   0.372   3.094 -0.0651  0.1957  0.3910
    1SOL     OW 7153   2.027   0.527   3.056  0.4464 -0.1879 -0.1622
    1SOL    HW2 7154   1.951   0.472   3.078  0.8495 -0.7902 -0.2521
    1SOL    HW3 7155   2.102   0.474   3.081  0.8466  0.2504 -0.4394
    1SOL    MW4 7156   2.027   0.513   3.062  0.5524 -0.2095 -0.2105
    1SOL     OW 7157   2.011   0.805   3.108  0.4242  0.1253  0.1644
    1SOL    HW2 7158   1.935   0.840   3.062  0.3065 -1.1952 -0.6772
    1SOL    HW3 7159   2.008   0.711   3.090  1.8198 -0.0440  0.7754
    1SOL    MW4 7160   2.001   0.797   3.100  0.5929 -0.0713  0.1342
    1SOL     OW 7161   1.798   0.891   2.964  0.1947  0.3985  0.3109
    1SOL    HW2 7162   1.711   0.862   2.993  0.3302  0.5506  0.8660
    1SOL    HW3 7163   1.799   0.871   2.870 -0.9349  1.5902  0.0292
    1SOL    MW4 7164   1.786   0.885   2.955  0.0635  0.5758  0.3467
    1SOL     OW 7165   1.824   1.125   3.104 -0.1943 -0.0326 -0.3923
    1SOL    HW2 7166   1.817   1.099   3.196  2.0192  0.1698 -0.1270
    1SOL    HW3 7167   1.825   1.041   3.057  2.4128 -0.3299  0.1027
    1SOL    MW4 7168   1.823   1.110   3.110  0.4416 -0.0451 -0.2923
    1SOL     OW 7169   2.019   1.301   2.997  0.5612  0.1817  0.4560
    1SOL    HW2 7170   2.104   1.261   3.014  0.1766 -1.4107 -1.1725
    1SOL    HW3 7171   1.956   1.239   3.033  0.0117  0.1239 -0.6062
    1SOL    MW4 7172   2.022   1.288   3.004  0.4377 -0.0360  0.1011
    1SOL     OW 7173   2.049   1.555   3.108  0.2954  0.1294 -0.6047
    1SOL    HW2 7174   2.050   1.559   3.204 -1.0029  0.5857 -0.6081
    1SOL    HW3 7175   2.038   1.463   3.088  0.0906  0.0918 -0.3184
    1SOL    MW4 7176   2.048   1.544   3.118  0.0966  0.1845 -0.5672
    1SOL     OW 7177   1.819   1.691   3.007  0.5669  0.5810 -0.2832
    1SOL    HW2 7178   1.810   1.777   3.048  2.4864  0.6651  0.0314
    1SOL    HW3 7179   1.887   1.648   3.059 -0.3627 -1.1239 -0.4637
    1SOL    MW4 7180   1.827   1.697   3.020  0.6977  0.3672 -0.2654
    1SOL     OW 7181   1.769   1.947   3.155 -0.1579 -0.1637  0.2432
    1SOL    HW2 7182   1.849   1.990   3.125  0.0149 -0.7480 -0.1453
    1SOL    HW3 7183   1.699   1.989   3.105  0.0489 -0.5809 -0.4061
    1SOL    MW4 7184   1.770   1.958   3.144 -0.1078 -0.2959  0.1061
    1SOL     OW 7185   2.026   2.013   3.056  0.2231  0.7365 -0.4766
    1SOL    HW2 7186   2.106   1.972   3.088  0.1061  0.0153 -1.0926
    1SOL    HW3 7187   2.031   2.103   3.088  0.1045  0.0478  1.5794
    1SOL    MW4 7188   2.037   2.020   3.065  0.1922  0.5505 -0.2863
    1SOL     OW 7189   1.996   2.277   3.144  0.5990 -0.1336 -0.4971
    1SOL    HW2 7190   2.074   2.304   3.095  0.7318  0.5231  0.0750
    1SOL    HW3 7191   1.928   2.338   3.115  0.7414  0.4169  0.3251
    1SOL    MW4 7192   1.998   2.289   3.134  0.6355  0.0257 -0.3128
    1SOL     OW 7193   1.797   2.440   3.040 -0.0308  0.4275  0.0392
    1SOL    HW2 7194   1.791   2.534   3.058  0.1038  0.3518  0.4861
    1SOL    HW3 7195   1.722   2.402   3.087  1.0029  0.0852  1.4354
    1SOL    MW4 7196   1.786   2.447   3.049  0.1233  0.3722  0.2823
    1SOL     OW 7197   1.780   2.709   3.124 -0.0973 -0.2625  0.3121
    1SOL    HW2 7198   1.779   2.714   3.219 -0.1484  1.4456  0.2375
    1SOL    HW3 7199   1.857   2.760   3.098 -1.2244  1.0037 -0.6334
    1SOL    MW4 7200   1.790   2.716   3.133 -0.2528  0.1299  0.1774
    1SOL     OW 7201   2.053   2.819   3.039  0.1135 -0.9562 -0.6626
    1SOL    HW2 7202   2.045   2.913   3.056 -0.0725 -1.1510  0.2945
    1SOL    HW3 7203   2.048   2.812   2.943 -1.2625 -0.1328 -0.6573
    1SOL    MW4 7204   2.051   2.831   3.028 -0.0927 -0.8733 -0.5352
    1SOL     OW 7205   2.045   3.090   3.124 -0.0763  0.2108  0.1072
    1SOL    HW2 7206   2.036   3.100   3.219  0.1077 -0.8043  0.2350
    1SOL    HW3 7207   1.974   3.143   3.088 -0.7417 -0.1695  0.8391
    1SOL    MW4 7208   2.034   3.098   3.132 -0.1400  0.0267  0.2205
    1SOL     OW 7209   1.820   3.209   3.010 -0.6080  0.1961  0.2284
    1SOL    HW2 7210   1.739   3.170   3.043 -0.9797  0.0159 -0.8481
    1SOL    HW3 7211   1.821   3.185   2.917 -0.4955  2.1396 -0.2998
    1SOL    MW4 7212   1.809   3.201   3.002 -0.6422  0.4287  0.0169
    1SOL     OW 7213   1.798   3.479   3.083 -0.2645  0.1536  0.0057
    1SOL    HW2 7214   1.808   3.388   3.055  0.3654  0.0248  0.6538
    1SOL    HW3 7215   1.712   3.504   3.051  0.4866  0.0550 -2.2234
    1SOL    MW4 7216   1.788   3.471   3.075 -0.0824  0.1237 -0.2031
    1SOL     OW 7217   2.034   3.600   2.993  0.3963 -0.3174 -0.6316
    1SOL    HW2 7218   2.040   3.681   3.044  1.4679 -1.1549  0.6026
    1SOL    HW3 7219   1.954   3.557   3.025  0.6679 -0.4879 -0.1793
    1SOL    MW4 7220   2.024   3.605   3.004  0.5736 -0.4501 -0.4094
    1SOL     OW 7221   2.030   3.836   3.147  0.0693 -0.1216 -0.0411
    1SOL    HW2 7222   2.032   3.856   3.240 -0.0013 -1.1849  0.1948
    1SOL    HW3 7223   1.952   3.881   3.115  0.2737  0.5212  0.3392
    1SOL    MW4 7224   2.020   3.845   3.155  0.0870 -0.1771  0.0401
    1SOL     OW 7225   1.821   3.965   3.029 -0.3703 -0.2366 -0.2457
    1SOL    HW2 7226   1.824   4.060   3.045  0.7537 -0.4072  0.6454
    1SOL    HW3 7227   1.821   3.956   2.934  0.4358  0.6414 -0.3365
    1SOL    MW4 7228   1.821   3.977   3.019 -0.1156 -0.1435 -0.1400
    1SOL     OW 7229   1.778   4.231   3.111  0.1942  0.6102 -0.4080
    1SOL    HW2 7230   1.854   4.284   3.089 -0.1821  1.6582  0.7911
    1SOL    HW3 7231   1.703   4.284   3.085 -0.1722  0.4382  0.2918
    1SOL    MW4 7232   1.778   4.245   3.105  0.0963  0.7257 -0.1574
    1SOL     OW 7233   2.011   4.394   3.049 -0.0755  0.5960  0.1729
    1SOL    HW2 7234   2.006   4.485   3.078 -1.5207  0.6046 -0.0635
    1SOL    HW3 7235   2.009   4.398   2.954  1.8251  0.4124  0.1149
    1SOL    MW4 7236   2.010   4.407   3.040 -0.0157  0.5727  0.1340
    1SOL     OW 7237   2.484   0.020   3.106 -0.5364 -0.2013  0.0495
    1SOL    HW2 7238   2.474  -0.074   3.095 -0.2924 -0.0752 -1.2745
    1SOL    HW3 7239   2.398   0.057   3.086 -1.1390 -0.2628  2.3098
    1SOL    MW4 7240   2.471   0.013   3.102 -0.5839 -0.1927  0.1733
    1SOL     OW 7241   2.232   0.112   3.040 -0.0885 -0.3753  0.5279
    1SOL    HW2 7242   2.229   0.194   3.089 -2.5841  0.6604 -1.2459
    1SOL    HW3 7243   2.161   0.059   3.076  1.0900 -1.5368  1.2155
    1SOL    MW4 7244   2.222   0.116   3.051 -0.2625 -0.3919  0.3846
    1SOL     OW 7245   2.249   0.373   3.158 -0.0723  0.1557  0.0458
    1SOL    HW2 7246   2.231   0.376   3.252  1.0594 -0.3742  0.2880
    1SOL    HW3 7247   2.333   0.418   3.148  0.8462 -1.6255 -0.4266
    1SOL    MW4 7248   2.258   0.379   3.169  0.1981 -0.1492  0.0153
    1SOL     OW 7249   2.464   0.526   3.058  0.1640  0.6133  0.1307
    1SOL    HW2 7250   2.551   0.488   3.067  0.0260  0.2036 -0.2301
    1SOL    HW3 7251   2.440   0.507   2.967  0.0348  1.4332 -0.0040
    1SOL    MW4 7252   2.472   0.518   3.047  0.1287  0.6674  0.0651
    1SOL     OW 7253   2.470   0.798   3.123  0.4242  0.2847  0.0054
    1SOL    HW2 7254   2.554   0.832   3.092  0.5984  0.3311  0.5225
    1SOL    HW3 7255   2.471   0.705   3.099  0.5233  0.3380 -0.1970
    1SOL    MW4 7256   2.481   0.790   3.116  0.4601  0.2978  0.0470
    1SOL     OW 7257   2.245   0.900   2.979  0.1090  0.2507 -0.2677
    1SOL    HW2 7258   2.324   0.867   3.021  0.1370 -0.3438 -0.7697
    1SOL    HW3 7259   2.173   0.862   3.030  0.1421 -0.5456 -0.7982
    1SOL    MW4 7260   2.246   0.891   2.991  0.1168  0.0672 -0.4041
    1SOL     OW 7261   2.231   1.163   3.106  0.2372  0.3482 -0.0542
    1SOL    HW2 7262   2.215   1.161   3.200 -1.4961 -0.0903 -0.3404
    1SOL    HW3 7263   2.242   1.071   3.082  2.3081  0.5729 -0.0293
    1SOL    MW4 7264   2.230   1.151   3.115  0.2818  0.3200 -0.0885
    1SOL     OW 7265   2.473   1.262   3.011  0.2774 -0.2750  0.2233
    1SOL    HW2 7266   2.389   1.222   3.035  0.6668 -0.9556  0.4728
    1SOL    HW3 7267   2.470   1.268   2.916  0.4050 -1.3386  0.1462
    1SOL    MW4 7268   2.461   1.258   3.002  0.3455 -0.5052  0.2463
    1SOL     OW 7269   2.519   1.531   3.092  0.1371  0.2455 -0.4881
    1SOL    HW2 7270   2.440   1.580   3.069 -0.0821  0.0203 -0.2241
    1SOL    HW3 7271   2.494   1.439   3.079 -0.3854  0.0408  1.7960
    1SOL    MW4 7272   2.505   1.525   3.087  0.0391  0.1888 -0.1519
    1SOL     OW 7273   2.291   1.661   3.009 -0.3201  0.1722  0.2901
    1SOL    HW2 7274   2.206   1.631   3.041  0.1336 -0.4122  0.9682
    1SOL    HW3 7275   2.284   1.658   2.914 -0.9986 -0.0424  0.3474
    1SOL    MW4 7276   2.279   1.656   3.001 -0.3495  0.0666  0.3872
    1SOL     OW 7277   2.263   1.908   3.151 -0.2556  0.1287 -0.3272
    1SOL    HW2 7278   2.323   1.971   3.113  1.8720 -0.3695  2.0394
    1SOL    HW3 7279   2.284   1.825   3.108  1.9021 -0.3612  1.5349
    1SOL    MW4 7280   2.273   1.905   3.140  0.3099 -0.0015  0.2306
    1SOL     OW 7281   2.484   2.043   3.017 -0.4036  0.3013 -0.2278
    1SOL    HW2 7282   2.560   1.997   3.053 -0.6099  0.6551  0.6694
    1SOL    HW3 7283   2.493   2.034   2.922 -0.5354 -1.7439 -0.0708
    1SOL    MW4 7284   2.495   2.035   3.010 -0.4482  0.0782 -0.0889
    1SOL     OW 7285   2.465   2.296   3.089  0.3600  0.3979 -0.3168
    1SOL    HW2 7286   2.472   2.302   3.185  0.0663  0.3958 -0.2957
    1SOL    HW3 7287   2.464   2.202   3.071  1.1222  0.3988 -0.3721
    1SOL    MW4 7288   2.466   2.284   3.100  0.4218  0.3977 -0.3211
    1SOL     OW 7289   2.212   2.377   3.024 -0.3306 -0.6573  0.1336
    1SOL    HW2 7290   2.199   2.463   3.063  0.1704 -0.1493 -0.8164
    1SOL    HW3 7291   2.298   2.349   3.057 -0.9380 -1.2353  1.2484
    1SOL    MW4 7292   2.222   2.384   3.034 -0.3445 -0.6666  0.1554
    1SOL     OW 7293   2.231   2.650   3.158  0.1617 -0.3212  0.0298
    1SOL    HW2 7294   2.317   2.687   3.137  0.2951 -1.0323 -0.6694
    1SOL    HW3 7295   2.169   2.707   3.112  0.3924 -1.2129 -1.4161
    1SOL    MW4 7296   2.234   2.663   3.149  0.2098 -0.5329 -0.2532
    1SOL     OW 7297   2.458   2.768   3.049  0.2902  0.1308 -0.3576
    1SOL    HW2 7298   2.461   2.860   3.075 -0.4434  0.0621 -0.0172
    1SOL    HW3 7299   2.449   2.771   2.954  0.7699  0.4067 -0.3960
    1SOL    MW4 7300   2.457   2.781   3.040  0.2568  0.1581 -0.3178
    1SOL     OW 7301   2.491   3.039   3.104 -0.0961 -0.3111  0.4945
    1SOL    HW2 7302   2.564   3.097   3.082 -0.1683 -0.2604  0.3935
    1SOL    HW3 7303   2.413   3.084   3.073 -0.0724 -0.8540 -0.3677
    1SOL    MW4 7304   2.491   3.052   3.097 -0.1025 -0.3762  0.3674
    1SOL     OW 7305   2.278   3.193   3.004 -0.1745 -0.4278  0.3217
    1SOL    HW2 7306   2.264   3.287   3.012 -0.9298 -0.3314 -1.8278
    1SOL    HW3 7307   2.210   3.154   3.058  1.0351  0.2422  2.3998
    1SOL    MW4 7308   2.267   3.200   3.012 -0.1147 -0.3269  0.3126
    1SOL     OW 7309   2.266   3.467   3.075  0.6442 -0.4146  0.7839
    1SOL    HW2 7310   2.345   3.516   3.051  0.2691  0.6704  1.7376
    1SOL    HW3 7311   2.194   3.525   3.051  0.1150 -1.4183 -0.1294
    1SOL    MW4 7312   2.267   3.481   3.068  0.5248 -0.4041  0.7894
    1SOL     OW 7313   2.470   3.642   3.003  0.0541  0.6120  0.1047
    1SOL    HW2 7314   2.542   3.594   3.044  0.7597  0.6847 -1.0180
    1SOL    HW3 7315   2.468   3.726   3.049  0.1270  0.2911  0.7053
    1SOL    MW4 7316   2.479   3.647   3.015  0.1571  0.5791  0.0358
    1SOL     OW 7317   2.446   3.899   3.110 -0.6956  0.7205  0.3244
    1SOL    HW2 7318   2.447   3.883   3.204  0.0199  0.2209  0.2399
    1SOL    HW3 7319   2.526   3.949   3.093  0.1021 -0.6975 -0.2538
    1SOL    MW4 7320   2.457   3.903   3.120 -0.4959  0.4673  0.2367
    1SOL     OW 7321   2.216   4.026   3.015  0.1793 -0.2620  1.0761
    1SOL    HW2 7322   2.295   3.975   3.034 -0.1816 -1.9021 -1.5350
    1SOL    HW3 7323   2.144   3.970   3.047 -0.0415  0.2442  1.4678
    1SOL    MW4 7324   2.217   4.012   3.022  0.1028 -0.4120  0.7832
    1SOL     OW 7325   2.248   4.284   3.138 -0.7993  0.0300  0.0004
    1SOL    HW2 7326   2.229   4.192   3.120 -1.8379  0.0675  0.8606
    1SOL    HW3 7327   2.169   4.331   3.110 -1.1694  0.4169  1.6184
    1SOL    MW4 7328   2.235   4.278   3.132 -0.9854  0.0858  0.3276
    1SOL     OW 7329   2.470   4.427   3.050  0.6131  0.1759  0.0647
    1SOL    HW2 7330   2.391   4.381   3.080  0.9711 -1.0132 -0.7728
    1SOL    HW3 7331   2.478   4.402   2.957  1.8582  0.4519  0.0926
    1SOL    MW4 7332   2.460   4.417   3.041  0.8247  0.0553 -0.0422
    1SOL     OW 7333   2.934   0.014   3.141 -0.1349  0.1614 -0.3910
    1SOL    HW2 7334   3.010   0.057   3.101 -0.8111  0.4844 -1.3293
    1SOL    HW3 7335   2.922  -0.066   3.091  0.4023 -0.5562  0.6152
    1SOL    MW4 7336   2.942   0.009   3.129 -0.1531  0.1094 -0.3819
    1SOL     OW 7337   2.710   0.149   2.993 -0.5214 -0.4261 -0.2757
    1SOL    HW2 7338   2.785   0.100   3.027 -0.1208  0.4352  0.1040
    1SOL    HW3 7339   2.634   0.112   3.037 -0.0907  0.1181  0.9431
    1SOL    MW4 7340   2.710   0.138   3.003 -0.4115 -0.2407 -0.0648
    1SOL     OW 7341   2.755   0.394   3.125 -0.2539  0.1314 -0.2050
    1SOL    HW2 7342   2.738   0.308   3.087  2.0241 -0.1114 -0.6928
    1SOL    HW3 7343   2.722   0.387   3.215  0.1218 -1.3052 -0.1701
    1SOL    MW4 7344   2.748   0.382   3.132  0.0966 -0.0902 -0.2646
    1SOL     OW 7345   2.987   0.531   3.015 -0.0095  0.2814  0.0631
    1SOL    HW2 7346   2.905   0.489   3.039  0.4044 -0.4803  0.1746
    1SOL    HW3 7347   2.989   0.528   2.919  0.7113 -1.3183  0.1182
    1SOL    MW4 7348   2.977   0.525   3.005  0.1402 -0.0302  0.0854
    1SOL     OW 7349   2.947   0.781   3.132  0.4090 -0.0788 -0.1374
    1SOL    HW2 7350   2.939   0.767   3.226  1.4857  0.6352  0.0725
    1SOL    HW3 7351   2.977   0.697   3.097  0.0410 -0.3348  0.1639
    1SOL    MW4 7352   2.950   0.768   3.140  0.5023 -0.0184 -0.0699
    1SOL     OW 7353   2.702   0.901   3.029 -0.1736 -0.0350 -0.3277
    1SOL    HW2 7354   2.721   0.988   3.063 -2.9271  0.1950  0.7271
    1SOL    HW3 7355   2.768   0.844   3.068 -0.0934  1.1162  1.2396
    1SOL    MW4 7356   2.713   0.905   3.038 -0.5264  0.1473  0.0181
    1SOL     OW 7357   2.731   1.178   3.104 -0.0966 -0.4406 -0.7693
    1SOL    HW2 7358   2.803   1.215   3.053 -0.4249 -0.3533 -1.1739
    1SOL    HW3 7359   2.652   1.212   3.062 -0.3580  0.4449  0.3985
    1SOL    MW4 7360   2.730   1.188   3.092 -0.1743 -0.3123 -0.6688
    1SOL     OW 7361   2.941   1.333   2.975  0.1800  0.1095 -0.2815
    1SOL    HW2 7362   3.023   1.300   3.013 -0.0216  0.4774  0.4758
    1SOL    HW3 7363   2.927   1.417   3.018 -0.1420  0.4563 -1.0531
    1SOL    MW4 7364   2.950   1.339   2.985  0.1106  0.2040 -0.2835
    1SOL     OW 7365   2.960   1.590   3.074 -0.4008  0.2573  0.9485
    1SOL    HW2 7366   2.973   1.577   3.168 -0.9576 -0.0556  0.9861
    1SOL    HW3 7367   3.047   1.611   3.041 -0.1207 -0.0644  1.4663
    1SOL    MW4 7368   2.973   1.591   3.082 -0.4375  0.1736  1.0216
    1SOL     OW 7369   2.715   1.686   2.957  0.1952  0.4466 -0.2935
    1SOL    HW2 7370   2.795   1.651   2.996 -0.1755  1.2298  1.1960
    1SOL    HW3 7371   2.646   1.626   2.986 -0.0888  1.0490  0.2920
    1SOL    MW4 7372   2.716   1.673   2.966  0.1087  0.6294 -0.0198
    1SOL     OW 7373   2.722   1.913   3.130 -0.0147  0.0232  0.2247
    1SOL    HW2 7374   2.792   1.957   3.082  0.8261  0.0477  1.4848
    1SOL    HW3 7375   2.708   1.831   3.081  1.1106 -0.1380  0.1592
    1SOL    MW4 7376   2.729   1.908   3.117  0.2446  0.0051  0.3822
    1SOL     OW 7377   2.945   2.036   2.995  0.1140  0.2967  0.3389
    1SOL    HW2 7378   2.960   2.110   3.054  3.0021  0.2194 -0.2462
    1SOL    HW3 7379   2.923   2.076   2.911 -1.2338  0.4192  0.7252
    1SOL    MW4 7380   2.944   2.051   2.992  0.3173  0.3028  0.3126
    1SOL     OW 7381   2.938   2.283   3.139 -0.1442  0.0397  0.0312
    1SOL    HW2 7382   3.017   2.318   3.098 -1.1370  0.7476 -1.3453
    1SOL    HW3 7383   2.867   2.338   3.105 -1.4486 -1.7463 -0.2191
    1SOL    MW4 7384   2.939   2.295   3.129 -0.4473 -0.1025 -0.1833
    1SOL     OW 7385   2.709   2.410   3.018  0.2043 -0.1416  0.0852
    1SOL    HW2 7386   2.701   2.499   3.053  1.3917 -1.1398  3.1311
    1SOL    HW3 7387   2.621   2.372   3.027 -0.4453  0.8850 -1.7781
    1SOL    MW4 7388   2.696   2.416   3.024  0.2754 -0.1378  0.2413
    1SOL     OW 7389   2.706   2.672   3.124 -0.2696  0.1649  0.2997
    1SOL    HW2 7390   2.714   2.682   3.218 -0.7284  0.5819  0.2930
    1SOL    HW3 7391   2.622   2.712   3.102  0.1743  0.7295 -0.3848
    1SOL    MW4 7392   2.696   2.679   3.133 -0.2716  0.2942  0.2086
    1SOL     OW 7393   2.898   2.811   3.002 -0.3105  0.0340  0.0883
    1SOL    HW2 7394   2.975   2.769   3.041  1.1171  0.6608 -1.9847
    1SOL    HW3 7395   2.824   2.757   3.030  1.1456 -2.0060  0.0893
    1SOL    MW4 7396   2.899   2.799   3.011  0.0701 -0.1526 -0.1855
    1SOL     OW 7397   2.898   3.073   3.100  0.2427  0.3489  0.1514
    1SOL    HW2 7398   2.823   3.120   3.062 -0.0525  0.4823  0.8920
    1SOL    HW3 7399   2.871   2.981   3.098  0.9659  0.1606 -1.6259
    1SOL    MW4 7400   2.884   3.067   3.095  0.2997  0.3419  0.0145
    1SOL     OW 7401   2.683   3.232   3.024 -0.1745  0.7324 -0.4128
    1SOL    HW2 7402   2.690   3.324   3.050  0.4238  0.0066  2.1574
    1SOL    HW3 7403   2.704   3.231   2.931 -1.0379  3.3047 -0.6590
    1SOL    MW4 7404   2.687   3.244   3.016 -0.2093  0.9761 -0.1059
    1SOL     OW 7405   2.698   3.509   3.102  0.2454 -0.7768 -0.4075
    1SOL    HW2 7406   2.694   3.492   3.196  0.6361  0.0552 -0.2396
    1SOL    HW3 7407   2.785   3.545   3.087 -0.8341  1.9039 -0.6008
    1SOL    MW4 7408   2.709   3.512   3.112  0.1545 -0.3133 -0.4108
    1SOL     OW 7409   2.948   3.607   3.011 -0.0752 -0.2244 -0.2582
    1SOL    HW2 7410   3.019   3.553   3.045  0.6297 -1.3175 -3.3754
    1SOL    HW3 7411   2.974   3.697   3.031  0.7859 -0.7747  1.1554
    1SOL    MW4 7412   2.961   3.612   3.018  0.1314 -0.4411 -0.4830
    1SOL     OW 7413   2.945   3.873   3.114  0.0731 -0.0562  0.0390
    1SOL    HW2 7414   2.939   3.864   3.209  0.2947 -0.5424  0.0066
    1SOL    HW3 7415   2.863   3.915   3.089 -0.1742 -0.3266  0.3934
    1SOL    MW4 7416   2.933   3.877   3.123  0.0699 -0.1559  0.0815
    1SOL     OW 7417   2.703   4.021   3.053 -0.0871  0.2481 -0.3804
    1SOL    HW2 7418   2.700   4.116   3.065  1.3883  0.3686 -0.9283
    1SOL    HW3 7419   2.680   4.007   2.961  0.6009  0.1341 -0.5346
    1SOL    MW4 7420   2.699   4.031   3.043  0.1988  0.2489 -0.4730
    1SOL     OW 7421   2.707   4.332   3.147 -0.2845  0.3914 -0.3738
    1SOL    HW2 7422   2.713   4.304   3.239  1.3443 -1.6128 -1.0476
    1SOL    HW3 7423   2.615   4.355   3.135 -0.7720 -0.5093  1.4531
    1SOL    MW4 7424   2.695   4.331   3.158 -0.1338  0.0081 -0.2217
    1SOL     OW 7425   2.918   4.432   2.976  0.0312  0.1516 -0.1290
    1SOL    HW2 7426   2.992   4.382   3.012 -0.1351 -0.4878 -0.6673
    1SOL    HW3 7427   2.842   4.397   3.021 -0.0114  0.3936 -0.0130
    1SOL    MW4 7428   2.918   4.421   2.987  0.0036  0.0992 -0.1850
    1SOL     OW 7429   3.340   4.639   3.112 -0.1816  0.4177  0.0903
    1SOL    HW2 7430   3.417   4.694   3.095 -0.2244  0.5986  0.4632
    1SOL    HW3 7431   3.348   4.567   3.050  0.5968  0.1297  0.5178
    1SOL    MW4 7432   3.351   4.637   3.101 -0.0846  0.4034  0.1957
    1SOL     OW 7433   3.142   0.137   3.009 -0.1639 -0.3398  0.3923
    1SOL    HW2 7434   3.164   0.221   3.049 -1.1496  0.0734  0.0814
    1SOL    HW3 7435   3.203   0.075   3.049  0.0307  0.3731  1.2280
    1SOL    MW4 7436   3.153   0.140   3.019 -0.2685 -0.1912  0.4616
    1SOL     OW 7437   3.182   0.389   3.153  0.2238  0.0121 -0.0747
    1SOL    HW2 7438   3.263   0.427   3.118  1.0297 -0.3308  1.3640
    1SOL    HW3 7439   3.112   0.439   3.112  1.1373 -0.2293 -1.9792
    1SOL    MW4 7440   3.184   0.400   3.143  0.4506 -0.0650 -0.1364
    1SOL     OW 7441   3.393   0.549   3.034  0.4093  0.0526  0.4049
    1SOL    HW2 7442   3.464   0.494   3.068 -0.0084 -1.2846 -0.8998
    1SOL    HW3 7443   3.396   0.537   2.939 -2.3648 -0.9828  0.4227
    1SOL    MW4 7444   3.403   0.540   3.026 -0.0122 -0.2604  0.2351
    1SOL     OW 7445   3.349   0.806   3.107 -0.1532 -0.4660 -0.2876
    1SOL    HW2 7446   3.359   0.814   3.201 -0.0960 -0.5629 -0.2859
    1SOL    HW3 7447   3.362   0.713   3.089 -0.6381 -0.5267 -0.3315
    1SOL    MW4 7448   3.352   0.795   3.117 -0.2098 -0.4868 -0.2933
    1SOL     OW 7449   3.123   0.952   3.026 -0.3958  0.1606  0.0617
    1SOL    HW2 7450   3.206   0.907   3.041  0.7995  1.9867 -0.9056
    1SOL    HW3 7451   3.057   0.891   3.060  1.2286 -1.8156 -0.1983
    1SOL    MW4 7452   3.125   0.938   3.033 -0.0236  0.1408 -0.1004
    1SOL     OW 7453   3.174   1.209   3.104 -0.1508 -0.2977 -0.0166
    1SOL    HW2 7454   3.258   1.225   3.061  0.6048 -1.1500  1.1212
    1SOL    HW3 7455   3.159   1.115   3.092  0.5069 -0.7228  2.3447
    1SOL    MW4 7456   3.183   1.199   3.096  0.0358 -0.4662  0.4449
    1SOL     OW 7457   3.426   1.285   3.005 -0.0482  1.0264  0.0216
    1SOL    HW2 7458   3.493   1.239   3.055 -1.3763 -1.3519 -0.3360
    1SOL    HW3 7459   3.426   1.374   3.042  2.2807  0.6689  0.9797
    1SOL    MW4 7460   3.435   1.291   3.017  0.0839  0.6654  0.1011
    1SOL     OW 7461   3.380   1.521   3.113  0.2838 -0.2859 -0.1324
    1SOL    HW2 7462   3.378   1.519   3.209  0.5772 -0.3570 -0.1256
    1SOL    HW3 7463   3.454   1.578   3.092  0.2734 -0.3404 -0.3180
    1SOL    MW4 7464   3.390   1.529   3.123  0.3211 -0.3024 -0.1559
    1SOL     OW 7465   3.195   1.655   2.979  0.1725  0.2243  0.4033
    1SOL    HW2 7466   3.273   1.612   3.015  1.0654  0.4789 -1.1533
    1SOL    HW3 7467   3.198   1.744   3.014  1.2486  0.5889 -0.5339
    1SOL    MW4 7468   3.206   1.661   2.988  0.4325  0.3060  0.0741
    1SOL     OW 7469   3.175   1.898   3.091  0.1938 -0.3578  0.0339
    1SOL    HW2 7470   3.156   1.881   3.183  1.1305 -0.3023  0.2429
    1SOL    HW3 7471   3.095   1.938   3.057 -0.1762 -0.4289  0.8123
    1SOL    MW4 7472   3.162   1.901   3.099  0.2685 -0.3599  0.1643
    1SOL     OW 7473   3.383   2.067   3.008 -0.5044 -0.0252 -0.5278
    1SOL    HW2 7474   3.466   2.027   3.032 -0.3607  0.2114 -0.6250
    1SOL    HW3 7475   3.317   2.000   3.026 -0.4414  0.2825  0.8794
    1SOL    MW4 7476   3.385   2.053   3.013 -0.4773  0.0465 -0.3550
    1SOL     OW 7477   3.414   2.334   3.051  0.0448  0.3012 -0.1128
    1SOL    HW2 7478   3.409   2.338   3.146 -1.5877 -0.1541 -0.1698
    1SOL    HW3 7479   3.410   2.241   3.030 -0.8092  0.4556 -0.6784
    1SOL    MW4 7480   3.413   2.322   3.060 -0.2832  0.2613 -0.1950
    1SOL     OW 7481   3.145   2.385   3.010 -0.0435  0.6528 -0.5598
    1SOL    HW2 7482   3.234   2.356   3.031  0.2466  1.1997 -0.9975
    1SOL    HW3 7483   3.145   2.479   3.029 -0.2003  0.8700 -1.5957
    1SOL    MW4 7484   3.157   2.394   3.015 -0.0257  0.7539 -0.7544
    1SOL     OW 7485   3.122   2.663   3.075 -0.3164  0.0348  0.0742
    1SOL    HW2 7486   3.184   2.717   3.026 -0.7899  0.9835  0.5016
    1SOL    HW3 7487   3.139   2.684   3.167 -0.0874 -1.0077  0.2697
    1SOL    MW4 7488   3.132   2.673   3.081 -0.3488  0.0224  0.1562
    1SOL     OW 7489   3.356   2.824   3.008  0.8563 -0.0901 -0.4204
    1SOL    HW2 7490   3.430   2.781   3.051  0.2557 -0.5453  0.1689
    1SOL    HW3 7491   3.358   2.914   3.041  0.9124 -0.2095 -0.1022
    1SOL    MW4 7492   3.366   2.831   3.018  0.7844 -0.1659 -0.3006
    1SOL     OW 7493   3.361   3.066   3.126 -0.0169 -0.0572 -0.2838
    1SOL    HW2 7494   3.292   3.112   3.078 -0.0178 -0.3033 -0.5193
    1SOL    HW3 7495   3.335   3.074   3.218 -0.0639  0.3363 -0.3289
    1SOL    MW4 7496   3.348   3.073   3.131 -0.0234 -0.0379 -0.3209
    1SOL     OW 7497   3.133   3.213   3.035 -0.1866 -0.6498 -0.1993
    1SOL    HW2 7498   3.056   3.160   3.059  0.3325 -1.1544  0.3576
    1SOL    HW3 7499   3.126   3.222   2.940 -0.7430 -0.9975 -0.1996
    1SOL    MW4 7500   3.122   3.207   3.025 -0.1917 -0.7620 -0.1256
    1SOL     OW 7501   3.136   3.461   3.154  0.2345  0.1146  0.6562
    1SOL    HW2 7502   3.209   3.499   3.106  1.4330 -0.7862  1.7341
    1SOL    HW3 7503   3.133   3.370   3.124 -1.3721  0.5056 -0.4456
    1SOL    MW4 7504   3.145   3.454   3.144  0.1805  0.0470  0.6535
    1SOL     OW 7505   3.345   3.563   3.009  0.7569 -0.1513 -0.3679
    1SOL    HW2 7506   3.429   3.525   3.037  0.3635 -0.9091 -0.2246
    1SOL    HW3 7507   3.356   3.657   3.024  1.9934 -0.1109 -1.4183
    1SOL    MW4 7508   3.358   3.571   3.015  0.8681 -0.2458 -0.4876
    1SOL     OW 7509   3.335   3.841   3.058  0.1031  0.3249 -0.2096
    1SOL    HW2 7510   3.325   3.833   3.153  1.9693 -1.0374 -0.1144
    1SOL    HW3 7511   3.264   3.900   3.032 -0.9991 -0.0120  1.9027
    1SOL    MW4 7512   3.324   3.847   3.067  0.2041  0.1009  0.0818
    1SOL     OW 7513   3.141   4.047   3.039  0.4756 -0.3564 -1.0991
    1SOL    HW2 7514   3.066   3.991   3.061 -1.1973  2.3136  0.2196
    1SOL    HW3 7515   3.141   4.050   2.944 -1.2072 -0.2713 -1.1124
    1SOL    MW4 7516   3.131   4.040   3.030  0.0327  0.0067 -0.9270
    1SOL     OW 7517   3.126   4.307   3.119 -0.2776 -0.3271  0.3229
    1SOL    HW2 7518   3.118   4.317   3.214  1.6802  1.1611  0.3499
    1SOL    HW3 7519   3.128   4.212   3.105 -0.6011 -0.5564  1.7684
    1SOL    MW4 7520   3.125   4.296   3.129 -0.0620 -0.1612  0.5174
    1SOL     OW 7521   3.361   4.374   3.011  0.1409 -0.1302  0.0285
    1SOL    HW2 7522   3.429   4.339   3.068  0.0484 -2.0565 -1.0179
    1SOL    HW3 7523   3.279   4.356   3.057  0.1461 -0.4586 -0.0951
    1SOL    MW4 7524   3.359   4.367   3.025  0.1295 -0.4277 -0.1256
    1SOL     OW 7525   3.815   4.640   3.102 -0.1493 -0.5050  0.2143
    1SOL    HW2 7526   3.808   4.557   3.053 -0.0769 -0.4217  0.0621
    1SOL    HW3 7527   3.725   4.674   3.102 -0.1268 -0.4451  0.0335
    1SOL    MW4 7528   3.802   4.633   3.095 -0.1369 -0.4861  0.1702
    1SOL     OW 7529   3.570   0.115   3.031 -0.2570  0.0569 -0.1684
    1SOL    HW2 7530   3.585   0.205   3.057 -1.1088  1.0271 -2.8750
    1SOL    HW3 7531   3.578   0.115   2.935  0.2974 -2.8389 -0.1780
    1SOL    MW4 7532   3.573   0.127   3.021 -0.2964 -0.1972 -0.5269
    1SOL     OW 7533   3.601   0.368   3.126 -0.3380 -0.3414  0.0750
    1SOL    HW2 7534   3.617   0.375   3.220  0.5961 -0.2470 -0.0845
    1SOL    HW3 7535   3.681   0.403   3.085 -0.8565 -0.1026 -0.7510
    1SOL    MW4 7536   3.614   0.373   3.133 -0.2832 -0.2974 -0.0548
    1SOL     OW 7537   3.828   0.476   3.034 -0.5853  0.0540 -0.3348
    1SOL    HW2 7538   3.910   0.437   3.064  0.2627 -1.1189 -3.9239
    1SOL    HW3 7539   3.828   0.564   3.070  1.4389 -0.5124  1.1054
    1SOL    MW4 7540   3.839   0.482   3.042 -0.2065 -0.1755 -0.6185
    1SOL     OW 7541   3.823   0.741   3.124  0.1467 -1.0205  0.2406
    1SOL    HW2 7542   3.829   0.745   3.219 -1.0530  0.3466  0.2766
    1SOL    HW3 7543   3.901   0.787   3.093  0.7187 -1.7697  0.5472
    1SOL    MW4 7544   3.834   0.748   3.133  0.0637 -0.9390  0.2859
    1SOL     OW 7545   3.602   0.902   3.043  0.4341  0.5733 -0.2686
    1SOL    HW2 7546   3.666   0.837   3.073  0.1947 -0.1635 -1.3104
    1SOL    HW3 7547   3.518   0.865   3.070  0.2861  0.3736 -1.0048
    1SOL    MW4 7548   3.599   0.888   3.051  0.3829  0.4498 -0.5033
    1SOL     OW 7549   3.636   1.158   3.130 -0.1723 -0.4753 -0.0620
    1SOL    HW2 7550   3.708   1.196   3.080 -0.0745  0.5634  0.8326
    1SOL    HW3 7551   3.629   1.068   3.099  1.4564 -0.5531 -0.2263
    1SOL    MW4 7552   3.645   1.151   3.119  0.0560 -0.3487  0.0341
    1SOL     OW 7553   3.846   1.285   2.999 -0.2239 -0.2731  0.0468
    1SOL    HW2 7554   3.841   1.373   3.039 -1.1471 -0.3799  0.1979
    1SOL    HW3 7555   3.862   1.302   2.906 -0.5560  0.0691  0.0481
    1SOL    MW4 7556   3.847   1.299   2.992 -0.3896 -0.2420  0.0668
    1SOL     OW 7557   3.837   1.535   3.124  0.2567 -0.1997 -0.2308
    1SOL    HW2 7558   3.813   1.534   3.217  1.2420  0.5948  0.0404
    1SOL    HW3 7559   3.766   1.582   3.081  0.0993 -0.0384  0.2008
    1SOL    MW4 7560   3.824   1.541   3.130  0.3662 -0.0736 -0.1380
    1SOL     OW 7561   3.616   1.657   3.025  0.1900  0.0164  0.4031
    1SOL    HW2 7562   3.606   1.746   3.057 -0.8046  0.1858 -0.3451
    1SOL    HW3 7563   3.614   1.666   2.929  0.0506 -0.8085  0.3246
    1SOL    MW4 7564   3.615   1.670   3.016  0.0403 -0.0700  0.2942
    1SOL     OW 7565   3.600   1.913   3.092  0.0283  0.0368 -0.2104
    1SOL    HW2 7566   3.618   1.912   3.186 -1.0388 -0.8533  0.0026
    1SOL    HW3 7567   3.677   1.955   3.053  1.0019 -0.6057  0.9582
    1SOL    MW4 7568   3.613   1.918   3.100  0.0157 -0.1653 -0.0281
    1SOL     OW 7569   3.846   2.008   2.992 -0.5657 -0.2295  0.1120
    1SOL    HW2 7570   3.850   2.095   3.030  0.5924  0.0280 -0.5768
    1SOL    HW3 7571   3.816   2.023   2.902  0.4938 -0.4435 -0.2842
    1SOL    MW4 7572   3.842   2.021   2.985 -0.2730 -0.2241 -0.0310
    1SOL     OW 7573   3.817   2.264   3.107  0.0929  0.1988 -0.1633
    1SOL    HW2 7574   3.814   2.284   3.201  0.2694  0.5333 -0.2274
    1SOL    HW3 7575   3.767   2.334   3.066 -1.6843 -1.0200 -0.1586
    1SOL    MW4 7576   3.810   2.276   3.114 -0.1183  0.0823 -0.1712
    1SOL     OW 7577   3.655   2.454   3.002 -0.3171 -0.0542  0.3178
    1SOL    HW2 7578   3.622   2.531   3.049  0.4803  0.3118  0.3040
    1SOL    HW3 7579   3.582   2.393   3.001 -1.7331  1.5881 -1.6441
    1SOL    MW4 7580   3.641   2.456   3.008 -0.3989  0.2108  0.0570
    1SOL     OW 7581   3.570   2.689   3.121  0.2397  0.2343  0.8559
    1SOL    HW2 7582   3.574   2.692   3.216  0.5974  1.7944  0.7999
    1SOL    HW3 7583   3.652   2.728   3.091  0.2889 -0.5553 -0.0999
    1SOL    MW4 7584   3.581   2.694   3.129  0.2935  0.3359  0.7224
    1SOL     OW 7585   3.814   2.826   3.037  0.0606  0.4103 -0.0153
    1SOL    HW2 7586   3.808   2.918   3.062 -0.9943  0.4768 -0.4758
    1SOL    HW3 7587   3.819   2.828   2.941 -2.1471 -0.0907 -0.1669
    1SOL    MW4 7588   3.814   2.838   3.027 -0.3700  0.3526 -0.0961
    1SOL     OW 7589   3.816   3.093   3.098  0.0951  0.3969  0.1418
    1SOL    HW2 7590   3.900   3.135   3.076  0.0542  0.4002 -0.0065
    1SOL    HW3 7591   3.751   3.144   3.049  0.0704 -0.0016 -0.2428
    1SOL    MW4 7592   3.819   3.106   3.089  0.0863  0.3448  0.0715
    1SOL     OW 7593   3.579   3.202   2.980 -0.1292 -0.2936 -0.0627
    1SOL    HW2 7594   3.530   3.139   3.033 -0.3572  0.3768  0.5375
    1SOL    HW3 7595   3.547   3.188   2.891 -0.5157 -0.7062  0.1353
    1SOL    MW4 7596   3.568   3.192   2.976 -0.2105 -0.2596  0.0429
    1SOL     OW 7597   3.559   3.448   3.114 -0.4913  0.0671  0.4065
    1SOL    HW2 7598   3.641   3.481   3.078  0.6000 -0.1954  2.5696
    1SOL    HW3 7599   3.560   3.355   3.095 -0.4060  0.1077  0.2117
    1SOL    MW4 7600   3.570   3.440   3.107 -0.3359  0.0379  0.6664
    1SOL     OW 7601   3.785   3.564   3.024 -0.1231  0.1814 -0.1853
    1SOL    HW2 7602   3.774   3.653   3.059 -2.0971  0.0748 -0.4602
    1SOL    HW3 7603   3.793   3.577   2.929  0.5530  0.1355 -0.1342
    1SOL    MW4 7604   3.784   3.578   3.016 -0.2944  0.1614 -0.2148
    1SOL     OW 7605   3.778   3.825   3.116  0.0725 -0.1319  0.0781
    1SOL    HW2 7606   3.799   3.838   3.209  1.1653 -2.0797  0.1223
    1SOL    HW3 7607   3.699   3.877   3.103 -0.5697 -0.4672  2.3084
    1SOL    MW4 7608   3.771   3.834   3.127  0.1321 -0.4332  0.3781
    1SOL     OW 7609   3.581   4.020   3.069 -0.1459  0.1120 -0.2117
    1SOL    HW2 7610   3.501   3.969   3.081 -0.9111  1.3782  0.1658
    1SOL    HW3 7611   3.586   4.034   2.974  0.1344 -0.7616 -0.3283
    1SOL    MW4 7612   3.571   4.015   3.058 -0.2100  0.1636 -0.1769
    1SOL     OW 7613   3.592   4.284   3.166 -0.0095 -0.3612  0.1519
    1SOL    HW2 7614   3.666   4.320   3.117  0.4187 -1.4408  0.0035
    1SOL    HW3 7615   3.588   4.192   3.140 -1.6998 -0.2075 -0.2061
    1SOL    MW4 7616   3.601   4.277   3.156 -0.1762 -0.4835  0.0851
    1SOL     OW 7617   3.781   4.395   2.992 -0.1727 -0.2299  0.4328
    1SOL    HW2 7618   3.853   4.343   3.029  0.5365  0.0343 -0.5618
    1SOL    HW3 7619   3.795   4.391   2.897 -1.0368  0.4594  0.2757
    1SOL    MW4 7620   3.793   4.387   2.984 -0.1929 -0.1040  0.2806
    1SOL     OW 7621   4.280   4.615   3.096 -0.1017  0.4909  0.1220
    1SOL    HW2 7622   4.257   4.618   3.189  1.0065 -1.5019  0.4868
    1SOL    HW3 7623   4.271   4.523   3.071  0.9112  0.7832 -1.4089
    1SOL    MW4 7624   4.276   4.603   3.105  0.1783  0.2661 -0.0317
    1SOL     OW 7625   4.053   0.109   3.038 -0.7406  0.2008 -0.1496
    1SOL    HW2 7626   4.131   0.054   3.048 -0.4527  0.4410 -0.9898
    1SOL    HW3 7627   3.981   0.053   3.065 -0.2691  0.0124  0.7513
    1SOL    MW4 7628   4.054   0.094   3.043 -0.6404  0.2076 -0.1416
    1SOL     OW 7629   4.048   0.368   3.158 -0.7907 -0.0046 -0.3852
    1SOL    HW2 7630   4.129   0.402   3.120 -0.7072  0.6102  0.3365
    1SOL    HW3 7631   4.046   0.276   3.131 -0.2664  0.1869 -1.0912
    1SOL    MW4 7632   4.059   0.360   3.150 -0.7105  0.1017 -0.3831
    1SOL     OW 7633   4.269   0.520   3.046  0.0340  0.2713  0.3975
    1SOL    HW2 7634   4.274   0.613   3.068  0.3526  0.0653  1.1932
    1SOL    HW3 7635   4.256   0.519   2.951  2.3239  1.0799  0.0481
    1SOL    MW4 7636   4.268   0.532   3.036  0.3781  0.3508  0.4563
    1SOL     OW 7637   4.262   0.781   3.137 -0.4135 -0.0896 -0.3701
    1SOL    HW2 7638   4.181   0.820   3.105 -0.3939 -0.9247 -1.4494
    1SOL    HW3 7639   4.331   0.830   3.094 -0.3818 -0.7549 -1.1013
    1SOL    MW4 7640   4.260   0.792   3.127 -0.4067 -0.2876 -0.6087
    1SOL     OW 7641   4.040   0.896   3.033 -0.8677  0.4103  0.1530
    1SOL    HW2 7642   4.067   0.982   3.063 -2.8917  0.7220  1.1261
    1SOL    HW3 7643   4.034   0.905   2.937  2.5868  0.2570 -0.1309
    1SOL    MW4 7644   4.043   0.908   3.024 -0.6785  0.4312  0.2441
    1SOL     OW 7645   4.071   1.166   3.125 -0.5953 -0.4416  0.3481
    1SOL    HW2 7646   4.055   1.166   3.219  0.1844 -0.3349  0.4855
    1SOL    HW3 7647   3.995   1.211   3.087 -0.6937 -0.0881  0.9581
    1SOL    MW4 7648   4.059   1.172   3.132 -0.5054 -0.3809  0.4468
    1SOL     OW 7649   4.306   1.292   3.010  0.4642 -0.1370 -0.1833
    1SOL    HW2 7650   4.226   1.250   3.039 -0.6165  0.0558 -2.7294
    1SOL    HW3 7651   4.306   1.280   2.915  2.0931  2.2097 -0.5194
    1SOL    MW4 7652   4.296   1.285   3.001  0.5360  0.1982 -0.5634
    1SOL     OW 7653   4.299   1.538   3.148 -0.5385  0.4175 -0.4647
    1SOL    HW2 7654   4.224   1.582   3.108  0.0283  0.8013 -1.1123
    1SOL    HW3 7655   4.300   1.451   3.108 -0.4713  0.5114 -0.6683
    1SOL    MW4 7656   4.289   1.532   3.137 -0.4554  0.4805 -0.5767
    1SOL     OW 7657   4.057   1.650   3.023  0.2927 -0.3956 -1.0316
    1SOL    HW2 7658   4.063   1.734   3.069  1.5869 -0.7107 -0.5977
    1SOL    HW3 7659   3.975   1.612   3.054  0.6896 -0.1861  0.3129
    1SOL    MW4 7660   4.047   1.656   3.033  0.5159 -0.4095 -0.7973
    1SOL     OW 7661   4.080   1.908   3.097  0.1812 -0.7391 -0.2998
    1SOL    HW2 7662   4.154   1.953   3.057 -0.3233 -0.7825 -1.2966
    1SOL    HW3 7663   4.003   1.950   3.059 -0.3012 -2.2724 -1.0388
    1SOL    MW4 7664   4.079   1.920   3.087  0.0515 -0.9471 -0.5288
    1SOL     OW 7665   4.309   2.027   2.997  0.0617 -0.0439  0.2205
    1SOL    HW2 7666   4.310   2.106   3.051 -0.3284 -0.0532  0.2412
    1SOL    HW3 7667   4.287   2.059   2.909 -2.1796 -0.3745  0.6323
    1SOL    MW4 7668   4.306   2.042   2.993 -0.2856 -0.0885  0.2778
    1SOL     OW 7669   4.279   2.277   3.158  0.5553 -0.3663 -0.3145
    1SOL    HW2 7670   4.193   2.309   3.130  0.4855 -1.7040 -1.6818
    1SOL    HW3 7671   4.341   2.342   3.125  0.1833 -0.0928 -0.4747
    1SOL    MW4 7672   4.276   2.289   3.150  0.4969 -0.5069 -0.5162
    1SOL     OW 7673   4.055   2.388   3.034 -0.6445  0.0216 -0.3608
    1SOL    HW2 7674   4.049   2.476   3.072 -0.6211  0.0971 -0.5340
    1SOL    HW3 7675   3.974   2.345   3.059 -1.1292  0.4486 -1.1887
    1SOL    MW4 7676   4.044   2.394   3.043 -0.7052  0.0880 -0.4928
    1SOL     OW 7677   4.032   2.663   3.100 -0.4957 -0.3991 -0.0868
    1SOL    HW2 7678   4.041   2.674   3.195  1.5873 -1.2463 -0.1647
    1SOL    HW3 7679   3.957   2.717   3.077 -0.3732  0.6713  1.8945
    1SOL    MW4 7680   4.023   2.672   3.110 -0.2050 -0.3695  0.1643
    1SOL     OW 7681   4.229   2.824   2.990  0.3794  0.1036  0.3794
    1SOL    HW2 7682   4.162   2.755   3.000 -0.6830  1.3089  1.8597
    1SOL    HW3 7683   4.301   2.795   3.046 -0.0383  0.1464  0.9463
    1SOL    MW4 7684   4.229   2.811   2.999  0.1841  0.2685  0.6495
    1SOL     OW 7685   4.257   3.063   3.116  0.2486  0.1734 -0.0720
    1SOL    HW2 7686   4.191   3.129   3.094 -0.5443 -0.7184 -0.4088
    1SOL    HW3 7687   4.230   2.985   3.067  1.6284 -0.1632 -0.3207
    1SOL    MW4 7688   4.245   3.062   3.106  0.3252  0.0112 -0.1495
    1SOL     OW 7689   4.055   3.225   3.040  0.3362 -0.2639  0.2536
    1SOL    HW2 7690   4.035   3.317   3.059 -0.0936 -0.6065  1.5398
    1SOL    HW3 7691   4.032   3.214   2.948  0.3435  0.9054  0.1064
    1SOL    MW4 7692   4.049   3.236   3.030  0.2809 -0.1547  0.4036
    1SOL     OW 7693   4.025   3.477   3.122  0.2186 -0.0003  0.6346
    1SOL    HW2 7694   4.021   3.508   3.213 -0.8296  1.0197  0.2560
    1SOL    HW3 7695   3.944   3.510   3.082  0.0554 -1.5207 -0.3379
    1SOL    MW4 7696   4.013   3.485   3.129  0.0587 -0.0663  0.4563
    1SOL     OW 7697   4.287   3.587   3.036  0.0294  0.3174 -0.1169
    1SOL    HW2 7698   4.276   3.680   3.056 -1.1803 -0.0235  0.8931
    1SOL    HW3 7699   4.209   3.545   3.073  1.1429 -1.2517  0.5202
    1SOL    MW4 7700   4.275   3.594   3.044  0.0167  0.0653  0.1006
    1SOL     OW 7701   4.248   3.857   3.132 -0.3568  0.1303  0.1881
    1SOL    HW2 7702   4.163   3.896   3.115 -0.2428  0.8374  1.2368
    1SOL    HW3 7703   4.308   3.906   3.076 -0.9518 -1.9094 -2.3537
    1SOL    MW4 7704   4.245   3.868   3.122 -0.4206 -0.0455 -0.0086
    1SOL     OW 7705   4.003   3.971   3.009 -0.0587 -0.6306 -0.6172
    1SOL    HW2 7706   4.005   4.062   3.039  0.5387 -0.7803 -0.1948
    1SOL    HW3 7707   3.918   3.938   3.039 -1.5057  0.6022 -3.2269
    1SOL    MW4 7708   3.992   3.979   3.017 -0.1709 -0.4878 -0.9060
    1SOL     OW 7709   3.995   4.263   3.092  0.3772 -0.7655  0.5925
    1SOL    HW2 7710   3.995   4.258   3.187 -0.1324  1.2277  0.7113
    1SOL    HW3 7711   4.081   4.298   3.070 -0.4239  1.2017  0.4880
    1SOL    MW4 7712   4.006   4.267   3.101  0.2041 -0.2432  0.5949
    1SOL     OW 7713   4.239   4.337   3.004 -0.4781  0.0555  0.2653
    1SOL    HW2 7714   4.316   4.289   3.033  1.0834  2.5749  0.4708
    1SOL    HW3 7715   4.254   4.351   2.910 -1.7606 -1.3293 -0.1657
    1SOL    MW4 7716   4.251   4.333   2.995 -0.4416  0.2050  0.2356
    1SOL     OW 7717   0.175   4.618   3.388  0.7111 -0.1560  0.3034
    1SOL    HW2 7718   0.242   4.670   3.431  0.9176 -0.6515  0.5905
    1SOL    HW3 7719   0.186   4.530   3.424 -0.0766 -0.2463  0.3367
    1SOL    MW4 7720   0.185   4.613   3.398  0.6344 -0.2327  0.3457
    1SOL     OW 7721   0.007   0.112   3.515 -0.1424 -0.3310 -0.1830
    1SOL    HW2 7722   0.025   0.195   3.471 -0.1428  0.2080  0.8131
    1SOL    HW3 7723   0.072   0.051   3.480  0.1837  0.2276 -0.5495
    1SOL    MW4 7724   0.018   0.115   3.505 -0.0997 -0.1862 -0.0997
    1SOL     OW 7725   0.022   0.376   3.416  0.0260 -0.5358 -0.0314
    1SOL    HW2 7726  -0.059   0.424   3.432  0.1104  0.2758 -1.8869
    1SOL    HW3 7727   0.091   0.435   3.444  0.1143  0.3032 -1.9686
    1SOL    MW4 7728   0.020   0.390   3.422  0.0491 -0.3180 -0.5317
    1SOL     OW 7729   0.260   0.516   3.495  0.0965  0.3183 -0.8085
    1SOL    HW2 7730   0.331   0.473   3.448  0.1914 -0.4872  0.0497
    1SOL    HW3 7731   0.247   0.599   3.449 -0.0033 -0.5698 -2.4266
    1SOL    MW4 7732   0.267   0.521   3.483  0.0958  0.0948 -0.9089
    1SOL     OW 7733   0.245   0.762   3.381  0.2823  0.6309 -0.5603
    1SOL    HW2 7734   0.324   0.797   3.423  0.5200 -0.5821  0.0296
    1SOL    HW3 7735   0.174   0.818   3.413  0.4548 -0.2985  1.5306
    1SOL    MW4 7736   0.246   0.774   3.391  0.3365  0.3483 -0.2065
    1SOL     OW 7737   0.022   0.905   3.477 -0.6000 -0.0446 -0.0193
    1SOL    HW2 7738   0.019   0.917   3.572  1.8706 -0.2883  0.0999
    1SOL    HW3 7739   0.017   0.993   3.441 -1.5952  0.0456  0.3211
    1SOL    MW4 7740   0.021   0.918   3.485 -0.4053 -0.0647  0.0412
    1SOL     OW 7741   0.018   1.164   3.408  0.1609  0.4420 -0.1671
    1SOL    HW2 7742   0.084   1.225   3.443  0.9994 -0.0371 -0.8896
    1SOL    HW3 7743   0.033   1.165   3.313  0.9352 -1.7396 -0.0905
    1SOL    MW4 7744   0.029   1.173   3.400  0.3737  0.0908 -0.2525
    1SOL     OW 7745   0.233   1.329   3.476 -0.4721  0.1328  0.3185
    1SOL    HW2 7746   0.234   1.345   3.571 -1.5873 -1.4487  0.6115
    1SOL    HW3 7747   0.207   1.412   3.438  1.1514  1.1256  1.3213
    1SOL    MW4 7748   0.230   1.342   3.484 -0.4050  0.0551  0.4895
    1SOL     OW 7749   0.193   1.619   3.374  0.2455 -0.0072 -0.4514
    1SOL    HW2 7750   0.284   1.635   3.400  0.4128 -1.5268 -0.0185
    1SOL    HW3 7751   0.199   1.599   3.280  0.3222  0.1823 -0.4880
    1SOL    MW4 7752   0.206   1.618   3.365  0.2777 -0.1829 -0.3994
    1SOL     OW 7753   4.483   1.714   3.544  0.1966  0.6144 -0.5185
    1SOL    HW2 7754   4.416   1.650   3.519 -0.6111  1.0826  0.4090
    1SOL    HW3 7755   4.560   1.689   3.494  0.3244 -1.9766  0.8786
    1SOL    MW4 7756   4.484   1.702   3.534  0.1070  0.3343 -0.2115
    1SOL     OW 7757   0.013   1.955   3.413 -0.1804 -0.2320  0.1308
    1SOL    HW2 7758  -0.001   1.875   3.463  0.2010  0.2367  0.9832
    1SOL    HW3 7759  -0.002   1.928   3.322 -3.6165 -0.4352  0.7074
    1SOL    MW4 7760   0.009   1.941   3.407 -0.5834 -0.1971  0.3195
    1SOL     OW 7761   0.239   2.078   3.498 -0.5737 -0.1928 -0.2289
    1SOL    HW2 7762   0.165   2.034   3.455 -1.3056 -0.7099  1.5026
    1SOL    HW3 7763   0.231   2.053   3.590  1.2177  0.5280  0.1387
    1SOL    MW4 7764   0.228   2.069   3.504 -0.4339 -0.1659  0.0482
    1SOL     OW 7765   0.209   2.330   3.401 -0.2178  0.1136 -0.2166
    1SOL    HW2 7766   0.155   2.373   3.466  0.8757  0.1911  0.6517
    1SOL    HW3 7767   0.222   2.241   3.435 -0.4523 -0.1551 -0.8115
    1SOL    MW4 7768   0.204   2.324   3.414 -0.1044  0.0882 -0.1805
    1SOL     OW 7769   0.004   2.446   3.541  0.4955 -0.4886  0.1212
    1SOL    HW2 7770  -0.015   2.434   3.634 -1.0742 -0.8507 -0.2267
    1SOL    HW3 7771  -0.079   2.427   3.497  1.3414 -0.7925 -1.3887
    1SOL    MW4 7772  -0.010   2.442   3.547  0.4001 -0.5765 -0.1237
    1SOL     OW 7773   4.488   2.712   3.431 -0.2014  0.5270  0.2646
    1SOL    HW2 7774   4.575   2.746   3.449 -0.6557  1.8432  0.0047
    1SOL    HW3 7775   4.488   2.625   3.470  1.8868 -0.2800 -1.3989
    1SOL    MW4 7776   4.499   2.705   3.438  0.0141  0.5944  0.0112
    1SOL     OW 7777   0.249   2.830   3.509 -0.5500  0.2052 -0.8282
    1SOL    HW2 7778   0.326   2.794   3.465  1.1347  0.1805  2.0249
    1SOL    HW3 7779   0.242   2.920   3.476  0.7740  0.2546 -0.9995
    1SOL    MW4 7780   0.258   2.837   3.499 -0.1530  0.2089 -0.4742
    1SOL     OW 7781   0.248   3.092   3.419  0.6407  0.0297 -0.1242
    1SOL    HW2 7782   0.187   3.155   3.456  1.5001  0.9172 -0.2110
    1SOL    HW3 7783   0.233   3.097   3.325  1.2064  0.6258 -0.1850
    1SOL    MW4 7784   0.238   3.101   3.411  0.8288  0.2255 -0.1438
    1SOL     OW 7785   0.032   3.266   3.522 -0.4489  0.2919 -0.0823
    1SOL    HW2 7786  -0.030   3.206   3.481  0.2045  1.3808 -2.8067
    1SOL    HW3 7787   0.007   3.352   3.489 -0.9225  1.4802  3.1890
    1SOL    MW4 7788   0.021   3.270   3.512 -0.4253  0.5925 -0.0103
    1SOL     OW 7789   4.484   3.518   3.449 -0.3791 -0.3901 -0.0288
    1SOL    HW2 7790   4.398   3.545   3.482  0.5516  2.6070  0.1057
    1SOL    HW3 7791   4.473   3.513   3.354 -0.8250 -0.5029  0.0272
    1SOL    MW4 7792   4.471   3.521   3.441 -0.3152 -0.0091 -0.0036
    1SOL     OW 7793   0.256   3.595   3.530 -0.2306  0.1676  0.1477
    1SOL    HW2 7794   0.249   3.623   3.621 -0.1508 -0.5737  0.3823
    1SOL    HW3 7795   0.170   3.560   3.509  0.1531 -0.9178  0.3613
    1SOL    MW4 7796   0.244   3.594   3.539 -0.1694 -0.0732  0.2069
    1SOL     OW 7797   0.206   3.834   3.405  0.6650  0.0436 -0.3996
    1SOL    HW2 7798   0.126   3.874   3.438  0.2164 -1.0790 -0.1030
    1SOL    HW3 7799   0.214   3.752   3.453  1.8293 -0.0024 -0.6506
    1SOL    MW4 7800   0.196   3.829   3.416  0.7594 -0.1106 -0.3936
    1SOL     OW 7801   0.003   3.970   3.521  0.3394  0.2329 -0.6780
    1SOL    HW2 7802   0.003   3.987   3.615  1.8847 -0.4574 -0.5338
    1SOL    HW3 7803   0.008   4.057   3.480  0.4032  0.4963 -0.1110
    1SOL    MW4 7804   0.004   3.984   3.528  0.5517  0.1767 -0.5841
    1SOL     OW 7805   4.454   4.221   3.384  0.1319  0.0151 -0.1120
    1SOL    HW2 7806   4.378   4.263   3.425 -0.3578 -1.3921  0.4481
    1SOL    HW3 7807   4.530   4.269   3.418 -0.3610 -0.1790  1.2821
    1SOL    MW4 7808   4.454   4.233   3.394  0.0019 -0.1960  0.1459
    1SOL     OW 7809   0.188   4.332   3.486  0.2103  0.0682 -0.1603
    1SOL    HW2 7810   0.198   4.341   3.581  0.5197 -2.3776  0.0569
    1SOL    HW3 7811   0.274   4.306   3.455  0.0049  0.4571 -1.0870
    1SOL    MW4 7812   0.200   4.330   3.495  0.2240 -0.2031 -0.2542
    1SOL     OW 7813   0.662   4.647   3.405  0.0674 -0.1502  0.0826
    1SOL    HW2 7814   0.743   4.682   3.443  0.6284 -0.7220 -0.5734
    1SOL    HW3 7815   0.685   4.627   3.314 -1.3003  1.3758 -0.6270
    1SOL    MW4 7816   0.676   4.649   3.398 -0.0391 -0.0243 -0.0975
    1SOL     OW 7817   0.418   0.108   3.469  0.4303  0.1155  0.3978
    1SOL    HW2 7818   0.420   0.100   3.564  0.1200 -0.2847  0.3739
    1SOL    HW3 7819   0.495   0.060   3.438 -0.3909 -1.1932  0.3586
    1SOL    MW4 7820   0.428   0.100   3.477  0.2810 -0.1100  0.3893
    1SOL     OW 7821   0.464   0.367   3.376 -0.2416 -0.1762 -0.1416
    1SOL    HW2 7822   0.535   0.414   3.418 -0.3429  0.5153 -0.7376
    1SOL    HW3 7823   0.464   0.281   3.418 -0.7764  0.7208  1.7555
    1SOL    MW4 7824   0.473   0.361   3.387 -0.3255  0.0333  0.0300
    1SOL     OW 7825   0.682   0.492   3.489  0.3906 -0.2698  0.4177
    1SOL    HW2 7826   0.700   0.495   3.583  0.5632 -0.2148  0.3844
    1SOL    HW3 7827   0.757   0.445   3.452  0.5933  0.1852  0.2429
    1SOL    MW4 7828   0.694   0.486   3.496  0.4401 -0.2025  0.3903
    1SOL     OW 7829   0.695   0.753   3.376  0.1003 -0.1361 -0.1127
    1SOL    HW2 7830   0.618   0.794   3.417 -0.4585 -0.8686 -0.4171
    1SOL    HW3 7831   0.694   0.663   3.408 -1.2733 -1.1831 -2.9745
    1SOL    MW4 7832   0.684   0.747   3.386 -0.1546 -0.3708 -0.5307
    1SOL     OW 7833   0.468   0.891   3.463  0.0704 -0.3276  0.0893
    1SOL    HW2 7834   0.466   0.881   3.558 -0.9763 -0.1867  0.0905
    1SOL    HW3 7835   0.474   0.985   3.449  1.5408 -0.4230  0.0182
    1SOL    MW4 7836   0.469   0.902   3.474  0.1264 -0.3216  0.0803
    1SOL     OW 7837   0.471   1.190   3.393  0.2724 -0.0136 -0.3592
    1SOL    HW2 7838   0.397   1.245   3.420  0.0142 -0.2465 -0.5957
    1SOL    HW3 7839   0.471   1.195   3.298  0.4656 -0.1463 -0.3666
    1SOL    MW4 7840   0.461   1.198   3.384  0.2639 -0.0618 -0.3912
    1SOL     OW 7841   0.672   1.310   3.517 -0.1453 -0.3032 -0.2039
    1SOL    HW2 7842   0.604   1.265   3.467 -0.2843  0.5550 -0.7938
    1SOL    HW3 7843   0.684   1.394   3.472  0.2935  0.1473  0.7279
    1SOL    MW4 7844   0.665   1.315   3.505 -0.1058 -0.1305 -0.1588
    1SOL     OW 7845   0.677   1.539   3.372 -0.0548  0.3362  0.4349
    1SOL    HW2 7846   0.740   1.600   3.410  0.3470 -0.6003  1.3039
    1SOL    HW3 7847   0.592   1.578   3.392  0.1489 -0.0971  2.2741
    1SOL    MW4 7848   0.674   1.552   3.380  0.0251  0.1554  0.7923
    1SOL     OW 7849   0.445   1.681   3.483  0.1955  0.1442  0.0319
    1SOL    HW2 7850   0.448   1.670   3.578 -1.9492  0.7712  0.2062
    1SOL    HW3 7851   0.452   1.776   3.470  1.3582 -0.0030 -0.5022
    1SOL    MW4 7852   0.446   1.692   3.493  0.0660  0.2075 -0.0157
    1SOL     OW 7853   0.467   1.930   3.417 -0.3562  0.4199 -0.0125
    1SOL    HW2 7854   0.383   1.972   3.437 -1.7038 -1.4971 -1.4672
    1SOL    HW3 7855   0.471   1.928   3.321  1.7856  1.2688  0.0197
    1SOL    MW4 7856   0.456   1.935   3.407 -0.2514  0.2789 -0.2005
    1SOL     OW 7857   0.710   2.057   3.494  0.2652 -0.0302  0.0576
    1SOL    HW2 7858   0.726   2.067   3.588 -0.7946  0.3655  0.1936
    1SOL    HW3 7859   0.631   2.004   3.488 -0.6713  1.4042 -0.5864
    1SOL    MW4 7860   0.702   2.051   3.505  0.0018  0.2112 -0.0093
    1SOL     OW 7861   0.652   2.317   3.373  0.3484 -0.2747 -0.1893
    1SOL    HW2 7862   0.726   2.369   3.403  1.1682 -1.9387  0.7653
    1SOL    HW3 7863   0.670   2.229   3.407 -1.0969 -1.1250 -1.5852
    1SOL    MW4 7864   0.664   2.312   3.382  0.2660 -0.6063 -0.2477
    1SOL     OW 7865   0.431   2.452   3.508 -0.0397  0.0602  0.2902
    1SOL    HW2 7866   0.501   2.391   3.486 -0.7133 -0.2783 -0.9498
    1SOL    HW3 7867   0.353   2.415   3.468 -0.5918  1.3568  0.1384
    1SOL    MW4 7868   0.430   2.439   3.500 -0.2014  0.1867  0.1063
    1SOL     OW 7869   0.465   2.688   3.390  0.4859 -0.2594  0.2312
    1SOL    HW2 7870   0.459   2.598   3.422 -0.9023  0.0663  0.9360
    1SOL    HW3 7871   0.443   2.681   3.297 -0.5403 -0.5355  0.4836
    1SOL    MW4 7872   0.461   2.675   3.382  0.1674 -0.2530  0.3576
    1SOL     OW 7873   0.683   2.817   3.476 -0.1563  0.7726  0.3390
    1SOL    HW2 7874   0.758   2.786   3.425 -0.5520  1.8135 -0.9171
    1SOL    HW3 7875   0.614   2.753   3.457  0.0897  0.4214  0.6265
    1SOL    MW4 7876   0.684   2.804   3.466 -0.1761  0.8638  0.2112
    1SOL     OW 7877   0.680   3.078   3.389 -0.1819  0.0522 -0.0736
    1SOL    HW2 7878   0.620   3.127   3.444 -0.5058 -0.4905  0.0577
    1SOL    HW3 7879   0.670   2.987   3.416  0.9610 -0.0030  0.2020
    1SOL    MW4 7880   0.671   3.073   3.400 -0.0739 -0.0265 -0.0198
    1SOL     OW 7881   0.471   3.233   3.512 -0.0567  0.2752 -0.1011
    1SOL    HW2 7882   0.445   3.249   3.603 -0.7326  1.6206 -0.5174
    1SOL    HW3 7883   0.399   3.182   3.475 -0.6970  1.3940 -0.4119
    1SOL    MW4 7884   0.458   3.228   3.519 -0.2303  0.6003 -0.1972
    1SOL     OW 7885   0.450   3.482   3.380  0.0737  0.3109 -0.0980
    1SOL    HW2 7886   0.461   3.399   3.427  0.0534 -0.7811 -1.9518
    1SOL    HW3 7887   0.394   3.535   3.436  1.7371 -0.1604  2.0502
    1SOL    MW4 7888   0.444   3.478   3.393  0.2905  0.1047 -0.0591
    1SOL     OW 7889   0.678   3.607   3.494  0.1714  0.3455 -0.1015
    1SOL    HW2 7890   0.740   3.556   3.441  0.7599  0.0008  0.9183
    1SOL    HW3 7891   0.592   3.578   3.464  0.5036 -0.3413 -0.3995
    1SOL    MW4 7892   0.675   3.597   3.483  0.2930  0.2093 -0.0060
    1SOL     OW 7893   0.691   3.877   3.407 -0.1752 -0.0443 -0.2904
    1SOL    HW2 7894   0.608   3.920   3.424 -1.2965 -1.9319 -0.8604
    1SOL    HW3 7895   0.688   3.797   3.460  1.4200  0.0179 -0.0697
    1SOL    MW4 7896   0.680   3.872   3.416 -0.1127 -0.2851 -0.3366
    1SOL     OW 7897   0.431   3.991   3.474  0.4035  0.5216  0.2816
    1SOL    HW2 7898   0.407   4.073   3.430  0.2466  0.7837  0.8478
    1SOL    HW3 7899   0.362   3.930   3.448 -0.7305  1.1933  1.6548
    1SOL    MW4 7900   0.418   3.994   3.465  0.2332  0.6452  0.5372
    1SOL     OW 7901   0.428   4.269   3.396 -0.3968 -0.0161 -0.2117
    1SOL    HW2 7902   0.502   4.324   3.422 -0.4942  0.2302 -0.4448
    1SOL    HW3 7903   0.447   4.246   3.305 -0.7830  0.3413 -0.3814
    1SOL    MW4 7904   0.441   4.273   3.387 -0.4606  0.0639 -0.2646
    1SOL     OW 7905   0.662   4.400   3.477 -0.1463 -0.0219 -0.0990
    1SOL    HW2 7906   0.754   4.387   3.454 -0.4598 -1.7212 -0.4569
    1SOL    HW3 7907   0.645   4.492   3.455  1.4169  0.2701 -0.1526
    1SOL    MW4 7908   0.671   4.410   3.471  0.0186 -0.2074 -0.1535
    1SOL     OW 7909   1.126   4.627   3.443  0.3393  0.2239  0.0330
    1SOL    HW2 7910   1.205   4.677   3.464 -0.0539  0.5611  0.7039
    1SOL    HW3 7911   1.106   4.653   3.352  1.6471 -0.7405 -0.5458
    1SOL    MW4 7912   1.134   4.637   3.434  0.4600  0.1411  0.0453
    1SOL     OW 7913   0.907   0.110   3.511  0.0910 -0.2954  0.3337
    1SOL    HW2 7914   0.929   0.130   3.602 -1.1293 -1.1521  0.8350
    1SOL    HW3 7915   0.968   0.041   3.486  0.4109 -0.0789  0.5260
    1SOL    MW4 7916   0.918   0.104   3.520 -0.0278 -0.3799  0.4256
    1SOL     OW 7917   0.893   0.350   3.380  0.4704  0.3625 -0.7004
    1SOL    HW2 7918   0.974   0.396   3.401  0.3024  0.3965 -0.1151
    1SOL    HW3 7919   0.901   0.266   3.425  0.2286  0.3291 -0.7184
    1SOL    MW4 7920   0.904   0.345   3.389  0.4163  0.3625 -0.6254
    1SOL     OW 7921   1.109   0.489   3.456 -0.3051  0.6477 -0.3952
    1SOL    HW2 7922   1.121   0.496   3.551  0.0620  0.0642 -0.3959
    1SOL    HW3 7923   1.116   0.578   3.424  0.1209  0.7782  0.0646
    1SOL    MW4 7924   1.112   0.501   3.464 -0.2004  0.5879 -0.3345
    1SOL     OW 7925   1.144   0.764   3.388 -0.1347 -0.4132  0.6183
    1SOL    HW2 7926   1.223   0.813   3.408 -0.3321  0.5904 -0.9789
    1SOL    HW3 7927   1.074   0.810   3.435  0.0199 -0.5373  0.9758
    1SOL    MW4 7928   1.145   0.776   3.397 -0.1402 -0.2971  0.4549
    1SOL     OW 7929   0.907   0.895   3.496  0.0830 -0.1306 -0.1896
    1SOL    HW2 7930   0.890   0.986   3.474  0.2746 -0.5010 -1.9644
    1SOL    HW3 7931   0.832   0.847   3.461  0.1889 -0.6878  0.3457
    1SOL    MW4 7932   0.895   0.900   3.488  0.1222 -0.2530 -0.3536
    1SOL     OW 7933   0.908   1.160   3.430 -0.3180 -0.1675 -0.3692
    1SOL    HW2 7934   0.987   1.211   3.452 -0.4282 -0.6854  1.2491
    1SOL    HW3 7935   0.836   1.218   3.453 -0.4443  0.3313 -1.9133
    1SOL    MW4 7936   0.909   1.175   3.436 -0.3492 -0.1700 -0.3593
    1SOL     OW 7937   1.145   1.297   3.504 -0.4309  0.1746 -0.1176
    1SOL    HW2 7938   1.158   1.298   3.599 -1.6574 -0.8645  0.0722
    1SOL    HW3 7939   1.125   1.388   3.481  0.0821  0.4655  0.5906
    1SOL    MW4 7940   1.144   1.309   3.514 -0.5251  0.0759  0.0010
    1SOL     OW 7941   1.094   1.564   3.427  0.1417 -0.4040  0.5423
    1SOL    HW2 7942   1.170   1.614   3.455  1.1087 -2.6845  2.1768
    1SOL    HW3 7943   1.093   1.572   3.331  0.3601  2.5078  0.7410
    1SOL    MW4 7944   1.104   1.571   3.418  0.2981 -0.3207  0.7842
    1SOL     OW 7945   0.875   1.687   3.495 -0.9536 -0.2619 -0.0761
    1SOL    HW2 7946   0.893   1.778   3.470 -0.9734 -0.4195 -0.6679
    1SOL    HW3 7947   0.950   1.638   3.462 -0.7017 -0.3916  0.6853
    1SOL    MW4 7948   0.887   1.693   3.488 -0.9230 -0.2997 -0.0539
    1SOL     OW 7949   0.932   1.937   3.400  0.7579  0.4523  0.1224
    1SOL    HW2 7950   1.001   1.970   3.457  0.7875 -0.2626  0.5035
    1SOL    HW3 7951   0.853   1.981   3.429  0.4626 -1.1742  1.8338
    1SOL    MW4 7952   0.931   1.947   3.411  0.7227  0.1435  0.3984
    1SOL     OW 7953   1.152   2.044   3.518  0.4408  0.2453  0.9710
    1SOL    HW2 7954   1.235   2.008   3.485 -0.0004  0.3478 -0.2850
    1SOL    HW3 7955   1.138   2.124   3.467 -1.2493 -0.6322  0.0158
    1SOL    MW4 7956   1.161   2.050   3.507  0.1594  0.1431  0.6793
    1SOL     OW 7957   1.115   2.302   3.392  0.0545  0.0707  1.1435
    1SOL    HW2 7958   1.190   2.346   3.434 -0.1799  0.4839  1.1309
    1SOL    HW3 7959   1.139   2.297   3.300 -0.3940  1.1781  0.9550
    1SOL    MW4 7960   1.128   2.307   3.386 -0.0356  0.2713  1.1170
    1SOL     OW 7961   0.880   2.461   3.452  0.2855 -0.1563 -0.3401
    1SOL    HW2 7962   0.873   2.469   3.548  2.1503 -1.0284 -0.1158
    1SOL    HW3 7963   0.967   2.425   3.437  0.6185  1.3960 -2.4550
    1SOL    MW4 7964   0.891   2.458   3.463  0.5755 -0.0665 -0.5894
    1SOL     OW 7965   0.932   2.725   3.367 -0.1239  0.2483 -0.0254
    1SOL    HW2 7966   1.005   2.768   3.411  0.3911 -0.7558  0.1375
    1SOL    HW3 7967   0.940   2.633   3.393  0.2986 -0.4051 -2.3305
    1SOL    MW4 7968   0.942   2.718   3.376 -0.0002  0.0296 -0.3080
    1SOL     OW 7969   1.128   2.865   3.498 -0.3556 -0.5653  0.1410
    1SOL    HW2 7970   1.118   2.860   3.593 -0.1650 -0.1582  0.1850
    1SOL    HW3 7971   1.204   2.809   3.479 -0.4329 -0.6985  0.2186
    1SOL    MW4 7972   1.137   2.857   3.508 -0.3406 -0.5291  0.1569
    1SOL     OW 7973   1.143   3.125   3.390  0.5968  0.2876 -0.5156
    1SOL    HW2 7974   1.126   3.041   3.433 -2.1557  1.3827  0.6606
    1SOL    HW3 7975   1.128   3.108   3.297 -1.0514 -0.2672 -0.1627
    1SOL    MW4 7976   1.139   3.112   3.383  0.0162  0.3586 -0.3140
    1SOL     OW 7977   0.896   3.227   3.464 -0.3591  0.1738 -0.2553
    1SOL    HW2 7978   0.981   3.196   3.434  0.9889  1.4850  2.0417
    1SOL    HW3 7979   0.833   3.161   3.433  1.9354 -2.8262  1.2749
    1SOL    MW4 7980   0.899   3.214   3.456  0.1215 -0.0494  0.2499
    1SOL     OW 7981   0.888   3.493   3.383 -0.0673  0.1464  0.2690
    1SOL    HW2 7982   0.903   3.403   3.410 -2.2854  0.0240  1.1594
    1SOL    HW3 7983   0.882   3.489   3.288  1.5827 -0.3663  0.1727
    1SOL    MW4 7984   0.889   3.481   3.374 -0.1423  0.0625  0.3741
    1SOL     OW 7985   1.149   3.585   3.480  0.0668  0.0934 -0.3597
    1SOL    HW2 7986   1.144   3.579   3.575  1.0629  1.9107 -0.1811
    1SOL    HW3 7987   1.063   3.556   3.449 -0.0547 -1.0920  1.0464
    1SOL    MW4 7988   1.137   3.580   3.488  0.1820  0.1769 -0.1507
    1SOL     OW 7989   1.105   3.861   3.478  0.1559  0.3731  0.0241
    1SOL    HW2 7990   1.190   3.903   3.489  0.3579  0.1295 -0.6063
    1SOL    HW3 7991   1.124   3.768   3.480 -0.2788  0.2981  1.3046
    1SOL    MW4 7992   1.118   3.855   3.480  0.1253  0.3309  0.1097
    1SOL     OW 7993   0.894   4.047   3.513  0.3525 -0.0047 -0.3071
    1SOL    HW2 7994   0.978   4.001   3.517  0.2820 -0.0910  0.3181
    1SOL    HW3 7995   0.834   3.985   3.472  0.2376 -0.5079  0.6099
    1SOL    MW4 7996   0.897   4.032   3.508  0.3281 -0.0820 -0.1037
    1SOL     OW 7997   0.908   4.289   3.378  0.3290 -0.0722 -0.2361
    1SOL    HW2 7998   0.879   4.209   3.421  2.1278 -0.2538  0.6886
    1SOL    HW3 7999   0.907   4.268   3.284 -0.0318 -0.8823 -0.0532
    1SOL    MW4 8000   0.904   4.276   3.371  0.5187 -0.2027 -0.0899
    1SOL     OW 8001   1.133   4.348   3.509 -0.3599 -0.1259 -0.2533
    1SOL    HW2 8002   1.065   4.311   3.452  0.9690  0.4382 -2.2443
    1SOL    HW3 8003   1.140   4.439   3.482  1.4013 -0.2558 -0.2778
    1SOL    MW4 8004   1.125   4.355   3.498  0.0477 -0.0687 -0.5195
    1SOL     OW 8005   1.582   4.658   3.435 -0.7014 -0.1936  0.1287
    1SOL    HW2 8006   1.581   4.570   3.473 -0.5221 -0.5925 -0.7806
    1SOL    HW3 8007   1.507   4.702   3.475 -0.9900 -0.8693  0.3379
    1SOL    MW4 8008   1.572   4.653   3.445 -0.7157 -0.3352  0.0362
    1SOL     OW 8009   1.360   0.093   3.537 -0.0699  0.2795 -0.0647
    1SOL    HW2 8010   1.342   0.103   3.630  1.6102  0.7061  0.2291
    1SOL    HW3 8011   1.349   0.181   3.501  1.3561  0.5447  0.1175
    1SOL    MW4 8012   1.356   0.106   3.544  0.3400  0.3708 -0.0017
    1SOL     OW 8013   1.341   0.361   3.419  0.0585  0.3791 -0.2583
    1SOL    HW2 8014   1.410   0.418   3.455 -0.1152  0.2811  0.2282
    1SOL    HW3 8015   1.259   0.403   3.446 -0.1135  1.6814 -2.6447
    1SOL    MW4 8016   1.339   0.374   3.427  0.0129  0.5379 -0.5090
    1SOL     OW 8017   1.554   0.515   3.508 -0.2846  0.0115 -0.4279
    1SOL    HW2 8018   1.579   0.522   3.600 -0.0505 -0.8596 -0.4154
    1SOL    HW3 8019   1.623   0.461   3.469 -1.4155 -1.2449 -0.7053
    1SOL    MW4 8020   1.567   0.509   3.515 -0.4028 -0.2692 -0.4630
    1SOL     OW 8021   1.590   0.752   3.376 -0.2951  0.1997  0.1396
    1SOL    HW2 8022   1.514   0.801   3.406 -1.4183 -0.3342 -1.7744
    1SOL    HW3 8023   1.581   0.666   3.418 -0.7392  0.1476 -0.0587
    1SOL    MW4 8024   1.579   0.747   3.386 -0.5020  0.1224 -0.1390
    1SOL     OW 8025   1.381   0.904   3.469 -0.1809  0.0857  0.0224
    1SOL    HW2 8026   1.380   0.910   3.564 -1.8168 -0.0222  0.0336
    1SOL    HW3 8027   1.356   0.991   3.439  0.6950  0.2261 -0.3260
    1SOL    MW4 8028   1.378   0.916   3.477 -0.2812  0.0900 -0.0222
    1SOL     OW 8029   1.346   1.165   3.379  0.1911 -0.5206 -0.1321
    1SOL    HW2 8030   1.430   1.202   3.406 -0.0979  0.5905 -0.7045
    1SOL    HW3 8031   1.282   1.211   3.433 -0.0894 -1.0731  0.0110
    1SOL    MW4 8032   1.349   1.176   3.390  0.1159 -0.4470 -0.1888
    1SOL     OW 8033   1.585   1.262   3.488 -0.6919 -0.4427 -0.2012
    1SOL    HW2 8034   1.603   1.268   3.582 -1.3945 -1.1828 -0.0105
    1SOL    HW3 8035   1.666   1.228   3.450 -0.2848  0.2067  0.0944
    1SOL    MW4 8036   1.598   1.258   3.495 -0.7309 -0.4547 -0.1369
    1SOL     OW 8037   1.571   1.523   3.417  0.5448  0.0038  0.0178
    1SOL    HW2 8038   1.556   1.432   3.442 -0.7560  0.5589  1.3635
    1SOL    HW3 8039   1.599   1.519   3.325  0.2086 -1.7115 -0.0227
    1SOL    MW4 8040   1.573   1.510   3.408  0.3288 -0.1493  0.1903
    1SOL     OW 8041   1.345   1.686   3.500  0.6338  0.8358  0.0576
    1SOL    HW2 8042   1.366   1.687   3.593  0.7546 -0.8325  0.0582
    1SOL    HW3 8043   1.411   1.629   3.461 -1.5323 -1.3923 -0.4978
    1SOL    MW4 8044   1.356   1.678   3.507  0.3638  0.3217 -0.0157
    1SOL     OW 8045   1.378   1.935   3.396 -0.3456 -0.0658 -0.9860
    1SOL    HW2 8046   1.465   1.955   3.432 -0.9138  0.8045 -0.0600
    1SOL    HW3 8047   1.358   1.847   3.429 -1.0496  0.8911  1.2892
    1SOL    MW4 8048   1.387   1.926   3.405 -0.5134  0.1752 -0.5636
    1SOL     OW 8049   1.607   2.037   3.563  0.1218  0.3283  0.0224
    1SOL    HW2 8050   1.679   1.988   3.522 -1.3390 -1.1973 -0.7585
    1SOL    HW3 8051   1.607   2.121   3.516  2.0271  0.7543  0.7228
    1SOL    MW4 8052   1.617   2.041   3.551  0.1804  0.1831  0.0117
    1SOL     OW 8053   1.525   2.260   3.410 -0.4501  0.1115 -0.2971
    1SOL    HW2 8054   1.459   2.316   3.449 -0.2559  0.6318 -0.7044
    1SOL    HW3 8055   1.518   2.277   3.316 -2.2191 -2.5371 -0.7047
    1SOL    MW4 8056   1.516   2.270   3.403 -0.6579 -0.1695 -0.4046
    1SOL     OW 8057   1.343   2.413   3.552 -0.0578  0.3598  0.1724
    1SOL    HW2 8058   1.361   2.412   3.646 -0.3099  1.2214  0.2399
    1SOL    HW3 8059   1.322   2.505   3.533  0.2355  0.2359 -0.7683
    1SOL    MW4 8060   1.342   2.425   3.562 -0.0525  0.4573  0.0572
    1SOL     OW 8061   1.323   2.676   3.408  0.0926  0.7779  0.2591
    1SOL    HW2 8062   1.406   2.715   3.434  0.8462 -0.9551  0.5227
    1SOL    HW3 8063   1.324   2.677   3.312  1.1938 -0.7886  0.2361
    1SOL    MW4 8064   1.334   2.681   3.399  0.3372  0.3426  0.2906
    1SOL     OW 8065   1.529   2.830   3.494  0.1501  0.0755 -0.2333
    1SOL    HW2 8066   1.609   2.788   3.463  0.1153 -0.8439  0.8571
    1SOL    HW3 8067   1.542   2.923   3.478  0.5454 -0.2728 -2.0095
    1SOL    MW4 8068   1.541   2.837   3.488  0.1976 -0.0913 -0.3240
    1SOL     OW 8069   1.584   3.096   3.410 -0.0614 -0.4178 -0.4288
    1SOL    HW2 8070   1.662   3.147   3.428  0.3533 -1.0813 -0.3273
    1SOL    HW3 8071   1.511   3.155   3.429  0.4105  0.7477 -2.1372
    1SOL    MW4 8072   1.584   3.110   3.415  0.0556 -0.3514 -0.6406
    1SOL     OW 8073   1.371   3.242   3.489  0.1389  0.0404  0.2869
    1SOL    HW2 8074   1.363   3.245   3.584  0.9120 -0.9837  0.3902
    1SOL    HW3 8075   1.282   3.224   3.457  0.0296 -0.3940  0.8482
    1SOL    MW4 8076   1.358   3.240   3.497  0.2264 -0.1519  0.3746
    1SOL     OW 8077   1.376   3.480   3.365 -0.1182 -0.1921  0.2957
    1SOL    HW2 8078   1.402   3.401   3.412 -0.0283  0.3923  1.2250
    1SOL    HW3 8079   1.292   3.505   3.404 -0.0449  0.2968  0.1448
    1SOL    MW4 8080   1.368   3.473   3.376 -0.0966 -0.0503  0.3984
    1SOL     OW 8081   1.602   3.625   3.476 -0.0726  0.3210  0.3219
    1SOL    HW2 8082   1.588   3.601   3.568 -2.1690 -1.2438 -0.3575
    1SOL    HW3 8083   1.530   3.583   3.430  0.6159  1.6068 -1.9755
    1SOL    MW4 8084   1.591   3.616   3.482 -0.2586  0.2842 -0.0710
    1SOL     OW 8085   1.571   3.889   3.421  0.0605 -0.2461  0.2780
    1SOL    HW2 8086   1.586   3.800   3.453  0.5316 -0.0156  0.7124
    1SOL    HW3 8087   1.558   3.880   3.327  1.5039 -0.6147  0.1138
    1SOL    MW4 8088   1.571   3.876   3.413  0.3130 -0.2644  0.3138
    1SOL     OW 8089   1.339   4.030   3.471 -0.2207 -0.6889  0.0237
    1SOL    HW2 8090   1.346   4.119   3.437  0.8164 -0.5611  0.5609
    1SOL    HW3 8091   1.419   3.986   3.443 -1.1285 -1.7238 -0.9926
    1SOL    MW4 8092   1.350   4.036   3.463 -0.2036 -0.8087 -0.0393
    1SOL     OW 8093   1.371   4.293   3.389 -0.3531  0.4747 -0.2047
    1SOL    HW2 8094   1.292   4.319   3.437  0.3987  2.2849  0.0955
    1SOL    HW3 8095   1.344   4.289   3.297 -0.7517  1.2734 -0.1248
    1SOL    MW4 8096   1.357   4.296   3.383 -0.3065  0.8187 -0.1545
    1SOL     OW 8097   1.611   4.397   3.523 -0.3029  0.5974  0.1337
    1SOL    HW2 8098   1.679   4.360   3.467 -0.6460  0.0362  0.0770
    1SOL    HW3 8099   1.529   4.364   3.485 -0.4449 -1.7069  2.3197
    1SOL    MW4 8100   1.609   4.387   3.511 -0.3669  0.2184  0.4148
    1SOL     OW 8101   1.978   4.653   3.427  0.4108  0.4907  0.0992
    1SOL    HW2 8102   2.062   4.687   3.458 -0.1230  1.5678  0.3829
    1SOL    HW3 8103   1.912   4.702   3.476 -0.4408  1.4970 -1.9955
    1SOL    MW4 8104   1.980   4.664   3.438  0.2279  0.7648 -0.1397
    1SOL     OW 8105   1.774   0.153   3.534  0.3053  0.2060 -0.2256
    1SOL    HW2 8106   1.772   0.154   3.630 -0.9957 -0.1002 -0.2400
    1SOL    HW3 8107   1.705   0.092   3.509 -0.2738  1.3217 -1.3867
    1SOL    MW4 8108   1.765   0.145   3.544  0.0573  0.3128 -0.3808
    1SOL     OW 8109   1.780   0.409   3.390  0.2666  0.1886 -0.5941
    1SOL    HW2 8110   1.793   0.326   3.437 -0.0886  1.4201  1.7347
    1SOL    HW3 8111   1.773   0.383   3.298 -1.9534 -2.5970  0.2978
    1SOL    MW4 8112   1.781   0.395   3.384 -0.0732 -0.0164 -0.1693
    1SOL     OW 8113   2.004   0.539   3.506 -0.1727 -0.5655  0.4980
    1SOL    HW2 8114   2.010   0.616   3.450 -0.4310 -2.1591 -1.7770
    1SOL    HW3 8115   1.924   0.495   3.477  0.2089 -1.9246  1.4715
    1SOL    MW4 8116   1.994   0.543   3.495 -0.1566 -0.9550  0.3264
    1SOL     OW 8117   2.015   0.785   3.382 -0.0477  0.0115 -0.2515
    1SOL    HW2 8118   2.083   0.844   3.413  1.0274 -0.9730 -0.6918
    1SOL    HW3 8119   2.022   0.788   3.286 -0.4238 -0.3112 -0.2906
    1SOL    MW4 8120   2.025   0.793   3.373  0.0446 -0.1611 -0.3147
    1SOL     OW 8121   1.778   0.893   3.510 -0.5358 -0.0055  0.2926
    1SOL    HW2 8122   1.856   0.849   3.476 -1.1046 -0.3742 -0.5579
    1SOL    HW3 8123   1.705   0.853   3.462 -1.2335  0.4408  0.9711
    1SOL    MW4 8124   1.778   0.882   3.499 -0.7030  0.0048  0.2697
    1SOL     OW 8125   1.819   1.128   3.375  0.1434  0.1106 -0.5268
    1SOL    HW2 8126   1.883   1.186   3.417 -0.4224 -0.2398  0.8522
    1SOL    HW3 8127   1.810   1.054   3.436 -0.9143 -0.2715 -1.1294
    1SOL    MW4 8128   1.826   1.126   3.389 -0.0708  0.0139 -0.4244
    1SOL     OW 8129   2.012   1.285   3.501  0.0267 -0.6466  0.1878
    1SOL    HW2 8130   2.026   1.298   3.594 -0.0099 -0.6166  0.1893
    1SOL    HW3 8131   2.023   1.372   3.462  2.6244 -1.1077 -0.1706
    1SOL    MW4 8132   2.015   1.298   3.508  0.3645 -0.7036  0.1409
    1SOL     OW 8133   2.056   1.544   3.397  0.5356  0.2691  0.1800
    1SOL    HW2 8134   2.137   1.579   3.436  0.3393  2.0094 -0.9236
    1SOL    HW3 8135   1.986   1.594   3.438  0.1423  0.1344 -0.3190
    1SOL    MW4 8136   2.057   1.555   3.407  0.4578  0.4810 -0.0315
    1SOL     OW 8137   1.820   1.649   3.526 -0.3134  0.1842 -0.3131
    1SOL    HW2 8138   1.818   1.741   3.499 -0.0184 -0.2555 -1.8400
    1SOL    HW3 8139   1.736   1.614   3.496 -0.6643  0.0855  0.7658
    1SOL    MW4 8140   1.809   1.657   3.519 -0.3208  0.1131 -0.3724
    1SOL     OW 8141   1.796   1.900   3.425  0.2272 -0.1502 -0.0789
    1SOL    HW2 8142   1.874   1.942   3.463  0.4797 -0.1395 -0.5926
    1SOL    HW3 8143   1.806   1.915   3.330 -1.5156  1.7866  0.0033
    1SOL    MW4 8144   1.808   1.908   3.417  0.0308  0.1068 -0.1357
    1SOL     OW 8145   2.013   2.025   3.546  0.5473  0.4626  0.4522
    1SOL    HW2 8146   2.095   1.988   3.513 -0.5903 -1.1424 -0.6924
    1SOL    HW3 8147   2.015   2.117   3.520  1.1027 -0.0463 -1.3465
    1SOL    MW4 8148   2.024   2.032   3.538  0.4704  0.1836  0.0641
    1SOL     OW 8149   1.988   2.290   3.416 -0.3927  0.2472  0.0876
    1SOL    HW2 8150   1.902   2.332   3.426 -0.3921  0.3081 -0.1589
    1SOL    HW3 8151   2.000   2.284   3.321 -0.1605  0.1640  0.1238
    1SOL    MW4 8152   1.978   2.295   3.405 -0.3620  0.2444  0.0598
    1SOL     OW 8153   1.747   2.426   3.470  0.1128 -0.4726  0.5282
    1SOL    HW2 8154   1.732   2.435   3.564  0.7756  0.6629  0.5390
    1SOL    HW3 8155   1.674   2.373   3.439 -1.1971  0.8067  1.3679
    1SOL    MW4 8156   1.735   2.420   3.478  0.0274 -0.1538  0.6406
    1SOL     OW 8157   1.758   2.700   3.415 -0.4714  0.3871 -0.5518
    1SOL    HW2 8158   1.843   2.720   3.454 -0.4818  0.0223 -0.3333
    1SOL    HW3 8159   1.742   2.608   3.438 -0.9637  0.4776 -0.5143
    1SOL    MW4 8160   1.767   2.690   3.423 -0.5376  0.3510 -0.5178
    1SOL     OW 8161   2.008   2.793   3.509  0.3207  0.2844  0.4348
    1SOL    HW2 8162   2.008   2.796   3.604  1.5345 -0.6349  0.4750
    1SOL    HW3 8163   2.004   2.885   3.482 -3.3279  0.4773  1.3197
    1SOL    MW4 8164   2.008   2.806   3.518 -0.0005  0.1888  0.5567
    1SOL     OW 8165   2.016   3.049   3.426 -0.2008 -0.2209 -0.1433
    1SOL    HW2 8166   2.094   3.098   3.453 -0.7384  1.3960 -1.4474
    1SOL    HW3 8167   1.943   3.100   3.459 -0.7759  0.0112 -1.7190
    1SOL    MW4 8168   2.017   3.062   3.434 -0.3476  0.0231 -0.5231
    1SOL     OW 8169   1.824   3.244   3.480 -0.2011  0.2999 -0.2791
    1SOL    HW2 8170   1.817   3.270   3.572 -2.1429  1.6392 -0.7758
    1SOL    HW3 8171   1.845   3.325   3.434  1.3309 -0.4720 -0.9699
    1SOL    MW4 8172   1.825   3.258   3.486 -0.2551  0.3748 -0.4356
    1SOL     OW 8173   1.826   3.501   3.356 -0.4622 -0.2133  0.0792
    1SOL    HW2 8174   1.742   3.539   3.384 -0.7492 -0.6607 -0.1567
    1SOL    HW3 8175   1.814   3.487   3.262  0.2953  0.7832 -0.1718
    1SOL    MW4 8176   1.813   3.504   3.347 -0.4002 -0.1409  0.0148
    1SOL     OW 8177   2.049   3.627   3.457  0.0144 -0.6621 -0.2895
    1SOL    HW2 8178   2.115   3.576   3.411  0.1152  0.5763 -1.5681
    1SOL    HW3 8179   1.965   3.589   3.430  0.0768 -0.0144 -1.4652
    1SOL    MW4 8180   2.046   3.615   3.447  0.0360 -0.4134 -0.6130
    1SOL     OW 8181   2.073   3.888   3.413 -0.0903 -0.1886  0.5184
    1SOL    HW2 8182   1.995   3.918   3.459  1.1806 -0.9407  3.2826
    1SOL    HW3 8183   2.077   3.794   3.431  1.6904 -0.0779  0.7992
    1SOL    MW4 8184   2.063   3.880   3.421  0.3121 -0.2732  0.9198
    1SOL     OW 8185   1.829   4.006   3.510 -0.3457  0.1265 -0.3457
    1SOL    HW2 8186   1.827   4.006   3.606 -0.7541  0.6611 -0.3558
    1SOL    HW3 8187   1.751   3.958   3.484 -0.5939  0.5579 -0.4137
    1SOL    MW4 8188   1.819   4.000   3.519 -0.4324  0.2539 -0.3562
    1SOL     OW 8189   1.810   4.255   3.374 -0.0585  0.2831  0.0243
    1SOL    HW2 8190   1.815   4.170   3.418 -2.1970  0.5724  0.8924
    1SOL    HW3 8191   1.765   4.236   3.291 -2.4992  0.8444  1.1480
    1SOL    MW4 8192   1.804   4.241   3.369 -0.6628  0.3948  0.2868
    1SOL     OW 8193   2.011   4.386   3.510  0.0503 -0.0483 -0.4577
    1SOL    HW2 8194   1.946   4.342   3.456  0.1310 -0.7252 -0.0133
    1SOL    HW3 8195   2.013   4.476   3.478  0.7154 -0.6562 -2.1461
    1SOL    MW4 8196   2.003   4.392   3.499  0.1485 -0.2179 -0.6216
    1SOL     OW 8197   2.450   0.003   3.379  0.1031  0.3177  0.2195
    1SOL    HW2 8198   2.475  -0.083   3.413 -0.7503  0.1671  0.4850
    1SOL    HW3 8199   2.469  -0.002   3.285 -0.6829 -0.4538  0.0839
    1SOL    MW4 8200   2.456  -0.009   3.371 -0.1132  0.1960  0.2360
    1SOL     OW 8201   2.229   0.120   3.492  0.3739 -0.0527 -0.2908
    1SOL    HW2 8202   2.225   0.213   3.470 -0.4839 -0.1444 -0.5496
    1SOL    HW3 8203   2.314   0.091   3.460  0.5058  0.5696 -0.5056
    1SOL    MW4 8204   2.239   0.129   3.485  0.2780  0.0173 -0.3531
    1SOL     OW 8205   2.208   0.379   3.428 -0.2757 -0.1515 -0.0159
    1SOL    HW2 8206   2.282   0.433   3.457 -0.1329 -0.6820  0.6119
    1SOL    HW3 8207   2.131   0.423   3.463 -0.2274  0.1417 -0.2719
    1SOL    MW4 8208   2.208   0.392   3.437 -0.2506 -0.1828  0.0329
    1SOL     OW 8209   2.436   0.515   3.501  0.3696 -0.3912 -0.4241
    1SOL    HW2 8210   2.517   0.481   3.464  0.3998  0.4647 -1.1565
    1SOL    HW3 8211   2.433   0.606   3.473 -0.0476  0.0351  0.9333
    1SOL    MW4 8212   2.447   0.522   3.493  0.3185 -0.2220 -0.3414
    1SOL     OW 8213   2.446   0.779   3.402 -0.3821 -0.6425 -0.5539
    1SOL    HW2 8214   2.530   0.818   3.426 -1.8277  1.1174  1.9254
    1SOL    HW3 8215   2.443   0.785   3.306  1.3925  1.2288 -0.5208
    1SOL    MW4 8216   2.457   0.785   3.392 -0.3388 -0.1635 -0.2224
    1SOL     OW 8217   2.232   0.918   3.485  0.4207 -0.2485 -0.4137
    1SOL    HW2 8218   2.241   1.005   3.445  1.4095 -0.0885  0.1373
    1SOL    HW3 8219   2.303   0.867   3.446  0.8559 -0.3358  0.4845
    1SOL    MW4 8220   2.243   0.923   3.474  0.6084 -0.2390 -0.2224
    1SOL     OW 8221   2.227   1.166   3.378  0.6355 -0.2761 -0.0414
    1SOL    HW2 8222   2.310   1.196   3.416 -0.2775 -0.0473  1.8408
    1SOL    HW3 8223   2.160   1.220   3.420 -0.6276 -1.7486 -0.0939
    1SOL    MW4 8224   2.229   1.177   3.388  0.3486 -0.4402  0.2000
    1SOL     OW 8225   2.464   1.266   3.476  0.3385  0.0465  0.2424
    1SOL    HW2 8226   2.461   1.279   3.571 -1.0323 -3.2843  0.7326
    1SOL    HW3 8227   2.553   1.238   3.458  0.5337  0.4496  0.5804
    1SOL    MW4 8228   2.475   1.264   3.486  0.1836 -0.3399  0.3517
    1SOL     OW 8229   2.500   1.525   3.365 -0.1076  0.0500 -0.0624
    1SOL    HW2 8230   2.488   1.433   3.390  1.5328 -0.4940 -1.2305
    1SOL    HW3 8231   2.489   1.526   3.270 -1.0158  1.2242  0.0417
    1SOL    MW4 8232   2.497   1.513   3.356 -0.0112  0.1333 -0.2029
    1SOL     OW 8233   2.291   1.633   3.525  0.5640  0.3565  0.1966
    1SOL    HW2 8234   2.313   1.634   3.618  0.8044  0.9473  0.1373
    1SOL    HW3 8235   2.369   1.595   3.483  0.4457  0.0668  0.2430
    1SOL    MW4 8236   2.304   1.628   3.531  0.5801  0.3961  0.1950
    1SOL     OW 8237   2.251   1.907   3.443 -0.1853 -0.2333  0.3052
    1SOL    HW2 8238   2.276   1.823   3.483  1.3481  0.0787  0.0140
    1SOL    HW3 8239   2.266   1.895   3.349  2.8327  1.2948  0.5381
    1SOL    MW4 8240   2.256   1.894   3.436  0.4151  0.0093  0.2973
    1SOL     OW 8241   2.493   2.069   3.506 -0.4857  0.0343  0.1313
    1SOL    HW2 8242   2.412   2.024   3.482 -0.1694 -0.6529  0.3372
    1SOL    HW3 8243   2.495   2.146   3.449 -0.8192 -0.4425 -0.5307
    1SOL    MW4 8244   2.483   2.073   3.495 -0.4878 -0.1194  0.0708
    1SOL     OW 8245   2.489   2.311   3.372 -0.2602  0.3782 -0.0685
    1SOL    HW2 8246   2.408   2.336   3.415 -0.1064  3.4121 -1.4121
    1SOL    HW3 8247   2.556   2.367   3.412  0.6038  0.1951 -1.2300
    1SOL    MW4 8248   2.488   2.322   3.383 -0.1261  0.7544 -0.3991
    1SOL     OW 8249   2.254   2.385   3.489 -0.1059 -0.4205  0.0068
    1SOL    HW2 8250   2.172   2.351   3.452  0.8322 -0.9279 -1.6788
    1SOL    HW3 8251   2.254   2.477   3.465 -0.0657 -0.4821 -0.2382
    1SOL    MW4 8252   2.243   2.392   3.481  0.0231 -0.4957 -0.2480
    1SOL     OW 8253   2.255   2.655   3.425 -0.0224 -0.1642  0.0510
    1SOL    HW2 8254   2.170   2.688   3.453 -0.8491 -1.5087 -0.7972
    1SOL    HW3 8255   2.250   2.656   3.329  1.5119  1.2514 -0.0246
    1SOL    MW4 8256   2.243   2.659   3.416  0.0713 -0.1547 -0.0708
    1SOL     OW 8257   2.447   2.821   3.541 -0.2168 -0.5719 -0.1251
    1SOL    HW2 8258   2.428   2.902   3.494 -1.1825  0.3183  1.7357
    1SOL    HW3 8259   2.383   2.758   3.507 -1.1150  0.1519  0.1830
    1SOL    MW4 8260   2.436   2.824   3.530 -0.4628 -0.3588  0.1612
    1SOL     OW 8261   2.461   3.063   3.404 -0.2549 -0.1912 -0.3470
    1SOL    HW2 8262   2.532   3.115   3.442 -1.2103  0.9173 -0.0570
    1SOL    HW3 8263   2.482   3.058   3.311 -0.0096  0.4950 -0.3295
    1SOL    MW4 8264   2.473   3.069   3.397 -0.3486  0.0453 -0.3061
    1SOL     OW 8265   2.246   3.230   3.464 -0.1002 -0.5152  0.3386
    1SOL    HW2 8266   2.248   3.233   3.560 -2.2528 -1.1754  0.4323
    1SOL    HW3 8267   2.323   3.178   3.440  1.5255  1.2179  1.5824
    1SOL    MW4 8268   2.257   3.223   3.474 -0.1698 -0.3736  0.5152
    1SOL     OW 8269   2.266   3.500   3.344  0.7643 -0.2583 -0.5223
    1SOL    HW2 8270   2.251   3.409   3.370 -2.1107  0.1447 -0.6070
    1SOL    HW3 8271   2.272   3.496   3.248 -0.9088 -0.1823 -0.6419
    1SOL    MW4 8272   2.265   3.487   3.334  0.1645 -0.1953 -0.5493
    1SOL     OW 8273   2.482   3.601   3.487 -0.2804 -0.2555  0.1178
    1SOL    HW2 8274   2.478   3.693   3.462 -0.9682 -0.4408 -0.4660
    1SOL    HW3 8275   2.411   3.560   3.439 -0.1498 -1.0459  0.5902
    1SOL    MW4 8276   2.472   3.608   3.478 -0.3541 -0.3841  0.1032
    1SOL     OW 8277   2.482   3.853   3.382  0.4776  0.2000  0.0393
    1SOL    HW2 8278   2.569   3.889   3.401  0.9723  1.0140 -3.3824
    1SOL    HW3 8279   2.421   3.919   3.413  1.2419  1.7364 -1.6195
    1SOL    MW4 8280   2.486   3.866   3.388  0.6437  0.5100 -0.6309
    1SOL     OW 8281   2.299   4.037   3.470 -0.4890 -0.3034  0.1547
    1SOL    HW2 8282   2.285   4.130   3.451 -0.6368 -0.4661 -0.5166
    1SOL    HW3 8283   2.216   3.995   3.450 -0.7648 -0.4173  1.5211
    1SOL    MW4 8284   2.286   4.044   3.465 -0.5445 -0.3400  0.2465
    1SOL     OW 8285   2.250   4.326   3.405 -0.5127 -0.6250  0.3232
    1SOL    HW2 8286   2.163   4.348   3.437 -0.3045  1.1731 -0.3225
    1SOL    HW3 8287   2.238   4.312   3.311 -0.1664 -0.7239  0.2932
    1SOL    MW4 8288   2.237   4.327   3.396 -0.4396 -0.4005  0.2339
    1SOL     OW 8289   2.514   4.430   3.497  0.0384 -0.0991 -0.8875
    1SOL    HW2 8290   2.515   4.427   3.593  0.0571 -0.4281 -0.8966
    1SOL    HW3 8291   2.426   4.401   3.473  0.4601 -1.2996 -1.0057
    1SOL    MW4 8292   2.503   4.426   3.506  0.0963 -0.3009 -0.9046
    1SOL     OW 8293   2.915   0.051   3.412  0.1921 -0.5582  0.0508
    1SOL    HW2 8294   2.832   0.089   3.442  0.5059  0.3997 -0.2606
    1SOL    HW3 8295   2.904   0.039   3.318 -0.4086 -2.5708  0.3631
    1SOL    MW4 8296   2.903   0.055   3.404  0.1540 -0.6974  0.0508
    1SOL     OW 8297   2.660   0.127   3.482  0.0224 -0.1705 -0.0793
    1SOL    HW2 8298   2.640   0.116   3.575  0.0969  0.6862  0.0359
    1SOL    HW3 8299   2.590   0.079   3.437 -0.8239  0.6216  0.3823
    1SOL    MW4 8300   2.648   0.119   3.488 -0.0794  0.0470 -0.0031
    1SOL     OW 8301   2.681   0.398   3.415  0.0457 -0.0993  0.2553
    1SOL    HW2 8302   2.756   0.440   3.456 -1.1624  0.3980  2.0416
    1SOL    HW3 8303   2.678   0.310   3.455  0.0321 -0.3289 -0.2498
    1SOL    MW4 8304   2.690   0.392   3.426 -0.1152 -0.0640  0.4244
    1SOL     OW 8305   2.923   0.524   3.511  0.3524  0.4239  0.5310
    1SOL    HW2 8306   2.940   0.532   3.605  1.7635  0.9736  0.2359
    1SOL    HW3 8307   2.935   0.612   3.477 -2.7135  0.7873  0.2070
    1SOL    MW4 8308   2.927   0.537   3.519  0.1340  0.5444  0.4497
    1SOL     OW 8309   2.940   0.771   3.407 -0.2396  0.4903 -0.0355
    1SOL    HW2 8310   3.014   0.822   3.438 -0.3710  0.3037  0.5847
    1SOL    HW3 8311   2.863   0.821   3.436 -0.3795 -0.3950  1.1638
    1SOL    MW4 8312   2.939   0.784   3.415 -0.2754  0.3489  0.2043
    1SOL     OW 8313   2.696   0.883   3.462  0.4073  0.1233 -0.0266
    1SOL    HW2 8314   2.698   0.909   3.554 -1.4540  0.5662 -0.0871
    1SOL    HW3 8315   2.705   0.965   3.413 -3.5805  0.5383 -0.2134
    1SOL    MW4 8316   2.697   0.897   3.468 -0.3643  0.2364 -0.0594
    1SOL     OW 8317   2.709   1.156   3.375 -0.5639  0.7184  0.4524
    1SOL    HW2 8318   2.791   1.196   3.404  0.1143  0.0016 -0.4479
    1SOL    HW3 8319   2.708   1.171   3.280 -0.8611 -0.3980  0.2833
    1SOL    MW4 8320   2.720   1.164   3.366 -0.5140  0.4765  0.3111
    1SOL     OW 8321   2.920   1.300   3.483 -0.0441  0.6485  0.0615
    1SOL    HW2 8322   2.921   1.314   3.578 -1.8232 -2.3208  0.5863
    1SOL    HW3 8323   3.002   1.253   3.466 -0.4621 -0.2344  0.4148
    1SOL    MW4 8324   2.931   1.296   3.493 -0.3338  0.1403  0.1771
    1SOL     OW 8325   2.945   1.535   3.348  0.3069 -0.4576 -0.0524
    1SOL    HW2 8326   2.866   1.579   3.380  0.5739 -0.1804  0.2348
    1SOL    HW3 8327   2.946   1.452   3.395  0.5032 -0.2066  0.3947
    1SOL    MW4 8328   2.935   1.530   3.359  0.3684 -0.3880  0.0443
    1SOL     OW 8329   2.722   1.665   3.463 -0.2956 -0.6695 -0.4656
    1SOL    HW2 8330   2.716   1.755   3.432  0.5309 -0.5959 -0.4460
    1SOL    HW3 8331   2.645   1.621   3.427 -0.7814  0.0811 -0.3464
    1SOL    MW4 8332   2.711   1.671   3.454 -0.2506 -0.5606 -0.4473
    1SOL     OW 8333   2.727   1.944   3.397 -0.4686  0.2637 -0.0830
    1SOL    HW2 8334   2.662   2.005   3.432  0.6660  1.7366 -0.4968
    1SOL    HW3 8335   2.722   1.956   3.302  1.1236  1.1699 -0.0725
    1SOL    MW4 8336   2.718   1.954   3.389 -0.1090  0.5776 -0.1364
    1SOL     OW 8337   2.969   2.066   3.463 -0.0848 -0.0337  0.1333
    1SOL    HW2 8338   2.970   2.060   3.558 -2.2652  0.7346  0.2220
    1SOL    HW3 8339   2.886   2.027   3.437  0.0978  0.5444 -1.4105
    1SOL    MW4 8340   2.958   2.060   3.472 -0.3483  0.1438 -0.0584
    1SOL     OW 8341   2.917   2.340   3.403  0.2988  0.2183  0.2140
    1SOL    HW2 8342   2.928   2.254   3.445  0.5188  0.0290 -0.2226
    1SOL    HW3 8343   2.922   2.321   3.309 -0.3602  0.6140  0.1009
    1SOL    MW4 8344   2.919   2.326   3.396  0.2410  0.2456  0.1414
    1SOL     OW 8345   2.678   2.472   3.471 -0.3332  0.1111 -0.0522
    1SOL    HW2 8346   2.681   2.486   3.566 -1.2199  0.2156 -0.0371
    1SOL    HW3 8347   2.756   2.420   3.452 -0.1926  0.0253  0.7498
    1SOL    MW4 8348   2.689   2.467   3.481 -0.4318  0.1135  0.0558
    1SOL     OW 8349   2.697   2.746   3.417  0.1259  0.4060  0.0601
    1SOL    HW2 8350   2.684   2.653   3.434  1.1244  0.2167 -0.1729
    1SOL    HW3 8351   2.628   2.790   3.467 -0.4498 -0.4650  0.0349
    1SOL    MW4 8352   2.687   2.740   3.426  0.1819  0.2661  0.0262
    1SOL     OW 8353   2.931   2.856   3.507  0.5412 -0.0351 -0.5056
    1SOL    HW2 8354   2.909   2.868   3.600 -0.3592 -0.6797 -0.6358
    1SOL    HW3 8355   2.857   2.808   3.471  1.8661 -1.6436 -1.0979
    1SOL    MW4 8356   2.918   2.851   3.515  0.5970 -0.3324 -0.6011
    1SOL     OW 8357   2.883   3.112   3.395 -0.3066 -0.4553 -0.1501
    1SOL    HW2 8358   2.898   3.030   3.441 -0.1549 -0.3424  0.0009
    1SOL    HW3 8359   2.888   3.089   3.302 -1.0493 -0.7631 -0.1118
    1SOL    MW4 8360   2.886   3.098   3.389 -0.3846 -0.4809 -0.1254
    1SOL     OW 8361   2.652   3.238   3.520 -0.4308 -0.7141  0.1126
    1SOL    HW2 8362   2.660   3.251   3.614  0.8518  0.1054 -0.0993
    1SOL    HW3 8363   2.733   3.194   3.495 -0.4418 -0.2705 -0.7192
    1SOL    MW4 8364   2.663   3.234   3.529 -0.2632 -0.5474 -0.0255
    1SOL     OW 8365   2.680   3.461   3.361 -0.5290  0.2657  0.2056
    1SOL    HW2 8366   2.678   3.380   3.412 -0.4247  0.7197  0.9391
    1SOL    HW3 8367   2.622   3.521   3.408 -2.2654 -0.0587 -1.4907
    1SOL    MW4 8368   2.672   3.458   3.374 -0.7443  0.2828  0.0787
    1SOL     OW 8369   2.895   3.570   3.490  0.0801  0.0794  0.2066
    1SOL    HW2 8370   2.904   3.657   3.451 -0.1243  0.6512  1.4179
    1SOL    HW3 8371   2.822   3.531   3.443 -0.5247  0.9719  0.3820
    1SOL    MW4 8372   2.887   3.577   3.479 -0.0267  0.2728  0.3893
    1SOL     OW 8373   2.919   3.835   3.396  0.1957 -0.2477 -0.2304
    1SOL    HW2 8374   2.987   3.885   3.441 -0.4419  0.0092  0.4680
    1SOL    HW3 8375   2.837   3.874   3.427 -0.3053 -1.6589  0.2457
    1SOL    MW4 8376   2.917   3.847   3.406  0.0453 -0.3998 -0.0753
    1SOL     OW 8377   2.703   3.993   3.484 -0.3405  0.0019 -0.1220
    1SOL    HW2 8378   2.716   3.995   3.579 -0.3754  1.2782 -0.1434
    1SOL    HW3 8379   2.729   4.080   3.454  1.0255 -0.8519 -1.4748
    1SOL    MW4 8380   2.708   4.004   3.492 -0.1647  0.0577 -0.3030
    1SOL     OW 8381   2.721   4.258   3.416 -0.2936 -0.8283 -0.3599
    1SOL    HW2 8382   2.797   4.304   3.452 -0.8246 -0.1896 -0.0396
    1SOL    HW3 8383   2.649   4.320   3.427 -0.8548 -1.4284 -0.6739
    1SOL    MW4 8384   2.722   4.272   3.422 -0.4377 -0.8230 -0.3591
    1SOL     OW 8385   2.927   4.445   3.487  0.0053  0.2612 -0.0806
    1SOL    HW2 8386   2.904   4.448   3.580  0.7853  0.3935  0.1056
    1SOL    HW3 8387   2.932   4.537   3.460  0.6870  0.2404 -0.0297
    1SOL    MW4 8388   2.924   4.457   3.495  0.1979  0.2751 -0.0494
    1SOL     OW 8389   3.386   4.659   3.411  0.0390 -0.4219 -0.1049
    1SOL    HW2 8390   3.309   4.712   3.429  1.0888  1.2121 -0.3557
    1SOL    HW3 8391   3.382   4.642   3.317  0.1589 -0.0762 -0.1714
    1SOL    MW4 8392   3.375   4.664   3.401  0.1934 -0.1607 -0.1469
    1SOL     OW 8393   3.168   0.143   3.501  0.0329  0.0847 -0.0305
    1SOL    HW2 8394   3.171   0.236   3.479 -2.5096  0.3648  0.6506
    1SOL    HW3 8395   3.091   0.110   3.455  0.4837 -1.5293  0.3461
    1SOL    MW4 8396   3.158   0.151   3.492 -0.2429 -0.0913  0.1090
    1SOL     OW 8397   3.169   0.428   3.422  0.0299  0.9251  0.5010
    1SOL    HW2 8398   3.080   0.455   3.445 -1.6152 -3.1818 -0.4349
    1SOL    HW3 8399   3.170   0.428   3.326 -0.0198 -1.8883  0.4531
    1SOL    MW4 8400   3.157   0.431   3.413 -0.1938  0.0120  0.3715
    1SOL     OW 8401   3.409   0.552   3.502 -0.4362  0.0739 -0.0220
    1SOL    HW2 8402   3.410   0.567   3.596 -0.2294  1.9486 -0.3066
    1SOL    HW3 8403   3.329   0.502   3.486 -0.2104 -0.6912  1.1920
    1SOL    MW4 8404   3.399   0.547   3.512 -0.3788  0.2202  0.1006
    1SOL     OW 8405   3.393   0.800   3.378 -0.0401  0.0737 -0.3828
    1SOL    HW2 8406   3.467   0.840   3.423 -1.2486 -0.1387  1.8683
    1SOL    HW3 8407   3.392   0.710   3.410  0.3431 -0.7197 -2.4944
    1SOL    MW4 8408   3.403   0.793   3.388 -0.1490 -0.0590 -0.3641
    1SOL     OW 8409   3.165   0.912   3.498 -0.3494 -0.2680  0.2829
    1SOL    HW2 8410   3.159   0.998   3.456  0.1217  0.0141  0.7903
    1SOL    HW3 8411   3.245   0.873   3.463  0.6825  0.4451  1.7800
    1SOL    MW4 8412   3.174   0.918   3.488 -0.1509 -0.1367  0.5474
    1SOL     OW 8413   3.141   1.162   3.387 -0.6549  0.0118 -0.2603
    1SOL    HW2 8414   3.214   1.202   3.435 -0.6364 -0.2870 -0.0334
    1SOL    HW3 8415   3.147   1.198   3.299 -0.4282  0.2372 -0.1537
    1SOL    MW4 8416   3.151   1.172   3.382 -0.6225  0.0020 -0.2160
    1SOL     OW 8417   3.367   1.286   3.494  0.2717 -0.0463  0.1390
    1SOL    HW2 8418   3.460   1.265   3.484  0.9080  1.3873  2.6149
    1SOL    HW3 8419   3.359   1.376   3.463 -0.5222 -0.4949 -1.0183
    1SOL    MW4 8420   3.378   1.295   3.488  0.2508  0.0837  0.3133
    1SOL     OW 8421   3.370   1.537   3.384  0.1695  0.3974 -0.0105
    1SOL    HW2 8422   3.446   1.571   3.431 -0.5120  0.8262  0.7807
    1SOL    HW3 8423   3.296   1.588   3.417 -0.3951  0.3214 -1.1388
    1SOL    MW4 8424   3.371   1.548   3.395  0.0052  0.4439 -0.0548
    1SOL     OW 8425   3.150   1.660   3.497 -0.1857  0.5030 -0.4060
    1SOL    HW2 8426   3.152   1.736   3.439 -1.0481 -0.2520 -1.4243
    1SOL    HW3 8427   3.075   1.609   3.468  0.7122 -1.0322 -0.0866
    1SOL    MW4 8428   3.141   1.663   3.486 -0.1810  0.2009 -0.4983
    1SOL     OW 8429   3.189   1.898   3.371  0.5079  0.3281  0.0135
    1SOL    HW2 8430   3.116   1.953   3.399  0.7647  0.8889 -0.3917
    1SOL    HW3 8431   3.267   1.944   3.403  0.7289  0.2719 -0.4335
    1SOL    MW4 8432   3.189   1.912   3.379  0.5710  0.3947 -0.0992
    1SOL     OW 8433   3.393   2.055   3.480  0.0343  0.1884  0.1333
    1SOL    HW2 8434   3.373   2.139   3.438  0.7786  0.0311 -0.5302
    1SOL    HW3 8435   3.364   2.066   3.571  0.1700  1.1749  0.0558
    1SOL    MW4 8436   3.386   2.067   3.487  0.1507  0.2978  0.0358
    1SOL     OW 8437   3.362   2.340   3.340 -0.2816  0.0410  0.5621
    1SOL    HW2 8438   3.434   2.354   3.402 -0.4441  0.0181  0.7564
    1SOL    HW3 8439   3.287   2.383   3.380 -0.3767  0.0675  0.3580
    1SOL    MW4 8440   3.362   2.347   3.353 -0.3157  0.0415  0.5608
    1SOL     OW 8441   3.148   2.448   3.480 -0.0576 -0.3228  0.0371
    1SOL    HW2 8442   3.137   2.535   3.442 -1.0236  0.1578  1.3826
    1SOL    HW3 8443   3.069   2.400   3.454  0.4982 -0.8131 -0.7486
    1SOL    MW4 8444   3.136   2.453   3.472 -0.1116 -0.3240  0.1109
    1SOL     OW 8445   3.127   2.724   3.348 -0.1258  0.1195  0.0884
    1SOL    HW2 8446   3.208   2.763   3.380 -0.5237  0.1474  1.0892
    1SOL    HW3 8447   3.058   2.763   3.402 -0.5145 -2.0594  1.2520
    1SOL    MW4 8448   3.129   2.734   3.360 -0.2296 -0.1643  0.3738
    1SOL     OW 8449   3.363   2.822   3.488 -0.1156 -0.2766  0.5288
    1SOL    HW2 8450   3.317   2.817   3.572 -1.8171  1.5281 -0.2469
    1SOL    HW3 8451   3.355   2.914   3.462 -0.6794 -1.0376 -2.1553
    1SOL    MW4 8452   3.356   2.833   3.496 -0.4144 -0.1390  0.0722
    1SOL     OW 8453   3.331   3.069   3.397 -0.0154 -0.1174 -0.2951
    1SOL    HW2 8454   3.408   3.123   3.413  0.5566 -1.3439  1.0887
    1SOL    HW3 8455   3.266   3.101   3.460  0.3690 -1.1260  0.6214
    1SOL    MW4 8456   3.332   3.081   3.407  0.1109 -0.4122  0.0083
    1SOL     OW 8457   3.108   3.214   3.525  0.2562 -0.0222 -0.3962
    1SOL    HW2 8458   3.133   3.298   3.488  2.1480 -0.3757  0.0309
    1SOL    HW3 8459   3.030   3.188   3.476  0.3143  1.4460 -1.2817
    1SOL    MW4 8460   3.101   3.221   3.514  0.5136  0.1247 -0.4568
    1SOL     OW 8461   3.142   3.485   3.420 -0.1748  0.2407 -0.0338
    1SOL    HW2 8462   3.049   3.500   3.439 -0.0781  0.8223 -0.0158
    1SOL    HW3 8463   3.145   3.470   3.325 -0.1167  1.5703 -0.2472
    1SOL    MW4 8464   3.130   3.485   3.410 -0.1545  0.4928 -0.0596
    1SOL     OW 8465   3.348   3.619   3.495  0.3174 -0.3441  0.1233
    1SOL    HW2 8466   3.349   3.704   3.451 -2.3797 -0.1626  0.3218
    1SOL    HW3 8467   3.262   3.581   3.474  0.9087 -2.3956  1.2003
    1SOL    MW4 8468   3.336   3.625   3.486  0.0396 -0.5910  0.2916
    1SOL     OW 8469   3.364   3.856   3.361  0.0097 -0.0472  0.0177
    1SOL    HW2 8470   3.435   3.912   3.390 -0.4374  0.8063 -0.5209
    1SOL    HW3 8471   3.285   3.893   3.401 -0.5267  0.7806 -1.7492
    1SOL    MW4 8472   3.363   3.868   3.370 -0.1199  0.1748 -0.2863
    1SOL     OW 8473   3.159   4.010   3.479  0.0705 -0.3658 -0.5256
    1SOL    HW2 8474   3.169   4.003   3.574  0.5212 -1.2478 -0.6270
    1SOL    HW3 8475   3.148   4.103   3.462  2.4223  0.0624  0.1741
    1SOL    MW4 8476   3.159   4.021   3.489  0.4404 -0.4253 -0.4468
    1SOL     OW 8477   3.161   4.288   3.393 -0.1915  0.1623 -0.7076
    1SOL    HW2 8478   3.240   4.313   3.440 -1.0931 -2.8782  2.6727
    1SOL    HW3 8479   3.090   4.328   3.442 -0.9270  1.1723 -2.5319
    1SOL    MW4 8480   3.162   4.297   3.405 -0.4075 -0.1049 -0.5021
    1SOL     OW 8481   3.369   4.420   3.519 -0.2221 -0.1454  0.2692
    1SOL    HW2 8482   3.356   4.420   3.614  0.5267  1.1529  0.3930
    1SOL    HW3 8483   3.372   4.513   3.496  0.4168 -0.4533 -0.9046
    1SOL    MW4 8484   3.368   4.432   3.528 -0.0389 -0.0138  0.1309
    1SOL     OW 8485   3.832   4.582   3.367  0.2233 -0.2627  0.0327
    1SOL    HW2 8486   3.760   4.639   3.391  1.1757  1.2942 -0.6934
    1SOL    HW3 8487   3.838   4.590   3.271  1.9790  0.4282  0.1783
    1SOL    MW4 8488   3.823   4.590   3.357  0.5808  0.0339 -0.0441
    1SOL     OW 8489   3.634   0.092   3.468 -0.0870  0.1454 -0.0654
    1SOL    HW2 8490   3.639   0.184   3.442  2.6785  0.3875  1.2156
    1SOL    HW3 8491   3.540   0.072   3.467 -0.7768  3.1671  0.2755
    1SOL    MW4 8492   3.622   0.102   3.465  0.1869  0.5760  0.1485
    1SOL     OW 8493   3.617   0.368   3.403  0.5100  0.1662 -0.0721
    1SOL    HW2 8494   3.691   0.416   3.440  0.9997  0.1493 -1.0137
    1SOL    HW3 8495   3.541   0.422   3.424  0.6070 -0.5076  2.1210
    1SOL    MW4 8496   3.617   0.381   3.411  0.5875  0.0751  0.0930
    1SOL     OW 8497   3.809   0.525   3.524  0.1104  0.3451 -0.2770
    1SOL    HW2 8498   3.818   0.522   3.620  0.6836 -0.0651 -0.3375
    1SOL    HW3 8499   3.889   0.483   3.492  0.1510  0.9323 -0.9475
    1SOL    MW4 8500   3.821   0.519   3.533  0.1912  0.3685 -0.3734
    1SOL     OW 8501   3.836   0.761   3.408  0.4264  0.0937  0.1673
    1SOL    HW2 8502   3.915   0.796   3.449  0.7279 -1.0398  0.5596
    1SOL    HW3 8503   3.814   0.683   3.458 -0.2255 -0.3104 -0.7184
    1SOL    MW4 8504   3.843   0.755   3.420  0.3800 -0.1092  0.1025
    1SOL     OW 8505   3.619   0.902   3.509 -0.2690  0.3069  0.0330
    1SOL    HW2 8506   3.614   0.897   3.604  0.1183  0.1701  0.0433
    1SOL    HW3 8507   3.706   0.869   3.487 -0.4408  0.1330 -0.3840
    1SOL    MW4 8508   3.630   0.897   3.519 -0.2408  0.2659 -0.0207
    1SOL     OW 8509   3.618   1.165   3.421  0.2827 -0.2059  0.2068
    1SOL    HW2 8510   3.620   1.074   3.448 -3.2705 -0.4934 -0.2017
    1SOL    HW3 8511   3.628   1.163   3.326 -2.5320 -0.4697 -0.1382
    1SOL    MW4 8512   3.619   1.153   3.412 -0.5574 -0.2786  0.1073
    1SOL     OW 8513   3.823   1.298   3.529  0.4336  0.2322 -0.1010
    1SOL    HW2 8514   3.811   1.294   3.624  0.9509  0.1596 -0.0383
    1SOL    HW3 8515   3.751   1.245   3.494 -0.7692  1.6481  0.1694
    1SOL    MW4 8516   3.812   1.290   3.537  0.3431  0.4094 -0.0572
    1SOL     OW 8517   3.795   1.545   3.413  0.6207  0.1240  0.2137
    1SOL    HW2 8518   3.866   1.603   3.440  0.9429 -0.0282 -0.3089
    1SOL    HW3 8519   3.812   1.463   3.460  2.0574 -0.6570 -1.6328
    1SOL    MW4 8520   3.807   1.542   3.423  0.8531  0.0010 -0.0987
    1SOL     OW 8521   3.587   1.673   3.517  0.1627 -0.3194 -0.2438
    1SOL    HW2 8522   3.593   1.758   3.473  2.0650 -0.3055 -0.0143
    1SOL    HW3 8523   3.661   1.623   3.481 -0.8078 -1.8024 -0.2151
    1SOL    MW4 8524   3.597   1.678   3.506  0.2859 -0.5133 -0.2098
    1SOL     OW 8525   3.642   1.925   3.390  0.0870  0.5855 -0.5085
    1SOL    HW2 8526   3.719   1.979   3.405  0.7918 -0.2937 -0.9462
    1SOL    HW3 8527   3.573   1.966   3.442  0.7841  1.5228 -0.3279
    1SOL    MW4 8528   3.643   1.937   3.399  0.2718  0.5931 -0.5426
    1SOL     OW 8529   3.863   2.069   3.488  0.0406 -0.0401 -0.0742
    1SOL    HW2 8530   3.842   2.061   3.581  0.8995 -1.3524  0.0317
    1SOL    HW3 8531   3.943   2.017   3.477  0.1537  0.3978 -1.4770
    1SOL    MW4 8532   3.871   2.061   3.499  0.1688 -0.1554 -0.2456
    1SOL     OW 8533   3.787   2.314   3.393 -0.2445  0.6676  0.2287
    1SOL    HW2 8534   3.856   2.372   3.425  1.0500 -0.1441 -0.9878
    1SOL    HW3 8535   3.818   2.226   3.414 -0.5003  0.2549 -1.0782
    1SOL    MW4 8536   3.800   2.310   3.400 -0.1078  0.5059 -0.1042
    1SOL     OW 8537   3.560   2.417   3.500 -0.4243 -0.0366 -0.0926
    1SOL    HW2 8538   3.568   2.502   3.456 -1.5631 -1.1078 -2.4617
    1SOL    HW3 8539   3.636   2.367   3.467 -0.7066 -0.4987 -0.0411
    1SOL    MW4 8540   3.571   2.421   3.490 -0.6118 -0.2387 -0.3984
    1SOL     OW 8541   3.591   2.685   3.398 -0.2394  0.4941 -0.3211
    1SOL    HW2 8542   3.665   2.733   3.436 -0.4671  0.1219  0.6063
    1SOL    HW3 8543   3.514   2.734   3.425 -0.4656 -0.3467  0.5534
    1SOL    MW4 8544   3.591   2.698   3.406 -0.2995  0.3340 -0.0834
    1SOL     OW 8545   3.830   2.858   3.484 -0.2745 -0.1724  0.0607
    1SOL    HW2 8546   3.841   2.853   3.579  0.3934 -0.6021 -0.0351
    1SOL    HW3 8547   3.825   2.951   3.465  0.0967 -0.0712  0.4654
    1SOL    MW4 8548   3.831   2.869   3.494 -0.1373 -0.2158  0.1016
    1SOL     OW 8549   3.804   3.135   3.369 -0.5178  0.2288 -0.0243
    1SOL    HW2 8550   3.895   3.156   3.393 -0.5856  1.5004 -0.8305
    1SOL    HW3 8551   3.808   3.115   3.275 -0.9222 -0.6711  0.1436
    1SOL    MW4 8552   3.817   3.135   3.360 -0.5801  0.2778 -0.1085
    1SOL     OW 8553   3.550   3.221   3.474 -0.0999  0.0516 -0.3900
    1SOL    HW2 8554   3.553   3.317   3.467  1.5093  0.1266  0.9582
    1SOL    HW3 8555   3.634   3.192   3.438 -1.1000 -0.9569 -1.9673
    1SOL    MW4 8556   3.562   3.230   3.468 -0.0196 -0.0718 -0.4203
    1SOL     OW 8557   3.575   3.485   3.394 -0.0585 -0.2498  0.1814
    1SOL    HW2 8558   3.505   3.542   3.424  0.2979 -0.3335  1.1959
    1SOL    HW3 8559   3.565   3.482   3.299 -0.5612  0.8590  0.2001
    1SOL    MW4 8560   3.565   3.492   3.385 -0.0777 -0.1144  0.3178
    1SOL     OW 8561   3.808   3.622   3.498  0.3436  0.3212 -0.2707
    1SOL    HW2 8562   3.790   3.631   3.591  0.4867 -0.1986 -0.1960
    1SOL    HW3 8563   3.732   3.575   3.463 -0.3153  1.6296 -0.6362
    1SOL    MW4 8564   3.796   3.617   3.506  0.2756  0.4251 -0.3090
    1SOL     OW 8565   3.823   3.865   3.380 -0.4818 -0.3731 -0.2339
    1SOL    HW2 8566   3.749   3.906   3.424 -0.1361 -0.5974  0.5736
    1SOL    HW3 8567   3.818   3.773   3.406 -1.0848 -0.8006 -1.7968
    1SOL    MW4 8568   3.813   3.858   3.390 -0.5157 -0.4592 -0.3333
    1SOL     OW 8569   3.580   3.997   3.475  0.5806  0.8820  0.2031
    1SOL    HW2 8570   3.577   4.003   3.571  3.9514  1.7876  0.3189
    1SOL    HW3 8571   3.571   4.088   3.446 -0.1135  0.6373 -0.3622
    1SOL    MW4 8572   3.578   4.010   3.484  0.9341  0.9689  0.1435
    1SOL     OW 8573   3.611   4.264   3.438  0.1805 -0.3415  0.1025
    1SOL    HW2 8574   3.542   4.324   3.466  1.1044  0.5621  0.4585
    1SOL    HW3 8575   3.613   4.273   3.342 -1.8770 -2.2393 -0.1825
    1SOL    MW4 8576   3.602   4.273   3.429  0.0308 -0.4730  0.1116
    1SOL     OW 8577   3.831   4.385   3.550 -0.2124 -0.0488 -0.3284
    1SOL    HW2 8578   3.748   4.346   3.524  0.3053 -1.4954  0.1698
    1SOL    HW3 8579   3.844   4.458   3.489 -0.6199 -1.3401 -1.9725
    1SOL    MW4 8580   3.822   4.390   3.539 -0.1979 -0.4096 -0.4797
    1SOL     OW 8581   4.256   4.647   3.403  0.2393 -0.3799 -0.2403
    1SOL    HW2 8582   4.266   4.560   3.442 -1.6028 -0.0491  1.0560
    1SOL    HW3 8583   4.326   4.699   3.442  1.3309 -1.2556 -0.9933
    1SOL    MW4 8584   4.266   4.642   3.414  0.1407 -0.4511 -0.1686
    1SOL     OW 8585   4.024   0.106   3.489  0.5428 -0.2460  0.0921
    1SOL    HW2 8586   4.101   0.067   3.447  0.1147  0.2960 -1.2143
    1SOL    HW3 8587   3.951   0.053   3.458  0.0380  1.1461 -1.1330
    1SOL    MW4 8588   4.025   0.094   3.480  0.4191  0.0092 -0.2420
    1SOL     OW 8589   4.026   0.387   3.433  0.1632 -0.0807 -0.6670
    1SOL    HW2 8590   4.038   0.296   3.459  1.1356 -0.1065 -1.1579
    1SOL    HW3 8591   4.028   0.386   3.338 -0.4555  0.3779 -0.6898
    1SOL    MW4 8592   4.028   0.375   3.424  0.2098 -0.0236 -0.7348
    1SOL     OW 8593   4.274   0.503   3.500  0.2158 -0.0210 -0.2375
    1SOL    HW2 8594   4.268   0.592   3.466  0.5944  0.0435 -0.1376
    1SOL    HW3 8595   4.189   0.464   3.479  0.5457 -0.0691 -1.5053
    1SOL    MW4 8596   4.262   0.510   3.493  0.3090 -0.0188 -0.3920
    1SOL     OW 8597   4.277   0.763   3.413 -0.0557 -0.3561 -0.3084
    1SOL    HW2 8598   4.356   0.816   3.425  0.5101 -1.1686 -0.4844
    1SOL    HW3 8599   4.271   0.750   3.318 -1.3612  1.1736 -0.4557
    1SOL    MW4 8600   4.287   0.769   3.402 -0.1531 -0.2615 -0.3510
    1SOL     OW 8601   4.063   0.905   3.522  0.0112  0.0044  0.0603
    1SOL    HW2 8602   4.054   0.989   3.478  1.0639 -0.2905 -0.7169
    1SOL    HW3 8603   4.133   0.860   3.475 -1.0049 -1.5831  0.0253
    1SOL    MW4 8604   4.071   0.910   3.510  0.0162 -0.2439 -0.0467
    1SOL     OW 8605   4.039   1.146   3.396 -0.3102  0.4324  0.5541
    1SOL    HW2 8606   4.117   1.195   3.424 -0.6909  1.7538 -0.6427
    1SOL    HW3 8607   3.966   1.195   3.433 -0.6692  0.4353 -0.1610
    1SOL    MW4 8608   4.040   1.159   3.405 -0.4082  0.6071  0.3021
    1SOL     OW 8609   4.262   1.286   3.496  0.2219 -0.1125 -0.0155
    1SOL    HW2 8610   4.276   1.377   3.469 -1.0971  0.3639  0.8585
    1SOL    HW3 8611   4.346   1.243   3.479  0.9010  1.2969 -0.3274
    1SOL    MW4 8612   4.275   1.293   3.491  0.1373  0.1364  0.0589
    1SOL     OW 8613   4.288   1.546   3.428 -0.1180 -0.4971 -0.4008
    1SOL    HW2 8614   4.203   1.582   3.454 -0.5831 -2.3149  0.6924
    1SOL    HW3 8615   4.283   1.541   3.333 -0.8891  0.2437 -0.4071
    1SOL    MW4 8616   4.276   1.550   3.419 -0.2813 -0.6392 -0.2573
    1SOL     OW 8617   4.026   1.682   3.490 -0.6587  0.3188  0.2032
    1SOL    HW2 8618   4.045   1.677   3.583  0.3938 -1.7093 -0.1048
    1SOL    HW3 8619   4.039   1.775   3.468  0.7255  0.4981  1.7170
    1SOL    MW4 8620   4.030   1.694   3.499 -0.3376  0.0749  0.3624
    1SOL     OW 8621   4.092   1.943   3.423 -0.2002 -0.2745  0.6779
    1SOL    HW2 8622   4.181   1.963   3.451 -0.0467 -1.3152  0.9563
    1SOL    HW3 8623   4.098   1.932   3.328  0.0641 -0.8350  0.7591
    1SOL    MW4 8624   4.104   1.945   3.414 -0.1450 -0.4857  0.7255
    1SOL     OW 8625   4.305   2.112   3.541  0.2428 -0.0346 -0.1298
    1SOL    HW2 8626   4.273   2.192   3.500  1.1889  0.4789  0.1356
    1SOL    HW3 8627   4.379   2.085   3.487  2.2376  1.2748  1.8482
    1SOL    MW4 8628   4.310   2.119   3.529  0.6309  0.2060  0.1662
    1SOL     OW 8629   4.240   2.363   3.430 -0.2393 -0.1178  0.7172
    1SOL    HW2 8630   4.152   2.390   3.453  0.4366  2.3831  0.5147
    1SOL    HW3 8631   4.239   2.357   3.334 -0.2181 -0.1912  0.7215
    1SOL    MW4 8632   4.228   2.366   3.420 -0.1473  0.2024  0.6912
    1SOL     OW 8633   3.989   2.467   3.514 -0.3186 -0.1897  0.3170
    1SOL    HW2 8634   3.998   2.462   3.609 -1.5036 -0.7710  0.4056
    1SOL    HW3 8635   3.994   2.560   3.494 -0.0773 -0.0656  0.9486
    1SOL    MW4 8636   3.991   2.478   3.524 -0.4430 -0.2499  0.4122
    1SOL     OW 8637   4.051   2.717   3.366  0.0864  0.0909  0.0753
    1SOL    HW2 8638   4.127   2.766   3.398 -0.1227  0.2348  0.3528
    1SOL    HW3 8639   3.976   2.762   3.405 -0.0128 -2.0456  2.4819
    1SOL    MW4 8640   4.051   2.730   3.375  0.0458 -0.1719  0.4292
    1SOL     OW 8641   4.251   2.845   3.507  0.1398 -0.2839  0.5192
    1SOL    HW2 8642   4.247   2.854   3.602  0.8591  3.2316  0.2698
    1SOL    HW3 8643   4.336   2.805   3.490 -0.4916 -2.0698  1.3716
    1SOL    MW4 8644   4.261   2.841   3.517  0.1512 -0.0556  0.5987
    1SOL     OW 8645   4.292   3.105   3.390  0.2476  0.0010  0.1826
    1SOL    HW2 8646   4.282   3.016   3.424  0.4782 -0.0265  0.1838
    1SOL    HW3 8647   4.279   3.097   3.296 -0.4128  0.0808  0.2643
    1SOL    MW4 8648   4.289   3.092   3.382  0.1912  0.0076  0.1936
    1SOL     OW 8649   4.042   3.231   3.455  0.5960  0.1477 -0.3308
    1SOL    HW2 8650   4.020   3.323   3.436  0.6655  0.2451  0.0501
    1SOL    HW3 8651   4.133   3.222   3.427  0.5138  0.1287 -0.5948
    1SOL    MW4 8652   4.051   3.242   3.449  0.5941  0.1581 -0.3152
    1SOL     OW 8653   4.035   3.502   3.398 -0.0267 -0.4840 -0.5584
    1SOL    HW2 8654   4.106   3.534   3.454 -1.1624 -0.7670  1.0717
    1SOL    HW3 8655   3.958   3.551   3.427 -0.7290 -0.9735 -1.5821
    1SOL    MW4 8656   4.034   3.513   3.409 -0.2689 -0.5860 -0.4785
    1SOL     OW 8657   4.245   3.617   3.554 -0.0624 -0.0685 -0.1314
    1SOL    HW2 8658   4.245   3.633   3.649 -1.9853  0.0914 -0.1402
    1SOL    HW3 8659   4.236   3.704   3.515 -1.0207 -0.2929 -0.4169
    1SOL    MW4 8660   4.244   3.631   3.561 -0.4430 -0.0768 -0.1702
    1SOL     OW 8661   4.261   3.853   3.422 -0.1002  0.3402 -0.2646
    1SOL    HW2 8662   4.337   3.889   3.467 -1.2701  1.7853  0.6193
    1SOL    HW3 8663   4.284   3.855   3.329  1.5574 -0.7729  0.1068
    1SOL    MW4 8664   4.274   3.858   3.416 -0.0358  0.3841 -0.0989
    1SOL     OW 8665   4.037   4.003   3.510 -0.0700 -0.0793 -0.2525
    1SOL    HW2 8666   4.113   3.950   3.486  0.3319  0.4592 -0.1723
    1SOL    HW3 8667   3.962   3.954   3.475  0.3225 -0.5179 -0.4901
    1SOL    MW4 8668   4.037   3.989   3.502  0.0348 -0.0660 -0.2732
    1SOL     OW 8669   4.012   4.248   3.388  0.4787 -0.1140  0.1307
    1SOL    HW2 8670   4.030   4.163   3.428  0.6881 -0.5577 -0.9104
    1SOL    HW3 8671   3.938   4.283   3.439 -0.0566 -1.2179  0.1096
    1SOL    MW4 8672   4.005   4.242   3.400  0.4358 -0.3185 -0.0095
    1SOL     OW 8673   4.245   4.379   3.500 -0.3872  0.4684 -0.3483
    1SOL    HW2 8674   4.253   4.356   3.593 -0.9513 -0.8040 -0.5976
    1SOL    HW3 8675   4.158   4.349   3.475  0.8184 -1.8789 -1.9814
    1SOL    MW4 8676   4.235   4.372   3.509 -0.3023 -0.0095 -0.5968
    1SOL     OW 8677   0.206   0.010   3.849  0.1228  0.3246 -0.7786
    1SOL    HW2 8678   0.230   0.027   3.940 -0.8484  0.7930 -0.5996
    1SOL    HW3 8679   0.118   0.047   3.841 -1.0714 -2.4821 -1.0523
    1SOL    MW4 8680   0.198   0.018   3.860 -0.1629  0.0161 -0.7911
    1SOL     OW 8681   4.467   0.137   3.779  0.6096 -0.5763 -0.3330
    1SOL    HW2 8682   4.492   0.227   3.798 -2.1749 -0.0966  1.3962
    1SOL    HW3 8683   4.476   0.129   3.684  0.3713  1.7205 -0.5728
    1SOL    MW4 8684   4.471   0.147   3.769  0.2112 -0.2100 -0.1364
    1SOL     OW 8685   0.074   0.381   3.866  0.0840  0.0209  0.3218
    1SOL    HW2 8686  -0.006   0.425   3.838 -0.1000  0.6000  1.6911
    1SOL    HW3 8687   0.145   0.432   3.827 -0.1957 -0.0698 -0.3037
    1SOL    MW4 8688   0.073   0.394   3.857  0.0229  0.0854  0.4201
    1SOL     OW 8689   0.277   0.543   3.753  0.3609  0.1133 -0.3467
    1SOL    HW2 8690   0.262   0.636   3.770 -0.2652  0.1059 -0.8218
    1SOL    HW3 8691   0.287   0.538   3.658  1.3870 -0.1737 -0.2335
    1SOL    MW4 8692   0.276   0.554   3.743  0.4137  0.0745 -0.3943
    1SOL     OW 8693   0.226   0.794   3.810 -0.2894  0.1923 -0.3659
    1SOL    HW2 8694   0.204   0.773   3.901 -0.2383  0.6433 -0.2451
    1SOL    HW3 8695   0.143   0.822   3.772 -0.2659  0.2259 -0.3920
    1SOL    MW4 8696   0.212   0.795   3.817 -0.2795  0.2563 -0.3533
    1SOL     OW 8697   4.483   0.895   3.730 -0.3286  0.1649  0.2099
    1SOL    HW2 8698   4.414   0.849   3.778 -2.2368  1.1211 -1.5322
    1SOL    HW3 8699   4.501   0.973   3.782 -0.6649  0.0078  0.5642
    1SOL    MW4 8700   4.476   0.899   3.743 -0.6247  0.2703  0.0267
    1SOL     OW 8701   0.045   1.122   3.877 -0.2927  0.3143 -0.3012
    1SOL    HW2 8702  -0.035   1.168   3.849 -1.0363  0.0654  1.3706
    1SOL    HW3 8703   0.038   1.117   3.972  0.3535 -2.2371 -0.3535
    1SOL    MW4 8704   0.033   1.127   3.886 -0.3057 -0.0551 -0.0877
    1SOL     OW 8705   0.231   1.326   3.752  0.4142  0.3903  0.1459
    1SOL    HW2 8706   0.216   1.409   3.797  1.1394  0.3912  0.3936
    1SOL    HW3 8707   0.168   1.265   3.790  0.8951  0.4386  1.0201
    1SOL    MW4 8708   0.221   1.329   3.763  0.5733  0.3968  0.2937
    1SOL     OW 8709   0.231   1.554   3.885  0.6769  0.2729 -0.5742
    1SOL    HW2 8710   0.237   1.547   3.980  0.8909  1.4463 -0.4961
    1SOL    HW3 8711   0.150   1.601   3.869 -0.3944 -1.6861 -1.0647
    1SOL    MW4 8712   0.221   1.559   3.895  0.5638  0.1694 -0.6289
    1SOL     OW 8713   0.015   1.699   3.807  0.0584  0.5705 -0.6903
    1SOL    HW2 8714   0.003   1.791   3.829 -1.4124  0.0830  0.6232
    1SOL    HW3 8715  -0.003   1.694   3.714 -1.5140  1.3394 -0.4365
    1SOL    MW4 8716   0.011   1.710   3.798 -0.3432  0.6076 -0.4838
    1SOL     OW 8717   4.485   1.941   3.929 -0.7668  0.1272  0.1210
    1SOL    HW2 8718   4.462   1.929   4.021 -1.2727  1.0386  0.1162
    1SOL    HW3 8719   4.424   2.008   3.898 -0.9615 -0.5710 -1.0184
    1SOL    MW4 8720   4.474   1.948   3.937 -0.8593  0.1554 -0.0298
    1SOL     OW 8721   0.246   2.036   3.787  0.1896  0.0447  0.2071
    1SOL    HW2 8722   0.240   2.128   3.812 -1.3828 -0.3142  1.1788
    1SOL    HW3 8723   0.186   1.990   3.845  0.8669 -1.5990 -0.3389
    1SOL    MW4 8724   0.237   2.042   3.798  0.0715 -0.2193  0.2632
    1SOL     OW 8725   0.210   2.326   3.878 -0.1030  0.5279 -0.2588
    1SOL    HW2 8726   0.221   2.319   3.972 -0.4435  0.9110 -0.1894
    1SOL    HW3 8727   0.127   2.373   3.867 -0.7038 -0.6034 -0.7462
    1SOL    MW4 8728   0.200   2.331   3.889 -0.2272  0.4294 -0.3140
    1SOL     OW 8729   4.469   2.465   3.836  0.2619 -0.4395 -0.4967
    1SOL    HW2 8730   4.386   2.424   3.861 -0.6425  1.4340 -0.3579
    1SOL    HW3 8731   4.455   2.559   3.850  1.1899  0.2660 -3.8149
    1SOL    MW4 8732   4.456   2.472   3.841  0.2646 -0.0994 -0.9162
    1SOL     OW 8733   4.457   2.731   3.879  0.0514  0.3071  0.1872
    1SOL    HW2 8734   4.470   2.727   3.974  1.7106  1.4367  0.0347
    1SOL    HW3 8735   4.538   2.770   3.846 -0.0654 -1.0699 -1.8034
    1SOL    MW4 8736   4.469   2.736   3.887  0.2551  0.2747 -0.0956
    1SOL     OW 8737   0.205   2.810   3.799  0.3936 -0.3806  0.1831
    1SOL    HW2 8738   0.292   2.774   3.816  0.4176 -0.3654  0.0888
    1SOL    HW3 8739   0.195   2.807   3.704  0.0507 -0.9478  0.2368
    1SOL    MW4 8740   0.215   2.805   3.789  0.3515 -0.4535  0.1774
    1SOL     OW 8741   0.264   3.078   3.879 -0.0349 -0.6198  0.6472
    1SOL    HW2 8742   0.251   3.081   3.974 -2.4574 -2.0478  0.4218
    1SOL    HW3 8743   0.250   2.986   3.856 -0.4555 -0.1160 -1.2130
    1SOL    MW4 8744   0.260   3.066   3.889 -0.4101 -0.7417  0.3719
    1SOL     OW 8745   0.031   3.213   3.811  0.0095  0.2924 -0.8498
    1SOL    HW2 8746   0.105   3.159   3.838 -1.2537 -1.3579 -0.5864
    1SOL    HW3 8747   0.044   3.227   3.717  1.3773  1.1972 -0.5360
    1SOL    MW4 8748   0.042   3.208   3.802  0.0233  0.1938 -0.7741
    1SOL     OW 8749   4.486   3.501   3.877 -0.1625 -0.3639  0.0538
    1SOL    HW2 8750   4.551   3.569   3.861  0.4751 -0.6143  1.5293
    1SOL    HW3 8751   4.528   3.420   3.846 -0.3006 -0.3371 -0.2127
    1SOL    MW4 8752   4.500   3.499   3.871 -0.0966 -0.3934  0.2134
    1SOL     OW 8753   0.236   3.630   3.827 -0.4961  0.1708  0.1480
    1SOL    HW2 8754   0.306   3.583   3.873  0.5973  0.3076 -1.3269
    1SOL    HW3 8755   0.255   3.722   3.844  0.4601  0.2618 -1.3064
    1SOL    MW4 8756   0.248   3.636   3.835 -0.2257  0.2007 -0.2384
    1SOL     OW 8757   0.235   3.901   3.929 -0.0094 -0.3595  0.0740
    1SOL    HW2 8758   0.303   3.947   3.879  1.1406 -2.6474 -0.5356
    1SOL    HW3 8759   0.250   3.928   4.019 -0.4964  1.8383 -0.4758
    1SOL    MW4 8760   0.246   3.911   3.934  0.0781 -0.3717 -0.0789
    1SOL     OW 8761   0.028   4.009   3.796  0.6119  0.1220 -0.5722
    1SOL    HW2 8762  -0.049   3.973   3.840  0.6213 -0.0069 -0.6607
    1SOL    HW3 8763   0.102   3.975   3.846  0.5882  1.0105  0.0870
    1SOL    MW4 8764   0.027   4.000   3.808  0.6099  0.2227 -0.4971
    1SOL     OW 8765   0.035   4.281   3.885  0.2055 -0.0349 -0.3399
    1SOL    HW2 8766   0.101   4.326   3.832  0.2776 -0.0215 -0.2377
    1SOL    HW3 8767   0.043   4.189   3.859 -1.1607  0.2486 -1.8691
    1SOL    MW4 8768   0.045   4.275   3.875  0.0348  0.0043 -0.5281
    1SOL     OW 8769   0.230   4.401   3.751  0.1385 -0.2532 -0.2165
    1SOL    HW2 8770   0.298   4.370   3.811  0.0964  0.5444  0.2604
    1SOL    HW3 8771   0.224   4.495   3.769  0.0199 -0.0371 -1.3711
    1SOL    MW4 8772   0.238   4.409   3.762  0.1173 -0.1197 -0.3059
    1SOL     OW 8773   0.698   0.025   3.842  0.0965  0.1052 -0.5691
    1SOL    HW2 8774   0.681  -0.066   3.817  0.0392  0.6529 -2.6099
    1SOL    HW3 8775   0.620   0.072   3.813  0.2897  0.8747  0.1565
    1SOL    MW4 8776   0.686   0.019   3.835  0.1145  0.2789 -0.7427
    1SOL     OW 8777   0.440   0.132   3.755  0.1600  0.1793  0.2034
    1SOL    HW2 8778   0.435   0.221   3.790 -0.8202  0.2851 -0.1812
    1SOL    HW3 8779   0.365   0.087   3.793 -0.7544  0.2119 -1.5139
    1SOL    MW4 8780   0.429   0.138   3.765 -0.0900  0.1975 -0.0739
    1SOL     OW 8781   0.462   0.385   3.883  0.1206  0.0792 -0.2960
    1SOL    HW2 8782   0.539   0.435   3.856 -0.1686  1.2378  0.9603
    1SOL    HW3 8783   0.388   0.440   3.858 -0.3363 -1.3497 -2.1382
    1SOL    MW4 8784   0.463   0.399   3.876  0.0221  0.0435 -0.3731
    1SOL     OW 8785   0.721   0.488   3.764  0.2727 -0.1970 -0.4629
    1SOL    HW2 8786   0.800   0.460   3.809  0.0912  0.0538  0.0127
    1SOL    HW3 8787   0.718   0.583   3.777  0.8210  0.0465 -1.9569
    1SOL    MW4 8788   0.731   0.497   3.771  0.3211 -0.1318 -0.5972
    1SOL     OW 8789   0.702   0.749   3.818  0.2601  0.2293  0.0179
    1SOL    HW2 8790   0.774   0.804   3.789  0.5378  0.1565  0.5725
    1SOL    HW3 8791   0.623   0.796   3.790  0.4618  1.4648  1.4810
    1SOL    MW4 8792   0.701   0.762   3.811  0.3234  0.3828  0.2842
    1SOL     OW 8793   0.467   0.890   3.733 -0.2849  0.0971 -0.1760
    1SOL    HW2 8794   0.464   0.982   3.757 -0.1805 -0.0438  0.3663
    1SOL    HW3 8795   0.377   0.858   3.745 -0.5574  0.3769 -1.3541
    1SOL    MW4 8796   0.454   0.898   3.737 -0.3071  0.1155 -0.2601
    1SOL     OW 8797   0.449   1.164   3.788  0.2307  0.2563  0.1228
    1SOL    HW2 8798   0.531   1.210   3.802  0.2277  0.2539  0.1483
    1SOL    HW3 8799   0.388   1.231   3.758  0.4598  0.1064 -0.6954
    1SOL    MW4 8800   0.452   1.179   3.786  0.2605  0.2360  0.0181
    1SOL     OW 8801   0.711   1.308   3.794  0.2511 -0.3661  0.4154
    1SOL    HW2 8802   0.785   1.251   3.813  1.2018  1.0374  0.9746
    1SOL    HW3 8803   0.706   1.310   3.698  0.6012 -0.8926  0.3849
    1SOL    MW4 8804   0.720   1.301   3.784  0.4227 -0.2503  0.4852
    1SOL     OW 8805   0.690   1.577   3.869 -0.0504 -0.1384  0.0915
    1SOL    HW2 8806   0.770   1.624   3.845  0.1179 -0.9773 -0.9922
    1SOL    HW3 8807   0.709   1.486   3.848 -1.3654 -0.3108 -0.3240
    1SOL    MW4 8808   0.703   1.571   3.863 -0.2018 -0.2719 -0.1061
    1SOL     OW 8809   0.456   1.667   3.762 -0.5107 -0.1288  0.6896
    1SOL    HW2 8810   0.530   1.626   3.807 -0.5268 -0.2406  0.6157
    1SOL    HW3 8811   0.379   1.634   3.807 -0.6165 -1.7429 -0.6097
    1SOL    MW4 8812   0.456   1.657   3.774 -0.5268 -0.3564  0.5083
    1SOL     OW 8813   0.500   1.918   3.846 -0.4517 -0.1713  0.1193
    1SOL    HW2 8814   0.489   1.841   3.791  0.9417 -0.0885 -0.2931
    1SOL    HW3 8815   0.429   1.977   3.819  0.0041 -0.2745 -1.3565
    1SOL    MW4 8816   0.489   1.916   3.835 -0.2077 -0.1740 -0.1297
    1SOL     OW 8817   0.693   2.079   3.766 -0.2601  0.3399 -0.2998
    1SOL    HW2 8818   0.666   2.164   3.800  0.9868  0.3655  0.6717
    1SOL    HW3 8819   0.625   2.019   3.795 -2.2257  1.3013 -2.7119
    1SOL    MW4 8820   0.681   2.082   3.775 -0.3549  0.4702 -0.4900
    1SOL     OW 8821   0.694   2.338   3.859 -0.1887  0.3475 -0.3422
    1SOL    HW2 8822   0.764   2.394   3.823 -1.0845  0.9547 -1.1590
    1SOL    HW3 8823   0.613   2.383   3.835 -0.8809 -0.6006  0.2044
    1SOL    MW4 8824   0.693   2.352   3.851 -0.3982  0.3026 -0.3779
    1SOL     OW 8825   0.451   2.448   3.778  0.0687 -0.4372 -0.1883
    1SOL    HW2 8826   0.372   2.422   3.826 -0.5538  1.5811 -0.0951
    1SOL    HW3 8827   0.426   2.446   3.686 -0.0691  0.1274 -0.1634
    1SOL    MW4 8828   0.437   2.444   3.773 -0.0316 -0.0963 -0.1729
    1SOL     OW 8829   0.447   2.732   3.885  0.1068  0.0961 -0.0745
    1SOL    HW2 8830   0.514   2.784   3.841  1.0332 -1.3121 -0.3683
    1SOL    HW3 8831   0.459   2.643   3.850 -0.6198 -0.5712  1.3285
    1SOL    MW4 8832   0.458   2.727   3.874  0.1331 -0.1779  0.0715
    1SOL     OW 8833   0.646   2.867   3.756 -0.0303  0.0210  0.1890
    1SOL    HW2 8834   0.723   2.818   3.787 -0.5615 -0.9257  0.0124
    1SOL    HW3 8835   0.652   2.864   3.661 -0.2593 -0.0028  0.1758
    1SOL    MW4 8836   0.657   2.860   3.748 -0.1307 -0.1070  0.1640
    1SOL     OW 8837   0.696   3.111   3.862 -0.4503  0.0649 -0.5025
    1SOL    HW2 8838   0.687   3.090   3.955 -1.5049  0.5442 -0.4889
    1SOL    HW3 8839   0.671   3.031   3.817 -2.6522  0.6656 -0.4135
    1SOL    MW4 8840   0.692   3.098   3.868 -0.8799  0.2072 -0.4890
    1SOL     OW 8841   0.463   3.244   3.797 -0.1775  0.5592  0.2044
    1SOL    HW2 8842   0.547   3.206   3.825  0.7210  2.1588 -0.2383
    1SOL    HW3 8843   0.397   3.185   3.833  1.1031 -0.1588  1.4588
    1SOL    MW4 8844   0.466   3.231   3.805  0.1100  0.6757  0.3116
    1SOL     OW 8845   0.460   3.484   3.910 -0.1732 -0.2093  0.2972
    1SOL    HW2 8846   0.525   3.537   3.864 -0.0052 -0.9584 -0.3527
    1SOL    HW3 8847   0.466   3.398   3.868 -0.3509 -0.7742  1.4121
    1SOL    MW4 8848   0.470   3.480   3.898 -0.1744 -0.3829  0.3586
    1SOL     OW 8849   0.675   3.622   3.788 -0.0551  0.3139  0.0258
    1SOL    HW2 8850   0.695   3.713   3.809  2.8216 -0.5133  1.1127
    1SOL    HW3 8851   0.675   3.619   3.692 -1.7197  1.7406 -0.0434
    1SOL    MW4 8852   0.677   3.634   3.778  0.1049  0.3929  0.1602
    1SOL     OW 8853   0.672   3.912   3.877  0.0753 -0.5554 -0.5683
    1SOL    HW2 8854   0.681   3.912   3.972 -0.2776 -1.0116 -0.5334
    1SOL    HW3 8855   0.745   3.966   3.846 -0.6867  0.8430  0.0357
    1SOL    MW4 8856   0.683   3.919   3.885 -0.0718 -0.4311 -0.4838
    1SOL     OW 8857   0.422   4.010   3.774  0.0990  0.5440  0.4330
    1SOL    HW2 8858   0.502   3.965   3.802 -0.7477 -0.8373  0.6788
    1SOL    HW3 8859   0.429   4.015   3.679 -0.2365 -0.9576  0.3273
    1SOL    MW4 8860   0.434   4.005   3.765 -0.0570  0.1636  0.4516
    1SOL     OW 8861   0.428   4.272   3.888  0.6576  0.3102 -0.3002
    1SOL    HW2 8862   0.499   4.326   3.854  0.3138  0.2449 -1.1310
    1SOL    HW3 8863   0.427   4.195   3.831 -1.1028  1.0353 -1.3204
    1SOL    MW4 8864   0.437   4.269   3.876  0.3800  0.3977 -0.5445
    1SOL     OW 8865   0.641   4.425   3.769  0.1606  0.0344  0.0487
    1SOL    HW2 8866   0.717   4.381   3.807  0.0062  0.5544  0.9784
    1SOL    HW3 8867   0.648   4.409   3.675  1.6152  0.3723  0.0953
    1SOL    MW4 8868   0.652   4.417   3.761  0.3322  0.1478  0.1776
    1SOL     OW 8869   1.121   4.628   3.923 -0.0128  0.3217  0.1171
    1SOL    HW2 8870   1.190   4.685   3.891 -0.3704  0.3506 -0.5954
    1SOL    HW3 8871   1.140   4.542   3.885 -1.1324  0.6387 -1.1838
    1SOL    MW4 8872   1.133   4.624   3.914 -0.2077  0.3676 -0.1488
    1SOL     OW 8873   0.951   0.121   3.765  0.3754  0.1396 -0.1752
    1SOL    HW2 8874   1.012   0.058   3.804  0.6689  0.0189 -0.8211
    1SOL    HW3 8875   0.864   0.086   3.785  0.5217  0.0748  0.3580
    1SOL    MW4 8876   0.947   0.108   3.773  0.4335  0.1151 -0.1903
    1SOL     OW 8877   0.938   0.383   3.886 -0.2887 -0.1565  0.1127
    1SOL    HW2 8878   0.956   0.375   3.980  1.2222 -0.8836 -0.2214
    1SOL    HW3 8879   0.941   0.293   3.854  1.9558  0.2949 -1.0996
    1SOL    MW4 8880   0.941   0.370   3.895  0.2068 -0.1929 -0.0916
    1SOL     OW 8881   1.150   0.484   3.746  0.0138 -0.3619  0.4785
    1SOL    HW2 8882   1.228   0.434   3.771 -1.0953 -2.3373  0.1221
    1SOL    HW3 8883   1.078   0.440   3.791 -1.0531  0.7129 -0.1440
    1SOL    MW4 8884   1.151   0.472   3.755 -0.2733 -0.4807  0.3495
    1SOL     OW 8885   1.162   0.741   3.855  0.1476 -0.0033  0.0061
    1SOL    HW2 8886   1.134   0.735   3.946 -1.0813  1.9819 -0.2110
    1SOL    HW3 8887   1.157   0.651   3.822 -0.3139 -0.5838  1.6284
    1SOL    MW4 8888   1.158   0.728   3.862 -0.0753  0.1820  0.1917
    1SOL     OW 8889   0.944   0.899   3.753  0.0666  0.1103 -0.5798
    1SOL    HW2 8890   1.011   0.847   3.797 -0.3539 -0.7261 -0.9164
    1SOL    HW3 8891   0.965   0.891   3.660 -1.5813 -1.6850 -0.8191
    1SOL    MW4 8892   0.955   0.891   3.747 -0.2062 -0.2369 -0.6557
    1SOL     OW 8893   0.938   1.170   3.858  0.0021 -0.4397  0.4923
    1SOL    HW2 8894   0.932   1.159   3.953 -0.1029  0.0886  0.5503
    1SOL    HW3 8895   0.922   1.083   3.823  2.5388 -1.1570  1.0323
    1SOL    MW4 8896   0.935   1.157   3.866  0.3229 -0.4646  0.5713
    1SOL     OW 8897   1.177   1.279   3.776 -0.2389  0.2510 -1.1975
    1SOL    HW2 8898   1.164   1.362   3.820  0.9483 -0.2057  0.0548
    1SOL    HW3 8899   1.103   1.224   3.802  0.9553 -0.3422  1.0450
    1SOL    MW4 8900   1.166   1.282   3.785  0.0752  0.1124 -0.7365
    1SOL     OW 8901   1.155   1.548   3.844  0.3298  0.0226 -0.0354
    1SOL    HW2 8902   1.161   1.538   3.939  0.4119  0.5783  0.0201
    1SOL    HW3 8903   1.236   1.592   3.819  0.0337  0.4375 -0.2839
    1SOL    MW4 8904   1.166   1.552   3.853  0.3016  0.1507 -0.0608
    1SOL     OW 8905   0.925   1.679   3.757 -0.1780 -0.0549 -0.0680
    1SOL    HW2 8906   1.008   1.632   3.770  0.1253  0.4781 -0.0663
    1SOL    HW3 8907   0.905   1.666   3.664 -0.1103 -0.2100 -0.0619
    1SOL    MW4 8908   0.933   1.671   3.746 -0.1290 -0.0051 -0.0670
    1SOL     OW 8909   0.917   1.946   3.884  0.2094  0.0500  0.4051
    1SOL    HW2 8910   0.913   1.863   3.836 -0.9564  0.2234  0.1896
    1SOL    HW3 8911   0.847   1.999   3.847  0.5689  0.9225  0.9468
    1SOL    MW4 8912   0.907   1.942   3.873  0.1030  0.1879  0.4482
    1SOL     OW 8913   1.168   2.074   3.794 -0.2508 -0.0201  0.4862
    1SOL    HW2 8914   1.095   2.019   3.822 -0.0538 -0.0381  0.9718
    1SOL    HW3 8915   1.167   2.068   3.698  0.7739 -2.2076  0.5818
    1SOL    MW4 8916   1.159   2.066   3.785 -0.0896 -0.3109  0.5629
    1SOL     OW 8917   1.109   2.342   3.884 -0.1889 -0.2521  0.5740
    1SOL    HW2 8918   1.102   2.331   3.979 -0.8256  0.0930  0.5642
    1SOL    HW3 8919   1.129   2.254   3.851 -1.9089 -0.7596  0.8352
    1SOL    MW4 8920   1.111   2.329   3.892 -0.5000 -0.2735  0.6073
    1SOL     OW 8921   0.908   2.465   3.748 -0.1856 -0.2536 -0.2949
    1SOL    HW2 8922   0.902   2.544   3.803 -2.5292 -0.7887  0.3106
    1SOL    HW3 8923   0.984   2.418   3.782 -0.1707  0.5938  0.9215
    1SOL    MW4 8924   0.917   2.469   3.760 -0.4928 -0.2122 -0.0546
    1SOL     OW 8925   0.877   2.723   3.858  0.3716  0.0720 -0.5801
    1SOL    HW2 8926   0.882   2.760   3.946 -0.5258  0.7761 -0.8129
    1SOL    HW3 8927   0.957   2.752   3.815  0.3046  0.6303 -0.3323
    1SOL    MW4 8928   0.888   2.732   3.864  0.2443  0.2387 -0.5782
    1SOL     OW 8929   1.109   2.849   3.769 -0.1315  0.4166  0.6786
    1SOL    HW2 8930   1.178   2.811   3.824  0.0933  0.3800  0.3674
    1SOL    HW3 8931   1.098   2.938   3.803  0.6913  0.7277  0.1467
    1SOL    MW4 8932   1.117   2.856   3.781  0.0068  0.4525  0.5674
    1SOL     OW 8933   1.123   3.097   3.895 -0.0236  0.0582 -0.0953
    1SOL    HW2 8934   1.212   3.113   3.866  0.2104  0.6687  0.9326
    1SOL    HW3 8935   1.071   3.164   3.850  0.2463  0.6009  0.3915
    1SOL    MW4 8936   1.128   3.108   3.886  0.0428  0.2103  0.1047
    1SOL     OW 8937   0.914   3.233   3.735  0.0189 -0.6123  0.6756
    1SOL    HW2 8938   0.845   3.185   3.781  0.2555 -1.4230  0.1929
    1SOL    HW3 8939   0.902   3.211   3.643  1.1867 -1.1230  0.6288
    1SOL    MW4 8940   0.903   3.224   3.729  0.2041 -0.7868  0.6056
    1SOL     OW 8941   0.912   3.504   3.823 -0.2880 -0.4221  0.8784
    1SOL    HW2 8942   0.904   3.416   3.787 -0.5017 -0.8682  1.9904
    1SOL    HW3 8943   0.828   3.546   3.801  0.0065 -0.3178 -0.0871
    1SOL    MW4 8944   0.900   3.498   3.815 -0.2773 -0.4673  0.8974
    1SOL     OW 8945   1.169   3.602   3.739  0.2321  0.0904 -0.0170
    1SOL    HW2 8946   1.165   3.693   3.769 -0.5568 -0.1236  0.5492
    1SOL    HW3 8947   1.095   3.560   3.782  0.7538 -0.8823 -0.0669
    1SOL    MW4 8948   1.159   3.609   3.749  0.1969 -0.0665  0.0513
    1SOL     OW 8949   1.143   3.868   3.824  0.0477  0.0771 -0.0195
    1SOL    HW2 8950   1.165   3.868   3.917  0.7713 -2.2874 -0.1565
    1SOL    HW3 8951   1.215   3.915   3.782 -0.4118  1.3737  0.6320
    1SOL    MW4 8952   1.155   3.874   3.831  0.0826 -0.0639  0.0484
    1SOL     OW 8953   0.924   4.029   3.778  0.1737 -0.1163 -0.0715
    1SOL    HW2 8954   0.997   3.971   3.799 -0.6905 -0.8555  0.9298
    1SOL    HW3 8955   0.913   4.021   3.683  1.0529 -0.3893 -0.1542
    1SOL    MW4 8956   0.932   4.021   3.768  0.1757 -0.2503  0.0498
    1SOL     OW 8957   0.852   4.288   3.881  0.1608 -0.7776 -0.2734
    1SOL    HW2 8958   0.860   4.295   3.976  1.2477  0.6679 -0.4530
    1SOL    HW3 8959   0.877   4.198   3.861  0.8113 -0.8250  0.7243
    1SOL    MW4 8960   0.856   4.277   3.891  0.3901 -0.5932 -0.1657
    1SOL     OW 8961   1.104   4.387   3.802  0.1141  0.3943 -0.2473
    1SOL    HW2 8962   1.016   4.352   3.816  0.2226  0.1890 -0.0775
    1SOL    HW3 8963   1.114   4.388   3.706 -0.1787  0.6844 -0.2739
    1SOL    MW4 8964   1.094   4.382   3.791  0.0899  0.4053 -0.2284
    1SOL     OW 8965   1.555   4.628   3.856 -0.4986 -0.1476 -0.1800
    1SOL    HW2 8966   1.581   4.623   3.948 -1.4516 -0.0444  0.0998
    1SOL    HW3 8967   1.541   4.537   3.829 -1.5137 -0.0962  0.1579
    1SOL    MW4 8968   1.557   4.615   3.864 -0.7584 -0.1268 -0.0985
    1SOL     OW 8969   1.324   0.078   3.804  0.2608  0.0684  0.1005
    1SOL    HW2 8970   1.337   0.172   3.815  1.2576 -0.2022  1.3859
    1SOL    HW3 8971   1.411   0.040   3.816  0.1467 -0.9016 -1.9149
    1SOL    MW4 8972   1.337   0.085   3.808  0.3773 -0.0953  0.0043
    1SOL     OW 8973   1.371   0.352   3.861 -0.2049  0.1269  0.3379
    1SOL    HW2 8974   1.358   0.348   3.956 -1.2101  0.2733  0.2216
    1SOL    HW3 8975   1.457   0.392   3.849 -0.3446  0.6761  1.1787
    1SOL    MW4 8976   1.380   0.357   3.872 -0.3561  0.2187  0.4337
    1SOL     OW 8977   1.597   0.499   3.789  0.2131 -0.1045  0.0546
    1SOL    HW2 8978   1.675   0.459   3.829  0.2024  0.0423  0.2236
    1SOL    HW3 8979   1.595   0.587   3.825  0.5976  0.2633 -0.8043
    1SOL    MW4 8980   1.607   0.505   3.799  0.2624 -0.0366 -0.0367
    1SOL     OW 8981   1.592   0.759   3.875 -0.1786  0.1385  0.2873
    1SOL    HW2 8982   1.669   0.813   3.854  1.9462 -2.8271  0.2434
    1SOL    HW3 8983   1.519   0.807   3.836  1.8495  2.1828 -1.1536
    1SOL    MW4 8984   1.592   0.773   3.867  0.3692  0.0170  0.0913
    1SOL     OW 8985   1.371   0.893   3.754 -0.1773  0.0070  0.4622
    1SOL    HW2 8986   1.376   0.968   3.813  0.2424  0.0657  0.3602
    1SOL    HW3 8987   1.305   0.835   3.792 -0.6219  0.5083  0.4498
    1SOL    MW4 8988   1.363   0.895   3.767 -0.1806  0.0809  0.4470
    1SOL     OW 8989   1.376   1.126   3.903 -0.4560  0.8395  0.1363
    1SOL    HW2 8990   1.458   1.176   3.900 -0.7073  1.2085 -0.9915
    1SOL    HW3 8991   1.315   1.177   3.849 -0.5782 -0.9375 -1.4526
    1SOL    MW4 8992   1.379   1.140   3.895 -0.5052  0.6537 -0.2222
    1SOL     OW 8993   1.597   1.290   3.774 -0.3510  0.3005  0.0895
    1SOL    HW2 8994   1.680   1.253   3.805 -0.7694  0.2732  1.1830
    1SOL    HW3 8995   1.587   1.371   3.825 -1.4982 -0.2164  0.6941
    1SOL    MW4 8996   1.607   1.296   3.785 -0.5574  0.2286  0.3135
    1SOL     OW 8997   1.594   1.527   3.912  0.1439  0.3422  0.4658
    1SOL    HW2 8998   1.584   1.539   4.007  0.9366  0.1200  0.5811
    1SOL    HW3 8999   1.687   1.545   3.896 -0.1232  0.9620 -0.3559
    1SOL    MW4 9000   1.605   1.531   3.923  0.2133  0.3947  0.3726
    1SOL     OW 9001   1.388   1.674   3.780 -0.2808  0.0427 -0.0302
    1SOL    HW2 9002   1.381   1.759   3.823 -1.2869 -0.9657  1.8860
    1SOL    HW3 9003   1.459   1.629   3.826 -1.7868 -1.2863  1.0704
    1SOL    MW4 9004   1.396   1.679   3.792 -0.6123 -0.2657  0.3679
    1SOL     OW 9005   1.380   1.927   3.890 -0.1614 -0.1859  0.4082
    1SOL    HW2 9006   1.389   1.925   3.985 -1.0478  0.5588  0.5165
    1SOL    HW3 9007   1.308   1.989   3.874 -1.2574 -1.6975 -0.6465
    1SOL    MW4 9008   1.372   1.935   3.901 -0.4228 -0.2869  0.2832
    1SOL     OW 9009   1.610   2.057   3.837  0.0242  0.0026  0.2745
    1SOL    HW2 9010   1.527   2.015   3.857  0.4431 -0.6003  0.7815
    1SOL    HW3 9011   1.617   2.053   3.742 -0.9052  0.7868  0.1786
    1SOL    MW4 9012   1.600   2.051   3.827 -0.0430  0.0265  0.3288
    1SOL     OW 9013   1.552   2.298   3.934  0.3305 -0.1473 -0.3489
    1SOL    HW2 9014   1.564   2.307   4.028  1.3542  1.1800 -0.5852
    1SOL    HW3 9015   1.570   2.206   3.915 -0.1718 -0.4841  0.7882
    1SOL    MW4 9016   1.556   2.287   3.944  0.3992 -0.0167 -0.2298
    1SOL     OW 9017   1.346   2.472   3.826 -0.5343 -0.0311 -0.1100
    1SOL    HW2 9018   1.419   2.426   3.866 -1.0386 -1.6483 -1.0087
    1SOL    HW3 9019   1.268   2.425   3.856 -1.0291 -0.0582 -1.3982
    1SOL    MW4 9020   1.345   2.460   3.835 -0.6663 -0.2482 -0.3984
    1SOL     OW 9021   1.308   2.731   3.923 -0.0663 -0.4051 -0.0034
    1SOL    HW2 9022   1.317   2.730   4.018 -0.2982 -1.0298  0.0147
    1SOL    HW3 9023   1.336   2.644   3.896  0.3371 -0.1089 -0.5415
    1SOL    MW4 9024   1.313   2.719   3.932 -0.0437 -0.4480 -0.0722
    1SOL     OW 9025   1.526   2.844   3.779  0.3630 -1.0236  0.3574
    1SOL    HW2 9026   1.441   2.821   3.817  0.0260  0.2726  0.4257
    1SOL    HW3 9027   1.515   2.831   3.685  0.5990 -2.3894  0.5074
    1SOL    MW4 9028   1.513   2.839   3.771  0.3496 -1.0328  0.3860
    1SOL     OW 9029   1.613   3.105   3.841  0.4601  0.0396  0.0249
    1SOL    HW2 9030   1.629   3.106   3.935  0.2037 -0.4967  0.0713
    1SOL    HW3 9031   1.597   3.014   3.819 -0.5140  0.3007 -0.3717
    1SOL    MW4 9032   1.613   3.093   3.850  0.2978  0.0036 -0.0210
    1SOL     OW 9033   1.353   3.216   3.770  0.2061 -0.3999 -0.0577
    1SOL    HW2 9034   1.347   3.306   3.804  1.0505  0.6509 -2.6000
    1SOL    HW3 9035   1.440   3.187   3.796  1.1055  0.6416 -1.8774
    1SOL    MW4 9036   1.364   3.224   3.778  0.4361 -0.1237 -0.6332
    1SOL     OW 9037   1.381   3.477   3.873  0.0346  0.4459 -0.3938
    1SOL    HW2 9038   1.464   3.519   3.852  0.7543 -1.1543 -0.7880
    1SOL    HW3 9039   1.317   3.521   3.817  0.8791  0.6189 -1.2298
    1SOL    MW4 9040   1.383   3.488   3.862  0.2412  0.2575 -0.5562
    1SOL     OW 9041   1.598   3.603   3.773 -0.4689 -0.1086 -0.2436
    1SOL    HW2 9042   1.679   3.557   3.793 -0.1888  0.2806 -0.4603
    1SOL    HW3 9043   1.614   3.694   3.799  0.2992  0.6443 -3.1570
    1SOL    MW4 9044   1.611   3.609   3.779 -0.3307  0.0422 -0.6566
    1SOL     OW 9045   1.611   3.853   3.878  0.4550 -0.3673 -0.2792
    1SOL    HW2 9046   1.599   3.852   3.973  0.8840  0.7045 -0.2051
    1SOL    HW3 9047   1.541   3.909   3.845  1.3678  0.7139 -0.4245
    1SOL    MW4 9048   1.600   3.860   3.886  0.6319 -0.0834 -0.2887
    1SOL     OW 9049   1.399   4.005   3.744  0.1911  0.0667 -0.3284
    1SOL    HW2 9050   1.368   4.086   3.784  1.7106  0.8456 -0.6892
    1SOL    HW3 9051   1.390   4.020   3.650 -0.9316 -0.7723 -0.3692
    1SOL    MW4 9052   1.394   4.018   3.737  0.2433  0.0582 -0.3815
    1SOL     OW 9053   1.316   4.233   3.890  0.3703 -0.3475 -0.0143
    1SOL    HW2 9054   1.390   4.282   3.853  0.6210 -0.6368  0.0982
    1SOL    HW3 9055   1.239   4.285   3.868  0.5331 -0.4514 -0.8259
    1SOL    MW4 9056   1.316   4.246   3.882  0.4250 -0.3991 -0.1066
    1SOL     OW 9057   1.537   4.350   3.778  0.0650  0.6886  0.5546
    1SOL    HW2 9058   1.613   4.324   3.829 -0.0306  0.0249  0.3654
    1SOL    HW3 9059   1.572   4.369   3.691 -0.4022 -2.8694 -0.5055
    1SOL    MW4 9060   1.552   4.349   3.773 -0.0093  0.1316  0.3896
    1SOL     OW 9061   1.973   4.645   3.938 -0.3871 -0.1853  0.1044
    1SOL    HW2 9062   2.048   4.681   3.891 -0.4949 -0.1877 -0.0692
    1SOL    HW3 9063   1.966   4.555   3.906  0.0448 -0.4504  0.7290
    1SOL    MW4 9064   1.982   4.638   3.928 -0.3444 -0.2208  0.1640
    1SOL     OW 9065   1.781   0.139   3.826 -0.1367  0.3034  0.9132
    1SOL    HW2 9066   1.846   0.087   3.873 -0.2588  1.0577  1.9292
    1SOL    HW3 9067   1.699   0.091   3.838  0.1961 -0.6295 -0.3397
    1SOL    MW4 9068   1.779   0.126   3.834 -0.1088  0.2798  0.8819
    1SOL     OW 9069   1.822   0.390   3.909 -0.3498 -0.0487  0.1741
    1SOL    HW2 9070   1.799   0.391   4.002 -1.4295 -0.3082 -0.0782
    1SOL    HW3 9071   1.809   0.299   3.882 -1.7261  0.3531 -0.6154
    1SOL    MW4 9072   1.817   0.378   3.918 -0.6738 -0.0299  0.0365
    1SOL     OW 9073   2.033   0.524   3.792 -0.3084 -0.5016  0.1935
    1SOL    HW2 9074   1.956   0.481   3.830 -0.1146  0.2472  1.4893
    1SOL    HW3 9075   2.016   0.525   3.698 -1.8306 -0.4721  0.4440
    1SOL    MW4 9076   2.020   0.518   3.785 -0.4838 -0.3989  0.3974
    1SOL     OW 9077   2.044   0.786   3.859 -0.3054  0.2311 -0.0391
    1SOL    HW2 9078   2.037   0.785   3.954 -2.3810  0.9502 -0.1729
    1SOL    HW3 9079   2.043   0.694   3.834 -2.4738  0.0774  0.4854
    1SOL    MW4 9080   2.043   0.774   3.868 -0.8652  0.3057  0.0126
    1SOL     OW 9081   1.810   0.920   3.800  0.0768  0.1299 -0.0956
    1SOL    HW2 9082   1.896   0.884   3.821  1.4294  3.8986  1.2016
    1SOL    HW3 9083   1.802   0.910   3.705  2.1755  0.2414 -0.2933
    1SOL    MW4 9084   1.820   0.914   3.790  0.5322  0.6418  0.0496
    1SOL     OW 9085   1.839   1.192   3.894 -0.5218 -0.3399 -0.0164
    1SOL    HW2 9086   1.835   1.205   3.989  1.0407 -0.3535  0.0699
    1SOL    HW3 9087   1.821   1.099   3.881 -1.4837 -0.1875  0.2024
    1SOL    MW4 9088   1.836   1.182   3.905 -0.4425 -0.3216  0.0238
    1SOL     OW 9089   2.052   1.299   3.763  0.3826 -0.4909  0.0752
    1SOL    HW2 9090   2.130   1.262   3.804 -0.4780 -2.0085  0.3831
    1SOL    HW3 9091   1.979   1.255   3.806 -0.5565 -1.7612 -2.7334
    1SOL    MW4 9092   2.052   1.289   3.774  0.1452 -0.8588 -0.2546
    1SOL     OW 9093   2.043   1.528   3.931 -0.0798 -0.2895  0.3038
    1SOL    HW2 9094   1.968   1.580   3.900  0.0892  0.1625  0.6532
    1SOL    HW3 9095   2.050   1.457   3.867 -0.9599 -0.4803  0.4021
    1SOL    MW4 9096   2.034   1.525   3.918 -0.1738 -0.2549  0.3629
    1SOL     OW 9097   1.829   1.639   3.804 -0.3802 -0.4815 -0.2326
    1SOL    HW2 9098   1.820   1.733   3.822 -1.1161 -0.8274  1.2626
    1SOL    HW3 9099   1.823   1.633   3.709 -2.5036  0.7809 -0.2125
    1SOL    MW4 9100   1.827   1.651   3.794 -0.7575 -0.3606 -0.0324
    1SOL     OW 9101   1.814   1.894   3.936 -0.4564  0.2863  0.2283
    1SOL    HW2 9102   1.741   1.942   3.897 -1.1793  0.2944  1.5483
    1SOL    HW3 9103   1.892   1.941   3.907 -1.1043  1.7498  0.8009
    1SOL    MW4 9104   1.815   1.907   3.927 -0.6372  0.4805  0.4783
    1SOL     OW 9105   2.006   2.366   3.824 -0.5465  0.1331 -0.2400
    1SOL    HW2 9106   2.083   2.401   3.780 -0.6625 -0.3692 -0.8621
    1SOL    HW3 9107   2.013   2.397   3.914 -0.4089  1.3366 -0.6641
    1SOL    MW4 9108   2.017   2.375   3.830 -0.5436  0.2255 -0.3779
    1SOL     OW 9109   2.273   2.439   3.756 -0.1599 -0.0575 -0.0117
    1SOL    HW2 9110   2.274   2.405   3.666  1.5838  0.2931 -0.1494
    1SOL    HW3 9111   2.278   2.360   3.811  1.7887 -0.1593 -0.2922
    1SOL    MW4 9112   2.274   2.424   3.751  0.3276 -0.0246 -0.0670
    1SOL     OW 9113   1.716   2.441   3.756 -0.8173 -0.3595  0.0384
    1SOL    HW2 9114   1.807   2.412   3.768 -0.0445  1.2176 -1.6943
    1SOL    HW3 9115   1.667   2.394   3.823  1.5914  0.3120  2.3555
    1SOL    MW4 9116   1.722   2.431   3.767 -0.3976 -0.0627  0.1154
    1SOL     OW 9117   3.135   2.426   4.473  0.1674  0.1643  0.5036
    1SOL    HW2 9118   3.059   2.434   4.531  0.6604  0.1491  1.1642
    1SOL    HW3 9119   3.198   2.490   4.508  1.0658 -0.9345  0.9401
    1SOL    MW4 9120   3.133   2.436   4.485  0.3512  0.0174  0.6485
    1SOL     OW 9121   2.039   3.075   3.820 -0.1876 -0.1542 -0.1051
    1SOL    HW2 9122   2.121   3.111   3.786 -0.2700  0.6942  0.5558
    1SOL    HW3 9123   2.039   3.100   3.913 -0.2458 -1.9053  0.3766
    1SOL    MW4 9124   2.050   3.083   3.828 -0.2062 -0.2732  0.0455
    1SOL     OW 9125   1.976   2.806   3.782  0.1370 -0.1651  0.7253
    1SOL    HW2 9126   1.969   2.900   3.797 -0.8312 -0.4157  1.8640
    1SOL    HW3 9127   1.894   2.769   3.816  0.5976 -1.4399  0.4936
    1SOL    MW4 9128   1.965   2.813   3.788  0.0700 -0.3662  0.8450
    1SOL     OW 9129   1.838   3.258   3.772  0.5931  0.4593  0.0423
    1SOL    HW2 9130   1.911   3.197   3.789  0.3748  0.4068  0.7969
    1SOL    HW3 9131   1.760   3.208   3.794  0.4004  0.9531  0.4893
    1SOL    MW4 9132   1.837   3.243   3.777  0.5388  0.5176  0.2010
    1SOL     OW 9133   1.847   3.498   3.889 -0.0622  0.2106  0.2416
    1SOL    HW2 9134   1.910   3.540   3.830 -1.1609 -0.5469 -1.5322
    1SOL    HW3 9135   1.850   3.405   3.866 -1.0914  0.0174  0.8156
    1SOL    MW4 9136   1.855   3.491   3.878 -0.3430  0.0851  0.0834
    1SOL     OW 9137   2.058   3.614   3.743  0.1859 -0.1568 -0.0356
    1SOL    HW2 9138   2.125   3.552   3.771  0.0076 -0.6303 -0.6443
    1SOL    HW3 9139   2.054   3.603   3.648 -0.9244 -0.2988  0.0296
    1SOL    MW4 9140   2.066   3.604   3.734  0.0157 -0.2377 -0.1070
    1SOL     OW 9141   2.031   3.857   3.877 -0.2593 -0.1682 -0.0415
    1SOL    HW2 9142   2.109   3.897   3.838  0.4587  0.1195  1.6540
    1SOL    HW3 9143   2.034   3.766   3.846  1.0513 -0.3036  0.4297
    1SOL    MW4 9144   2.042   3.850   3.868  0.0086 -0.1483  0.2444
    1SOL     OW 9145   1.827   4.010   3.802  0.7943 -0.1370 -0.0556
    1SOL    HW2 9146   1.900   3.955   3.829 -0.0107 -0.6653  1.1078
    1SOL    HW3 9147   1.749   3.959   3.824  0.0410  1.2534  0.6140
    1SOL    MW4 9148   1.826   3.996   3.808  0.5887 -0.0231  0.1860
    1SOL     OW 9149   1.776   4.280   3.886 -0.1845 -0.2921 -0.0196
    1SOL    HW2 9150   1.857   4.328   3.866 -0.7490  0.6632 -0.0656
    1SOL    HW3 9151   1.785   4.197   3.840  0.1112  0.4319 -1.2903
    1SOL    MW4 9152   1.788   4.275   3.877 -0.2199 -0.0701 -0.1934
    1SOL     OW 9153   2.024   4.406   3.802  0.2410 -0.8427  0.2185
    1SOL    HW2 9154   2.116   4.380   3.812  1.2823  2.4408 -0.3237
    1SOL    HW3 9155   2.011   4.410   3.707 -0.0458  0.0841  0.2976
    1SOL    MW4 9156   2.035   4.403   3.791  0.3405 -0.2871  0.1576
    1SOL     OW 9157   2.434   0.012   3.867 -0.6504 -0.2603 -0.0366
    1SOL    HW2 9158   2.426   0.010   3.962 -0.5972 -0.6165 -0.0408
    1SOL    HW3 9159   2.455  -0.078   3.842 -1.2996 -0.3055 -0.4363
    1SOL    MW4 9160   2.435  -0.000   3.876 -0.7288 -0.3133 -0.0901
    1SOL     OW 9161   2.186   0.086   3.787 -0.0618  0.2085  0.0982
    1SOL    HW2 9162   2.268   0.054   3.825  0.1499  0.0243 -0.5078
    1SOL    HW3 9163   2.205   0.097   3.694 -0.9157 -0.4465 -0.1620
    1SOL    MW4 9164   2.199   0.083   3.780 -0.1466  0.0978 -0.0160
    1SOL     OW 9165   2.237   0.365   3.867 -0.2925  0.2589  0.2123
    1SOL    HW2 9166   2.213   0.274   3.845 -0.8179  0.4056  0.1698
    1SOL    HW3 9167   2.168   0.418   3.828 -1.0122  0.5531  1.8524
    1SOL    MW4 9168   2.225   0.360   3.859 -0.4566  0.3171  0.4232
    1SOL     OW 9169   2.457   0.513   3.794  0.2284  0.1364 -0.2896
    1SOL    HW2 9170   2.384   0.469   3.839 -0.0588 -1.6699 -2.4747
    1SOL    HW3 9171   2.430   0.518   3.703  1.6825  1.9878 -0.6604
    1SOL    MW4 9172   2.444   0.508   3.788  0.3824  0.1424 -0.6268
    1SOL     OW 9173   2.500   0.820   3.844 -0.1472 -0.1884  0.2341
    1SOL    HW2 9174   2.409   0.838   3.823  0.1394  0.3978 -0.5047
    1SOL    HW3 9175   2.508   0.725   3.837 -0.1108 -0.0266 -2.0700
    1SOL    MW4 9176   2.489   0.810   3.841 -0.1044 -0.0898 -0.1674
    1SOL     OW 9177   2.265   0.919   3.752  0.0582  0.0964 -0.0590
    1SOL    HW2 9178   2.195   0.870   3.794 -0.1600 -0.0824 -0.6278
    1SOL    HW3 9179   2.249   0.908   3.658  0.4204  0.6627 -0.1880
    1SOL    MW4 9180   2.254   0.911   3.745  0.0775  0.1476 -0.1509
    1SOL     OW 9181   2.276   1.164   3.864  0.1457 -0.2009  0.0318
    1SOL    HW2 9182   2.255   1.143   3.955  0.3427 -1.3004 -0.1735
    1SOL    HW3 9183   2.265   1.082   3.817  0.5001  0.2563 -0.8594
    1SOL    MW4 9184   2.272   1.150   3.870  0.2186 -0.2857 -0.1128
    1SOL     OW 9185   2.488   1.316   3.734 -0.4520 -0.2140  0.2391
    1SOL    HW2 9186   2.469   1.397   3.781 -0.7034 -0.1758  0.0738
    1SOL    HW3 9187   2.436   1.250   3.778  0.9281 -0.5786  1.3407
    1SOL    MW4 9188   2.479   1.318   3.746 -0.3033 -0.2569  0.3626
    1SOL     OW 9189   2.504   1.571   3.929 -0.0151 -0.2307  0.3472
    1SOL    HW2 9190   2.575   1.616   3.884  0.3107  0.8867  1.9138
    1SOL    HW3 9191   2.425   1.619   3.902 -0.2575 -1.7644 -1.7603
    1SOL    MW4 9192   2.503   1.584   3.920 -0.0043 -0.2856  0.2759
    1SOL     OW 9193   2.264   1.667   3.812 -0.1639  0.0100  0.0309
    1SOL    HW2 9194   2.261   1.758   3.842  1.7234 -0.6232  2.2385
    1SOL    HW3 9195   2.188   1.626   3.854  0.8377 -0.1887  1.6729
    1SOL    MW4 9196   2.253   1.674   3.821  0.2174 -0.0997  0.5388
    1SOL     OW 9197   2.247   1.953   3.897 -0.3977 -0.6851 -0.0793
    1SOL    HW2 9198   2.244   1.935   3.991 -0.1459 -4.2379 -0.6990
    1SOL    HW3 9199   2.164   1.998   3.878 -0.6535 -0.3688  1.7668
    1SOL    MW4 9200   2.235   1.957   3.907 -0.3984 -1.1122  0.0825
    1SOL     OW 9201   2.468   2.063   3.793 -0.0077 -0.9468  0.0282
    1SOL    HW2 9202   2.388   2.027   3.831 -0.6670  0.9042  0.4431
    1SOL    HW3 9203   2.456   2.055   3.699 -1.5727  1.0790  0.0078
    1SOL    MW4 9204   2.456   2.057   3.786 -0.3011 -0.4354  0.0806
    1SOL     OW 9205   2.219   2.705   3.852  0.0601 -0.4839  0.0838
    1SOL    HW2 9206   2.130   2.733   3.832  0.1805  0.0738  0.3112
    1SOL    HW3 9207   2.230   2.623   3.804 -0.9573 -1.1285  0.9225
    1SOL    MW4 9208   2.208   2.698   3.843 -0.0582 -0.4954  0.2244
    1SOL     OW 9209   0.951   1.723   4.453  0.1533  0.1035 -0.2781
    1SOL    HW2 9210   0.958   1.673   4.371 -0.3802 -0.2412 -0.1149
    1SOL    HW3 9211   0.892   1.671   4.508  2.2338 -0.7928  1.1670
    1SOL    MW4 9212   0.944   1.710   4.449  0.3574 -0.0602 -0.0658
    1SOL     OW 9213   2.021   2.068   3.822 -0.1801 -0.7479 -0.2359
    1SOL    HW2 9214   2.030   2.163   3.820  1.0795 -0.8394  0.9313
    1SOL    HW3 9215   2.013   2.043   3.730  0.6052  0.3712 -0.6142
    1SOL    MW4 9216   2.021   2.077   3.810  0.0899 -0.6123 -0.1318
    1SOL     OW 9217   2.460   2.860   3.828  0.1153 -0.2997  0.4580
    1SOL    HW2 9218   2.382   2.810   3.853  0.9180 -1.5413  0.5310
    1SOL    HW3 9219   2.470   2.844   3.735  0.4673 -0.4046  0.5131
    1SOL    MW4 9220   2.451   2.851   3.819  0.2677 -0.4773  0.4749
    1SOL     OW 9221   2.457   3.110   3.908  0.5067  0.4339 -0.2980
    1SOL    HW2 9222   2.433   3.096   4.000  0.5841  1.1906 -0.1612
    1SOL    HW3 9223   2.453   3.023   3.869 -1.6458  0.3912 -0.0664
    1SOL    MW4 9224   2.453   3.097   3.915  0.2329  0.5281 -0.2491
    1SOL     OW 9225   2.270   3.227   3.751 -0.0318 -0.4461  0.4283
    1SOL    HW2 9226   2.280   3.312   3.794 -2.0775 -1.4971  3.1058
    1SOL    HW3 9227   2.334   3.170   3.794  1.6095 -0.2350 -1.6228
    1SOL    MW4 9228   2.280   3.230   3.762 -0.0849 -0.5574  0.5112
    1SOL     OW 9229   2.262   3.475   3.873 -0.0418  0.1641 -0.2994
    1SOL    HW2 9230   2.247   3.492   3.966  0.2777 -1.3831  0.0470
    1SOL    HW3 9231   2.334   3.534   3.849  0.3041  0.1068  0.5974
    1SOL    MW4 9232   2.270   3.485   3.882  0.0465 -0.0477 -0.1354
    1SOL     OW 9233   2.487   3.615   3.760 -0.2093 -0.2540  0.2431
    1SOL    HW2 9234   2.571   3.577   3.788  0.2216 -0.0156 -0.7306
    1SOL    HW3 9235   2.479   3.591   3.668 -0.4848  1.0312 -0.0760
    1SOL    MW4 9236   2.497   3.606   3.752 -0.1888 -0.0529  0.0722
    1SOL     OW 9237   2.483   3.886   3.889  0.0927 -0.4445  0.4455
    1SOL    HW2 9238   2.553   3.936   3.845 -0.7765  0.7796  0.4313
    1SOL    HW3 9239   2.481   3.803   3.842 -0.8744  0.8644 -1.9386
    1SOL    MW4 9240   2.492   3.882   3.877 -0.1495 -0.1106  0.1290
    1SOL     OW 9241   2.272   4.011   3.748 -0.1068 -0.4461 -0.0973
    1SOL    HW2 9242   2.338   3.963   3.798  0.4670 -0.3847 -0.7806
    1SOL    HW3 9243   2.303   4.007   3.657 -0.6431  0.2379 -0.3189
    1SOL    MW4 9244   2.285   4.004   3.742 -0.1020 -0.3471 -0.2167
    1SOL     OW 9245   2.286   4.276   3.858  0.0716 -0.0206  0.2402
    1SOL    HW2 9246   2.263   4.266   3.950 -0.8604 -2.3164 -0.2070
    1SOL    HW3 9247   2.263   4.192   3.818  0.1887  1.0309 -2.1433
    1SOL    MW4 9248   2.280   4.263   3.865 -0.0360 -0.1845 -0.1333
    1SOL     OW 9249   2.512   4.416   3.785 -0.2053 -0.1370 -0.3845
    1SOL    HW2 9250   2.577   4.356   3.820  0.7043  0.2946 -1.3286
    1SOL    HW3 9251   2.428   4.378   3.811  0.4065 -0.8986  0.4974
    1SOL    MW4 9252   2.509   4.403   3.793 -0.0043 -0.1807 -0.3927
    1SOL     OW 9253   2.887   0.015   3.868  0.1192 -0.2102  0.1407
    1SOL    HW2 9254   2.885  -0.000   3.962  1.0231 -0.1385  0.1823
    1SOL    HW3 9255   2.970   0.062   3.854 -0.6081  0.8979 -0.5220
    1SOL    MW4 9256   2.898   0.020   3.879  0.1426 -0.0545  0.0589
    1SOL     OW 9257   2.661   0.122   3.755  0.2778 -0.1893 -0.0697
    1SOL    HW2 9258   2.738   0.080   3.792  1.1806  1.3105 -0.2022
    1SOL    HW3 9259   2.587   0.082   3.800  1.2107 -0.5069  1.1928
    1SOL    MW4 9260   2.662   0.111   3.766  0.5200 -0.0333  0.0792
    1SOL     OW 9261   2.703   0.371   3.848 -0.0483 -0.0252  0.1534
    1SOL    HW2 9262   2.688   0.284   3.813 -0.3673  0.6079 -1.3313
    1SOL    HW3 9263   2.625   0.421   3.822 -0.4343  0.3960  2.0341
    1SOL    MW4 9264   2.691   0.366   3.840 -0.1414  0.1138  0.2060
    1SOL     OW 9265   2.913   0.550   3.795  0.0698 -0.3782  0.2376
    1SOL    HW2 9266   2.997   0.508   3.813 -0.9913 -2.5221  0.2998
    1SOL    HW3 9267   2.847   0.488   3.825 -1.6052  0.0028 -2.4217
    1SOL    MW4 9268   2.915   0.536   3.801 -0.2913 -0.6109 -0.1051
    1SOL     OW 9269   2.903   0.831   3.858  0.5633  0.1052 -0.6056
    1SOL    HW2 9270   2.977   0.871   3.812  0.8253 -0.1706 -0.4239
    1SOL    HW3 9271   2.905   0.739   3.832 -0.5400  0.3723 -1.6766
    1SOL    MW4 9272   2.913   0.824   3.849  0.4523  0.1041 -0.7229
    1SOL     OW 9273   2.706   0.975   3.751 -0.1467 -0.1983 -0.7270
    1SOL    HW2 9274   2.764   0.911   3.792  1.3445  0.0907 -2.3227
    1SOL    HW3 9275   2.619   0.937   3.759 -0.0115  0.1576  3.2499
    1SOL    MW4 9276   2.702   0.961   3.757  0.0677 -0.1132 -0.4127
    1SOL     OW 9277   2.708   1.221   3.888 -0.1464  0.1145 -0.1061
    1SOL    HW2 9278   2.717   1.129   3.864  1.4767  0.0217  0.7787
    1SOL    HW3 9279   2.638   1.254   3.833 -1.4935 -1.9252  0.3462
    1SOL    MW4 9280   2.700   1.213   3.878 -0.1099 -0.1667  0.0703
    1SOL     OW 9281   2.919   1.362   3.762 -0.3593 -0.0382 -0.0643
    1SOL    HW2 9282   2.915   1.452   3.795  0.8061 -0.3491  0.9508
    1SOL    HW3 9283   2.849   1.316   3.809  0.7481 -0.2779  1.3628
    1SOL    MW4 9284   2.909   1.368   3.772 -0.0594 -0.1110  0.2575
    1SOL     OW 9285   2.922   1.638   3.857 -0.0388  0.4580 -0.6145
    1SOL    HW2 9286   2.919   1.620   3.951  1.2698  0.4170 -0.5630
    1SOL    HW3 9287   3.015   1.656   3.840 -0.5583  2.3330 -1.5588
    1SOL    MW4 9288   2.934   1.638   3.867  0.0656  0.7000 -0.7322
    1SOL     OW 9289   2.677   1.687   3.720 -0.4253  0.3324  0.2921
    1SOL    HW2 9290   2.760   1.660   3.760 -0.5969  0.5734  0.8201
    1SOL    HW3 9291   2.688   1.670   3.627 -0.7791 -2.1462  0.6874
    1SOL    MW4 9292   2.689   1.681   3.713 -0.4945  0.0371  0.4139
    1SOL     OW 9293   2.712   1.948   3.800 -0.0539 -0.3703  0.0959
    1SOL    HW2 9294   2.622   1.980   3.794 -0.5118 -1.3016  1.6143
    1SOL    HW3 9295   2.705   1.853   3.786  0.7465 -0.3906 -0.2211
    1SOL    MW4 9296   2.699   1.939   3.798 -0.0088 -0.4960  0.2544
    1SOL     OW 9297   2.944   2.326   3.825 -0.0066 -0.1944 -0.0531
    1SOL    HW2 9298   2.862   2.374   3.822  0.0645 -0.0631  0.1625
    1SOL    HW3 9299   3.011   2.390   3.801  0.1536 -0.0415  0.7951
    1SOL    MW4 9300   2.942   2.340   3.821  0.0236 -0.1569  0.0870
    1SOL     OW 9301   2.862   2.004   4.424 -0.4341  0.1152 -0.1045
    1SOL    HW2 9302   2.784   1.955   4.450  0.4822 -0.7817  0.9951
    1SOL    HW3 9303   2.914   2.012   4.504  0.9618  0.0249 -0.9712
    1SOL    MW4 9304   2.859   1.998   4.438 -0.1292 -0.0151 -0.0744
    1SOL     OW 9305   2.705   2.490   3.771  0.0065  0.3614 -0.2815
    1SOL    HW2 9306   2.694   2.571   3.820 -0.0478 -0.0632  0.4144
    1SOL    HW3 9307   2.642   2.429   3.809 -0.5909  0.2507 -1.3991
    1SOL    MW4 9308   2.695   2.493   3.782 -0.0792  0.2909 -0.3369
    1SOL     OW 9309   2.687   2.720   3.918  0.1452  0.1289 -0.2050
    1SOL    HW2 9310   2.615   2.782   3.904  0.2368  0.2587 -0.1066
    1SOL    HW3 9311   2.696   2.715   4.013  1.1701  1.1643 -0.2374
    1SOL    MW4 9312   2.679   2.727   3.929  0.2925  0.2825 -0.1962
    1SOL     OW 9313   2.865   2.858   3.772 -0.2597 -0.6949 -0.0530
    1SOL    HW2 9314   2.883   2.937   3.822  0.7696  1.0105 -2.9656
    1SOL    HW3 9315   2.803   2.809   3.825 -0.6452  1.9017  1.9885
    1SOL    MW4 9316   2.859   2.862   3.785 -0.1745 -0.1276 -0.1678
    1SOL     OW 9317   2.898   3.094   3.907 -0.1515 -0.0623 -0.3151
    1SOL    HW2 9318   2.977   3.140   3.878 -0.6993  1.8424  1.1278
    1SOL    HW3 9319   2.827   3.137   3.859 -0.7025  0.8014  1.2656
    1SOL    MW4 9320   2.899   3.106   3.897 -0.2966  0.3030  0.0837
    1SOL     OW 9321   2.689   3.258   3.795  0.3126  0.3215  0.0542
    1SOL    HW2 9322   2.707   3.343   3.834 -0.3482 -0.1135  1.3360
    1SOL    HW3 9323   2.607   3.230   3.836 -0.2103 -0.3117 -1.3888
    1SOL    MW4 9324   2.680   3.266   3.805  0.1566  0.1810  0.0327
    1SOL     OW 9325   2.683   3.518   3.889 -0.1954  0.4490 -0.3258
    1SOL    HW2 9326   2.701   3.513   3.983  0.0998 -0.2782 -0.4144
    1SOL    HW3 9327   2.764   3.553   3.852 -0.2072  0.4636 -0.3376
    1SOL    MW4 9328   2.696   3.522   3.897 -0.1578  0.3550 -0.3393
    1SOL     OW 9329   2.894   3.636   3.757 -0.0581 -0.3904  0.2013
    1SOL    HW2 9330   2.970   3.583   3.783  0.0858 -0.2971 -0.0244
    1SOL    HW3 9331   2.894   3.633   3.661  1.5282  2.2007  0.0656
    1SOL    MW4 9332   2.904   3.629   3.747  0.1702 -0.0367  0.1538
    1SOL     OW 9333   2.931   3.882   3.875  0.2539  0.0896 -0.6415
    1SOL    HW2 9334   2.915   3.886   3.969 -1.0035  0.2451 -0.8511
    1SOL    HW3 9335   2.912   3.791   3.851  1.1649 -0.1004 -0.6418
    1SOL    MW4 9336   2.926   3.871   3.884  0.2081  0.0851 -0.6692
    1SOL     OW 9337   2.715   4.007   3.778 -0.3857 -0.1641  0.1132
    1SOL    HW2 9338   2.721   4.090   3.825  0.8707 -0.4051  0.4096
    1SOL    HW3 9339   2.781   3.952   3.820  1.6271  0.0020 -2.7299
    1SOL    MW4 9340   2.724   4.011   3.790  0.0458 -0.1745 -0.2229
    1SOL     OW 9341   2.715   4.255   3.908  0.2229  0.4099 -0.1339
    1SOL    HW2 9342   2.781   4.313   3.870 -0.3122  1.1187  0.0039
    1SOL    HW3 9343   2.731   4.257   4.002  0.1901  0.3431 -0.1269
    1SOL    MW4 9344   2.725   4.263   3.915  0.1481  0.4945 -0.1149
    1SOL     OW 9345   2.906   4.423   3.767  0.4473 -0.0877  0.0467
    1SOL    HW2 9346   2.982   4.380   3.805  1.0936  0.8692 -0.1391
    1SOL    HW3 9347   2.906   4.510   3.806  0.0113  0.2520 -0.7001
    1SOL    MW4 9348   2.916   4.429   3.777  0.4749  0.0834 -0.0765
    1SOL     OW 9349   3.378   0.052   3.885  0.1561 -0.2697 -0.2959
    1SOL    HW2 9350   3.392   0.056   3.979  0.6003 -0.7468 -0.3385
    1SOL    HW3 9351   3.464   0.069   3.846 -0.1180  0.3777 -0.6232
    1SOL    MW4 9352   3.391   0.055   3.892  0.1783 -0.2472 -0.3445
    1SOL     OW 9353   3.115   0.138   3.775  0.1605  0.0001  0.9011
    1SOL    HW2 9354   3.197   0.115   3.817  0.4156  0.9520  0.9414
    1SOL    HW3 9355   3.129   0.122   3.682  1.4457  3.0348  0.5123
    1SOL    MW4 9356   3.127   0.133   3.768  0.3636  0.5261  0.8552
    1SOL     OW 9357   3.138   0.406   3.879 -0.4231 -0.3079  0.1764
    1SOL    HW2 9358   3.170   0.401   3.970 -1.0697 -2.9109  0.3035
    1SOL    HW3 9359   3.126   0.314   3.853  0.8482  0.3561 -2.9468
    1SOL    MW4 9360   3.141   0.393   3.888 -0.3405 -0.5638 -0.2189
    1SOL     OW 9361   3.381   0.479   3.767  0.5772  0.3416  0.6802
    1SOL    HW2 9362   3.438   0.417   3.813  0.8123  0.2044  0.2051
    1SOL    HW3 9363   3.292   0.448   3.787  0.7143 -1.3251 -1.1342
    1SOL    MW4 9364   3.377   0.466   3.776  0.6266  0.1036  0.3779
    1SOL     OW 9365   3.339   0.752   3.874  0.1673 -0.0131  0.1381
    1SOL    HW2 9366   3.336   0.745   3.969 -0.2254 -0.4838  0.0934
    1SOL    HW3 9367   3.354   0.662   3.844 -1.9700 -0.2455 -0.3398
    1SOL    MW4 9368   3.341   0.739   3.883 -0.1667 -0.1059  0.0691
    1SOL     OW 9369   3.140   0.930   3.771  0.3510  0.0744  0.2709
    1SOL    HW2 9370   3.192   0.860   3.811 -2.5229 -2.4334 -0.1843
    1SOL    HW3 9371   3.148   0.914   3.677 -0.4433  0.2996  0.1666
    1SOL    MW4 9372   3.148   0.919   3.764 -0.1328 -0.2267  0.1972
    1SOL     OW 9373   3.136   1.211   3.863  0.4284  0.3972  0.3983
    1SOL    HW2 9374   3.138   1.122   3.827  1.3660  0.8477 -0.6921
    1SOL    HW3 9375   3.051   1.246   3.837  0.9774  0.6186 -1.1983
    1SOL    MW4 9376   3.125   1.204   3.855  0.6247  0.4859  0.0441
    1SOL     OW 9377   3.392   1.276   3.776  0.4977 -1.2374 -0.0639
    1SOL    HW2 9378   3.312   1.247   3.819  0.5287 -0.2217  0.6977
    1SOL    HW3 9379   3.373   1.271   3.682 -0.7404 -0.2077  0.1260
    1SOL    MW4 9380   3.379   1.271   3.769  0.3383 -0.9675  0.0618
    1SOL     OW 9381   3.412   1.537   3.880 -0.3359 -0.3136  0.0377
    1SOL    HW2 9382   3.330   1.571   3.844  0.4333  0.1205 -1.3504
    1SOL    HW3 9383   3.425   1.453   3.835 -1.5646 -1.8683  2.4984
    1SOL    MW4 9384   3.403   1.531   3.869 -0.3965 -0.4615  0.1791
    1SOL     OW 9385   3.188   1.680   3.779  0.2410  0.1038  0.2612
    1SOL    HW2 9386   3.184   1.774   3.795  0.8035  0.1834 -0.0224
    1SOL    HW3 9387   3.171   1.671   3.685  0.0078 -0.0921  0.3210
    1SOL    MW4 9388   3.186   1.691   3.768  0.2847  0.0885  0.2317
    1SOL     OW 9389   3.168   1.928   3.873 -0.6979 -0.3861 -0.3110
    1SOL    HW2 9390   3.168   1.960   3.963 -0.6689 -0.6362 -0.2211
    1SOL    HW3 9391   3.093   1.971   3.832  0.1873  0.8909 -0.5930
    1SOL    MW4 9392   3.158   1.938   3.879 -0.5774 -0.2507 -0.3364
    1SOL     OW 9393   3.366   2.089   3.760 -0.5012  0.1084 -0.1218
    1SOL    HW2 9394   3.296   2.031   3.791 -0.6050 -0.5259 -1.5322
    1SOL    HW3 9395   3.442   2.066   3.814 -0.7917 -0.6969 -0.0584
    1SOL    MW4 9396   3.367   2.078   3.772 -0.5534 -0.0815 -0.2997
    1SOL     OW 9397   3.367   2.374   3.888 -0.1218 -0.5021 -0.1108
    1SOL    HW2 9398   3.305   2.436   3.849  0.4775 -0.7208 -1.4090
    1SOL    HW3 9399   3.336   2.288   3.860 -1.0297 -0.8394  1.7932
    1SOL    MW4 9400   3.355   2.371   3.879 -0.1626 -0.5755 -0.0308
    1SOL     OW 9401   3.165   2.498   3.760 -0.0299  0.2069  0.4226
    1SOL    HW2 9402   3.130   2.586   3.775 -0.1449  0.1657  0.4003
    1SOL    HW3 9403   3.153   2.484   3.666 -1.1075 -0.3001  0.6290
    1SOL    MW4 9404   3.159   2.508   3.750 -0.1869  0.1345  0.4468
    1SOL     OW 9405   3.093   2.743   3.875 -0.2861 -0.0436 -0.1692
    1SOL    HW2 9406   3.082   2.758   3.969 -1.3774 -0.0300 -0.2865
    1SOL    HW3 9407   3.011   2.773   3.836  0.0093 -0.3992 -1.0875
    1SOL    MW4 9408   3.081   2.749   3.882 -0.3908 -0.0889 -0.3059
    1SOL     OW 9409   3.315   2.844   3.761 -0.0889 -0.1926 -0.2542
    1SOL    HW2 9410   3.237   2.804   3.798 -0.2067 -0.0816 -0.3808
    1SOL    HW3 9411   3.311   2.935   3.790 -0.6764  0.1301 -1.3228
    1SOL    MW4 9412   3.305   2.851   3.770 -0.1819 -0.1352 -0.4117
    1SOL     OW 9413   3.370   3.099   3.844  0.0714  0.5183  0.0938
    1SOL    HW2 9414   3.387   3.090   3.938 -0.8672 -0.7482  0.1500
    1SOL    HW3 9415   3.449   3.141   3.810  1.1119 -0.5008  1.1925
    1SOL    MW4 9416   3.383   3.104   3.852  0.0849  0.2167  0.2463
    1SOL     OW 9417   3.100   3.243   3.801 -0.1056 -0.4349 -0.0045
    1SOL    HW2 9418   3.190   3.214   3.814  0.1892  0.9135  1.0838
    1SOL    HW3 9419   3.090   3.249   3.706  0.6996 -1.3630 -0.1458
    1SOL    MW4 9420   3.110   3.240   3.790  0.0393 -0.3796  0.1204
    1SOL     OW 9421   3.105   3.497   3.878  0.3916 -0.1401  0.1796
    1SOL    HW2 9422   3.188   3.528   3.843  0.1158 -0.2055 -0.5469
    1SOL    HW3 9423   3.104   3.403   3.858  0.4269 -0.2655  0.7592
    1SOL    MW4 9424   3.116   3.489   3.870  0.3603 -0.1655  0.1600
    1SOL     OW 9425   3.354   3.580   3.773  0.2038  0.1983 -0.6037
    1SOL    HW2 9426   3.365   3.671   3.801 -0.4828 -0.1365  0.7907
    1SOL    HW3 9427   3.340   3.585   3.678  1.0911  1.4712 -0.6789
    1SOL    MW4 9428   3.354   3.593   3.764  0.2303  0.3219 -0.4296
    1SOL     OW 9429   3.338   3.852   3.823 -0.1118  0.1081  0.3135
    1SOL    HW2 9430   3.410   3.907   3.794  0.6138 -0.5483  0.8340
    1SOL    HW3 9431   3.260   3.907   3.815  0.4996  0.9536  0.1315
    1SOL    MW4 9432   3.337   3.866   3.818  0.0646  0.1330  0.3579
    1SOL     OW 9433   3.135   4.019   3.752 -0.3199 -0.1513 -0.0113
    1SOL    HW2 9434   3.127   4.112   3.771 -0.5152  0.2573 -1.9169
    1SOL    HW3 9435   3.051   3.981   3.778 -0.6596  0.4091 -0.2882
    1SOL    MW4 9436   3.123   4.026   3.758 -0.3905 -0.0238 -0.2992
    1SOL     OW 9437   3.116   4.277   3.854  0.3741  0.2998 -0.5678
    1SOL    HW2 9438   3.110   4.282   3.949 -0.4727  1.0662 -0.6594
    1SOL    HW3 9439   3.202   4.315   3.834  0.3935  0.4933 -0.1329
    1SOL    MW4 9440   3.127   4.283   3.864  0.2651  0.4268 -0.5224
    1SOL     OW 9441   3.325   4.441   3.795 -0.1025 -0.0659  0.1094
    1SOL    HW2 9442   3.407   4.399   3.819  0.0354 -0.1932 -0.5545
    1SOL    HW3 9443   3.341   4.534   3.806  0.8077  0.0634 -1.9298
    1SOL    MW4 9444   3.338   4.448   3.799  0.0358 -0.0658 -0.2470
    1SOL     OW 9445   3.843   0.017   3.903 -0.1708  0.1903  0.3947
    1SOL    HW2 9446   3.918   0.061   3.863 -0.3449  1.1295  1.0821
    1SOL    HW3 9447   3.850  -0.074   3.875  0.0321  0.7180 -1.2904
    1SOL    MW4 9448   3.854   0.011   3.894 -0.1669  0.3843  0.2630
    1SOL     OW 9449   3.634   0.156   3.766  0.2079 -0.2863  0.0523
    1SOL    HW2 9450   3.690   0.090   3.807 -1.9530 -2.2282 -0.0719
    1SOL    HW3 9451   3.652   0.148   3.673  0.2634 -0.3881  0.0712
    1SOL    MW4 9452   3.644   0.146   3.759 -0.0699 -0.5559  0.0384
    1SOL     OW 9453   3.590   0.377   3.904  0.2425  0.1528  0.0222
    1SOL    HW2 9454   3.625   0.451   3.854  0.3216  0.4228  0.4736
    1SOL    HW3 9455   3.618   0.300   3.855  1.5056  0.3644  0.3698
    1SOL    MW4 9456   3.599   0.376   3.891  0.4194  0.2163  0.1278
    1SOL     OW 9457   3.861   0.507   3.789 -0.0434 -0.2538  0.2170
    1SOL    HW2 9458   3.935   0.454   3.818  1.7774  1.1448 -1.7290
    1SOL    HW3 9459   3.873   0.591   3.832 -0.4228  0.0382 -0.2421
    1SOL    MW4 9460   3.872   0.511   3.799  0.1469 -0.0307 -0.1004
    1SOL     OW 9461   3.813   0.777   3.932  0.0043  0.0081  0.1046
    1SOL    HW2 9462   3.878   0.840   3.900  0.5267  0.1265  1.3432
    1SOL    HW3 9463   3.733   0.801   3.887  0.7938 -0.0566 -1.3545
    1SOL    MW4 9464   3.811   0.789   3.922  0.1776  0.0152  0.0758
    1SOL     OW 9465   3.589   0.877   3.821 -0.0398  0.1585  0.1858
    1SOL    HW2 9466   3.602   0.967   3.850  0.4648 -0.7442  2.9809
    1SOL    HW3 9467   3.494   0.864   3.824 -0.1665  0.8359 -0.9841
    1SOL    MW4 9468   3.578   0.887   3.825  0.0103  0.1287  0.4001
    1SOL     OW 9469   3.620   1.153   3.915 -0.0568 -0.2350  0.0610
    1SOL    HW2 9470   3.688   1.193   3.861 -0.7902 -1.2922 -1.7100
    1SOL    HW3 9471   3.539   1.194   3.885 -0.2831  0.5332  1.6987
    1SOL    MW4 9472   3.618   1.164   3.904 -0.1838 -0.2731  0.0434
    1SOL     OW 9473   3.837   1.278   3.806 -0.5673 -0.0907  0.2818
    1SOL    HW2 9474   3.922   1.241   3.833  0.0558  1.3746  0.3947
    1SOL    HW3 9475   3.831   1.360   3.856 -2.0008 -0.1290  0.1740
    1SOL    MW4 9476   3.848   1.284   3.816 -0.6745  0.0976  0.2825
    1SOL     OW 9477   3.847   1.585   3.874 -0.2357 -0.1267  0.1568
    1SOL    HW2 9478   3.835   1.593   3.968  0.5719  0.9498  0.1883
    1SOL    HW3 9479   3.768   1.623   3.836 -0.2166  0.1696  0.4073
    1SOL    MW4 9480   3.835   1.591   3.881 -0.1264  0.0545  0.1936
    1SOL     OW 9481   3.606   1.708   3.791 -0.4321 -0.5583 -0.0105
    1SOL    HW2 9482   3.533   1.657   3.825 -1.0836  1.2045  1.2447
    1SOL    HW3 9483   3.598   1.701   3.695 -1.1191 -1.9163  0.1375
    1SOL    MW4 9484   3.595   1.700   3.783 -0.6087 -0.5050  0.1745
    1SOL     OW 9485   3.592   1.962   3.890 -0.3726 -0.5848 -0.1739
    1SOL    HW2 9486   3.605   1.884   3.836  1.6236  0.1651 -0.8254
    1SOL    HW3 9487   3.597   1.931   3.980 -1.0647 -1.4307 -0.4200
    1SOL    MW4 9488   3.594   1.948   3.894 -0.2005 -0.5975 -0.2923
    1SOL     OW 9489   3.806   2.086   3.757 -0.4214 -0.1167 -0.1702
    1SOL    HW2 9490   3.881   2.042   3.797  0.1949 -0.4604 -1.6884
    1SOL    HW3 9491   3.730   2.051   3.804  0.1370 -2.0806 -0.7011
    1SOL    MW4 9492   3.806   2.075   3.769 -0.2663 -0.4210 -0.4406
    1SOL     OW 9493   3.774   2.334   3.890 -0.2361  0.2299  0.6670
    1SOL    HW2 9494   3.790   2.247   3.852  1.6569  0.5293  0.7116
    1SOL    HW3 9495   3.707   2.373   3.834  0.1648 -0.5864 -0.4023
    1SOL    MW4 9496   3.768   2.327   3.878  0.0668  0.1619  0.5319
    1SOL     OW 9497   3.590   2.498   3.774 -0.0827  0.2563 -0.1647
    1SOL    HW2 9498   3.515   2.451   3.810  0.7200 -0.5507  0.4685
    1SOL    HW3 9499   3.594   2.470   3.683 -0.6578  0.4384 -0.2467
    1SOL    MW4 9500   3.581   2.488   3.767 -0.0525  0.1738 -0.0918
    1SOL     OW 9501   3.565   2.778   3.845  0.0822  0.0874 -0.3043
    1SOL    HW2 9502   3.580   2.687   3.819  0.4466  0.1293 -0.2414
    1SOL    HW3 9503   3.482   2.802   3.803  0.5234  0.0644 -1.1962
    1SOL    MW4 9504   3.556   2.769   3.836  0.1884  0.0899 -0.4139
    1SOL     OW 9505   3.820   2.869   3.758  0.3440  0.4278 -0.0927
    1SOL    HW2 9506   3.874   2.812   3.814 -1.2565 -0.4757  0.5451
    1SOL    HW3 9507   3.730   2.842   3.776 -0.2919  1.4798 -1.6465
    1SOL    MW4 9508   3.816   2.858   3.768  0.0494  0.4475 -0.2134
    1SOL     OW 9509   3.840   3.121   3.860  0.0145 -0.1653 -0.0916
    1SOL    HW2 9510   3.757   3.161   3.832  0.0703 -0.8161 -1.2285
    1SOL    HW3 9511   3.830   3.029   3.836  0.5297 -0.5140  1.0315
    1SOL    MW4 9512   3.827   3.114   3.853  0.0899 -0.2971 -0.0935
    1SOL     OW 9513   3.599   3.217   3.759 -0.3764  0.4891 -1.0294
    1SOL    HW2 9514   3.596   3.310   3.781  0.0552  0.5275 -1.1261
    1SOL    HW3 9515   3.584   3.215   3.664  1.5368  0.6089 -1.3507
    1SOL    MW4 9516   3.597   3.229   3.749 -0.0670  0.5100 -1.0848
    1SOL     OW 9517   3.594   3.474   3.849 -0.7316 -0.0653 -0.4147
    1SOL    HW2 9518   3.592   3.494   3.943 -1.5153 -0.0297 -0.4376
    1SOL    HW3 9519   3.509   3.503   3.816 -0.7784 -0.8262 -0.9835
    1SOL    MW4 9520   3.583   3.480   3.857 -0.8411 -0.1612 -0.4928
    1SOL     OW 9521   3.813   3.633   3.788 -0.6867 -0.0790  0.4772
    1SOL    HW2 9522   3.793   3.722   3.817 -0.3541 -0.5707  2.2456
    1SOL    HW3 9523   3.734   3.584   3.809 -0.5923 -0.3569  0.1728
    1SOL    MW4 9524   3.800   3.639   3.794 -0.6304 -0.1805  0.6704
    1SOL     OW 9525   3.798   3.915   3.862  0.2723  0.0705 -0.0832
    1SOL    HW2 9526   3.797   3.919   3.958 -0.1701  0.6693 -0.1171
    1SOL    HW3 9527   3.887   3.943   3.838 -0.0754  1.3120  0.0820
    1SOL    MW4 9528   3.810   3.919   3.871  0.1683  0.3133 -0.0660
    1SOL     OW 9529   3.550   4.017   3.745 -0.0763  0.4906 -0.0971
    1SOL    HW2 9530   3.547   4.105   3.782  0.0562  0.1977  0.6215
    1SOL    HW3 9531   3.633   3.981   3.775  0.1610  0.3411 -0.9177
    1SOL    MW4 9532   3.560   4.024   3.754 -0.0277  0.4325 -0.1106
    1SOL     OW 9533   3.548   4.280   3.832 -0.0969 -0.2284 -0.2009
    1SOL    HW2 9534   3.541   4.273   3.927  0.8873 -0.3223 -0.1236
    1SOL    HW3 9535   3.629   4.329   3.818 -0.2445 -0.2024 -0.9927
    1SOL    MW4 9536   3.558   4.286   3.843  0.0136 -0.2375 -0.2952
    1SOL     OW 9537   3.812   4.422   3.819  0.1010  0.5915 -0.2819
    1SOL    HW2 9538   3.886   4.371   3.852  0.0210  0.1587 -0.7726
    1SOL    HW3 9539   3.821   4.420   3.724 -0.0666  1.2508 -0.3159
    1SOL    MW4 9540   3.823   4.415   3.811  0.0682  0.6208 -0.3512
    1SOL     OW 9541   4.259   4.617   3.849  0.2880  0.0912  0.7220
    1SOL    HW2 9542   4.279   4.626   3.942  0.5886 -0.0141  0.6665
    1SOL    HW3 9543   4.318   4.677   3.805  0.6398 -0.3807  0.5444
    1SOL    MW4 9544   4.269   4.626   3.855  0.3743  0.0153  0.6912
    1SOL     OW 9545   4.046   0.120   3.759  0.7652  0.2842 -0.6881
    1SOL    HW2 9546   4.105   0.049   3.782 -0.5520 -0.6756 -0.2690
    1SOL    HW3 9547   4.034   0.111   3.664  0.0963 -0.4433 -0.5373
    1SOL    MW4 9548   4.052   0.110   3.749  0.5035  0.0616 -0.6127
    1SOL     OW 9549   4.075   0.358   3.892  0.1063  0.1155 -0.2145
    1SOL    HW2 9550   4.063   0.343   3.985  1.6485 -0.8361 -0.1520
    1SOL    HW3 9551   4.045   0.278   3.850 -0.9009  0.6691 -0.5781
    1SOL    MW4 9552   4.069   0.346   3.899  0.1769  0.0630 -0.2544
    1SOL     OW 9553   4.321   0.485   3.784 -0.2819  0.2406 -0.0683
    1SOL    HW2 9554   4.241   0.442   3.814  1.2505 -2.2874  0.5181
    1SOL    HW3 9555   4.313   0.488   3.689 -1.9839  1.9072  0.0984
    1SOL    MW4 9556   4.309   0.480   3.775 -0.3042  0.1269  0.0312
    1SOL     OW 9557   4.292   0.761   3.877  0.0815 -0.3275  0.2851
    1SOL    HW2 9558   4.208   0.786   3.840  0.5478 -0.2692 -0.7326
    1SOL    HW3 9559   4.304   0.670   3.850  1.0756  0.1554 -0.8985
    1SOL    MW4 9560   4.282   0.752   3.869  0.2742 -0.2561 -0.0052
    1SOL     OW 9561   4.039   0.870   3.803 -0.0667  0.4211 -0.1443
    1SOL    HW2 9562   4.045   0.961   3.832  1.3273 -0.2730  1.8449
    1SOL    HW3 9563   4.038   0.875   3.707 -2.5156  2.6483 -0.0666
    1SOL    MW4 9564   4.040   0.882   3.794 -0.2055  0.6233  0.1285
    1SOL     OW 9565   4.066   1.160   3.865 -0.2375  0.2694  0.2435
    1SOL    HW2 9566   4.085   1.162   3.959  1.4760  1.8679 -0.0995
    1SOL    HW3 9567   4.144   1.198   3.824 -0.7122 -0.9607 -1.8759
    1SOL    MW4 9568   4.079   1.165   3.872 -0.0739  0.3181 -0.0813
    1SOL     OW 9569   4.307   1.264   3.786 -0.0293 -0.1512  0.1278
    1SOL    HW2 9570   4.300   1.353   3.821 -2.8156  0.3344 -1.5064
    1SOL    HW3 9571   4.303   1.275   3.691 -1.9284 -2.1407 -0.0498
    1SOL    MW4 9572   4.306   1.277   3.778 -0.6475 -0.3498 -0.1118
    1SOL     OW 9573   4.295   1.528   3.884  0.2256  0.2987  0.4845
    1SOL    HW2 9574   4.213   1.559   3.846 -0.2271 -1.1104  0.2874
    1SOL    HW3 9575   4.360   1.591   3.854 -0.7033  1.1366  0.2160
    1SOL    MW4 9576   4.293   1.540   3.875  0.0434  0.2232  0.4230
    1SOL     OW 9577   4.082   1.665   3.761  0.0497 -0.2701  0.2743
    1SOL    HW2 9578   4.077   1.758   3.781 -0.1895  0.0009 -1.0649
    1SOL    HW3 9579   3.997   1.630   3.788  0.3577 -0.2307  1.3503
    1SOL    MW4 9580   4.071   1.673   3.767  0.0587 -0.2290  0.2396
    1SOL     OW 9581   4.059   1.934   3.843 -0.5176  0.1302  0.1887
    1SOL    HW2 9582   4.054   1.933   3.939  0.5955  0.6608  0.2640
    1SOL    HW3 9583   4.142   1.979   3.824 -0.7139 -0.0040 -1.0205
    1SOL    MW4 9584   4.069   1.940   3.853 -0.3963  0.1825  0.0391
    1SOL     OW 9585   4.292   2.082   3.805  0.3884  0.1452 -0.1254
    1SOL    HW2 9586   4.282   2.175   3.826 -0.8755  0.2876 -1.2990
    1SOL    HW3 9587   4.307   2.080   3.710 -1.2512 -0.9393 -0.3776
    1SOL    MW4 9588   4.293   2.094   3.795  0.0048  0.0207 -0.3140
    1SOL     OW 9589   4.241   2.345   3.886  0.2189  0.5806  0.0737
    1SOL    HW2 9590   4.226   2.323   3.977  2.2211  1.9710  0.7709
    1SOL    HW3 9591   4.162   2.391   3.859 -0.6331 -0.3616  0.9041
    1SOL    MW4 9592   4.229   2.348   3.894  0.3710  0.6399  0.2754
    1SOL     OW 9593   4.017   2.481   3.797  0.0208  0.1120 -0.1655
    1SOL    HW2 9594   4.011   2.566   3.841  0.5812 -0.4984  1.1025
    1SOL    HW3 9595   3.933   2.439   3.814 -0.3737  0.5216 -1.0512
    1SOL    MW4 9596   4.005   2.487   3.805  0.0424  0.0858 -0.1152
    1SOL     OW 9597   4.013   2.735   3.910 -0.0249  0.2168 -0.1247
    1SOL    HW2 9598   4.024   2.753   4.003  0.5482  0.5285 -0.2505
    1SOL    HW3 9599   4.091   2.773   3.868  0.9065 -1.9400 -0.4596
    1SOL    MW4 9600   4.025   2.742   3.916  0.1736 -0.0267 -0.1853
    1SOL     OW 9601   4.221   2.859   3.793 -0.0043  0.1936  0.2975
    1SOL    HW2 9602   4.228   2.946   3.833  0.1500  1.2742 -2.0269
    1SOL    HW3 9603   4.292   2.809   3.834  0.9066  1.6172  0.4897
    1SOL    MW4 9604   4.231   2.864   3.804  0.1364  0.5240  0.0162
    1SOL     OW 9605   4.265   3.108   3.887 -0.4603  0.3784 -0.1455
    1SOL    HW2 9606   4.203   3.166   3.842  0.3777  0.0523 -1.7425
    1SOL    HW3 9607   4.351   3.133   3.853  0.1572 -0.1417  1.0014
    1SOL    MW4 9608   4.268   3.119   3.876 -0.2680  0.2666 -0.2048
    1SOL     OW 9609   4.051   3.222   3.731 -0.4995  0.2010 -0.0276
    1SOL    HW2 9610   3.971   3.179   3.762 -0.1744  0.0263  0.5821
    1SOL    HW3 9611   4.050   3.208   3.636 -0.1405 -1.5961  0.2220
    1SOL    MW4 9612   4.040   3.214   3.722 -0.4091 -0.0594  0.0858
    1SOL     OW 9613   4.038   3.481   3.844 -0.0027  0.3111 -0.4474
    1SOL    HW2 9614   4.037   3.396   3.801  0.6385  0.3473 -0.5304
    1SOL    HW3 9615   3.962   3.527   3.808 -0.5229 -0.3298 -0.1874
    1SOL    MW4 9616   4.028   3.476   3.834  0.0134  0.2313 -0.4239
    1SOL     OW 9617   4.257   3.648   3.832 -0.0417 -0.3533  0.1818
    1SOL    HW2 9618   4.177   3.597   3.845 -0.4365  0.4342  0.9032
    1SOL    HW3 9619   4.328   3.588   3.855 -0.4175 -1.1043 -0.6114
    1SOL    MW4 9620   4.255   3.634   3.837 -0.1431 -0.3488  0.1721
    1SOL     OW 9621   4.288   3.912   3.901 -0.1174 -0.3461 -0.1966
    1SOL    HW2 9622   4.211   3.953   3.862  0.5794 -0.8725 -2.1726
    1SOL    HW3 9623   4.283   3.820   3.873  1.5659 -0.2384 -0.9101
    1SOL    MW4 9624   4.277   3.905   3.892  0.1969 -0.4013 -0.5515
    1SOL     OW 9625   4.054   4.019   3.801 -0.2354  0.1414  0.3137
    1SOL    HW2 9626   4.052   4.107   3.838 -0.0749  0.0279  0.6010
    1SOL    HW3 9627   4.047   4.031   3.707  1.3874  0.5406  0.2392
    1SOL    MW4 9628   4.053   4.032   3.794 -0.0005  0.1793  0.3419
    1SOL     OW 9629   4.048   4.277   3.911 -0.3920  0.2784  0.0156
    1SOL    HW2 9630   4.061   4.255   4.003 -0.8361 -1.2262 -0.2635
    1SOL    HW3 9631   4.136   4.292   3.877 -0.0884 -0.7717  0.3109
    1SOL    MW4 9632   4.061   4.276   3.918 -0.4106 -0.0587  0.0176
    1SOL     OW 9633   4.279   4.342   3.780 -0.0934  0.1853  0.2292
    1SOL    HW2 9634   4.272   4.434   3.808  0.0914  0.5722 -0.9776
    1SOL    HW3 9635   4.359   4.311   3.822 -0.5148  0.3774  1.1920
    1SOL    MW4 9636   4.289   4.350   3.789 -0.1245  0.2613  0.1972
    1SOL     OW 9637   2.841   1.587   4.558  0.5308 -0.0591  0.1088
    1SOL    HW2 9638   2.792   1.506   4.575 -0.9939  0.6600 -0.7907
    1SOL    HW3 9639   2.780   1.657   4.579  0.7310  0.8620 -2.3106
    1SOL    MW4 9640   2.827   1.585   4.563  0.3557  0.1574 -0.3290
    1SOL     OW 9641   4.066   4.261   4.193  0.4094  0.6206  0.2014
    1SOL    HW2 9642   4.073   4.170   4.221  2.1533  1.1345  1.5184
    1SOL    HW3 9643   3.979   4.289   4.223  0.1314 -0.4189  0.3695
    1SOL    MW4 9644   4.056   4.253   4.201  0.6027  0.5507  0.3977
    1SOL     OW 9645   1.988   0.271   4.538  0.6865 -0.3325  0.0947
    1SOL    HW2 9646   1.925   0.208   4.570 -0.4373  0.3513 -0.7263
    1SOL    HW3 9647   1.938   0.352   4.525  1.6032  0.0808 -1.0570
    1SOL    MW4 9648   1.973   0.274   4.540  0.6590 -0.1877 -0.1655
    1SOL     OW 9649   0.651   0.748   4.092  0.3539 -0.1256  0.4076
    1SOL    HW2 9650   0.717   0.808   4.127  0.1697  0.7978 -0.8305
    1SOL    HW3 9651   0.666   0.747   3.998  0.6025 -2.3308  0.4285
    1SOL    MW4 9652   0.662   0.755   4.084  0.3624 -0.2947  0.2470
    1SOL     OW 9653   4.223   0.768   4.149  0.3955  0.0896 -0.5516
    1SOL    HW2 9654   4.245   0.780   4.057  2.7821 -0.2022 -0.0382
    1SOL    HW3 9655   4.296   0.807   4.197 -0.3179 -0.6992  1.2166
    1SOL    MW4 9656   4.235   0.775   4.143  0.6161 -0.0530 -0.2508
    1SOL     OW 9657   1.971   2.181   4.443 -0.3652 -0.0260  0.2802
    1SOL    HW2 9658   1.964   2.225   4.528  0.3564 -0.3462  0.5123
    1SOL    HW3 9659   2.054   2.213   4.407 -0.1449 -0.7194  0.1709
    1SOL    MW4 9660   1.981   2.191   4.449 -0.2410 -0.1597  0.2966
    1SOL     OW 9661   0.050   1.128   4.159 -0.2926 -0.1798  0.1360
    1SOL    HW2 9662  -0.034   1.162   4.191 -0.6536  0.7755 -1.7838
    1SOL    HW3 9663   0.115   1.186   4.199 -0.7530  1.1322 -0.9744
    1SOL    MW4 9664   0.048   1.140   4.169 -0.4009  0.1193 -0.2632
    1SOL     OW 9665   1.122   2.877   4.273 -0.3074 -0.0263 -0.1324
    1SOL    HW2 9666   1.134   2.969   4.250  2.1677 -0.6150 -1.3446
    1SOL    HW3 9667   1.099   2.879   4.366  2.0601  1.7058  0.4653
    1SOL    MW4 9668   1.121   2.890   4.283  0.3314  0.1245 -0.2136
    1SOL     OW 9669   0.606   4.301   4.534 -0.1801  0.0469 -0.0231
    1SOL    HW2 9670   0.515   4.305   4.562  0.3473 -2.1539  2.1886
    1SOL    HW3 9671   0.649   4.370   4.584 -0.2560 -0.3002  0.5269
    1SOL    MW4 9672   0.600   4.311   4.545 -0.1205 -0.2890  0.3409
    1SOL     OW 9673   3.591   3.769   4.657 -0.0495 -0.2767 -0.3841
    1SOL    HW2 9674   3.661   3.736   4.601  0.6000  0.7130 -0.1617
    1SOL    HW3 9675   3.512   3.723   4.626  0.5659 -0.8536 -1.1095
    1SOL    MW4 9676   3.590   3.759   4.646  0.1173 -0.2224 -0.4506
    1SOL     OW 9677   0.736   4.020   4.627 -0.3237  0.1007  0.3484
    1SOL    HW2 9678   0.827   4.026   4.597  0.0065 -0.7976  1.1662
    1SOL    HW3 9679   0.697   4.105   4.603  0.1770 -0.2576 -1.8079
    1SOL    MW4 9680   0.743   4.032   4.620 -0.2140 -0.0653  0.1721
    1SOL     OW 9681   1.383   3.993   4.249  0.0916 -0.3978 -0.4397
    1SOL    HW2 9682   1.454   3.946   4.205 -0.3411 -0.0960 -1.4676
    1SOL    HW3 9683   1.383   3.957   4.338  0.2755 -1.7901 -0.9886
    1SOL    MW4 9684   1.392   3.982   4.255  0.0589 -0.5417 -0.6475
    1SOL     OW 9685   0.266   2.297   4.155  0.1662  0.0789  0.1541
    1SOL    HW2 9686   0.266   2.209   4.194 -0.6112 -0.3287 -0.7266
    1SOL    HW3 9687   0.351   2.334   4.177  0.5069 -0.9156  0.5195
    1SOL    MW4 9688   0.277   2.290   4.163  0.1086 -0.1061  0.0863
    1SOL     OW 9689   1.084   4.393   4.282 -0.1116  0.4856 -0.2531
    1SOL    HW2 9690   1.105   4.370   4.372 -1.3101  1.0954  0.2061
    1SOL    HW3 9691   1.152   4.352   4.229  1.5737  1.5528  1.0627
    1SOL    MW4 9692   1.096   4.385   4.287 -0.0474  0.7071 -0.0191
    1SOL     OW 9693   4.290   4.408   4.264  0.2683  0.6601  0.0876
    1SOL    HW2 9694   4.210   4.360   4.243  1.8796 -1.1317 -2.2606
    1SOL    HW3 9695   4.276   4.495   4.228 -1.5322  1.1213  1.8051
    1SOL    MW4 9696   4.277   4.413   4.256  0.2432  0.4849  0.0048
    1SOL     OW 9697   0.791   1.850   4.696  0.0290  0.0223 -0.1867
    1SOL    HW2 9698   0.863   1.902   4.660 -0.2243  1.0006  0.6743
    1SOL    HW3 9699   0.713   1.905   4.685 -0.3360 -0.4015  0.2373
    1SOL    MW4 9700   0.790   1.864   4.690 -0.0526  0.0954 -0.0167
    1SOL     OW 9701   0.207   2.851   4.249 -0.0556  0.1909  0.5369
    1SOL    HW2 9702   0.204   2.942   4.221  0.6703 -0.1241 -0.6159
    1SOL    HW3 9703   0.126   2.813   4.217  0.3596  0.0539 -0.3576
    1SOL    MW4 9704   0.196   2.858   4.241  0.0950  0.1311  0.2666
    1SOL     OW 9705   2.428   1.700   4.442  0.1777 -0.4510 -0.1164
    1SOL    HW2 9706   2.391   1.787   4.425  0.3228 -0.4471 -0.4207
    1SOL    HW3 9707   2.485   1.684   4.367  1.0126 -0.3353  0.4904
    1SOL    MW4 9708   2.431   1.709   4.430  0.3068 -0.4351 -0.0763
    1SOL     OW 9709   4.215   3.129   4.174  0.2661  0.5069  0.1219
    1SOL    HW2 9710   4.293   3.183   4.185 -0.3549  1.5842 -0.6991
    1SOL    HW3 9711   4.207   3.117   4.079 -0.3540  0.0874  0.2209
    1SOL    MW4 9712   4.224   3.135   4.163  0.1020  0.5934  0.0262
    1SOL     OW 9713   3.287   2.625   4.563  0.0622 -0.3597 -0.2075
    1SOL    HW2 9714   3.279   2.720   4.560  0.0145 -0.3174  1.0465
    1SOL    HW3 9715   3.378   2.610   4.590 -0.3428 -0.6490  1.0107
    1SOL    MW4 9716   3.298   2.636   4.566  0.0024 -0.3924  0.1187
    1SOL     OW 9717   2.025   1.163   4.703 -0.1566  0.3619  0.1590
    1SOL    HW2 9718   1.978   1.227   4.756 -0.3454 -0.2969  0.7821
    1SOL    HW3 9719   2.102   1.211   4.671  0.0519  0.7066  1.1578
    1SOL    MW4 9720   2.029   1.178   4.706 -0.1538  0.3204  0.3729
    1SOL     OW 9721   1.207   2.003   4.776  0.4603  0.1097  0.1566
    1SOL    HW2 9722   1.130   2.022   4.723  0.6908 -1.0050 -0.5896
    1SOL    HW3 9723   1.217   2.081   4.832 -2.3351 -0.5100  1.6322
    1SOL    MW4 9724   1.198   2.016   4.777  0.1220 -0.1192  0.2532
    1SOL     OW 9725   0.222   4.474   4.249  0.0454 -0.4329 -1.0138
    1SOL    HW2 9726   0.191   4.492   4.338 -0.4482  0.4947 -1.3664
    1SOL    HW3 9727   0.177   4.393   4.224 -0.6068 -0.1395 -0.8012
    1SOL    MW4 9728   0.212   4.466   4.257 -0.1058 -0.2718 -1.0319
    1SOL     OW 9729   3.178   1.170   4.138 -0.1966  0.3922  0.1160
    1SOL    HW2 9730   3.161   1.163   4.044 -1.1402  0.2472  0.2914
    1SOL    HW3 9731   3.093   1.190   4.176  0.3461  1.3584  0.8482
    1SOL    MW4 9732   3.165   1.172   4.131 -0.2494  0.5006  0.2351
    1SOL     OW 9733   0.714   1.005   4.632 -0.4031  0.3569  0.4740
    1SOL    HW2 9734   0.722   1.010   4.727 -1.1295 -0.4338  0.5764
    1SOL    HW3 9735   0.620   1.005   4.615 -0.3902 -3.6759 -0.0085
    1SOL    MW4 9736   0.703   1.006   4.642 -0.4973 -0.2795  0.4244
    1SOL     OW 9737   0.555   0.077   4.118 -0.3568 -0.1456  0.0276
    1SOL    HW2 9738   0.567   0.172   4.108  1.4398 -0.5002 -1.2368
    1SOL    HW3 9739   0.602   0.039   4.044  1.3117 -2.1694  2.0753
    1SOL    MW4 9740   0.562   0.085   4.107  0.1004 -0.4594  0.1311
    1SOL     OW 9741   0.492   0.352   4.147 -0.6083  0.6940 -0.0032
    1SOL    HW2 9742   0.569   0.401   4.178  0.8777 -1.7087  0.3015
    1SOL    HW3 9743   0.479   0.381   4.057  1.8806 -0.2121 -0.7047
    1SOL    MW4 9744   0.501   0.362   4.139 -0.0839  0.2575 -0.0553
    1SOL     OW 9745   0.886   0.870   4.223  0.1977  0.1397 -0.1882
    1SOL    HW2 9746   0.878   0.962   4.201  0.2988 -0.0243 -0.9189
    1SOL    HW3 9747   0.872   0.866   4.318  0.4620  0.9331 -0.1192
    1SOL    MW4 9748   0.883   0.881   4.233  0.2459  0.2228 -0.2751
    1SOL     OW 9749   4.233   0.737   4.777 -0.4106 -0.2908 -0.1506
    1SOL    HW2 9750   4.249   0.708   4.867  1.7463 -0.1708 -0.4627
    1SOL    HW3 9751   4.181   0.816   4.786 -1.8509 -1.3473  0.9167
    1SOL    MW4 9752   4.229   0.743   4.790 -0.3161 -0.4143 -0.0515
    1SOL     OW 9753   2.771   2.273   4.389 -0.1745  0.0721  0.6037
    1SOL    HW2 9754   2.835   2.206   4.369 -0.7998 -0.5686  0.7476
    1SOL    HW3 9755   2.698   2.226   4.429 -1.3756  0.5786 -0.9350
    1SOL    MW4 9756   2.770   2.258   4.392 -0.4153  0.0544  0.4196
    1SOL     OW 9757   0.685   1.551   4.166 -0.3977  0.1912 -0.0673
    1SOL    HW2 9758   0.696   1.460   4.194 -1.3287 -0.2845 -1.2126
    1SOL    HW3 9759   0.665   1.545   4.073 -1.3317  1.5060  0.0367
    1SOL    MW4 9760   0.684   1.538   4.157 -0.6437  0.3020 -0.2046
    1SOL     OW 9761   0.154   0.690   4.080  1.0065 -0.5186  0.6108
    1SOL    HW2 9762   0.122   0.602   4.100 -0.8444 -0.0526 -0.1903
    1SOL    HW3 9763   0.099   0.748   4.133  1.6968  0.2019  0.5475
    1SOL    MW4 9764   0.142   0.686   4.090  0.8534 -0.3620  0.4969
    1SOL     OW 9765   0.816   2.435   4.464  0.3903  0.5313 -0.1363
    1SOL    HW2 9766   0.829   2.340   4.461  0.7374  0.5984 -1.2423
    1SOL    HW3 9767   0.830   2.463   4.373 -1.9500  1.3541 -0.2634
    1SOL    MW4 9768   0.820   2.426   4.452  0.1273  0.6490 -0.2990
    1SOL     OW 9769   4.125   0.990   4.753 -0.0067  0.0042  0.1184
    1SOL    HW2 9770   4.131   1.085   4.751 -0.4038  0.1221  2.8213
    1SOL    HW3 9771   4.063   0.968   4.683  0.3110  1.6816 -0.7230
    1SOL    MW4 9772   4.118   1.000   4.743 -0.0172  0.2411  0.3638
    1SOL     OW 9773   0.475   1.923   4.138  0.6794  0.3634  0.1205
    1SOL    HW2 9774   0.551   1.968   4.174  0.8289  0.1763  0.0420
    1SOL    HW3 9775   0.492   1.918   4.044  0.9044 -0.3093  0.1947
    1SOL    MW4 9776   0.487   1.928   4.130  0.7288  0.2501  0.1202
    1SOL     OW 9777   1.701   3.318   4.707  0.6592  0.0819 -0.0284
    1SOL    HW2 9778   1.739   3.246   4.657  1.6211  0.6152 -0.0739
    1SOL    HW3 9779   1.729   3.302   4.797 -1.0999 -0.9004  0.3858
    1SOL    MW4 9780   1.709   3.306   4.712  0.5540  0.0226  0.0196
    1SOL     OW 9781   0.714   2.321   4.131 -0.5632  0.1155 -0.0857
    1SOL    HW2 9782   0.633   2.358   4.166 -0.6713 -0.1978  0.0004
    1SOL    HW3 9783   0.712   2.341   4.038 -0.3404  0.8362  0.0605
    1SOL    MW4 9784   0.703   2.329   4.123 -0.5480  0.1690 -0.0544
    1SOL     OW 9785   1.938   4.280   4.516 -0.3692  0.5219  0.6170
    1SOL    HW2 9786   1.900   4.353   4.564  0.0083  1.4627 -0.4743
    1SOL    HW3 9787   1.955   4.315   4.428  1.8978 -0.2129  0.7226
    1SOL    MW4 9788   1.936   4.294   4.511 -0.0204  0.5488  0.4869
    1SOL     OW 9789   0.644   2.851   4.256  0.3652 -0.0038 -0.4290
    1SOL    HW2 9790   0.717   2.826   4.199  1.2917 -1.4328  1.3177
    1SOL    HW3 9791   0.577   2.784   4.240  0.0335  0.4392 -0.9126
    1SOL    MW4 9792   0.645   2.839   4.246  0.4437 -0.1340 -0.2623
    1SOL     OW 9793   1.603   2.831   4.222  0.0022 -0.1202 -0.1444
    1SOL    HW2 9794   1.623   2.857   4.312  0.3796  1.3609 -0.6400
    1SOL    HW3 9795   1.669   2.764   4.201  1.1604  0.9432  0.0220
    1SOL    MW4 9796   1.615   2.826   4.232  0.2048  0.2155 -0.1879
    1SOL     OW 9797   0.626   3.106   4.141  0.2038 -0.1800  0.4026
    1SOL    HW2 9798   0.614   3.022   4.185 -1.7066  0.2726  0.7726
    1SOL    HW3 9799   0.565   3.166   4.185 -1.7088  0.2978 -2.7806
    1SOL    MW4 9800   0.617   3.103   4.153 -0.3006 -0.0572  0.0315
    1SOL     OW 9801   4.466   3.229   4.259 -0.1883 -0.5609  0.4666
    1SOL    HW2 9802   4.456   3.320   4.232 -1.1127 -0.7098  0.3104
    1SOL    HW3 9803   4.471   3.233   4.354 -2.9790 -0.5755  0.6612
    1SOL    MW4 9804   4.465   3.242   4.268 -0.6785 -0.5827  0.4716
    1SOL     OW 9805   0.779   1.237   4.501 -0.3304  0.4000  0.2804
    1SOL    HW2 9806   0.767   1.171   4.569 -0.1741  1.3993  1.3020
    1SOL    HW3 9807   0.874   1.247   4.493 -0.3554  0.7000  0.3350
    1SOL    MW4 9808   0.790   1.230   4.509 -0.3131  0.5714  0.4225
    1SOL     OW 9809   4.020   3.940   4.547  0.1564  0.3967  0.0120
    1SOL    HW2 9810   3.959   3.867   4.537  0.9158  0.0192 -2.1781
    1SOL    HW3 9811   4.096   3.902   4.592  0.1200  0.0818 -0.1937
    1SOL    MW4 9812   4.022   3.925   4.552  0.2518  0.3054 -0.3042
    1SOL     OW 9813   0.681   3.638   4.243  0.2777  0.2936 -0.1645
    1SOL    HW2 9814   0.748   3.589   4.197 -0.4924 -0.5714 -0.3836
    1SOL    HW3 9815   0.702   3.629   4.335 -0.5003 -1.4177 -0.1390
    1SOL    MW4 9816   0.692   3.630   4.249  0.0735 -0.0465 -0.1903
    1SOL     OW 9817   2.860   0.554   4.494 -0.1239 -0.0185 -0.3614
    1SOL    HW2 9818   2.942   0.601   4.512 -0.4035  1.3288 -2.3663
    1SOL    HW3 9819   2.792   0.610   4.532 -0.2846  0.0838 -0.7953
    1SOL    MW4 9820   2.862   0.568   4.502 -0.1819  0.1729 -0.6833
    1SOL     OW 9821   4.290   0.423   4.513 -0.1086 -0.4817  0.3393
    1SOL    HW2 9822   4.273   0.441   4.421 -1.0629 -1.0436  0.4027
    1SOL    HW3 9823   4.210   0.453   4.558  0.1400 -0.6935  0.9250
    1SOL    MW4 9824   4.277   0.430   4.507 -0.2017 -0.5838  0.4244
    1SOL     OW 9825   0.146   4.497   4.514 -0.0287  0.1904  0.2528
    1SOL    HW2 9826   0.126   4.591   4.514 -0.2907  0.1557 -1.6048
    1SOL    HW3 9827   0.062   4.454   4.528  0.1500  0.2375  1.4867
    1SOL    MW4 9828   0.132   4.504   4.516 -0.0397  0.1922  0.1702
    1SOL     OW 9829   1.158   4.656   4.196  0.4472 -0.2458 -0.0047
    1SOL    HW2 9830   1.119   4.574   4.227  0.5098 -0.6320 -0.9353
    1SOL    HW3 9831   1.124   4.666   4.107  0.9700  0.3960 -0.1320
    1SOL    MW4 9832   1.148   4.646   4.189  0.5243 -0.2127 -0.1440
    1SOL     OW 9833   0.955   0.131   4.332 -0.3451 -0.0031  0.2893
    1SOL    HW2 9834   0.937   0.204   4.273 -1.7489 -0.0303  0.6677
    1SOL    HW3 9835   1.027   0.084   4.291  0.6082  1.6032  0.0506
    1SOL    MW4 9836   0.962   0.135   4.319 -0.4045  0.2052  0.3080
    1SOL     OW 9837   1.157   4.325   4.544 -0.4532  0.3090  0.2291
    1SOL    HW2 9838   1.096   4.386   4.586 -1.0995  0.0612 -0.3328
    1SOL    HW3 9839   1.236   4.376   4.529 -0.8108  0.8659  0.2202
    1SOL    MW4 9840   1.159   4.340   4.548 -0.5856  0.3500  0.1531
    1SOL     OW 9841   0.462   1.678   4.264 -0.2393 -0.1136  0.2789
    1SOL    HW2 9842   0.538   1.628   4.236 -1.2948 -0.8563 -1.3092
    1SOL    HW3 9843   0.473   1.764   4.225 -0.3213 -0.2870 -0.1227
    1SOL    MW4 9844   0.473   1.682   4.255 -0.3894 -0.2344  0.0167
    1SOL     OW 9845   1.117   0.733   4.124  0.6136 -0.5767 -0.2996
    1SOL    HW2 9846   1.185   0.787   4.165  0.1510 -0.9785  1.0009
    1SOL    HW3 9847   1.035   0.769   4.155  0.2555 -0.8025 -0.9788
    1SOL    MW4 9848   1.115   0.745   4.133  0.5054 -0.6596 -0.2179
    1SOL     OW 9849   1.679   0.503   4.506  0.1825 -0.0658 -0.0411
    1SOL    HW2 9850   1.630   0.519   4.425 -0.6517 -0.6581  0.3366
    1SOL    HW3 9851   1.762   0.548   4.493 -0.6007  1.2498 -0.5513
    1SOL    MW4 9852   1.683   0.511   4.493 -0.0309  0.0296 -0.0587
    1SOL     OW 9853   0.885   1.135   4.117  0.6227 -0.5358  0.4971
    1SOL    HW2 9854   0.808   1.186   4.142  0.2810 -1.2138  0.8622
    1SOL    HW3 9855   0.959   1.183   4.154  0.2234 -0.8284  1.7016
    1SOL    MW4 9856   0.885   1.148   4.126  0.5249 -0.6639  0.7038
    1SOL     OW 9857   0.114   1.353   4.605  0.0182 -0.3355  0.5549
    1SOL    HW2 9858   0.204   1.337   4.577  0.1251  0.4638  0.4382
    1SOL    HW3 9859   0.099   1.446   4.586 -0.6657 -0.3475  1.0257
    1SOL    MW4 9860   0.124   1.363   4.599 -0.0579 -0.2317  0.6013
    1SOL     OW 9861   4.008   3.527   4.640  0.0902 -0.2246 -0.2997
    1SOL    HW2 9862   3.994   3.435   4.616  0.0109 -0.7768  1.7599
    1SOL    HW3 9863   4.090   3.550   4.597 -0.6161 -0.8253 -2.0022
    1SOL    MW4 9864   4.017   3.518   4.632 -0.0138 -0.3767 -0.2522
    1SOL     OW 9865   0.668   3.398   4.632 -0.3245  0.0520 -0.2895
    1SOL    HW2 9866   0.669   3.448   4.713  0.7587 -0.7534  0.2052
    1SOL    HW3 9867   0.710   3.455   4.567  1.8853 -0.6056  0.5195
    1SOL    MW4 9868   0.674   3.412   4.634  0.1099 -0.1409 -0.1173
    1SOL     OW 9869   0.512   1.952   4.593 -0.1078 -0.2315 -0.5029
    1SOL    HW2 9870   0.513   1.858   4.571  0.6416 -0.1578 -0.8133
    1SOL    HW3 9871   0.471   1.956   4.679  2.2380 -1.1390  0.7173
    1SOL    MW4 9872   0.507   1.940   4.602  0.3005 -0.3414 -0.3829
    1SOL     OW 9873   0.903   1.931   4.153  0.0762  0.2273 -0.1841
    1SOL    HW2 9874   0.980   1.972   4.193  1.4135 -1.6692 -0.7504
    1SOL    HW3 9875   0.919   1.937   4.059  0.0482 -1.1164 -0.2781
    1SOL    MW4 9876   0.915   1.938   4.146  0.2490 -0.2002 -0.2708
    1SOL     OW 9877   2.526   2.182   4.491  0.1358  0.0306 -0.2768
    1SOL    HW2 9878   2.478   2.262   4.469  0.9612  0.2917 -1.1763
    1SOL    HW3 9879   2.477   2.112   4.447 -0.0859  0.1447 -0.2140
    1SOL    MW4 9880   2.513   2.183   4.482  0.2155  0.0799 -0.3872
    1SOL     OW 9881   0.347   4.068   4.587  0.1000  0.2859 -0.0958
    1SOL    HW2 9882   0.252   4.074   4.574  0.1431  1.8654  0.2255
    1SOL    HW3 9883   0.384   4.075   4.499 -0.0846 -0.5529 -0.2435
    1SOL    MW4 9884   0.339   4.069   4.574  0.0813  0.3839 -0.0730
    1SOL     OW 9885   0.903   2.776   4.139 -0.2220  0.1673  0.1708
    1SOL    HW2 9886   0.913   2.685   4.168 -0.5425  0.4520  1.1864
    1SOL    HW3 9887   0.980   2.821   4.174 -0.8449  0.6101  1.0075
    1SOL    MW4 9888   0.914   2.770   4.148 -0.3464  0.2635  0.4153
    1SOL     OW 9889   0.469   0.201   4.736  0.0259 -0.1893  0.0960
    1SOL    HW2 9890   0.489   0.111   4.762  2.6526  0.0071 -1.1182
    1SOL    HW3 9891   0.450   0.196   4.643  1.7336  0.7147 -0.3215
    1SOL    MW4 9892   0.469   0.189   4.727  0.5977 -0.0441 -0.1187
    1SOL     OW 9893   1.124   3.140   4.172  0.6751 -0.4190  0.4369
    1SOL    HW2 9894   1.115   3.119   4.079  1.8617  0.0644  0.2040
    1SOL    HW3 9895   1.043   3.185   4.195 -0.6704 -2.6274  0.2314
    1SOL    MW4 9896   1.113   3.143   4.163  0.6542 -0.6466  0.3791
    1SOL     OW 9897   3.627   0.100   4.289  0.0359  0.0268  0.1944
    1SOL    HW2 9898   3.695   0.036   4.268  0.7343  0.5596  0.8348
    1SOL    HW3 9899   3.655   0.180   4.244 -1.8529 -0.6204 -2.2861
    1SOL    MW4 9900   3.640   0.102   4.280 -0.1211  0.0117 -0.0482
    1SOL     OW 9901   0.203   3.653   4.218  0.1848 -0.0279  0.2657
    1SOL    HW2 9902   0.201   3.745   4.191  0.2803 -0.1787 -0.2566
    1SOL    HW3 9903   0.291   3.623   4.195  0.3076 -0.1280  0.8478
    1SOL    MW4 9904   0.215   3.661   4.211  0.2136 -0.0610  0.2742
    1SOL     OW 9905   4.052   2.755   4.202 -0.0030  0.0938  0.7223
    1SOL    HW2 9906   4.052   2.661   4.218  0.1667 -0.1510 -0.5997
    1SOL    HW3 9907   3.963   2.783   4.220  0.1970 -0.1353  2.0978
    1SOL    MW4 9908   4.041   2.746   4.206  0.0458  0.0312  0.7286
    1SOL     OW 9909   2.043   2.872   4.186 -0.5675  0.2861  0.2634
    1SOL    HW2 9910   1.969   2.810   4.181  0.6303 -1.2683  1.2017
    1SOL    HW3 9911   2.120   2.819   4.165  0.5155  1.4190  1.2822
    1SOL    MW4 9912   2.043   2.856   4.183 -0.2666  0.2306  0.5212
    1SOL     OW 9913   0.424   3.272   4.254  0.2417  0.3127 -0.4900
    1SOL    HW2 9914   0.406   3.360   4.221 -0.7129 -0.4753 -2.1310
    1SOL    HW3 9915   0.437   3.284   4.348  0.2330  2.2162 -0.7046
    1SOL    MW4 9916   0.423   3.285   4.262  0.1146  0.4597 -0.7348
    1SOL     OW 9917   0.867   4.277   4.154  0.2436  0.2448 -0.2684
    1SOL    HW2 9918   0.792   4.314   4.200  0.3109 -2.7048  2.4026
    1SOL    HW3 9919   0.943   4.307   4.205  0.5360 -0.6227 -0.1885
    1SOL    MW4 9920   0.867   4.286   4.167  0.2911 -0.2589  0.0949
    1SOL     OW 9921   1.037   3.649   4.512  0.5306 -0.3508 -0.2277
    1SOL    HW2 9922   1.069   3.570   4.556 -1.2205 -0.5856  0.6737
    1SOL    HW3 9923   1.077   3.646   4.425  2.1883 -1.0975  0.5368
    1SOL    MW4 9924   1.047   3.638   4.506  0.5183 -0.4802 -0.0081
    1SOL     OW 9925   2.652   4.008   4.325  0.2008  0.5677  0.0622
    1SOL    HW2 9926   2.666   3.943   4.393  0.8734  1.0756  0.4114
    1SOL    HW3 9927   2.579   3.973   4.273  1.9311 -1.5232 -1.0536
    1SOL    MW4 9928   2.644   3.995   4.327  0.5178  0.3591 -0.0386
    1SOL     OW 9929   1.386   0.123   4.255  0.0004 -0.3490  0.0363
    1SOL    HW2 9930   1.394   0.130   4.350  1.6163 -1.0571 -0.0289
    1SOL    HW3 9931   1.308   0.068   4.242  0.3435 -1.0774  0.9747
    1SOL    MW4 9932   1.377   0.117   4.266  0.2588 -0.5386  0.1512
    1SOL     OW 9933   1.352   0.382   4.136  0.5224  0.0763 -0.0424
    1SOL    HW2 9934   1.289   0.432   4.188  1.4178 -0.4671  1.6197
    1SOL    HW3 9935   1.367   0.303   4.188 -0.2179 -1.5341 -2.2171
    1SOL    MW4 9936   1.346   0.378   4.150  0.5429 -0.2078 -0.1097
    1SOL     OW 9937   1.450   3.411   4.633  0.0755 -0.6692 -0.5294
    1SOL    HW2 9938   1.475   3.495   4.596  0.4666 -0.4783  0.1527
    1SOL    HW3 9939   1.532   3.374   4.667 -0.3244 -0.6803  0.4480
    1SOL    MW4 9940   1.464   3.417   4.633  0.0743 -0.6456 -0.3099
    1SOL     OW 9941   2.321   1.985   4.759  0.2044  0.0612 -0.3433
    1SOL    HW2 9942   2.416   1.980   4.750  0.0837 -1.3505 -0.9127
    1SOL    HW3 9943   2.300   2.077   4.741  1.5625  0.6393  0.9418
    1SOL    MW4 9944   2.331   1.997   4.755  0.3676 -0.0489 -0.2494
    1SOL     OW 9945   1.817   4.489   4.668 -0.1489 -0.1146  0.2918
    1SOL    HW2 9946   1.802   4.580   4.641 -0.4664  0.1001  1.1803
    1SOL    HW3 9947   1.729   4.454   4.683 -0.2121 -1.3731 -2.5929
    1SOL    MW4 9948   1.803   4.496   4.666 -0.1991 -0.2527  0.0291
    1SOL     OW 9949   0.881   3.265   4.197 -0.1829  0.5649  0.3581
    1SOL    HW2 9950   0.863   3.272   4.291 -1.7337  0.8762  0.0525
    1SOL    HW3 9951   0.801   3.228   4.160  0.9891 -1.0251 -0.6407
    1SOL    MW4 9952   0.868   3.261   4.205 -0.2328  0.3963  0.1860
    1SOL     OW 9953   1.366   1.134   4.165 -0.0627 -0.0856  0.2125
    1SOL    HW2 9954   1.444   1.183   4.192  0.4603 -0.6644 -0.2330
    1SOL    HW3 9955   1.368   1.136   4.069 -0.3127 -0.5523  0.1981
    1SOL    MW4 9956   1.377   1.141   4.156 -0.0267 -0.2235  0.1521
    1SOL     OW 9957   3.295   2.896   4.494 -0.2355 -0.2168  0.4708
    1SOL    HW2 9958   3.357   2.969   4.492  0.4242 -0.8127 -1.6009
    1SOL    HW3 9959   3.218   2.930   4.540 -0.0136  1.8166 -0.6475
    1SOL    MW4 9960   3.293   2.910   4.500 -0.1192 -0.0272  0.0496
    1SOL     OW 9961   3.076   4.038   4.509 -0.5224  0.5987  0.4487
    1SOL    HW2 9962   3.012   4.109   4.517  0.5007  1.8190 -1.5750
    1SOL    HW3 9963   3.160   4.081   4.527  0.2019  0.1140 -1.6643
    1SOL    MW4 9964   3.079   4.053   4.512 -0.2918  0.6957 -0.0973
    1SOL     OW 9965   2.851   2.209   4.804 -0.0143  0.5739 -0.0905
    1SOL    HW2 9966   2.906   2.139   4.769 -0.9773  0.0423 -0.5531
    1SOL    HW3 9967   2.874   2.286   4.752  1.4475  0.7506  0.7866
    1SOL    MW4 9968   2.861   2.210   4.793  0.0515  0.5269 -0.0358
    1SOL     OW 9969   1.122   0.152   4.547  0.4133  0.2340 -0.1291
    1SOL    HW2 9970   1.089   0.222   4.603  0.3519  0.1121 -0.0135
    1SOL    HW3 9971   1.065   0.155   4.469 -0.0297 -0.1414  0.1803
    1SOL    MW4 9972   1.110   0.162   4.544  0.3468  0.1684 -0.0730
    1SOL     OW 9973   2.242   0.851   4.508 -0.5884  0.1636 -0.2994
    1SOL    HW2 9974   2.225   0.874   4.416 -0.6591 -0.0873 -0.3512
    1SOL    HW3 9975   2.286   0.766   4.504  2.0145  1.4867 -0.2158
    1SOL    MW4 9976   2.245   0.843   4.495 -0.2544  0.3051 -0.2952
    1SOL     OW 9977   1.744   2.696   3.878  0.0152 -0.1527  0.1288
    1SOL    HW2 9978   1.664   2.738   3.846  0.0531 -0.3003 -0.1538
    1SOL    HW3 9979   1.742   2.608   3.840  1.3771  0.5378 -1.5895
    1SOL    MW4 9980   1.733   2.690   3.869  0.1999 -0.0811 -0.1352
    1SOL     OW 9981   3.389   3.590   4.542  0.4099 -0.5640 -0.6325
    1SOL    HW2 9982   3.386   3.509   4.592 -0.8679 -1.6409 -2.4071
    1SOL    HW3 9983   3.319   3.644   4.579  1.6097 -0.0119  0.9073
    1SOL    MW4 9984   3.380   3.587   4.553  0.3996 -0.6330 -0.6638
    1SOL     OW 9985   1.113   2.071   4.253 -0.1689 -0.0699 -0.7683
    1SOL    HW2 9986   1.183   2.025   4.207 -0.1144 -0.3201 -0.4420
    1SOL    HW3 9987   1.155   2.109   4.330 -0.2555  0.3614 -0.9341
    1SOL    MW4 9988   1.127   2.070   4.257 -0.1731 -0.0460 -0.7472
    1SOL     OW 9989   3.593   4.012   4.240  0.1827 -0.0783  0.2579
    1SOL    HW2 9990   3.669   3.978   4.194 -0.1699 -1.5609  0.7170
    1SOL    HW3 9991   3.519   3.964   4.202 -0.1072 -1.3249  2.3190
    1SOL    MW4 9992   3.593   4.001   4.229  0.0980 -0.4382  0.5903
    1SOL     OW 9993   3.213   0.920   4.551  0.0132 -0.5490  0.3486
    1SOL    HW2 9994   3.174   1.003   4.578 -0.3271 -0.3609 -0.7065
    1SOL    HW3 9995   3.201   0.917   4.457 -0.1079 -1.8739  0.3993
    1SOL    MW4 9996   3.207   0.931   4.542 -0.0477 -0.6990  0.2165
    1SOL     OW 9997   3.131   4.511   4.591  0.6750 -0.1536  0.4590
    1SOL    HW2 9998   3.054   4.457   4.609  0.4381  0.4343  1.2133
    1SOL    HW3 9999   3.097   4.589   4.548  0.8181  0.2297  1.0378
    1SOL    MW410000   3.117   4.514   4.587  0.6626 -0.0257  0.6347
    1SOL     OW10001   1.762   0.074   4.297 -0.0435 -0.2840 -0.2884
    1SOL    HW210002   1.842   0.023   4.279 -0.0356 -0.6981  0.8779
    1SOL    HW310003   1.692   0.023   4.256  0.1320 -0.5700 -0.2399
    1SOL    MW410004   1.764   0.061   4.289 -0.0193 -0.3764 -0.1283
    1SOL     OW10005   0.930   4.013   4.222 -0.2227 -0.0493 -0.1571
    1SOL    HW210006   0.910   4.098   4.184 -1.5830 -1.0215 -1.6578
    1SOL    HW310007   1.005   3.981   4.173 -0.5546 -0.2999 -0.5049
    1SOL    MW410008   0.937   4.020   4.211 -0.4460 -0.2108 -0.4005
    1SOL     OW10009   0.647   3.914   4.169  0.3494  0.2561 -0.4334
    1SOL    HW210010   0.632   3.820   4.184  0.3122  0.3176 -0.0799
    1SOL    HW310011   0.742   3.925   4.179  0.1291  0.5971  1.4851
    1SOL    MW410012   0.658   3.903   4.172  0.3155  0.3095 -0.1335
    1SOL     OW10013   1.580   0.512   4.248  0.0347 -0.3861  0.2884
    1SOL    HW210014   1.500   0.469   4.218  0.5085 -0.9076 -0.2472
    1SOL    HW310015   1.571   0.603   4.220 -0.3084 -0.4718  0.1189
    1SOL    MW410016   1.568   0.518   4.240  0.0519 -0.4662  0.1955
    1SOL     OW10017   1.567   0.280   4.664 -0.3645 -0.1052  0.3679
    1SOL    HW210018   1.486   0.295   4.712 -1.3825 -1.2169 -0.9866
    1SOL    HW310019   1.586   0.365   4.622 -0.1313  0.5109  1.6823
    1SOL    MW410020   1.559   0.293   4.665 -0.4681 -0.1706  0.3629
    1SOL     OW10021   2.010   4.639   4.223  0.1340  0.0957 -0.2389
    1SOL    HW210022   2.065   4.711   4.254  1.2962 -0.5958 -0.6531
    1SOL    HW310023   2.007   4.651   4.128 -2.2710  1.4052 -0.0218
    1SOL    MW410024   2.017   4.650   4.215 -0.0298  0.1774 -0.2651
    1SOL     OW10025   2.023   0.501   4.220 -0.1394 -0.2070  0.4654
    1SOL    HW210026   2.104   0.459   4.191  0.0514 -0.5801  1.5203
    1SOL    HW310027   1.957   0.432   4.216 -0.3120 -0.0190  0.0361
    1SOL    MW410028   2.025   0.487   4.215 -0.1369 -0.2314  0.5479
    1SOL     OW10029   1.561   4.622   4.131 -0.1609  0.0680  0.1443
    1SOL    HW210030   1.488   4.680   4.156  0.0165 -0.1624  1.2355
    1SOL    HW310031   1.545   4.542   4.181 -0.5385 -0.9163 -1.5433
    1SOL    MW410032   1.549   4.619   4.141 -0.1872 -0.0920  0.0658
    1SOL     OW10033   1.058   0.401   4.694 -0.6298 -0.4187  0.1862
    1SOL    HW210034   1.066   0.473   4.631 -1.7909 -0.4731 -0.0395
    1SOL    HW310035   0.963   0.390   4.705 -0.4801 -2.5258 -0.4659
    1SOL    MW410036   1.047   0.409   4.687 -0.7632 -0.7039  0.0706
    1SOL     OW10037   3.793   0.778   4.204 -0.2542  0.0694  0.0087
    1SOL    HW210038   3.712   0.818   4.236  0.5508  0.8985  1.0535
    1SOL    HW310039   3.789   0.788   4.109 -0.8788  1.0877  0.1340
    1SOL    MW410040   3.782   0.785   4.196 -0.2306  0.3131  0.1626
    1SOL     OW10041   3.355   4.369   4.508  0.5098  0.1959 -0.4500
    1SOL    HW210042   3.275   4.409   4.542  0.1417  0.1612 -1.2616
    1SOL    HW310043   3.365   4.288   4.558  0.7922  0.8837  0.6088
    1SOL    MW410044   3.345   4.364   4.519  0.4988  0.2823 -0.4177
    1SOL     OW10045   4.311   0.545   4.971  0.2589 -0.3012  0.3046
    1SOL    HW210046   4.254   0.469   4.961  1.2862 -1.0277 -0.1607
    1SOL    HW310047   4.400   0.509   4.969  0.8094  1.0833 -1.6580
    1SOL    MW410048   4.315   0.530   4.969  0.4673 -0.2145 -0.0157
    1SOL     OW10049   1.265   2.109   4.494  0.0659  0.1360  0.0877
    1SOL    HW210050   1.282   2.048   4.566 -0.3454 -0.1976 -0.0957
    1SOL    HW310051   1.256   2.194   4.537 -2.3222 -0.3680  0.6989
    1SOL    MW410052   1.266   2.112   4.509 -0.3033  0.0257  0.1440
    1SOL     OW10053   1.870   1.177   4.187  0.3506  0.0564 -0.2190
    1SOL    HW210054   1.838   1.087   4.184  0.9133 -0.1494 -0.2568
    1SOL    HW310055   1.900   1.189   4.277  0.0045  0.3009 -0.1374
    1SOL    MW410056   1.870   1.167   4.198  0.3791  0.0615 -0.2131
    1SOL     OW10057   1.755   1.673   4.397 -0.0932  0.6227 -0.1373
    1SOL    HW210058   1.702   1.653   4.474 -0.1271 -0.1951 -0.3691
    1SOL    HW310059   1.777   1.765   4.407 -0.9036  0.7715  0.3597
    1SOL    MW410060   1.751   1.682   4.409 -0.2046  0.5344 -0.1020
    1SOL     OW10061   1.155   1.490   4.121  0.0460 -0.3444 -0.2871
    1SOL    HW210062   1.138   1.400   4.149  1.1837 -0.7447 -0.8302
    1SOL    HW310063   1.081   1.541   4.155 -0.7345 -1.5288 -0.2049
    1SOL    MW410064   1.143   1.485   4.129  0.0931 -0.5535 -0.3476
    1SOL     OW10065   0.741   2.147   4.493  0.3786  0.4612  0.1546
    1SOL    HW210066   0.675   2.122   4.557 -0.7342  1.7589 -0.4408
    1SOL    HW310067   0.715   2.103   4.412  0.5998  0.4789  0.0716
    1SOL    MW410068   0.729   2.138   4.491  0.2609  0.6344  0.0648
    1SOL     OW10069   3.555   2.708   4.112  0.3052  0.2389 -0.2492
    1SOL    HW210070   3.541   2.717   4.017 -1.0386  0.4312 -0.0352
    1SOL    HW310071   3.475   2.741   4.151  0.6931 -0.2358  0.9542
    1SOL    MW410072   3.543   2.713   4.104  0.1793  0.2017 -0.0620
    1SOL     OW10073   3.566   1.751   4.552  0.2674 -0.0248 -0.0974
    1SOL    HW210074   3.638   1.707   4.597 -0.3856 -1.5828 -0.5272
    1SOL    HW310075   3.585   1.845   4.561  1.0916 -0.3581  1.8184
    1SOL    MW410076   3.578   1.758   4.559  0.2904 -0.2743  0.0987
    1SOL     OW10077   2.253   2.681   4.121 -0.3956  0.2994 -0.0366
    1SOL    HW210078   2.249   2.678   4.026 -1.6437  0.3455  0.0062
    1SOL    HW310079   2.235   2.591   4.149  0.8293  0.0935  0.1460
    1SOL    MW410080   2.250   2.669   4.112 -0.3986  0.2782 -0.0062
    1SOL     OW10081   1.912   1.295   4.437  0.3210 -0.1898  0.3219
    1SOL    HW210082   1.938   1.387   4.432  1.2253 -0.4536  0.0898
    1SOL    HW310083   1.933   1.269   4.527 -0.7090  0.0509  0.6431
    1SOL    MW410084   1.918   1.304   4.448  0.3043 -0.1929  0.3338
    1SOL     OW10085   2.752   2.080   4.057 -0.0393 -0.2985 -0.2040
    1SOL    HW210086   2.725   2.033   4.136  0.0773 -1.9207 -1.1030
    1SOL    HW310087   2.745   2.015   3.987  0.6785  0.8798 -1.3952
    1SOL    MW410088   2.747   2.065   4.058  0.0706 -0.3569 -0.4807
    1SOL     OW10089   1.362   2.708   4.194  0.0699  0.3027 -0.2483
    1SOL    HW210090   1.306   2.752   4.257  0.2192 -1.3879  1.0827
    1SOL    HW310091   1.449   2.748   4.207 -0.2085  0.9639 -0.3954
    1SOL    MW410092   1.366   2.719   4.204  0.0529  0.1667 -0.0920
    1SOL     OW10093   2.018   3.667   4.322  0.0648  0.2768  0.0675
    1SOL    HW210094   1.958   3.603   4.282 -0.6719  0.4158  0.9424
    1SOL    HW310095   2.011   3.744   4.266  1.3690 -0.5769 -1.3112
    1SOL    MW410096   2.009   3.669   4.309  0.1400  0.1826  0.0010
    1SOL     OW10097   1.093   1.493   4.678 -0.0873  0.0942  0.0020
    1SOL    HW210098   1.140   1.553   4.620 -0.5267 -0.8542 -1.3436
    1SOL    HW310099   1.002   1.521   4.674 -0.2102 -0.3268 -0.2226
    1SOL    MW410100   1.087   1.505   4.670 -0.1614 -0.0864 -0.2050
    1SOL     OW10101   2.005   3.906   4.165  0.2415 -0.1002 -0.2974
    1SOL    HW210102   2.012   3.898   4.070 -2.0716 -1.0904 -0.4249
    1SOL    HW310103   1.932   3.966   4.179  0.9848  0.5600  0.8685
    1SOL    MW410104   1.997   3.912   4.155  0.0342 -0.1438 -0.1607
    1SOL     OW10105   1.301   4.238   4.153 -0.0953  0.1714 -0.4571
    1SOL    HW210106   1.308   4.229   4.058  0.2025 -1.3011 -0.3115
    1SOL    HW310107   1.331   4.154   4.187 -1.0962  0.3441  0.9056
    1SOL    MW410108   1.306   4.225   4.145 -0.1880  0.0005 -0.2580
    1SOL     OW10109   1.589   3.856   4.145  1.4518 -0.1564 -0.0823
    1SOL    HW210110   1.599   3.768   4.180  0.8330  0.3733  1.4736
    1SOL    HW310111   1.647   3.911   4.198  0.2803  0.7018  0.3531
    1SOL    MW410112   1.598   3.852   4.157  1.2156  0.0267  0.1802
    1SOL     OW10113   2.421   2.833   4.307  0.0071  0.3156 -0.4595
    1SOL    HW210114   2.423   2.923   4.273  1.6038  0.7953  0.8548
    1SOL    HW310115   2.366   2.786   4.245 -0.3456  2.0608 -1.5204
    1SOL    MW410116   2.414   2.839   4.294  0.1714  0.6094 -0.4263
    1SOL     OW10117   2.379   0.009   4.162 -0.2201 -0.0450  0.0339
    1SOL    HW210118   2.453   0.061   4.193 -1.6615  1.7125  0.5905
    1SOL    HW310119   2.302   0.053   4.197 -1.5991 -1.2384 -1.4093
    1SOL    MW410120   2.378   0.021   4.171 -0.5922  0.0294 -0.0825
    1SOL     OW10121   4.102   1.896   4.386  0.1519 -0.3443 -0.1517
    1SOL    HW210122   4.075   1.813   4.346  1.6609 -0.6122 -0.6774
    1SOL    HW310123   4.021   1.938   4.412 -0.6065 -2.5119  1.1878
    1SOL    MW410124   4.088   1.890   4.384  0.2513 -0.6657 -0.0439
    1SOL     OW10125   1.413   4.470   4.503  0.4882  0.3409  0.0136
    1SOL    HW210126   1.406   4.563   4.483  1.2681  0.2841 -0.5417
    1SOL    HW310127   1.440   4.429   4.420  0.0994 -0.3793  0.2393
    1SOL    MW410128   1.416   4.477   4.489  0.5397  0.2384 -0.0300
    1SOL     OW10129   2.479   0.826   4.138 -0.5418  0.0714  0.3586
    1SOL    HW210130   2.486   0.835   4.043  1.2706 -1.3108  0.3315
    1SOL    HW310131   2.565   0.855   4.171 -1.8568  2.5599  1.7541
    1SOL    MW410132   2.492   0.831   4.130 -0.4759  0.2174  0.5393
    1SOL     OW10133   3.773   3.080   4.626  0.1003 -0.4072 -0.1572
    1SOL    HW210134   3.780   2.987   4.607  0.0049 -0.1888 -1.3191
    1SOL    HW310135   3.863   3.112   4.627  0.1294 -0.4924  0.1797
    1SOL    MW410136   3.786   3.072   4.624  0.0916 -0.3896 -0.2656
    1SOL     OW10137   1.997   0.775   4.138 -0.2154 -0.7392  0.0671
    1SOL    HW210138   2.075   0.825   4.159 -0.0258 -0.5684 -0.9907
    1SOL    HW310139   2.015   0.687   4.172  0.1969 -0.5573  0.3237
    1SOL    MW410140   2.009   0.770   4.145 -0.1361 -0.6927 -0.0386
    1SOL     OW10141   0.484   2.428   4.224  0.3028  0.1547  0.3655
    1SOL    HW210142   0.512   2.444   4.314  0.3628  0.6039  0.2661
    1SOL    HW310143   0.448   2.512   4.195 -0.9294 -0.3482  0.4186
    1SOL    MW410144   0.483   2.441   4.232  0.1481  0.1476  0.3600
    1SOL     OW10145   0.286   1.290   4.241  0.4919 -0.4273  0.0055
    1SOL    HW210146   0.274   1.376   4.200  0.8916 -0.1312  0.5072
    1SOL    HW310147   0.356   1.250   4.190  1.6166  0.3018  0.9478
    1SOL    MW410148   0.294   1.296   4.229  0.6930 -0.2919  0.1960
    1SOL     OW10149   2.692   1.207   4.173  0.5819  0.0317  0.2422
    1SOL    HW210150   2.679   1.114   4.188  1.3474 -0.3584 -1.3665
    1SOL    HW310151   2.701   1.215   4.078  0.4292  1.7559  0.3561
    1SOL    MW410152   2.692   1.196   4.163  0.6628  0.2078  0.0453
    1SOL     OW10153   3.086   2.762   4.150  0.0143 -0.2444 -0.7241
    1SOL    HW210154   3.003   2.789   4.190  0.9939 -0.0511  1.2513
    1SOL    HW310155   3.095   2.670   4.174  0.4951 -0.1976 -0.7367
    1SOL    MW410156   3.076   2.753   4.158  0.2069 -0.2127 -0.4654
    1SOL     OW10157   0.387   4.285   4.154  0.0938 -0.1723  0.3090
    1SOL    HW210158   0.398   4.272   4.060 -0.2297  0.9995  0.1009
    1SOL    HW310159   0.340   4.368   4.162 -0.4360 -0.5665  1.4818
    1SOL    MW410160   0.382   4.294   4.143 -0.0188 -0.0696  0.4363
    1SOL     OW10161   0.973   1.991   4.561 -0.3577 -0.2867  0.0501
    1SOL    HW210162   0.910   2.046   4.515 -1.6941 -1.0276  0.9662
    1SOL    HW310163   0.976   1.910   4.509  0.0059 -0.1674 -0.1155
    1SOL    MW410164   0.965   1.988   4.548 -0.4860 -0.3687  0.1493
    1SOL     OW10165   2.957   1.484   4.329 -0.1424  0.3320 -0.2531
    1SOL    HW210166   3.046   1.519   4.323  0.1372 -0.3891 -0.4157
    1SOL    HW310167   2.925   1.512   4.414  0.3092  0.4519 -0.1222
    1SOL    MW410168   2.965   1.492   4.339 -0.0460  0.2526 -0.2570
    1SOL     OW10169   2.955   1.209   4.268 -0.0477  0.1349 -0.0060
    1SOL    HW210170   2.969   1.300   4.297 -0.4209  0.7710 -1.7554
    1SOL    HW310171   2.871   1.211   4.223  0.1155 -1.0226 -0.3687
    1SOL    MW410172   2.946   1.222   4.266 -0.0753  0.0660 -0.2851
    1SOL     OW10173   2.634   2.394   4.750  0.2682  0.0049  0.0461
    1SOL    HW210174   2.689   2.449   4.694  1.8503 -0.3133  1.2661
    1SOL    HW310175   2.692   2.323   4.778 -1.0053 -0.8069  0.6516
    1SOL    MW410176   2.649   2.392   4.746  0.3090 -0.1445  0.2866
    1SOL     OW10177   0.039   2.485   4.309  0.2820 -0.2173  0.1498
    1SOL    HW210178   0.079   2.535   4.380 -0.4052 -1.0869  1.1723
    1SOL    HW310179   0.110   2.429   4.277  0.7654  0.6332 -0.2792
    1SOL    MW410180   0.054   2.484   4.314  0.2551 -0.2201  0.2279
    1SOL     OW10181   3.992   3.277   4.271 -0.0126 -0.6684  0.5100
    1SOL    HW210182   4.055   3.219   4.228 -0.2861 -0.2307 -0.4802
    1SOL    HW310183   3.997   3.359   4.223 -1.6122 -0.7507  0.1905
    1SOL    MW410184   4.001   3.280   4.259 -0.2594 -0.6213  0.3376
    1SOL     OW10185   1.844   2.691   4.124  0.1706 -0.1681 -0.0284
    1SOL    HW210186   1.894   2.610   4.127 -1.6827 -1.3914 -1.1003
    1SOL    HW310187   1.813   2.697   4.033  1.2901  2.3727 -0.2888
    1SOL    MW410188   1.847   2.681   4.112  0.0737  0.0062 -0.2041
    1SOL     OW10189   0.774   2.936   4.485 -0.0704 -0.0748 -0.0404
    1SOL    HW210190   0.748   2.902   4.399 -1.1560  0.1749  0.1849
    1SOL    HW310191   0.706   2.905   4.544  0.1190  0.6295  0.5511
    1SOL    MW410192   0.762   2.927   4.481 -0.1886  0.0513  0.0672
    1SOL     OW10193   4.277   3.897   4.649 -0.2458  0.5917  0.2054
    1SOL    HW210194   4.331   3.871   4.723 -0.7903  1.4398  0.9126
    1SOL    HW310195   4.314   3.981   4.621  1.3800 -0.7930 -1.9320
    1SOL    MW410196   4.289   3.905   4.655 -0.1035  0.5207  0.0167
    1SOL     OW10197   2.404   3.339   4.629 -0.2736 -0.2654 -0.1081
    1SOL    HW210198   2.412   3.316   4.722 -0.3604 -0.8250 -0.2403
    1SOL    HW310199   2.324   3.295   4.600 -0.1977 -0.1639 -0.4721
    1SOL    MW410200   2.395   3.330   4.638 -0.2751 -0.3257 -0.1736
    1SOL     OW10201   2.235   4.015   4.306 -0.4556 -0.2095  0.1117
    1SOL    HW210202   2.301   3.976   4.249 -0.6888 -0.0562 -0.2705
    1SOL    HW310203   2.151   3.991   4.266 -0.5879  1.6451 -0.8115
    1SOL    MW410204   2.232   4.007   4.293 -0.5038  0.0553 -0.0606
    1SOL     OW10205   2.429   4.406   4.251  0.1255  0.2567 -0.2111
    1SOL    HW210206   2.415   4.406   4.346 -0.0525  0.2382 -0.2350
    1SOL    HW310207   2.397   4.491   4.222  1.5885  0.8578 -0.0654
    1SOL    MW410208   2.423   4.417   4.260  0.2954  0.3338 -0.1955
    1SOL     OW10209   2.653   0.727   4.607  0.3132 -0.2475  0.2396
    1SOL    HW210210   2.570   0.706   4.566  0.3383 -0.2430  0.1854
    1SOL    HW310211   2.664   0.821   4.593  1.1225 -0.5310 -1.2371
    1SOL    MW410212   2.644   0.737   4.599  0.4234 -0.2843  0.0377
    1SOL     OW10213   2.638   0.097   4.230 -0.4648 -0.1731  0.2514
    1SOL    HW210214   2.657   0.190   4.220 -0.4529 -0.2960 -0.9578
    1SOL    HW310215   2.721   0.053   4.211 -0.2481 -0.3877  1.6938
    1SOL    MW410216   2.651   0.104   4.226 -0.4349 -0.2176  0.2818
    1SOL     OW10217   1.797   3.756   4.495 -0.0594  0.0793  0.0721
    1SOL    HW210218   1.867   3.735   4.433  0.6008  0.2682  0.7427
    1SOL    HW310219   1.806   3.850   4.510 -1.5608  0.4331 -1.1686
    1SOL    MW410220   1.807   3.766   4.489 -0.1705  0.1509 -0.0029
    1SOL     OW10221   2.686   0.342   4.138 -0.2889  0.3978 -0.6096
    1SOL    HW210222   2.628   0.417   4.153  1.1979  1.5424 -0.4830
    1SOL    HW310223   2.693   0.336   4.043 -2.1776 -0.9889 -0.6914
    1SOL    MW410224   2.679   0.351   4.127 -0.3421  0.3659 -0.6032
    1SOL     OW10225   0.631   4.370   4.282 -0.2247  0.9826  0.2531
    1SOL    HW210226   0.551   4.335   4.242 -0.1517 -0.1873  1.1082
    1SOL    HW310227   0.629   4.339   4.372  0.9264  1.4064  0.4382
    1SOL    MW410228   0.620   4.361   4.289 -0.0631  0.8836  0.3905
    1SOL     OW10229   2.934   0.834   4.157 -0.0030  0.4244 -0.0195
    1SOL    HW210230   2.934   0.740   4.175  2.9378  0.4753  0.3562
    1SOL    HW310231   2.938   0.841   4.061 -1.0555  0.2015 -0.0908
    1SOL    MW410232   2.934   0.823   4.146  0.2460  0.4017  0.0210
    1SOL     OW10233   2.540   2.656   4.482  0.7744 -0.1547  0.0904
    1SOL    HW210234   2.503   2.728   4.430  1.7722  1.1230  1.1083
    1SOL    HW310235   2.494   2.578   4.451  0.3286  0.7824 -1.7007
    1SOL    MW410236   2.529   2.655   4.471  0.8473  0.1373 -0.0114
    1SOL     OW10237   2.546   3.937   4.685  0.1032  0.2006  0.2766
    1SOL    HW210238   2.458   3.955   4.652  0.2733  0.8578  0.1691
    1SOL    HW310239   2.533   3.919   4.778 -0.2025 -0.1888  0.1597
    1SOL    MW410240   2.533   3.937   4.693  0.0856  0.2360  0.2470
    1SOL     OW10241   2.389   3.601   4.518 -0.1576 -0.0336 -0.8324
    1SOL    HW210242   2.393   3.513   4.557 -0.2815  1.4659  2.8044
    1SOL    HW310243   2.301   3.632   4.539  0.8503  2.0370  0.4632
    1SOL    MW410244   2.378   3.594   4.526 -0.0408  0.4375 -0.1817
    1SOL     OW10245   3.118   1.229   4.627  0.0836 -0.4468 -0.0848
    1SOL    HW210246   3.024   1.221   4.606  0.2845 -0.3026 -1.0607
    1SOL    HW310247   3.122   1.220   4.722 -0.9330 -0.3914 -0.0302
    1SOL    MW410248   3.106   1.227   4.637 -0.0238 -0.4203 -0.2065
    1SOL     OW10249   0.046   3.541   4.583 -0.9491 -0.1083 -0.0289
    1SOL    HW210250   0.131   3.562   4.544 -2.4149  1.8149 -2.2838
    1SOL    HW310251   0.038   3.601   4.657  0.0680 -0.9787  0.8015
    1SOL    MW410252   0.056   3.552   4.587 -1.0083  0.0303 -0.2170
    1SOL     OW10253   3.497   3.108   4.485 -0.0724 -0.1448  0.5016
    1SOL    HW210254   3.570   3.091   4.544  0.0293 -0.8179  0.1879
    1SOL    HW310255   3.538   3.143   4.406 -0.0056 -1.2710  0.0246
    1SOL    MW410256   3.512   3.110   4.482 -0.0501 -0.3824  0.3972
    1SOL     OW10257   2.967   2.064   3.733 -0.1112 -0.0202 -0.0396
    1SOL    HW210258   2.878   2.029   3.739 -0.0294 -0.2842 -0.3388
    1SOL    HW310259   2.961   2.152   3.769 -0.3639 -0.2706  0.5364
    1SOL    MW410260   2.954   2.071   3.739 -0.1338 -0.0880 -0.0031
    1SOL     OW10261   0.349   4.357   4.637 -0.3845 -0.4800  0.4608
    1SOL    HW210262   0.278   4.409   4.600  1.0627 -0.0295 -1.8346
    1SOL    HW310263   0.320   4.266   4.629 -0.8412 -0.2794 -0.2109
    1SOL    MW410264   0.336   4.352   4.631 -0.2538 -0.3943  0.0696
    1SOL     OW10265   3.101   0.122   4.539  0.5048 -0.0610  0.2609
    1SOL    HW210266   3.020   0.173   4.542  0.0179 -0.7917 -0.6076
    1SOL    HW310267   3.150   0.152   4.616 -0.6340  0.2949  0.8568
    1SOL    MW410268   3.097   0.133   4.550  0.2904 -0.1105  0.2246
    1SOL     OW10269   0.119   2.612   4.558 -0.1957 -0.1182 -0.0330
    1SOL    HW210270   0.040   2.606   4.612  0.2065 -0.1924  0.5568
    1SOL    HW310271   0.168   2.532   4.579  0.1135  0.0124 -0.2653
    1SOL    MW410272   0.115   2.601   4.568 -0.1018 -0.1106  0.0138
    1SOL     OW10273   2.642   1.343   4.544  0.2456 -0.1733 -0.1754
    1SOL    HW210274   2.598   1.351   4.459  0.1143 -0.9080 -0.1833
    1SOL    HW310275   2.570   1.331   4.607  0.4160 -1.4519 -0.1962
    1SOL    MW410276   2.627   1.342   4.541  0.2511 -0.4389 -0.1793
    1SOL     OW10277   0.220   3.124   4.593 -0.3050  0.5510  0.2691
    1SOL    HW210278   0.293   3.184   4.582 -0.8337  0.6560 -3.2664
    1SOL    HW310279   0.255   3.038   4.568 -0.9410  0.2934  0.2480
    1SOL    MW410280   0.234   3.120   4.588 -0.4587  0.5310 -0.1998
    1SOL     OW10281   2.880   2.859   4.786  0.3309 -0.3782  0.0370
    1SOL    HW210282   2.842   2.829   4.704  1.3921 -1.8336  0.0623
    1SOL    HW310283   2.843   2.800   4.852  0.6924 -0.2077  0.3919
    1SOL    MW410284   2.870   2.847   4.784  0.5190 -0.5479  0.0877
    1SOL     OW10285   2.897   3.654   4.222  0.0496  0.1397  0.6488
    1SOL    HW210286   2.910   3.665   4.316  1.4119  0.4474  0.4327
    1SOL    HW310287   2.878   3.742   4.189  0.8621  0.2531  0.4558
    1SOL    MW410288   2.896   3.667   4.230  0.3369  0.1955  0.5951
    1SOL     OW10289   2.666   3.229   4.236  0.3612  0.2504 -0.0216
    1SOL    HW210290   2.674   3.312   4.188  0.6180  0.2751  0.0637
    1SOL    HW310291   2.752   3.188   4.227  0.0290 -0.3171 -0.6244
    1SOL    MW410292   2.678   3.235   4.228  0.3512  0.1788 -0.0896
    1SOL     OW10293   2.850   3.917   4.146 -0.0551  0.6956  0.0105
    1SOL    HW210294   2.786   3.952   4.208 -0.0122  1.9017 -0.6239
    1SOL    HW310295   2.933   3.954   4.174  0.2909 -0.4082  0.4781
    1SOL    MW410296   2.852   3.926   4.158 -0.0038  0.7093 -0.0110
    1SOL     OW10297   2.686   4.311   4.184 -0.0338 -0.0138  0.4656
    1SOL    HW210298   2.596   4.344   4.185  0.1136  0.3764  1.7826
    1SOL    HW310299   2.680   4.224   4.224  0.2346  0.1769  0.9187
    1SOL    MW410300   2.673   4.304   4.190  0.0212  0.0629  0.6990
    1SOL     OW10301   2.444   3.897   4.166  0.2771  0.2629  0.0827
    1SOL    HW210302   2.459   3.900   4.071  2.0901 -0.2917  0.3365
    1SOL    HW310303   2.474   3.810   4.191  0.0650  0.5187  1.2198
    1SOL    MW410304   2.449   3.886   4.157  0.4885  0.2234  0.2666
    1SOL     OW10305   2.895   4.423   4.284 -0.7538 -0.3169  0.1946
    1SOL    HW210306   2.810   4.389   4.255 -0.2051 -0.7459 -0.9510
    1SOL    HW310307   2.959   4.374   4.231  0.1260  1.0927 -0.0586
    1SOL    MW410308   2.892   4.412   4.273 -0.5658 -0.1874  0.0100
    1SOL     OW10309   3.371   0.016   4.194  0.2242  0.3948 -0.3239
    1SOL    HW210310   3.434   0.060   4.251  0.0441  0.6386 -0.3100
    1SOL    HW310311   3.288   0.063   4.210 -0.2026 -0.6242  0.4839
    1SOL    MW410312   3.368   0.028   4.204  0.1442  0.2925 -0.2155
    1SOL     OW10313   1.590   1.549   4.188  1.0019  0.0816 -0.1029
    1SOL    HW210314   1.643   1.583   4.260  1.3525  1.3821 -0.9388
    1SOL    HW310315   1.504   1.588   4.201  0.9991  0.1233 -0.2403
    1SOL    MW410316   1.586   1.559   4.199  1.0477  0.2587 -0.2313
    1SOL     OW10317   2.915   0.565   4.225  0.1080 -0.3405 -0.1497
    1SOL    HW210318   2.854   0.502   4.185 -1.8120  1.5988 -0.3754
    1SOL    HW310319   2.899   0.557   4.319 -1.6357  1.2471 -0.2894
    1SOL    MW410320   2.905   0.556   4.233 -0.3753  0.1248 -0.1979
    1SOL     OW10321   3.415   0.504   4.270 -0.2860  0.1212  0.5663
    1SOL    HW210322   3.410   0.480   4.363  1.4239 -1.5512  0.2609
    1SOL    HW310323   3.493   0.458   4.238 -0.7245  0.8714 -1.6490
    1SOL    MW410324   3.425   0.495   4.278 -0.1185 -0.0004  0.2332
    1SOL     OW10325   1.784   0.108   4.585  0.3760  0.8793  0.3291
    1SOL    HW210326   1.769   0.096   4.491 -0.8958 -1.3413  0.7848
    1SOL    HW310327   1.722   0.177   4.610  1.0677  1.8294 -0.5317
    1SOL    MW410328   1.773   0.116   4.576  0.2995  0.7117  0.2756
    1SOL     OW10329   4.096   4.492   4.695 -0.3511 -0.2517  0.1800
    1SOL    HW210330   4.058   4.407   4.672 -0.1664 -0.2354 -0.1966
    1SOL    HW310331   4.057   4.553   4.632 -0.3283 -0.0931  0.3187
    1SOL    MW410332   4.086   4.488   4.683 -0.3238 -0.2284  0.1483
    1SOL     OW10333   3.162   0.919   4.265 -0.2331  0.0506  0.0923
    1SOL    HW210334   3.084   0.883   4.224  0.4685  0.3663 -1.5638
    1SOL    HW310335   3.164   1.011   4.238 -1.2747  1.0234  3.1709
    1SOL    MW410336   3.152   0.926   4.256 -0.2780  0.2206  0.2799
    1SOL     OW10337   1.325   0.352   4.773  0.2289 -0.0316  0.2663
    1SOL    HW210338   1.235   0.377   4.753  0.0926 -1.4663 -0.9708
    1SOL    HW310339   1.348   0.404   4.850 -1.9176 -0.1995  1.0451
    1SOL    MW410340   1.316   0.362   4.781 -0.0724 -0.2430  0.2060
    1SOL     OW10341   2.870   3.041   4.458 -0.1433  0.1196 -0.0969
    1SOL    HW210342   2.868   3.059   4.364 -0.6803 -0.8976 -0.2885
    1SOL    HW310343   2.818   3.111   4.496  0.9108  1.1142 -0.4487
    1SOL    MW410344   2.863   3.053   4.450 -0.0749  0.1166 -0.1688
    1SOL     OW10345   2.580   1.650   4.194  0.2572  0.1671 -0.5212
    1SOL    HW210346   2.675   1.653   4.187  0.3677 -1.5691  0.0552
    1SOL    HW310347   2.550   1.634   4.105  0.6115 -1.1953 -0.4053
    1SOL    MW410348   2.589   1.648   4.181  0.3185 -0.2416 -0.4301
    1SOL     OW10349   2.301   0.354   4.580  0.3521 -0.5167 -0.3354
    1SOL    HW210350   2.205   0.359   4.583  0.3658 -0.5479  0.4408
    1SOL    HW310351   2.321   0.263   4.597  0.5583 -0.2202  1.0838
    1SOL    MW410352   2.291   0.343   4.583  0.3810 -0.4817 -0.0458
    1SOL     OW10353   2.320   2.269   3.993 -0.1861  0.3671  0.2849
    1SOL    HW210354   2.412   2.288   3.976 -0.1640 -0.7113 -0.8575
    1SOL    HW310355   2.300   2.319   4.072  1.6217 -0.0779  1.0716
    1SOL    MW410356   2.330   2.278   4.001  0.0551  0.1659  0.2379
    1SOL     OW10357   3.760   0.751   4.608  0.0547 -0.0961 -0.0155
    1SOL    HW210358   3.805   0.832   4.585  0.8050 -0.6898 -0.6642
    1SOL    HW310359   3.668   0.777   4.621  0.6155  1.1819  1.6345
    1SOL    MW410360   3.754   0.765   4.607  0.2279 -0.0058  0.1168
    1SOL     OW10361   3.315   1.633   4.564  0.1549  0.0622 -0.3606
    1SOL    HW210362   3.344   1.543   4.554  0.0039  0.0559 -0.7634
    1SOL    HW310363   3.393   1.686   4.550 -0.0800  0.0574 -1.7184
    1SOL    MW410364   3.329   1.628   4.561  0.1040  0.0608 -0.5927
    1SOL     OW10365   3.340   2.372   4.164  0.4637 -0.2736 -0.0724
    1SOL    HW210366   3.258   2.416   4.186  1.3905  1.5320 -0.1529
    1SOL    HW310367   3.349   2.384   4.070  1.4029  0.5968  0.1139
    1SOL    MW410368   3.330   2.380   4.155  0.7098  0.0794 -0.0587
    1SOL     OW10369   2.244   4.236   4.126 -0.1870 -0.1655  0.6335
    1SOL    HW210370   2.253   4.166   4.191 -0.1357 -0.5673  0.1965
    1SOL    HW310371   2.306   4.303   4.154 -0.4866 -0.1427  1.2532
    1SOL    MW410372   2.253   4.236   4.138 -0.2198 -0.2151  0.6576
    1SOL     OW10373   3.352   3.106   4.117  0.1134  0.1096 -0.4443
    1SOL    HW210374   3.274   3.148   4.152  1.4640  2.8672 -0.5756
    1SOL    HW310375   3.352   3.019   4.155 -1.4940  1.0600  1.8355
    1SOL    MW410376   3.342   3.100   4.126  0.0796  0.5989 -0.1607
    1SOL     OW10377   2.435   3.085   4.175  0.0258  0.0675  0.4273
    1SOL    HW210378   2.513   3.126   4.213  0.5665  0.4416 -1.0307
    1SOL    HW310379   2.367   3.153   4.180 -0.5502 -0.6503  2.7515
    1SOL    MW410380   2.436   3.100   4.181  0.0210  0.0222  0.5412
    1SOL     OW10381   3.401   3.637   4.245  0.8690 -0.0970 -0.1027
    1SOL    HW210382   3.317   3.592   4.238 -0.2706  1.9771 -0.3489
    1SOL    HW310383   3.417   3.645   4.339  0.8805 -0.6661 -0.0586
    1SOL    MW410384   3.392   3.632   4.256  0.7200  0.1013 -0.1297
    1SOL     OW10385   3.586   3.457   4.140 -0.3938  0.2648 -0.0266
    1SOL    HW210386   3.577   3.370   4.180 -2.4676  0.0168 -0.9518
    1SOL    HW310387   3.519   3.510   4.182  0.3524  1.2286 -0.0277
    1SOL    MW410388   3.576   3.452   4.150 -0.5686  0.3595 -0.1483
    1SOL     OW10389   3.370   3.876   4.111  0.2569 -0.5489 -0.5593
    1SOL    HW210390   3.365   3.788   4.148 -0.9095 -0.1346  0.3490
    1SOL    HW310391   3.383   3.863   4.017  0.8208 -1.6736 -0.3300
    1SOL    MW410392   3.371   3.863   4.104  0.1774 -0.6425 -0.4091
    1SOL     OW10393   4.468   2.715   4.149 -0.1421 -0.1078 -0.2558
    1SOL    HW210394   4.401   2.754   4.204 -1.2448 -0.6591 -1.2032
    1SOL    HW310395   4.487   2.630   4.191  0.5678  0.3951  0.4682
    1SOL    MW410396   4.462   2.709   4.162 -0.1941 -0.1142 -0.2847
    1SOL     OW10397   4.479   0.865   4.212 -0.4123  0.2179  0.3428
    1SOL    HW210398   4.500   0.859   4.305 -1.0282  1.1962  0.5510
    1SOL    HW310399   4.494   0.957   4.190 -1.1511  0.1890 -0.3050
    1SOL    MW410400   4.484   0.876   4.221 -0.5918  0.3433  0.2842
    1SOL     OW10401   3.552   4.261   4.099 -0.5876  0.4675  0.0308
    1SOL    HW210402   3.485   4.308   4.149 -1.8273 -0.7026 -0.4896
    1SOL    HW310403   3.558   4.175   4.142  0.9658  0.7370  0.3891
    1SOL    MW410404   3.544   4.256   4.111 -0.5462  0.3481  0.0091
    1SOL     OW10405   3.819   4.604   4.183  0.2332 -0.4207  0.1771
    1SOL    HW210406   3.816   4.509   4.197 -1.5127 -0.4081 -0.1108
    1SOL    HW310407   3.820   4.614   4.087 -0.0225 -0.1258  0.2075
    1SOL    MW410408   3.819   4.593   4.172 -0.0308 -0.3800  0.1431
    1SOL     OW10409   2.612   1.937   4.245  0.1821  0.0194  0.2148
    1SOL    HW210410   2.587   1.850   4.214  0.3971  0.7132 -1.9599
    1SOL    HW310411   2.535   1.991   4.228  1.3520  1.0637 -1.8768
    1SOL    MW410412   2.598   1.932   4.239  0.3648  0.2487 -0.3481
    1SOL     OW10413   3.653   0.365   4.175 -0.1052 -0.4932 -0.4609
    1SOL    HW210414   3.726   0.416   4.210 -1.0797 -0.4332  1.5354
    1SOL    HW310415   3.660   0.376   4.080  1.3974  1.0068 -0.2051
    1SOL    MW410416   3.663   0.374   4.167 -0.0358 -0.2874 -0.1640
    1SOL     OW10417   4.069   0.329   4.168  0.1801 -0.0621 -0.0615
    1SOL    HW210418   4.064   0.257   4.231 -0.6201  0.1867  0.1665
    1SOL    HW310419   4.008   0.394   4.201 -1.4447 -0.5829 -1.9494
    1SOL    MW410420   4.060   0.328   4.181 -0.1392 -0.0980 -0.2809
    1SOL     OW10421   1.536   3.648   4.513 -0.0936  0.2177 -0.4229
    1SOL    HW210422   1.629   3.668   4.523 -0.0952 -0.2832  0.6470
    1SOL    HW310423   1.493   3.734   4.511  0.0404  0.3912  2.6967
    1SOL    MW410424   1.543   3.662   4.514 -0.0762  0.1745  0.1302
    1SOL     OW10425   2.356   0.032   4.543  0.2498 -0.0378  0.1342
    1SOL    HW210426   2.433   0.085   4.521  0.6900 -0.5060  0.5055
    1SOL    HW310427   2.388  -0.059   4.538 -0.2753 -0.2327  0.3014
    1SOL    MW410428   2.371   0.027   4.539  0.2387 -0.1253  0.2050
    1SOL     OW10429   2.082   2.141   4.158 -0.0187 -0.2846  0.1369
    1SOL    HW210430   2.091   2.205   4.087 -0.1462  0.3089  0.6487
    1SOL    HW310431   2.141   2.174   4.227 -0.0543 -0.7389  0.3825
    1SOL    MW410432   2.091   2.154   4.158 -0.0403 -0.2666  0.2370
    1SOL     OW10433   4.382   2.639   4.711 -0.2213 -0.1140  0.0348
    1SOL    HW210434   4.338   2.649   4.796 -1.6820  0.6267 -0.7839
    1SOL    HW310435   4.357   2.717   4.662  0.2390 -0.7613 -1.2468
    1SOL    MW410436   4.373   2.650   4.716 -0.3529 -0.1018 -0.2422
    1SOL     OW10437   4.172   2.264   4.138  0.0013  0.3287 -0.7479
    1SOL    HW210438   4.221   2.278   4.219  1.1517 -0.5660 -1.2861
    1SOL    HW310439   4.147   2.172   4.141 -1.6095  0.7541 -0.5156
    1SOL    MW410440   4.175   2.254   4.149 -0.0596  0.2668 -0.7882
    1SOL     OW10441   3.422   1.563   4.161  0.3452  0.3071 -0.0727
    1SOL    HW210442   3.339   1.598   4.194  0.1752  1.0878 -1.2720
    1SOL    HW310443   3.412   1.564   4.066  0.7774 -1.9876 -0.1770
    1SOL    MW410444   3.410   1.568   4.153  0.3798  0.1073 -0.2451
    1SOL     OW10445   3.582   1.948   4.159 -0.3953  0.2505  0.2735
    1SOL    HW210446   3.604   1.866   4.204  2.1679  0.1976 -0.9531
    1SOL    HW310447   3.500   1.976   4.199 -0.2345 -1.8222  2.1941
    1SOL    MW410448   3.574   1.941   4.170 -0.0360 -0.0299  0.3653
    1SOL     OW10449   1.905   1.617   4.886 -0.0584  0.5717 -0.7237
    1SOL    HW210450   1.998   1.637   4.883  0.1783 -0.0812  1.5036
    1SOL    HW310451   1.899   1.525   4.863  0.1053 -0.0330  1.5923
    1SOL    MW410452   1.916   1.608   4.883 -0.0056  0.4058 -0.1245
    1SOL     OW10453   0.744   4.501   4.652  0.4331 -0.0630 -0.2082
    1SOL    HW210454   0.745   4.586   4.609  0.8774 -0.2506 -0.5625
    1SOL    HW310455   0.689   4.515   4.730  0.3853  0.5060 -0.3407
    1SOL    MW410456   0.737   4.514   4.657  0.4854 -0.0129 -0.2723
    1SOL     OW10457   3.551   2.495   4.286 -0.3142  0.2083 -0.1657
    1SOL    HW210458   3.560   2.574   4.232  1.2951  0.0188 -0.2024
    1SOL    HW310459   3.469   2.455   4.256 -0.1908  0.8795 -1.4541
    1SOL    MW410460   3.541   2.500   4.275 -0.0854  0.2720 -0.3400
    1SOL     OW10461   3.810   2.097   4.096 -0.2749 -0.6160  0.0333
    1SOL    HW210462   3.732   2.046   4.118 -1.7900  0.5881 -2.3030
    1SOL    HW310463   3.786   2.188   4.117  1.2631 -0.4658  1.2501
    1SOL    MW410464   3.797   2.103   4.102 -0.2718 -0.4373 -0.1144
    1SOL     OW10465   1.796   4.046   4.521 -0.3888  0.2367  0.3110
    1SOL    HW210466   1.713   4.086   4.546  0.4508  0.7866  2.3479
    1SOL    HW310467   1.861   4.116   4.531  0.6939 -0.8683  1.3460
    1SOL    MW410468   1.794   4.061   4.526 -0.1352  0.1636  0.7162
    1SOL     OW10469   3.837   3.093   4.134  0.1994 -0.1756  0.2187
    1SOL    HW210470   3.879   3.170   4.172  0.2641 -0.0014 -0.2016
    1SOL    HW310471   3.848   3.104   4.039 -0.5872 -0.2419  0.1116
    1SOL    MW410472   3.844   3.105   4.126  0.1042 -0.1614  0.1493
    1SOL     OW10473   3.797   4.315   4.240 -0.2160  0.3886  0.2542
    1SOL    HW210474   3.724   4.283   4.187 -0.2928  2.1169 -0.7144
    1SOL    HW310475   3.771   4.297   4.331 -0.5121 -1.6963 -0.2040
    1SOL    MW410476   3.784   4.308   4.245 -0.2651  0.3424  0.0658
    1SOL     OW10477   3.587   3.183   4.242  0.0785 -0.1962  0.5314
    1SOL    HW210478   3.516   3.144   4.192  0.4170  0.0263 -0.1192
    1SOL    HW310479   3.667   3.145   4.205  0.3513  0.2952  0.6069
    1SOL    MW410480   3.588   3.173   4.231  0.1593 -0.1020  0.4559
    1SOL     OW10481   1.254   2.388   4.530  0.1815  0.0627  0.4015
    1SOL    HW210482   1.341   2.391   4.570  0.2373  2.8040  0.1467
    1SOL    HW310483   1.270   2.375   4.437  0.4352  2.4744  0.0799
    1SOL    MW410484   1.267   2.386   4.523  0.2223  0.7427  0.3257
    1SOL     OW10485   4.001   2.684   4.578 -0.2669  0.1219  0.0031
    1SOL    HW210486   4.067   2.750   4.599 -0.0386 -0.1674  0.1825
    1SOL    HW310487   3.931   2.734   4.535  0.2932  0.3515 -0.6640
    1SOL    MW410488   4.000   2.699   4.575 -0.1626  0.1140 -0.0610
    1SOL     OW10489   1.351   3.488   4.162 -0.1338 -0.3071 -0.2634
    1SOL    HW210490   1.348   3.478   4.067 -1.7804 -1.0122 -0.1614
    1SOL    HW310491   1.349   3.399   4.196 -0.4154 -0.0358  0.4498
    1SOL    MW410492   1.350   3.475   4.154 -0.3884 -0.3643 -0.1554
    1SOL     OW10493   3.091   4.289   4.131 -0.1491  0.3148  0.1665
    1SOL    HW210494   3.106   4.198   4.159 -0.3673  0.3485  0.3890
    1SOL    HW310495   3.165   4.337   4.168  0.9436 -0.0720 -1.4321
    1SOL    MW410496   3.103   4.283   4.139 -0.0339  0.2680 -0.0148
    1SOL     OW10497   0.199   1.108   4.782 -0.4688 -0.2344 -0.2433
    1SOL    HW210498   0.157   1.194   4.782 -0.4304 -0.2061 -1.1677
    1SOL    HW310499   0.128   1.046   4.766 -0.4157 -0.3309 -0.1126
    1SOL    MW410500   0.184   1.111   4.780 -0.4567 -0.2434 -0.3481
    1SOL     OW10501   4.366   4.443   4.522 -0.5685 -0.2423 -0.1423
    1SOL    HW210502   4.326   4.419   4.438 -0.4090  1.4819 -0.7351
    1SOL    HW310503   4.308   4.512   4.557  1.7216  2.1364 -0.9098
    1SOL    MW410504   4.353   4.449   4.515 -0.2451  0.2990 -0.3219
    1SOL     OW10505   4.333   2.307   4.396 -0.5906  0.4411 -0.3425
    1SOL    HW210506   4.279   2.362   4.453  0.3767  0.6192  0.4134
    1SOL    HW310507   4.394   2.369   4.354 -0.8375  0.2168 -1.0425
    1SOL    MW410508   4.334   2.323   4.398 -0.4950  0.4351 -0.3347
    1SOL     OW10509   2.897   4.283   4.536  0.7433 -0.0872  0.6000
    1SOL    HW210510   2.915   4.324   4.451  0.6244  1.2946  1.2398
    1SOL    HW310511   2.806   4.253   4.529 -0.2307  2.5968  1.2539
    1SOL    MW410512   2.887   4.284   4.524  0.5991  0.4497  0.7701
    1SOL     OW10513   0.426   1.040   4.613 -0.2595 -0.1168 -0.2348
    1SOL    HW210514   0.374   0.974   4.568 -0.4417 -0.3142  0.2628
    1SOL    HW310515   0.368   1.075   4.680 -0.7640  1.8031 -1.6063
    1SOL    MW410516   0.412   1.036   4.616 -0.3501  0.1104 -0.3500
    1SOL     OW10517   4.446   0.600   4.635 -0.2432  0.2681 -0.6556
    1SOL    HW210518   4.394   0.526   4.602  0.2007 -0.7364  0.8446
    1SOL    HW310519   4.386   0.650   4.690 -0.0857  0.0604 -0.2932
    1SOL    MW410520   4.431   0.597   4.638 -0.1636  0.1082 -0.4106
    1SOL     OW10521   4.411   0.226   4.688 -0.0858 -0.1643 -0.1535
    1SOL    HW210522   4.467   0.181   4.625  1.2426 -0.2327  1.0601
    1SOL    HW310523   4.349   0.275   4.633  0.1339 -1.3543 -1.4930
    1SOL    MW410524   4.410   0.227   4.672  0.1187 -0.3303 -0.1698
    1SOL     OW10525   4.100   1.173   4.132  0.1169 -0.2020  0.3935
    1SOL    HW210526   4.032   1.232   4.165 -1.4564 -0.7592 -1.7270
    1SOL    HW310527   4.082   1.089   4.173 -0.0139 -0.1650  0.4112
    1SOL    MW410528   4.089   1.170   4.142 -0.1078 -0.2705  0.1159
    1SOL     OW10529   3.129   0.650   4.512  0.5875  0.2357 -0.0750
    1SOL    HW210530   3.149   0.743   4.523  0.0797  0.4051 -0.6015
    1SOL    HW310531   3.202   0.605   4.555  0.6740  0.8755  0.4530
    1SOL    MW410532   3.141   0.656   4.519  0.5319  0.3424 -0.0749
    1SOL     OW10533   1.703   0.909   4.492  0.4118 -0.6807 -0.3993
    1SOL    HW210534   1.788   0.925   4.534  0.0747 -0.4802  0.2163
    1SOL    HW310535   1.661   0.995   4.490 -0.0923 -0.9135  0.0106
    1SOL    MW410536   1.709   0.922   4.497  0.3009 -0.6849 -0.2637
    1SOL     OW10537   1.928   0.618   4.454  0.4928  0.2381 -0.3331
    1SOL    HW210538   1.997   0.590   4.393 -0.3208 -0.1603 -1.0831
    1SOL    HW310539   1.936   0.713   4.458  0.4008  0.2842 -1.2483
    1SOL    MW410540   1.938   0.626   4.447  0.3732  0.1916 -0.5527
    1SOL     OW10541   1.023   4.542   4.662  0.0366  0.5164 -0.2398
    1SOL    HW210542   1.031   4.629   4.623 -2.1819  0.1267 -1.6738
    1SOL    HW310543   0.929   4.531   4.676  0.3294 -1.5050  0.2569
    1SOL    MW410544   1.012   4.552   4.658 -0.2174  0.1984 -0.3633
    1SOL     OW10545   3.856   0.507   4.265 -0.0377 -0.0665 -0.2183
    1SOL    HW210546   3.839   0.597   4.238 -1.2757 -0.6385 -1.4491
    1SOL    HW310547   3.850   0.508   4.361 -0.6388  1.0457 -0.2652
    1SOL    MW410548   3.853   0.519   4.274 -0.2806  0.0048 -0.3867
    1SOL     OW10549   3.760   2.375   4.174 -0.2107  0.2735  0.1456
    1SOL    HW210550   3.755   2.383   4.078 -1.2269 -0.2890  0.1460
    1SOL    HW310551   3.678   2.413   4.205 -0.4498 -0.6882  0.7132
    1SOL    MW410552   3.748   2.381   4.165 -0.3762  0.0725  0.2208
    1SOL     OW10553   4.024   3.527   4.133 -0.0015  0.1211 -0.0109
    1SOL    HW210554   4.033   3.508   4.040  0.3085  0.5302 -0.0663
    1SOL    HW310555   4.107   3.570   4.156 -0.2502  0.4027  0.3572
    1SOL    MW410556   4.036   3.530   4.124  0.0067  0.2122  0.0305
    1SOL     OW10557   4.006   2.480   4.224  0.5841  0.2068 -0.4299
    1SOL    HW210558   3.916   2.452   4.206  0.3333  1.5380 -1.3102
    1SOL    HW310559   4.061   2.412   4.186 -0.0452 -0.1228 -0.7531
    1SOL    MW410560   4.001   2.468   4.217  0.4683  0.3390 -0.5889
    1SOL     OW10561   1.403   3.166   4.504 -0.0719 -0.1859  0.4587
    1SOL    HW210562   1.414   3.252   4.544 -0.7812  0.0547  0.1330
    1SOL    HW310563   1.311   3.145   4.517  0.0919 -0.8876  0.5158
    1SOL    MW410564   1.393   3.174   4.511 -0.1440 -0.2463  0.4230
    1SOL     OW10565   3.647   0.347   4.687  0.5709 -0.0324  0.4544
    1SOL    HW210566   3.667   0.261   4.650 -0.6517  0.2450 -0.9006
    1SOL    HW310567   3.713   0.405   4.649  1.2704 -0.3256  1.2098
    1SOL    MW410568   3.658   0.343   4.677  0.5021 -0.0345  0.3753
    1SOL     OW10569   3.786   3.642   4.224  0.6295 -0.0007 -0.0194
    1SOL    HW210570   3.725   3.572   4.203 -0.9407  1.7235 -1.3882
    1SOL    HW310571   3.869   3.616   4.183 -0.1116 -0.7456 -1.0439
    1SOL    MW410572   3.789   3.630   4.216  0.3245  0.1285 -0.3352
    1SOL     OW10573   2.137   1.593   4.189 -0.0043  0.4820  0.4272
    1SOL    HW210574   2.130   1.560   4.099  2.2905 -0.3822  0.5301
    1SOL    HW310575   2.178   1.680   4.179  0.0729  0.4665  0.6088
    1SOL    MW410576   2.142   1.600   4.176  0.3085  0.3660  0.4644
    1SOL     OW10577   4.249   3.635   4.255 -0.2830 -0.1475 -0.2976
    1SOL    HW210578   4.330   3.590   4.229 -0.3240 -0.1418 -0.4338
    1SOL    HW310579   4.246   3.624   4.350 -0.3319 -0.5041 -0.3384
    1SOL    MW410580   4.260   3.627   4.264 -0.2947 -0.1936 -0.3209
    1SOL     OW10581   0.458   4.053   4.319 -0.2514 -0.2749  0.2843
    1SOL    HW210582   0.448   4.140   4.281  2.4342  0.5249  1.2854
    1SOL    HW310583   0.526   4.011   4.267  1.3044 -0.2657  2.2125
    1SOL    MW410584   0.466   4.059   4.307  0.3082 -0.1688  0.6714
    1SOL     OW10585   0.500   4.570   4.815 -0.1186 -0.1963  0.0411
    1SOL    HW210586   0.444   4.508   4.766 -0.4351  0.6585 -0.7011
    1SOL    HW310587   0.471   4.561   4.906 -1.3783  0.1262 -0.3105
    1SOL    MW410588   0.489   4.561   4.820 -0.3265 -0.0410 -0.1035
    1SOL     OW10589   3.824   3.911   4.141 -0.0997 -0.4205  0.2813
    1SOL    HW210590   3.904   3.943   4.184 -0.0175 -0.2221 -0.0219
    1SOL    HW310591   3.816   3.820   4.171  0.4926 -0.5823 -0.0540
    1SOL    MW410592   3.833   3.903   4.151 -0.0107 -0.4158  0.1969
    1SOL     OW10593   2.558   0.198   4.472  0.1811 -0.3851 -0.2228
    1SOL    HW210594   2.585   0.158   4.389  0.3623 -0.6920 -0.0186
    1SOL    HW310595   2.551   0.291   4.453 -1.8632 -0.6895 -1.1568
    1SOL    MW410596   2.560   0.205   4.458 -0.0648 -0.4658 -0.3185
    1SOL     OW10597   3.775   2.812   4.499 -0.4775 -0.5899 -0.5536
    1SOL    HW210598   3.780   2.816   4.404 -2.3689 -2.8508 -0.7841
    1SOL    HW310599   3.706   2.748   4.517 -0.4462  0.1234  2.3353
    1SOL    MW410600   3.767   2.804   4.489 -0.7226 -0.7939 -0.2027
    1SOL     OW10601   2.181   1.738   4.796  0.0905 -0.7984  0.9097
    1SOL    HW210602   2.231   1.820   4.797 -0.2227 -0.6096  1.2670
    1SOL    HW310603   2.143   1.735   4.708  0.7780 -0.9749  0.6170
    1SOL    MW410604   2.182   1.749   4.784  0.1397 -0.7968  0.9184
    1SOL     OW10605   4.347   2.031   4.447  0.3125 -0.1148 -0.1180
    1SOL    HW210606   4.332   2.123   4.426 -0.7051 -0.3786 -0.6006
    1SOL    HW310607   4.262   1.989   4.431  0.4113 -0.9051  1.4037
    1SOL    MW410608   4.333   2.038   4.442  0.1917 -0.2539  0.0196
    1SOL     OW10609   4.061   0.055   4.272  0.2591  0.4134  0.2906
    1SOL    HW210610   4.043   0.059   4.366 -1.9362  3.1927 -0.1595
    1SOL    HW310611   3.984   0.012   4.235  0.3366  0.8706 -0.4082
    1SOL    MW410612   4.048   0.050   4.280 -0.0200  0.8404  0.1392
    1SOL     OW10613   1.043   2.878   4.544 -0.1591  0.6210 -0.1060
    1SOL    HW210614   1.044   2.782   4.542 -1.8554  0.5459  1.0170
    1SOL    HW310615   0.951   2.901   4.536  0.1375  2.1193  0.5646
    1SOL    MW410616   1.031   2.868   4.543 -0.3438  0.8092  0.1307
    1SOL     OW10617   1.981   0.894   4.608  0.0478  0.0679  0.2353
    1SOL    HW210618   2.070   0.881   4.574  0.2699 -2.9953  1.7736
    1SOL    HW310619   1.990   0.965   4.671  1.7106 -1.0705  1.3354
    1SOL    MW410620   1.994   0.901   4.612  0.2965 -0.4864  0.5832
    1SOL     OW10621   1.844   3.142   4.538 -0.0813  0.5090 -0.0872
    1SOL    HW210622   1.917   3.081   4.523 -0.1038  0.5683 -0.4435
    1SOL    HW310623   1.826   3.179   4.452  0.7232  1.9091  0.3312
    1SOL    MW410624   1.851   3.139   4.525  0.0219  0.7017 -0.0792
    1SOL     OW10625   0.249   1.541   4.157 -0.0912  0.3050 -0.4021
    1SOL    HW210626   0.176   1.575   4.209  0.4392  0.7962  0.0276
    1SOL    HW310627   0.326   1.585   4.193  0.5151 -0.8401 -0.3121
    1SOL    MW410628   0.249   1.552   4.169  0.0588  0.2189 -0.3338
    1SOL     OW10629   4.293   4.189   4.629  0.0629  0.2289  0.3329
    1SOL    HW210630   4.213   4.212   4.677  0.3124  0.4008  0.6647
    1SOL    HW310631   4.314   4.267   4.579  1.6109  1.1757  2.4155
    1SOL    MW410632   4.285   4.202   4.629  0.3004  0.3762  0.6518
    1SOL     OW10633   0.161   1.634   4.533 -0.4186  0.0863 -0.1300
    1SOL    HW210634   0.254   1.657   4.533 -0.5266  0.5752  1.2129
    1SOL    HW310635   0.116   1.718   4.546 -1.0014 -0.2746  0.2133
    1SOL    MW410636   0.167   1.648   4.535 -0.5097  0.1032  0.0920
    1SOL     OW10637   0.587   1.444   4.608 -0.3949  0.4236 -0.4907
    1SOL    HW210638   0.643   1.389   4.554  0.0944  0.8624 -0.4380
    1SOL    HW310639   0.503   1.398   4.612 -0.2239  0.0637 -1.0730
    1SOL    MW410640   0.583   1.431   4.601 -0.3077  0.4340 -0.5608
    1SOL     OW10641   0.007   1.939   4.217 -0.1697  0.1609 -0.5209
    1SOL    HW210642   0.018   1.845   4.230  1.0628  0.5264  1.2747
    1SOL    HW310643  -0.041   1.969   4.294  2.6060  1.5448  0.7464
    1SOL    MW410644   0.002   1.930   4.229  0.3591  0.3916 -0.1163
    1SOL     OW10645   2.290   3.974   4.566 -0.0738 -0.9446 -0.1552
    1SOL    HW210646   2.259   3.989   4.477 -1.4171 -0.4183  0.3818
    1SOL    HW310647   2.236   3.902   4.599  0.7766 -1.4930  0.0570
    1SOL    MW410648   2.278   3.966   4.558 -0.1388 -0.9477 -0.0563
    1SOL     OW10649   3.719   0.060   4.557  0.2784 -0.5050  0.1288
    1SOL    HW210650   3.660  -0.013   4.578  1.2454 -1.2576  0.2282
    1SOL    HW310651   3.708   0.072   4.463 -0.9085  0.1310  0.3303
    1SOL    MW410652   3.710   0.052   4.548  0.2494 -0.5204  0.1683
    1SOL     OW10653   0.449   3.527   4.174  0.1130  0.0968  0.1554
    1SOL    HW210654   0.534   3.566   4.196 -0.1129  0.4944  0.3305
    1SOL    HW310655   0.455   3.508   4.080  0.3896  0.1359  0.1638
    1SOL    MW410656   0.461   3.530   4.164  0.1197  0.1545  0.1793
    1SOL     OW10657   3.366   1.350   4.521 -0.0671  0.0362 -0.0582
    1SOL    HW210658   3.376   1.333   4.428  0.2070 -1.6706  0.2684
    1SOL    HW310659   3.302   1.285   4.551 -0.6890  1.0253  0.8111
    1SOL    MW410660   3.359   1.339   4.513 -0.1130 -0.0585  0.0992
    1SOL     OW10661   0.048   0.426   4.821  0.0036  0.2302  0.4393
    1SOL    HW210662  -0.004   0.352   4.790  0.5816 -0.2232  0.5359
    1SOL    HW310663   0.023   0.499   4.764 -1.5871  0.3128  1.2370
    1SOL    MW410664   0.038   0.426   4.809 -0.1300  0.1812  0.5574
    1SOL     OW10665   3.422   0.492   4.558  0.1335 -0.3856  0.5694
    1SOL    HW210666   3.496   0.441   4.591  0.9419  0.3392 -0.1038
    1SOL    HW310667   3.450   0.583   4.566 -1.2860 -0.0317  1.7293
    1SOL    MW410668   3.436   0.497   4.563  0.0532 -0.2433  0.6332
    1SOL     OW10669   0.456   1.687   4.562 -0.1669 -0.0042 -0.2489
    1SOL    HW210670   0.482   1.598   4.584 -1.3634 -0.0759  0.9001
    1SOL    HW310671   0.486   1.699   4.472 -1.6518 -2.1909 -1.0648
    1SOL    MW410672   0.464   1.677   4.553 -0.5206 -0.3021 -0.2050
    1SOL     OW10673   0.213   3.931   4.194 -0.7273  0.0581 -0.0661
    1SOL    HW210674   0.290   3.971   4.235 -0.3295 -0.1934 -0.5621
    1SOL    HW310675   0.139   3.978   4.232 -0.3472  0.0606  0.6873
    1SOL    MW410676   0.213   3.942   4.205 -0.6247  0.0253 -0.0319
    1SOL     OW10677   2.152   1.138   4.125 -0.1146 -0.4846  0.6718
    1SOL    HW210678   2.191   1.197   4.190  0.1593 -0.6570  0.6668
    1SOL    HW310679   2.059   1.157   4.128  0.1128  0.8330 -0.2252
    1SOL    MW410680   2.145   1.148   4.134 -0.0486 -0.3335  0.5531
    1SOL     OW10681   1.006   4.083   4.497  0.4700  0.0773 -0.0645
    1SOL    HW210682   0.988   4.073   4.404  1.9534 -1.6829 -0.1809
    1SOL    HW310683   1.053   4.166   4.504  1.0318 -0.1605 -0.9849
    1SOL    MW410684   1.010   4.093   4.486  0.7398 -0.1864 -0.2017
    1SOL     OW10685   4.271   3.631   4.524  0.4300  0.2349  0.0105
    1SOL    HW210686   4.274   3.719   4.562 -0.3269 -0.0353  0.7055
    1SOL    HW310687   4.360   3.597   4.537  0.2596  0.2502  1.3190
    1SOL    MW410688   4.283   3.638   4.531  0.3076  0.2010  0.2742
    1SOL     OW10689   0.725   0.319   4.655 -0.3986 -0.1076 -0.2489
    1SOL    HW210690   0.744   0.246   4.596  1.0529 -0.2117  0.3138
    1SOL    HW310691   0.646   0.292   4.701 -0.2767 -1.0225 -0.5579
    1SOL    MW410692   0.717   0.306   4.653 -0.1910 -0.2421 -0.2151
    1SOL     OW10693   0.365   1.299   4.497 -0.1882  0.0111  0.1228
    1SOL    HW210694   0.386   1.207   4.512 -0.4983 -0.1180 -0.2344
    1SOL    HW310695   0.331   1.302   4.408 -0.8828  0.3444  0.3963
    1SOL    MW410696   0.363   1.287   4.488 -0.3208  0.0380  0.1116
    1SOL     OW10697   4.276   1.511   4.214 -0.5096  0.0027 -0.1844
    1SOL    HW210698   4.287   1.420   4.242  0.1640  0.4829  1.1346
    1SOL    HW310699   4.292   1.509   4.120 -1.8234 -1.4693 -0.4070
    1SOL    MW410700   4.279   1.499   4.205 -0.5946 -0.1281 -0.0401
    1SOL     OW10701   2.851   1.648   4.138  0.2242  0.2737  0.1250
    1SOL    HW210702   2.897   1.729   4.160  1.1420 -0.6628  1.8122
    1SOL    HW310703   2.884   1.584   4.202 -1.1606 -1.1938 -0.5937
    1SOL    MW410704   2.861   1.650   4.149  0.1624 -0.0435  0.2527
    1SOL     OW10705   3.782   2.814   4.228  0.0515 -0.1371  0.0312
    1SOL    HW210706   3.808   2.896   4.187  1.7671 -0.3140  0.7146
    1SOL    HW310707   3.706   2.785   4.177 -1.5913  2.6559  0.7917
    1SOL    MW410708   3.775   2.821   4.216  0.0610  0.2081  0.2217
    1SOL     OW10709   3.854   2.107   4.375 -0.2606 -0.0625 -0.0885
    1SOL    HW210710   3.883   2.194   4.404 -0.3272 -0.2081  0.4291
    1SOL    HW310711   3.834   2.118   4.282  2.8197 -0.2800 -0.8487
    1SOL    MW410712   3.855   2.120   4.367  0.1369 -0.1104 -0.1211
    1SOL     OW10713   4.360   1.211   4.534 -0.2324  0.0697  0.0193
    1SOL    HW210714   4.368   1.121   4.566  1.1346  0.1584 -0.0410
    1SOL    HW310715   4.439   1.254   4.564 -1.3274  1.5303  0.8821
    1SOL    MW410716   4.371   1.205   4.542 -0.1969  0.2741  0.1254
    1SOL     OW10717   1.996   4.362   4.256  0.1399  0.2020  0.5840
    1SOL    HW210718   2.005   4.457   4.256  1.3116  0.0967  0.9613
    1SOL    HW310719   2.083   4.329   4.232 -0.2453 -0.7701  0.5043
    1SOL    MW410720   2.009   4.370   4.253  0.2437  0.0596  0.6232
    1SOL     OW10721   2.613   4.209   4.525 -0.4633 -0.0678  0.0853
    1SOL    HW210722   2.623   4.145   4.455  0.2253 -0.3090  0.4054
    1SOL    HW310723   2.609   4.157   4.605  0.2947  0.3033  0.3666
    1SOL    MW410724   2.614   4.194   4.526 -0.2725 -0.0510  0.1650
    1SOL     OW10725   2.621   2.044   4.719 -0.2037 -0.5471 -0.4990
    1SOL    HW210726   2.687   2.082   4.778 -0.3885  0.1836 -0.7543
    1SOL    HW310727   2.604   2.114   4.656 -2.8254  0.0445  0.8237
    1SOL    MW410728   2.628   2.058   4.718 -0.5739 -0.3726 -0.3581
    1SOL     OW10729   1.135   0.510   4.283  0.3043 -0.0822  0.3871
    1SOL    HW210730   1.126   0.535   4.375 -1.8648  1.0772 -0.1061
    1SOL    HW310731   1.127   0.592   4.235  0.3239 -0.8156 -0.8908
    1SOL    MW410732   1.132   0.524   4.289  0.0209 -0.0260  0.1540
    1SOL     OW10733   0.285   0.846   4.451  0.0600  0.3756  0.3170
    1SOL    HW210734   0.302   0.820   4.361 -1.5954 -0.9097  0.3373
    1SOL    HW310735   0.326   0.779   4.505 -0.3389  0.2529  0.4754
    1SOL    MW410736   0.293   0.834   4.446 -0.2111  0.1898  0.3409
    1SOL     OW10737   0.695   0.505   4.225 -0.3892 -0.1481 -0.0260
    1SOL    HW210738   0.675   0.520   4.317  1.3769 -0.3419  0.4084
    1SOL    HW310739   0.684   0.590   4.184  0.8273  0.3982  0.7564
    1SOL    MW410740   0.691   0.518   4.232  0.0044 -0.1016  0.1349
    1SOL     OW10741   1.060   2.587   4.526 -0.1564 -0.2728  0.4528
    1SOL    HW210742   1.131   2.524   4.527 -1.1968 -1.4774 -0.1584
    1SOL    HW310743   0.981   2.534   4.516 -1.0470  1.1332 -0.1355
    1SOL    MW410744   1.059   2.572   4.525 -0.4110 -0.2463  0.2947
    1SOL     OW10745   1.123   3.654   4.253 -0.3946  0.2916  0.4935
    1SOL    HW210746   1.188   3.587   4.232 -0.5651 -0.2588  1.7132
    1SOL    HW310747   1.039   3.616   4.224 -0.2077  0.9521 -0.9674
    1SOL    MW410748   1.120   3.640   4.246 -0.3923  0.3066  0.4616
    1SOL     OW10749   3.147   3.256   4.258  0.1239 -0.1819  0.3322
    1SOL    HW210750   3.135   3.350   4.244 -0.1162 -0.1053  1.0579
    1SOL    HW310751   3.156   3.246   4.353 -0.9943 -1.0248  0.3599
    1SOL    MW410752   3.147   3.267   4.269 -0.0553 -0.2832  0.4311
    1SOL     OW10753   3.477   2.289   4.655 -0.0752 -0.0148 -0.5199
    1SOL    HW210754   3.550   2.231   4.675 -0.4754 -0.0011  1.0226
    1SOL    HW310755   3.517   2.365   4.613  0.7406 -0.2267 -0.1274
    1SOL    MW410756   3.492   2.292   4.652 -0.0205 -0.0410 -0.2646
    1SOL     OW10757   0.674   1.281   4.236  0.4647 -0.1672 -0.5612
    1SOL    HW210758   0.710   1.268   4.324 -0.9439  0.9707  0.2044
    1SOL    HW310759   0.597   1.224   4.233 -1.6065  2.4361  0.2917
    1SOL    MW410760   0.669   1.272   4.247  0.0055  0.3263 -0.3476
    1SOL     OW10761   1.529   2.090   4.360  0.2530 -0.4385 -0.3701
    1SOL    HW210762   1.602   2.036   4.389 -0.7603 -1.2057  0.8030
    1SOL    HW310763   1.467   2.088   4.433 -0.3486  1.3004 -0.8009
    1SOL    MW410764   1.530   2.083   4.373  0.0399 -0.3102 -0.2723
    1SOL     OW10765   1.102   3.158   4.563 -0.5575  0.1833  0.0567
    1SOL    HW210766   1.081   3.069   4.590 -0.5604 -0.4292 -1.8933
    1SOL    HW310767   1.017   3.197   4.541 -0.4685  0.3334 -0.0201
    1SOL    MW410768   1.088   3.151   4.563 -0.5461  0.1223 -0.2108
    1SOL     OW10769   1.143   3.889   4.628  0.0784  0.2214  0.0381
    1SOL    HW210770   1.097   3.954   4.576  0.5918  1.4614  1.1041
    1SOL    HW310771   1.101   3.806   4.606 -2.5196  1.2744  0.8057
    1SOL    MW410772   1.132   3.886   4.618 -0.1967  0.5238  0.2799
    1SOL     OW10773   4.462   3.499   4.161  0.4141  0.2184 -0.4345
    1SOL    HW210774   4.542   3.546   4.185 -0.0407  0.9800 -0.3737
    1SOL    HW310775   4.474   3.476   4.069  1.2600 -0.8404 -0.0745
    1SOL    MW410776   4.474   3.502   4.152  0.4654  0.1793 -0.3786
    1SOL     OW10777   3.614   2.021   4.527  0.4667  0.5328 -0.2868
    1SOL    HW210778   3.692   2.049   4.479  0.0593  0.2416 -1.1228
    1SOL    HW310779   3.542   2.068   4.486  0.0277 -0.2731 -0.4485
    1SOL    MW410780   3.615   2.031   4.515  0.3548  0.3881 -0.4177
    1SOL     OW10781   0.043   3.805   4.744  0.0099 -0.3466 -0.0701
    1SOL    HW210782   0.134   3.777   4.740  0.2554  0.2746  1.0657
    1SOL    HW310783   0.043   3.893   4.705  0.0227 -0.0598  0.5663
    1SOL    MW410784   0.055   3.813   4.738  0.0440 -0.2267  0.1640
    1SOL     OW10785   2.697   3.258   4.521 -0.0057  0.9614  0.7287
    1SOL    HW210786   2.680   3.250   4.427  0.8442 -0.3595  0.6668
    1SOL    HW310787   2.615   3.291   4.557 -0.6447  0.6092 -0.3607
    1SOL    MW410788   2.684   3.261   4.513  0.0217  0.7405  0.5770
    1SOL     OW10789   0.008   0.840   4.479  0.6312 -0.3134  0.0364
    1SOL    HW210790   0.103   0.850   4.475  0.5399  0.6456  0.1950
    1SOL    HW310791  -0.005   0.750   4.509  1.4880 -0.4172  0.1098
    1SOL    MW410792   0.018   0.829   4.483  0.7322 -0.2006  0.0672
    1SOL     OW10793   2.870   1.197   4.533  0.1450  0.2196 -0.0600
    1SOL    HW210794   2.791   1.252   4.533 -0.3012 -0.4234 -0.5839
    1SOL    HW310795   2.900   1.199   4.442  1.4414  1.4702  0.3772
    1SOL    MW410796   2.863   1.205   4.521  0.2570  0.2998 -0.0715
    1SOL     OW10797   1.589   3.593   4.244 -0.1696 -0.5805  0.5222
    1SOL    HW210798   1.507   3.556   4.208 -0.7098  0.6825  0.4484
    1SOL    HW310799   1.564   3.626   4.330  0.2144 -0.0026  0.4125
    1SOL    MW410800   1.575   3.592   4.250 -0.1900 -0.3376  0.4983
    1SOL     OW10801   3.118   4.021   4.206  0.2819  0.0147 -0.0549
    1SOL    HW210802   3.194   3.977   4.168 -1.0387 -1.9636 -0.4545
    1SOL    HW310803   3.127   4.006   4.301  0.2277 -0.4828 -0.1272
    1SOL    MW410804   3.129   4.013   4.214  0.1006 -0.3119 -0.1173
    1SOL     OW10805   0.257   2.049   4.262  0.0211 -0.2666  0.0669
    1SOL    HW210806   0.172   2.014   4.235 -0.2494  0.6371 -0.2908
    1SOL    HW310807   0.320   2.009   4.203 -0.2384 -0.4071 -0.1179
    1SOL    MW410808   0.254   2.039   4.251 -0.0488 -0.1662 -0.0048
    1SOL     OW10809   2.040   1.786   4.555 -0.0294 -0.3129  0.2865
    1SOL    HW210810   2.032   1.704   4.507 -1.9276 -0.1183  0.2510
    1SOL    HW310811   2.100   1.839   4.501 -1.7674 -0.2698 -1.6745
    1SOL    MW410812   2.047   1.782   4.541 -0.5090 -0.2816  0.0234
    1SOL     OW10813   2.948   3.416   4.518  0.0846 -0.0817  0.2761
    1SOL    HW210814   3.023   3.364   4.545  0.8060  0.7013 -0.1990
    1SOL    HW310815   2.873   3.358   4.529  0.7421 -0.8185  0.8910
    1SOL    MW410816   2.948   3.402   4.523  0.2663 -0.0758  0.2947
    1SOL     OW10817   0.320   3.584   4.471  0.2922  0.2471 -0.0848
    1SOL    HW210818   0.277   3.624   4.396 -1.8825 -0.7990  0.5741
    1SOL    HW310819   0.343   3.658   4.528  0.0614  0.8606 -0.7890
    1SOL    MW410820   0.318   3.599   4.469 -0.0252  0.1898 -0.0906
    1SOL     OW10821   1.781   3.236   4.281  0.1287  0.1511 -0.0380
    1SOL    HW210822   1.710   3.194   4.233 -1.1794 -0.1201  2.0297
    1SOL    HW310823   1.786   3.325   4.246 -0.1405 -0.3291 -1.3116
    1SOL    MW410824   1.773   3.242   4.270 -0.0794  0.0520  0.0672
    1SOL     OW10825   2.998   2.249   4.082  0.1231  0.3532 -0.5333
    1SOL    HW210826   2.922   2.192   4.095 -0.0391  0.5955 -0.4332
    1SOL    HW310827   2.977   2.298   4.003  0.0418  0.6438 -0.3298
    1SOL    MW410828   2.985   2.248   4.073  0.0911  0.4234 -0.4935
    1SOL     OW10829   2.122   3.689   4.592 -0.2325  0.3192  0.2201
    1SOL    HW210830   2.055   3.631   4.629 -0.1362 -0.5849 -0.9871
    1SOL    HW310831   2.100   3.694   4.499  0.4658  1.2750  0.0993
    1SOL    MW410832   2.110   3.682   4.584 -0.1273  0.3259  0.0448
    1SOL     OW10833   1.405   0.096   4.531  0.1709 -0.0860 -0.1556
    1SOL    HW210834   1.463   0.151   4.583  1.4748 -1.8710  0.3151
    1SOL    HW310835   1.317   0.116   4.563  0.5661  2.1730 -0.4417
    1SOL    MW410836   1.401   0.106   4.542  0.3951 -0.0235 -0.1321
    1SOL     OW10837   0.074   1.897   4.585  0.8135  0.0052  0.0738
    1SOL    HW210838   0.144   1.961   4.572 -1.2769  2.3908  0.3220
    1SOL    HW310839  -0.004   1.938   4.548 -0.9582 -1.6676  1.8348
    1SOL    MW410840   0.073   1.911   4.578  0.3039  0.0993  0.3386
    1SOL     OW10841   3.412   3.306   4.661 -0.1393  0.1322  0.1644
    1SOL    HW210842   3.438   3.238   4.600 -0.0695  0.2117  0.1054
    1SOL    HW310843   3.488   3.318   4.717  0.1599  0.7660 -0.3718
    1SOL    MW410844   3.425   3.299   4.660 -0.0906  0.2263  0.0858
    1SOL     OW10845   1.962   1.900   4.161  0.2314 -0.2601  0.0299
    1SOL    HW210846   1.900   1.890   4.089  0.4624 -0.9472 -0.0790
    1SOL    HW310847   1.998   1.988   4.150  0.4013 -0.4274 -0.8056
    1SOL    MW410848   1.959   1.910   4.150  0.2842 -0.3728 -0.0949
    1SOL     OW10849   1.602   1.275   4.234  0.1678 -0.0785  0.3024
    1SOL    HW210850   1.696   1.260   4.230  0.3945  1.2949  0.0190
    1SOL    HW310851   1.592   1.368   4.214 -1.2944 -0.3469 -0.3071
    1SOL    MW410852   1.613   1.286   4.231  0.0048  0.0672  0.1845
    1SOL     OW10853   4.003   3.247   4.563  0.3625 -0.5331 -0.0561
    1SOL    HW210854   4.002   3.251   4.467 -0.8626 -1.4579 -0.0900
    1SOL    HW310855   4.078   3.190   4.584 -0.0273 -1.2197 -0.5035
    1SOL    MW410856   4.013   3.240   4.553  0.1497 -0.7455 -0.1202
    1SOL     OW10857   0.821   0.783   4.495 -0.0559 -0.1871 -0.1677
    1SOL    HW210858   0.779   0.847   4.552  1.7528  0.9640 -0.1173
    1SOL    HW310859   0.764   0.706   4.500 -1.9772  1.2097  0.1752
    1SOL    MW410860   0.808   0.781   4.503 -0.0708  0.1490 -0.1159
    1SOL     OW10861   2.260   2.824   4.636 -0.2159 -0.9860 -0.0847
    1SOL    HW210862   2.235   2.746   4.685  1.2208 -0.3819  1.6510
    1SOL    HW310863   2.347   2.804   4.602  0.3024 -0.0290  0.6511
    1SOL    MW410864   2.268   2.811   4.638  0.0420 -0.7803  0.2418
    1SOL     OW10865   3.072   1.760   4.620  0.0420 -0.5813  0.4452
    1SOL    HW210866   3.155   1.711   4.618  0.5359  0.2793 -0.1632
    1SOL    HW310867   3.007   1.698   4.588  0.8640 -0.4769 -1.5082
    1SOL    MW410868   3.075   1.745   4.616  0.2155 -0.4539  0.1073
    1SOL     OW10869   1.591   2.334   4.232  0.1659  0.0114  0.2750
    1SOL    HW210870   1.672   2.354   4.279 -0.2311  0.3119  0.8294
    1SOL    HW310871   1.551   2.263   4.280 -0.0891  0.1144  0.2179
    1SOL    MW410872   1.596   2.327   4.244  0.0800  0.0644  0.3405
    1SOL     OW10873   1.343   1.673   4.225  0.0985 -0.1779 -0.1827
    1SOL    HW210874   1.268   1.627   4.190  0.0683  0.3595 -0.8293
    1SOL    HW310875   1.320   1.691   4.317 -1.2054  1.3193 -0.7809
    1SOL    MW410876   1.330   1.669   4.233 -0.0775  0.0906 -0.3467
    1SOL     OW10877   4.157   0.112   4.763 -0.4884 -0.3367  0.6254
    1SOL    HW210878   4.249   0.136   4.760 -0.0263 -1.6158  2.9917
    1SOL    HW310879   4.157   0.017   4.775 -2.1097 -0.3533  0.6894
    1SOL    MW410880   4.169   0.102   4.764 -0.6413 -0.5077  0.9456
    1SOL     OW10881   2.060   2.971   4.475  0.1419  0.4762  0.2463
    1SOL    HW210882   2.050   2.927   4.391  0.8256  1.9687 -0.6205
    1SOL    HW310883   2.128   2.921   4.521 -1.0186 -1.0189  0.3986
    1SOL    MW410884   2.067   2.958   4.470  0.0789  0.4759  0.1521
    1SOL     OW10885   4.300   3.896   4.181  0.3154  0.4727  0.3533
    1SOL    HW210886   4.282   3.805   4.204  0.6470  0.3628  0.1867
    1SOL    HW310887   4.292   3.898   4.086  2.6502  0.0750  0.1089
    1SOL    MW410888   4.297   3.884   4.171  0.6671  0.4058  0.2990
    1SOL     OW10889   0.549   2.507   4.483 -0.1186  0.0215 -0.2405
    1SOL    HW210890   0.536   2.597   4.515  0.0202  0.6495 -1.9154
    1SOL    HW310891   0.644   2.499   4.473 -0.2516  0.2952 -1.7883
    1SOL    MW410892   0.560   2.518   4.486 -0.1179  0.1404 -0.6657
    1SOL     OW10893   1.074   0.629   4.529 -0.3705  0.1533  0.0530
    1SOL    HW210894   1.151   0.685   4.539  0.4659 -0.8693 -0.6311
    1SOL    HW310895   1.005   0.688   4.499  0.5785  0.7689 -0.9406
    1SOL    MW410896   1.075   0.644   4.527 -0.1349  0.0996 -0.1683
    1SOL     OW10897   4.285   2.890   4.301  0.0577  0.3240 -0.1355
    1SOL    HW210898   4.269   2.979   4.269 -0.6498 -0.0965 -0.9810
    1SOL    HW310899   4.203   2.844   4.286 -0.3887  0.1799  2.5982
    1SOL    MW410900   4.272   2.895   4.295 -0.0949  0.2496  0.1135
    1SOL     OW10901   0.272   0.051   4.122  0.0675 -0.1097  0.4347
    1SOL    HW210902   0.366   0.063   4.112  0.0257  1.5564  1.8265
    1SOL    HW310903   0.262  -0.033   4.167  0.8276 -0.5971 -0.2840
    1SOL    MW410904   0.283   0.041   4.126  0.1623  0.0458  0.5236
    1SOL     OW10905   3.252   2.184   4.524 -0.0159  0.0850 -0.3135
    1SOL    HW210906   3.212   2.268   4.501  0.4618  0.4572  0.1864
    1SOL    HW310907   3.326   2.208   4.579 -0.8112 -0.7324  1.1480
    1SOL    MW410908   3.256   2.198   4.529 -0.0579  0.0262 -0.0544
    1SOL     OW10909   0.458   1.121   4.100 -0.5293 -0.1934 -0.3813
    1SOL    HW210910   0.439   1.034   4.134 -1.6724  0.5280  0.9175
    1SOL    HW310911   0.435   1.117   4.008  0.4624 -1.5611 -0.5773
    1SOL    MW410912   0.452   1.109   4.092 -0.5493 -0.2787 -0.2360
    1SOL     OW10913   2.235   3.274   4.202  0.0350  0.0694 -0.0702
    1SOL    HW210914   2.158   3.233   4.163  0.6799 -0.0122 -1.2594
    1SOL    HW310915   2.224   3.259   4.296  0.0860 -2.5716 -0.4333
    1SOL    MW410916   2.224   3.266   4.210  0.1271 -0.2899 -0.2747
    1SOL     OW10917   0.031   0.127   4.230 -0.1877 -0.5282 -0.3613
    1SOL    HW210918   0.117   0.094   4.202 -0.4665  0.5309 -2.5590
    1SOL    HW310919   0.038   0.222   4.220 -0.5599 -0.1651  2.5630
    1SOL    MW410920   0.043   0.135   4.225 -0.2736 -0.3406 -0.2651
    1SOL     OW10921   1.405   3.890   4.514  0.1487 -0.6232  0.1655
    1SOL    HW210922   1.443   3.957   4.571  1.8055 -0.8730 -0.6066
    1SOL    HW310923   1.318   3.874   4.550 -1.1017  3.3633 -0.7985
    1SOL    MW410924   1.399   3.897   4.526  0.2024 -0.1302 -0.0639
    1SOL     OW10925   0.765   3.625   4.504 -0.2382 -0.7519  0.5058
    1SOL    HW210926   0.724   3.690   4.562  1.5868  1.1553 -0.2643
    1SOL    HW310927   0.858   3.648   4.505  0.0390 -1.5992 -2.0062
    1SOL    MW410928   0.772   3.637   4.512  0.0392 -0.6118  0.0725
    1SOL     OW10929   2.669   1.813   4.578 -0.2419 -0.8441 -0.6187
    1SOL    HW210930   2.645   1.893   4.625  0.7743 -0.5164 -0.6487
    1SOL    HW310931   2.588   1.785   4.535 -0.4643  0.4639 -1.0624
    1SOL    MW410932   2.655   1.820   4.579 -0.1373 -0.6284 -0.6809
    1SOL     OW10933   2.661   0.994   4.506  0.1959 -0.3234  0.0048
    1SOL    HW210934   2.576   1.034   4.527  1.0448  0.7234  1.6032
    1SOL    HW310935   2.724   1.065   4.520  1.4450 -1.4087 -0.0753
    1SOL    MW410936   2.658   1.009   4.511  0.4728 -0.3284  0.2050
    1SOL     OW10937   1.328   0.875   4.243 -0.6667  0.2372  0.0070
    1SOL    HW210938   1.411   0.837   4.214 -0.5142  0.8218 -0.3320
    1SOL    HW310939   1.331   0.965   4.213 -0.2263  1.0547  2.4001
    1SOL    MW410940   1.339   0.882   4.235 -0.5887  0.4221  0.2775
    1SOL     OW10941   4.092   0.522   4.673 -0.0257 -0.0029 -0.0589
    1SOL    HW210942   4.086   0.466   4.751 -0.3934 -1.0949 -0.8565
    1SOL    HW310943   4.131   0.603   4.705  1.0061 -0.9001  1.0294
    1SOL    MW410944   4.096   0.525   4.688  0.0620 -0.2654 -0.0210
    1SOL     OW10945   2.228   1.289   4.550  0.3732  0.5985 -0.0141
    1SOL    HW210946   2.261   1.368   4.591  1.1239  0.2584  0.0458
    1SOL    HW310947   2.227   1.308   4.457  0.2046  0.8067  0.0308
    1SOL    MW410948   2.232   1.302   4.543  0.4499  0.5813 -0.0005
    1SOL     OW10949   1.371   3.226   4.225 -0.4321  0.3511 -0.2822
    1SOL    HW210950   1.377   3.211   4.319 -1.2716  0.7777 -0.1464
    1SOL    HW310951   1.284   3.192   4.201 -0.5820  1.0314 -0.7323
    1SOL    MW410952   1.360   3.220   4.235 -0.5625  0.4971 -0.3233
    1SOL     OW10953   1.124   2.334   4.147 -0.1952  0.3714 -0.5104
    1SOL    HW210954   1.206   2.365   4.187 -0.0380  0.6147 -1.0156
    1SOL    HW310955   1.108   2.250   4.189 -1.1760  1.5909  1.6536
    1SOL    MW410956   1.133   2.327   4.158 -0.3040  0.5648 -0.2918
    1SOL     OW10957   4.430   0.977   4.712  0.3427 -0.1208 -0.0158
    1SOL    HW210958   4.348   0.937   4.744 -0.4503  1.1480 -0.4216
    1SOL    HW310959   4.463   0.915   4.648 -1.8152  0.6575 -1.9633
    1SOL    MW410960   4.423   0.963   4.708 -0.0467  0.1494 -0.3266
    1SOL     OW10961   3.997   0.038   4.547  0.4450 -0.3028  0.2391
    1SOL    HW210962   3.903   0.047   4.562  0.5670  0.5488  0.5225
    1SOL    HW310963   4.037   0.088   4.618  1.1118 -0.5076  0.0092
    1SOL    MW410964   3.990   0.046   4.558  0.5491 -0.2174  0.2460
    1SOL     OW10965   3.892   1.219   4.520  0.3631  0.1898 -0.0410
    1SOL    HW210966   3.897   1.246   4.428  1.0962  0.3229  0.0330
    1SOL    HW310967   3.813   1.262   4.553  0.1760  0.2593 -0.5707
    1SOL    MW410968   3.882   1.228   4.512  0.4349  0.2166 -0.1016
    1SOL     OW10969   3.330   4.106   4.625  0.1453 -0.4459  0.3697
    1SOL    HW210970   3.312   4.056   4.705  0.4578 -1.0287  0.0781
    1SOL    HW310971   3.414   4.073   4.594 -0.0546 -0.3426 -0.2944
    1SOL    MW410972   3.339   4.095   4.631  0.1600 -0.5088  0.2432
    1SOL     OW10973   0.756   0.076   4.509 -0.3720 -0.0068  0.3756
    1SOL    HW210974   0.831   0.054   4.454 -0.5273 -1.9832  0.9184
    1SOL    HW310975   0.680   0.059   4.454 -0.4511  1.7354 -0.0829
    1SOL    MW410976   0.756   0.071   4.494 -0.4029 -0.0377  0.3872
    1SOL     OW10977   0.280   2.096   4.538 -0.4414  0.1193 -0.1124
    1SOL    HW210978   0.259   2.083   4.445  0.0328  0.7891 -0.3175
    1SOL    HW310979   0.362   2.048   4.551 -0.4312  0.1482 -0.0715
    1SOL    MW410980   0.288   2.088   4.527 -0.3775  0.2117 -0.1345
    1SOL     OW10981   1.855   1.348   4.816  0.4824  0.0799  0.1299
    1SOL    HW210982   1.769   1.336   4.776  0.7209 -0.6913 -0.1757
    1SOL    HW310983   1.848   1.305   4.902  0.3973  0.4994  0.3341
    1SOL    MW410984   1.843   1.341   4.822  0.5026  0.0335  0.1168
    1SOL     OW10985   4.292   4.652   4.127 -0.0361  0.1441 -0.4729
    1SOL    HW210986   4.216   4.686   4.173  0.2858 -0.6652  0.6853
    1SOL    HW310987   4.367   4.686   4.177  0.3934  1.8635 -2.2578
    1SOL    MW410988   4.292   4.661   4.140  0.0634  0.2642 -0.5560
    1SOL     OW10989   2.809   2.690   4.561 -0.1548  0.0854 -0.2057
    1SOL    HW210990   2.717   2.679   4.537 -0.7350  1.5709  1.2146
    1SOL    HW310991   2.849   2.730   4.484 -1.2533  1.7474  0.0700
    1SOL    MW410992   2.802   2.694   4.548 -0.3762  0.5009  0.0181
    1SOL     OW10993   2.207   4.238   4.634 -0.1081  0.1256  0.2187
    1SOL    HW210994   2.114   4.244   4.612 -0.2229  0.2038  0.7175
    1SOL    HW310995   2.233   4.150   4.605 -0.8088 -0.6344  1.7866
    1SOL    MW410996   2.198   4.227   4.628 -0.2158  0.0353  0.4911
    1SOL     OW10997   3.160   3.764   4.567 -0.1304 -0.4176 -0.0839
    1SOL    HW210998   3.148   3.855   4.538 -0.2171 -0.7631 -1.1532
    1SOL    HW310999   3.077   3.721   4.548 -0.2642 -0.6034  0.8954
    1SOL    MW411000   3.148   3.771   4.561 -0.1595 -0.4880 -0.0954
    1SOL     OW11001   3.726   4.274   4.533 -0.3110 -0.1759  0.1644
    1SOL    HW211002   3.668   4.200   4.547 -0.2563 -0.0969  0.8501
    1SOL    HW311003   3.686   4.346   4.582  1.1767 -0.5332  1.9843
    1SOL    MW411004   3.713   4.274   4.541 -0.1070 -0.2127  0.4954
    1SOL     OW11005   3.023   2.056   4.642 -0.0241 -0.0027 -0.0639
    1SOL    HW211006   3.054   1.967   4.662  0.0085  0.3107  1.3083
    1SOL    HW311007   3.102   2.103   4.614  0.1211 -0.1513  0.0945
    1SOL    MW411008   3.037   2.050   4.641 -0.0007  0.0191  0.1378
    1SOL     OW11009   1.762   4.278   4.154  0.3418 -0.5825  0.3266
    1SOL    HW211010   1.766   4.275   4.059  0.2060  0.6385  0.2756
    1SOL    HW311011   1.842   4.324   4.180 -0.5694  0.8405  0.6825
    1SOL    MW411012   1.774   4.284   4.145  0.2037 -0.2332  0.3672
    1SOL     OW11013   2.246   1.331   4.283 -0.5306  0.6343  0.3846
    1SOL    HW211014   2.204   1.417   4.278 -1.0680  0.3905  0.6085
    1SOL    HW311015   2.339   1.350   4.291 -0.6049  1.1877 -0.0435
    1SOL    MW411016   2.252   1.345   4.283 -0.6113  0.6753  0.3576
    1SOL     OW11017   1.276   4.103   4.750  0.2095 -0.4764  0.4865
    1SOL    HW211018   1.228   4.173   4.707  0.6510  0.4211  1.4463
    1SOL    HW311019   1.219   4.026   4.741 -1.0964  0.4059  0.9895
    1SOL    MW411020   1.262   4.102   4.743  0.0954 -0.2422  0.6800
    1SOL     OW11021   2.419   0.618   4.493  0.2241 -0.6143 -0.0337
    1SOL    HW211022   2.447   0.589   4.406 -0.7205 -1.3256 -0.1235
    1SOL    HW311023   2.396   0.536   4.539  1.4686 -0.3159  1.1648
    1SOL    MW411024   2.420   0.603   4.488  0.2639 -0.6688  0.1130
    1SOL     OW11025   4.045   1.631   4.311 -0.0302 -0.2085  0.2545
    1SOL    HW211026   4.121   1.595   4.265 -0.9302  0.5666 -1.8935
    1SOL    HW311027   4.037   1.578   4.390  1.3172 -1.8305 -0.6747
    1SOL    MW411028   4.054   1.619   4.316  0.0296 -0.3203 -0.1512
    1SOL     OW11029   1.801   1.789   4.707 -0.6867 -0.4609 -0.2714
    1SOL    HW211030   1.873   1.790   4.644 -0.9699 -0.5824 -0.6032
    1SOL    HW311031   1.828   1.727   4.774 -0.4689 -0.4838 -0.3809
    1SOL    MW411032   1.814   1.781   4.707 -0.6952 -0.4799 -0.3304
    1SOL     OW11033   1.217   1.666   4.480  0.0930  0.2294 -0.1335
    1SOL    HW211034   1.259   1.726   4.543  1.3845 -0.9532  0.1748
    1SOL    HW311035   1.125   1.691   4.480 -0.0648 -0.1525  2.7428
    1SOL    MW411036   1.211   1.677   4.489  0.2425  0.0231  0.2861
    1SOL     OW11037   2.871   2.795   4.317  0.3278 -0.0379  0.4788
    1SOL    HW211038   2.842   2.865   4.375 -0.3055 -0.3349  0.5223
    1SOL    HW311039   2.791   2.760   4.278  0.7172 -0.0868 -0.2993
    1SOL    MW411040   2.857   2.800   4.319  0.2956 -0.0837  0.3815
    1SOL     OW11041   1.576   0.773   4.147  0.0706  0.4340  0.0849
    1SOL    HW211042   1.650   0.821   4.183  0.4834 -0.3931  0.3650
    1SOL    HW311043   1.595   0.764   4.054  0.3869  0.1044  0.1819
    1SOL    MW411044   1.588   0.778   4.140  0.1669  0.2814  0.1340
    1SOL     OW11045   3.984   2.338   4.461  0.6015  0.6177  0.4647
    1SOL    HW211046   4.060   2.343   4.520  1.3892 -0.1346 -0.4728
    1SOL    HW311047   4.006   2.395   4.388  1.5925 -1.8603 -1.2517
    1SOL    MW411048   3.997   2.346   4.459  0.8364  0.1917  0.1149
    1SOL     OW11049   4.049   3.971   4.264 -0.0884  0.7402  0.1361
    1SOL    HW211050   4.137   3.949   4.233  0.5231  2.0489  0.9142
    1SOL    HW311051   4.050   3.952   4.358 -0.1496  2.1978  0.4484
    1SOL    MW411052   4.060   3.966   4.272 -0.0157  1.1051  0.2794
    1SOL     OW11053   3.660   3.319   4.810 -0.2062 -0.2823  0.5284
    1SOL    HW211054   3.706   3.248   4.765  0.7489  0.7426 -0.1558
    1SOL    HW311055   3.707   3.399   4.783 -0.9398  0.5570  1.6780
    1SOL    MW411056   3.672   3.321   4.801 -0.1769 -0.0365  0.5903
    1SOL     OW11057   0.332   0.464   4.788 -0.4982 -0.2713  0.2143
    1SOL    HW211058   0.239   0.451   4.809 -0.6400 -2.1818 -1.4642
    1SOL    HW311059   0.369   0.376   4.790  0.8889  0.2774 -0.9126
    1SOL    MW411060   0.324   0.451   4.791 -0.3339 -0.4510 -0.1554
    1SOL     OW11061   0.842   3.216   4.478  0.2426  0.2483 -0.2232
    1SOL    HW211062   0.813   3.125   4.467  1.0505 -0.0493  0.0339
    1SOL    HW311063   0.789   3.249   4.551 -0.5411  0.1997 -0.7705
    1SOL    MW411064   0.831   3.208   4.486  0.2458  0.2024 -0.2613
    1SOL     OW11065   0.291   2.390   4.559 -0.3774 -0.0666  0.8309
    1SOL    HW211066   0.380   2.418   4.541 -1.0932  2.7313  1.4688
    1SOL    HW311067   0.293   2.295   4.546  2.2450  0.1726 -0.8904
    1SOL    MW411068   0.303   2.381   4.555 -0.1259  0.3340  0.6886
    1SOL     OW11069   2.331   1.523   4.658  0.2282 -0.2813  0.0350
    1SOL    HW211070   2.314   1.591   4.723 -0.5023  0.1685 -0.6195
    1SOL    HW311071   2.367   1.570   4.583  1.3109 -0.8312  0.2016
    1SOL    MW411072   2.333   1.538   4.657  0.2744 -0.2946 -0.0291
    1SOL     OW11073   0.394   0.838   4.177 -0.5493 -0.4027  0.2153
    1SOL    HW211074   0.479   0.804   4.151 -0.1477  0.0947  0.8684
    1SOL    HW311075   0.331   0.778   4.137  0.0861 -0.4318 -0.7654
    1SOL    MW411076   0.397   0.826   4.168 -0.4125 -0.3409  0.1717
    1SOL     OW11077   2.388   2.081   4.202  0.4421 -0.0545 -0.2347
    1SOL    HW211078   2.384   2.122   4.115  0.7280 -0.5711 -0.4995
    1SOL    HW311079   2.330   2.134   4.257 -0.8592 -0.5731 -1.0861
    1SOL    MW411080   2.380   2.094   4.198  0.3080 -0.1912 -0.3819
    1SOL     OW11081   3.584   2.586   4.562 -0.1172 -0.1217 -0.3377
    1SOL    HW211082   3.577   2.544   4.477 -1.2450 -2.1644  0.7275
    1SOL    HW311083   3.650   2.535   4.609 -1.8539 -1.0652  1.1364
    1SOL    MW411084   3.592   2.574   4.557 -0.4952 -0.5157 -0.0033
    1SOL     OW11085   2.365   2.427   4.687  0.1787 -0.7772 -0.5434
    1SOL    HW211086   2.351   2.422   4.593 -1.8800 -0.4445 -0.2975
    1SOL    HW311087   2.457   2.407   4.700  0.4285 -1.0098 -2.6101
    1SOL    MW411088   2.375   2.424   4.676 -0.0601 -0.7641 -0.7834
    1SOL     OW11089   1.107   1.244   4.223  0.2595  0.5164 -0.0633
    1SOL    HW211090   1.195   1.206   4.221  0.1840  0.1737  1.7762
    1SOL    HW311091   1.089   1.257   4.316 -1.7245  0.3770 -0.3978
    1SOL    MW411092   1.116   1.241   4.235 -0.0122  0.4528  0.1349
    1SOL     OW11093   3.638   1.353   4.589  0.2794  0.3863 -0.4611
    1SOL    HW211094   3.665   1.435   4.630 -0.4291 -0.4032  1.6908
    1SOL    HW311095   3.547   1.369   4.563 -0.4173 -0.2365  1.5030
    1SOL    MW411096   3.629   1.366   4.591  0.0939  0.2000  0.0820
    1SOL     OW11097   1.761   4.026   4.251 -0.2320  0.0475  0.0371
    1SOL    HW211098   1.761   4.119   4.226  0.8321  0.1879  0.5589
    1SOL    HW311099   1.778   4.026   4.345  0.6614 -0.7131 -0.1189
    1SOL    MW411100   1.763   4.038   4.260  0.0261 -0.0343  0.0854
    1SOL     OW11101   4.060   0.943   4.272  0.4882  0.2264 -0.2931
    1SOL    HW211102   3.967   0.930   4.254  0.5556 -0.7060  0.0147
    1SOL    HW311103   4.104   0.867   4.233  1.0642  0.3867  0.0308
    1SOL    MW411104   4.054   0.932   4.265  0.5732  0.1246 -0.2103
    1SOL     OW11105   0.287   0.413   4.328 -0.4664  0.2556 -0.1567
    1SOL    HW211106   0.204   0.431   4.284 -0.8353  0.5640  0.6560
    1SOL    HW311107   0.349   0.397   4.257 -1.4394 -0.9504 -0.7360
    1SOL    MW411108   0.284   0.413   4.313 -0.6434  0.1372 -0.1254
    1SOL     OW11109   1.169   3.428   4.614 -0.1093  0.0874 -0.0406
    1SOL    HW211110   1.264   3.441   4.618 -0.1187  0.2380 -0.3449
    1SOL    HW311111   1.158   3.333   4.607  0.0033  0.0286  0.5039
    1SOL    MW411112   1.180   3.417   4.614 -0.0957  0.0997 -0.0086
    1SOL     OW11113   1.884   3.519   4.663  0.0847  0.3954 -0.5380
    1SOL    HW211114   1.844   3.605   4.648  0.0292  0.8846  2.1784
    1SOL    HW311115   1.810   3.458   4.667  0.1163  0.2141 -2.3544
    1SOL    MW411116   1.869   3.523   4.661  0.0815  0.4363 -0.4191
    1SOL     OW11117   4.482   4.037   4.333  0.2352  0.5229 -0.1404
    1SOL    HW211118   4.406   3.984   4.306 -0.0015  0.8844 -0.1850
    1SOL    HW311119   4.470   4.120   4.287 -0.0145  1.0413  0.8586
    1SOL    MW411120   4.471   4.041   4.323  0.1711  0.6390 -0.0138
    1SOL     OW11121   0.541   4.631   4.369 -0.1111 -0.4472  0.3405
    1SOL    HW211122   0.579   4.544   4.353  1.9760  0.7796 -1.5737
    1SOL    HW311123   0.550   4.677   4.286 -4.2384  0.5526  0.3100
    1SOL    MW411124   0.547   4.625   4.356 -0.3803 -0.1540  0.0839
    1SOL     OW11125   0.422   3.327   4.540 -0.3221 -0.1570  0.0401
    1SOL    HW211126   0.513   3.348   4.558 -0.5904  1.1887 -0.1462
    1SOL    HW311127   0.377   3.412   4.537 -1.7343 -0.8312  0.9647
    1SOL    MW411128   0.428   3.341   4.542 -0.5438 -0.0687  0.1369
    1SOL     OW11129   0.056   0.425   4.159 -0.5833 -0.2729  0.1757
    1SOL    HW211130   0.050   0.394   4.069  0.5819  0.3541 -0.1148
    1SOL    HW311131  -0.024   0.477   4.172  0.3273  1.5038 -1.2080
    1SOL    MW411132   0.045   0.428   4.149 -0.3094  0.0443 -0.0448
    1SOL     OW11133   1.355   1.957   4.171 -0.4483  0.2139  0.1176
    1SOL    HW211134   1.421   2.006   4.220  0.5996 -1.4159  0.3808
    1SOL    HW311135   1.355   1.870   4.211 -2.6009  0.1138 -0.0346
    1SOL    MW411136   1.364   1.952   4.182 -0.5940 -0.0143  0.1326
    1SOL     OW11137   1.599   3.102   4.117  0.0920  0.0112 -0.0149
    1SOL    HW211138   1.517   3.142   4.146  1.2501  1.0412  1.9729
    1SOL    HW311139   1.596   3.013   4.152 -0.4741 -0.1572 -0.4973
    1SOL    MW411140   1.588   3.096   4.126  0.1701  0.1247  0.1836
    1SOL     OW11141   2.464   3.636   4.239  0.1862  0.0360 -0.4747
    1SOL    HW211142   2.390   3.601   4.190 -0.7614  0.1865  0.8487
    1SOL    HW311143   2.436   3.635   4.330  2.1304 -0.7306  0.1470
    1SOL    MW411144   2.451   3.631   4.244  0.3178 -0.0455 -0.2184
    1SOL     OW11145   2.588   2.424   4.225  0.2365  0.1465 -0.0314
    1SOL    HW211146   2.509   2.438   4.277  0.1922  0.7012 -0.2429
    1SOL    HW311147   2.646   2.373   4.282  0.1542  0.6827  0.5277
    1SOL    MW411148   2.585   2.419   4.239  0.2196  0.2904  0.0143
    1SOL     OW11149   0.061   4.091   4.608  0.1489 -0.3840  0.3898
    1SOL    HW211150   0.033   4.061   4.521 -0.9267  0.2026  0.5263
    1SOL    HW311151  -0.016   4.134   4.644  0.9235  0.3199  1.2124
    1SOL    MW411152   0.047   4.093   4.601  0.1092 -0.2136  0.5164
    1SOL     OW11153   0.902   2.514   4.195  0.4874 -0.1848  0.2592
    1SOL    HW211154   0.846   2.442   4.166 -0.7597  1.1027 -0.6033
    1SOL    HW311155   0.991   2.484   4.178  0.0550 -2.0835  1.2432
    1SOL    MW411156   0.906   2.501   4.189  0.2658 -0.2658  0.2751
    1SOL     OW11157   2.242   1.860   4.167  0.1601  0.1962 -0.2847
    1SOL    HW211158   2.287   1.940   4.192  0.0163  0.5134 -1.0191
    1SOL    HW311159   2.149   1.880   4.174  0.1259 -0.0742  0.0478
    1SOL    MW411160   2.236   1.873   4.171  0.1366  0.2024 -0.3381
    1SOL     OW11161   2.630   3.767   4.491  0.5249 -0.3628  0.4303
    1SOL    HW211162   2.620   3.815   4.573 -2.0226  0.9793 -0.6158
    1SOL    HW311163   2.558   3.703   4.492 -0.6014  0.8449 -1.5273
    1SOL    MW411164   2.619   3.765   4.502  0.0401 -0.0262  0.0339
    1SOL     OW11165   4.250   1.472   4.631 -0.0085 -0.0001 -0.6069
    1SOL    HW211166   4.285   1.388   4.601  0.5057  0.0378 -0.1015
    1SOL    HW311167   4.309   1.500   4.701 -0.6047  0.4273 -0.2695
    1SOL    MW411168   4.262   1.465   4.636 -0.0200  0.0613 -0.4959
    1SOL     OW11169   3.831   1.581   4.152  0.2794  0.3530 -0.5629
    1SOL    HW211170   3.747   1.616   4.181  0.8898  0.5654  0.9902
    1SOL    HW311171   3.896   1.628   4.204  1.1693 -2.2130  0.7504
    1SOL    MW411172   3.828   1.591   4.163  0.4776  0.0424 -0.1845
    1SOL     OW11173   4.326   1.247   4.263 -0.1231 -0.5459  0.0533
    1SOL    HW211174   4.250   1.200   4.226 -0.7729  0.6996 -0.2196
    1SOL    HW311175   4.320   1.230   4.357 -0.1318 -1.3254 -0.0786
    1SOL    MW411176   4.315   1.238   4.270 -0.2103 -0.4843  0.0005
    1SOL     OW11177   2.168   0.150   4.375  0.1624 -0.0841 -0.3060
    1SOL    HW211178   2.231   0.111   4.436 -1.1175 -2.5921 -0.5131
    1SOL    HW311179   2.098   0.184   4.430  0.8971  1.2518 -0.1730
    1SOL    MW411180   2.167   0.149   4.390  0.0906 -0.2387 -0.3152
    1SOL     OW11181   1.331   1.278   4.772  0.5097 -0.1259 -0.2733
    1SOL    HW211182   1.296   1.231   4.696  0.7904 -0.3270 -0.2792
    1SOL    HW311183   1.270   1.350   4.786  1.0863  0.5988 -1.4099
    1SOL    MW411184   1.318   1.281   4.764  0.6229 -0.0567 -0.4244
    1SOL     OW11185   1.276   0.825   4.525 -0.5781 -0.5126 -0.2934
    1SOL    HW211186   1.297   0.830   4.432  0.0390  0.4743 -0.1108
    1SOL    HW311187   1.358   0.799   4.566 -0.4592  0.4789  0.1167
    1SOL    MW411188   1.290   0.823   4.518 -0.4809 -0.2516 -0.2151
    1SOL     OW11189   3.412   1.309   4.249 -0.2705  0.5250 -0.3204
    1SOL    HW211190   3.417   1.400   4.219  0.7818  1.0870  1.4886
    1SOL    HW311191   3.341   1.271   4.197 -0.4880  2.2711 -1.3610
    1SOL    MW411192   3.403   1.316   4.238 -0.1605  0.8297 -0.2189
    1SOL     OW11193   1.779   0.925   4.215 -0.6075 -0.0899 -0.0202
    1SOL    HW211194   1.855   0.876   4.183 -0.1286  0.4232  0.3227
    1SOL    HW311195   1.768   0.896   4.306  0.0737  0.9111  0.3857
    1SOL    MW411196   1.788   0.915   4.223 -0.4544  0.1099  0.0782
    1SOL     OW11197   1.786   1.952   4.398 -0.1171 -0.0647 -0.2647
    1SOL    HW211198   1.825   1.939   4.311 -1.1971 -0.9975 -0.6164
    1SOL    HW311199   1.847   2.012   4.442  0.5960  0.1945 -1.5565
    1SOL    MW411200   1.799   1.958   4.392 -0.1656 -0.1535 -0.4816
    1SOL     OW11201   2.282   1.950   4.475 -0.2852 -0.1558 -0.1197
    1SOL    HW211202   2.259   2.038   4.447 -1.3015  0.3144  2.1046
    1SOL    HW311203   2.279   1.953   4.570  0.2365 -2.4464  0.0106
    1SOL    MW411204   2.279   1.962   4.484 -0.3505 -0.3961  0.1912
    1SOL     OW11205   3.174   2.038   4.119  0.3990  0.0208 -0.5039
    1SOL    HW211206   3.117   2.115   4.114  0.6459  0.2717  0.5250
    1SOL    HW311207   3.239   2.060   4.186 -1.0211 -2.0716  1.6311
    1SOL    MW411208   3.175   2.052   4.127  0.2441 -0.2222 -0.0863
    1SOL     OW11209   2.166   3.243   4.517 -0.2753  0.3608 -0.1952
    1SOL    HW211210   2.139   3.152   4.514  0.9121  0.0380 -1.3298
    1SOL    HW311211   2.088   3.291   4.546 -1.2018 -0.8755 -0.6353
    1SOL    MW411212   2.152   3.237   4.521 -0.2408  0.1554 -0.4029
    1SOL     OW11213   1.833   2.397   4.338 -0.8583 -0.2363 -0.3824
    1SOL    HW211214   1.873   2.313   4.358 -2.3798 -0.8393  0.1441
    1SOL    HW311215   1.847   2.450   4.416  0.8801  0.3118 -1.0433
    1SOL    MW411216   1.840   2.393   4.351 -0.8297 -0.2437 -0.3996
    1SOL     OW11217   3.943   0.963   4.543 -0.6015 -0.0452 -0.0775
    1SOL    HW211218   3.993   0.939   4.464 -0.7075 -0.3362 -0.0538
    1SOL    HW311219   3.915   1.053   4.526  0.2007  0.2402  0.0428
    1SOL    MW411220   3.946   0.972   4.530 -0.5097 -0.0459 -0.0591
    1SOL     OW11221   0.653   3.771   4.705  0.3012 -0.1911 -0.4130
    1SOL    HW211222   0.674   3.857   4.670  1.1051 -0.5898 -0.9254
    1SOL    HW311223   0.727   3.750   4.762  1.2248 -1.5093 -2.0504
    1SOL    MW411224   0.665   3.779   4.708  0.5291 -0.4177 -0.6967
    1SOL     OW11225   2.896   2.428   4.607  0.1161 -0.1166  0.4065
    1SOL    HW211226   2.861   2.381   4.532  2.2677  1.3212 -1.5839
    1SOL    HW311227   2.875   2.520   4.590 -0.1103  0.1501  2.0009
    1SOL    MW411228   2.888   2.434   4.595  0.3698  0.1080  0.3538
    1SOL     OW11229   2.911   3.109   4.200 -0.4451 -0.0276  0.1141
    1SOL    HW211230   2.894   3.098   4.106  0.7831  0.4833 -0.1821
    1SOL    HW311231   2.997   3.153   4.203 -0.0322 -0.9311  1.4981
    1SOL    MW411232   2.920   3.114   4.188 -0.2282 -0.0794  0.2580
    1SOL     OW11233   1.631   2.965   4.465 -0.2310  0.1032  0.4406
    1SOL    HW211234   1.702   3.022   4.494  0.2271 -0.2809  0.0977
    1SOL    HW311235   1.553   2.997   4.510  0.2063  0.3875  0.9908
    1SOL    MW411236   1.630   2.977   4.475 -0.1128  0.0899  0.4687
    1SOL     OW11237   1.530   0.717   4.602  0.0143 -0.1056 -0.3033
    1SOL    HW211238   1.583   0.638   4.593 -0.2694 -0.1431 -1.7933
    1SOL    HW311239   1.585   0.787   4.566 -1.1870 -0.2566 -2.4923
    1SOL    MW411240   1.544   0.716   4.596 -0.1817 -0.1304 -0.7887
    1SOL     OW11241   1.553   1.153   4.482 -0.1560  0.0465 -0.8200
    1SOL    HW211242   1.588   1.197   4.560  0.9236 -0.5398 -0.9785
    1SOL    HW311243   1.591   1.200   4.408  0.6921 -0.9101 -0.9910
    1SOL    MW411244   1.562   1.165   4.483  0.0982 -0.1571 -0.8636
    1SOL     OW11245   0.282   2.838   4.526 -0.1841  0.1052  0.0458
    1SOL    HW211246   0.298   2.832   4.431  1.4321 -0.0050  0.3156
    1SOL    HW311247   0.224   2.764   4.545 -0.0055 -0.2464 -0.7556
    1SOL    MW411248   0.277   2.827   4.516  0.0527  0.0446 -0.0248
    1SOL     OW11249   3.382   2.107   4.294  0.1179 -0.0211  0.0256
    1SOL    HW211250   3.384   2.191   4.249 -1.0672  0.4926  0.9102
    1SOL    HW311251   3.344   2.126   4.380  2.3508 -0.9837  1.2612
    1SOL    MW411252   3.377   2.121   4.300  0.2561 -0.0799  0.3047
    1SOL     OW11253   3.992   4.206   4.612 -0.4568  0.4880 -0.1684
    1SOL    HW211254   3.898   4.224   4.606 -0.4915  0.3452 -0.0447
    1SOL    HW311255   4.002   4.118   4.577 -0.5843 -0.1272  1.3039
    1SOL    MW411256   3.981   4.197   4.606 -0.4785  0.3881  0.0424
    1SOL     OW11257   3.849   3.714   4.503 -0.7948 -0.1495  0.2609
    1SOL    HW211258   3.895   3.640   4.543 -0.5937  0.6325  1.4843
    1SOL    HW311259   3.834   3.686   4.413  1.3665 -0.7471  0.0570
    1SOL    MW411260   3.853   3.700   4.496 -0.4830 -0.1252  0.3953
    1SOL     OW11261   0.352   3.779   4.674 -0.5390 -0.3687  0.8712
    1SOL    HW211262   0.444   3.766   4.694 -0.4580 -0.1608  0.6446
    1SOL    HW311263   0.347   3.871   4.645 -0.5990 -0.7300 -0.2988
    1SOL    MW411264   0.363   3.790   4.673 -0.5362 -0.3889  0.6866
    1SOL     OW11265   3.158   0.399   4.158  0.3951  0.3090 -0.6406
    1SOL    HW211266   3.082   0.445   4.191  0.5577 -0.1106  0.3265
    1SOL    HW311267   3.231   0.429   4.213  0.5282 -0.9658 -0.1060
    1SOL    MW411268   3.158   0.409   4.169  0.4342  0.0855 -0.4430
    1SOL     OW11269   0.207   3.127   4.166  0.3903  0.2450  0.4711
    1SOL    HW211270   0.280   3.172   4.207  0.4717  0.9497 -0.4323
    1SOL    HW311271   0.130   3.153   4.217  0.8520 -1.1133  1.9055
    1SOL    MW411272   0.206   3.136   4.178  0.4619  0.1585  0.5412
    1SOL     OW11273   1.292   1.103   4.554  0.9608  0.2936  0.3037
    1SOL    HW211274   1.278   1.008   4.557  0.5081  0.3934  1.5947
    1SOL    HW311275   1.381   1.112   4.521  1.2606 -0.6019  0.8436
    1SOL    MW411276   1.302   1.092   4.550  0.9407  0.1887  0.5445
    1SOL     OW11277   2.206   3.535   4.152 -0.4442  0.2822  0.1978
    1SOL    HW211278   2.202   3.445   4.183  0.0590  0.0672 -0.3670
    1SOL    HW311279   2.129   3.577   4.191 -0.8603 -0.4695  0.1887
    1SOL    MW411280   2.196   3.529   4.161 -0.4332  0.1550  0.1216
    1SOL     OW11281   3.845   0.492   4.542  0.1659  0.2544  0.0433
    1SOL    HW211282   3.939   0.486   4.559  0.2055  0.4118 -0.1155
    1SOL    HW311283   3.821   0.581   4.568  0.4093  0.8087 -1.5631
    1SOL    MW411284   3.855   0.503   4.547  0.2031  0.3483 -0.1893
    1SOL     OW11285   2.228   0.897   4.237 -0.0274 -0.2889  0.4988
    1SOL    HW211286   2.213   0.976   4.186  0.8460 -1.6245 -1.9397
    1SOL    HW311287   2.318   0.872   4.217 -0.1975 -1.7454  1.4358
    1SOL    MW411288   2.238   0.904   4.228  0.0653 -0.6573  0.3014
    1SOL     OW11289   4.242   2.866   4.592 -0.4766  0.1163 -0.3008
    1SOL    HW211290   4.233   2.955   4.626 -2.3217  0.0887 -0.7072
    1SOL    HW311291   4.261   2.878   4.499 -1.4956  0.0710 -0.5152
    1SOL    MW411292   4.244   2.879   4.584 -0.8545  0.1066 -0.3824
    1SOL     OW11293   2.261   0.392   4.157  0.0371  0.1000  0.2633
    1SOL    HW211294   2.240   0.362   4.068 -0.4799 -1.7788  1.0088
    1SOL    HW311295   2.231   0.322   4.214  2.0459  0.4842  1.8362
    1SOL    MW411296   2.254   0.379   4.153  0.2341 -0.0972  0.5693
    1SOL     OW11297   3.560   0.894   4.305 -0.2580  0.0972 -0.0184
    1SOL    HW211298   3.490   0.877   4.242 -0.2080 -0.1589 -0.0054
    1SOL    HW311299   3.580   0.987   4.295 -1.3367  0.4157  0.7269
    1SOL    MW411300   3.554   0.904   4.295 -0.3939  0.1054  0.0815
    1SOL     OW11301   0.527   2.782   4.601 -0.4857  0.1823  0.3398
    1SOL    HW211302   0.447   2.811   4.558 -0.5564  0.1062  0.4209
    1SOL    HW311303   0.499   2.751   4.687 -0.5906 -1.2329 -0.1792
    1SOL    MW411304   0.513   2.782   4.606 -0.5089 -0.0143  0.2823
    1SOL     OW11305   1.993   1.560   4.417  0.0631 -0.0209  0.0258
    1SOL    HW211306   1.906   1.589   4.392 -0.1595 -0.7741 -0.0842
    1SOL    HW311307   2.043   1.560   4.335 -0.1084 -0.5412 -0.0809
    1SOL    MW411308   1.989   1.564   4.403  0.0111 -0.1888 -0.0024
    1SOL     OW11309   0.953   1.663   4.180 -0.1539  0.0833  0.4076
    1SOL    HW211310   0.871   1.628   4.144 -0.5327  0.5316  0.8282
    1SOL    HW311311   0.940   1.758   4.180  0.4006  0.1615  0.4043
    1SOL    MW411312   0.941   1.671   4.175 -0.1307  0.1528  0.4625
    1SOL     OW11313   3.612   1.705   4.280  0.4179  0.0336 -0.2494
    1SOL    HW211314   3.586   1.727   4.369  0.0697  2.4897 -0.9274
    1SOL    HW311315   3.543   1.646   4.249  1.5978 -2.4983  1.7583
    1SOL    MW411316   3.599   1.700   4.287  0.5276  0.0237 -0.0744
    1SOL     OW11317   3.341   2.847   4.226  0.2718  0.1347 -0.2418
    1SOL    HW211318   3.259   2.812   4.191 -0.1793  1.1985 -0.2830
    1SOL    HW311319   3.327   2.853   4.320  0.6111 -0.4702 -0.1506
    1SOL    MW411320   3.329   2.843   4.234  0.2570  0.1955 -0.2356
    1SOL     OW11321   3.824   2.479   4.638 -0.0588  0.0812 -0.3553
    1SOL    HW211322   3.874   2.413   4.590 -1.0472 -0.3719 -0.7671
    1SOL    HW311323   3.883   2.554   4.644  1.6224 -1.2974  1.3239
    1SOL    MW411324   3.838   2.480   4.633  0.0327 -0.1607 -0.1884
    1SOL     OW11325   0.375   0.184   4.461 -0.1192 -0.7806 -0.1815
    1SOL    HW211326   0.336   0.262   4.421  2.1138  0.6508  0.3152
    1SOL    HW311327   0.407   0.132   4.388  0.1238 -0.2753 -0.4337
    1SOL    MW411328   0.374   0.188   4.446  0.2075 -0.5251 -0.1493
    1SOL     OW11329   1.515   4.375   4.238  0.2962  0.1228  0.2774
    1SOL    HW211330   1.594   4.323   4.221  0.4947 -0.2986  2.4222
    1SOL    HW311331   1.443   4.322   4.204  0.7925 -0.1607 -0.3364
    1SOL    MW411332   1.516   4.361   4.231  0.3878  0.0291  0.4802
    1SOL     OW11333   3.012   1.848   4.263  0.2496 -0.3429  0.0775
    1SOL    HW211334   2.953   1.890   4.325 -0.8259  0.0501 -1.1905
    1SOL    HW311335   3.065   1.919   4.228 -0.4244 -0.2848 -0.8320
    1SOL    MW411336   3.011   1.863   4.267  0.0186 -0.2835 -0.2093
    1SOL     OW11337   3.668   1.158   4.201  0.4699  0.5655 -0.0296
    1SOL    HW211338   3.666   1.175   4.106 -0.3987  0.8363  0.0375
    1SOL    HW311339   3.587   1.196   4.234 -0.4677 -1.7646  0.4592
    1SOL    MW411340   3.657   1.165   4.192  0.2315  0.2939  0.0439
    1SOL     OW11341   1.800   0.330   4.187 -0.0625  0.4065  0.0321
    1SOL    HW211342   1.732   0.386   4.225  2.3965  1.8080  2.5134
    1SOL    HW311343   1.787   0.245   4.230 -0.5187  0.5474  0.1778
    1SOL    MW411344   1.789   0.326   4.198  0.2017  0.6100  0.3791
    1SOL     OW11345   3.336   4.419   4.192 -0.1418  0.0267 -0.2087
    1SOL    HW211346   3.337   4.417   4.288  0.0057  0.1345 -0.2079
    1SOL    HW311347   3.343   4.512   4.171 -0.0198 -0.0107 -0.3269
    1SOL    MW411348   3.337   4.431   4.202 -0.1061  0.0362 -0.2241
    1SOL     OW11349   2.494   0.554   4.227 -0.5864 -0.4015 -0.3231
    1SOL    HW211350   2.495   0.638   4.181 -0.7872  0.0224  0.4479
    1SOL    HW311351   2.407   0.517   4.207 -0.4602 -0.4771 -0.7435
    1SOL    MW411352   2.482   0.560   4.218 -0.5963 -0.3555 -0.2770
    1SOL     OW11353   2.639   2.696   4.200 -0.0850 -0.0713 -0.1377
    1SOL    HW211354   2.558   2.741   4.223 -0.4727 -1.5898  1.6269
    1SOL    HW311355   2.619   2.603   4.215  1.6453 -0.5526 -0.7304
    1SOL    MW411356   2.625   2.690   4.205  0.0923 -0.3352  0.0167
    1SOL     OW11357   2.424   1.082   4.580 -0.2300 -0.4038  0.0556
    1SOL    HW211358   2.361   1.153   4.592  0.5664 -0.0831  2.5901
    1SOL    HW311359   2.370   1.002   4.582 -0.7480 -0.0491  0.6106
    1SOL    MW411360   2.408   1.080   4.582 -0.1931 -0.3147  0.4635
    1SOL     OW11361   3.157   3.517   4.157  0.2226 -0.4175 -0.0132
    1SOL    HW211362   3.147   3.490   4.065 -0.1955 -2.2959  0.5693
    1SOL    HW311363   3.085   3.578   4.172 -0.1034 -0.6169 -0.7462
    1SOL    MW411364   3.147   3.522   4.146  0.1242 -0.6917 -0.0329
    1SOL     OW11365   3.570   4.030   4.530 -0.3097 -0.0623 -0.1267
    1SOL    HW211366   3.573   4.017   4.435  1.6549 -0.2072 -0.0606
    1SOL    HW311367   3.594   3.944   4.566  0.4646  0.4033  0.4669
    1SOL    MW411368   3.573   4.017   4.522  0.0515 -0.0200 -0.0396
    1SOL     OW11369   3.901   1.316   4.245  0.1955  0.1289  0.1634
    1SOL    HW211370   3.872   1.407   4.248  0.0769  0.1226 -0.6973
    1SOL    HW311371   3.820   1.266   4.232  0.4338  0.0110 -0.8787
    1SOL    MW411372   3.886   1.321   4.244  0.2115  0.1124 -0.0877
    1SOL     OW11373   3.195   1.608   4.311  0.0837  0.2462 -0.1435
    1SOL    HW211374   3.147   1.691   4.307  0.9345  0.7114 -0.6542
    1SOL    HW311375   3.226   1.603   4.402 -0.3533  0.2688  0.0077
    1SOL    MW411376   3.193   1.618   4.322  0.1385  0.3107 -0.1912
    1SOL     OW11377   3.567   4.498   4.623 -0.0110 -0.2710 -0.7089
    1SOL    HW211378   3.482   4.461   4.597 -0.3359  0.7217 -1.0598
    1SOL    HW311379   3.561   4.507   4.718 -0.9329  1.3591 -0.9075
    1SOL    MW411380   3.555   4.494   4.632 -0.1755  0.0753 -0.7815
    1SOL     OW11381   2.521   1.402   4.281  0.1996  0.0439  0.0318
    1SOL    HW211382   2.539   1.491   4.252  2.1889 -0.0967  0.7382
    1SOL    HW311383   2.576   1.347   4.224  0.7352 -0.5482  1.1016
    1SOL    MW411384   2.531   1.406   4.270  0.5329 -0.0527  0.2666
    1SOL     OW11385   4.278   0.504   4.231 -0.1414  0.1509 -0.1647
    1SOL    HW211386   4.248   0.591   4.206 -1.0886  0.8221  2.9947
    1SOL    HW311387   4.213   0.445   4.194 -0.8430  0.9821 -0.2909
    1SOL    MW411388   4.266   0.508   4.223 -0.3595  0.3492  0.2351
    1SOL     OW11389   4.095   0.353   4.891  0.3327 -0.4828 -0.2550
    1SOL    HW211390   4.115   0.264   4.861 -0.1905 -1.0699  1.0789
    1SOL    HW311391   4.016   0.343   4.944 -0.2364  0.9238 -0.8081
    1SOL    MW411392   4.087   0.340   4.894  0.1884 -0.3747 -0.1521
    1SOL     OW11393   2.008   3.133   4.083 -0.4221 -0.3367 -0.1581
    1SOL    HW211394   2.030   3.042   4.105  0.5064  0.2465  1.3238
    1SOL    HW311395   1.939   3.157   4.145 -0.1534  0.2227 -0.0790
    1SOL    MW411396   2.002   3.124   4.094 -0.2642 -0.1857  0.0477
    1SOL     OW11397   1.060   1.256   4.509  0.2838  0.2387  0.6855
    1SOL    HW211398   1.121   1.185   4.526 -0.3172 -0.3918  0.2496
    1SOL    HW311399   1.089   1.327   4.567  0.8212 -0.3954  1.2039
    1SOL    MW411400   1.072   1.256   4.519  0.2755  0.0719  0.6957
    1SOL     OW11401   0.836   1.569   4.679  0.3333 -0.3136 -0.0634
    1SOL    HW211402   0.821   1.657   4.714 -1.8252  0.6291 -3.1011
    1SOL    HW311403   0.748   1.534   4.665  1.1492 -1.9376 -1.2781
    1SOL    MW411404   0.822   1.576   4.682  0.1562 -0.4035 -0.6247
    1SOL     OW11405   2.861   0.274   4.549 -0.0475 -0.0252  0.1356
    1SOL    HW211406   2.773   0.244   4.572 -0.2830 -0.4445 -1.3172
    1SOL    HW311407   2.851   0.368   4.534 -0.0737  0.0824  0.7843
    1SOL    MW411408   2.848   0.282   4.550 -0.0823 -0.0663  0.0300
    1SOL     OW11409   3.363   0.758   4.157  0.0466  0.3170 -0.3886
    1SOL    HW211410   3.381   0.685   4.216  0.5651  0.8038  0.0500
    1SOL    HW311411   3.293   0.807   4.201  2.6130  2.4955  1.4013
    1SOL    MW411412   3.356   0.755   4.171  0.4535  0.6686 -0.0944
    1SOL     OW11413   3.470   0.779   4.557  0.1774 -0.5407 -0.3448
    1SOL    HW211414   3.490   0.810   4.468 -0.2877  0.5141 -0.0940
    1SOL    HW311415   3.388   0.822   4.579  0.2719 -0.8315  0.5888
    1SOL    MW411416   3.462   0.789   4.548  0.1285 -0.4399 -0.1884
    1SOL     OW11417   2.606   2.305   3.969 -0.0840  0.0853 -0.0560
    1SOL    HW211418   2.649   2.220   3.975  0.6726  0.2925 -2.0968
    1SOL    HW311419   2.617   2.344   4.056 -0.3667 -1.8478  0.8641
    1SOL    MW411420   2.613   2.299   3.981 -0.0215 -0.1423 -0.2038
    1SOL     OW11421   2.425   4.409   4.525 -0.5547 -0.3422  0.1225
    1SOL    HW211422   2.500   4.350   4.525 -0.8036 -0.6599  0.8775
    1SOL    HW311423   2.359   4.364   4.579 -1.2589 -0.0380 -0.4628
    1SOL    MW411424   2.426   4.395   4.532 -0.6804 -0.3438  0.1445
    1SOL     OW11425   3.768   1.591   4.646 -0.2521  0.3390  0.0571
    1SOL    HW211426   3.794   1.642   4.723  0.4302 -0.1829  0.1697
    1SOL    HW311427   3.850   1.559   4.609 -0.5093  1.3145 -1.4034
    1SOL    MW411428   3.782   1.593   4.651 -0.1962  0.3989 -0.1206
    1SOL     OW11429   3.115   0.125   4.250  0.4021 -0.1531 -0.4492
    1SOL    HW211430   3.129   0.218   4.236  0.7326 -0.2091 -0.4891
    1SOL    HW311431   3.117   0.115   4.345  0.2405 -0.0987 -0.4407
    1SOL    MW411432   3.117   0.136   4.261  0.4241 -0.1533 -0.4530
    1SOL     OW11433   2.689   3.478   4.153 -0.2249 -0.0486  0.5355
    1SOL    HW211434   2.764   3.516   4.199  0.4453  0.3018 -0.8081
    1SOL    HW311435   2.614   3.529   4.183  0.1294 -0.1743  1.6339
    1SOL    MW411436   2.689   3.490   4.163 -0.0899 -0.0188  0.5031
    1SOL     OW11437   1.164   3.882   4.114  0.0923  0.5006  0.0387
    1SOL    HW211438   1.243   3.919   4.153  0.2730  0.4902 -0.3230
    1SOL    HW311439   1.148   3.801   4.163  0.2856  0.5184  0.1304
    1SOL    MW411440   1.172   3.876   4.126  0.1416  0.5016  0.0033
    1SOL     OW11441   0.370   0.594   4.550  0.4128  0.4423  0.4732
    1SOL    HW211442   0.323   0.539   4.487  1.0670  1.5043 -0.9664
    1SOL    HW311443   0.347   0.557   4.636 -0.4914 -1.0205 -0.3742
    1SOL    MW411444   0.361   0.582   4.553  0.3799  0.3895  0.1717
    1SOL     OW11445   0.681   2.061   4.232 -0.5808  0.2948 -0.1659
    1SOL    HW211446   0.758   2.016   4.197 -0.2684  0.3739  0.4065
    1SOL    HW311447   0.692   2.152   4.205 -0.8299  0.1706 -0.6827
    1SOL    MW411448   0.693   2.067   4.224 -0.5724  0.2890 -0.1588
    1SOL     OW11449   0.418   2.715   4.167  0.4288 -0.5863 -0.4750
    1SOL    HW211450   0.415   2.733   4.073  1.9341 -0.6895 -0.5576
    1SOL    HW311451   0.339   2.757   4.202  1.1936  1.7444 -1.4160
    1SOL    MW411452   0.407   2.723   4.159  0.7283 -0.2925 -0.6099
    1SOL     OW11453   1.337   2.452   4.263  0.0697 -0.7266  0.2503
    1SOL    HW211454   1.430   2.430   4.254 -0.3358 -1.9761 -1.2350
    1SOL    HW311455   1.331   2.544   4.240  0.9997 -0.5263  0.7839
    1SOL    MW411456   1.348   2.461   4.259  0.1389 -0.8650  0.1249
    1SOL     OW11457   3.076   2.980   4.632  0.2405 -0.3095 -0.3476
    1SOL    HW211458   3.043   2.954   4.718  1.3704 -1.4073 -0.2168
    1SOL    HW311459   2.998   2.991   4.578 -0.4570 -0.0210  0.7010
    1SOL    MW411460   3.062   2.978   4.636  0.2975 -0.4165 -0.1922
    1SOL     OW11461   2.700   0.941   4.245 -0.3344 -0.1729  0.2496
    1SOL    HW211462   2.784   0.901   4.225  0.2531  0.8757  0.5576
    1SOL    HW311463   2.696   0.945   4.340 -0.1788  0.9104  0.2188
    1SOL    MW411464   2.710   0.937   4.255 -0.2363  0.1083  0.2861
    1SOL     OW11465   0.107   0.112   4.494 -0.2644 -0.2001  0.1354
    1SOL    HW211466   0.201   0.132   4.500 -0.3482  0.2116  0.1348
    1SOL    HW311467   0.085   0.132   4.403  0.0905 -2.2960 -0.4293
    1SOL    MW411468   0.117   0.118   4.483 -0.2287 -0.4223  0.0606
    1SOL     OW11469   4.465   3.249   4.535 -0.0328 -0.3206 -0.5477
    1SOL    HW211470   4.541   3.205   4.571 -0.7752 -0.7084  0.5820
    1SOL    HW311471   4.473   3.340   4.565 -0.3041 -0.4908  0.0451
    1SOL    MW411472   4.476   3.255   4.544 -0.1666 -0.3941 -0.3204
    1SOL     OW11473   3.163   3.236   4.545  0.5054 -0.2192  0.3652
    1SOL    HW211474   3.145   3.146   4.572  0.7486 -0.1709  0.6876
    1SOL    HW311475   3.235   3.264   4.602  0.6813  0.0509  0.0046
    1SOL    MW411476   3.170   3.228   4.556  0.5610 -0.1774  0.3605
    1SOL     OW11477   1.395   1.798   4.692  0.0708 -0.0215 -0.6191
    1SOL    HW211478   1.460   1.869   4.687 -1.0629  1.0782 -0.0380
    1SOL    HW311479   1.318   1.839   4.732 -0.4327 -1.7165  0.1915
    1SOL    MW411480   1.394   1.813   4.697 -0.1453 -0.0999 -0.4349
    1SOL     OW11481   1.603   1.348   4.688  0.2116  0.4472 -0.2671
    1SOL    HW211482   1.511   1.334   4.713  0.3688  1.5189  0.9773
    1SOL    HW311483   1.604   1.438   4.654  0.8259  0.4845 -0.1463
    1SOL    MW411484   1.591   1.358   4.687  0.3133  0.5937 -0.0873
    1SOL     OW11485   4.077   2.020   4.122 -0.0071 -0.0084  0.1303
    1SOL    HW211486   3.984   2.041   4.111 -0.0192 -0.4306 -0.6918
    1SOL    HW311487   4.080   1.962   4.198 -0.5988 -1.0575 -0.6138
    1SOL    MW411488   4.065   2.015   4.130 -0.0868 -0.2029 -0.0758
    1SOL     OW11489   2.888   4.655   4.154 -0.1631  0.0339 -0.2496
    1SOL    HW211490   2.969   4.699   4.182 -0.7297 -0.2072  1.8805
    1SOL    HW311491   2.892   4.569   4.197 -0.8393 -0.5835 -1.3882
    1SOL    MW411492   2.899   4.649   4.163 -0.3271 -0.0792 -0.1187
    1SOL     OW11493   0.645   0.563   4.487 -0.4164  0.1310  0.2848
    1SOL    HW211494   0.561   0.594   4.520 -0.6367 -0.8053  0.5966
    1SOL    HW311495   0.663   0.484   4.537  0.5847  0.2482  0.1214
    1SOL    MW411496   0.636   0.557   4.498 -0.3134  0.0229  0.3037
    1SOL     OW11497   1.558   4.400   4.723  0.1506 -0.1118 -0.1152
    1SOL    HW211498   1.495   4.425   4.656 -0.4672  0.6960  0.7502
    1SOL    HW311499   1.513   4.418   4.806  0.9643 -0.9287  0.5167
    1SOL    MW411500   1.544   4.405   4.725  0.1765 -0.1135  0.0825
    1SOL     OW11501   3.993   1.466   4.537  0.3986 -0.3178 -0.2870
    1SOL    HW211502   4.078   1.487   4.576  0.1585 -0.8850  0.5621
    1SOL    HW311503   3.986   1.371   4.546 -0.3706 -0.2602 -0.2447
    1SOL    MW411504   4.003   1.456   4.544  0.2651 -0.3850 -0.1693
    1SOL     OW11505   4.196   2.492   4.563 -0.2556 -0.1140 -0.2701
    1SOL    HW211506   4.124   2.551   4.543 -0.5489 -0.6977 -0.9512
    1SOL    HW311507   4.258   2.545   4.614 -1.6829  0.0872  1.3160
    1SOL    MW411508   4.195   2.507   4.567 -0.4830 -0.1645 -0.1512
    1SOL     OW11509   2.895   3.685   4.506  0.2608  0.0620  0.0678
    1SOL    HW211510   2.801   3.701   4.499  0.2671 -0.5063 -1.5908
    1SOL    HW311511   2.903   3.589   4.509  0.7670  0.1143  0.4578
    1SOL    MW411512   2.884   3.674   4.506  0.3285 -0.0062 -0.0997
    1SOL     OW11513   1.532   4.129   4.630  0.4373 -0.1692  0.1538
    1SOL    HW211514   1.563   4.219   4.645 -0.0611 -0.1252  0.9163
    1SOL    HW311515   1.450   4.124   4.678  1.6704 -1.7871  2.1900
    1SOL    MW411516   1.525   4.140   4.638  0.5343 -0.3767  0.5231
    1SOL     OW11517   1.837   3.509   4.176 -0.2247  0.3521 -0.0017
    1SOL    HW211518   1.839   3.514   4.080  1.4114  1.8083  0.0838
    1SOL    HW311519   1.750   3.541   4.200 -0.7893 -0.3929 -1.0172
    1SOL    MW411520   1.826   3.514   4.166 -0.0833  0.4461 -0.1245
    1SOL     OW11521   1.616   1.617   4.630 -0.2667 -0.0974  0.0845
    1SOL    HW211522   1.529   1.651   4.652 -0.1891 -1.2121  2.3204
    1SOL    HW311523   1.677   1.680   4.668 -0.1322 -0.9398  1.3241
    1SOL    MW411524   1.612   1.630   4.638 -0.2387 -0.3555  0.5431
    1SOL     OW11525   2.212   2.206   4.655  0.1769 -0.8569 -0.0968
    1SOL    HW211526   2.228   2.200   4.561 -2.1597  0.0484 -0.5865
    1SOL    HW311527   2.273   2.273   4.685  0.3841 -0.5830 -1.0910
    1SOL    MW411528   2.222   2.214   4.646 -0.1042 -0.7017 -0.2918
    1SOL     OW11529   0.902   3.536   4.118 -0.1905 -0.1413  0.3072
    1SOL    HW211530   0.908   3.443   4.142  2.8670  0.1740  0.8853
    1SOL    HW311531   0.904   3.536   4.023 -0.0837 -0.6500  0.3088
    1SOL    MW411532   0.903   3.523   4.109  0.2270 -0.1669  0.3839
    1SOL     OW11533   0.033   1.663   4.273  0.4401  0.0419  0.0484
    1SOL    HW211534   0.078   1.656   4.356  0.2238  0.8370  0.2355
    1SOL    HW311535  -0.050   1.617   4.286  2.1988 -3.6526 -1.0594
    1SOL    MW411536   0.028   1.656   4.285  0.6437 -0.3406 -0.0730
    1SOL     OW11537   4.244   3.140   4.679 -0.2232  0.1319  0.5100
    1SOL    HW211538   4.314   3.166   4.619 -0.0668 -0.3384  0.4820
    1SOL    HW311539   4.253   3.199   4.754  0.2882 -0.0110  0.5641
    1SOL    MW411540   4.254   3.151   4.681 -0.1354  0.0508  0.5131
    1SOL     OW11541   3.095   2.489   4.199 -0.2880  0.4663 -0.3848
    1SOL    HW211542   3.093   2.466   4.292 -0.6342  1.8756 -0.0302
    1SOL    HW311543   3.051   2.416   4.155  0.2245 -0.4005  0.5035
    1SOL    MW411544   3.089   2.476   4.205 -0.2661  0.5379 -0.2213
    1SOL     OW11545   0.049   4.277   4.174 -0.3490 -0.3148  0.2903
    1SOL    HW211546  -0.020   4.341   4.194  0.3199  0.6474 -0.4531
    1SOL    HW311547   0.055   4.277   4.079  1.4228  0.4149  0.3879
    1SOL    MW411548   0.041   4.286   4.164 -0.0270 -0.0916  0.2050
    1SOL     OW11549   1.998   2.442   4.111 -0.2819 -0.0290 -0.0371
    1SOL    HW211550   1.934   2.412   4.176 -0.2147 -0.6617 -0.2637
    1SOL    HW311551   2.083   2.428   4.152 -0.2437 -0.3220 -0.2155
    1SOL    MW411552   2.001   2.436   4.125 -0.2680 -0.1512 -0.0901
    1SOL     OW11553   0.930   0.367   4.178 -0.1550  0.0006  0.4287
    1SOL    HW211554   1.000   0.421   4.215  0.3474 -0.9750  0.9288
    1SOL    HW311555   0.850   0.414   4.200  0.2727  0.5168  0.9129
    1SOL    MW411556   0.929   0.380   4.186 -0.0323 -0.0600  0.5589
    1NA      NA11557   3.125   3.963   0.469  0.0330 -0.3361 -0.2202
    1NA      NA11558   0.882   2.428   0.734 -0.1051  0.1411  0.0664
   4.49070   4.66690  10.00000
